<event>
 4    1  0.8722554E-003  0.5220000E+03  0.7818608E-02  0.1008191E+00
         21   -1    0    0  501  502  0.00000000000E+00  0.00000000000E+00  0.21814345379E+03  0.21814345379E+03  0.00000000000E+00 0. -1.
         21   -1    0    0  502  503 -0.00000000000E+00 -0.00000000000E+00 -0.14082083175E+04  0.14082083175E+04  0.00000000000E+00 0.  1.
    9000005    1    1    2  501    0  0.28915647670E+03  0.16991924923E+03 -0.32170008572E+03  0.61316797407E+03  0.40000000000E+03 0. -1.
   -9000005    1    1    2    0  503 -0.28915647670E+03 -0.16991924923E+03 -0.86836477796E+03  0.10131837972E+04  0.40000000000E+03 0.  1.
<mgrwt>
<rscale>  2 0.52200002E+03</rscale>
<asrwt>0</asrwt>
<pdfrwt beam="1">  1       21 0.33560531E-01 0.52200002E+03</pdfrwt>
<pdfrwt beam="2">  1       21 0.21664743E+00 0.52200002E+03</pdfrwt>
<totfact> 0.72125196E+02</totfact>
</mgrwt>
</event>
<event>
 4    1  0.8722554E-003  0.5473638E+03  0.7818608E-02  0.1002106E+00
         21   -1    0    0  503  502  0.00000000000E+00  0.00000000000E+00  0.17001096469E+04  0.17001096469E+04  0.00000000000E+00 0.  1.
         21   -1    0    0  501  503 -0.00000000000E+00 -0.00000000000E+00 -0.22319994587E+03  0.22319994587E+03  0.00000000000E+00 0. -1.
    9000005    1    1    2  501    0  0.60320412930E+02 -0.36873910591E+03  0.29730005256E+03  0.62289196631E+03  0.40000000000E+03 0. -1.
   -9000005    1    1    2    0  502 -0.60320412930E+02  0.36873910591E+03  0.11796096485E+04  0.13004176264E+04  0.40000000000E+03 0.  1.
<mgrwt>
<rscale>  2 0.54736376E+03</rscale>
<asrwt>0</asrwt>
<pdfrwt beam="1">  1       21 0.26155532E+00 0.54736376E+03</pdfrwt>
<pdfrwt beam="2">  1       21 0.34338454E-01 0.54736376E+03</pdfrwt>
<totfact> 0.35587093E+02</totfact>
</mgrwt>
</event>
<event>
 4    1  0.8722554E-003  0.4067965E+03  0.7818608E-02  0.1041451E+00
         21   -1    0    0  501  502  0.00000000000E+00  0.00000000000E+00  0.18077588531E+04  0.18077588531E+04  0.00000000000E+00 0.  1.
         21   -1    0    0  502  503 -0.00000000000E+00 -0.00000000000E+00 -0.98679405448E+02  0.98679405448E+02  0.00000000000E+00 0.  1.
    9000005    1    1    2  501    0 -0.73833762451E+02 -0.56543383882E+01  0.11109238607E+04  0.11830617990E+04  0.40000000000E+03 0.  1.
   -9000005    1    1    2    0  503  0.73833762451E+02  0.56543383882E+01  0.59815558704E+03  0.72337645961E+03  0.40000000000E+03 0.  1.
<mgrwt>
<rscale>  2 0.40679650E+03</rscale>
<asrwt>0</asrwt>
<pdfrwt beam="1">  1       21 0.27811672E+00 0.40679650E+03</pdfrwt>
<pdfrwt beam="2">  1       21 0.15181448E-01 0.40679650E+03</pdfrwt>
<totfact> 0.14672468E+03</totfact>
</mgrwt>
</event>
<event>
 4    1  0.8722554E-003  0.4170102E+03  0.7818608E-02  0.1038044E+00
         21   -1    0    0  503  502  0.00000000000E+00  0.00000000000E+00  0.28895719459E+04  0.28895719459E+04  0.00000000000E+00 0. -1.
         21   -1    0    0  501  503 -0.00000000000E+00 -0.00000000000E+00 -0.60182592825E+02  0.60182592825E+02  0.00000000000E+00 0. -1.
    9000005    1    1    2  501    0  0.70451476130E+01  0.11767716126E+03  0.14072898878E+04  0.14677746342E+04  0.40000000000E+03 0. -1.
   -9000005    1    1    2    0  502 -0.70451476130E+01 -0.11767716126E+03  0.14220994652E+04  0.14819799045E+04  0.40000000000E+03 0. -1.
<mgrwt>
<rscale>  2 0.41701025E+03</rscale>
<asrwt>0</asrwt>
<pdfrwt beam="1">  1       21 0.44454942E+00 0.41701025E+03</pdfrwt>
<pdfrwt beam="2">  1       21 0.92588627E-02 0.41701025E+03</pdfrwt>
<totfact> 0.32889711E+02</totfact>
</mgrwt>
</event>
<event>
 4    1  0.8722554E-003  0.4478193E+03  0.7818608E-02  0.1028374E+00
         21   -1    0    0  503  502  0.00000000000E+00  0.00000000000E+00  0.25141989541E+03  0.25141989541E+03  0.00000000000E+00 0. -1.
         21   -1    0    0  501  503 -0.00000000000E+00 -0.00000000000E+00 -0.80711953703E+03  0.80711953703E+03  0.00000000000E+00 0.  1.
    9000005    1    1    2  501    0  0.79270792696E+02 -0.18508986803E+03 -0.22048542128E+03  0.49915522518E+03  0.40000000000E+03 0. -1.
   -9000005    1    1    2    0  502 -0.79270792696E+02  0.18508986803E+03 -0.33521422034E+03  0.55938420727E+03  0.40000000000E+03 0.  1.
<mgrwt>
<rscale>  2 0.44781929E+03</rscale>
<asrwt>0</asrwt>
<pdfrwt beam="1">  1       21 0.38679986E-01 0.44781929E+03</pdfrwt>
<pdfrwt beam="2">  1       21 0.12417223E+00 0.44781929E+03</pdfrwt>
<totfact> 0.27065590E+03</totfact>
</mgrwt>
</event>
<event>
 4    1  0.8722554E-003  0.5738462E+03  0.7818608E-02  0.9961203E-01
         21   -1    0    0  503  502  0.00000000000E+00  0.00000000000E+00  0.31589393391E+03  0.31589393391E+03  0.00000000000E+00 0.  1.
         21   -1    0    0  501  503 -0.00000000000E+00 -0.00000000000E+00 -0.12410350556E+04  0.12410350556E+04  0.00000000000E+00 0. -1.
    9000005    1    1    2  501    0 -0.40053776651E+03  0.94175299206E+02 -0.77398188667E+03  0.96350788802E+03  0.40000000000E+03 0. -1.
   -9000005    1    1    2    0  502  0.40053776651E+03 -0.94175299206E+02 -0.15115923504E+03  0.59342110151E+03  0.40000000000E+03 0.  1.
<mgrwt>
<rscale>  2 0.57384622E+03</rscale>
<asrwt>0</asrwt>
<pdfrwt beam="1">  1       21 0.48599066E-01 0.57384622E+03</pdfrwt>
<pdfrwt beam="2">  1       21 0.19092847E+00 0.57384622E+03</pdfrwt>
<totfact> 0.48706906E+02</totfact>
</mgrwt>
</event>
<event>
 4    1  0.8722554E-003  0.4680737E+03  0.7818608E-02  0.1022465E+00
         21   -1    0    0  503  502  0.00000000000E+00  0.00000000000E+00  0.13541926032E+03  0.13541926032E+03  0.00000000000E+00 0. -1.
         21   -1    0    0  501  503 -0.00000000000E+00 -0.00000000000E+00 -0.20485465427E+04  0.20485465427E+04  0.00000000000E+00 0.  1.
    9000005    1    1    2  501    0 -0.24008252838E+01 -0.24307871801E+03 -0.14572434565E+04  0.15305722847E+04  0.40000000000E+03 0.  1.
   -9000005    1    1    2    0  502  0.24008252838E+01  0.24307871801E+03 -0.45588382584E+03  0.65339351831E+03  0.40000000000E+03 0.  1.
<mgrwt>
<rscale>  2 0.46807374E+03</rscale>
<asrwt>0</asrwt>
<pdfrwt beam="1">  1       21 0.20833734E-01 0.46807374E+03</pdfrwt>
<pdfrwt beam="2">  1       21 0.31516098E+00 0.46807374E+03</pdfrwt>
<totfact> 0.46813235E+02</totfact>
</mgrwt>
</event>
<event>
 4    1  0.8722554E-003  0.5198364E+03  0.7818608E-02  0.1008727E+00
         21   -1    0    0  503  502  0.00000000000E+00  0.00000000000E+00  0.57530387442E+03  0.57530387442E+03  0.00000000000E+00 0.  1.
         21   -1    0    0  501  503 -0.00000000000E+00 -0.00000000000E+00 -0.55429587543E+03  0.55429587543E+03  0.00000000000E+00 0.  1.
    9000005    1    1    2  501    0  0.27624957631E+03 -0.18416318866E+03 -0.21012123006E+03  0.56069674494E+03  0.40000000000E+03 0.  1.
   -9000005    1    1    2    0  502 -0.27624957631E+03  0.18416318866E+03  0.23112922906E+03  0.56890300491E+03  0.40000000000E+03 0.  1.
<mgrwt>
<rscale>  2 0.51983642E+03</rscale>
<asrwt>0</asrwt>
<pdfrwt beam="1">  1       21 0.88508288E-01 0.51983642E+03</pdfrwt>
<pdfrwt beam="2">  1       21 0.85276289E-01 0.51983642E+03</pdfrwt>
<totfact> 0.10782674E+03</totfact>
</mgrwt>
</event>
<event>
 4    1  0.8722554E-003  0.4382377E+03  0.7818608E-02  0.1031289E+00
         21   -1    0    0  503  502  0.00000000000E+00  0.00000000000E+00  0.31310658252E+03  0.31310658252E+03  0.00000000000E+00 0.  1.
         21   -1    0    0  501  503 -0.00000000000E+00 -0.00000000000E+00 -0.71901429414E+03  0.71901429414E+03  0.00000000000E+00 0.  1.
    9000005    1    1    2  501    0  0.12813518622E+03  0.12503458754E+03 -0.40076060703E+03  0.59385296007E+03  0.40000000000E+03 0.  1.
   -9000005    1    1    2    0  502 -0.12813518622E+03 -0.12503458754E+03 -0.51471045893E+01  0.43826791660E+03  0.40000000000E+03 0.  1.
<mgrwt>
<rscale>  2 0.43823769E+03</rscale>
<asrwt>0</asrwt>
<pdfrwt beam="1">  1       21 0.48170244E-01 0.43823769E+03</pdfrwt>
<pdfrwt beam="2">  1       21 0.11061758E+00 0.43823769E+03</pdfrwt>
<totfact> 0.23020656E+03</totfact>
</mgrwt>
</event>
<event>
 4    1  0.8722554E-003  0.4304039E+03  0.7818608E-02  0.1033732E+00
         21   -1    0    0  501  502  0.00000000000E+00  0.00000000000E+00  0.34255317187E+03  0.34255317187E+03  0.00000000000E+00 0. -1.
         21   -1    0    0  502  503 -0.00000000000E+00 -0.00000000000E+00 -0.61448996293E+03  0.61448996293E+03  0.00000000000E+00 0. -1.
    9000005    1    1    2  501    0  0.15346933621E+03  0.41166010708E+02  0.29758763409E+02  0.43143141007E+03  0.40000000000E+03 0.  1.
   -9000005    1    1    2    0  503 -0.15346933621E+03 -0.41166010708E+02 -0.30169555446E+03  0.52561172473E+03  0.40000000000E+03 0.  1.
<mgrwt>
<rscale>  2 0.43040385E+03</rscale>
<asrwt>0</asrwt>
<pdfrwt beam="1">  1       21 0.52700488E-01 0.43040385E+03</pdfrwt>
<pdfrwt beam="2">  1       21 0.94536918E-01 0.43040385E+03</pdfrwt>
<totfact> 0.27979091E+03</totfact>
</mgrwt>
</event>
<event>
 4    1  0.8722554E-003  0.4598545E+03  0.7818608E-02  0.1024823E+00
         21   -1    0    0  503  502  0.00000000000E+00  0.00000000000E+00  0.40965173132E+03  0.40965173132E+03  0.00000000000E+00 0.  1.
         21   -1    0    0  501  503 -0.00000000000E+00 -0.00000000000E+00 -0.56640520921E+03  0.56640520921E+03  0.00000000000E+00 0.  1.
    9000005    1    1    2  501    0  0.17762835139E+03 -0.14111824480E+03 -0.22365948696E+03  0.51136069104E+03  0.40000000000E+03 0. -1.
   -9000005    1    1    2    0  502 -0.17762835139E+03  0.14111824480E+03  0.66906009074E+02  0.46469624948E+03  0.40000000000E+03 0. -1.
<mgrwt>
<rscale>  2 0.45985453E+03</rscale>
<asrwt>0</asrwt>
<pdfrwt beam="1">  1       21 0.63023343E-01 0.45985453E+03</pdfrwt>
<pdfrwt beam="2">  1       21 0.87139263E-01 0.45985453E+03</pdfrwt>
<totfact> 0.22752016E+03</totfact>
</mgrwt>
</event>
<event>
 4    1  0.8722554E-003  0.4253543E+03  0.7818608E-02  0.1035338E+00
         21   -1    0    0  503  502  0.00000000000E+00  0.00000000000E+00  0.43172395611E+03  0.43172395611E+03  0.00000000000E+00 0. -1.
         21   -1    0    0  501  503 -0.00000000000E+00 -0.00000000000E+00 -0.56107605253E+03  0.56107605253E+03  0.00000000000E+00 0. -1.
    9000005    1    1    2  501    0 -0.12959759330E+03 -0.64270745442E+02 -0.31440058068E+03  0.52893665976E+03  0.40000000000E+03 0. -1.
   -9000005    1    1    2    0  502  0.12959759330E+03  0.64270745442E+02  0.18504848426E+03  0.46386334888E+03  0.40000000000E+03 0. -1.
<mgrwt>
<rscale>  2 0.42535428E+03</rscale>
<asrwt>0</asrwt>
<pdfrwt beam="1">  1       21 0.66419071E-01 0.42535428E+03</pdfrwt>
<pdfrwt beam="2">  1       21 0.86319392E-01 0.42535428E+03</pdfrwt>
<totfact> 0.20976088E+03</totfact>
</mgrwt>
</event>
<event>
 4    1  0.8722554E-003  0.4761674E+03  0.7818608E-02  0.1020194E+00
         21   -1    0    0  503  502  0.00000000000E+00  0.00000000000E+00  0.48221085993E+03  0.48221085993E+03  0.00000000000E+00 0. -1.
         21   -1    0    0  501  503 -0.00000000000E+00 -0.00000000000E+00 -0.48778799575E+03  0.48778799575E+03  0.00000000000E+00 0.  1.
    9000005    1    1    2  501    0 -0.12684833768E+03 -0.22504428523E+03 -0.94883726255E+02  0.48552894105E+03  0.40000000000E+03 0.  1.
   -9000005    1    1    2    0  502  0.12684833768E+03  0.22504428523E+03  0.89306590437E+02  0.48446991463E+03  0.40000000000E+03 0. -1.
<mgrwt>
<rscale>  2 0.47616744E+03</rscale>
<asrwt>0</asrwt>
<pdfrwt beam="1">  1       21 0.74186286E-01 0.47616744E+03</pdfrwt>
<pdfrwt beam="2">  1       21 0.75044307E-01 0.47616744E+03</pdfrwt>
<totfact> 0.22179779E+03</totfact>
</mgrwt>
</event>
<event>
 4    1  0.8722554E-003  0.4241967E+03  0.7818608E-02  0.1035709E+00
         21   -1    0    0  503  502  0.00000000000E+00  0.00000000000E+00  0.15580706858E+03  0.15580706858E+03  0.00000000000E+00 0.  1.
         21   -1    0    0  501  503 -0.00000000000E+00 -0.00000000000E+00 -0.11582509378E+04  0.11582509378E+04  0.00000000000E+00 0.  1.
    9000005    1    1    2  501    0  0.86466570230E+02 -0.11165300553E+03 -0.53651864608E+03  0.68395549490E+03  0.40000000000E+03 0.  1.
   -9000005    1    1    2    0  502 -0.86466570230E+02  0.11165300553E+03 -0.46592522311E+03  0.63010251146E+03  0.40000000000E+03 0.  1.
<mgrwt>
<rscale>  2 0.42419672E+03</rscale>
<asrwt>0</asrwt>
<pdfrwt beam="1">  1       21 0.23970319E-01 0.42419672E+03</pdfrwt>
<pdfrwt beam="2">  1       21 0.17819245E+00 0.42419672E+03</pdfrwt>
<totfact> 0.26545810E+03</totfact>
</mgrwt>
</event>
<event>
 4    1  0.8722554E-003  0.4924312E+03  0.7818608E-02  0.1015774E+00
         21   -1    0    0  501  502  0.00000000000E+00  0.00000000000E+00  0.27989925326E+04  0.27989925326E+04  0.00000000000E+00 0. -1.
         21   -1    0    0  502  503 -0.00000000000E+00 -0.00000000000E+00 -0.91817507195E+02  0.91817507195E+02  0.00000000000E+00 0. -1.
    9000005    1    1    2  501    0  0.27817686164E+03  0.71457346634E+02  0.16970107576E+04  0.17670127420E+04  0.40000000000E+03 0. -1.
   -9000005    1    1    2    0  503 -0.27817686164E+03 -0.71457346634E+02  0.10101642678E+04  0.11237972979E+04  0.40000000000E+03 0. -1.
<mgrwt>
<rscale>  2 0.49243123E+03</rscale>
<asrwt>0</asrwt>
<pdfrwt beam="1">  1       21 0.43061417E+00 0.49243123E+03</pdfrwt>
<pdfrwt beam="2">  1       21 0.14125772E-01 0.49243123E+03</pdfrwt>
<totfact> 0.17984715E+02</totfact>
</mgrwt>
</event>
<event>
 4    1  0.8722554E-003  0.4463655E+03  0.7818608E-02  0.1028811E+00
         21   -1    0    0  501  502  0.00000000000E+00  0.00000000000E+00  0.10691476545E+04  0.10691476545E+04  0.00000000000E+00 0. -1.
         21   -1    0    0  502  503 -0.00000000000E+00 -0.00000000000E+00 -0.18639000154E+03  0.18639000154E+03  0.00000000000E+00 0. -1.
    9000005    1    1    2  501    0  0.14845197336E+03  0.13116472400E+03  0.44984685016E+03  0.63372262214E+03  0.40000000000E+03 0.  1.
   -9000005    1    1    2    0  503 -0.14845197336E+03 -0.13116472400E+03  0.43291080283E+03  0.62181503393E+03  0.40000000000E+03 0.  1.
<mgrwt>
<rscale>  2 0.44636552E+03</rscale>
<asrwt>0</asrwt>
<pdfrwt beam="1">  1       21 0.16448425E+00 0.44636552E+03</pdfrwt>
<pdfrwt beam="2">  1       21 0.28675386E-01 0.44636552E+03</pdfrwt>
<totfact> 0.23287952E+03</totfact>
</mgrwt>
</event>
<event>
 4    1  0.8722554E-003  0.4283680E+03  0.7818608E-02  0.1034377E+00
         21   -1    0    0  503  502  0.00000000000E+00  0.00000000000E+00  0.13432221184E+04  0.13432221184E+04  0.00000000000E+00 0. -1.
         21   -1    0    0  501  503 -0.00000000000E+00 -0.00000000000E+00 -0.23680888352E+03  0.23680888352E+03  0.00000000000E+00 0. -1.
    9000005    1    1    2  501    0 -0.13384439091E+03  0.74731481366E+02  0.39322054889E+02  0.43016896597E+03  0.40000000000E+03 0. -1.
   -9000005    1    1    2    0  502  0.13384439091E+03 -0.74731481366E+02  0.10670911800E+04  0.11498620360E+04  0.40000000000E+03 0. -1.
<mgrwt>
<rscale>  2 0.42836797E+03</rscale>
<asrwt>0</asrwt>
<pdfrwt beam="1">  1       21 0.20664955E+00 0.42836797E+03</pdfrwt>
<pdfrwt beam="2">  1       21 0.36432137E-01 0.42836797E+03</pdfrwt>
<totfact> 0.74052550E+02</totfact>
</mgrwt>
</event>
<event>
 4    1  0.8722554E-003  0.6876667E+03  0.7818608E-02  0.9738559E-01
         21   -1    0    0  503  502  0.00000000000E+00  0.00000000000E+00  0.10712795542E+04  0.10712795542E+04  0.00000000000E+00 0.  1.
         21   -1    0    0  501  503 -0.00000000000E+00 -0.00000000000E+00 -0.44339237721E+03  0.44339237721E+03  0.00000000000E+00 0. -1.
    9000005    1    1    2  501    0 -0.52589674850E+03 -0.19057308906E+03  0.26344738272E+03  0.73640343278E+03  0.40000000000E+03 0.  1.
   -9000005    1    1    2    0  502  0.52589674850E+03  0.19057308906E+03  0.36443979432E+03  0.77826849868E+03  0.40000000000E+03 0.  1.
<mgrwt>
<rscale>  2 0.68766670E+03</rscale>
<asrwt>0</asrwt>
<pdfrwt beam="1">  1       21 0.16481224E+00 0.68766670E+03</pdfrwt>
<pdfrwt beam="2">  1       21 0.68214212E-01 0.68766670E+03</pdfrwt>
<totfact> 0.34334359E+02</totfact>
</mgrwt>
</event>
<event>
 4    1  0.8722554E-003  0.5437399E+03  0.7818608E-02  0.1002953E+00
         21   -1    0    0  501  502  0.00000000000E+00  0.00000000000E+00  0.31428367335E+03  0.31428367335E+03  0.00000000000E+00 0.  1.
         21   -1    0    0  502  503 -0.00000000000E+00 -0.00000000000E+00 -0.98027638217E+03  0.98027638217E+03  0.00000000000E+00 0. -1.
    9000005    1    1    2  501    0  0.12817012866E+02 -0.36808801504E+03 -0.20297220296E+03  0.58038847146E+03  0.40000000000E+03 0.  1.
   -9000005    1    1    2    0  503 -0.12817012866E+02  0.36808801504E+03 -0.46302050586E+03  0.71417158406E+03  0.40000000000E+03 0. -1.
<mgrwt>
<rscale>  2 0.54373989E+03</rscale>
<asrwt>0</asrwt>
<pdfrwt beam="1">  1       21 0.48351335E-01 0.54373989E+03</pdfrwt>
<pdfrwt beam="2">  1       21 0.15081175E+00 0.54373989E+03</pdfrwt>
<totfact> 0.98085007E+02</totfact>
</mgrwt>
</event>
<event>
 4    1  0.8722554E-003  0.4856261E+03  0.7818608E-02  0.1017600E+00
         21   -1    0    0  503  502  0.00000000000E+00  0.00000000000E+00  0.19061486043E+03  0.19061486043E+03  0.00000000000E+00 0.  1.
         21   -1    0    0  501  503 -0.00000000000E+00 -0.00000000000E+00 -0.13292456510E+04  0.13292456510E+04  0.00000000000E+00 0.  1.
    9000005    1    1    2  501    0  0.26046881027E+03 -0.89379789697E+02 -0.76926599446E+03  0.90972683711E+03  0.40000000000E+03 0.  1.
   -9000005    1    1    2    0  502 -0.26046881027E+03  0.89379789697E+02 -0.36936479612E+03  0.61013367432E+03  0.40000000000E+03 0.  1.
<mgrwt>
<rscale>  2 0.48562614E+03</rscale>
<asrwt>0</asrwt>
<pdfrwt beam="1">  1       21 0.29325363E-01 0.48562614E+03</pdfrwt>
<pdfrwt beam="2">  1       21 0.20449933E+00 0.48562614E+03</pdfrwt>
<totfact> 0.11519597E+03</totfact>
</mgrwt>
</event>
<event>
 4    1  0.8722554E-003  0.5968167E+03  0.7818608E-02  0.9912032E-01
         21   -1    0    0  501  502  0.00000000000E+00  0.00000000000E+00  0.67894641834E+03  0.67894641834E+03  0.00000000000E+00 0. -1.
         21   -1    0    0  502  503 -0.00000000000E+00 -0.00000000000E+00 -0.66089578962E+03  0.66089578962E+03  0.00000000000E+00 0. -1.
    9000005    1    1    2  501    0  0.40119819723E+03  0.18769709922E+03  0.31322825761E+03  0.67401938836E+03  0.40000000000E+03 0. -1.
   -9000005    1    1    2    0  503 -0.40119819723E+03 -0.18769709922E+03 -0.29517762890E+03  0.66582281961E+03  0.40000000000E+03 0. -1.
<mgrwt>
<rscale>  2 0.59681672E+03</rscale>
<asrwt>0</asrwt>
<pdfrwt beam="1">  1       21 0.10445330E+00 0.59681672E+03</pdfrwt>
<pdfrwt beam="2">  1       21 0.10167628E+00 0.59681672E+03</pdfrwt>
<totfact> 0.46104283E+02</totfact>
</mgrwt>
</event>
<event>
 4    1  0.8722554E-003  0.4214191E+03  0.7818608E-02  0.1036605E+00
         21   -1    0    0  503  502  0.00000000000E+00  0.00000000000E+00  0.15464488939E+03  0.15464488939E+03  0.00000000000E+00 0.  1.
         21   -1    0    0  501  503 -0.00000000000E+00 -0.00000000000E+00 -0.18528450073E+04  0.18528450073E+04  0.00000000000E+00 0.  1.
    9000005    1    1    2  501    0 -0.13264213380E+03  0.32248297353E+00 -0.23018980771E+03  0.48018890785E+03  0.40000000000E+03 0.  1.
   -9000005    1    1    2    0  502  0.13264213380E+03 -0.32248297353E+00 -0.14680103102E+04  0.15273009888E+04  0.40000000000E+03 0.  1.
<mgrwt>
<rscale>  2 0.42141908E+03</rscale>
<asrwt>0</asrwt>
<pdfrwt beam="1">  1       21 0.23791521E-01 0.42141908E+03</pdfrwt>
<pdfrwt beam="2">  1       21 0.28505308E+00 0.42141908E+03</pdfrwt>
<totfact> 0.56518938E+02</totfact>
</mgrwt>
</event>
<event>
 4    1  0.8722554E-003  0.4205264E+03  0.7818608E-02  0.1036895E+00
         21   -1    0    0  501  502  0.00000000000E+00  0.00000000000E+00  0.99621622337E+03  0.99621622337E+03  0.00000000000E+00 0. -1.
         21   -1    0    0  502  503 -0.00000000000E+00 -0.00000000000E+00 -0.17916744350E+03  0.17916744350E+03  0.00000000000E+00 0. -1.
    9000005    1    1    2  501    0  0.79731905983E+02  0.10239765569E+03  0.46497876996E+03  0.62693517467E+03  0.40000000000E+03 0. -1.
   -9000005    1    1    2    0  503 -0.79731905983E+02 -0.10239765569E+03  0.35207000991E+03  0.54844849220E+03  0.40000000000E+03 0. -1.
<mgrwt>
<rscale>  2 0.42052640E+03</rscale>
<asrwt>0</asrwt>
<pdfrwt beam="1">  1       21 0.15326403E+00 0.42052640E+03</pdfrwt>
<pdfrwt beam="2">  1       21 0.27564223E-01 0.42052640E+03</pdfrwt>
<totfact> 0.30942769E+03</totfact>
</mgrwt>
</event>
<event>
 4    1  0.8722554E-003  0.4661209E+03  0.7818608E-02  0.1023021E+00
         21   -1    0    0  503  502  0.00000000000E+00  0.00000000000E+00  0.46237605076E+03  0.46237605076E+03  0.00000000000E+00 0. -1.
         21   -1    0    0  501  503 -0.00000000000E+00 -0.00000000000E+00 -0.50559082856E+03  0.50559082856E+03  0.00000000000E+00 0.  1.
    9000005    1    1    2  501    0 -0.13492885782E+02  0.23892818280E+03 -0.15020489172E+03  0.48972466142E+03  0.40000000000E+03 0.  1.
   -9000005    1    1    2    0  502  0.13492885782E+02 -0.23892818280E+03  0.10699011393E+03  0.47824221790E+03  0.40000000000E+03 0.  1.
<mgrwt>
<rscale>  2 0.46612094E+03</rscale>
<asrwt>0</asrwt>
<pdfrwt beam="1">  1       21 0.71134778E-01 0.46612094E+03</pdfrwt>
<pdfrwt beam="2">  1       21 0.77783204E-01 0.46612094E+03</pdfrwt>
<totfact> 0.22554159E+03</totfact>
</mgrwt>
</event>
<event>
 4    1  0.8722554E-003  0.4486714E+03  0.7818608E-02  0.1028119E+00
         21   -1    0    0  501  502  0.00000000000E+00  0.00000000000E+00  0.21873911881E+04  0.21873911881E+04  0.00000000000E+00 0. -1.
         21   -1    0    0  502  503 -0.00000000000E+00 -0.00000000000E+00 -0.10216141327E+03  0.10216141327E+03  0.00000000000E+00 0. -1.
    9000005    1    1    2  501    0 -0.12991395754E+03 -0.15629581953E+03  0.14031173175E+04  0.14731069976E+04  0.40000000000E+03 0.  1.
   -9000005    1    1    2    0  503  0.12991395754E+03  0.15629581953E+03  0.68211245736E+03  0.81644560385E+03  0.40000000000E+03 0.  1.
<mgrwt>
<rscale>  2 0.44867139E+03</rscale>
<asrwt>0</asrwt>
<pdfrwt beam="1">  1       21 0.33652169E+00 0.44867139E+03</pdfrwt>
<pdfrwt beam="2">  1       21 0.15717142E-01 0.44867139E+03</pdfrwt>
<totfact> 0.59806489E+02</totfact>
</mgrwt>
</event>
<event>
 4    1  0.8722554E-003  0.4474733E+03  0.7818608E-02  0.1028478E+00
         21   -1    0    0  501  502  0.00000000000E+00  0.00000000000E+00  0.34377703131E+03  0.34377703131E+03  0.00000000000E+00 0. -1.
         21   -1    0    0  502  503 -0.00000000000E+00 -0.00000000000E+00 -0.10347099017E+04  0.10347099017E+04  0.00000000000E+00 0.  1.
    9000005    1    1    2  501    0 -0.20016561735E+03  0.12885929755E+02  0.11021176249E+03  0.46084591150E+03  0.40000000000E+03 0. -1.
   -9000005    1    1    2    0  503  0.20016561735E+03 -0.12885929755E+02 -0.80114463284E+03  0.91764102147E+03  0.40000000000E+03 0.  1.
<mgrwt>
<rscale>  2 0.44747326E+03</rscale>
<asrwt>0</asrwt>
<pdfrwt beam="1">  1       21 0.52888774E-01 0.44747326E+03</pdfrwt>
<pdfrwt beam="2">  1       21 0.15918614E+00 0.44747326E+03</pdfrwt>
<totfact> 0.72498552E+02</totfact>
</mgrwt>
</event>
<event>
 4    1  0.8722554E-003  0.7352907E+03  0.7818608E-02  0.9658714E-01
         21   -1    0    0  501  502  0.00000000000E+00  0.00000000000E+00  0.29968158447E+03  0.29968158447E+03  0.00000000000E+00 0.  1.
         21   -1    0    0  502  503 -0.00000000000E+00 -0.00000000000E+00 -0.18121748817E+04  0.18121748817E+04  0.00000000000E+00 0. -1.
    9000005    1    1    2  501    0  0.60495889552E+03  0.12114957658E+03 -0.82677714971E+03  0.11064415667E+04  0.40000000000E+03 0.  1.
   -9000005    1    1    2    0  503 -0.60495889552E+03 -0.12114957658E+03 -0.68571614754E+03  0.10054148995E+04  0.40000000000E+03 0. -1.
<mgrwt>
<rscale>  2 0.73529075E+03</rscale>
<asrwt>0</asrwt>
<pdfrwt beam="1">  1       21 0.46104861E-01 0.73529075E+03</pdfrwt>
<pdfrwt beam="2">  1       21 0.27879613E+00 0.73529075E+03</pdfrwt>
<totfact> 0.14042322E+02</totfact>
</mgrwt>
</event>
<event>
 4    1  0.8722554E-003  0.4829358E+03  0.7818608E-02  0.1018331E+00
         21   -1    0    0  501  502  0.00000000000E+00  0.00000000000E+00  0.33061481549E+03  0.33061481549E+03  0.00000000000E+00 0.  1.
         21   -1    0    0  502  503 -0.00000000000E+00 -0.00000000000E+00 -0.11276513993E+04  0.11276513993E+04  0.00000000000E+00 0.  1.
    9000005    1    1    2  501    0 -0.20482443445E+03 -0.17684429792E+03  0.47638403170E+02  0.48527968442E+03  0.40000000000E+03 0.  1.
   -9000005    1    1    2    0  503  0.20482443445E+03  0.17684429792E+03 -0.84467498694E+03  0.97298653034E+03  0.40000000000E+03 0.  1.
<mgrwt>
<rscale>  2 0.48293577E+03</rscale>
<asrwt>0</asrwt>
<pdfrwt beam="1">  1       21 0.50863818E-01 0.48293577E+03</pdfrwt>
<pdfrwt beam="2">  1       21 0.17348483E+00 0.48293577E+03</pdfrwt>
<totfact> 0.60834167E+02</totfact>
</mgrwt>
</event>
<event>
 4    1  0.8722554E-003  0.5567054E+03  0.7818608E-02  0.9999537E-01
         21   -1    0    0  503  502  0.00000000000E+00  0.00000000000E+00  0.15528721147E+04  0.15528721147E+04  0.00000000000E+00 0. -1.
         21   -1    0    0  501  503 -0.00000000000E+00 -0.00000000000E+00 -0.21942946161E+03  0.21942946161E+03  0.00000000000E+00 0. -1.
    9000005    1    1    2  501    0 -0.34973942140E+03  0.16614217649E+03  0.40019267547E+03  0.68562020331E+03  0.40000000000E+03 0. -1.
   -9000005    1    1    2    0  502  0.34973942140E+03 -0.16614217649E+03  0.93324997758E+03  0.10866813730E+04  0.40000000000E+03 0. -1.
<mgrwt>
<rscale>  2 0.55670539E+03</rscale>
<asrwt>0</asrwt>
<pdfrwt beam="1">  1       21 0.23890340E+00 0.55670539E+03</pdfrwt>
<pdfrwt beam="2">  1       21 0.33758380E-01 0.55670539E+03</pdfrwt>
<totfact> 0.50697458E+02</totfact>
</mgrwt>
</event>
<event>
 4    1  0.8722554E-003  0.6519237E+03  0.7818608E-02  0.9803176E-01
         21   -1    0    0  503  502  0.00000000000E+00  0.00000000000E+00  0.36845382559E+03  0.36845382559E+03  0.00000000000E+00 0.  1.
         21   -1    0    0  501  503 -0.00000000000E+00 -0.00000000000E+00 -0.11720589415E+04  0.11720589415E+04  0.00000000000E+00 0.  1.
    9000005    1    1    2  501    0 -0.51007616238E+03  0.69475232862E+02 -0.49877737926E+03  0.82084308700E+03  0.40000000000E+03 0.  1.
   -9000005    1    1    2    0  502  0.51007616238E+03 -0.69475232862E+02 -0.30482773665E+03  0.71966968009E+03  0.40000000000E+03 0.  1.
<mgrwt>
<rscale>  2 0.65192369E+03</rscale>
<asrwt>0</asrwt>
<pdfrwt beam="1">  1       21 0.56685205E-01 0.65192369E+03</pdfrwt>
<pdfrwt beam="2">  1       21 0.18031676E+00 0.65192369E+03</pdfrwt>
<totfact> 0.40361752E+02</totfact>
</mgrwt>
</event>
<event>
 4    1  0.8722554E-003  0.4407919E+03  0.7818608E-02  0.1030504E+00
         21   -1    0    0  503  502  0.00000000000E+00  0.00000000000E+00  0.12574711401E+04  0.12574711401E+04  0.00000000000E+00 0.  1.
         21   -1    0    0  501  503 -0.00000000000E+00 -0.00000000000E+00 -0.15454357475E+03  0.15454357475E+03  0.00000000000E+00 0.  1.
    9000005    1    1    2  501    0 -0.58720611721E+02  0.17563987191E+03  0.54177350414E+03  0.69843826115E+03  0.40000000000E+03 0.  1.
   -9000005    1    1    2    0  502  0.58720611721E+02 -0.17563987191E+03  0.56115406117E+03  0.71357645365E+03  0.40000000000E+03 0.  1.
<mgrwt>
<rscale>  2 0.44079187E+03</rscale>
<asrwt>0</asrwt>
<pdfrwt beam="1">  1       21 0.19345709E+00 0.44079187E+03</pdfrwt>
<pdfrwt beam="2">  1       21 0.23775935E-01 0.44079187E+03</pdfrwt>
<totfact> 0.20999548E+03</totfact>
</mgrwt>
</event>
<event>
 4    1  0.8722554E-003  0.4986941E+03  0.7818608E-02  0.1014120E+00
         21   -1    0    0  503  502  0.00000000000E+00  0.00000000000E+00  0.11294959074E+04  0.11294959074E+04  0.00000000000E+00 0.  1.
         21   -1    0    0  501  503 -0.00000000000E+00 -0.00000000000E+00 -0.22034033123E+03  0.22034033123E+03  0.00000000000E+00 0. -1.
    9000005    1    1    2  501    0  0.70412950580E+02 -0.28937481965E+03  0.47261399426E+03  0.68706605027E+03  0.40000000000E+03 0. -1.
   -9000005    1    1    2    0  502 -0.70412950580E+02  0.28937481965E+03  0.43654158193E+03  0.66277018839E+03  0.40000000000E+03 0.  1.
<mgrwt>
<rscale>  2 0.49869406E+03</rscale>
<asrwt>0</asrwt>
<pdfrwt beam="1">  1       21 0.17376860E+00 0.49869406E+03</pdfrwt>
<pdfrwt beam="2">  1       21 0.33898513E-01 0.49869406E+03</pdfrwt>
<totfact> 0.13967154E+03</totfact>
</mgrwt>
</event>
<event>
 4    1  0.8722554E-003  0.4230213E+03  0.7818608E-02  0.1036087E+00
         21   -1    0    0  501  502  0.00000000000E+00  0.00000000000E+00  0.23663390301E+03  0.23663390301E+03  0.00000000000E+00 0.  1.
         21   -1    0    0  502  503 -0.00000000000E+00 -0.00000000000E+00 -0.80396211125E+03  0.80396211125E+03  0.00000000000E+00 0.  1.
    9000005    1    1    2  501    0 -0.88788871014E+02 -0.10518326478E+03 -0.15687232708E+03  0.45117170768E+03  0.40000000000E+03 0.  1.
   -9000005    1    1    2    0  503  0.88788871014E+02  0.10518326478E+03 -0.41045588116E+03  0.58942430658E+03  0.40000000000E+03 0.  1.
<mgrwt>
<rscale>  2 0.42302126E+03</rscale>
<asrwt>0</asrwt>
<pdfrwt beam="1">  1       21 0.36405216E-01 0.42302126E+03</pdfrwt>
<pdfrwt beam="2">  1       21 0.12368648E+00 0.42302126E+03</pdfrwt>
<totfact> 0.31229300E+03</totfact>
</mgrwt>
</event>
<event>
 4    1  0.8722554E-003  0.6965046E+03  0.7818608E-02  0.9723229E-01
         21   -1    0    0  503  502  0.00000000000E+00  0.00000000000E+00  0.96978950982E+03  0.96978950982E+03  0.00000000000E+00 0.  1.
         21   -1    0    0  501  503 -0.00000000000E+00 -0.00000000000E+00 -0.50280250458E+03  0.50280250458E+03  0.00000000000E+00 0. -1.
    9000005    1    1    2  501    0 -0.54229341063E+03  0.17617182121E+03  0.18083626830E+03  0.71959739420E+03  0.40000000000E+03 0.  1.
   -9000005    1    1    2    0  502  0.54229341063E+03 -0.17617182121E+03  0.28615073694E+03  0.75299462021E+03  0.40000000000E+03 0. -1.
<mgrwt>
<rscale>  2 0.69650460E+03</rscale>
<asrwt>0</asrwt>
<pdfrwt beam="1">  1       21 0.14919839E+00 0.69650460E+03</pdfrwt>
<pdfrwt beam="2">  1       21 0.77354232E-01 0.69650460E+03</pdfrwt>
<totfact> 0.33937812E+02</totfact>
</mgrwt>
</event>
<event>
 4    1  0.8722554E-003  0.4777227E+03  0.7818608E-02  0.1019763E+00
         21   -1    0    0  503  502  0.00000000000E+00  0.00000000000E+00  0.74583599306E+03  0.74583599306E+03  0.00000000000E+00 0.  1.
         21   -1    0    0  501  503 -0.00000000000E+00 -0.00000000000E+00 -0.30866790484E+03  0.30866790484E+03  0.00000000000E+00 0. -1.
    9000005    1    1    2  501    0  0.26118690356E+03 -0.61258557632E+00  0.16948163622E+03  0.50689545162E+03  0.40000000000E+03 0. -1.
   -9000005    1    1    2    0  502 -0.26118690356E+03  0.61258557632E+00  0.26768645200E+03  0.54760844628E+03  0.40000000000E+03 0.  1.
<mgrwt>
<rscale>  2 0.47772270E+03</rscale>
<asrwt>0</asrwt>
<pdfrwt beam="1">  1       21 0.11474400E+00 0.47772270E+03</pdfrwt>
<pdfrwt beam="2">  1       21 0.47487370E-01 0.47772270E+03</pdfrwt>
<totfact> 0.21341418E+03</totfact>
</mgrwt>
</event>
<event>
 4    1  0.8722554E-003  0.4661057E+03  0.7818608E-02  0.1023025E+00
         21   -1    0    0  501  502  0.00000000000E+00  0.00000000000E+00  0.84498725295E+03  0.84498725295E+03  0.00000000000E+00 0.  1.
         21   -1    0    0  502  503 -0.00000000000E+00 -0.00000000000E+00 -0.27727118982E+03  0.27727118982E+03  0.00000000000E+00 0. -1.
    9000005    1    1    2  501    0  0.22180146381E+03 -0.89769838585E+02  0.13254698927E+03  0.48458561434E+03  0.40000000000E+03 0.  1.
   -9000005    1    1    2    0  503 -0.22180146381E+03  0.89769838585E+02  0.43516907386E+03  0.63767282842E+03  0.40000000000E+03 0.  1.
<mgrwt>
<rscale>  2 0.46610569E+03</rscale>
<asrwt>0</asrwt>
<pdfrwt beam="1">  1       21 0.12999804E+00 0.46610569E+03</pdfrwt>
<pdfrwt beam="2">  1       21 0.42657107E-01 0.46610569E+03</pdfrwt>
<totfact> 0.19508793E+03</totfact>
</mgrwt>
</event>
<event>
 4    1  0.8722554E-003  0.5049475E+03  0.7818608E-02  0.1012496E+00
         21   -1    0    0  503  502  0.00000000000E+00  0.00000000000E+00  0.17331433746E+03  0.17331433746E+03  0.00000000000E+00 0. -1.
         21   -1    0    0  501  503 -0.00000000000E+00 -0.00000000000E+00 -0.17178490133E+04  0.17178490133E+04  0.00000000000E+00 0.  1.
    9000005    1    1    2  501    0 -0.25486590246E+03  0.17324947180E+03 -0.11306005884E+04  0.12382365275E+04  0.40000000000E+03 0.  1.
   -9000005    1    1    2    0  502  0.25486590246E+03 -0.17324947180E+03 -0.41393408750E+03  0.65292682325E+03  0.40000000000E+03 0. -1.
<mgrwt>
<rscale>  2 0.50494753E+03</rscale>
<asrwt>0</asrwt>
<pdfrwt beam="1">  1       21 0.26663744E-01 0.50494753E+03</pdfrwt>
<pdfrwt beam="2">  1       21 0.26428447E+00 0.50494753E+03</pdfrwt>
<totfact> 0.57836297E+02</totfact>
</mgrwt>
</event>
<event>
 4    1  0.8722554E-003  0.4356991E+03  0.7818608E-02  0.1032075E+00
         21   -1    0    0  503  502  0.00000000000E+00  0.00000000000E+00  0.53681002012E+03  0.53681002012E+03  0.00000000000E+00 0. -1.
         21   -1    0    0  501  503 -0.00000000000E+00 -0.00000000000E+00 -0.36960339603E+03  0.36960339603E+03  0.00000000000E+00 0. -1.
    9000005    1    1    2  501    0 -0.97387013764E+02  0.14265145492E+03  0.17781135106E+03  0.47058532128E+03  0.40000000000E+03 0.  1.
   -9000005    1    1    2    0  502  0.97387013764E+02 -0.14265145492E+03 -0.10604726976E+02  0.43582809487E+03  0.40000000000E+03 0.  1.
<mgrwt>
<rscale>  2 0.43569906E+03</rscale>
<asrwt>0</asrwt>
<pdfrwt beam="1">  1       21 0.82586157E-01 0.43569906E+03</pdfrwt>
<pdfrwt beam="2">  1       21 0.56862061E-01 0.43569906E+03</pdfrwt>
<totfact> 0.32598438E+03</totfact>
</mgrwt>
</event>
<event>
 4    1  0.8722554E-003  0.6551754E+03  0.7818608E-02  0.9797116E-01
         21   -1    0    0  501  502  0.00000000000E+00  0.00000000000E+00  0.16897621233E+04  0.16897621233E+04  0.00000000000E+00 0.  1.
         21   -1    0    0  502  503 -0.00000000000E+00 -0.00000000000E+00 -0.25513930784E+03  0.25513930784E+03  0.00000000000E+00 0.  1.
    9000005    1    1    2  501    0  0.11064825082E+02  0.51877965954E+03  0.78135619741E+03  0.10196922441E+04  0.40000000000E+03 0.  1.
   -9000005    1    1    2    0  503 -0.11064825082E+02 -0.51877965954E+03  0.65326661808E+03  0.92520918705E+03  0.40000000000E+03 0.  1.
<mgrwt>
<rscale>  2 0.65517537E+03</rscale>
<asrwt>0</asrwt>
<pdfrwt beam="1">  1       21 0.25996340E+00 0.65517537E+03</pdfrwt>
<pdfrwt beam="2">  1       21 0.39252202E-01 0.65517537E+03</pdfrwt>
<totfact> 0.26486832E+02</totfact>
</mgrwt>
</event>
<event>
 4    1  0.8722554E-003  0.6652129E+03  0.7818608E-02  0.9778645E-01
         21   -1    0    0  501  502  0.00000000000E+00  0.00000000000E+00  0.11854099091E+04  0.11854099091E+04  0.00000000000E+00 0. -1.
         21   -1    0    0  502  503 -0.00000000000E+00 -0.00000000000E+00 -0.41509059977E+03  0.41509059977E+03  0.00000000000E+00 0. -1.
    9000005    1    1    2  501    0  0.50172066614E+03  0.17545538014E+03  0.63909135011E+03  0.92246732790E+03  0.40000000000E+03 0. -1.
   -9000005    1    1    2    0  503 -0.50172066614E+03 -0.17545538014E+03  0.13122795925E+03  0.67803318101E+03  0.40000000000E+03 0. -1.
<mgrwt>
<rscale>  2 0.66521291E+03</rscale>
<asrwt>0</asrwt>
<pdfrwt beam="1">  1       21 0.18237075E+00 0.66521291E+03</pdfrwt>
<pdfrwt beam="2">  1       21 0.63860093E-01 0.66521291E+03</pdfrwt>
<totfact> 0.29853652E+02</totfact>
</mgrwt>
</event>
<event>
 4    1  0.8722554E-003  0.6799290E+03  0.7818608E-02  0.9752186E-01
         21   -1    0    0  503  502  0.00000000000E+00  0.00000000000E+00  0.27693151250E+03  0.27693151250E+03  0.00000000000E+00 0.  1.
         21   -1    0    0  501  503 -0.00000000000E+00 -0.00000000000E+00 -0.17391483064E+04  0.17391483064E+04  0.00000000000E+00 0.  1.
    9000005    1    1    2  501    0  0.32382909139E+03  0.44434011197E+03 -0.93301209399E+03  0.11544760643E+04  0.40000000000E+03 0.  1.
   -9000005    1    1    2    0  502 -0.32382909139E+03 -0.44434011197E+03 -0.52920469995E+03  0.86160375463E+03  0.40000000000E+03 0.  1.
<mgrwt>
<rscale>  2 0.67992898E+03</rscale>
<asrwt>0</asrwt>
<pdfrwt beam="1">  1       21 0.42604847E-01 0.67992898E+03</pdfrwt>
<pdfrwt beam="2">  1       21 0.26756128E+00 0.67992898E+03</pdfrwt>
<totfact> 0.19854432E+02</totfact>
</mgrwt>
</event>
<event>
 4    1  0.8722554E-003  0.4946037E+03  0.7818608E-02  0.1015197E+00
         21   -1    0    0  503  502  0.00000000000E+00  0.00000000000E+00  0.13298835882E+04  0.13298835882E+04  0.00000000000E+00 0.  1.
         21   -1    0    0  501  503 -0.00000000000E+00 -0.00000000000E+00 -0.20031609896E+03  0.20031609896E+03  0.00000000000E+00 0.  1.
    9000005    1    1    2  501    0 -0.28530291258E+03  0.56877985334E+02  0.34609568084E+03  0.60366801923E+03  0.40000000000E+03 0.  1.
   -9000005    1    1    2    0  502  0.28530291258E+03 -0.56877985334E+02  0.78347180840E+03  0.92653166794E+03  0.40000000000E+03 0.  1.
<mgrwt>
<rscale>  2 0.49460374E+03</rscale>
<asrwt>0</asrwt>
<pdfrwt beam="1">  1       21 0.20459747E+00 0.49460374E+03</pdfrwt>
<pdfrwt beam="2">  1       21 0.30817862E-01 0.49460374E+03</pdfrwt>
<totfact> 0.10380219E+03</totfact>
</mgrwt>
</event>
<event>
 4    1  0.8722554E-003  0.5866809E+03  0.7818608E-02  0.9933431E-01
         21   -1    0    0  503  502  0.00000000000E+00  0.00000000000E+00  0.18941095402E+04  0.18941095402E+04  0.00000000000E+00 0.  1.
         21   -1    0    0  501  503 -0.00000000000E+00 -0.00000000000E+00 -0.18944413747E+03  0.18944413747E+03  0.00000000000E+00 0. -1.
    9000005    1    1    2  501    0  0.66706252051E+02  0.42396312414E+03  0.10627132461E+04  0.12139002835E+04  0.40000000000E+03 0.  1.
   -9000005    1    1    2    0  502 -0.66706252051E+02 -0.42396312414E+03  0.64195215662E+03  0.86965339423E+03  0.40000000000E+03 0. -1.
<mgrwt>
<rscale>  2 0.58668088E+03</rscale>
<asrwt>0</asrwt>
<pdfrwt beam="1">  1       21 0.29140145E+00 0.58668088E+03</pdfrwt>
<pdfrwt beam="2">  1       21 0.29145253E-01 0.58668088E+03</pdfrwt>
<totfact> 0.31957367E+02</totfact>
</mgrwt>
</event>
<event>
 4    1  0.8722554E-003  0.4286199E+03  0.7818608E-02  0.1034297E+00
         21   -1    0    0  503  502  0.00000000000E+00  0.00000000000E+00  0.39974424098E+03  0.39974424098E+03  0.00000000000E+00 0. -1.
         21   -1    0    0  501  503 -0.00000000000E+00 -0.00000000000E+00 -0.46955528056E+03  0.46955528056E+03  0.00000000000E+00 0. -1.
    9000005    1    1    2  501    0  0.18241696511E+02 -0.15291258753E+03 -0.98252819559E+02  0.43973700716E+03  0.40000000000E+03 0. -1.
   -9000005    1    1    2    0  502 -0.18241696511E+02  0.15291258753E+03  0.28441779978E+02  0.42956251438E+03  0.40000000000E+03 0. -1.
<mgrwt>
<rscale>  2 0.42861990E+03</rscale>
<asrwt>0</asrwt>
<pdfrwt beam="1">  1       21 0.61499114E-01 0.42861990E+03</pdfrwt>
<pdfrwt beam="2">  1       21 0.72239274E-01 0.42861990E+03</pdfrwt>
<totfact> 0.37427507E+03</totfact>
</mgrwt>
</event>
<event>
 4    1  0.8722554E-003  0.4309770E+03  0.7818608E-02  0.1033552E+00
         21   -1    0    0  503  502  0.00000000000E+00  0.00000000000E+00  0.40415689253E+03  0.40415689253E+03  0.00000000000E+00 0.  1.
         21   -1    0    0  501  503 -0.00000000000E+00 -0.00000000000E+00 -0.45972245501E+03  0.45972245501E+03  0.00000000000E+00 0.  1.
    9000005    1    1    2  501    0  0.14598509043E+02  0.15977494799E+03 -0.20095593873E+02  0.43144522638E+03  0.40000000000E+03 0.  1.
   -9000005    1    1    2    0  502 -0.14598509043E+02 -0.15977494799E+03 -0.35469968606E+02  0.43243412116E+03  0.40000000000E+03 0.  1.
<mgrwt>
<rscale>  2 0.43097697E+03</rscale>
<asrwt>0</asrwt>
<pdfrwt beam="1">  1       21 0.62177984E-01 0.43097697E+03</pdfrwt>
<pdfrwt beam="2">  1       21 0.70726531E-01 0.43097697E+03</pdfrwt>
<totfact> 0.38290193E+03</totfact>
</mgrwt>
</event>
<event>
 4    1  0.8722554E-003  0.6869274E+03  0.7818608E-02  0.9739853E-01
         21   -1    0    0  501  502  0.00000000000E+00  0.00000000000E+00  0.87152537404E+03  0.87152537404E+03  0.00000000000E+00 0.  1.
         21   -1    0    0  502  503 -0.00000000000E+00 -0.00000000000E+00 -0.65466726544E+03  0.65466726544E+03  0.00000000000E+00 0. -1.
    9000005    1    1    2  501    0 -0.50944641372E+03  0.22876527194E+03  0.42579875348E+03  0.80819167069E+03  0.40000000000E+03 0.  1.
   -9000005    1    1    2    0  503  0.50944641372E+03 -0.22876527194E+03 -0.20894064489E+03  0.71800096879E+03  0.40000000000E+03 0. -1.
<mgrwt>
<rscale>  2 0.68692736E+03</rscale>
<asrwt>0</asrwt>
<pdfrwt beam="1">  1       21 0.13408083E+00 0.68692736E+03</pdfrwt>
<pdfrwt beam="2">  1       21 0.10071804E+00 0.68692736E+03</pdfrwt>
<totfact> 0.24211878E+02</totfact>
</mgrwt>
</event>
<event>
 4    1  0.8722554E-003  0.4083830E+03  0.7818608E-02  0.1040915E+00
         21   -1    0    0  501  502  0.00000000000E+00  0.00000000000E+00  0.10213715986E+03  0.10213715986E+03  0.00000000000E+00 0. -1.
         21   -1    0    0  502  503 -0.00000000000E+00 -0.00000000000E+00 -0.18941254162E+04  0.18941254162E+04  0.00000000000E+00 0. -1.
    9000005    1    1    2  501    0  0.75964528921E+02 -0.31718398180E+02 -0.12666887306E+04  0.13308933115E+04  0.40000000000E+03 0. -1.
   -9000005    1    1    2    0  503 -0.75964528921E+02  0.31718398180E+02 -0.52529952576E+03  0.66536926455E+03  0.40000000000E+03 0. -1.
<mgrwt>
<rscale>  2 0.40838299E+03</rscale>
<asrwt>0</asrwt>
<pdfrwt beam="1">  1       21 0.15713410E-01 0.40838299E+03</pdfrwt>
<pdfrwt beam="2">  1       21 0.29140389E+00 0.40838299E+03</pdfrwt>
<totfact> 0.11447125E+03</totfact>
</mgrwt>
</event>
<event>
 4    1  0.8722554E-003  0.4083094E+03  0.7818608E-02  0.1040940E+00
         21   -1    0    0  503  502  0.00000000000E+00  0.00000000000E+00  0.22856502644E+04  0.22856502644E+04  0.00000000000E+00 0.  1.
         21   -1    0    0  501  503 -0.00000000000E+00 -0.00000000000E+00 -0.99004309836E+02  0.99004309836E+02  0.00000000000E+00 0.  1.
    9000005    1    1    2  501    0  0.80967511687E+02  0.12682900213E+02  0.48155471631E+03  0.63135690279E+03  0.40000000000E+03 0.  1.
   -9000005    1    1    2    0  502 -0.80967511687E+02 -0.12682900213E+02  0.17050912382E+04  0.17532976714E+04  0.40000000000E+03 0.  1.
<mgrwt>
<rscale>  2 0.40830943E+03</rscale>
<asrwt>0</asrwt>
<pdfrwt beam="1">  1       21 0.35163846E+00 0.40830943E+03</pdfrwt>
<pdfrwt beam="2">  1       21 0.15231434E-01 0.40830943E+03</pdfrwt>
<totfact> 0.52572939E+02</totfact>
</mgrwt>
</event>
<event>
 4    1  0.8722554E-003  0.4765263E+03  0.7818608E-02  0.1020094E+00
         21   -1    0    0  501  502  0.00000000000E+00  0.00000000000E+00  0.71223236250E+03  0.71223236250E+03  0.00000000000E+00 0.  1.
         21   -1    0    0  502  503 -0.00000000000E+00 -0.00000000000E+00 -0.32344648145E+03  0.32344648145E+03  0.00000000000E+00 0.  1.
    9000005    1    1    2  501    0  0.14832197424E+03 -0.21231564078E+03  0.13249246652E+03  0.49460245961E+03  0.40000000000E+03 0.  1.
   -9000005    1    1    2    0  503 -0.14832197424E+03  0.21231564078E+03  0.25629341454E+03  0.54107638435E+03  0.40000000000E+03 0.  1.
<mgrwt>
<rscale>  2 0.47652633E+03</rscale>
<asrwt>0</asrwt>
<pdfrwt beam="1">  1       21 0.10957421E+00 0.47652633E+03</pdfrwt>
<pdfrwt beam="2">  1       21 0.49760997E-01 0.47652633E+03</pdfrwt>
<totfact> 0.21689894E+03</totfact>
</mgrwt>
</event>
<event>
 4    1  0.8722554E-003  0.4130203E+03  0.7818608E-02  0.1039362E+00
         21   -1    0    0  501  502  0.00000000000E+00  0.00000000000E+00  0.13321051242E+03  0.13321051242E+03  0.00000000000E+00 0. -1.
         21   -1    0    0  502  503 -0.00000000000E+00 -0.00000000000E+00 -0.13043225790E+04  0.13043225790E+04  0.00000000000E+00 0. -1.
    9000005    1    1    2  501    0  0.18011886328E+02  0.10129833081E+03 -0.68254530430E+03  0.79778059158E+03  0.40000000000E+03 0. -1.
   -9000005    1    1    2    0  503 -0.18011886328E+02 -0.10129833081E+03 -0.48856676231E+03  0.63975249988E+03  0.40000000000E+03 0. -1.
<mgrwt>
<rscale>  2 0.41302031E+03</rscale>
<asrwt>0</asrwt>
<pdfrwt beam="1">  1       21 0.20493925E-01 0.41302031E+03</pdfrwt>
<pdfrwt beam="2">  1       21 0.20066501E+00 0.41302031E+03</pdfrwt>
<totfact> 0.25292488E+03</totfact>
</mgrwt>
</event>
<event>
 4    1  0.8722554E-003  0.5047129E+03  0.7818608E-02  0.1012556E+00
         21   -1    0    0  501  502  0.00000000000E+00  0.00000000000E+00  0.30966640932E+03  0.30966640932E+03  0.00000000000E+00 0. -1.
         21   -1    0    0  502  503 -0.00000000000E+00 -0.00000000000E+00 -0.89417102979E+03  0.89417102979E+03  0.00000000000E+00 0.  1.
    9000005    1    1    2  501    0 -0.30268390889E+03  0.55835244325E+02 -0.12197313069E+03  0.51924230165E+03  0.40000000000E+03 0. -1.
   -9000005    1    1    2    0  503  0.30268390889E+03 -0.55835244325E+02 -0.46253148977E+03  0.68459513747E+03  0.40000000000E+03 0.  1.
<mgrwt>
<rscale>  2 0.50471291E+03</rscale>
<asrwt>0</asrwt>
<pdfrwt beam="1">  1       21 0.47640986E-01 0.50471291E+03</pdfrwt>
<pdfrwt beam="2">  1       21 0.13756477E+00 0.50471291E+03</pdfrwt>
<totfact> 0.13150330E+03</totfact>
</mgrwt>
</event>
<event>
 4    1  0.8722554E-003  0.4234605E+03  0.7818608E-02  0.1035946E+00
         21   -1    0    0  503  502  0.00000000000E+00  0.00000000000E+00  0.15897583161E+04  0.15897583161E+04  0.00000000000E+00 0. -1.
         21   -1    0    0  501  503 -0.00000000000E+00 -0.00000000000E+00 -0.12791364565E+03  0.12791364565E+03  0.00000000000E+00 0. -1.
    9000005    1    1    2  501    0  0.13765479411E+03  0.19235174559E+02  0.43567243482E+03  0.60756012439E+03  0.40000000000E+03 0. -1.
   -9000005    1    1    2    0  502 -0.13765479411E+03 -0.19235174559E+02  0.10261722357E+04  0.11101118374E+04  0.40000000000E+03 0. -1.
<mgrwt>
<rscale>  2 0.42346055E+03</rscale>
<asrwt>0</asrwt>
<pdfrwt beam="1">  1       21 0.24457819E+00 0.42346055E+03</pdfrwt>
<pdfrwt beam="2">  1       21 0.19679023E-01 0.42346055E+03</pdfrwt>
<totfact> 0.14287208E+03</totfact>
</mgrwt>
</event>
<event>
 4    1  0.8722554E-003  0.4128979E+03  0.7818608E-02  0.1039403E+00
         21   -1    0    0  501  502  0.00000000000E+00  0.00000000000E+00  0.22706202258E+04  0.22706202258E+04  0.00000000000E+00 0. -1.
         21   -1    0    0  502  503 -0.00000000000E+00 -0.00000000000E+00 -0.80161295512E+02  0.80161295512E+02  0.00000000000E+00 0.  1.
    9000005    1    1    2  501    0  0.57709781832E+02  0.84582937151E+02  0.79938443103E+03  0.89972226868E+03  0.40000000000E+03 0.  1.
   -9000005    1    1    2    0  503 -0.57709781832E+02 -0.84582937151E+02  0.13910744992E+04  0.14510592526E+04  0.40000000000E+03 0. -1.
<mgrwt>
<rscale>  2 0.41289792E+03</rscale>
<asrwt>0</asrwt>
<pdfrwt beam="1">  1       21 0.34932614E+00 0.41289792E+03</pdfrwt>
<pdfrwt beam="2">  1       21 0.12332509E-01 0.41289792E+03</pdfrwt>
<totfact> 0.79829314E+02</totfact>
</mgrwt>
</event>
<event>
 4    1  0.8722554E-003  0.7473796E+03  0.7818608E-02  0.9639470E-01
         21   -1    0    0  501  502  0.00000000000E+00  0.00000000000E+00  0.13408213759E+04  0.13408213759E+04  0.00000000000E+00 0.  1.
         21   -1    0    0  502  503 -0.00000000000E+00 -0.00000000000E+00 -0.41834922911E+03  0.41834922911E+03  0.00000000000E+00 0. -1.
    9000005    1    1    2  501    0 -0.63099780856E+03  0.20444545018E+02  0.40423893405E+03  0.84969719879E+03  0.40000000000E+03 0.  1.
   -9000005    1    1    2    0  503  0.63099780856E+03 -0.20444545018E+02  0.51823321272E+03  0.90947340621E+03  0.40000000000E+03 0. -1.
<mgrwt>
<rscale>  2 0.74737956E+03</rscale>
<asrwt>0</asrwt>
<pdfrwt beam="1">  1       21 0.20628021E+00 0.74737956E+03</pdfrwt>
<pdfrwt beam="2">  1       21 0.64361420E-01 0.74737956E+03</pdfrwt>
<totfact> 0.19553020E+02</totfact>
</mgrwt>
</event>
<event>
 4    1  0.8722554E-003  0.7249445E+03  0.7818608E-02  0.9675500E-01
         21   -1    0    0  503  502  0.00000000000E+00  0.00000000000E+00  0.51322046566E+03  0.51322046566E+03  0.00000000000E+00 0. -1.
         21   -1    0    0  501  503 -0.00000000000E+00 -0.00000000000E+00 -0.10251416463E+04  0.10251416463E+04  0.00000000000E+00 0. -1.
    9000005    1    1    2  501    0  0.46006174446E+03 -0.39228517057E+03 -0.28148186842E+03  0.77767377866E+03  0.40000000000E+03 0. -1.
   -9000005    1    1    2    0  502 -0.46006174446E+03  0.39228517057E+03 -0.23043931219E+03  0.76068833327E+03  0.40000000000E+03 0. -1.
<mgrwt>
<rscale>  2 0.72494446E+03</rscale>
<asrwt>0</asrwt>
<pdfrwt beam="1">  1       21 0.78956995E-01 0.72494446E+03</pdfrwt>
<pdfrwt beam="2">  1       21 0.15771410E+00 0.72494446E+03</pdfrwt>
<totfact> 0.27495929E+02</totfact>
</mgrwt>
</event>
<event>
 4    1  0.8722554E-003  0.4408137E+03  0.7818608E-02  0.1030497E+00
         21   -1    0    0  501  502  0.00000000000E+00  0.00000000000E+00  0.12412229602E+03  0.12412229602E+03  0.00000000000E+00 0. -1.
         21   -1    0    0  502  503 -0.00000000000E+00 -0.00000000000E+00 -0.19704736918E+04  0.19704736918E+04  0.00000000000E+00 0.  1.
    9000005    1    1    2  501    0 -0.30576548073E+02  0.18270688244E+03 -0.44840467415E+03  0.62879526238E+03  0.40000000000E+03 0. -1.
   -9000005    1    1    2    0  503  0.30576548073E+02 -0.18270688244E+03 -0.13979467216E+04  0.14658007254E+04  0.40000000000E+03 0.  1.
<mgrwt>
<rscale>  2 0.44081371E+03</rscale>
<asrwt>0</asrwt>
<pdfrwt beam="1">  1       21 0.19095739E-01 0.44081371E+03</pdfrwt>
<pdfrwt beam="2">  1       21 0.30314977E+00 0.44081371E+03</pdfrwt>
<totfact> 0.66288867E+02</totfact>
</mgrwt>
</event>
<event>
 4    1  0.8722554E-003  0.4424097E+03  0.7818608E-02  0.1030010E+00
         21   -1    0    0  503  502  0.00000000000E+00  0.00000000000E+00  0.10258610011E+03  0.10258610011E+03  0.00000000000E+00 0.  1.
         21   -1    0    0  501  503 -0.00000000000E+00 -0.00000000000E+00 -0.31381090947E+04  0.31381090947E+04  0.00000000000E+00 0.  1.
    9000005    1    1    2  501    0 -0.13279605633E+03 -0.13450472297E+03 -0.25322793470E+04  0.25706351364E+04  0.40000000000E+03 0.  1.
   -9000005    1    1    2    0  502  0.13279605633E+03  0.13450472297E+03 -0.50324364762E+03  0.67006005846E+03  0.40000000000E+03 0.  1.
<mgrwt>
<rscale>  2 0.44240967E+03</rscale>
<asrwt>0</asrwt>
<pdfrwt beam="1">  1       21 0.15782481E-01 0.44240967E+03</pdfrwt>
<pdfrwt beam="2">  1       21 0.48278590E+00 0.44240967E+03</pdfrwt>
<totfact> 0.66752226E+01</totfact>
</mgrwt>
</event>
<event>
 4    1  0.8722554E-003  0.4968644E+03  0.7818608E-02  0.1014601E+00
         21   -1    0    0  503  502  0.00000000000E+00  0.00000000000E+00  0.23850267449E+03  0.23850267449E+03  0.00000000000E+00 0.  1.
         21   -1    0    0  501  503 -0.00000000000E+00 -0.00000000000E+00 -0.10403872891E+04  0.10403872891E+04  0.00000000000E+00 0. -1.
    9000005    1    1    2  501    0 -0.11994612668E+03 -0.26923441518E+03 -0.35535954663E+03  0.61086385636E+03  0.40000000000E+03 0.  1.
   -9000005    1    1    2    0  502  0.11994612668E+03  0.26923441518E+03 -0.44652506802E+03  0.66802610727E+03  0.40000000000E+03 0. -1.
<mgrwt>
<rscale>  2 0.49686441E+03</rscale>
<asrwt>0</asrwt>
<pdfrwt beam="1">  1       21 0.36692719E-01 0.49686441E+03</pdfrwt>
<pdfrwt beam="2">  1       21 0.16005958E+00 0.49686441E+03</pdfrwt>
<totfact> 0.15026971E+03</totfact>
</mgrwt>
</event>
<event>
 4    1  0.8722554E-003  0.4991088E+03  0.7818608E-02  0.1014012E+00
         21   -1    0    0  501  502  0.00000000000E+00  0.00000000000E+00  0.82306313763E+03  0.82306313763E+03  0.00000000000E+00 0. -1.
         21   -1    0    0  502  503 -0.00000000000E+00 -0.00000000000E+00 -0.31590998878E+03  0.31590998878E+03  0.00000000000E+00 0.  1.
    9000005    1    1    2  501    0  0.69891837500E+02  0.29021500433E+03  0.37019927785E+03  0.62141541903E+03  0.40000000000E+03 0.  1.
   -9000005    1    1    2    0  503 -0.69891837500E+02 -0.29021500433E+03  0.13695387099E+03  0.51755770738E+03  0.40000000000E+03 0.  1.
<mgrwt>
<rscale>  2 0.49910882E+03</rscale>
<asrwt>0</asrwt>
<pdfrwt beam="1">  1       21 0.12662510E+00 0.49910882E+03</pdfrwt>
<pdfrwt beam="2">  1       21 0.48601537E-01 0.49910882E+03</pdfrwt>
<totfact> 0.15685254E+03</totfact>
</mgrwt>
</event>
<event>
 4    1  0.8722554E-003  0.4382718E+03  0.7818608E-02  0.1031278E+00
         21   -1    0    0  501  502  0.00000000000E+00  0.00000000000E+00  0.36042117143E+03  0.36042117143E+03  0.00000000000E+00 0.  1.
         21   -1    0    0  502  503 -0.00000000000E+00 -0.00000000000E+00 -0.66587205646E+03  0.66587205646E+03  0.00000000000E+00 0.  1.
    9000005    1    1    2  501    0  0.69499448218E+02  0.16508176960E+03  0.76553455002E+02  0.44490740096E+03  0.40000000000E+03 0.  1.
   -9000005    1    1    2    0  503 -0.69499448218E+02 -0.16508176960E+03 -0.38200434003E+03  0.58138582693E+03  0.40000000000E+03 0.  1.
<mgrwt>
<rscale>  2 0.43827179E+03</rscale>
<asrwt>0</asrwt>
<pdfrwt beam="1">  1       21 0.55449412E-01 0.43827179E+03</pdfrwt>
<pdfrwt beam="2">  1       21 0.10244185E+00 0.43827179E+03</pdfrwt>
<totfact> 0.20593016E+03</totfact>
</mgrwt>
</event>
<event>
 4    1  0.8722554E-003  0.4032333E+03  0.7818608E-02  0.1042666E+00
         21   -1    0    0  501  502  0.00000000000E+00  0.00000000000E+00  0.13395102102E+04  0.13395102102E+04  0.00000000000E+00 0. -1.
         21   -1    0    0  502  503 -0.00000000000E+00 -0.00000000000E+00 -0.12171161781E+03  0.12171161781E+03  0.00000000000E+00 0. -1.
    9000005    1    1    2  501    0  0.48072000928E+02  0.16916386612E+02  0.64671958999E+03  0.76213076928E+03  0.40000000000E+03 0. -1.
   -9000005    1    1    2    0  503 -0.48072000928E+02 -0.16916386612E+02  0.57107900239E+03  0.69909105872E+03  0.40000000000E+03 0. -1.
<mgrwt>
<rscale>  2 0.40323328E+03</rscale>
<asrwt>0</asrwt>
<pdfrwt beam="1">  1       21 0.20607848E+00 0.40323328E+03</pdfrwt>
<pdfrwt beam="2">  1       21 0.18724865E-01 0.40323328E+03</pdfrwt>
<totfact> 0.27774778E+03</totfact>
</mgrwt>
</event>
<event>
 4    1  0.8722554E-003  0.4585954E+03  0.7818608E-02  0.1025189E+00
         21   -1    0    0  503  502  0.00000000000E+00  0.00000000000E+00  0.52254289246E+03  0.52254289246E+03  0.00000000000E+00 0.  1.
         21   -1    0    0  501  503 -0.00000000000E+00 -0.00000000000E+00 -0.48048385445E+03  0.48048385445E+03  0.00000000000E+00 0.  1.
    9000005    1    1    2  501    0  0.19314507752E+03 -0.11403817430E+03 -0.18104843151E+03  0.49303981657E+03  0.40000000000E+03 0.  1.
   -9000005    1    1    2    0  502 -0.19314507752E+03  0.11403817430E+03  0.22310746952E+03  0.50998693034E+03  0.40000000000E+03 0.  1.
<mgrwt>
<rscale>  2 0.45859538E+03</rscale>
<asrwt>0</asrwt>
<pdfrwt beam="1">  1       21 0.80391214E-01 0.45859538E+03</pdfrwt>
<pdfrwt beam="2">  1       21 0.73920593E-01 0.45859538E+03</pdfrwt>
<totfact> 0.19210605E+03</totfact>
</mgrwt>
</event>
<event>
 4    1  0.8722554E-003  0.4801860E+03  0.7818608E-02  0.1019084E+00
         21   -1    0    0  503  502  0.00000000000E+00  0.00000000000E+00  0.64785202802E+03  0.64785202802E+03  0.00000000000E+00 0. -1.
         21   -1    0    0  501  503 -0.00000000000E+00 -0.00000000000E+00 -0.50880060670E+03  0.50880060670E+03  0.00000000000E+00 0. -1.
    9000005    1    1    2  501    0 -0.23909053512E+03 -0.11582026801E+03 -0.24749383039E+03  0.54021460046E+03  0.40000000000E+03 0. -1.
   -9000005    1    1    2    0  502  0.23909053512E+03  0.11582026801E+03  0.38654525171E+03  0.61643803426E+03  0.40000000000E+03 0. -1.
<mgrwt>
<rscale>  2 0.48018602E+03</rscale>
<asrwt>0</asrwt>
<pdfrwt beam="1">  1       21 0.99669543E-01 0.48018602E+03</pdfrwt>
<pdfrwt beam="2">  1       21 0.78277016E-01 0.48018602E+03</pdfrwt>
<totfact> 0.10043440E+03</totfact>
</mgrwt>
</event>
<event>
 4    1  0.8722554E-003  0.4378097E+03  0.7818608E-02  0.1031421E+00
         21   -1    0    0  501  502  0.00000000000E+00  0.00000000000E+00  0.50016283794E+03  0.50016283794E+03  0.00000000000E+00 0.  1.
         21   -1    0    0  502  503 -0.00000000000E+00 -0.00000000000E+00 -0.46945201428E+03  0.46945201428E+03  0.00000000000E+00 0. -1.
    9000005    1    1    2  501    0 -0.81724785596E+02  0.15810867081E+03  0.22312563508E+03  0.49138817792E+03  0.40000000000E+03 0.  1.
   -9000005    1    1    2    0  503  0.81724785596E+02 -0.15810867081E+03 -0.19241481142E+03  0.47822667431E+03  0.40000000000E+03 0. -1.
<mgrwt>
<rscale>  2 0.43780965E+03</rscale>
<asrwt>0</asrwt>
<pdfrwt beam="1">  1       21 0.76948129E-01 0.43780965E+03</pdfrwt>
<pdfrwt beam="2">  1       21 0.72223387E-01 0.43780965E+03</pdfrwt>
<totfact> 0.22572531E+03</totfact>
</mgrwt>
</event>
<event>
 4    1  0.8722554E-003  0.6210446E+03  0.7818608E-02  0.9862682E-01
         21   -1    0    0  501  502  0.00000000000E+00  0.00000000000E+00  0.96553310532E+03  0.96553310532E+03  0.00000000000E+00 0. -1.
         21   -1    0    0  502  503 -0.00000000000E+00 -0.00000000000E+00 -0.39995540076E+03  0.39995540076E+03  0.00000000000E+00 0.  1.
    9000005    1    1    2  501    0 -0.46653990317E+03  0.89648785288E+02  0.30670347452E+03  0.69264955586E+03  0.40000000000E+03 0. -1.
   -9000005    1    1    2    0  503  0.46653990317E+03 -0.89648785288E+02  0.25887423004E+03  0.67283895022E+03  0.40000000000E+03 0.  1.
<mgrwt>
<rscale>  2 0.62104459E+03</rscale>
<asrwt>0</asrwt>
<pdfrwt beam="1">  1       21 0.14854355E+00 0.62104459E+03</pdfrwt>
<pdfrwt beam="2">  1       21 0.61531601E-01 0.62104459E+03</pdfrwt>
<totfact> 0.59056126E+02</totfact>
</mgrwt>
</event>
<event>
 4    1  0.8722554E-003  0.4003030E+03  0.7818608E-02  0.1043675E+00
         21   -1    0    0  501  502  0.00000000000E+00  0.00000000000E+00  0.11249390629E+03  0.11249390629E+03  0.00000000000E+00 0. -1.
         21   -1    0    0  502  503 -0.00000000000E+00 -0.00000000000E+00 -0.14690845837E+04  0.14690845837E+04  0.00000000000E+00 0. -1.
    9000005    1    1    2  501    0  0.15416271611E+02 -0.22058506277E+01 -0.54046402045E+03  0.67256515268E+03  0.40000000000E+03 0. -1.
   -9000005    1    1    2    0  503 -0.15416271611E+02  0.22058506277E+01 -0.81612665696E+03  0.90901333731E+03  0.40000000000E+03 0. -1.
<mgrwt>
<rscale>  2 0.40030304E+03</rscale>
<asrwt>0</asrwt>
<pdfrwt beam="1">  1       21 0.17306756E-01 0.40030304E+03</pdfrwt>
<pdfrwt beam="2">  1       21 0.22601300E+00 0.40030304E+03</pdfrwt>
<totfact> 0.24027759E+03</totfact>
</mgrwt>
</event>
<event>
 4    1  0.8722554E-003  0.4838045E+03  0.7818608E-02  0.1018095E+00
         21   -1    0    0  501  502  0.00000000000E+00  0.00000000000E+00  0.15340315892E+04  0.15340315892E+04  0.00000000000E+00 0.  1.
         21   -1    0    0  502  503 -0.00000000000E+00 -0.00000000000E+00 -0.15682529604E+03  0.15682529604E+03  0.00000000000E+00 0.  1.
    9000005    1    1    2  501    0 -0.17480920498E+03  0.20858694156E+03  0.54954972399E+03  0.73216915359E+03  0.40000000000E+03 0.  1.
   -9000005    1    1    2    0  503  0.17480920498E+03 -0.20858694156E+03  0.82765656920E+03  0.95868773168E+03  0.40000000000E+03 0.  1.
<mgrwt>
<rscale>  2 0.48380448E+03</rscale>
<asrwt>0</asrwt>
<pdfrwt beam="1">  1       21 0.23600485E+00 0.48380448E+03</pdfrwt>
<pdfrwt beam="2">  1       21 0.24126970E-01 0.48380448E+03</pdfrwt>
<totfact> 0.10610835E+03</totfact>
</mgrwt>
</event>
<event>
 4    1  0.8722554E-003  0.6142348E+03  0.7818608E-02  0.9876306E-01
         21   -1    0    0  503  502  0.00000000000E+00  0.00000000000E+00  0.22692742453E+03  0.22692742453E+03  0.00000000000E+00 0. -1.
         21   -1    0    0  501  503 -0.00000000000E+00 -0.00000000000E+00 -0.17924165831E+04  0.17924165831E+04  0.00000000000E+00 0. -1.
    9000005    1    1    2  501    0 -0.40522390559E+03  0.23038655865E+03 -0.51099809964E+03  0.79900152559E+03  0.40000000000E+03 0. -1.
   -9000005    1    1    2    0  502  0.40522390559E+03 -0.23038655865E+03 -0.10544910589E+04  0.12203424820E+04  0.40000000000E+03 0. -1.
<mgrwt>
<rscale>  2 0.61423479E+03</rscale>
<asrwt>0</asrwt>
<pdfrwt beam="1">  1       21 0.34911912E-01 0.61423479E+03</pdfrwt>
<pdfrwt beam="2">  1       21 0.27575639E+00 0.61423479E+03</pdfrwt>
<totfact> 0.27363130E+02</totfact>
</mgrwt>
</event>
<event>
 4    1  0.8722554E-003  0.4132095E+03  0.7818608E-02  0.1039299E+00
         21   -1    0    0  501  502  0.00000000000E+00  0.00000000000E+00  0.31859404537E+03  0.31859404537E+03  0.00000000000E+00 0. -1.
         21   -1    0    0  502  503 -0.00000000000E+00 -0.00000000000E+00 -0.59900534503E+03  0.59900534503E+03  0.00000000000E+00 0.  1.
    9000005    1    1    2  501    0  0.93677895171E+02 -0.44346043107E+02  0.86821324307E+01  0.41330073676E+03  0.40000000000E+03 0. -1.
   -9000005    1    1    2    0  503 -0.93677895171E+02  0.44346043107E+02 -0.28909343210E+03  0.50429865364E+03  0.40000000000E+03 0.  1.
<mgrwt>
<rscale>  2 0.41320953E+03</rscale>
<asrwt>0</asrwt>
<pdfrwt beam="1">  1       21 0.49014468E-01 0.41320953E+03</pdfrwt>
<pdfrwt beam="2">  1       21 0.92154669E-01 0.41320953E+03</pdfrwt>
<totfact> 0.34924016E+03</totfact>
</mgrwt>
</event>
<event>
 4    1  0.8722554E-003  0.5490600E+03  0.7818608E-02  0.1001712E+00
         21   -1    0    0  501  502  0.00000000000E+00  0.00000000000E+00  0.22188730110E+03  0.22188730110E+03  0.00000000000E+00 0. -1.
         21   -1    0    0  502  503 -0.00000000000E+00 -0.00000000000E+00 -0.13937659647E+04  0.13937659647E+04  0.00000000000E+00 0.  1.
    9000005    1    1    2  501    0  0.19059240429E+03 -0.32425519990E+03 -0.71416749210E+03  0.90083411681E+03  0.40000000000E+03 0.  1.
   -9000005    1    1    2    0  503 -0.19059240429E+03  0.32425519990E+03 -0.45771117146E+03  0.71481914896E+03  0.40000000000E+03 0. -1.
<mgrwt>
<rscale>  2 0.54906001E+03</rscale>
<asrwt>0</asrwt>
<pdfrwt beam="1">  1       21 0.34136507E-01 0.54906001E+03</pdfrwt>
<pdfrwt beam="2">  1       21 0.21442554E+00 0.54906001E+03</pdfrwt>
<totfact> 0.71264513E+02</totfact>
</mgrwt>
</event>
<event>
 4    1  0.8722554E-003  0.4429003E+03  0.7818608E-02  0.1029861E+00
         21   -1    0    0  503  502  0.00000000000E+00  0.00000000000E+00  0.10448306453E+04  0.10448306453E+04  0.00000000000E+00 0.  1.
         21   -1    0    0  501  503 -0.00000000000E+00 -0.00000000000E+00 -0.19389778240E+03  0.19389778240E+03  0.00000000000E+00 0.  1.
    9000005    1    1    2  501    0 -0.52001503270E+02 -0.18291131151E+03  0.31512716436E+03  0.54356769030E+03  0.40000000000E+03 0.  1.
   -9000005    1    1    2    0  502  0.52001503270E+02  0.18291131151E+03  0.53580569853E+03  0.69516073738E+03  0.40000000000E+03 0.  1.
<mgrwt>
<rscale>  2 0.44290033E+03</rscale>
<asrwt>0</asrwt>
<pdfrwt beam="1">  1       21 0.16074317E+00 0.44290033E+03</pdfrwt>
<pdfrwt beam="2">  1       21 0.29830429E-01 0.44290033E+03</pdfrwt>
<totfact> 0.23001324E+03</totfact>
</mgrwt>
</event>
<event>
 4    1  0.8722554E-003  0.4712885E+03  0.7818608E-02  0.1021557E+00
         21   -1    0    0  503  502  0.00000000000E+00  0.00000000000E+00  0.40145431211E+03  0.40145431211E+03  0.00000000000E+00 0.  1.
         21   -1    0    0  501  503 -0.00000000000E+00 -0.00000000000E+00 -0.55661084092E+03  0.55661084092E+03  0.00000000000E+00 0. -1.
    9000005    1    1    2  501    0 -0.15749783683E+03  0.19315090941E+03 -0.40469005659E+02  0.47302281428E+03  0.40000000000E+03 0. -1.
   -9000005    1    1    2    0  502  0.15749783683E+03 -0.19315090941E+03 -0.11468752315E+03  0.48504233875E+03  0.40000000000E+03 0. -1.
<mgrwt>
<rscale>  2 0.47128849E+03</rscale>
<asrwt>0</asrwt>
<pdfrwt beam="1">  1       21 0.61762202E-01 0.47128849E+03</pdfrwt>
<pdfrwt beam="2">  1       21 0.85632436E-01 0.47128849E+03</pdfrwt>
<totfact> 0.24685511E+03</totfact>
</mgrwt>
</event>
<event>
 4    1  0.8722554E-003  0.4023399E+03  0.7818608E-02  0.1042972E+00
         21   -1    0    0  501  502  0.00000000000E+00  0.00000000000E+00  0.21595353508E+03  0.21595353508E+03  0.00000000000E+00 0. -1.
         21   -1    0    0  502  503 -0.00000000000E+00 -0.00000000000E+00 -0.88040254904E+03  0.88040254904E+03  0.00000000000E+00 0. -1.
    9000005    1    1    2  501    0 -0.18957327369E+02 -0.38961651213E+02 -0.12092440974E+03  0.42011915381E+03  0.40000000000E+03 0. -1.
   -9000005    1    1    2    0  503  0.18957327369E+02  0.38961651213E+02 -0.54352460422E+03  0.67623693031E+03  0.40000000000E+03 0. -1.
<mgrwt>
<rscale>  2 0.40233989E+03</rscale>
<asrwt>0</asrwt>
<pdfrwt beam="1">  1       21 0.33223620E-01 0.40233989E+03</pdfrwt>
<pdfrwt beam="2">  1       21 0.13544655E+00 0.40233989E+03</pdfrwt>
<totfact> 0.29947509E+03</totfact>
</mgrwt>
</event>
<event>
 4    1  0.8722554E-003  0.4175302E+03  0.7818608E-02  0.1037873E+00
         21   -1    0    0  501  502  0.00000000000E+00  0.00000000000E+00  0.81296574517E+03  0.81296574517E+03  0.00000000000E+00 0. -1.
         21   -1    0    0  502  503 -0.00000000000E+00 -0.00000000000E+00 -0.29788432964E+03  0.29788432964E+03  0.00000000000E+00 0. -1.
    9000005    1    1    2  501    0  0.77495087273E+02 -0.91246789599E+02  0.55151066528E+03  0.69173367641E+03  0.40000000000E+03 0. -1.
   -9000005    1    1    2    0  503 -0.77495087273E+02  0.91246789599E+02 -0.36429249759E+02  0.41911639839E+03  0.40000000000E+03 0. -1.
<mgrwt>
<rscale>  2 0.41753020E+03</rscale>
<asrwt>0</asrwt>
<pdfrwt beam="1">  1       21 0.12507165E+00 0.41753020E+03</pdfrwt>
<pdfrwt beam="2">  1       21 0.45828359E-01 0.41753020E+03</pdfrwt>
<totfact> 0.18916371E+03</totfact>
</mgrwt>
</event>
<event>
 4    1  0.8722554E-003  0.4679511E+03  0.7818608E-02  0.1022500E+00
         21   -1    0    0  503  502  0.00000000000E+00  0.00000000000E+00  0.96695819810E+03  0.96695819810E+03  0.00000000000E+00 0. -1.
         21   -1    0    0  501  503 -0.00000000000E+00 -0.00000000000E+00 -0.30697143668E+03  0.30697143668E+03  0.00000000000E+00 0.  1.
    9000005    1    1    2  501    0 -0.24284774821E+03 -0.17789648092E+01  0.37866582569E+01  0.46796637946E+03  0.40000000000E+03 0.  1.
   -9000005    1    1    2    0  502  0.24284774821E+03  0.17789648092E+01  0.65620010317E+03  0.80596325532E+03  0.40000000000E+03 0. -1.
<mgrwt>
<rscale>  2 0.46795106E+03</rscale>
<asrwt>0</asrwt>
<pdfrwt beam="1">  1       21 0.14876280E+00 0.46795106E+03</pdfrwt>
<pdfrwt beam="2">  1       21 0.47226375E-01 0.46795106E+03</pdfrwt>
<totfact> 0.11011602E+03</totfact>
</mgrwt>
</event>
<event>
 4    1  0.8722554E-003  0.4849024E+03  0.7818608E-02  0.1017796E+00
         21   -1    0    0  501  502  0.00000000000E+00  0.00000000000E+00  0.15879037880E+03  0.15879037880E+03  0.00000000000E+00 0. -1.
         21   -1    0    0  502  503 -0.00000000000E+00 -0.00000000000E+00 -0.17036147242E+04  0.17036147242E+04  0.00000000000E+00 0.  1.
    9000005    1    1    2  501    0  0.25247729350E+03 -0.10670308531E+03 -0.43561374368E+03  0.65183561258E+03  0.40000000000E+03 0. -1.
   -9000005    1    1    2    0  503 -0.25247729350E+03  0.10670308531E+03 -0.11092106018E+04  0.12105694904E+04  0.40000000000E+03 0.  1.
<mgrwt>
<rscale>  2 0.48490239E+03</rscale>
<asrwt>0</asrwt>
<pdfrwt beam="1">  1       21 0.24429288E-01 0.48490239E+03</pdfrwt>
<pdfrwt beam="2">  1       21 0.26209459E+00 0.48490239E+03</pdfrwt>
<totfact> 0.71444856E+02</totfact>
</mgrwt>
</event>
<event>
 4    1  0.8722554E-003  0.4148639E+03  0.7818608E-02  0.1038751E+00
         21   -1    0    0  501  502  0.00000000000E+00  0.00000000000E+00  0.17009117649E+03  0.17009117649E+03  0.00000000000E+00 0.  1.
         21   -1    0    0  502  503 -0.00000000000E+00 -0.00000000000E+00 -0.10120680009E+04  0.10120680009E+04  0.00000000000E+00 0.  1.
    9000005    1    1    2  501    0  0.49776536720E+02  0.98154760244E+02 -0.42901909683E+03  0.59679933479E+03  0.40000000000E+03 0.  1.
   -9000005    1    1    2    0  503 -0.49776536720E+02 -0.98154760244E+02 -0.41295772758E+03  0.58535984261E+03  0.40000000000E+03 0.  1.
<mgrwt>
<rscale>  2 0.41486391E+03</rscale>
<asrwt>0</asrwt>
<pdfrwt beam="1">  1       21 0.26167873E-01 0.41486391E+03</pdfrwt>
<pdfrwt beam="2">  1       21 0.15570277E+00 0.41486391E+03</pdfrwt>
<totfact> 0.32885308E+03</totfact>
</mgrwt>
</event>
<event>
 4    1  0.8722554E-003  0.4470664E+03  0.7818608E-02  0.1028600E+00
         21   -1    0    0  503  502  0.00000000000E+00  0.00000000000E+00  0.24591744202E+03  0.24591744202E+03  0.00000000000E+00 0.  1.
         21   -1    0    0  501  503 -0.00000000000E+00 -0.00000000000E+00 -0.95037972404E+03  0.95037972404E+03  0.00000000000E+00 0.  1.
    9000005    1    1    2  501    0 -0.19600458693E+03 -0.38086185229E+02 -0.12460437738E+03  0.46410624480E+03  0.40000000000E+03 0.  1.
   -9000005    1    1    2    0  502  0.19600458693E+03  0.38086185229E+02 -0.57985790464E+03  0.73219092126E+03  0.40000000000E+03 0.  1.
<mgrwt>
<rscale>  2 0.44706639E+03</rscale>
<asrwt>0</asrwt>
<pdfrwt beam="1">  1       21 0.37833452E-01 0.44706639E+03</pdfrwt>
<pdfrwt beam="2">  1       21 0.14621227E+00 0.44706639E+03</pdfrwt>
<totfact> 0.18445020E+03</totfact>
</mgrwt>
</event>
<event>
 4    1  0.8722554E-003  0.4341875E+03  0.7818608E-02  0.1032545E+00
         21   -1    0    0  503  502  0.00000000000E+00  0.00000000000E+00  0.32548986850E+03  0.32548986850E+03  0.00000000000E+00 0.  1.
         21   -1    0    0  501  503 -0.00000000000E+00 -0.00000000000E+00 -0.75901138209E+03  0.75901138209E+03  0.00000000000E+00 0. -1.
    9000005    1    1    2  501    0  0.13776730704E+02  0.16831228499E+03 -0.48069924008E+03  0.64775812075E+03  0.40000000000E+03 0. -1.
   -9000005    1    1    2    0  502 -0.13776730704E+02 -0.16831228499E+03  0.47177726478E+02  0.43674312984E+03  0.40000000000E+03 0.  1.
<mgrwt>
<rscale>  2 0.43418754E+03</rscale>
<asrwt>0</asrwt>
<pdfrwt beam="1">  1       21 0.50075364E-01 0.43418754E+03</pdfrwt>
<pdfrwt beam="2">  1       21 0.11677098E+00 0.43418754E+03</pdfrwt>
<totfact> 0.18555252E+03</totfact>
</mgrwt>
</event>
<event>
 4    1  0.8722554E-003  0.4440998E+03  0.7818608E-02  0.1029496E+00
         21   -1    0    0  503  502  0.00000000000E+00  0.00000000000E+00  0.10418556689E+04  0.10418556689E+04  0.00000000000E+00 0.  1.
         21   -1    0    0  501  503 -0.00000000000E+00 -0.00000000000E+00 -0.20974532933E+03  0.20974532933E+03  0.00000000000E+00 0. -1.
    9000005    1    1    2  501    0  0.18319284039E+03 -0.60539422861E+02  0.22067839197E+03  0.49590683719E+03  0.40000000000E+03 0.  1.
   -9000005    1    1    2    0  502 -0.18319284039E+03  0.60539422861E+02  0.61143194763E+03  0.75569416107E+03  0.40000000000E+03 0. -1.
<mgrwt>
<rscale>  2 0.44409981E+03</rscale>
<asrwt>0</asrwt>
<pdfrwt beam="1">  1       21 0.16028548E+00 0.44409981E+03</pdfrwt>
<pdfrwt beam="2">  1       21 0.32268513E-01 0.44409981E+03</pdfrwt>
<totfact> 0.19813286E+03</totfact>
</mgrwt>
</event>
<event>
 4    1  0.8722554E-003  0.4504627E+03  0.7818608E-02  0.1027584E+00
         21   -1    0    0  503  502  0.00000000000E+00  0.00000000000E+00  0.28746508731E+03  0.28746508731E+03  0.00000000000E+00 0.  1.
         21   -1    0    0  501  503 -0.00000000000E+00 -0.00000000000E+00 -0.72258633818E+03  0.72258633818E+03  0.00000000000E+00 0. -1.
    9000005    1    1    2  501    0 -0.92719857918E+02 -0.18525576468E+03 -0.14077632762E+03  0.47194771407E+03  0.40000000000E+03 0.  1.
   -9000005    1    1    2    0  502  0.92719857918E+02  0.18525576468E+03 -0.29434492325E+03  0.53810371142E+03  0.40000000000E+03 0. -1.
<mgrwt>
<rscale>  2 0.45046273E+03</rscale>
<asrwt>0</asrwt>
<pdfrwt beam="1">  1       21 0.44225399E-01 0.45046273E+03</pdfrwt>
<pdfrwt beam="2">  1       21 0.11116713E+00 0.45046273E+03</pdfrwt>
<totfact> 0.27088081E+03</totfact>
</mgrwt>
</event>
<event>
 4    1  0.8722554E-003  0.4262615E+03  0.7818608E-02  0.1035047E+00
         21   -1    0    0  501  502  0.00000000000E+00  0.00000000000E+00  0.67773648029E+03  0.67773648029E+03  0.00000000000E+00 0.  1.
         21   -1    0    0  502  503 -0.00000000000E+00 -0.00000000000E+00 -0.27198573104E+03  0.27198573104E+03  0.00000000000E+00 0. -1.
    9000005    1    1    2  501    0  0.11052457505E+03 -0.97381813533E+02  0.14609275277E+03  0.45060181059E+03  0.40000000000E+03 0. -1.
   -9000005    1    1    2    0  503 -0.11052457505E+03  0.97381813533E+02  0.25965799647E+03  0.49912040073E+03  0.40000000000E+03 0.  1.
<mgrwt>
<rscale>  2 0.42626154E+03</rscale>
<asrwt>0</asrwt>
<pdfrwt beam="1">  1       21 0.10426715E+00 0.42626154E+03</pdfrwt>
<pdfrwt beam="2">  1       21 0.41843959E-01 0.42626154E+03</pdfrwt>
<totfact> 0.35924898E+03</totfact>
</mgrwt>
</event>
<event>
 4    1  0.8722554E-003  0.4765076E+03  0.7818608E-02  0.1020099E+00
         21   -1    0    0  501  502  0.00000000000E+00  0.00000000000E+00  0.83077243322E+03  0.83077243322E+03  0.00000000000E+00 0. -1.
         21   -1    0    0  502  503 -0.00000000000E+00 -0.00000000000E+00 -0.27410864991E+03  0.27410864991E+03  0.00000000000E+00 0. -1.
    9000005    1    1    2  501    0  0.94787154876E+02 -0.24098734125E+03  0.30812703544E+03  0.56745200092E+03  0.40000000000E+03 0. -1.
   -9000005    1    1    2    0  503 -0.94787154876E+02  0.24098734125E+03  0.24853674787E+03  0.53742908222E+03  0.40000000000E+03 0. -1.
<mgrwt>
<rscale>  2 0.47650761E+03</rscale>
<asrwt>0</asrwt>
<pdfrwt beam="1">  1       21 0.12781114E+00 0.47650761E+03</pdfrwt>
<pdfrwt beam="2">  1       21 0.42170562E-01 0.47650761E+03</pdfrwt>
<totfact> 0.20798108E+03</totfact>
</mgrwt>
</event>
<event>
 4    1  0.8722554E-003  0.4761825E+03  0.7818608E-02  0.1020190E+00
         21   -1    0    0  501  502  0.00000000000E+00  0.00000000000E+00  0.12237172310E+04  0.12237172310E+04  0.00000000000E+00 0. -1.
         21   -1    0    0  502  503 -0.00000000000E+00 -0.00000000000E+00 -0.18625531825E+03  0.18625531825E+03  0.00000000000E+00 0.  1.
    9000005    1    1    2  501    0 -0.25562935908E+03 -0.37461726814E+02  0.56932936618E+03  0.74221673209E+03  0.40000000000E+03 0.  1.
   -9000005    1    1    2    0  503  0.25562935908E+03  0.37461726814E+02  0.46813254660E+03  0.66775581719E+03  0.40000000000E+03 0.  1.
<mgrwt>
<rscale>  2 0.47618248E+03</rscale>
<asrwt>0</asrwt>
<pdfrwt beam="1">  1       21 0.18826418E+00 0.47618248E+03</pdfrwt>
<pdfrwt beam="2">  1       21 0.28654665E-01 0.47618248E+03</pdfrwt>
<totfact> 0.15583876E+03</totfact>
</mgrwt>
</event>
<event>
 4    1  0.8722554E-003  0.4088276E+03  0.7818608E-02  0.1040765E+00
         21   -1    0    0  503  502  0.00000000000E+00  0.00000000000E+00  0.21992202231E+03  0.21992202231E+03  0.00000000000E+00 0. -1.
         21   -1    0    0  501  503 -0.00000000000E+00 -0.00000000000E+00 -0.76754395997E+03  0.76754395997E+03  0.00000000000E+00 0. -1.
    9000005    1    1    2  501    0 -0.71265825626E+02  0.45400524296E+02 -0.22485188261E+03  0.46658160554E+03  0.40000000000E+03 0. -1.
   -9000005    1    1    2    0  502  0.71265825626E+02 -0.45400524296E+02 -0.32277005505E+03  0.52088437675E+03  0.40000000000E+03 0. -1.
<mgrwt>
<rscale>  2 0.40882762E+03</rscale>
<asrwt>0</asrwt>
<pdfrwt beam="1">  1       21 0.33834157E-01 0.40882762E+03</pdfrwt>
<pdfrwt beam="2">  1       21 0.11808369E+00 0.40882762E+03</pdfrwt>
<totfact> 0.40967931E+03</totfact>
</mgrwt>
</event>
<event>
 4    1  0.8722554E-003  0.4285411E+03  0.7818608E-02  0.1034322E+00
         21   -1    0    0  503  502  0.00000000000E+00  0.00000000000E+00  0.10163730686E+04  0.10163730686E+04  0.00000000000E+00 0. -1.
         21   -1    0    0  501  503 -0.00000000000E+00 -0.00000000000E+00 -0.18620402310E+03  0.18620402310E+03  0.00000000000E+00 0.  1.
    9000005    1    1    2  501    0 -0.15171764562E+03  0.25084758094E+02  0.51856535460E+03  0.67272395236E+03  0.40000000000E+03 0. -1.
   -9000005    1    1    2    0  502  0.15171764562E+03 -0.25084758094E+02  0.31160369087E+03  0.52985313932E+03  0.40000000000E+03 0. -1.
<mgrwt>
<rscale>  2 0.42854112E+03</rscale>
<asrwt>0</asrwt>
<pdfrwt beam="1">  1       21 0.15636508E+00 0.42854112E+03</pdfrwt>
<pdfrwt beam="2">  1       21 0.28646773E-01 0.42854112E+03</pdfrwt>
<totfact> 0.27061455E+03</totfact>
</mgrwt>
</event>
<event>
 4    1  0.8722554E-003  0.4029246E+03  0.7818608E-02  0.1042772E+00
         21   -1    0    0  501  502  0.00000000000E+00  0.00000000000E+00  0.56687566197E+03  0.56687566197E+03  0.00000000000E+00 0.  1.
         21   -1    0    0  502  503 -0.00000000000E+00 -0.00000000000E+00 -0.30061058549E+03  0.30061058549E+03  0.00000000000E+00 0.  1.
    9000005    1    1    2  501    0 -0.46433455299E+01 -0.48235970979E+02  0.38798367176E+02  0.40478831857E+03  0.40000000000E+03 0. -1.
   -9000005    1    1    2    0  503  0.46433455299E+01  0.48235970979E+02  0.22746670931E+03  0.46269792889E+03  0.40000000000E+03 0. -1.
<mgrwt>
<rscale>  2 0.40292465E+03</rscale>
<asrwt>0</asrwt>
<pdfrwt beam="1">  1       21 0.87211640E-01 0.40292465E+03</pdfrwt>
<pdfrwt beam="2">  1       21 0.46247782E-01 0.40292465E+03</pdfrwt>
<totfact> 0.45136354E+03</totfact>
</mgrwt>
</event>
<event>
 4    1  0.8722554E-003  0.5225033E+03  0.7818608E-02  0.1008067E+00
         21   -1    0    0  503  502  0.00000000000E+00  0.00000000000E+00  0.15615037707E+04  0.15615037707E+04  0.00000000000E+00 0. -1.
         21   -1    0    0  501  503 -0.00000000000E+00 -0.00000000000E+00 -0.38602480776E+03  0.38602480776E+03  0.00000000000E+00 0. -1.
    9000005    1    1    2  501    0  0.33161043106E+03 -0.55174308140E+02 -0.13250504615E+03  0.53904291992E+03  0.40000000000E+03 0. -1.
   -9000005    1    1    2    0  502 -0.33161043106E+03  0.55174308140E+02  0.13079840091E+04  0.14084856585E+04  0.40000000000E+03 0. -1.
<mgrwt>
<rscale>  2 0.52250328E+03</rscale>
<asrwt>0</asrwt>
<pdfrwt beam="1">  1       21 0.24023135E+00 0.52250328E+03</pdfrwt>
<pdfrwt beam="2">  1       21 0.59388433E-01 0.52250328E+03</pdfrwt>
<totfact> 0.15391996E+02</totfact>
</mgrwt>
</event>
<event>
 4    1  0.8722554E-003  0.4074722E+03  0.7818608E-02  0.1041223E+00
         21   -1    0    0  503  502  0.00000000000E+00  0.00000000000E+00  0.11675844813E+03  0.11675844813E+03  0.00000000000E+00 0.  1.
         21   -1    0    0  501  503 -0.00000000000E+00 -0.00000000000E+00 -0.14325989023E+04  0.14325989023E+04  0.00000000000E+00 0.  1.
    9000005    1    1    2  501    0  0.53847561161E+01  0.77489119662E+02 -0.72447122812E+03  0.83119920575E+03  0.40000000000E+03 0.  1.
   -9000005    1    1    2    0  502 -0.53847561161E+01 -0.77489119662E+02 -0.59136922609E+03  0.71815814472E+03  0.40000000000E+03 0.  1.
<mgrwt>
<rscale>  2 0.40747216E+03</rscale>
<asrwt>0</asrwt>
<pdfrwt beam="1">  1       21 0.17962839E-01 0.40747216E+03</pdfrwt>
<pdfrwt beam="2">  1       21 0.22039982E+00 0.40747216E+03</pdfrwt>
<totfact> 0.24229712E+03</totfact>
</mgrwt>
</event>
<event>
 4    1  0.8722554E-003  0.5224081E+03  0.7818608E-02  0.1008090E+00
         21   -1    0    0  503  502  0.00000000000E+00  0.00000000000E+00  0.43516756638E+03  0.43516756638E+03  0.00000000000E+00 0. -1.
         21   -1    0    0  501  503 -0.00000000000E+00 -0.00000000000E+00 -0.62753277971E+03  0.62753277971E+03  0.00000000000E+00 0. -1.
    9000005    1    1    2  501    0 -0.10009765973E+03 -0.32076577894E+03 -0.10950560549E+03  0.53376184207E+03  0.40000000000E+03 0. -1.
   -9000005    1    1    2    0  502  0.10009765973E+03  0.32076577894E+03 -0.82859607840E+02  0.52893850402E+03  0.40000000000E+03 0. -1.
<mgrwt>
<rscale>  2 0.52240810E+03</rscale>
<asrwt>0</asrwt>
<pdfrwt beam="1">  1       21 0.66948856E-01 0.52240810E+03</pdfrwt>
<pdfrwt beam="2">  1       21 0.96543505E-01 0.52240810E+03</pdfrwt>
<totfact> 0.15243971E+03</totfact>
</mgrwt>
</event>
<event>
 4    1  0.8722554E-003  0.4745327E+03  0.7818608E-02  0.1020649E+00
         21   -1    0    0  501  502  0.00000000000E+00  0.00000000000E+00  0.68132404380E+03  0.68132404380E+03  0.00000000000E+00 0. -1.
         21   -1    0    0  502  503 -0.00000000000E+00 -0.00000000000E+00 -0.59273922173E+03  0.59273922173E+03  0.00000000000E+00 0. -1.
    9000005    1    1    2  501    0 -0.19868169349E+03 -0.16033367609E+03  0.46800706535E+03  0.66649224769E+03  0.40000000000E+03 0. -1.
   -9000005    1    1    2    0  503  0.19868169349E+03  0.16033367609E+03 -0.37942224328E+03  0.60757101783E+03  0.40000000000E+03 0. -1.
<mgrwt>
<rscale>  2 0.47453272E+03</rscale>
<asrwt>0</asrwt>
<pdfrwt beam="1">  1       21 0.10481908E+00 0.47453272E+03</pdfrwt>
<pdfrwt beam="2">  1       21 0.91190649E-01 0.47453272E+03</pdfrwt>
<totfact> 0.62235462E+02</totfact>
</mgrwt>
</event>
<event>
 4    1  0.8722554E-003  0.6885486E+03  0.7818608E-02  0.9737019E-01
         21   -1    0    0  501  502  0.00000000000E+00  0.00000000000E+00  0.27190278737E+04  0.27190278737E+04  0.00000000000E+00 0. -1.
         21   -1    0    0  502  503 -0.00000000000E+00 -0.00000000000E+00 -0.17643602376E+03  0.17643602376E+03  0.00000000000E+00 0.  1.
    9000005    1    1    2  501    0 -0.27136166206E+03 -0.49036925425E+03  0.14282044647E+04  0.15855179438E+04  0.40000000000E+03 0.  1.
   -9000005    1    1    2    0  503  0.27136166206E+03  0.49036925425E+03  0.11143873853E+04  0.13099459537E+04  0.40000000000E+03 0.  1.
<mgrwt>
<rscale>  2 0.68854859E+03</rscale>
<asrwt>0</asrwt>
<pdfrwt beam="1">  1       21 0.41831195E+00 0.68854859E+03</pdfrwt>
<pdfrwt beam="2">  1       21 0.27144006E-01 0.68854859E+03</pdfrwt>
<totfact> 0.56196442E+01</totfact>
</mgrwt>
</event>
<event>
 4    1  0.8722554E-003  0.5136141E+03  0.7818608E-02  0.1010285E+00
         21   -1    0    0  503  502  0.00000000000E+00  0.00000000000E+00  0.76918727478E+03  0.76918727478E+03  0.00000000000E+00 0. -1.
         21   -1    0    0  501  503 -0.00000000000E+00 -0.00000000000E+00 -0.34463974151E+03  0.34463974151E+03  0.00000000000E+00 0.  1.
    9000005    1    1    2  501    0 -0.31190360934E+03  0.80719197321E+02  0.17337845733E+03  0.54208812918E+03  0.40000000000E+03 0. -1.
   -9000005    1    1    2    0  502  0.31190360934E+03 -0.80719197321E+02  0.25116907594E+03  0.57173888712E+03  0.40000000000E+03 0. -1.
<mgrwt>
<rscale>  2 0.51361411E+03</rscale>
<asrwt>0</asrwt>
<pdfrwt beam="1">  1       21 0.11833650E+00 0.51361411E+03</pdfrwt>
<pdfrwt beam="2">  1       21 0.53021499E-01 0.51361411E+03</pdfrwt>
<totfact> 0.15417672E+03</totfact>
</mgrwt>
</event>
<event>
 4    1  0.8722554E-003  0.4997213E+03  0.7818608E-02  0.1013852E+00
         21   -1    0    0  501  502  0.00000000000E+00  0.00000000000E+00  0.69064591744E+03  0.69064591744E+03  0.00000000000E+00 0.  1.
         21   -1    0    0  502  503 -0.00000000000E+00 -0.00000000000E+00 -0.60078879176E+03  0.60078879176E+03  0.00000000000E+00 0. -1.
    9000005    1    1    2  501    0  0.17511511586E+03  0.24301447261E+03  0.45237759297E+03  0.67406737373E+03  0.40000000000E+03 0.  1.
   -9000005    1    1    2    0  503 -0.17511511586E+03 -0.24301447261E+03 -0.36252046729E+03  0.61736733547E+03  0.40000000000E+03 0. -1.
<mgrwt>
<rscale>  2 0.49972126E+03</rscale>
<asrwt>0</asrwt>
<pdfrwt beam="1">  1       21 0.10625322E+00 0.49972126E+03</pdfrwt>
<pdfrwt beam="2">  1       21 0.92429045E-01 0.49972126E+03</pdfrwt>
<totfact> 0.57681844E+02</totfact>
</mgrwt>
</event>
<event>
 4    1  0.8722554E-003  0.4143135E+03  0.7818608E-02  0.1038933E+00
         21   -1    0    0  503  502  0.00000000000E+00  0.00000000000E+00  0.69893221673E+03  0.69893221673E+03  0.00000000000E+00 0.  1.
         21   -1    0    0  501  503 -0.00000000000E+00 -0.00000000000E+00 -0.26099922406E+03  0.26099922406E+03  0.00000000000E+00 0.  1.
    9000005    1    1    2  501    0  0.10774602266E+03 -0.68181464328E+01  0.10237105061E+03  0.42677338778E+03  0.40000000000E+03 0. -1.
   -9000005    1    1    2    0  502 -0.10774602266E+03  0.68181464328E+01  0.33556194206E+03  0.53315805300E+03  0.40000000000E+03 0. -1.
<mgrwt>
<rscale>  2 0.41431352E+03</rscale>
<asrwt>0</asrwt>
<pdfrwt beam="1">  1       21 0.10752803E+00 0.41431352E+03</pdfrwt>
<pdfrwt beam="2">  1       21 0.40153727E-01 0.41431352E+03</pdfrwt>
<totfact> 0.36425302E+03</totfact>
</mgrwt>
</event>
<event>
 4    1  0.8722554E-003  0.4404125E+03  0.7818608E-02  0.1030620E+00
         21   -1    0    0  503  502  0.00000000000E+00  0.00000000000E+00  0.48302011288E+02  0.48302011288E+02  0.00000000000E+00 0.  1.
         21   -1    0    0  501  503 -0.00000000000E+00 -0.00000000000E+00 -0.41344928469E+04  0.41344928469E+04  0.00000000000E+00 0.  1.
    9000005    1    1    2  501    0  0.12415963830E+03 -0.13618930820E+03 -0.16884916898E+04  0.17449834755E+04  0.40000000000E+03 0. -1.
   -9000005    1    1    2    0  502 -0.12415963830E+03  0.13618930820E+03 -0.23976991459E+04  0.24378113827E+04  0.40000000000E+03 0. -1.
<mgrwt>
<rscale>  2 0.44041247E+03</rscale>
<asrwt>0</asrwt>
<pdfrwt beam="1">  1       21 0.74310784E-02 0.44041247E+03</pdfrwt>
<pdfrwt beam="2">  1       21 0.63607585E+00 0.44041247E+03</pdfrwt>
<totfact> 0.18052337E+01</totfact>
</mgrwt>
</event>
<event>
 4    1  0.8722554E-003  0.4636983E+03  0.7818608E-02  0.1023714E+00
         21   -1    0    0  503  502  0.00000000000E+00  0.00000000000E+00  0.44863460126E+03  0.44863460126E+03  0.00000000000E+00 0.  1.
         21   -1    0    0  501  503 -0.00000000000E+00 -0.00000000000E+00 -0.49812700840E+03  0.49812700840E+03  0.00000000000E+00 0.  1.
    9000005    1    1    2  501    0  0.20023439713E+02  0.23369887834E+03 -0.11685533776E+03  0.47819585301E+03  0.40000000000E+03 0.  1.
   -9000005    1    1    2    0  502 -0.20023439713E+02 -0.23369887834E+03  0.67362930618E+02  0.46856575664E+03  0.40000000000E+03 0.  1.
<mgrwt>
<rscale>  2 0.46369829E+03</rscale>
<asrwt>0</asrwt>
<pdfrwt beam="1">  1       21 0.69020708E-01 0.46369829E+03</pdfrwt>
<pdfrwt beam="2">  1       21 0.76634924E-01 0.46369829E+03</pdfrwt>
<totfact> 0.25001301E+03</totfact>
</mgrwt>
</event>
<event>
 4    1  0.8722554E-003  0.4584199E+03  0.7818608E-02  0.1025240E+00
         21   -1    0    0  501  502  0.00000000000E+00  0.00000000000E+00  0.13475239960E+03  0.13475239960E+03  0.00000000000E+00 0. -1.
         21   -1    0    0  502  503 -0.00000000000E+00 -0.00000000000E+00 -0.16883532773E+04  0.16883532773E+04  0.00000000000E+00 0.  1.
    9000005    1    1    2  501    0  0.10414934367E+03  0.19824655744E+03 -0.52499349572E+03  0.69696983713E+03  0.40000000000E+03 0. -1.
   -9000005    1    1    2    0  503 -0.10414934367E+03 -0.19824655744E+03 -0.10286073820E+04  0.11261358397E+04  0.40000000000E+03 0.  1.
<mgrwt>
<rscale>  2 0.45841988E+03</rscale>
<asrwt>0</asrwt>
<pdfrwt beam="1">  1       21 0.20731137E-01 0.45841988E+03</pdfrwt>
<pdfrwt beam="2">  1       21 0.25974667E+00 0.45841988E+03</pdfrwt>
<totfact> 0.10265071E+03</totfact>
</mgrwt>
</event>
<event>
 4    1  0.8722554E-003  0.5226046E+03  0.7818608E-02  0.1008042E+00
         21   -1    0    0  503  502  0.00000000000E+00  0.00000000000E+00  0.87818846928E+03  0.87818846928E+03  0.00000000000E+00 0.  1.
         21   -1    0    0  501  503 -0.00000000000E+00 -0.00000000000E+00 -0.33675808114E+03  0.33675808114E+03  0.00000000000E+00 0.  1.
    9000005    1    1    2  501    0  0.77189831855E+02 -0.32734891848E+03  0.10270532309E+03  0.53260113403E+03  0.40000000000E+03 0.  1.
   -9000005    1    1    2    0  502 -0.77189831855E+02  0.32734891848E+03  0.43872506505E+03  0.68234541640E+03  0.40000000000E+03 0.  1.
<mgrwt>
<rscale>  2 0.52260462E+03</rscale>
<asrwt>0</asrwt>
<pdfrwt beam="1">  1       21 0.13510592E+00 0.52260462E+03</pdfrwt>
<pdfrwt beam="2">  1       21 0.51808936E-01 0.52260462E+03</pdfrwt>
<totfact> 0.11461390E+03</totfact>
</mgrwt>
</event>
<event>
 4    1  0.8722554E-003  0.4345431E+03  0.7818608E-02  0.1032434E+00
         21   -1    0    0  503  502  0.00000000000E+00  0.00000000000E+00  0.12776207585E+03  0.12776207585E+03  0.00000000000E+00 0.  1.
         21   -1    0    0  501  503 -0.00000000000E+00 -0.00000000000E+00 -0.14780253572E+04  0.14780253572E+04  0.00000000000E+00 0. -1.
    9000005    1    1    2  501    0  0.59194170666E+02 -0.15913450972E+03 -0.68030692183E+03  0.80724547067E+03  0.40000000000E+03 0. -1.
   -9000005    1    1    2    0  502 -0.59194170666E+02  0.15913450972E+03 -0.66995635950E+03  0.79854196237E+03  0.40000000000E+03 0.  1.
<mgrwt>
<rscale>  2 0.43454314E+03</rscale>
<asrwt>0</asrwt>
<pdfrwt beam="1">  1       21 0.19655703E-01 0.43454314E+03</pdfrwt>
<pdfrwt beam="2">  1       21 0.22738852E+00 0.43454314E+03</pdfrwt>
<totfact> 0.18224991E+03</totfact>
</mgrwt>
</event>
<event>
 4    1  0.8722554E-003  0.4417788E+03  0.7818608E-02  0.1030202E+00
         21   -1    0    0  501  502  0.00000000000E+00  0.00000000000E+00  0.22228588994E+03  0.22228588994E+03  0.00000000000E+00 0.  1.
         21   -1    0    0  502  503 -0.00000000000E+00 -0.00000000000E+00 -0.89736175955E+03  0.89736175955E+03  0.00000000000E+00 0.  1.
    9000005    1    1    2  501    0 -0.18746923029E+03 -0.48739891419E+01 -0.25532001222E+03  0.51025167978E+03  0.40000000000E+03 0.  1.
   -9000005    1    1    2    0  503  0.18746923029E+03  0.48739891419E+01 -0.41975585739E+03  0.60939596970E+03  0.40000000000E+03 0.  1.
<mgrwt>
<rscale>  2 0.44177875E+03</rscale>
<asrwt>0</asrwt>
<pdfrwt beam="1">  1       21 0.34197829E-01 0.44177875E+03</pdfrwt>
<pdfrwt beam="2">  1       21 0.13805566E+00 0.44177875E+03</pdfrwt>
<totfact> 0.26453160E+03</totfact>
</mgrwt>
</event>
<event>
 4    1  0.8722554E-003  0.5038115E+03  0.7818608E-02  0.1012789E+00
         21   -1    0    0  503  502  0.00000000000E+00  0.00000000000E+00  0.21276348171E+04  0.21276348171E+04  0.00000000000E+00 0.  1.
         21   -1    0    0  501  503 -0.00000000000E+00 -0.00000000000E+00 -0.12296820023E+03  0.12296820023E+03  0.00000000000E+00 0.  1.
    9000005    1    1    2  501    0  0.22211818576E+03 -0.21092541308E+03  0.80796668337E+03  0.95217444818E+03  0.40000000000E+03 0.  1.
   -9000005    1    1    2    0  502 -0.22211818576E+03  0.21092541308E+03  0.11966999335E+04  0.12984285692E+04  0.40000000000E+03 0.  1.
<mgrwt>
<rscale>  2 0.50381149E+03</rscale>
<asrwt>0</asrwt>
<pdfrwt beam="1">  1       21 0.32732841E+00 0.50381149E+03</pdfrwt>
<pdfrwt beam="2">  1       21 0.18918186E-01 0.50381149E+03</pdfrwt>
<totfact> 0.46555064E+02</totfact>
</mgrwt>
</event>
<event>
 4    1  0.8722554E-003  0.5292061E+03  0.7818608E-02  0.1006425E+00
         21   -1    0    0  501  502  0.00000000000E+00  0.00000000000E+00  0.46739195368E+03  0.46739195368E+03  0.00000000000E+00 0. -1.
         21   -1    0    0  502  503 -0.00000000000E+00 -0.00000000000E+00 -0.60565864281E+03  0.60565864281E+03  0.00000000000E+00 0.  1.
    9000005    1    1    2  501    0  0.85031394929E+02 -0.33589991613E+03 -0.12455796062E+03  0.54366697282E+03  0.40000000000E+03 0.  1.
   -9000005    1    1    2    0  503 -0.85031394929E+02  0.33589991613E+03 -0.13708728518E+02  0.52938362368E+03  0.40000000000E+03 0. -1.
<mgrwt>
<rscale>  2 0.52920610E+03</rscale>
<asrwt>0</asrwt>
<pdfrwt beam="1">  1       21 0.71906455E-01 0.52920610E+03</pdfrwt>
<pdfrwt beam="2">  1       21 0.93178252E-01 0.52920610E+03</pdfrwt>
<totfact> 0.14098985E+03</totfact>
</mgrwt>
</event>
<event>
 4    1  0.8722554E-003  0.5180148E+03  0.7818608E-02  0.1009181E+00
         21   -1    0    0  503  502  0.00000000000E+00  0.00000000000E+00  0.45424186557E+03  0.45424186557E+03  0.00000000000E+00 0. -1.
         21   -1    0    0  501  503 -0.00000000000E+00 -0.00000000000E+00 -0.60395043306E+03  0.60395043306E+03  0.00000000000E+00 0. -1.
    9000005    1    1    2  501    0 -0.98820749284E+02  0.31396464027E+03 -0.15310251411E+03  0.54016637775E+03  0.40000000000E+03 0. -1.
   -9000005    1    1    2    0  502  0.98820749284E+02 -0.31396464027E+03  0.33939466231E+01  0.51802592088E+03  0.40000000000E+03 0. -1.
<mgrwt>
<rscale>  2 0.51801480E+03</rscale>
<asrwt>0</asrwt>
<pdfrwt beam="1">  1       21 0.69883364E-01 0.51801480E+03</pdfrwt>
<pdfrwt beam="2">  1       21 0.92915452E-01 0.51801480E+03</pdfrwt>
<totfact> 0.15198706E+03</totfact>
</mgrwt>
</event>
<event>
 4    1  0.8722554E-003  0.4618564E+03  0.7818608E-02  0.1024244E+00
         21   -1    0    0  503  502  0.00000000000E+00  0.00000000000E+00  0.31079309306E+03  0.31079309306E+03  0.00000000000E+00 0.  1.
         21   -1    0    0  501  503 -0.00000000000E+00 -0.00000000000E+00 -0.79448845362E+03  0.79448845362E+03  0.00000000000E+00 0.  1.
    9000005    1    1    2  501    0 -0.10512445538E+03 -0.20557287913E+03 -0.44573901368E+03  0.64186807684E+03  0.40000000000E+03 0.  1.
   -9000005    1    1    2    0  502  0.10512445538E+03  0.20557287913E+03 -0.37956346885E+02  0.46341346983E+03  0.40000000000E+03 0.  1.
<mgrwt>
<rscale>  2 0.46185643E+03</rscale>
<asrwt>0</asrwt>
<pdfrwt beam="1">  1       21 0.47814322E-01 0.46185643E+03</pdfrwt>
<pdfrwt beam="2">  1       21 0.12222899E+00 0.46185643E+03</pdfrwt>
<totfact> 0.18029765E+03</totfact>
</mgrwt>
</event>
<event>
 4    1  0.8722554E-003  0.4738909E+03  0.7818608E-02  0.1020828E+00
         21   -1    0    0  501  502  0.00000000000E+00  0.00000000000E+00  0.14111800877E+04  0.14111800877E+04  0.00000000000E+00 0. -1.
         21   -1    0    0  502  503 -0.00000000000E+00 -0.00000000000E+00 -0.18198755469E+03  0.18198755469E+03  0.00000000000E+00 0.  1.
    9000005    1    1    2  501    0 -0.24244699243E+03 -0.76105682398E+02  0.89685531669E+03  0.10143579635E+04  0.40000000000E+03 0. -1.
   -9000005    1    1    2    0  503  0.24244699243E+03  0.76105682398E+02  0.33233721632E+03  0.57880967889E+03  0.40000000000E+03 0.  1.
<mgrwt>
<rscale>  2 0.47389094E+03</rscale>
<asrwt>0</asrwt>
<pdfrwt beam="1">  1       21 0.21710462E+00 0.47389094E+03</pdfrwt>
<pdfrwt beam="2">  1       21 0.27998086E-01 0.47389094E+03</pdfrwt>
<totfact> 0.10499804E+03</totfact>
</mgrwt>
</event>
<event>
 4    1  0.8722554E-003  0.4220314E+03  0.7818608E-02  0.1036407E+00
         21   -1    0    0  503  502  0.00000000000E+00  0.00000000000E+00  0.33604223109E+03  0.33604223109E+03  0.00000000000E+00 0. -1.
         21   -1    0    0  501  503 -0.00000000000E+00 -0.00000000000E+00 -0.53015362848E+03  0.53015362848E+03  0.00000000000E+00 0.  1.
    9000005    1    1    2  501    0  0.12450185698E+03 -0.51085768125E+02 -0.90285011909E+02  0.43158064307E+03  0.40000000000E+03 0.  1.
   -9000005    1    1    2    0  502 -0.12450185698E+03  0.51085768125E+02 -0.10382638548E+03  0.43461521651E+03  0.40000000000E+03 0.  1.
<mgrwt>
<rscale>  2 0.42203136E+03</rscale>
<asrwt>0</asrwt>
<pdfrwt beam="1">  1       21 0.51698805E-01 0.42203136E+03</pdfrwt>
<pdfrwt beam="2">  1       21 0.81562097E-01 0.42203136E+03</pdfrwt>
<totfact> 0.41386440E+03</totfact>
</mgrwt>
</event>
<event>
 4    1  0.8722554E-003  0.4099789E+03  0.7818608E-02  0.1040378E+00
         21   -1    0    0  503  502  0.00000000000E+00  0.00000000000E+00  0.76744598520E+03  0.76744598520E+03  0.00000000000E+00 0.  1.
         21   -1    0    0  501  503 -0.00000000000E+00 -0.00000000000E+00 -0.29026044387E+03  0.29026044387E+03  0.00000000000E+00 0.  1.
    9000005    1    1    2  501    0  0.64044624874E+02  0.63095013507E+02 -0.23417149510E+02  0.41064712053E+03  0.40000000000E+03 0.  1.
   -9000005    1    1    2    0  502 -0.64044624874E+02 -0.63095013507E+02  0.50060269083E+03  0.64705930855E+03  0.40000000000E+03 0.  1.
<mgrwt>
<rscale>  2 0.40997890E+03</rscale>
<asrwt>0</asrwt>
<pdfrwt beam="1">  1       21 0.11806861E+00 0.40997890E+03</pdfrwt>
<pdfrwt beam="2">  1       21 0.44655453E-01 0.40997890E+03</pdfrwt>
<totfact> 0.23201074E+03</totfact>
</mgrwt>
</event>
<event>
 4    1  0.8722554E-003  0.4101369E+03  0.7818608E-02  0.1040325E+00
         21   -1    0    0  501  502  0.00000000000E+00  0.00000000000E+00  0.16410382615E+04  0.16410382615E+04  0.00000000000E+00 0. -1.
         21   -1    0    0  502  503 -0.00000000000E+00 -0.00000000000E+00 -0.10265920543E+03  0.10265920543E+03  0.00000000000E+00 0.  1.
    9000005    1    1    2  501    0  0.90620180559E+02  0.50932197100E+00  0.80313639030E+03  0.90179839097E+03  0.40000000000E+03 0. -1.
   -9000005    1    1    2    0  503 -0.90620180559E+02 -0.50932197100E+00  0.73524266576E+03  0.84189907595E+03  0.40000000000E+03 0. -1.
<mgrwt>
<rscale>  2 0.41013690E+03</rscale>
<asrwt>0</asrwt>
<pdfrwt beam="1">  1       21 0.25246741E+00 0.41013690E+03</pdfrwt>
<pdfrwt beam="2">  1       21 0.15793725E-01 0.41013690E+03</pdfrwt>
<totfact> 0.19448811E+03</totfact>
</mgrwt>
</event>
<event>
 4    1  0.8722554E-003  0.4041519E+03  0.7818608E-02  0.1042351E+00
         21   -1    0    0  501  502  0.00000000000E+00  0.00000000000E+00  0.29999611565E+03  0.29999611565E+03  0.00000000000E+00 0. -1.
         21   -1    0    0  502  503 -0.00000000000E+00 -0.00000000000E+00 -0.61570606818E+03  0.61570606818E+03  0.00000000000E+00 0. -1.
    9000005    1    1    2  501    0 -0.29183398756E+02 -0.49870646964E+02 -0.21190328273E+01  0.40415744765E+03  0.40000000000E+03 0. -1.
   -9000005    1    1    2    0  503  0.29183398756E+02  0.49870646964E+02 -0.31359091971E+03  0.51154473618E+03  0.40000000000E+03 0. -1.
<mgrwt>
<rscale>  2 0.40415189E+03</rscale>
<asrwt>0</asrwt>
<pdfrwt beam="1">  1       21 0.46153249E-01 0.40415189E+03</pdfrwt>
<pdfrwt beam="2">  1       21 0.94724010E-01 0.40415189E+03</pdfrwt>
<totfact> 0.37259693E+03</totfact>
</mgrwt>
</event>
<event>
 4    1  0.8722554E-003  0.5828343E+03  0.7818608E-02  0.9941674E-01
         21   -1    0    0  501  502  0.00000000000E+00  0.00000000000E+00  0.39832582692E+03  0.39832582692E+03  0.00000000000E+00 0. -1.
         21   -1    0    0  502  503 -0.00000000000E+00 -0.00000000000E+00 -0.87518683070E+03  0.87518683070E+03  0.00000000000E+00 0.  1.
    9000005    1    1    2  501    0  0.37428884952E+03  0.19900678983E+03 -0.13661075967E+03  0.59863039092E+03  0.40000000000E+03 0. -1.
   -9000005    1    1    2    0  503 -0.37428884952E+03 -0.19900678983E+03 -0.34025024412E+03  0.67488226670E+03  0.40000000000E+03 0. -1.
<mgrwt>
<rscale>  2 0.58283432E+03</rscale>
<asrwt>0</asrwt>
<pdfrwt beam="1">  1       21 0.61280897E-01 0.58283432E+03</pdfrwt>
<pdfrwt beam="2">  1       21 0.13464413E+00 0.58283432E+03</pdfrwt>
<totfact> 0.78596798E+02</totfact>
</mgrwt>
</event>
<event>
 4    1  0.8722554E-003  0.5041220E+03  0.7818608E-02  0.1012709E+00
         21   -1    0    0  503  502  0.00000000000E+00  0.00000000000E+00  0.81445961828E+03  0.81445961828E+03  0.00000000000E+00 0. -1.
         21   -1    0    0  501  503 -0.00000000000E+00 -0.00000000000E+00 -0.31204379541E+03  0.31204379541E+03  0.00000000000E+00 0.  1.
    9000005    1    1    2  501    0  0.24514277330E+03  0.18451028290E+03  0.24803857007E+03  0.56183819382E+03  0.40000000000E+03 0. -1.
   -9000005    1    1    2    0  502 -0.24514277330E+03 -0.18451028290E+03  0.25437725280E+03  0.56466521987E+03  0.40000000000E+03 0. -1.
<mgrwt>
<rscale>  2 0.50412203E+03</rscale>
<asrwt>0</asrwt>
<pdfrwt beam="1">  1       21 0.12530148E+00 0.50412203E+03</pdfrwt>
<pdfrwt beam="2">  1       21 0.48006738E-01 0.50412203E+03</pdfrwt>
<totfact> 0.16514856E+03</totfact>
</mgrwt>
</event>
<event>
 4    1  0.8722554E-003  0.4201851E+03  0.7818608E-02  0.1037006E+00
         21   -1    0    0  501  502  0.00000000000E+00  0.00000000000E+00  0.81389003209E+02  0.81389003209E+02  0.00000000000E+00 0.  1.
         21   -1    0    0  502  503 -0.00000000000E+00 -0.00000000000E+00 -0.29476067419E+04  0.29476067419E+04  0.00000000000E+00 0. -1.
    9000005    1    1    2  501    0 -0.45560576660E+02  0.12033184908E+03 -0.22113513457E+04  0.22509176561E+04  0.40000000000E+03 0. -1.
   -9000005    1    1    2    0  503  0.45560576660E+02 -0.12033184908E+03 -0.65486639297E+03  0.77807808907E+03  0.40000000000E+03 0.  1.
<mgrwt>
<rscale>  2 0.42018510E+03</rscale>
<asrwt>0</asrwt>
<pdfrwt beam="1">  1       21 0.12521386E-01 0.42018510E+03</pdfrwt>
<pdfrwt beam="2">  1       21 0.45347793E+00 0.42018510E+03</pdfrwt>
<totfact> 0.16559768E+02</totfact>
</mgrwt>
</event>
<event>
 4    1  0.8722554E-003  0.4901482E+03  0.7818608E-02  0.1016383E+00
         21   -1    0    0  503  502  0.00000000000E+00  0.00000000000E+00  0.23589982715E+03  0.23589982715E+03  0.00000000000E+00 0. -1.
         21   -1    0    0  501  503 -0.00000000000E+00 -0.00000000000E+00 -0.16032416860E+04  0.16032416860E+04  0.00000000000E+00 0. -1.
    9000005    1    1    2  501    0 -0.27193696315E+03  0.79344750666E+02 -0.12390596736E+04  0.13324842124E+04  0.40000000000E+03 0. -1.
   -9000005    1    1    2    0  502  0.27193696315E+03 -0.79344750666E+02 -0.12828218521E+03  0.50665730077E+03  0.40000000000E+03 0. -1.
<mgrwt>
<rscale>  2 0.49014824E+03</rscale>
<asrwt>0</asrwt>
<pdfrwt beam="1">  1       21 0.36292281E-01 0.49014824E+03</pdfrwt>
<pdfrwt beam="2">  1       21 0.24665257E+00 0.49014824E+03</pdfrwt>
<totfact> 0.40345369E+02</totfact>
</mgrwt>
</event>
<event>
 4    1  0.8722554E-003  0.4557400E+03  0.7818608E-02  0.1026024E+00
         21   -1    0    0  503  502  0.00000000000E+00  0.00000000000E+00  0.26821014439E+03  0.26821014439E+03  0.00000000000E+00 0.  1.
         21   -1    0    0  501  503 -0.00000000000E+00 -0.00000000000E+00 -0.95526583189E+03  0.95526583189E+03  0.00000000000E+00 0.  1.
    9000005    1    1    2  501    0  0.53855864963E+02 -0.21165658640E+03 -0.60971977835E+03  0.76122084369E+03  0.40000000000E+03 0.  1.
   -9000005    1    1    2    0  502 -0.53855864963E+02  0.21165658640E+03 -0.77335909153E+02  0.46225513258E+03  0.40000000000E+03 0.  1.
<mgrwt>
<rscale>  2 0.45574002E+03</rscale>
<asrwt>0</asrwt>
<pdfrwt beam="1">  1       21 0.41263099E-01 0.45574002E+03</pdfrwt>
<pdfrwt beam="2">  1       21 0.14696398E+00 0.45574002E+03</pdfrwt>
<totfact> 0.15165240E+03</totfact>
</mgrwt>
</event>
<event>
 4    1  0.8722554E-003  0.4808822E+03  0.7818608E-02  0.1018893E+00
         21   -1    0    0  501  502  0.00000000000E+00  0.00000000000E+00  0.11463971928E+04  0.11463971928E+04  0.00000000000E+00 0.  1.
         21   -1    0    0  502  503 -0.00000000000E+00 -0.00000000000E+00 -0.33454770110E+03  0.33454770110E+03  0.00000000000E+00 0.  1.
    9000005    1    1    2  501    0  0.24595506284E+03  0.10370051891E+03  0.87250813152E+03  0.99625204147E+03  0.40000000000E+03 0.  1.
   -9000005    1    1    2    0  503 -0.24595506284E+03 -0.10370051891E+03 -0.60658639866E+02  0.48469285238E+03  0.40000000000E+03 0.  1.
<mgrwt>
<rscale>  2 0.48088220E+03</rscale>
<asrwt>0</asrwt>
<pdfrwt beam="1">  1       21 0.17636880E+00 0.48088220E+03</pdfrwt>
<pdfrwt beam="2">  1       21 0.51468878E-01 0.48088220E+03</pdfrwt>
<totfact> 0.56600879E+02</totfact>
</mgrwt>
</event>
<event>
 4    1  0.8722554E-003  0.4384339E+03  0.7818608E-02  0.1031228E+00
         21   -1    0    0  503  502  0.00000000000E+00  0.00000000000E+00  0.47161829305E+03  0.47161829305E+03  0.00000000000E+00 0.  1.
         21   -1    0    0  501  503 -0.00000000000E+00 -0.00000000000E+00 -0.47881834607E+03  0.47881834607E+03  0.00000000000E+00 0.  1.
    9000005    1    1    2  501    0 -0.13345359569E+03  0.12005992344E+03  0.17969528638E+03  0.47382976201E+03  0.40000000000E+03 0.  1.
   -9000005    1    1    2    0  502  0.13345359569E+03 -0.12005992344E+03 -0.18689533940E+03  0.47660687711E+03  0.40000000000E+03 0.  1.
<mgrwt>
<rscale>  2 0.43843386E+03</rscale>
<asrwt>0</asrwt>
<pdfrwt beam="1">  1       21 0.72556660E-01 0.43843386E+03</pdfrwt>
<pdfrwt beam="2">  1       21 0.73664361E-01 0.43843386E+03</pdfrwt>
<totfact> 0.24669627E+03</totfact>
</mgrwt>
</event>
<event>
 4    1  0.8722554E-003  0.7013102E+03  0.7818608E-02  0.9714994E-01
         21   -1    0    0  501  502  0.00000000000E+00  0.00000000000E+00  0.42083716254E+03  0.42083716254E+03  0.00000000000E+00 0.  1.
         21   -1    0    0  502  503 -0.00000000000E+00 -0.00000000000E+00 -0.11700304040E+04  0.11700304040E+04  0.00000000000E+00 0. -1.
    9000005    1    1    2  501    0  0.28400788185E+03 -0.50117408027E+03 -0.34785926783E+03  0.78284226119E+03  0.40000000000E+03 0.  1.
   -9000005    1    1    2    0  503 -0.28400788185E+03  0.50117408027E+03 -0.40133397362E+03  0.80802530534E+03  0.40000000000E+03 0. -1.
<mgrwt>
<rscale>  2 0.70131016E+03</rscale>
<asrwt>0</asrwt>
<pdfrwt beam="1">  1       21 0.64744180E-01 0.70131016E+03</pdfrwt>
<pdfrwt beam="2">  1       21 0.18000467E+00 0.70131016E+03</pdfrwt>
<totfact> 0.29748203E+02</totfact>
</mgrwt>
</event>
<event>
 4    1  0.8722554E-003  0.4001387E+03  0.7818608E-02  0.1043732E+00
         21   -1    0    0  503  502  0.00000000000E+00  0.00000000000E+00  0.26152123122E+04  0.26152123122E+04  0.00000000000E+00 0.  1.
         21   -1    0    0  501  503 -0.00000000000E+00 -0.00000000000E+00 -0.73907318846E+02  0.73907318846E+02  0.00000000000E+00 0.  1.
    9000005    1    1    2  501    0 -0.85732327539E+01 -0.61201937302E+01  0.71363197151E+03  0.81815741019E+03  0.40000000000E+03 0.  1.
   -9000005    1    1    2    0  502  0.85732327539E+01  0.61201937302E+01  0.18276730219E+04  0.18709622209E+04  0.40000000000E+03 0.  1.
<mgrwt>
<rscale>  2 0.40013867E+03</rscale>
<asrwt>0</asrwt>
<pdfrwt beam="1">  1       21 0.40234029E+00 0.40013867E+03</pdfrwt>
<pdfrwt beam="2">  1       21 0.11370359E-01 0.40013867E+03</pdfrwt>
<totfact> 0.43531671E+02</totfact>
</mgrwt>
</event>
<event>
 4    1  0.8722554E-003  0.4031542E+03  0.7818608E-02  0.1042693E+00
         21   -1    0    0  501  502  0.00000000000E+00  0.00000000000E+00  0.19867222053E+04  0.19867222053E+04  0.00000000000E+00 0. -1.
         21   -1    0    0  502  503 -0.00000000000E+00 -0.00000000000E+00 -0.89981426318E+02  0.89981426318E+02  0.00000000000E+00 0. -1.
    9000005    1    1    2  501    0 -0.45624090372E+02 -0.21255076948E+02  0.63545820253E+03  0.75255595346E+03  0.40000000000E+03 0.  1.
   -9000005    1    1    2    0  503  0.45624090372E+02  0.21255076948E+02  0.12612825764E+04  0.13241476781E+04  0.40000000000E+03 0.  1.
<mgrwt>
<rscale>  2 0.40315423E+03</rscale>
<asrwt>0</asrwt>
<pdfrwt beam="1">  1       21 0.30564954E+00 0.40315423E+03</pdfrwt>
<pdfrwt beam="2">  1       21 0.13843298E-01 0.40315423E+03</pdfrwt>
<totfact> 0.11928104E+03</totfact>
</mgrwt>
</event>
<event>
 4    1  0.8722554E-003  0.4411336E+03  0.7818608E-02  0.1030400E+00
         21   -1    0    0  503  502  0.00000000000E+00  0.00000000000E+00  0.10282979021E+04  0.10282979021E+04  0.00000000000E+00 0.  1.
         21   -1    0    0  501  503 -0.00000000000E+00 -0.00000000000E+00 -0.19455657770E+03  0.19455657770E+03  0.00000000000E+00 0.  1.
    9000005    1    1    2  501    0  0.11448492167E+03 -0.14660170236E+03  0.31583179854E+03  0.54253901371E+03  0.40000000000E+03 0.  1.
   -9000005    1    1    2    0  502 -0.11448492167E+03  0.14660170236E+03  0.51790952582E+03  0.68031546606E+03  0.40000000000E+03 0.  1.
<mgrwt>
<rscale>  2 0.44113360E+03</rscale>
<asrwt>0</asrwt>
<pdfrwt beam="1">  1       21 0.15819967E+00 0.44113360E+03</pdfrwt>
<pdfrwt beam="2">  1       21 0.29931782E-01 0.44113360E+03</pdfrwt>
<totfact> 0.23900388E+03</totfact>
</mgrwt>
</event>
<event>
 4    1  0.8722554E-003  0.4251317E+03  0.7818608E-02  0.1035409E+00
         21   -1    0    0  503  502  0.00000000000E+00  0.00000000000E+00  0.34283297821E+03  0.34283297821E+03  0.00000000000E+00 0. -1.
         21   -1    0    0  501  503 -0.00000000000E+00 -0.00000000000E+00 -0.60524799461E+03  0.60524799461E+03  0.00000000000E+00 0. -1.
    9000005    1    1    2  501    0  0.74448023978E+02  0.12326564794E+03 -0.30144966100E+03  0.52116103687E+03  0.40000000000E+03 0. -1.
   -9000005    1    1    2    0  502 -0.74448023978E+02 -0.12326564794E+03  0.39034644600E+02  0.42691993595E+03  0.40000000000E+03 0. -1.
<mgrwt>
<rscale>  2 0.42513166E+03</rscale>
<asrwt>0</asrwt>
<pdfrwt beam="1">  1       21 0.52743535E-01 0.42513166E+03</pdfrwt>
<pdfrwt beam="2">  1       21 0.93115076E-01 0.42513166E+03</pdfrwt>
<totfact> 0.29016612E+03</totfact>
</mgrwt>
</event>
<event>
 4    1  0.8722554E-003  0.4385241E+03  0.7818608E-02  0.1031201E+00
         21   -1    0    0  501  502  0.00000000000E+00  0.00000000000E+00  0.96216937223E+02  0.96216937223E+02  0.00000000000E+00 0.  1.
         21   -1    0    0  502  503 -0.00000000000E+00 -0.00000000000E+00 -0.20840856997E+04  0.20840856997E+04  0.00000000000E+00 0. -1.
    9000005    1    1    2  501    0  0.16185201979E+03 -0.78149532095E+02 -0.77320336028E+03  0.88890205424E+03  0.40000000000E+03 0.  1.
   -9000005    1    1    2    0  503 -0.16185201979E+03  0.78149532095E+02 -0.12146654022E+04  0.12914005827E+04  0.40000000000E+03 0.  1.
<mgrwt>
<rscale>  2 0.43852414E+03</rscale>
<asrwt>0</asrwt>
<pdfrwt beam="1">  1       21 0.14802604E-01 0.43852414E+03</pdfrwt>
<pdfrwt beam="2">  1       21 0.32062861E+00 0.43852414E+03</pdfrwt>
<totfact> 0.83926866E+02</totfact>
</mgrwt>
</event>
<event>
 4    1  0.8722554E-003  0.4250582E+03  0.7818608E-02  0.1035433E+00
         21   -1    0    0  503  502  0.00000000000E+00  0.00000000000E+00  0.76081844131E+03  0.76081844131E+03  0.00000000000E+00 0. -1.
         21   -1    0    0  501  503 -0.00000000000E+00 -0.00000000000E+00 -0.27853545266E+03  0.27853545266E+03  0.00000000000E+00 0. -1.
    9000005    1    1    2  501    0 -0.13798600565E+03  0.40427040423E+02  0.41610132493E+02  0.42709002152E+03  0.40000000000E+03 0. -1.
   -9000005    1    1    2    0  502  0.13798600565E+03 -0.40427040423E+02  0.44067285616E+03  0.61226387246E+03  0.40000000000E+03 0. -1.
<mgrwt>
<rscale>  2 0.42505821E+03</rscale>
<asrwt>0</asrwt>
<pdfrwt beam="1">  1       21 0.11704899E+00 0.42505821E+03</pdfrwt>
<pdfrwt beam="2">  1       21 0.42851608E-01 0.42505821E+03</pdfrwt>
<totfact> 0.25682136E+03</totfact>
</mgrwt>
</event>
<event>
 4    1  0.8722554E-003  0.4950174E+03  0.7818608E-02  0.1015088E+00
         21   -1    0    0  503  502  0.00000000000E+00  0.00000000000E+00  0.96973370740E+03  0.96973370740E+03  0.00000000000E+00 0. -1.
         21   -1    0    0  501  503 -0.00000000000E+00 -0.00000000000E+00 -0.27028075628E+03  0.27028075628E+03  0.00000000000E+00 0.  1.
    9000005    1    1    2  501    0 -0.12503766349E+03 -0.26345368594E+03  0.50789798090E+03  0.70922677680E+03  0.40000000000E+03 0. -1.
   -9000005    1    1    2    0  502  0.12503766349E+03  0.26345368594E+03  0.19155497022E+03  0.53078768688E+03  0.40000000000E+03 0. -1.
<mgrwt>
<rscale>  2 0.49501744E+03</rscale>
<asrwt>0</asrwt>
<pdfrwt beam="1">  1       21 0.14918980E+00 0.49501744E+03</pdfrwt>
<pdfrwt beam="2">  1       21 0.41581655E-01 0.49501744E+03</pdfrwt>
<totfact> 0.14111623E+03</totfact>
</mgrwt>
</event>
<event>
 4    1  0.8722554E-003  0.6186249E+03  0.7818608E-02  0.9867501E-01
         21   -1    0    0  501  502  0.00000000000E+00  0.00000000000E+00  0.35108644089E+03  0.35108644089E+03  0.00000000000E+00 0.  1.
         21   -1    0    0  502  503 -0.00000000000E+00 -0.00000000000E+00 -0.10900703390E+04  0.10900703390E+04  0.00000000000E+00 0. -1.
    9000005    1    1    2  501    0 -0.25176715731E+03 -0.39913658596E+03 -0.37356035928E+03  0.72266455412E+03  0.40000000000E+03 0. -1.
   -9000005    1    1    2    0  503  0.25176715731E+03  0.39913658596E+03 -0.36542353880E+03  0.71849222575E+03  0.40000000000E+03 0. -1.
<mgrwt>
<rscale>  2 0.61862486E+03</rscale>
<asrwt>0</asrwt>
<pdfrwt beam="1">  1       21 0.54013300E-01 0.61862486E+03</pdfrwt>
<pdfrwt beam="2">  1       21 0.16770313E+00 0.61862486E+03</pdfrwt>
<totfact> 0.55990265E+02</totfact>
</mgrwt>
</event>
<event>
 4    1  0.8722554E-003  0.4152510E+03  0.7818608E-02  0.1038623E+00
         21   -1    0    0  501  502  0.00000000000E+00  0.00000000000E+00  0.65557025741E+03  0.65557025741E+03  0.00000000000E+00 0.  1.
         21   -1    0    0  502  503 -0.00000000000E+00 -0.00000000000E+00 -0.26308025670E+03  0.26308025670E+03  0.00000000000E+00 0.  1.
    9000005    1    1    2  501    0  0.13564662219E+02  0.11067712778E+03  0.20270982638E+03  0.46208732983E+03  0.40000000000E+03 0.  1.
   -9000005    1    1    2    0  503 -0.13564662219E+02 -0.11067712778E+03  0.18978017433E+03  0.45656318428E+03  0.40000000000E+03 0.  1.
<mgrwt>
<rscale>  2 0.41525104E+03</rscale>
<asrwt>0</asrwt>
<pdfrwt beam="1">  1       21 0.10085696E+00 0.41525104E+03</pdfrwt>
<pdfrwt beam="2">  1       21 0.40473886E-01 0.41525104E+03</pdfrwt>
<totfact> 0.41912251E+03</totfact>
</mgrwt>
</event>
<event>
 4    1  0.8722554E-003  0.8381851E+03  0.7818608E-02  0.9506333E-01
         21   -1    0    0  501  502  0.00000000000E+00  0.00000000000E+00  0.16114775469E+04  0.16114775469E+04  0.00000000000E+00 0. -1.
         21   -1    0    0  502  503 -0.00000000000E+00 -0.00000000000E+00 -0.43944703161E+03  0.43944703161E+03  0.00000000000E+00 0. -1.
    9000005    1    1    2  501    0  0.71829811032E+03 -0.16310129779E+03  0.67724468972E+03  0.10775966678E+04  0.40000000000E+03 0. -1.
   -9000005    1    1    2    0  503 -0.71829811032E+03  0.16310129779E+03  0.49478582556E+03  0.97332791073E+03  0.40000000000E+03 0. -1.
<mgrwt>
<rscale>  2 0.83818507E+03</rscale>
<asrwt>0</asrwt>
<pdfrwt beam="1">  1       21 0.24791962E+00 0.83818507E+03</pdfrwt>
<pdfrwt beam="2">  1       21 0.67607236E-01 0.83818507E+03</pdfrwt>
<totfact> 0.91358834E+01</totfact>
</mgrwt>
</event>
<event>
 4    1  0.8722554E-003  0.4898705E+03  0.7818608E-02  0.1016457E+00
         21   -1    0    0  503  502  0.00000000000E+00  0.00000000000E+00  0.87336655535E+03  0.87336655535E+03  0.00000000000E+00 0.  1.
         21   -1    0    0  501  503 -0.00000000000E+00 -0.00000000000E+00 -0.27525382895E+03  0.27525382895E+03  0.00000000000E+00 0.  1.
    9000005    1    1    2  501    0  0.13638306141E+03  0.24773532267E+03  0.32318585739E+03  0.58687496791E+03  0.40000000000E+03 0.  1.
   -9000005    1    1    2    0  502 -0.13638306141E+03 -0.24773532267E+03  0.27492686901E+03  0.56174541640E+03  0.40000000000E+03 0.  1.
<mgrwt>
<rscale>  2 0.48987052E+03</rscale>
<asrwt>0</asrwt>
<pdfrwt beam="1">  1       21 0.13436408E+00 0.48987052E+03</pdfrwt>
<pdfrwt beam="2">  1       21 0.42346743E-01 0.48987052E+03</pdfrwt>
<totfact> 0.18012556E+03</totfact>
</mgrwt>
</event>
<event>
 4    1  0.8722554E-003  0.4487202E+03  0.7818608E-02  0.1028104E+00
         21   -1    0    0  503  502  0.00000000000E+00  0.00000000000E+00  0.69840937467E+03  0.69840937467E+03  0.00000000000E+00 0. -1.
         21   -1    0    0  501  503 -0.00000000000E+00 -0.00000000000E+00 -0.32103251426E+03  0.32103251426E+03  0.00000000000E+00 0. -1.
    9000005    1    1    2  501    0  0.92632086560E+02  0.18102234475E+03  0.25922638884E+02  0.44946832588E+03  0.40000000000E+03 0.  1.
   -9000005    1    1    2    0  502 -0.92632086560E+02 -0.18102234475E+03  0.35145422152E+03  0.56997356306E+03  0.40000000000E+03 0.  1.
<mgrwt>
<rscale>  2 0.44872017E+03</rscale>
<asrwt>0</asrwt>
<pdfrwt beam="1">  1       21 0.10744760E+00 0.44872017E+03</pdfrwt>
<pdfrwt beam="2">  1       21 0.49389618E-01 0.44872017E+03</pdfrwt>
<totfact> 0.23370466E+03</totfact>
</mgrwt>
</event>
<event>
 4    1  0.8722554E-003  0.5200791E+03  0.7818608E-02  0.1008667E+00
         21   -1    0    0  501  502  0.00000000000E+00  0.00000000000E+00  0.59883332768E+03  0.59883332768E+03  0.00000000000E+00 0.  1.
         21   -1    0    0  502  503 -0.00000000000E+00 -0.00000000000E+00 -0.49740699574E+03  0.49740699574E+03  0.00000000000E+00 0.  1.
    9000005    1    1    2  501    0  0.28329378100E+03  0.17385875149E+03 -0.11547369917E+03  0.53274422289E+03  0.40000000000E+03 0.  1.
   -9000005    1    1    2    0  503 -0.28329378100E+03 -0.17385875149E+03  0.21690003111E+03  0.56349610054E+03  0.40000000000E+03 0.  1.
<mgrwt>
<rscale>  2 0.52007906E+03</rscale>
<asrwt>0</asrwt>
<pdfrwt beam="1">  1       21 0.92128204E-01 0.52007906E+03</pdfrwt>
<pdfrwt beam="2">  1       21 0.76524153E-01 0.52007906E+03</pdfrwt>
<totfact> 0.12604799E+03</totfact>
</mgrwt>
</event>
<event>
 4    1  0.8722554E-003  0.5598528E+03  0.7818608E-02  0.9992388E-01
         21   -1    0    0  501  502  0.00000000000E+00  0.00000000000E+00  0.10618486847E+04  0.10618486847E+04  0.00000000000E+00 0.  1.
         21   -1    0    0  502  503 -0.00000000000E+00 -0.00000000000E+00 -0.31495322501E+03  0.31495322501E+03  0.00000000000E+00 0. -1.
    9000005    1    1    2  501    0  0.38671704008E+03  0.62330398749E+02  0.54594058844E+03  0.78197587802E+03  0.40000000000E+03 0.  1.
   -9000005    1    1    2    0  503 -0.38671704008E+03 -0.62330398749E+02  0.20095487124E+03  0.59482603169E+03  0.40000000000E+03 0. -1.
<mgrwt>
<rscale>  2 0.55985279E+03</rscale>
<asrwt>0</asrwt>
<pdfrwt beam="1">  1       21 0.16336133E+00 0.55985279E+03</pdfrwt>
<pdfrwt beam="2">  1       21 0.48454343E-01 0.55985279E+03</pdfrwt>
<totfact> 0.77721359E+02</totfact>
</mgrwt>
</event>
<event>
 4    1  0.8722554E-003  0.4332943E+03  0.7818608E-02  0.1032824E+00
         21   -1    0    0  503  502  0.00000000000E+00  0.00000000000E+00  0.78213938667E+03  0.78213938667E+03  0.00000000000E+00 0.  1.
         21   -1    0    0  501  503 -0.00000000000E+00 -0.00000000000E+00 -0.47840308544E+03  0.47840308544E+03  0.00000000000E+00 0.  1.
    9000005    1    1    2  501    0 -0.50873110087E+02 -0.15860603775E+03 -0.29302008403E+03  0.52307238331E+03  0.40000000000E+03 0.  1.
   -9000005    1    1    2    0  502  0.50873110087E+02  0.15860603775E+03  0.59675638525E+03  0.73747008881E+03  0.40000000000E+03 0.  1.
<mgrwt>
<rscale>  2 0.43329430E+03</rscale>
<asrwt>0</asrwt>
<pdfrwt beam="1">  1       21 0.12032914E+00 0.43329430E+03</pdfrwt>
<pdfrwt beam="2">  1       21 0.73600475E-01 0.43329430E+03</pdfrwt>
<totfact> 0.73876480E+02</totfact>
</mgrwt>
</event>
<event>
 4    1  0.8722554E-003  0.4662868E+03  0.7818608E-02  0.1022974E+00
         21   -1    0    0  501  502  0.00000000000E+00  0.00000000000E+00  0.23638159711E+03  0.23638159711E+03  0.00000000000E+00 0.  1.
         21   -1    0    0  502  503 -0.00000000000E+00 -0.00000000000E+00 -0.92009174711E+03  0.92009174711E+03  0.00000000000E+00 0. -1.
    9000005    1    1    2  501    0  0.99631966691E+02 -0.21793766453E+03 -0.35218435485E+03  0.58434337013E+03  0.40000000000E+03 0. -1.
   -9000005    1    1    2    0  503 -0.99631966691E+02  0.21793766453E+03 -0.33152579514E+03  0.57212997409E+03  0.40000000000E+03 0.  1.
<mgrwt>
<rscale>  2 0.46628677E+03</rscale>
<asrwt>0</asrwt>
<pdfrwt beam="1">  1       21 0.36366400E-01 0.46628677E+03</pdfrwt>
<pdfrwt beam="2">  1       21 0.14155257E+00 0.46628677E+03</pdfrwt>
<totfact> 0.21647939E+03</totfact>
</mgrwt>
</event>
<event>
 4    1  0.8722554E-003  0.4877587E+03  0.7818608E-02  0.1017024E+00
         21   -1    0    0  501  502  0.00000000000E+00  0.00000000000E+00  0.46257479999E+03  0.46257479999E+03  0.00000000000E+00 0. -1.
         21   -1    0    0  502  503 -0.00000000000E+00 -0.00000000000E+00 -0.52242496989E+03  0.52242496989E+03  0.00000000000E+00 0. -1.
    9000005    1    1    2  501    0  0.16891850359E+03  0.22220515811E+03  0.31442142014E+02  0.48877111355E+03  0.40000000000E+03 0. -1.
   -9000005    1    1    2    0  503 -0.16891850359E+03 -0.22220515811E+03 -0.91292311907E+02  0.49622865633E+03  0.40000000000E+03 0. -1.
<mgrwt>
<rscale>  2 0.48775874E+03</rscale>
<asrwt>0</asrwt>
<pdfrwt beam="1">  1       21 0.71165354E-01 0.48775874E+03</pdfrwt>
<pdfrwt beam="2">  1       21 0.80373072E-01 0.48775874E+03</pdfrwt>
<totfact> 0.20733558E+03</totfact>
</mgrwt>
</event>
<event>
 4    1  0.8722554E-003  0.4381759E+03  0.7818608E-02  0.1031308E+00
         21   -1    0    0  503  502  0.00000000000E+00  0.00000000000E+00  0.33941704880E+03  0.33941704880E+03  0.00000000000E+00 0. -1.
         21   -1    0    0  501  503 -0.00000000000E+00 -0.00000000000E+00 -0.84287830424E+03  0.84287830424E+03  0.00000000000E+00 0. -1.
    9000005    1    1    2  501    0  0.17886111918E+03  0.26044296862E+01 -0.59074379986E+03  0.73551092452E+03  0.40000000000E+03 0. -1.
   -9000005    1    1    2    0  502 -0.17886111918E+03 -0.26044296862E+01  0.87282544426E+02  0.44678442852E+03  0.40000000000E+03 0. -1.
<mgrwt>
<rscale>  2 0.43817586E+03</rscale>
<asrwt>0</asrwt>
<pdfrwt beam="1">  1       21 0.52218007E-01 0.43817586E+03</pdfrwt>
<pdfrwt beam="2">  1       21 0.12967359E+00 0.43817586E+03</pdfrwt>
<totfact> 0.12958770E+03</totfact>
</mgrwt>
</event>
<event>
 4    1  0.8722554E-003  0.4997621E+03  0.7818608E-02  0.1013841E+00
         21   -1    0    0  503  502  0.00000000000E+00  0.00000000000E+00  0.67365828772E+03  0.67365828772E+03  0.00000000000E+00 0. -1.
         21   -1    0    0  501  503 -0.00000000000E+00 -0.00000000000E+00 -0.39881977130E+03  0.39881977130E+03  0.00000000000E+00 0. -1.
    9000005    1    1    2  501    0 -0.85404896621E+01  0.29948152962E+03 -0.48304651157E+01  0.49978541389E+03  0.40000000000E+03 0. -1.
   -9000005    1    1    2    0  502  0.85404896621E+01 -0.29948152962E+03  0.27966898154E+03  0.57269264512E+03  0.40000000000E+03 0. -1.
<mgrwt>
<rscale>  2 0.49976207E+03</rscale>
<asrwt>0</asrwt>
<pdfrwt beam="1">  1       21 0.10363974E+00 0.49976207E+03</pdfrwt>
<pdfrwt beam="2">  1       21 0.61356888E-01 0.49976207E+03</pdfrwt>
<totfact> 0.15685563E+03</totfact>
</mgrwt>
</event>
<event>
 4    1  0.8722554E-003  0.5537937E+03  0.7818608E-02  0.1000620E+00
         21   -1    0    0  503  502  0.00000000000E+00  0.00000000000E+00  0.31451628214E+03  0.31451628214E+03  0.00000000000E+00 0. -1.
         21   -1    0    0  501  503 -0.00000000000E+00 -0.00000000000E+00 -0.97931009355E+03  0.97931009355E+03  0.00000000000E+00 0. -1.
    9000005    1    1    2  501    0 -0.16188495739E+01  0.38299458341E+03 -0.37477072326E+03  0.66868570092E+03  0.40000000000E+03 0. -1.
   -9000005    1    1    2    0  502  0.16188495739E+01 -0.38299458341E+03 -0.29002308815E+03  0.62514067477E+03  0.40000000000E+03 0. -1.
<mgrwt>
<rscale>  2 0.55379371E+03</rscale>
<asrwt>0</asrwt>
<pdfrwt beam="1">  1       21 0.48387121E-01 0.55379371E+03</pdfrwt>
<pdfrwt beam="2">  1       21 0.15066309E+00 0.55379371E+03</pdfrwt>
<totfact> 0.97852857E+02</totfact>
</mgrwt>
</event>
<event>
 4    1  0.8722554E-003  0.6768087E+03  0.7818608E-02  0.9757735E-01
         21   -1    0    0  501  502  0.00000000000E+00  0.00000000000E+00  0.99761013088E+03  0.99761013088E+03  0.00000000000E+00 0. -1.
         21   -1    0    0  502  503 -0.00000000000E+00 -0.00000000000E+00 -0.50071782935E+03  0.50071782935E+03  0.00000000000E+00 0.  1.
    9000005    1    1    2  501    0 -0.52126047990E+03  0.16235001584E+03  0.46425452785E+03  0.82073277148E+03  0.40000000000E+03 0. -1.
   -9000005    1    1    2    0  503  0.52126047990E+03 -0.16235001584E+03  0.32637773679E+02  0.67759518875E+03  0.40000000000E+03 0.  1.
<mgrwt>
<rscale>  2 0.67680870E+03</rscale>
<asrwt>0</asrwt>
<pdfrwt beam="1">  1       21 0.15347848E+00 0.67680870E+03</pdfrwt>
<pdfrwt beam="2">  1       21 0.77033513E-01 0.67680870E+03</pdfrwt>
<totfact> 0.31885572E+02</totfact>
</mgrwt>
</event>
<event>
 4    1  0.8722554E-003  0.4749719E+03  0.7818608E-02  0.1020526E+00
         21   -1    0    0  501  502  0.00000000000E+00  0.00000000000E+00  0.11426237363E+04  0.11426237363E+04  0.00000000000E+00 0. -1.
         21   -1    0    0  502  503 -0.00000000000E+00 -0.00000000000E+00 -0.20525672042E+03  0.20525672042E+03  0.00000000000E+00 0. -1.
    9000005    1    1    2  501    0  0.18061137268E+03 -0.18159794649E+03  0.60021136880E+03  0.76540967420E+03  0.40000000000E+03 0. -1.
   -9000005    1    1    2    0  503 -0.18061137268E+03  0.18159794649E+03  0.33715564705E+03  0.58247078249E+03  0.40000000000E+03 0. -1.
<mgrwt>
<rscale>  2 0.47497188E+03</rscale>
<asrwt>0</asrwt>
<pdfrwt beam="1">  1       21 0.17578826E+00 0.47497188E+03</pdfrwt>
<pdfrwt beam="2">  1       21 0.31577958E-01 0.47497188E+03</pdfrwt>
<totfact> 0.15723266E+03</totfact>
</mgrwt>
</event>
<event>
 4    1  0.8722554E-003  0.4002151E+03  0.7818608E-02  0.1043705E+00
         21   -1    0    0  501  502  0.00000000000E+00  0.00000000000E+00  0.12880887945E+03  0.12880887945E+03  0.00000000000E+00 0. -1.
         21   -1    0    0  502  503 -0.00000000000E+00 -0.00000000000E+00 -0.12548878362E+04  0.12548878362E+04  0.00000000000E+00 0. -1.
    9000005    1    1    2  501    0  0.79626856238E+01  0.10425893836E+02 -0.49709382196E+03  0.63818051636E+03  0.40000000000E+03 0.  1.
   -9000005    1    1    2    0  503 -0.79626856238E+01 -0.10425893836E+02 -0.62898513475E+03  0.74551619926E+03  0.40000000000E+03 0.  1.
<mgrwt>
<rscale>  2 0.40021507E+03</rscale>
<asrwt>0</asrwt>
<pdfrwt beam="1">  1       21 0.19816750E-01 0.40021507E+03</pdfrwt>
<pdfrwt beam="2">  1       21 0.19305967E+00 0.40021507E+03</pdfrwt>
<totfact> 0.30495963E+03</totfact>
</mgrwt>
</event>
<event>
 4    1  0.8722554E-003  0.4110919E+03  0.7818608E-02  0.1040005E+00
         21   -1    0    0  501  502  0.00000000000E+00  0.00000000000E+00  0.21460305793E+03  0.21460305793E+03  0.00000000000E+00 0.  1.
         21   -1    0    0  502  503 -0.00000000000E+00 -0.00000000000E+00 -0.97093001334E+03  0.97093001334E+03  0.00000000000E+00 0.  1.
    9000005    1    1    2  501    0  0.70154911273E+02  0.63834709118E+02 -0.12050569659E+03  0.42839024799E+03  0.40000000000E+03 0.  1.
   -9000005    1    1    2    0  503 -0.70154911273E+02 -0.63834709118E+02 -0.63582125882E+03  0.75714282327E+03  0.40000000000E+03 0.  1.
<mgrwt>
<rscale>  2 0.41109194E+03</rscale>
<asrwt>0</asrwt>
<pdfrwt beam="1">  1       21 0.33015855E-01 0.41109194E+03</pdfrwt>
<pdfrwt beam="2">  1       21 0.14937385E+00 0.41109194E+03</pdfrwt>
<totfact> 0.23279547E+03</totfact>
</mgrwt>
</event>
<event>
 4    1  0.8722554E-003  0.5469071E+03  0.7818608E-02  0.1002212E+00
         21   -1    0    0  503  502  0.00000000000E+00  0.00000000000E+00  0.39039932898E+03  0.39039932898E+03  0.00000000000E+00 0. -1.
         21   -1    0    0  501  503 -0.00000000000E+00 -0.00000000000E+00 -0.80693301966E+03  0.80693301966E+03  0.00000000000E+00 0.  1.
    9000005    1    1    2  501    0  0.34258391119E+03  0.14745713799E+03 -0.34284238817E+03  0.64548295630E+03  0.40000000000E+03 0.  1.
   -9000005    1    1    2    0  502 -0.34258391119E+03 -0.14745713799E+03 -0.73691302508E+02  0.55184939233E+03  0.40000000000E+03 0. -1.
<mgrwt>
<rscale>  2 0.54690707E+03</rscale>
<asrwt>0</asrwt>
<pdfrwt beam="1">  1       21 0.60061436E-01 0.54690707E+03</pdfrwt>
<pdfrwt beam="2">  1       21 0.12414354E+00 0.54690707E+03</pdfrwt>
<totfact> 0.10277858E+03</totfact>
</mgrwt>
</event>
<event>
 4    1  0.8722554E-003  0.4438592E+03  0.7818608E-02  0.1029569E+00
         21   -1    0    0  503  502  0.00000000000E+00  0.00000000000E+00  0.21845252327E+03  0.21845252327E+03  0.00000000000E+00 0. -1.
         21   -1    0    0  501  503 -0.00000000000E+00 -0.00000000000E+00 -0.10764593955E+04  0.10764593955E+04  0.00000000000E+00 0.  1.
    9000005    1    1    2  501    0 -0.94747574608E+02 -0.16743320331E+03 -0.68976744260E+03  0.82023783462E+03  0.40000000000E+03 0.  1.
   -9000005    1    1    2    0  502  0.94747574608E+02  0.16743320331E+03 -0.16823942960E+03  0.47467408412E+03  0.40000000000E+03 0. -1.
<mgrwt>
<rscale>  2 0.44385919E+03</rscale>
<asrwt>0</asrwt>
<pdfrwt beam="1">  1       21 0.33608080E-01 0.44385919E+03</pdfrwt>
<pdfrwt beam="2">  1       21 0.16560914E+00 0.44385919E+03</pdfrwt>
<totfact> 0.16662956E+03</totfact>
</mgrwt>
</event>
<event>
 4    1  0.8722554E-003  0.4543291E+03  0.7818608E-02  0.1026439E+00
         21   -1    0    0  501  502  0.00000000000E+00  0.00000000000E+00  0.72103169837E+03  0.72103169837E+03  0.00000000000E+00 0. -1.
         21   -1    0    0  502  503 -0.00000000000E+00 -0.00000000000E+00 -0.28898017421E+03  0.28898017421E+03  0.00000000000E+00 0.  1.
    9000005    1    1    2  501    0  0.10389628628E+03 -0.18873399203E+03  0.26486635437E+03  0.52589841578E+03  0.40000000000E+03 0. -1.
   -9000005    1    1    2    0  503 -0.10389628628E+03  0.18873399203E+03  0.16718516980E+03  0.48411345679E+03  0.40000000000E+03 0. -1.
<mgrwt>
<rscale>  2 0.45432913E+03</rscale>
<asrwt>0</asrwt>
<pdfrwt beam="1">  1       21 0.11092795E+00 0.45432913E+03</pdfrwt>
<pdfrwt beam="2">  1       21 0.44458489E-01 0.45432913E+03</pdfrwt>
<totfact> 0.26897915E+03</totfact>
</mgrwt>
</event>
<event>
 4    1  0.8722554E-003  0.4988842E+03  0.7818608E-02  0.1014071E+00
         21   -1    0    0  501  502  0.00000000000E+00  0.00000000000E+00  0.46561535106E+03  0.46561535106E+03  0.00000000000E+00 0. -1.
         21   -1    0    0  502  503 -0.00000000000E+00 -0.00000000000E+00 -0.55077904419E+03  0.55077904419E+03  0.00000000000E+00 0. -1.
    9000005    1    1    2  501    0 -0.94983045540E+02  0.28260153513E+03 -0.12987024491E+03  0.51551109310E+03  0.40000000000E+03 0. -1.
   -9000005    1    1    2    0  503  0.94983045540E+02 -0.28260153513E+03  0.44706551785E+02  0.50088330215E+03  0.40000000000E+03 0. -1.
<mgrwt>
<rscale>  2 0.49888416E+03</rscale>
<asrwt>0</asrwt>
<pdfrwt beam="1">  1       21 0.71633131E-01 0.49888416E+03</pdfrwt>
<pdfrwt beam="2">  1       21 0.84735237E-01 0.49888416E+03</pdfrwt>
<totfact> 0.17992282E+03</totfact>
</mgrwt>
</event>
<event>
 4    1  0.8722554E-003  0.4312575E+03  0.7818608E-02  0.1033463E+00
         21   -1    0    0  503  502  0.00000000000E+00  0.00000000000E+00  0.77971986884E+03  0.77971986884E+03  0.00000000000E+00 0.  1.
         21   -1    0    0  501  503 -0.00000000000E+00 -0.00000000000E+00 -0.26051273943E+03  0.26051273943E+03  0.00000000000E+00 0.  1.
    9000005    1    1    2  501    0  0.47343557126E+02 -0.15408316491E+03  0.10850100815E+03  0.44469709115E+03  0.40000000000E+03 0.  1.
   -9000005    1    1    2    0  502 -0.47343557126E+02  0.15408316491E+03  0.41070612125E+03  0.59553551711E+03  0.40000000000E+03 0.  1.
<mgrwt>
<rscale>  2 0.43125750E+03</rscale>
<asrwt>0</asrwt>
<pdfrwt beam="1">  1       21 0.11995690E+00 0.43125750E+03</pdfrwt>
<pdfrwt beam="2">  1       21 0.40078883E-01 0.43125750E+03</pdfrwt>
<totfact> 0.27654922E+03</totfact>
</mgrwt>
</event>
<event>
 4    1  0.8722554E-003  0.4931182E+03  0.7818608E-02  0.1015591E+00
         21   -1    0    0  501  502  0.00000000000E+00  0.00000000000E+00  0.37567479349E+03  0.37567479349E+03  0.00000000000E+00 0. -1.
         21   -1    0    0  502  503 -0.00000000000E+00 -0.00000000000E+00 -0.68067860842E+03  0.68067860842E+03  0.00000000000E+00 0. -1.
    9000005    1    1    2  501    0 -0.17723170390E+03  0.22749620307E+03 -0.35500034603E+02  0.49439442931E+03  0.40000000000E+03 0. -1.
   -9000005    1    1    2    0  503  0.17723170390E+03 -0.22749620307E+03 -0.26950378033E+03  0.56195897260E+03  0.40000000000E+03 0. -1.
<mgrwt>
<rscale>  2 0.49311824E+03</rscale>
<asrwt>0</asrwt>
<pdfrwt beam="1">  1       21 0.57796122E-01 0.49311824E+03</pdfrwt>
<pdfrwt beam="2">  1       21 0.10471979E+00 0.49311824E+03</pdfrwt>
<totfact> 0.17473082E+03</totfact>
</mgrwt>
</event>
<event>
 4    1  0.8722554E-003  0.7234330E+03  0.7818608E-02  0.9677977E-01
         21   -1    0    0  503  502  0.00000000000E+00  0.00000000000E+00  0.49749451200E+03  0.49749451200E+03  0.00000000000E+00 0. -1.
         21   -1    0    0  501  503 -0.00000000000E+00 -0.00000000000E+00 -0.10524816202E+04  0.10524816202E+04  0.00000000000E+00 0. -1.
    9000005    1    1    2  501    0  0.46449898581E+03  0.38418232510E+03 -0.29437558691E+03  0.78103287569E+03  0.40000000000E+03 0. -1.
   -9000005    1    1    2    0  502 -0.46449898581E+03 -0.38418232510E+03 -0.26061152132E+03  0.76894325654E+03  0.40000000000E+03 0. -1.
<mgrwt>
<rscale>  2 0.72343304E+03</rscale>
<asrwt>0</asrwt>
<pdfrwt beam="1">  1       21 0.76537618E-01 0.72343304E+03</pdfrwt>
<pdfrwt beam="2">  1       21 0.16192025E+00 0.72343304E+03</pdfrwt>
<totfact> 0.27446251E+02</totfact>
</mgrwt>
</event>
<event>
 4    1  0.8722554E-003  0.4551774E+03  0.7818608E-02  0.1026189E+00
         21   -1    0    0  503  502  0.00000000000E+00  0.00000000000E+00  0.67776222772E+03  0.67776222772E+03  0.00000000000E+00 0.  1.
         21   -1    0    0  501  503 -0.00000000000E+00 -0.00000000000E+00 -0.31781643243E+03  0.31781643243E+03  0.00000000000E+00 0.  1.
    9000005    1    1    2  501    0 -0.54068108716E+02 -0.21038804116E+03  0.82745605908E+02  0.46263735640E+03  0.40000000000E+03 0.  1.
   -9000005    1    1    2    0  502  0.54068108716E+02  0.21038804116E+03  0.27720018939E+03  0.53294130375E+03  0.40000000000E+03 0.  1.
<mgrwt>
<rscale>  2 0.45517743E+03</rscale>
<asrwt>0</asrwt>
<pdfrwt beam="1">  1       21 0.10427111E+00 0.45517743E+03</pdfrwt>
<pdfrwt beam="2">  1       21 0.48894836E-01 0.45517743E+03</pdfrwt>
<totfact> 0.25647166E+03</totfact>
</mgrwt>
</event>
<event>
 4    1  0.8722554E-003  0.5424199E+03  0.7818608E-02  0.1003264E+00
         21   -1    0    0  503  502  0.00000000000E+00  0.00000000000E+00  0.51084703277E+03  0.51084703277E+03  0.00000000000E+00 0. -1.
         21   -1    0    0  501  503 -0.00000000000E+00 -0.00000000000E+00 -0.81622803089E+03  0.81622803089E+03  0.00000000000E+00 0.  1.
    9000005    1    1    2  501    0  0.27163036356E+03 -0.24583786280E+03 -0.51270678665E+03  0.74638298365E+03  0.40000000000E+03 0.  1.
   -9000005    1    1    2    0  502 -0.27163036356E+03  0.24583786280E+03  0.20732578853E+03  0.58069208001E+03  0.40000000000E+03 0. -1.
<mgrwt>
<rscale>  2 0.54241986E+03</rscale>
<asrwt>0</asrwt>
<pdfrwt beam="1">  1       21 0.78591852E-01 0.54241986E+03</pdfrwt>
<pdfrwt beam="2">  1       21 0.12557354E+00 0.54241986E+03</pdfrwt>
<totfact> 0.54498190E+02</totfact>
</mgrwt>
</event>
<event>
 4    1  0.8722554E-003  0.7569931E+03  0.7818608E-02  0.9624443E-01
         21   -1    0    0  501  502  0.00000000000E+00  0.00000000000E+00  0.96937077966E+03  0.96937077966E+03  0.00000000000E+00 0.  1.
         21   -1    0    0  502  503 -0.00000000000E+00 -0.00000000000E+00 -0.59956281816E+03  0.59956281816E+03  0.00000000000E+00 0.  1.
    9000005    1    1    2  501    0  0.49619577749E+02  0.64076235199E+03  0.27785671923E+03  0.80637637034E+03  0.40000000000E+03 0.  1.
   -9000005    1    1    2    0  503 -0.49619577749E+02 -0.64076235199E+03  0.91951242267E+02  0.76255722748E+03  0.40000000000E+03 0.  1.
<mgrwt>
<rscale>  2 0.75699306E+03</rscale>
<asrwt>0</asrwt>
<pdfrwt beam="1">  1       21 0.14913397E+00 0.75699306E+03</pdfrwt>
<pdfrwt beam="2">  1       21 0.92240434E-01 0.75699306E+03</pdfrwt>
<totfact> 0.22021157E+02</totfact>
</mgrwt>
</event>
<event>
 4    1  0.8722554E-003  0.4573652E+03  0.7818608E-02  0.1025548E+00
         21   -1    0    0  503  502  0.00000000000E+00  0.00000000000E+00  0.26491288448E+03  0.26491288448E+03  0.00000000000E+00 0.  1.
         21   -1    0    0  501  503 -0.00000000000E+00 -0.00000000000E+00 -0.10629543884E+04  0.10629543884E+04  0.00000000000E+00 0.  1.
    9000005    1    1    2  501    0  0.20815964634E+03  0.76501280531E+02 -0.73569304672E+03  0.86627197997E+03  0.40000000000E+03 0.  1.
   -9000005    1    1    2    0  502 -0.20815964634E+03 -0.76501280531E+02 -0.62348457158E+02  0.46159529287E+03  0.40000000000E+03 0.  1.
<mgrwt>
<rscale>  2 0.45736515E+03</rscale>
<asrwt>0</asrwt>
<pdfrwt beam="1">  1       21 0.40755829E-01 0.45736515E+03</pdfrwt>
<pdfrwt beam="2">  1       21 0.16353144E+00 0.45736515E+03</pdfrwt>
<totfact> 0.11587262E+03</totfact>
</mgrwt>
</event>
<event>
 4    1  0.8722554E-003  0.4756848E+03  0.7818608E-02  0.1020328E+00
         21   -1    0    0  503  502  0.00000000000E+00  0.00000000000E+00  0.14441361940E+04  0.14441361940E+04  0.00000000000E+00 0. -1.
         21   -1    0    0  501  503 -0.00000000000E+00 -0.00000000000E+00 -0.30966954696E+03  0.30966954696E+03  0.00000000000E+00 0. -1.
    9000005    1    1    2  501    0 -0.12834083917E+03  0.22316960994E+03 -0.49112539497E+02  0.47821343283E+03  0.40000000000E+03 0. -1.
   -9000005    1    1    2    0  502  0.12834083917E+03 -0.22316960994E+03  0.11835791866E+04  0.12755923082E+04  0.40000000000E+03 0. -1.
<mgrwt>
<rscale>  2 0.47568482E+03</rscale>
<asrwt>0</asrwt>
<pdfrwt beam="1">  1       21 0.22217480E+00 0.47568482E+03</pdfrwt>
<pdfrwt beam="2">  1       21 0.47641470E-01 0.47568482E+03</pdfrwt>
<totfact> 0.32915296E+02</totfact>
</mgrwt>
</event>
<event>
 4    1  0.8722554E-003  0.4076210E+03  0.7818608E-02  0.1041172E+00
         21   -1    0    0  503  502  0.00000000000E+00  0.00000000000E+00  0.71405565142E+03  0.71405565142E+03  0.00000000000E+00 0. -1.
         21   -1    0    0  501  503 -0.00000000000E+00 -0.00000000000E+00 -0.33873587953E+03  0.33873587953E+03  0.00000000000E+00 0. -1.
    9000005    1    1    2  501    0 -0.78369160976E+02  0.36230502362E+01 -0.10686712054E+03  0.42139700205E+03  0.40000000000E+03 0. -1.
   -9000005    1    1    2    0  502  0.78369160976E+02 -0.36230502362E+01  0.48218689243E+03  0.63139452889E+03  0.40000000000E+03 0. -1.
<mgrwt>
<rscale>  2 0.40762097E+03</rscale>
<asrwt>0</asrwt>
<pdfrwt beam="1">  1       21 0.10985472E+00 0.40762097E+03</pdfrwt>
<pdfrwt beam="2">  1       21 0.52113212E-01 0.40762097E+03</pdfrwt>
<totfact> 0.20057623E+03</totfact>
</mgrwt>
</event>
<event>
 4    1  0.8722554E-003  0.5075205E+03  0.7818608E-02  0.1011834E+00
         21   -1    0    0  503  502  0.00000000000E+00  0.00000000000E+00  0.20694729154E+03  0.20694729154E+03  0.00000000000E+00 0. -1.
         21   -1    0    0  501  503 -0.00000000000E+00 -0.00000000000E+00 -0.14038156461E+04  0.14038156461E+04  0.00000000000E+00 0.  1.
    9000005    1    1    2  501    0  0.30776207003E+03  0.53474594780E+02 -0.86962235317E+03  0.10068863199E+04  0.40000000000E+03 0.  1.
   -9000005    1    1    2    0  502 -0.30776207003E+03 -0.53474594780E+02 -0.32724600139E+03  0.60387661775E+03  0.40000000000E+03 0. -1.
<mgrwt>
<rscale>  2 0.50752047E+03</rscale>
<asrwt>0</asrwt>
<pdfrwt beam="1">  1       21 0.31838044E-01 0.50752047E+03</pdfrwt>
<pdfrwt beam="2">  1       21 0.21597164E+00 0.50752047E+03</pdfrwt>
<totfact> 0.81492082E+02</totfact>
</mgrwt>
</event>
<event>
 4    1  0.8722554E-003  0.4006731E+03  0.7818608E-02  0.1043547E+00
         21   -1    0    0  501  502  0.00000000000E+00  0.00000000000E+00  0.40905414392E+03  0.40905414392E+03  0.00000000000E+00 0.  1.
         21   -1    0    0  502  503 -0.00000000000E+00 -0.00000000000E+00 -0.47173138321E+03  0.47173138321E+03  0.00000000000E+00 0.  1.
    9000005    1    1    2  501    0 -0.21436895124E+02  0.89082542339E+01  0.14918785764E+03  0.42754638852E+03  0.40000000000E+03 0.  1.
   -9000005    1    1    2    0  503  0.21436895124E+02 -0.89082542339E+01 -0.21186509694E+03  0.45323913861E+03  0.40000000000E+03 0.  1.
<mgrwt>
<rscale>  2 0.40067306E+03</rscale>
<asrwt>0</asrwt>
<pdfrwt beam="1">  1       21 0.62931407E-01 0.40067306E+03</pdfrwt>
<pdfrwt beam="2">  1       21 0.72574059E-01 0.40067306E+03</pdfrwt>
<totfact> 0.35578453E+03</totfact>
</mgrwt>
</event>
<event>
 4    1  0.8722554E-003  0.5190192E+03  0.7818608E-02  0.1008930E+00
         21   -1    0    0  503  502  0.00000000000E+00  0.00000000000E+00  0.89201454024E+03  0.89201454024E+03  0.00000000000E+00 0.  1.
         21   -1    0    0  501  503 -0.00000000000E+00 -0.00000000000E+00 -0.33438119220E+03  0.33438119220E+03  0.00000000000E+00 0.  1.
    9000005    1    1    2  501    0  0.27282178957E+03  0.18694695180E+03  0.46966242864E+03  0.69997406276E+03  0.40000000000E+03 0.  1.
   -9000005    1    1    2    0  502 -0.27282178957E+03 -0.18694695180E+03  0.87970919400E+02  0.52642166968E+03  0.40000000000E+03 0.  1.
<mgrwt>
<rscale>  2 0.51901916E+03</rscale>
<asrwt>0</asrwt>
<pdfrwt beam="1">  1       21 0.13723301E+00 0.51901916E+03</pdfrwt>
<pdfrwt beam="2">  1       21 0.51443261E-01 0.51901916E+03</pdfrwt>
<totfact> 0.11180875E+03</totfact>
</mgrwt>
</event>
<event>
 4    1  0.8722554E-003  0.4410057E+03  0.7818608E-02  0.1030439E+00
         21   -1    0    0  503  502  0.00000000000E+00  0.00000000000E+00  0.37460481667E+03  0.37460481667E+03  0.00000000000E+00 0.  1.
         21   -1    0    0  501  503 -0.00000000000E+00 -0.00000000000E+00 -0.76587618751E+03  0.76587618751E+03  0.00000000000E+00 0.  1.
    9000005    1    1    2  501    0 -0.99083750392E+02 -0.15706197565E+03 -0.51927628100E+03  0.68127374072E+03  0.40000000000E+03 0.  1.
   -9000005    1    1    2    0  502  0.99083750392E+02  0.15706197565E+03  0.12800491017E+03  0.45920726346E+03  0.40000000000E+03 0.  1.
<mgrwt>
<rscale>  2 0.44100573E+03</rscale>
<asrwt>0</asrwt>
<pdfrwt beam="1">  1       21 0.57631511E-01 0.44100573E+03</pdfrwt>
<pdfrwt beam="2">  1       21 0.11782710E+00 0.44100573E+03</pdfrwt>
<totfact> 0.13373675E+03</totfact>
</mgrwt>
</event>
<event>
 4    1  0.8722554E-003  0.4353461E+03  0.7818608E-02  0.1032184E+00
         21   -1    0    0  503  502  0.00000000000E+00  0.00000000000E+00  0.23975792210E+04  0.23975792210E+04  0.00000000000E+00 0.  1.
         21   -1    0    0  501  503 -0.00000000000E+00 -0.00000000000E+00 -0.79102515198E+02  0.79102515198E+02  0.00000000000E+00 0.  1.
    9000005    1    1    2  501    0 -0.10943146563E+02  0.17148321938E+03  0.11914469297E+04  0.12684920312E+04  0.40000000000E+03 0.  1.
   -9000005    1    1    2    0  502  0.10943146563E+02 -0.17148321938E+03  0.11270297761E+04  0.12081897050E+04  0.40000000000E+03 0.  1.
<mgrwt>
<rscale>  2 0.43534612E+03</rscale>
<asrwt>0</asrwt>
<pdfrwt beam="1">  1       21 0.36885829E+00 0.43534612E+03</pdfrwt>
<pdfrwt beam="2">  1       21 0.12169620E-01 0.43534612E+03</pdfrwt>
<totfact> 0.61119858E+02</totfact>
</mgrwt>
</event>
<event>
 4    1  0.8722554E-003  0.4606651E+03  0.7818608E-02  0.1024588E+00
         21   -1    0    0  503  502  0.00000000000E+00  0.00000000000E+00  0.21037192262E+03  0.21037192262E+03  0.00000000000E+00 0. -1.
         21   -1    0    0  501  503 -0.00000000000E+00 -0.00000000000E+00 -0.11822449797E+04  0.11822449797E+04  0.00000000000E+00 0. -1.
    9000005    1    1    2  501    0 -0.21881539809E+03 -0.65819256657E+02 -0.75267970008E+03  0.88246194473E+03  0.40000000000E+03 0.  1.
   -9000005    1    1    2    0  502  0.21881539809E+03  0.65819256657E+02 -0.21919335699E+03  0.51015495757E+03  0.40000000000E+03 0.  1.
<mgrwt>
<rscale>  2 0.46066512E+03</rscale>
<asrwt>0</asrwt>
<pdfrwt beam="1">  1       21 0.32364912E-01 0.46066512E+03</pdfrwt>
<pdfrwt beam="2">  1       21 0.18188384E+00 0.46066512E+03</pdfrwt>
<totfact> 0.13629451E+03</totfact>
</mgrwt>
</event>
<event>
 4    1  0.8722554E-003  0.4090238E+03  0.7818608E-02  0.1040699E+00
         21   -1    0    0  503  502  0.00000000000E+00  0.00000000000E+00  0.12406727341E+04  0.12406727341E+04  0.00000000000E+00 0. -1.
         21   -1    0    0  501  503 -0.00000000000E+00 -0.00000000000E+00 -0.15436539336E+03  0.15436539336E+03  0.00000000000E+00 0.  1.
    9000005    1    1    2  501    0  0.45960461354E+02 -0.72028463469E+02  0.79118578664E+03  0.89066009933E+03  0.40000000000E+03 0. -1.
   -9000005    1    1    2    0  502 -0.45960461354E+02  0.72028463469E+02  0.29512155407E+03  0.50437802810E+03  0.40000000000E+03 0.  1.
<mgrwt>
<rscale>  2 0.40902379E+03</rscale>
<asrwt>0</asrwt>
<pdfrwt beam="1">  1       21 0.19087272E+00 0.40902379E+03</pdfrwt>
<pdfrwt beam="2">  1       21 0.23748523E-01 0.40902379E+03</pdfrwt>
<totfact> 0.22223107E+03</totfact>
</mgrwt>
</event>
<event>
 4    1  0.8722554E-003  0.4453600E+03  0.7818608E-02  0.1029115E+00
         21   -1    0    0  503  502  0.00000000000E+00  0.00000000000E+00  0.37633776221E+03  0.37633776221E+03  0.00000000000E+00 0. -1.
         21   -1    0    0  501  503 -0.00000000000E+00 -0.00000000000E+00 -0.56196816650E+03  0.56196816650E+03  0.00000000000E+00 0. -1.
    9000005    1    1    2  501    0  0.99427055681E+02 -0.16870021881E+03  0.24145262141E+02  0.44601400977E+03  0.40000000000E+03 0.  1.
   -9000005    1    1    2    0  502 -0.99427055681E+02  0.16870021881E+03 -0.20977566643E+03  0.49229191894E+03  0.40000000000E+03 0.  1.
<mgrwt>
<rscale>  2 0.44535997E+03</rscale>
<asrwt>0</asrwt>
<pdfrwt beam="1">  1       21 0.57898117E-01 0.44535997E+03</pdfrwt>
<pdfrwt beam="2">  1       21 0.86456641E-01 0.44535997E+03</pdfrwt>
<totfact> 0.28065446E+03</totfact>
</mgrwt>
</event>
<event>
 4    1  0.8722554E-003  0.4019112E+03  0.7818608E-02  0.1043120E+00
         21   -1    0    0  501  502  0.00000000000E+00  0.00000000000E+00  0.93863895204E+03  0.93863895204E+03  0.00000000000E+00 0.  1.
         21   -1    0    0  502  503 -0.00000000000E+00 -0.00000000000E+00 -0.20361774836E+03  0.20361774836E+03  0.00000000000E+00 0.  1.
    9000005    1    1    2  501    0  0.37823928705E+02 -0.10096350794E+02  0.14278312583E+03  0.42652034758E+03  0.40000000000E+03 0.  1.
   -9000005    1    1    2    0  503 -0.37823928705E+02  0.10096350794E+02  0.59223807786E+03  0.71573635282E+03  0.40000000000E+03 0.  1.
<mgrwt>
<rscale>  2 0.40191117E+03</rscale>
<asrwt>0</asrwt>
<pdfrwt beam="1">  1       21 0.14440599E+00 0.40191117E+03</pdfrwt>
<pdfrwt beam="2">  1       21 0.31325808E-01 0.40191117E+03</pdfrwt>
<totfact> 0.28432583E+03</totfact>
</mgrwt>
</event>
<event>
 4    1  0.8722554E-003  0.4122209E+03  0.7818608E-02  0.1039628E+00
         21   -1    0    0  503  502  0.00000000000E+00  0.00000000000E+00  0.71601176521E+03  0.71601176521E+03  0.00000000000E+00 0. -1.
         21   -1    0    0  501  503 -0.00000000000E+00 -0.00000000000E+00 -0.23746117603E+03  0.23746117603E+03  0.00000000000E+00 0. -1.
    9000005    1    1    2  501    0  0.47672345985E+02 -0.87483694446E+02  0.25077593733E+03  0.48250867361E+03  0.40000000000E+03 0. -1.
   -9000005    1    1    2    0  502 -0.47672345985E+02  0.87483694446E+02  0.22777465184E+03  0.47096426763E+03  0.40000000000E+03 0. -1.
<mgrwt>
<rscale>  2 0.41222087E+03</rscale>
<asrwt>0</asrwt>
<pdfrwt beam="1">  1       21 0.11015566E+00 0.41222087E+03</pdfrwt>
<pdfrwt beam="2">  1       21 0.36532489E-01 0.41222087E+03</pdfrwt>
<totfact> 0.41660474E+03</totfact>
</mgrwt>
</event>
<event>
 4    1  0.8722554E-003  0.4020706E+03  0.7818608E-02  0.1043065E+00
         21   -1    0    0  503  502  0.00000000000E+00  0.00000000000E+00  0.62278144513E+03  0.62278144513E+03  0.00000000000E+00 0.  1.
         21   -1    0    0  501  503 -0.00000000000E+00 -0.00000000000E+00 -0.27356353007E+03  0.27356353007E+03  0.00000000000E+00 0.  1.
    9000005    1    1    2  501    0 -0.18972146652E+02  0.36067383539E+02  0.27594050500E+03  0.48765147473E+03  0.40000000000E+03 0. -1.
   -9000005    1    1    2    0  502  0.18972146652E+02 -0.36067383539E+02  0.73277410061E+02  0.40869350047E+03  0.40000000000E+03 0. -1.
<mgrwt>
<rscale>  2 0.40207064E+03</rscale>
<asrwt>0</asrwt>
<pdfrwt beam="1">  1       21 0.95812530E-01 0.40207064E+03</pdfrwt>
<pdfrwt beam="2">  1       21 0.42086697E-01 0.40207064E+03</pdfrwt>
<totfact> 0.43973573E+03</totfact>
</mgrwt>
</event>
<event>
 4    1  0.8722554E-003  0.4378666E+03  0.7818608E-02  0.1031403E+00
         21   -1    0    0  501  502  0.00000000000E+00  0.00000000000E+00  0.10219084607E+03  0.10219084607E+03  0.00000000000E+00 0. -1.
         21   -1    0    0  502  503 -0.00000000000E+00 -0.00000000000E+00 -0.22967723398E+04  0.22967723398E+04  0.00000000000E+00 0. -1.
    9000005    1    1    2  501    0  0.14080348640E+03 -0.10909418768E+03 -0.58399029328E+03  0.72991220445E+03  0.40000000000E+03 0. -1.
   -9000005    1    1    2    0  503 -0.14080348640E+03  0.10909418768E+03 -0.16105912004E+04  0.16690509814E+04  0.40000000000E+03 0. -1.
<mgrwt>
<rscale>  2 0.43786660E+03</rscale>
<asrwt>0</asrwt>
<pdfrwt beam="1">  1       21 0.15721669E-01 0.43786660E+03</pdfrwt>
<pdfrwt beam="2">  1       21 0.35334958E+00 0.43786660E+03</pdfrwt>
<totfact> 0.47479872E+02</totfact>
</mgrwt>
</event>
<event>
 4    1  0.8722554E-003  0.4945832E+03  0.7818608E-02  0.1015203E+00
         21   -1    0    0  503  502  0.00000000000E+00  0.00000000000E+00  0.60420093673E+03  0.60420093673E+03  0.00000000000E+00 0. -1.
         21   -1    0    0  501  503 -0.00000000000E+00 -0.00000000000E+00 -0.42146165992E+03  0.42146165992E+03  0.00000000000E+00 0. -1.
    9000005    1    1    2  501    0  0.25943857349E+03 -0.13154522461E+03  0.19317337008E+03  0.53096936865E+03  0.40000000000E+03 0. -1.
   -9000005    1    1    2    0  502 -0.25943857349E+03  0.13154522461E+03 -0.10434093278E+02  0.49469322801E+03  0.40000000000E+03 0. -1.
<mgrwt>
<rscale>  2 0.49458318E+03</rscale>
<asrwt>0</asrwt>
<pdfrwt beam="1">  1       21 0.92953990E-01 0.49458318E+03</pdfrwt>
<pdfrwt beam="2">  1       21 0.64840255E-01 0.49458318E+03</pdfrwt>
<totfact> 0.18102130E+03</totfact>
</mgrwt>
</event>
<event>
 4    1  0.8722554E-003  0.6757232E+03  0.7818608E-02  0.9759674E-01
         21   -1    0    0  501  502  0.00000000000E+00  0.00000000000E+00  0.14734185729E+03  0.14734185729E+03  0.00000000000E+00 0. -1.
         21   -1    0    0  502  503 -0.00000000000E+00 -0.00000000000E+00 -0.37381914608E+04  0.37381914608E+04  0.00000000000E+00 0.  1.
    9000005    1    1    2  501    0  0.37772677514E+03  0.39233198476E+03 -0.99202893871E+03  0.12003013447E+04  0.40000000000E+03 0. -1.
   -9000005    1    1    2    0  503 -0.37772677514E+03 -0.39233198476E+03 -0.25988206648E+04  0.26852319733E+04  0.40000000000E+03 0.  1.
<mgrwt>
<rscale>  2 0.67572324E+03</rscale>
<asrwt>0</asrwt>
<pdfrwt beam="1">  1       21 0.22667978E-01 0.67572324E+03</pdfrwt>
<pdfrwt beam="2">  1       21 0.57510638E+00 0.67572324E+03</pdfrwt>
<totfact> 0.61043218E+00</totfact>
</mgrwt>
</event>
<event>
 4    1  0.8722554E-003  0.4131714E+03  0.7818608E-02  0.1039312E+00
         21   -1    0    0  503  502  0.00000000000E+00  0.00000000000E+00  0.63477530065E+03  0.63477530065E+03  0.00000000000E+00 0. -1.
         21   -1    0    0  501  503 -0.00000000000E+00 -0.00000000000E+00 -0.28583418144E+03  0.28583418144E+03  0.00000000000E+00 0. -1.
    9000005    1    1    2  501    0 -0.29261248484E+02 -0.99269116184E+02  0.28640821381E+03  0.50273277497E+03  0.40000000000E+03 0.  1.
   -9000005    1    1    2    0  502  0.29261248484E+02  0.99269116184E+02  0.62532905404E+02  0.41787670711E+03  0.40000000000E+03 0.  1.
<mgrwt>
<rscale>  2 0.41317137E+03</rscale>
<asrwt>0</asrwt>
<pdfrwt beam="1">  1       21 0.97657738E-01 0.41317137E+03</pdfrwt>
<pdfrwt beam="2">  1       21 0.43974490E-01 0.41317137E+03</pdfrwt>
<totfact> 0.38184013E+03</totfact>
</mgrwt>
</event>
<event>
 4    1  0.8722554E-003  0.4345942E+03  0.7818608E-02  0.1032418E+00
         21   -1    0    0  501  502  0.00000000000E+00  0.00000000000E+00  0.22147542649E+03  0.22147542649E+03  0.00000000000E+00 0.  1.
         21   -1    0    0  502  503 -0.00000000000E+00 -0.00000000000E+00 -0.95901670520E+03  0.95901670520E+03  0.00000000000E+00 0. -1.
    9000005    1    1    2  501    0 -0.54788275737E+02  0.16084256091E+03 -0.17232773003E+03  0.46751356247E+03  0.40000000000E+03 0.  1.
   -9000005    1    1    2    0  503  0.54788275737E+02 -0.16084256091E+03 -0.56521354867E+03  0.71297856922E+03  0.40000000000E+03 0. -1.
<mgrwt>
<rscale>  2 0.43459416E+03</rscale>
<asrwt>0</asrwt>
<pdfrwt beam="1">  1       21 0.34073143E-01 0.43459416E+03</pdfrwt>
<pdfrwt beam="2">  1       21 0.14754103E+00 0.43459416E+03</pdfrwt>
<totfact> 0.22372911E+03</totfact>
</mgrwt>
</event>
<event>
 4    1  0.8722554E-003  0.5718624E+03  0.7818608E-02  0.9965566E-01
         21   -1    0    0  501  502  0.00000000000E+00  0.00000000000E+00  0.23690614162E+03  0.23690614162E+03  0.00000000000E+00 0. -1.
         21   -1    0    0  502  503 -0.00000000000E+00 -0.00000000000E+00 -0.16127606599E+04  0.16127606599E+04  0.00000000000E+00 0. -1.
    9000005    1    1    2  501    0 -0.29475122389E+02  0.40762457610E+03 -0.33688891267E+03  0.66371734749E+03  0.40000000000E+03 0. -1.
   -9000005    1    1    2    0  503  0.29475122389E+02 -0.40762457610E+03 -0.10389656056E+04  0.11859494540E+04  0.40000000000E+03 0. -1.
<mgrwt>
<rscale>  2 0.57186238E+03</rscale>
<asrwt>0</asrwt>
<pdfrwt beam="1">  1       21 0.36447100E-01 0.57186238E+03</pdfrwt>
<pdfrwt beam="2">  1       21 0.24811702E+00 0.57186238E+03</pdfrwt>
<totfact> 0.37758214E+02</totfact>
</mgrwt>
</event>
<event>
 4    1  0.8722554E-003  0.4137204E+03  0.7818608E-02  0.1039130E+00
         21   -1    0    0  503  502  0.00000000000E+00  0.00000000000E+00  0.17689124022E+03  0.17689124022E+03  0.00000000000E+00 0. -1.
         21   -1    0    0  501  503 -0.00000000000E+00 -0.00000000000E+00 -0.12796041155E+04  0.12796041155E+04  0.00000000000E+00 0. -1.
    9000005    1    1    2  501    0 -0.99865868487E+02  0.34516191927E+02 -0.91094293496E+03  0.10004906746E+04  0.40000000000E+03 0. -1.
   -9000005    1    1    2    0  502  0.99865868487E+02 -0.34516191927E+02 -0.19176994031E+03  0.45600468112E+03  0.40000000000E+03 0. -1.
<mgrwt>
<rscale>  2 0.41372039E+03</rscale>
<asrwt>0</asrwt>
<pdfrwt beam="1">  1       21 0.27214037E-01 0.41372039E+03</pdfrwt>
<pdfrwt beam="2">  1       21 0.19686217E+00 0.41372039E+03</pdfrwt>
<totfact> 0.15499274E+03</totfact>
</mgrwt>
</event>
<event>
 4    1  0.8722554E-003  0.6305059E+03  0.7818608E-02  0.9844062E-01
         21   -1    0    0  503  502  0.00000000000E+00  0.00000000000E+00  0.87651916748E+03  0.87651916748E+03  0.00000000000E+00 0. -1.
         21   -1    0    0  501  503 -0.00000000000E+00 -0.00000000000E+00 -0.46738049726E+03  0.46738049726E+03  0.00000000000E+00 0.  1.
    9000005    1    1    2  501    0  0.48336144418E+03 -0.62445375315E+02  0.32019541201E+03  0.70715119493E+03  0.40000000000E+03 0. -1.
   -9000005    1    1    2    0  502 -0.48336144418E+03  0.62445375315E+02  0.88943258207E+02  0.63674846980E+03  0.40000000000E+03 0.  1.
<mgrwt>
<rscale>  2 0.63050592E+03</rscale>
<asrwt>0</asrwt>
<pdfrwt beam="1">  1       21 0.13484910E+00 0.63050592E+03</pdfrwt>
<pdfrwt beam="2">  1       21 0.71904692E-01 0.63050592E+03</pdfrwt>
<totfact> 0.53841813E+02</totfact>
</mgrwt>
</event>
<event>
 4    1  0.8722554E-003  0.4083123E+03  0.7818608E-02  0.1040939E+00
         21   -1    0    0  503  502  0.00000000000E+00  0.00000000000E+00  0.50189594193E+03  0.50189594193E+03  0.00000000000E+00 0.  1.
         21   -1    0    0  501  503 -0.00000000000E+00 -0.00000000000E+00 -0.33862520992E+03  0.33862520992E+03  0.00000000000E+00 0.  1.
    9000005    1    1    2  501    0  0.52215378432E+02 -0.63186451112E+02  0.23648101452E+02  0.40899658440E+03  0.40000000000E+03 0.  1.
   -9000005    1    1    2    0  502 -0.52215378432E+02  0.63186451112E+02  0.13962263055E+03  0.43152456745E+03  0.40000000000E+03 0.  1.
<mgrwt>
<rscale>  2 0.40831235E+03</rscale>
<asrwt>0</asrwt>
<pdfrwt beam="1">  1       21 0.77214760E-01 0.40831235E+03</pdfrwt>
<pdfrwt beam="2">  1       21 0.52096186E-01 0.40831235E+03</pdfrwt>
<totfact> 0.46417282E+03</totfact>
</mgrwt>
</event>
<event>
 4    1  0.8722554E-003  0.8160743E+03  0.7818608E-02  0.9537037E-01
         21   -1    0    0  503  502  0.00000000000E+00  0.00000000000E+00  0.53604985496E+03  0.53604985496E+03  0.00000000000E+00 0. -1.
         21   -1    0    0  501  503 -0.00000000000E+00 -0.00000000000E+00 -0.12728378898E+04  0.12728378898E+04  0.00000000000E+00 0.  1.
    9000005    1    1    2  501    0 -0.41055727490E+03  0.58087868890E+03 -0.22848398493E+03  0.84745634610E+03  0.40000000000E+03 0.  1.
   -9000005    1    1    2    0  502  0.41055727490E+03 -0.58087868890E+03 -0.50830404992E+03  0.96143139867E+03  0.40000000000E+03 0. -1.
<mgrwt>
<rscale>  2 0.81607434E+03</rscale>
<asrwt>0</asrwt>
<pdfrwt beam="1">  1       21 0.82469210E-01 0.81607434E+03</pdfrwt>
<pdfrwt beam="2">  1       21 0.19582121E+00 0.81607434E+03</pdfrwt>
<totfact> 0.12765526E+02</totfact>
</mgrwt>
</event>
<event>
 4    1  0.8722554E-003  0.5456853E+03  0.7818608E-02  0.1002498E+00
         21   -1    0    0  503  502  0.00000000000E+00  0.00000000000E+00  0.16021799916E+03  0.16021799916E+03  0.00000000000E+00 0.  1.
         21   -1    0    0  501  503 -0.00000000000E+00 -0.00000000000E+00 -0.22670383522E+04  0.22670383522E+04  0.00000000000E+00 0.  1.
    9000005    1    1    2  501    0  0.30392477508E+03 -0.21307786714E+03 -0.53824270754E+03  0.76647091177E+03  0.40000000000E+03 0.  1.
   -9000005    1    1    2    0  502 -0.30392477508E+03  0.21307786714E+03 -0.15685776455E+04  0.16607854396E+04  0.40000000000E+03 0.  1.
<mgrwt>
<rscale>  2 0.54568530E+03</rscale>
<asrwt>0</asrwt>
<pdfrwt beam="1">  1       21 0.24648923E-01 0.54568530E+03</pdfrwt>
<pdfrwt beam="2">  1       21 0.34877514E+00 0.54568530E+03</pdfrwt>
<totfact> 0.20233326E+02</totfact>
</mgrwt>
</event>
<event>
 4    1  0.8722554E-003  0.4078401E+03  0.7818608E-02  0.1041098E+00
         21   -1    0    0  501  502  0.00000000000E+00  0.00000000000E+00  0.25856239076E+03  0.25856239076E+03  0.00000000000E+00 0.  1.
         21   -1    0    0  502  503 -0.00000000000E+00 -0.00000000000E+00 -0.64350764496E+03  0.64350764496E+03  0.00000000000E+00 0.  1.
    9000005    1    1    2  501    0 -0.56234918704E+02 -0.56313519539E+02 -0.18440026867E+03  0.44759025643E+03  0.40000000000E+03 0.  1.
   -9000005    1    1    2    0  503  0.56234918704E+02  0.56313519539E+02 -0.20054498553E+03  0.45447977929E+03  0.40000000000E+03 0.  1.
<mgrwt>
<rscale>  2 0.40784014E+03</rscale>
<asrwt>0</asrwt>
<pdfrwt beam="1">  1       21 0.39778830E-01 0.40784014E+03</pdfrwt>
<pdfrwt beam="2">  1       21 0.99001174E-01 0.40784014E+03</pdfrwt>
<totfact> 0.45558702E+03</totfact>
</mgrwt>
</event>
<event>
 4    1  0.8722554E-003  0.4354812E+03  0.7818608E-02  0.1032142E+00
         21   -1    0    0  503  502  0.00000000000E+00  0.00000000000E+00  0.30751161807E+03  0.30751161807E+03  0.00000000000E+00 0.  1.
         21   -1    0    0  501  503 -0.00000000000E+00 -0.00000000000E+00 -0.64770436132E+03  0.64770436132E+03  0.00000000000E+00 0.  1.
    9000005    1    1    2  501    0 -0.11795064724E+03  0.12542534417E+03 -0.27458315855E+03  0.51482014636E+03  0.40000000000E+03 0.  1.
   -9000005    1    1    2    0  502  0.11795064724E+03 -0.12542534417E+03 -0.65609584699E+02  0.44039583303E+03  0.40000000000E+03 0.  1.
<mgrwt>
<rscale>  2 0.43548120E+03</rscale>
<asrwt>0</asrwt>
<pdfrwt beam="1">  1       21 0.47309480E-01 0.43548120E+03</pdfrwt>
<pdfrwt beam="2">  1       21 0.99646824E-01 0.43548120E+03</pdfrwt>
<totfact> 0.30945724E+03</totfact>
</mgrwt>
</event>
<event>
 4    1  0.8722554E-003  0.4485370E+03  0.7818608E-02  0.1028159E+00
         21   -1    0    0  503  502  0.00000000000E+00  0.00000000000E+00  0.30644321124E+03  0.30644321124E+03  0.00000000000E+00 0.  1.
         21   -1    0    0  501  503 -0.00000000000E+00 -0.00000000000E+00 -0.65677429667E+03  0.65677429667E+03  0.00000000000E+00 0.  1.
    9000005    1    1    2  501    0 -0.87947703021E+02 -0.18289520881E+03 -0.18468113807E+03  0.48506966369E+03  0.40000000000E+03 0.  1.
   -9000005    1    1    2    0  502  0.87947703021E+02  0.18289520881E+03 -0.16564994735E+03  0.47814784422E+03  0.40000000000E+03 0.  1.
<mgrwt>
<rscale>  2 0.44853702E+03</rscale>
<asrwt>0</asrwt>
<pdfrwt beam="1">  1       21 0.47145110E-01 0.44853702E+03</pdfrwt>
<pdfrwt beam="2">  1       21 0.10104220E+00 0.44853702E+03</pdfrwt>
<totfact> 0.29993325E+03</totfact>
</mgrwt>
</event>
<event>
 4    1  0.8722554E-003  0.4414671E+03  0.7818608E-02  0.1030298E+00
         21   -1    0    0  501  502  0.00000000000E+00  0.00000000000E+00  0.72109540506E+03  0.72109540506E+03  0.00000000000E+00 0. -1.
         21   -1    0    0  502  503 -0.00000000000E+00 -0.00000000000E+00 -0.27065101529E+03  0.27065101529E+03  0.00000000000E+00 0. -1.
    9000005    1    1    2  501    0 -0.20336102790E+02  0.18568694044E+03  0.24373444253E+03  0.50428134548E+03  0.40000000000E+03 0. -1.
   -9000005    1    1    2    0  503  0.20336102790E+02 -0.18568694044E+03  0.20670994724E+03  0.48746507486E+03  0.40000000000E+03 0. -1.
<mgrwt>
<rscale>  2 0.44146710E+03</rscale>
<asrwt>0</asrwt>
<pdfrwt beam="1">  1       21 0.11093775E+00 0.44146710E+03</pdfrwt>
<pdfrwt beam="2">  1       21 0.41638618E-01 0.44146710E+03</pdfrwt>
<totfact> 0.30966610E+03</totfact>
</mgrwt>
</event>
<event>
 4    1  0.8722554E-003  0.4125937E+03  0.7818608E-02  0.1039504E+00
         21   -1    0    0  503  502  0.00000000000E+00  0.00000000000E+00  0.15116610726E+04  0.15116610726E+04  0.00000000000E+00 0. -1.
         21   -1    0    0  501  503 -0.00000000000E+00 -0.00000000000E+00 -0.11261377978E+03  0.11261377978E+03  0.00000000000E+00 0. -1.
    9000005    1    1    2  501    0 -0.42318616467E+02  0.91884213200E+02  0.70058946724E+03  0.81305545662E+03  0.40000000000E+03 0.  1.
   -9000005    1    1    2    0  502  0.42318616467E+02 -0.91884213200E+02  0.69845782559E+03  0.81121939577E+03  0.40000000000E+03 0.  1.
<mgrwt>
<rscale>  2 0.41259372E+03</rscale>
<asrwt>0</asrwt>
<pdfrwt beam="1">  1       21 0.23256323E+00 0.41259372E+03</pdfrwt>
<pdfrwt beam="2">  1       21 0.17325198E-01 0.41259372E+03</pdfrwt>
<totfact> 0.21681905E+03</totfact>
</mgrwt>
</event>
<event>
 4    1  0.8722554E-003  0.4047992E+03  0.7818608E-02  0.1042130E+00
         21   -1    0    0  503  502  0.00000000000E+00  0.00000000000E+00  0.17494739452E+03  0.17494739452E+03  0.00000000000E+00 0. -1.
         21   -1    0    0  501  503 -0.00000000000E+00 -0.00000000000E+00 -0.10763954131E+04  0.10763954131E+04  0.00000000000E+00 0. -1.
    9000005    1    1    2  501    0  0.13836406156E+02  0.60588414092E+02 -0.67617263758E+03  0.78808111122E+03  0.40000000000E+03 0. -1.
   -9000005    1    1    2    0  502 -0.13836406156E+02 -0.60588414092E+02 -0.22527538097E+03  0.46326169638E+03  0.40000000000E+03 0. -1.
<mgrwt>
<rscale>  2 0.40479921E+03</rscale>
<asrwt>0</asrwt>
<pdfrwt beam="1">  1       21 0.26914985E-01 0.40479921E+03</pdfrwt>
<pdfrwt beam="2">  1       21 0.16559929E+00 0.40479921E+03</pdfrwt>
<totfact> 0.26335562E+03</totfact>
</mgrwt>
</event>
<event>
 4    1  0.8722554E-003  0.4816130E+03  0.7818608E-02  0.1018693E+00
         21   -1    0    0  501  502  0.00000000000E+00  0.00000000000E+00  0.68032480513E+03  0.68032480513E+03  0.00000000000E+00 0.  1.
         21   -1    0    0  502  503 -0.00000000000E+00 -0.00000000000E+00 -0.46057860473E+03  0.46057860473E+03  0.00000000000E+00 0. -1.
    9000005    1    1    2  501    0  0.26618439052E+03  0.33120232538E+02  0.40060964816E+03  0.62644965460E+03  0.40000000000E+03 0.  1.
   -9000005    1    1    2    0  503 -0.26618439052E+03 -0.33120232538E+02 -0.18086344775E+03  0.51445375525E+03  0.40000000000E+03 0. -1.
<mgrwt>
<rscale>  2 0.48161300E+03</rscale>
<asrwt>0</asrwt>
<pdfrwt beam="1">  1       21 0.10466536E+00 0.48161300E+03</pdfrwt>
<pdfrwt beam="2">  1       21 0.70858246E-01 0.48161300E+03</pdfrwt>
<totfact> 0.11175169E+03</totfact>
</mgrwt>
</event>
<event>
 4    1  0.8722554E-003  0.4125181E+03  0.7818608E-02  0.1039529E+00
         21   -1    0    0  503  502  0.00000000000E+00  0.00000000000E+00  0.51310633144E+03  0.51310633144E+03  0.00000000000E+00 0. -1.
         21   -1    0    0  501  503 -0.00000000000E+00 -0.00000000000E+00 -0.33697814089E+03  0.33697814089E+03  0.00000000000E+00 0. -1.
    9000005    1    1    2  501    0  0.23907997859E+02  0.97977629231E+02  0.14151552296E+03  0.43611678646E+03  0.40000000000E+03 0. -1.
   -9000005    1    1    2    0  502 -0.23907997859E+02 -0.97977629231E+02  0.34612667596E+02  0.41396768588E+03  0.40000000000E+03 0. -1.
<mgrwt>
<rscale>  2 0.41251813E+03</rscale>
<asrwt>0</asrwt>
<pdfrwt beam="1">  1       21 0.78939435E-01 0.41251813E+03</pdfrwt>
<pdfrwt beam="2">  1       21 0.51842791E-01 0.41251813E+03</pdfrwt>
<totfact> 0.44516865E+03</totfact>
</mgrwt>
</event>
<event>
 4    1  0.8722554E-003  0.4630850E+03  0.7818608E-02  0.1023890E+00
         21   -1    0    0  503  502  0.00000000000E+00  0.00000000000E+00  0.18916965573E+03  0.18916965573E+03  0.00000000000E+00 0.  1.
         21   -1    0    0  501  503 -0.00000000000E+00 -0.00000000000E+00 -0.11686559552E+04  0.11686559552E+04  0.00000000000E+00 0.  1.
    9000005    1    1    2  501    0 -0.20480475174E+03 -0.11181571521E+03 -0.60728354973E+03  0.76370219999E+03  0.40000000000E+03 0.  1.
   -9000005    1    1    2    0  502  0.20480475174E+03  0.11181571521E+03 -0.37220274973E+03  0.59412341092E+03  0.40000000000E+03 0.  1.
<mgrwt>
<rscale>  2 0.46308503E+03</rscale>
<asrwt>0</asrwt>
<pdfrwt beam="1">  1       21 0.29103023E-01 0.46308503E+03</pdfrwt>
<pdfrwt beam="2">  1       21 0.17979323E+00 0.46308503E+03</pdfrwt>
<totfact> 0.17406929E+03</totfact>
</mgrwt>
</event>
<event>
 4    1  0.8722554E-003  0.4050285E+03  0.7818608E-02  0.1042052E+00
         21   -1    0    0  503  502  0.00000000000E+00  0.00000000000E+00  0.66325302637E+03  0.66325302637E+03  0.00000000000E+00 0. -1.
         21   -1    0    0  501  503 -0.00000000000E+00 -0.00000000000E+00 -0.24989796943E+03  0.24989796943E+03  0.00000000000E+00 0. -1.
    9000005    1    1    2  501    0 -0.27811556589E+02  0.57223963453E+02  0.16047145695E+03  0.43565944632E+03  0.40000000000E+03 0.  1.
   -9000005    1    1    2    0  502  0.27811556589E+02 -0.57223963453E+02  0.25288359999E+03  0.47749154947E+03  0.40000000000E+03 0.  1.
<mgrwt>
<rscale>  2 0.40502847E+03</rscale>
<asrwt>0</asrwt>
<pdfrwt beam="1">  1       21 0.10203893E+00 0.40502847E+03</pdfrwt>
<pdfrwt beam="2">  1       21 0.38445842E-01 0.40502847E+03</pdfrwt>
<totfact> 0.45444535E+03</totfact>
</mgrwt>
</event>
<event>
 4    1  0.8722554E-003  0.4143415E+03  0.7818608E-02  0.1038924E+00
         21   -1    0    0  501  502  0.00000000000E+00  0.00000000000E+00  0.17489981582E+04  0.17489981582E+04  0.00000000000E+00 0.  1.
         21   -1    0    0  502  503 -0.00000000000E+00 -0.00000000000E+00 -0.13594038029E+03  0.13594038029E+03  0.00000000000E+00 0.  1.
    9000005    1    1    2  501    0 -0.45331390651E+02 -0.98101782420E+02  0.13033902276E+04  0.13676640597E+04  0.40000000000E+03 0.  1.
   -9000005    1    1    2    0  503  0.45331390651E+02  0.98101782420E+02  0.30966755023E+03  0.51727447874E+03  0.40000000000E+03 0.  1.
<mgrwt>
<rscale>  2 0.41434152E+03</rscale>
<asrwt>0</asrwt>
<pdfrwt beam="1">  1       21 0.26907662E+00 0.41434152E+03</pdfrwt>
<pdfrwt beam="2">  1       21 0.20913906E-01 0.41434152E+03</pdfrwt>
<totfact> 0.90691744E+02</totfact>
</mgrwt>
</event>
<event>
 4    1  0.8722554E-003  0.5320261E+03  0.7818608E-02  0.1005742E+00
         21   -1    0    0  501  502  0.00000000000E+00  0.00000000000E+00  0.18319179925E+04  0.18319179925E+04  0.00000000000E+00 0. -1.
         21   -1    0    0  502  503 -0.00000000000E+00 -0.00000000000E+00 -0.19682216211E+03  0.19682216211E+03  0.00000000000E+00 0.  1.
    9000005    1    1    2  501    0 -0.12776029116E+02  0.35055458454E+03  0.12878600358E+04  0.13934257122E+04  0.40000000000E+03 0. -1.
   -9000005    1    1    2    0  503  0.12776029116E+02 -0.35055458454E+03  0.34723579459E+03  0.63531444239E+03  0.40000000000E+03 0.  1.
<mgrwt>
<rscale>  2 0.53202607E+03</rscale>
<asrwt>0</asrwt>
<pdfrwt beam="1">  1       21 0.28183353E+00 0.53202607E+03</pdfrwt>
<pdfrwt beam="2">  1       21 0.30280334E-01 0.53202607E+03</pdfrwt>
<totfact> 0.34715250E+02</totfact>
</mgrwt>
</event>
<event>
 4    1  0.8722554E-003  0.4149189E+03  0.7818608E-02  0.1038733E+00
         21   -1    0    0  501  502  0.00000000000E+00  0.00000000000E+00  0.30387275066E+03  0.30387275066E+03  0.00000000000E+00 0.  1.
         21   -1    0    0  502  503 -0.00000000000E+00 -0.00000000000E+00 -0.57708729316E+03  0.57708729316E+03  0.00000000000E+00 0.  1.
    9000005    1    1    2  501    0 -0.11025456493E+03 -0.12812533528E+01 -0.19614121528E+03  0.45894344644E+03  0.40000000000E+03 0. -1.
   -9000005    1    1    2    0  503  0.11025456493E+03  0.12812533528E+01 -0.77073327221E+02  0.42201659738E+03  0.40000000000E+03 0. -1.
<mgrwt>
<rscale>  2 0.41491892E+03</rscale>
<asrwt>0</asrwt>
<pdfrwt beam="1">  1       21 0.46749655E-01 0.41491892E+03</pdfrwt>
<pdfrwt beam="2">  1       21 0.88782659E-01 0.41491892E+03</pdfrwt>
<totfact> 0.42121150E+03</totfact>
</mgrwt>
</event>
<event>
 4    1  0.8722554E-003  0.4178461E+03  0.7818608E-02  0.1037770E+00
         21   -1    0    0  503  502  0.00000000000E+00  0.00000000000E+00  0.16756440736E+04  0.16756440736E+04  0.00000000000E+00 0. -1.
         21   -1    0    0  501  503 -0.00000000000E+00 -0.00000000000E+00 -0.10611616567E+03  0.10611616567E+03  0.00000000000E+00 0. -1.
    9000005    1    1    2  501    0 -0.11873174430E+03 -0.22318827741E+02  0.66492406430E+03  0.78531482124E+03  0.40000000000E+03 0. -1.
   -9000005    1    1    2    0  502  0.11873174430E+03  0.22318827741E+02  0.90460384360E+03  0.99644541799E+03  0.40000000000E+03 0. -1.
<mgrwt>
<rscale>  2 0.41784609E+03</rscale>
<asrwt>0</asrwt>
<pdfrwt beam="1">  1       21 0.25779138E+00 0.41784609E+03</pdfrwt>
<pdfrwt beam="2">  1       21 0.16325565E-01 0.41784609E+03</pdfrwt>
<totfact> 0.16903207E+03</totfact>
</mgrwt>
</event>
<event>
 4    1  0.8722554E-003  0.4784983E+03  0.7818608E-02  0.1019549E+00
         21   -1    0    0  501  502  0.00000000000E+00  0.00000000000E+00  0.99193545466E+03  0.99193545466E+03  0.00000000000E+00 0.  1.
         21   -1    0    0  502  503 -0.00000000000E+00 -0.00000000000E+00 -0.23891941544E+03  0.23891941544E+03  0.00000000000E+00 0.  1.
    9000005    1    1    2  501    0  0.23564724989E+03 -0.11589203413E+03  0.48980611246E+03  0.68474127797E+03  0.40000000000E+03 0.  1.
   -9000005    1    1    2    0  503 -0.23564724989E+03  0.11589203413E+03  0.26320992675E+03  0.54611359212E+03  0.40000000000E+03 0.  1.
<mgrwt>
<rscale>  2 0.47849827E+03</rscale>
<asrwt>0</asrwt>
<pdfrwt beam="1">  1       21 0.15260545E+00 0.47849827E+03</pdfrwt>
<pdfrwt beam="2">  1       21 0.36756834E-01 0.47849827E+03</pdfrwt>
<totfact> 0.17205759E+03</totfact>
</mgrwt>
</event>
<event>
 4    1  0.8722554E-003  0.6064727E+03  0.7818608E-02  0.9892067E-01
         21   -1    0    0  501  502  0.00000000000E+00  0.00000000000E+00  0.82041106811E+03  0.82041106811E+03  0.00000000000E+00 0. -1.
         21   -1    0    0  502  503 -0.00000000000E+00 -0.00000000000E+00 -0.47412343922E+03  0.47412343922E+03  0.00000000000E+00 0.  1.
    9000005    1    1    2  501    0  0.42609542945E+03 -0.16202426694E+03  0.32413486184E+03  0.68765731781E+03  0.40000000000E+03 0. -1.
   -9000005    1    1    2    0  503 -0.42609542945E+03  0.16202426694E+03  0.22152767055E+02  0.60687718952E+03  0.40000000000E+03 0.  1.
<mgrwt>
<rscale>  2 0.60647273E+03</rscale>
<asrwt>0</asrwt>
<pdfrwt beam="1">  1       21 0.12621709E+00 0.60647273E+03</pdfrwt>
<pdfrwt beam="2">  1       21 0.72942068E-01 0.60647273E+03</pdfrwt>
<totfact> 0.62446968E+02</totfact>
</mgrwt>
</event>
<event>
 4    1  0.8722554E-003  0.4732276E+03  0.7818608E-02  0.1021013E+00
         21   -1    0    0  501  502  0.00000000000E+00  0.00000000000E+00  0.11051416848E+03  0.11051416848E+03  0.00000000000E+00 0. -1.
         21   -1    0    0  502  503 -0.00000000000E+00 -0.00000000000E+00 -0.20335736435E+04  0.20335736435E+04  0.00000000000E+00 0. -1.
    9000005    1    1    2  501    0  0.23503561684E+03  0.93287856432E+02 -0.89779510746E+03  0.10148795102E+04  0.40000000000E+03 0. -1.
   -9000005    1    1    2    0  503 -0.23503561684E+03 -0.93287856432E+02 -0.10252643676E+04  0.11292083018E+04  0.40000000000E+03 0. -1.
<mgrwt>
<rscale>  2 0.47322760E+03</rscale>
<asrwt>0</asrwt>
<pdfrwt beam="1">  1       21 0.17002179E-01 0.47322760E+03</pdfrwt>
<pdfrwt beam="2">  1       21 0.31285749E+00 0.47322760E+03</pdfrwt>
<totfact> 0.70829345E+02</totfact>
</mgrwt>
</event>
<event>
 4    1  0.8722554E-003  0.7324302E+03  0.7818608E-02  0.9663325E-01
         21   -1    0    0  503  502  0.00000000000E+00  0.00000000000E+00  0.10244444924E+04  0.10244444924E+04  0.00000000000E+00 0. -1.
         21   -1    0    0  501  503 -0.00000000000E+00 -0.00000000000E+00 -0.52491712423E+03  0.52491712423E+03  0.00000000000E+00 0.  1.
    9000005    1    1    2  501    0  0.43904359939E+03  0.42859630027E+03  0.21175654889E+03  0.76242698455E+03  0.40000000000E+03 0.  1.
   -9000005    1    1    2    0  502 -0.43904359939E+03 -0.42859630027E+03  0.28777081930E+03  0.78693463211E+03  0.40000000000E+03 0. -1.
<mgrwt>
<rscale>  2 0.73243025E+03</rscale>
<asrwt>0</asrwt>
<pdfrwt beam="1">  1       21 0.15760684E+00 0.73243025E+03</pdfrwt>
<pdfrwt beam="2">  1       21 0.80756481E-01 0.73243025E+03</pdfrwt>
<totfact> 0.26079858E+02</totfact>
</mgrwt>
</event>
<event>
 4    1  0.8722554E-003  0.4081556E+03  0.7818608E-02  0.1040992E+00
         21   -1    0    0  501  502  0.00000000000E+00  0.00000000000E+00  0.49201539585E+03  0.49201539585E+03  0.00000000000E+00 0. -1.
         21   -1    0    0  502  503 -0.00000000000E+00 -0.00000000000E+00 -0.38873389639E+03  0.38873389639E+03  0.00000000000E+00 0. -1.
    9000005    1    1    2  501    0  0.62500336045E+02 -0.51814200495E+02  0.20980540843E+03  0.45892190271E+03  0.40000000000E+03 0. -1.
   -9000005    1    1    2    0  503 -0.62500336045E+02  0.51814200495E+02 -0.10652390897E+03  0.42182738953E+03  0.40000000000E+03 0. -1.
<mgrwt>
<rscale>  2 0.40815561E+03</rscale>
<asrwt>0</asrwt>
<pdfrwt beam="1">  1       21 0.75694676E-01 0.40815561E+03</pdfrwt>
<pdfrwt beam="2">  1       21 0.59805215E-01 0.40815561E+03</pdfrwt>
<totfact> 0.36055595E+03</totfact>
</mgrwt>
</event>
<event>
 4    1  0.8722554E-003  0.5040812E+03  0.7818608E-02  0.1012719E+00
         21   -1    0    0  503  502  0.00000000000E+00  0.00000000000E+00  0.81683853675E+03  0.81683853675E+03  0.00000000000E+00 0. -1.
         21   -1    0    0  501  503 -0.00000000000E+00 -0.00000000000E+00 -0.71637379012E+03  0.71637379012E+03  0.00000000000E+00 0. -1.
    9000005    1    1    2  501    0  0.15883814302E+03 -0.26242767366E+03 -0.52638835838E+03  0.72882271056E+03  0.40000000000E+03 0. -1.
   -9000005    1    1    2    0  502 -0.15883814302E+03  0.26242767366E+03  0.62685310501E+03  0.80438961632E+03  0.40000000000E+03 0. -1.
<mgrwt>
<rscale>  2 0.50408118E+03</rscale>
<asrwt>0</asrwt>
<pdfrwt beam="1">  1       21 0.12566747E+00 0.50408118E+03</pdfrwt>
<pdfrwt beam="2">  1       21 0.11021135E+00 0.50408118E+03</pdfrwt>
<totfact> 0.24538432E+02</totfact>
</mgrwt>
</event>
<event>
 4    1  0.8722554E-003  0.4081509E+03  0.7818608E-02  0.1040993E+00
         21   -1    0    0  501  502  0.00000000000E+00  0.00000000000E+00  0.41401121496E+03  0.41401121496E+03  0.00000000000E+00 0. -1.
         21   -1    0    0  502  503 -0.00000000000E+00 -0.00000000000E+00 -0.41848041198E+03  0.41848041198E+03  0.00000000000E+00 0. -1.
    9000005    1    1    2  501    0 -0.33456083458E+02 -0.73944997947E+02  0.79426920889E+02  0.41580741697E+03  0.40000000000E+03 0. -1.
   -9000005    1    1    2    0  503  0.33456083458E+02  0.73944997947E+02 -0.83896117917E+02  0.41668420998E+03  0.40000000000E+03 0. -1.
<mgrwt>
<rscale>  2 0.40815092E+03</rscale>
<asrwt>0</asrwt>
<pdfrwt beam="1">  1       21 0.63694033E-01 0.40815092E+03</pdfrwt>
<pdfrwt beam="2">  1       21 0.64381602E-01 0.40815092E+03</pdfrwt>
<totfact> 0.45160226E+03</totfact>
</mgrwt>
</event>
<event>
 4    1  0.8722554E-003  0.4325136E+03  0.7818608E-02  0.1033069E+00
         21   -1    0    0  501  502  0.00000000000E+00  0.00000000000E+00  0.93124912522E+03  0.93124912522E+03  0.00000000000E+00 0.  1.
         21   -1    0    0  502  503 -0.00000000000E+00 -0.00000000000E+00 -0.21307062322E+03  0.21307062322E+03  0.00000000000E+00 0.  1.
    9000005    1    1    2  501    0 -0.16013213896E+03  0.37758576508E+02  0.22222385372E+03  0.48626274090E+03  0.40000000000E+03 0.  1.
   -9000005    1    1    2    0  503  0.16013213896E+03 -0.37758576508E+02  0.49595464828E+03  0.65805700754E+03  0.40000000000E+03 0.  1.
<mgrwt>
<rscale>  2 0.43251360E+03</rscale>
<asrwt>0</asrwt>
<pdfrwt beam="1">  1       21 0.14326909E+00 0.43251360E+03</pdfrwt>
<pdfrwt beam="2">  1       21 0.32780097E-01 0.43251360E+03</pdfrwt>
<totfact> 0.26191555E+03</totfact>
</mgrwt>
</event>
<event>
 4    1  0.8722554E-003  0.4800325E+03  0.7818608E-02  0.1019126E+00
         21   -1    0    0  503  502  0.00000000000E+00  0.00000000000E+00  0.61359111787E+03  0.61359111787E+03  0.00000000000E+00 0. -1.
         21   -1    0    0  501  503 -0.00000000000E+00 -0.00000000000E+00 -0.37981599439E+03  0.37981599439E+03  0.00000000000E+00 0.  1.
    9000005    1    1    2  501    0  0.21191697436E+03 -0.15975736202E+03  0.64217558230E+02  0.48430890300E+03  0.40000000000E+03 0.  1.
   -9000005    1    1    2    0  502 -0.21191697436E+03  0.15975736202E+03  0.16955756525E+03  0.50909820926E+03  0.40000000000E+03 0.  1.
<mgrwt>
<rscale>  2 0.48003252E+03</rscale>
<asrwt>0</asrwt>
<pdfrwt beam="1">  1       21 0.94398634E-01 0.48003252E+03</pdfrwt>
<pdfrwt beam="2">  1       21 0.58433230E-01 0.48003252E+03</pdfrwt>
<totfact> 0.22057439E+03</totfact>
</mgrwt>
</event>
<event>
 4    1  0.8722554E-003  0.6814720E+03  0.7818608E-02  0.9749453E-01
         21   -1    0    0  503  502  0.00000000000E+00  0.00000000000E+00  0.11907018761E+04  0.11907018761E+04  0.00000000000E+00 0. -1.
         21   -1    0    0  501  503 -0.00000000000E+00 -0.00000000000E+00 -0.41526364381E+03  0.41526364381E+03  0.00000000000E+00 0. -1.
    9000005    1    1    2  501    0  0.78501326377E+02  0.54611504544E+03  0.18976117691E+03  0.70739904252E+03  0.40000000000E+03 0. -1.
   -9000005    1    1    2    0  502 -0.78501326377E+02 -0.54611504544E+03  0.58567705536E+03  0.89856647738E+03  0.40000000000E+03 0. -1.
<mgrwt>
<rscale>  2 0.68147201E+03</rscale>
<asrwt>0</asrwt>
<pdfrwt beam="1">  1       21 0.18318490E+00 0.68147201E+03</pdfrwt>
<pdfrwt beam="2">  1       21 0.63886715E-01 0.68147201E+03</pdfrwt>
<totfact> 0.29275583E+02</totfact>
</mgrwt>
</event>
<event>
 4    1  0.8722554E-003  0.5894924E+03  0.7818608E-02  0.9927449E-01
         21   -1    0    0  503  502  0.00000000000E+00  0.00000000000E+00  0.60067660452E+03  0.60067660452E+03  0.00000000000E+00 0.  1.
         21   -1    0    0  501  503 -0.00000000000E+00 -0.00000000000E+00 -0.73766899691E+03  0.73766899691E+03  0.00000000000E+00 0. -1.
    9000005    1    1    2  501    0  0.41282138497E+03 -0.13068969108E+03  0.24232764552E+03  0.63735702634E+03  0.40000000000E+03 0.  1.
   -9000005    1    1    2    0  502 -0.41282138497E+03  0.13068969108E+03 -0.37932003791E+03  0.70098857509E+03  0.40000000000E+03 0. -1.
<mgrwt>
<rscale>  2 0.58949240E+03</rscale>
<asrwt>0</asrwt>
<pdfrwt beam="1">  1       21 0.92411785E-01 0.58949240E+03</pdfrwt>
<pdfrwt beam="2">  1       21 0.11348754E+00 0.58949240E+03</pdfrwt>
<totfact> 0.47384192E+02</totfact>
</mgrwt>
</event>
<event>
 4    1  0.8722554E-003  0.5315990E+03  0.7818608E-02  0.1005845E+00
         21   -1    0    0  501  502  0.00000000000E+00  0.00000000000E+00  0.34090186614E+03  0.34090186614E+03  0.00000000000E+00 0. -1.
         21   -1    0    0  502  503 -0.00000000000E+00 -0.00000000000E+00 -0.82916915212E+03  0.82916915212E+03  0.00000000000E+00 0. -1.
    9000005    1    1    2  501    0  0.15509007221E+03  0.31391805515E+03 -0.25319669219E+03  0.58881749361E+03  0.40000000000E+03 0. -1.
   -9000005    1    1    2    0  503 -0.15509007221E+03 -0.31391805515E+03 -0.23507059378E+03  0.58125352464E+03  0.40000000000E+03 0. -1.
<mgrwt>
<rscale>  2 0.53159898E+03</rscale>
<asrwt>0</asrwt>
<pdfrwt beam="1">  1       21 0.52446441E-01 0.53159898E+03</pdfrwt>
<pdfrwt beam="2">  1       21 0.12756449E+00 0.53159898E+03</pdfrwt>
<totfact> 0.12931830E+03</totfact>
</mgrwt>
</event>
<event>
 4    1  0.8722554E-003  0.4102168E+03  0.7818608E-02  0.1040298E+00
         21   -1    0    0  501  502  0.00000000000E+00  0.00000000000E+00  0.15282900048E+03  0.15282900048E+03  0.00000000000E+00 0. -1.
         21   -1    0    0  502  503 -0.00000000000E+00 -0.00000000000E+00 -0.11324680908E+04  0.11324680908E+04  0.00000000000E+00 0. -1.
    9000005    1    1    2  501    0 -0.50800580575E+02 -0.75479488661E+02 -0.38283958945E+03  0.56110961803E+03  0.40000000000E+03 0. -1.
   -9000005    1    1    2    0  503  0.50800580575E+02  0.75479488661E+02 -0.59679950092E+03  0.72418747330E+03  0.40000000000E+03 0. -1.
<mgrwt>
<rscale>  2 0.41021684E+03</rscale>
<asrwt>0</asrwt>
<pdfrwt beam="1">  1       21 0.23512153E-01 0.41021684E+03</pdfrwt>
<pdfrwt beam="2">  1       21 0.17422587E+00 0.41021684E+03</pdfrwt>
<totfact> 0.29580878E+03</totfact>
</mgrwt>
</event>
<event>
 4    1  0.8722554E-003  0.4432812E+03  0.7818608E-02  0.1029745E+00
         21   -1    0    0  501  502  0.00000000000E+00  0.00000000000E+00  0.11785424909E+04  0.11785424909E+04  0.00000000000E+00 0.  1.
         21   -1    0    0  502  503 -0.00000000000E+00 -0.00000000000E+00 -0.21102610123E+03  0.21102610123E+03  0.00000000000E+00 0. -1.
    9000005    1    1    2  501    0 -0.18615744685E+03 -0.42937423987E+02  0.80207925571E+03  0.91642203697E+03  0.40000000000E+03 0.  1.
   -9000005    1    1    2    0  503  0.18615744685E+03  0.42937423987E+02  0.16543713399E+03  0.47314655520E+03  0.40000000000E+03 0. -1.
<mgrwt>
<rscale>  2 0.44328119E+03</rscale>
<asrwt>0</asrwt>
<pdfrwt beam="1">  1       21 0.18131422E+00 0.44328119E+03</pdfrwt>
<pdfrwt beam="2">  1       21 0.32465555E-01 0.44328119E+03</pdfrwt>
<totfact> 0.13772896E+03</totfact>
</mgrwt>
</event>
<event>
 4    1  0.8722554E-003  0.4168835E+03  0.7818608E-02  0.1038085E+00
         21   -1    0    0  503  502  0.00000000000E+00  0.00000000000E+00  0.24208553785E+03  0.24208553785E+03  0.00000000000E+00 0.  1.
         21   -1    0    0  501  503 -0.00000000000E+00 -0.00000000000E+00 -0.75985207172E+03  0.75985207172E+03  0.00000000000E+00 0.  1.
    9000005    1    1    2  501    0  0.83800164518E+02 -0.82276272911E+02 -0.14116283892E+03  0.44013497901E+03  0.40000000000E+03 0.  1.
   -9000005    1    1    2    0  502 -0.83800164518E+02  0.82276272911E+02 -0.37660369495E+03  0.56180263056E+03  0.40000000000E+03 0.  1.
<mgrwt>
<rscale>  2 0.41688350E+03</rscale>
<asrwt>0</asrwt>
<pdfrwt beam="1">  1       21 0.37243929E-01 0.41688350E+03</pdfrwt>
<pdfrwt beam="2">  1       21 0.11690032E+00 0.41688350E+03</pdfrwt>
<totfact> 0.34488633E+03</totfact>
</mgrwt>
</event>
<event>
 4    1  0.8722554E-003  0.4473854E+03  0.7818608E-02  0.1028505E+00
         21   -1    0    0  503  502  0.00000000000E+00  0.00000000000E+00  0.12207890350E+04  0.12207890350E+04  0.00000000000E+00 0. -1.
         21   -1    0    0  501  503 -0.00000000000E+00 -0.00000000000E+00 -0.33857964309E+03  0.33857964309E+03  0.00000000000E+00 0. -1.
    9000005    1    1    2  501    0 -0.45854014059E+02  0.19506687770E+03 -0.11883590465E+03  0.46289917867E+03  0.40000000000E+03 0. -1.
   -9000005    1    1    2    0  502  0.45854014059E+02 -0.19506687770E+03  0.10010452966E+04  0.10964694994E+04  0.40000000000E+03 0. -1.
<mgrwt>
<rscale>  2 0.44738538E+03</rscale>
<asrwt>0</asrwt>
<pdfrwt beam="1">  1       21 0.18781370E+00 0.44738538E+03</pdfrwt>
<pdfrwt beam="2">  1       21 0.52089177E-01 0.44738538E+03</pdfrwt>
<totfact> 0.46581650E+02</totfact>
</mgrwt>
</event>
<event>
 4    1  0.8722554E-003  0.4207370E+03  0.7818608E-02  0.1036827E+00
         21   -1    0    0  503  502  0.00000000000E+00  0.00000000000E+00  0.11123529209E+03  0.11123529209E+03  0.00000000000E+00 0.  1.
         21   -1    0    0  501  503 -0.00000000000E+00 -0.00000000000E+00 -0.16252598097E+04  0.16252598097E+04  0.00000000000E+00 0.  1.
    9000005    1    1    2  501    0  0.11641656750E+03  0.58879811265E+02 -0.63168785811E+03  0.75897905073E+03  0.40000000000E+03 0.  1.
   -9000005    1    1    2    0  502 -0.11641656750E+03 -0.58879811265E+02 -0.88233665946E+03  0.97751605102E+03  0.40000000000E+03 0.  1.
<mgrwt>
<rscale>  2 0.42073703E+03</rscale>
<asrwt>0</asrwt>
<pdfrwt beam="1">  1       21 0.17113123E-01 0.42073703E+03</pdfrwt>
<pdfrwt beam="2">  1       21 0.25003995E+00 0.42073703E+03</pdfrwt>
<totfact> 0.17234108E+03</totfact>
</mgrwt>
</event>
<event>
 4    1  0.8722554E-003  0.4360195E+03  0.7818608E-02  0.1031975E+00
         21   -1    0    0  501  502  0.00000000000E+00  0.00000000000E+00  0.18949548424E+03  0.18949548424E+03  0.00000000000E+00 0.  1.
         21   -1    0    0  502  503 -0.00000000000E+00 -0.00000000000E+00 -0.10266528293E+04  0.10266528293E+04  0.00000000000E+00 0.  1.
    9000005    1    1    2  501    0  0.89111207278E+02  0.14890342477E+03 -0.51036881203E+03  0.67125953361E+03  0.40000000000E+03 0.  1.
   -9000005    1    1    2    0  503 -0.89111207278E+02 -0.14890342477E+03 -0.32678853304E+03  0.54488877993E+03  0.40000000000E+03 0.  1.
<mgrwt>
<rscale>  2 0.43601954E+03</rscale>
<asrwt>0</asrwt>
<pdfrwt beam="1">  1       21 0.29153151E-01 0.43601954E+03</pdfrwt>
<pdfrwt beam="2">  1       21 0.15794659E+00 0.43601954E+03</pdfrwt>
<totfact> 0.25346302E+03</totfact>
</mgrwt>
</event>
<event>
 4    1  0.8722554E-003  0.4606116E+03  0.7818608E-02  0.1024604E+00
         21   -1    0    0  503  502  0.00000000000E+00  0.00000000000E+00  0.24806098328E+03  0.24806098328E+03  0.00000000000E+00 0. -1.
         21   -1    0    0  501  503 -0.00000000000E+00 -0.00000000000E+00 -0.10294549447E+04  0.10294549447E+04  0.00000000000E+00 0. -1.
    9000005    1    1    2  501    0  0.15595300120E+03  0.16685833556E+03 -0.65343216434E+03  0.79946021548E+03  0.40000000000E+03 0. -1.
   -9000005    1    1    2    0  502 -0.15595300120E+03 -0.16685833556E+03 -0.12796179704E+03  0.47805571248E+03  0.40000000000E+03 0. -1.
<mgrwt>
<rscale>  2 0.46061160E+03</rscale>
<asrwt>0</asrwt>
<pdfrwt beam="1">  1       21 0.38163227E-01 0.46061160E+03</pdfrwt>
<pdfrwt beam="2">  1       21 0.15837769E+00 0.46061160E+03</pdfrwt>
<totfact> 0.14486638E+03</totfact>
</mgrwt>
</event>
<event>
 4    1  0.8722554E-003  0.4914641E+03  0.7818608E-02  0.1016031E+00
         21   -1    0    0  501  502  0.00000000000E+00  0.00000000000E+00  0.60377851986E+03  0.60377851986E+03  0.00000000000E+00 0.  1.
         21   -1    0    0  502  503 -0.00000000000E+00 -0.00000000000E+00 -0.40199928247E+03  0.40199928247E+03  0.00000000000E+00 0.  1.
    9000005    1    1    2  501    0  0.11011304682E+01 -0.28554458086E+03  0.65801671757E+02  0.49584955395E+03  0.40000000000E+03 0.  1.
   -9000005    1    1    2    0  503 -0.11011304682E+01  0.28554458086E+03  0.13597756563E+03  0.50992824838E+03  0.40000000000E+03 0.  1.
<mgrwt>
<rscale>  2 0.49146406E+03</rscale>
<asrwt>0</asrwt>
<pdfrwt beam="1">  1       21 0.92889002E-01 0.49146406E+03</pdfrwt>
<pdfrwt beam="2">  1       21 0.61846044E-01 0.49146406E+03</pdfrwt>
<totfact> 0.20157753E+03</totfact>
</mgrwt>
</event>
<event>
 4    1  0.8722554E-003  0.4669334E+03  0.7818608E-02  0.1022789E+00
         21   -1    0    0  501  502  0.00000000000E+00  0.00000000000E+00  0.20240291648E+04  0.20240291648E+04  0.00000000000E+00 0. -1.
         21   -1    0    0  502  503 -0.00000000000E+00 -0.00000000000E+00 -0.10923995032E+03  0.10923995032E+03  0.00000000000E+00 0. -1.
    9000005    1    1    2  501    0 -0.21675636555E+03  0.10508790598E+03  0.10832450471E+04  0.11795959571E+04  0.40000000000E+03 0. -1.
   -9000005    1    1    2    0  503  0.21675636555E+03 -0.10508790598E+03  0.83154416740E+03  0.95367315802E+03  0.40000000000E+03 0. -1.
<mgrwt>
<rscale>  2 0.46693339E+03</rscale>
<asrwt>0</asrwt>
<pdfrwt beam="1">  1       21 0.31138907E+00 0.46693339E+03</pdfrwt>
<pdfrwt beam="2">  1       21 0.16806148E-01 0.46693339E+03</pdfrwt>
<totfact> 0.74131644E+02</totfact>
</mgrwt>
</event>
<event>
 4    1  0.8722554E-003  0.4774072E+03  0.7818608E-02  0.1019850E+00
         21   -1    0    0  501  502  0.00000000000E+00  0.00000000000E+00  0.44161777066E+03  0.44161777066E+03  0.00000000000E+00 0.  1.
         21   -1    0    0  502  503 -0.00000000000E+00 -0.00000000000E+00 -0.58726625160E+03  0.58726625160E+03  0.00000000000E+00 0. -1.
    9000005    1    1    2  501    0  0.23866160672E+03 -0.10468172365E+03  0.10626313510E+03  0.48909046164E+03  0.40000000000E+03 0.  1.
   -9000005    1    1    2    0  503 -0.23866160672E+03  0.10468172365E+03 -0.25191161605E+03  0.53979356062E+03  0.40000000000E+03 0. -1.
<mgrwt>
<rscale>  2 0.47740719E+03</rscale>
<asrwt>0</asrwt>
<pdfrwt beam="1">  1       21 0.67941196E-01 0.47740719E+03</pdfrwt>
<pdfrwt beam="2">  1       21 0.90348653E-01 0.47740719E+03</pdfrwt>
<totfact> 0.17557509E+03</totfact>
</mgrwt>
</event>
<event>
 4    1  0.8722554E-003  0.4198054E+03  0.7818608E-02  0.1037130E+00
         21   -1    0    0  501  502  0.00000000000E+00  0.00000000000E+00  0.19184930708E+03  0.19184930708E+03  0.00000000000E+00 0.  1.
         21   -1    0    0  502  503 -0.00000000000E+00 -0.00000000000E+00 -0.11349715982E+04  0.11349715982E+04  0.00000000000E+00 0.  1.
    9000005    1    1    2  501    0 -0.11835870947E+03  0.47199384732E+02 -0.76120885569E+03  0.86929597262E+03  0.40000000000E+03 0.  1.
   -9000005    1    1    2    0  503  0.11835870947E+03 -0.47199384732E+02 -0.18191343544E+03  0.45752493268E+03  0.40000000000E+03 0.  1.
<mgrwt>
<rscale>  2 0.41980539E+03</rscale>
<asrwt>0</asrwt>
<pdfrwt beam="1">  1       21 0.29515278E-01 0.41980539E+03</pdfrwt>
<pdfrwt beam="2">  1       21 0.17461102E+00 0.41980539E+03</pdfrwt>
<totfact> 0.18769660E+03</totfact>
</mgrwt>
</event>
<event>
 4    1  0.8722554E-003  0.7035516E+03  0.7818608E-02  0.9711178E-01
         21   -1    0    0  503  502  0.00000000000E+00  0.00000000000E+00  0.30594731843E+03  0.30594731843E+03  0.00000000000E+00 0.  1.
         21   -1    0    0  501  503 -0.00000000000E+00 -0.00000000000E+00 -0.17218238759E+04  0.17218238759E+04  0.00000000000E+00 0. -1.
    9000005    1    1    2  501    0 -0.51239872398E+03 -0.26913259959E+03 -0.95705478509E+03  0.11878293944E+04  0.40000000000E+03 0. -1.
   -9000005    1    1    2    0  502  0.51239872398E+03  0.26913259959E+03 -0.45882177242E+03  0.83994179998E+03  0.40000000000E+03 0.  1.
<mgrwt>
<rscale>  2 0.70355157E+03</rscale>
<asrwt>0</asrwt>
<pdfrwt beam="1">  1       21 0.47068818E-01 0.70355157E+03</pdfrwt>
<pdfrwt beam="2">  1       21 0.26489598E+00 0.70355157E+03</pdfrwt>
<totfact> 0.16562457E+02</totfact>
</mgrwt>
</event>
<event>
 4    1  0.8722554E-003  0.4498670E+03  0.7818608E-02  0.1027762E+00
         21   -1    0    0  501  502  0.00000000000E+00  0.00000000000E+00  0.78164174979E+03  0.78164174979E+03  0.00000000000E+00 0. -1.
         21   -1    0    0  502  503 -0.00000000000E+00 -0.00000000000E+00 -0.56196544152E+03  0.56196544152E+03  0.00000000000E+00 0. -1.
    9000005    1    1    2  501    0 -0.96145863453E+02 -0.18203375745E+03  0.60317501510E+03  0.75246289925E+03  0.40000000000E+03 0. -1.
   -9000005    1    1    2    0  503  0.96145863453E+02  0.18203375745E+03 -0.38349870683E+03  0.59114429207E+03  0.40000000000E+03 0. -1.
<mgrwt>
<rscale>  2 0.44986700E+03</rscale>
<asrwt>0</asrwt>
<pdfrwt beam="1">  1       21 0.12025258E+00 0.44986700E+03</pdfrwt>
<pdfrwt beam="2">  1       21 0.86456221E-01 0.44986700E+03</pdfrwt>
<totfact> 0.50648153E+02</totfact>
</mgrwt>
</event>
<event>
 4    1  0.8722554E-003  0.4208018E+03  0.7818608E-02  0.1036806E+00
         21   -1    0    0  503  502  0.00000000000E+00  0.00000000000E+00  0.28093385530E+03  0.28093385530E+03  0.00000000000E+00 0.  1.
         21   -1    0    0  501  503 -0.00000000000E+00 -0.00000000000E+00 -0.68113016111E+03  0.68113016111E+03  0.00000000000E+00 0.  1.
    9000005    1    1    2  501    0  0.12078613133E+03  0.49848600865E+02 -0.33149831038E+03  0.53569142453E+03  0.40000000000E+03 0.  1.
   -9000005    1    1    2    0  502 -0.12078613133E+03 -0.49848600865E+02 -0.68697995433E+02  0.42637259188E+03  0.40000000000E+03 0.  1.
<mgrwt>
<rscale>  2 0.42080182E+03</rscale>
<asrwt>0</asrwt>
<pdfrwt beam="1">  1       21 0.43220594E-01 0.42080182E+03</pdfrwt>
<pdfrwt beam="2">  1       21 0.10478925E+00 0.42080182E+03</pdfrwt>
<totfact> 0.33248891E+03</totfact>
</mgrwt>
</event>
<event>
 4    1  0.8722554E-003  0.4714063E+03  0.7818608E-02  0.1021524E+00
         21   -1    0    0  503  502  0.00000000000E+00  0.00000000000E+00  0.57216634965E+03  0.57216634965E+03  0.00000000000E+00 0. -1.
         21   -1    0    0  501  503 -0.00000000000E+00 -0.00000000000E+00 -0.47103591099E+03  0.47103591099E+03  0.00000000000E+00 0. -1.
    9000005    1    1    2  501    0 -0.24861647873E+03 -0.20340191002E+02 -0.16791963450E+03  0.50042070353E+03  0.40000000000E+03 0. -1.
   -9000005    1    1    2    0  502  0.24861647873E+03  0.20340191002E+02  0.26905007317E+03  0.54278155711E+03  0.40000000000E+03 0. -1.
<mgrwt>
<rscale>  2 0.47140628E+03</rscale>
<asrwt>0</asrwt>
<pdfrwt beam="1">  1       21 0.88025592E-01 0.47140628E+03</pdfrwt>
<pdfrwt beam="2">  1       21 0.72467063E-01 0.47140628E+03</pdfrwt>
<totfact> 0.16181419E+03</totfact>
</mgrwt>
</event>
<event>
 4    1  0.8722554E-003  0.4098770E+03  0.7818608E-02  0.1040412E+00
         21   -1    0    0  501  502  0.00000000000E+00  0.00000000000E+00  0.95907654378E+03  0.95907654378E+03  0.00000000000E+00 0. -1.
         21   -1    0    0  502  503 -0.00000000000E+00 -0.00000000000E+00 -0.17516941071E+03  0.17516941071E+03  0.00000000000E+00 0. -1.
    9000005    1    1    2  501    0 -0.86379414083E+02  0.23189890829E+02  0.39015017042E+03  0.56587660289E+03  0.40000000000E+03 0. -1.
   -9000005    1    1    2    0  503  0.86379414083E+02 -0.23189890829E+02  0.39375696265E+03  0.56836935161E+03  0.40000000000E+03 0. -1.
<mgrwt>
<rscale>  2 0.40987702E+03</rscale>
<asrwt>0</asrwt>
<pdfrwt beam="1">  1       21 0.14755023E+00 0.40987702E+03</pdfrwt>
<pdfrwt beam="2">  1       21 0.26949141E-01 0.40987702E+03</pdfrwt>
<totfact> 0.36004058E+03</totfact>
</mgrwt>
</event>
<event>
 4    1  0.8722554E-003  0.5506838E+03  0.7818608E-02  0.1001336E+00
         21   -1    0    0  503  502  0.00000000000E+00  0.00000000000E+00  0.26807315271E+04  0.26807315271E+04  0.00000000000E+00 0.  1.
         21   -1    0    0  501  503 -0.00000000000E+00 -0.00000000000E+00 -0.11381222395E+03  0.11381222395E+03  0.00000000000E+00 0. -1.
    9000005    1    1    2  501    0  0.21136554713E+03  0.31397006757E+03  0.13921879301E+04  0.14971438911E+04  0.40000000000E+03 0. -1.
   -9000005    1    1    2    0  502 -0.21136554713E+03 -0.31397006757E+03  0.11747313731E+04  0.12973998600E+04  0.40000000000E+03 0.  1.
<mgrwt>
<rscale>  2 0.55068375E+03</rscale>
<asrwt>0</asrwt>
<pdfrwt beam="1">  1       21 0.41242019E+00 0.55068375E+03</pdfrwt>
<pdfrwt beam="2">  1       21 0.17509575E-01 0.55068375E+03</pdfrwt>
<totfact> 0.15348426E+02</totfact>
</mgrwt>
</event>
<event>
 4    1  0.8722554E-003  0.4299232E+03  0.7818608E-02  0.1033884E+00
         21   -1    0    0  501  502  0.00000000000E+00  0.00000000000E+00  0.11820564401E+04  0.11820564401E+04  0.00000000000E+00 0. -1.
         21   -1    0    0  502  503 -0.00000000000E+00 -0.00000000000E+00 -0.17410070893E+03  0.17410070893E+03  0.00000000000E+00 0. -1.
    9000005    1    1    2  501    0  0.10672052921E+03  0.11595114651E+03  0.72039247764E+03  0.83892744715E+03  0.40000000000E+03 0. -1.
   -9000005    1    1    2    0  503 -0.10672052921E+03 -0.11595114651E+03  0.28756325353E+03  0.51722970189E+03  0.40000000000E+03 0. -1.
<mgrwt>
<rscale>  2 0.42992318E+03</rscale>
<asrwt>0</asrwt>
<pdfrwt beam="1">  1       21 0.18185483E+00 0.42992318E+03</pdfrwt>
<pdfrwt beam="2">  1       21 0.26784725E-01 0.42992318E+03</pdfrwt>
<totfact> 0.20105535E+03</totfact>
</mgrwt>
</event>
<event>
 4    1  0.8722554E-003  0.5050748E+03  0.7818608E-02  0.1012463E+00
         21   -1    0    0  501  502  0.00000000000E+00  0.00000000000E+00  0.64278765069E+03  0.64278765069E+03  0.00000000000E+00 0.  1.
         21   -1    0    0  502  503 -0.00000000000E+00 -0.00000000000E+00 -0.55115295355E+03  0.55115295355E+03  0.00000000000E+00 0. -1.
    9000005    1    1    2  501    0  0.24531540038E+03 -0.18687147355E+03  0.36166757624E+03  0.62121174248E+03  0.40000000000E+03 0.  1.
   -9000005    1    1    2    0  503 -0.24531540038E+03  0.18687147355E+03 -0.27003287910E+03  0.57272886175E+03  0.40000000000E+03 0. -1.
<mgrwt>
<rscale>  2 0.50507484E+03</rscale>
<asrwt>0</asrwt>
<pdfrwt beam="1">  1       21 0.98890407E-01 0.50507484E+03</pdfrwt>
<pdfrwt beam="2">  1       21 0.84792763E-01 0.50507484E+03</pdfrwt>
<totfact> 0.84207801E+02</totfact>
</mgrwt>
</event>
<event>
 4    1  0.8722554E-003  0.4584148E+03  0.7818608E-02  0.1025242E+00
         21   -1    0    0  503  502  0.00000000000E+00  0.00000000000E+00  0.15311582362E+04  0.15311582362E+04  0.00000000000E+00 0.  1.
         21   -1    0    0  501  503 -0.00000000000E+00 -0.00000000000E+00 -0.22832936708E+03  0.22832936708E+03  0.00000000000E+00 0.  1.
    9000005    1    1    2  501    0 -0.44989145815E+02  0.21936304472E+03  0.95770348196E+02  0.46831199881E+03  0.40000000000E+03 0.  1.
   -9000005    1    1    2    0  502  0.44989145815E+02 -0.21936304472E+03  0.12070585209E+04  0.12911756044E+04  0.40000000000E+03 0.  1.
<mgrwt>
<rscale>  2 0.45841484E+03</rscale>
<asrwt>0</asrwt>
<pdfrwt beam="1">  1       21 0.23556280E+00 0.45841484E+03</pdfrwt>
<pdfrwt beam="2">  1       21 0.35127596E-01 0.45841484E+03</pdfrwt>
<totfact> 0.51336999E+02</totfact>
</mgrwt>
</event>
<event>
 4    1  0.8722554E-003  0.4573998E+03  0.7818608E-02  0.1025538E+00
         21   -1    0    0  501  502  0.00000000000E+00  0.00000000000E+00  0.28202824665E+04  0.28202824665E+04  0.00000000000E+00 0. -1.
         21   -1    0    0  502  503 -0.00000000000E+00 -0.00000000000E+00 -0.74705964694E+02  0.74705964694E+02  0.00000000000E+00 0.  1.
    9000005    1    1    2  501    0 -0.19642965505E+03 -0.10310172465E+03  0.14939970659E+04  0.15624473777E+04  0.40000000000E+03 0.  1.
   -9000005    1    1    2    0  503  0.19642965505E+03  0.10310172465E+03  0.12515794359E+04  0.13325410536E+04  0.40000000000E+03 0.  1.
<mgrwt>
<rscale>  2 0.45739980E+03</rscale>
<asrwt>0</asrwt>
<pdfrwt beam="1">  1       21 0.43388953E+00 0.45739980E+03</pdfrwt>
<pdfrwt beam="2">  1       21 0.11493228E-01 0.45739980E+03</pdfrwt>
<totfact> 0.25540277E+02</totfact>
</mgrwt>
</event>
<event>
 4    1  0.8722554E-003  0.4658679E+03  0.7818608E-02  0.1023093E+00
         21   -1    0    0  501  502  0.00000000000E+00  0.00000000000E+00  0.81448107954E+02  0.81448107954E+02  0.00000000000E+00 0. -1.
         21   -1    0    0  502  503 -0.00000000000E+00 -0.00000000000E+00 -0.34775177917E+04  0.34775177917E+04  0.00000000000E+00 0. -1.
    9000005    1    1    2  501    0 -0.20496084424E+03  0.12257226570E+03 -0.83771117618E+03  0.95853686559E+03  0.40000000000E+03 0. -1.
   -9000005    1    1    2    0  503  0.20496084424E+03 -0.12257226570E+03 -0.25583585076E+04  0.26004290341E+04  0.40000000000E+03 0. -1.
<mgrwt>
<rscale>  2 0.46586791E+03</rscale>
<asrwt>0</asrwt>
<pdfrwt beam="1">  1       21 0.12530478E-01 0.46586791E+03</pdfrwt>
<pdfrwt beam="2">  1       21 0.53500276E+00 0.46586791E+03</pdfrwt>
<totfact> 0.42267946E+01</totfact>
</mgrwt>
</event>
<event>
 4    1  0.8722554E-003  0.4682951E+03  0.7818608E-02  0.1022403E+00
         21   -1    0    0  503  502  0.00000000000E+00  0.00000000000E+00  0.29564330195E+03  0.29564330195E+03  0.00000000000E+00 0.  1.
         21   -1    0    0  501  503 -0.00000000000E+00 -0.00000000000E+00 -0.77883912055E+03  0.77883912055E+03  0.00000000000E+00 0. -1.
    9000005    1    1    2  501    0  0.15362328171E+03  0.18894481081E+03 -0.35879944711E+03  0.58994685986E+03  0.40000000000E+03 0. -1.
   -9000005    1    1    2    0  502 -0.15362328171E+03 -0.18894481081E+03 -0.12439637150E+03  0.48453556264E+03  0.40000000000E+03 0.  1.
<mgrwt>
<rscale>  2 0.46829505E+03</rscale>
<asrwt>0</asrwt>
<pdfrwt beam="1">  1       21 0.45483585E-01 0.46829505E+03</pdfrwt>
<pdfrwt beam="2">  1       21 0.11982140E+00 0.46829505E+03</pdfrwt>
<totfact> 0.21025744E+03</totfact>
</mgrwt>
</event>
<event>
 4    1  0.8722554E-003  0.5553949E+03  0.7818608E-02  0.1000253E+00
         21   -1    0    0  501  502  0.00000000000E+00  0.00000000000E+00  0.38065023605E+03  0.38065023605E+03  0.00000000000E+00 0. -1.
         21   -1    0    0  502  503 -0.00000000000E+00 -0.00000000000E+00 -0.11094465129E+04  0.11094465129E+04  0.00000000000E+00 0. -1.
    9000005    1    1    2  501    0  0.38530336829E+03  0.21845163218E+01  0.22440825768E+02  0.55584804433E+03  0.40000000000E+03 0. -1.
   -9000005    1    1    2    0  503 -0.38530336829E+03 -0.21845163218E+01 -0.75123710263E+03  0.93424870463E+03  0.40000000000E+03 0. -1.
<mgrwt>
<rscale>  2 0.55539487E+03</rscale>
<asrwt>0</asrwt>
<pdfrwt beam="1">  1       21 0.58561575E-01 0.55539487E+03</pdfrwt>
<pdfrwt beam="2">  1       21 0.17068408E+00 0.55539487E+03</pdfrwt>
<totfact> 0.45642485E+02</totfact>
</mgrwt>
</event>
<event>
 4    1  0.8722554E-003  0.5375359E+03  0.7818608E-02  0.1004421E+00
         21   -1    0    0  503  502  0.00000000000E+00  0.00000000000E+00  0.47553796120E+03  0.47553796120E+03  0.00000000000E+00 0.  1.
         21   -1    0    0  501  503 -0.00000000000E+00 -0.00000000000E+00 -0.63130867640E+03  0.63130867640E+03  0.00000000000E+00 0.  1.
    9000005    1    1    2  501    0  0.34596367100E+03  0.96197661969E+02  0.29324902980E+02  0.53833521319E+03  0.40000000000E+03 0.  1.
   -9000005    1    1    2    0  502 -0.34596367100E+03 -0.96197661969E+02 -0.18509561818E+03  0.56851142442E+03  0.40000000000E+03 0.  1.
<mgrwt>
<rscale>  2 0.53753591E+03</rscale>
<asrwt>0</asrwt>
<pdfrwt beam="1">  1       21 0.73159687E-01 0.53753591E+03</pdfrwt>
<pdfrwt beam="2">  1       21 0.97124411E-01 0.53753591E+03</pdfrwt>
<totfact> 0.12233134E+03</totfact>
</mgrwt>
</event>
<event>
 4    1  0.8722554E-003  0.6313536E+03  0.7818608E-02  0.9842411E-01
         21   -1    0    0  503  502  0.00000000000E+00  0.00000000000E+00  0.42291184191E+03  0.42291184191E+03  0.00000000000E+00 0. -1.
         21   -1    0    0  501  503 -0.00000000000E+00 -0.00000000000E+00 -0.10819244033E+04  0.10819244033E+04  0.00000000000E+00 0.  1.
    9000005    1    1    2  501    0 -0.29999150470E+03 -0.38550287127E+03 -0.59958008954E+03  0.87069147832E+03  0.40000000000E+03 0.  1.
   -9000005    1    1    2    0  502  0.29999150470E+03  0.38550287127E+03 -0.59432471836E+02  0.63414476688E+03  0.40000000000E+03 0. -1.
<mgrwt>
<rscale>  2 0.63135360E+03</rscale>
<asrwt>0</asrwt>
<pdfrwt beam="1">  1       21 0.65063362E-01 0.63135360E+03</pdfrwt>
<pdfrwt beam="2">  1       21 0.16644990E+00 0.63135360E+03</pdfrwt>
<totfact> 0.37804227E+02</totfact>
</mgrwt>
</event>
<event>
 4    1  0.8722554E-003  0.4915105E+03  0.7818608E-02  0.1016019E+00
         21   -1    0    0  501  502  0.00000000000E+00  0.00000000000E+00  0.23988622414E+03  0.23988622414E+03  0.00000000000E+00 0. -1.
         21   -1    0    0  502  503 -0.00000000000E+00 -0.00000000000E+00 -0.10111476192E+04  0.10111476192E+04  0.00000000000E+00 0. -1.
    9000005    1    1    2  501    0  0.28515155160E+03 -0.16468119424E+02 -0.42534521377E+03  0.65000089017E+03  0.40000000000E+03 0. -1.
   -9000005    1    1    2    0  503 -0.28515155160E+03  0.16468119424E+02 -0.34591618131E+03  0.60103295319E+03  0.40000000000E+03 0. -1.
<mgrwt>
<rscale>  2 0.49151054E+03</rscale>
<asrwt>0</asrwt>
<pdfrwt beam="1">  1       21 0.36905573E-01 0.49151054E+03</pdfrwt>
<pdfrwt beam="2">  1       21 0.15556117E+00 0.49151054E+03</pdfrwt>
<totfact> 0.16108793E+03</totfact>
</mgrwt>
</event>
<event>
 4    1  0.8722554E-003  0.4042529E+03  0.7818608E-02  0.1042317E+00
         21   -1    0    0  501  502  0.00000000000E+00  0.00000000000E+00  0.30541177976E+03  0.30541177976E+03  0.00000000000E+00 0.  1.
         21   -1    0    0  502  503 -0.00000000000E+00 -0.00000000000E+00 -0.58585510470E+03  0.58585510470E+03  0.00000000000E+00 0.  1.
    9000005    1    1    2  501    0 -0.14735300432E+01 -0.58465675239E+02 -0.90322829187E+01  0.40435379138E+03  0.40000000000E+03 0.  1.
   -9000005    1    1    2    0  503  0.14735300432E+01  0.58465675239E+02 -0.27141104202E+03  0.48691309307E+03  0.40000000000E+03 0.  1.
<mgrwt>
<rscale>  2 0.40425290E+03</rscale>
<asrwt>0</asrwt>
<pdfrwt beam="1">  1       21 0.46986428E-01 0.40425290E+03</pdfrwt>
<pdfrwt beam="2">  1       21 0.90131554E-01 0.40425290E+03</pdfrwt>
<totfact> 0.40380996E+03</totfact>
</mgrwt>
</event>
<event>
 4    1  0.8722554E-003  0.4414131E+03  0.7818608E-02  0.1030314E+00
         21   -1    0    0  503  502  0.00000000000E+00  0.00000000000E+00  0.21432608938E+03  0.21432608938E+03  0.00000000000E+00 0.  1.
         21   -1    0    0  501  503 -0.00000000000E+00 -0.00000000000E+00 -0.16592047342E+04  0.16592047342E+04  0.00000000000E+00 0.  1.
    9000005    1    1    2  501    0  0.10161386275E+03 -0.15658910489E+03 -0.13522928208E+04  0.14225123543E+04  0.40000000000E+03 0.  1.
   -9000005    1    1    2    0  502 -0.10161386275E+03  0.15658910489E+03 -0.92585824069E+02  0.45101846935E+03  0.40000000000E+03 0.  1.
<mgrwt>
<rscale>  2 0.44141310E+03</rscale>
<asrwt>0</asrwt>
<pdfrwt beam="1">  1       21 0.32973245E-01 0.44141310E+03</pdfrwt>
<pdfrwt beam="2">  1       21 0.25526226E+00 0.44141310E+03</pdfrwt>
<totfact> 0.44480603E+02</totfact>
</mgrwt>
</event>
<event>
 4    1  0.8722554E-003  0.5470779E+03  0.7818608E-02  0.1002173E+00
         21   -1    0    0  503  502  0.00000000000E+00  0.00000000000E+00  0.20094174414E+03  0.20094174414E+03  0.00000000000E+00 0.  1.
         21   -1    0    0  501  503 -0.00000000000E+00 -0.00000000000E+00 -0.15094712506E+04  0.15094712506E+04  0.00000000000E+00 0.  1.
    9000005    1    1    2  501    0 -0.31928104791E+03  0.19327140402E+03 -0.55579090622E+03  0.77987034474E+03  0.40000000000E+03 0.  1.
   -9000005    1    1    2    0  502  0.31928104791E+03 -0.19327140402E+03 -0.75273860026E+03  0.93054265001E+03  0.40000000000E+03 0.  1.
<mgrwt>
<rscale>  2 0.54707789E+03</rscale>
<asrwt>0</asrwt>
<pdfrwt beam="1">  1       21 0.30914115E-01 0.54707789E+03</pdfrwt>
<pdfrwt beam="2">  1       21 0.23222634E+00 0.54707789E+03</pdfrwt>
<totfact> 0.66945464E+02</totfact>
</mgrwt>
</event>
<event>
 4    1  0.8722554E-003  0.5141789E+03  0.7818608E-02  0.1010143E+00
         21   -1    0    0  503  502  0.00000000000E+00  0.00000000000E+00  0.18805993420E+03  0.18805993420E+03  0.00000000000E+00 0.  1.
         21   -1    0    0  501  503 -0.00000000000E+00 -0.00000000000E+00 -0.20174442849E+04  0.20174442849E+04  0.00000000000E+00 0. -1.
    9000005    1    1    2  501    0  0.80616015844E+02 -0.31285937401E+03 -0.15218710125E+04  0.16063845457E+04  0.40000000000E+03 0. -1.
   -9000005    1    1    2    0  502 -0.80616015844E+02  0.31285937401E+03 -0.30751333822E+03  0.59911967344E+03  0.40000000000E+03 0.  1.
<mgrwt>
<rscale>  2 0.51417889E+03</rscale>
<asrwt>0</asrwt>
<pdfrwt beam="1">  1       21 0.28932300E-01 0.51417889E+03</pdfrwt>
<pdfrwt beam="2">  1       21 0.31037602E+00 0.51417889E+03</pdfrwt>
<totfact> 0.25752552E+02</totfact>
</mgrwt>
</event>
<event>
 4    1  0.8722554E-003  0.5167836E+03  0.7818608E-02  0.1009489E+00
         21   -1    0    0  503  502  0.00000000000E+00  0.00000000000E+00  0.87169220312E+03  0.87169220312E+03  0.00000000000E+00 0.  1.
         21   -1    0    0  501  503 -0.00000000000E+00 -0.00000000000E+00 -0.32747597002E+03  0.32747597002E+03  0.00000000000E+00 0. -1.
    9000005    1    1    2  501    0 -0.19830262496E+03 -0.26027161415E+03  0.42430478633E+03  0.66865521451E+03  0.40000000000E+03 0. -1.
   -9000005    1    1    2    0  502  0.19830262496E+03  0.26027161415E+03  0.11991144677E+03  0.53051295862E+03  0.40000000000E+03 0. -1.
<mgrwt>
<rscale>  2 0.51678356E+03</rscale>
<asrwt>0</asrwt>
<pdfrwt beam="1">  1       21 0.13410649E+00 0.51678356E+03</pdfrwt>
<pdfrwt beam="2">  1       21 0.50380919E-01 0.51678356E+03</pdfrwt>
<totfact> 0.12433248E+03</totfact>
</mgrwt>
</event>
<event>
 4    1  0.8722554E-003  0.4962524E+03  0.7818608E-02  0.1014762E+00
         21   -1    0    0  503  502  0.00000000000E+00  0.00000000000E+00  0.19838220223E+03  0.19838220223E+03  0.00000000000E+00 0.  1.
         21   -1    0    0  501  503 -0.00000000000E+00 -0.00000000000E+00 -0.12454615732E+04  0.12454615732E+04  0.00000000000E+00 0.  1.
    9000005    1    1    2  501    0  0.14067179884E+03 -0.25783309941E+03 -0.56489868920E+03  0.75191554792E+03  0.40000000000E+03 0.  1.
   -9000005    1    1    2    0  502 -0.14067179884E+03  0.25783309941E+03 -0.48218068176E+03  0.69192822749E+03  0.40000000000E+03 0.  1.
<mgrwt>
<rscale>  2 0.49625242E+03</rscale>
<asrwt>0</asrwt>
<pdfrwt beam="1">  1       21 0.30520339E-01 0.49625242E+03</pdfrwt>
<pdfrwt beam="2">  1       21 0.19160947E+00 0.49625242E+03</pdfrwt>
<totfact> 0.12934996E+03</totfact>
</mgrwt>
</event>
<event>
 4    1  0.8722554E-003  0.5198947E+03  0.7818608E-02  0.1008713E+00
         21   -1    0    0  501  502  0.00000000000E+00  0.00000000000E+00  0.41832753063E+03  0.41832753063E+03  0.00000000000E+00 0. -1.
         21   -1    0    0  502  503 -0.00000000000E+00 -0.00000000000E+00 -0.97531401307E+03  0.97531401307E+03  0.00000000000E+00 0. -1.
    9000005    1    1    2  501    0  0.15414039808E+03 -0.29416186284E+03  0.12633774684E+03  0.53502494348E+03  0.40000000000E+03 0. -1.
   -9000005    1    1    2    0  503 -0.15414039808E+03  0.29416186284E+03 -0.68332422928E+03  0.85861660023E+03  0.40000000000E+03 0. -1.
<mgrwt>
<rscale>  2 0.51989467E+03</rscale>
<asrwt>0</asrwt>
<pdfrwt beam="1">  1       21 0.64358082E-01 0.51989467E+03</pdfrwt>
<pdfrwt beam="2">  1       21 0.15004831E+00 0.51989467E+03</pdfrwt>
<totfact> 0.53893088E+02</totfact>
</mgrwt>
</event>
<event>
 4    1  0.8722554E-003  0.4003125E+03  0.7818608E-02  0.1043672E+00
         21   -1    0    0  501  502  0.00000000000E+00  0.00000000000E+00  0.14550220818E+03  0.14550220818E+03  0.00000000000E+00 0. -1.
         21   -1    0    0  502  503 -0.00000000000E+00 -0.00000000000E+00 -0.22403517561E+04  0.22403517561E+04  0.00000000000E+00 0. -1.
    9000005    1    1    2  501    0 -0.60776090630E+01  0.14599980629E+02 -0.19684249937E+03  0.44609087227E+03  0.40000000000E+03 0. -1.
   -9000005    1    1    2    0  503  0.60776090630E+01 -0.14599980629E+02 -0.18980070486E+04  0.19397630920E+04  0.40000000000E+03 0. -1.
<mgrwt>
<rscale>  2 0.40031250E+03</rscale>
<asrwt>0</asrwt>
<pdfrwt beam="1">  1       21 0.22384954E-01 0.40031250E+03</pdfrwt>
<pdfrwt beam="2">  1       21 0.34466952E+00 0.40031250E+03</pdfrwt>
<totfact> 0.28217338E+02</totfact>
</mgrwt>
</event>
<event>
 4    1  0.8722554E-003  0.5078871E+03  0.7818608E-02  0.1011741E+00
         21   -1    0    0  503  502  0.00000000000E+00  0.00000000000E+00  0.97844712235E+03  0.97844712235E+03  0.00000000000E+00 0.  1.
         21   -1    0    0  501  503 -0.00000000000E+00 -0.00000000000E+00 -0.27023584568E+03  0.27023584568E+03  0.00000000000E+00 0.  1.
    9000005    1    1    2  501    0 -0.13893155336E+03 -0.28044124082E+03  0.25650045392E+03  0.56898308317E+03  0.40000000000E+03 0.  1.
   -9000005    1    1    2    0  502  0.13893155336E+03  0.28044124082E+03  0.45171082275E+03  0.67969988485E+03  0.40000000000E+03 0.  1.
<mgrwt>
<rscale>  2 0.50788706E+03</rscale>
<asrwt>0</asrwt>
<pdfrwt beam="1">  1       21 0.15053033E+00 0.50788706E+03</pdfrwt>
<pdfrwt beam="2">  1       21 0.41574746E-01 0.50788706E+03</pdfrwt>
<totfact> 0.13712503E+03</totfact>
</mgrwt>
</event>
<event>
 4    1  0.8722554E-003  0.4265568E+03  0.7818608E-02  0.1034953E+00
         21   -1    0    0  501  502  0.00000000000E+00  0.00000000000E+00  0.81578941923E+03  0.81578941923E+03  0.00000000000E+00 0. -1.
         21   -1    0    0  502  503 -0.00000000000E+00 -0.00000000000E+00 -0.27725919097E+03  0.27725919097E+03  0.00000000000E+00 0. -1.
    9000005    1    1    2  501    0 -0.14701398684E+03  0.18373709355E+02  0.51095450361E+03  0.66560138994E+03  0.40000000000E+03 0. -1.
   -9000005    1    1    2    0  503  0.14701398684E+03 -0.18373709355E+02  0.27575724653E+02  0.42744722026E+03  0.40000000000E+03 0. -1.
<mgrwt>
<rscale>  2 0.42655680E+03</rscale>
<asrwt>0</asrwt>
<pdfrwt beam="1">  1       21 0.12550606E+00 0.42655680E+03</pdfrwt>
<pdfrwt beam="2">  1       21 0.42655260E-01 0.42655680E+03</pdfrwt>
<totfact> 0.21696743E+03</totfact>
</mgrwt>
</event>
<event>
 4    1  0.8722554E-003  0.4132857E+03  0.7818608E-02  0.1039274E+00
         21   -1    0    0  503  502  0.00000000000E+00  0.00000000000E+00  0.25537591587E+04  0.25537591587E+04  0.00000000000E+00 0. -1.
         21   -1    0    0  501  503 -0.00000000000E+00 -0.00000000000E+00 -0.67297191305E+02  0.67297191305E+02  0.00000000000E+00 0.  1.
    9000005    1    1    2  501    0 -0.72054116564E+02  0.74921571478E+02  0.11405133849E+04  0.12130852479E+04  0.40000000000E+03 0.  1.
   -9000005    1    1    2    0  502  0.72054116564E+02 -0.74921571478E+02  0.13459485825E+04  0.14079711021E+04  0.40000000000E+03 0. -1.
<mgrwt>
<rscale>  2 0.41328566E+03</rscale>
<asrwt>0</asrwt>
<pdfrwt beam="1">  1       21 0.39288595E+00 0.41328566E+03</pdfrwt>
<pdfrwt beam="2">  1       21 0.10353416E-01 0.41328566E+03</pdfrwt>
<totfact> 0.58680587E+02</totfact>
</mgrwt>
</event>
<event>
 4    1  0.8722554E-003  0.4251219E+03  0.7818608E-02  0.1035412E+00
         21   -1    0    0  501  502  0.00000000000E+00  0.00000000000E+00  0.31097278895E+03  0.31097278895E+03  0.00000000000E+00 0. -1.
         21   -1    0    0  502  503 -0.00000000000E+00 -0.00000000000E+00 -0.59292417777E+03  0.59292417777E+03  0.00000000000E+00 0. -1.
    9000005    1    1    2  501    0  0.11669957379E+03  0.84319919081E+02 -0.20460406652E+03  0.47179599756E+03  0.40000000000E+03 0. -1.
   -9000005    1    1    2    0  503 -0.11669957379E+03 -0.84319919081E+02 -0.77347322300E+02  0.43210096915E+03  0.40000000000E+03 0. -1.
<mgrwt>
<rscale>  2 0.42512191E+03</rscale>
<asrwt>0</asrwt>
<pdfrwt beam="1">  1       21 0.47841968E-01 0.42512191E+03</pdfrwt>
<pdfrwt beam="2">  1       21 0.91219104E-01 0.42512191E+03</pdfrwt>
<totfact> 0.37493206E+03</totfact>
</mgrwt>
</event>
<event>
 4    1  0.8722554E-003  0.4116000E+03  0.7818608E-02  0.1039835E+00
         21   -1    0    0  503  502  0.00000000000E+00  0.00000000000E+00  0.12123952105E+04  0.12123952105E+04  0.00000000000E+00 0. -1.
         21   -1    0    0  501  503 -0.00000000000E+00 -0.00000000000E+00 -0.13997661907E+03  0.13997661907E+03  0.00000000000E+00 0. -1.
    9000005    1    1    2  501    0 -0.14027137487E+02  0.96009443870E+02  0.56427728921E+03  0.69844357898E+03  0.40000000000E+03 0. -1.
   -9000005    1    1    2    0  502  0.14027137487E+02 -0.96009443870E+02  0.50814130224E+03  0.65392825061E+03  0.40000000000E+03 0. -1.
<mgrwt>
<rscale>  2 0.41160002E+03</rscale>
<asrwt>0</asrwt>
<pdfrwt beam="1">  1       21 0.18652233E+00 0.41160002E+03</pdfrwt>
<pdfrwt beam="2">  1       21 0.21534865E-01 0.41160002E+03</pdfrwt>
<totfact> 0.28690865E+03</totfact>
</mgrwt>
</event>
<event>
 4    1  0.8722554E-003  0.5840448E+03  0.7818608E-02  0.9939072E-01
         21   -1    0    0  501  502  0.00000000000E+00  0.00000000000E+00  0.17830775201E+04  0.17830775201E+04  0.00000000000E+00 0. -1.
         21   -1    0    0  502  503 -0.00000000000E+00 -0.00000000000E+00 -0.19293855942E+03  0.19293855942E+03  0.00000000000E+00 0. -1.
    9000005    1    1    2  501    0 -0.18818053023E+03 -0.38170197793E+03  0.88603289819E+03  0.10612080892E+04  0.40000000000E+03 0. -1.
   -9000005    1    1    2    0  503  0.18818053023E+03  0.38170197793E+03  0.70410606247E+03  0.91480799030E+03  0.40000000000E+03 0. -1.
<mgrwt>
<rscale>  2 0.58404479E+03</rscale>
<asrwt>0</asrwt>
<pdfrwt beam="1">  1       21 0.27431961E+00 0.58404479E+03</pdfrwt>
<pdfrwt beam="2">  1       21 0.29682856E-01 0.58404479E+03</pdfrwt>
<totfact> 0.39209700E+02</totfact>
</mgrwt>
</event>
<event>
 4    1  0.8722554E-003  0.4640584E+03  0.7818608E-02  0.1023611E+00
         21   -1    0    0  501  502  0.00000000000E+00  0.00000000000E+00  0.13864397237E+04  0.13864397237E+04  0.00000000000E+00 0. -1.
         21   -1    0    0  502  503 -0.00000000000E+00 -0.00000000000E+00 -0.18326312144E+03  0.18326312144E+03  0.00000000000E+00 0. -1.
    9000005    1    1    2  501    0  0.23512821352E+03  0.80569362496E+01  0.90802475805E+03  0.10197348441E+04  0.40000000000E+03 0. -1.
   -9000005    1    1    2    0  503 -0.23512821352E+03 -0.80569362496E+01  0.29515184416E+03  0.54996800100E+03  0.40000000000E+03 0. -1.
<mgrwt>
<rscale>  2 0.46405839E+03</rscale>
<asrwt>0</asrwt>
<pdfrwt beam="1">  1       21 0.21329841E+00 0.46405839E+03</pdfrwt>
<pdfrwt beam="2">  1       21 0.28194327E-01 0.46405839E+03</pdfrwt>
<totfact> 0.11008750E+03</totfact>
</mgrwt>
</event>
<event>
 4    1  0.8722554E-003  0.4245386E+03  0.7818608E-02  0.1035599E+00
         21   -1    0    0  501  502  0.00000000000E+00  0.00000000000E+00  0.26181049523E+03  0.26181049523E+03  0.00000000000E+00 0. -1.
         21   -1    0    0  502  503 -0.00000000000E+00 -0.00000000000E+00 -0.94319582789E+03  0.94319582789E+03  0.00000000000E+00 0. -1.
    9000005    1    1    2  501    0 -0.74093776647E+02  0.12142145150E+03 -0.27547491904E+02  0.42543145268E+03  0.40000000000E+03 0. -1.
   -9000005    1    1    2    0  503  0.74093776647E+02 -0.12142145150E+03 -0.65383784075E+03  0.77957487044E+03  0.40000000000E+03 0. -1.
<mgrwt>
<rscale>  2 0.42453864E+03</rscale>
<asrwt>0</asrwt>
<pdfrwt beam="1">  1       21 0.40278539E-01 0.42453864E+03</pdfrwt>
<pdfrwt beam="2">  1       21 0.14510705E+00 0.42453864E+03</pdfrwt>
<totfact> 0.16710304E+03</totfact>
</mgrwt>
</event>
<event>
 4    1  0.8722554E-003  0.4318848E+03  0.7818608E-02  0.1033266E+00
         21   -1    0    0  501  502  0.00000000000E+00  0.00000000000E+00  0.80226592206E+03  0.80226592206E+03  0.00000000000E+00 0. -1.
         21   -1    0    0  502  503 -0.00000000000E+00 -0.00000000000E+00 -0.23764846612E+03  0.23764846612E+03  0.00000000000E+00 0.  1.
    9000005    1    1    2  501    0  0.11646030487E+03 -0.11384866523E+03  0.35886137203E+03  0.56152115323E+03  0.40000000000E+03 0. -1.
   -9000005    1    1    2    0  503 -0.11646030487E+03  0.11384866523E+03  0.20575608391E+03  0.47839323495E+03  0.40000000000E+03 0.  1.
<mgrwt>
<rscale>  2 0.43188485E+03</rscale>
<asrwt>0</asrwt>
<pdfrwt beam="1">  1       21 0.12342553E+00 0.43188485E+03</pdfrwt>
<pdfrwt beam="2">  1       21 0.36561303E-01 0.43188485E+03</pdfrwt>
<totfact> 0.31021812E+03</totfact>
</mgrwt>
</event>
<event>
 4    1  0.8722554E-003  0.6340909E+03  0.7818608E-02  0.9837098E-01
         21   -1    0    0  503  502  0.00000000000E+00  0.00000000000E+00  0.90937312745E+03  0.90937312745E+03  0.00000000000E+00 0. -1.
         21   -1    0    0  501  503 -0.00000000000E+00 -0.00000000000E+00 -0.57779107234E+03  0.57779107234E+03  0.00000000000E+00 0. -1.
    9000005    1    1    2  501    0  0.58917971644E+02 -0.48846690338E+03 -0.19449992238E+03  0.66325067877E+03  0.40000000000E+03 0. -1.
   -9000005    1    1    2    0  502 -0.58917971644E+02  0.48846690338E+03  0.52608197749E+03  0.82391352102E+03  0.40000000000E+03 0. -1.
<mgrwt>
<rscale>  2 0.63409088E+03</rscale>
<asrwt>0</asrwt>
<pdfrwt beam="1">  1       21 0.13990356E+00 0.63409088E+03</pdfrwt>
<pdfrwt beam="2">  1       21 0.88890934E-01 0.63409088E+03</pdfrwt>
<totfact> 0.29744631E+02</totfact>
</mgrwt>
</event>
<event>
 4    1  0.8722554E-003  0.4071581E+03  0.7818608E-02  0.1041329E+00
         21   -1    0    0  503  502  0.00000000000E+00  0.00000000000E+00  0.32789862590E+03  0.32789862590E+03  0.00000000000E+00 0. -1.
         21   -1    0    0  501  503 -0.00000000000E+00 -0.00000000000E+00 -0.66622735520E+03  0.66622735520E+03  0.00000000000E+00 0. -1.
    9000005    1    1    2  501    0  0.48369960229E+02 -0.58635352510E+02 -0.41324990752E+03  0.58013209158E+03  0.40000000000E+03 0. -1.
   -9000005    1    1    2    0  502 -0.48369960229E+02  0.58635352510E+02  0.74921178222E+02  0.41399388952E+03  0.40000000000E+03 0. -1.
<mgrwt>
<rscale>  2 0.40715815E+03</rscale>
<asrwt>0</asrwt>
<pdfrwt beam="1">  1       21 0.50445944E-01 0.40715815E+03</pdfrwt>
<pdfrwt beam="2">  1       21 0.10249651E+00 0.40715815E+03</pdfrwt>
<totfact> 0.25497179E+03</totfact>
</mgrwt>
</event>
<event>
 4    1  0.8722554E-003  0.4878260E+03  0.7818608E-02  0.1017006E+00
         21   -1    0    0  501  502  0.00000000000E+00  0.00000000000E+00  0.35277933729E+03  0.35277933729E+03  0.00000000000E+00 0.  1.
         21   -1    0    0  502  503 -0.00000000000E+00 -0.00000000000E+00 -0.75668842435E+03  0.75668842435E+03  0.00000000000E+00 0.  1.
    9000005    1    1    2  501    0  0.15226684272E+03  0.23407053653E+03 -0.19208671627E+02  0.48820403576E+03  0.40000000000E+03 0. -1.
   -9000005    1    1    2    0  503 -0.15226684272E+03 -0.23407053653E+03 -0.38470041543E+03  0.62126372588E+03  0.40000000000E+03 0. -1.
<mgrwt>
<rscale>  2 0.48782600E+03</rscale>
<asrwt>0</asrwt>
<pdfrwt beam="1">  1       21 0.54273745E-01 0.48782600E+03</pdfrwt>
<pdfrwt beam="2">  1       21 0.11641360E+00 0.48782600E+03</pdfrwt>
<totfact> 0.15417325E+03</totfact>
</mgrwt>
</event>
<event>
 4    1  0.8722554E-003  0.5524613E+03  0.7818608E-02  0.1000926E+00
         21   -1    0    0  501  502  0.00000000000E+00  0.00000000000E+00  0.31034296988E+03  0.31034296988E+03  0.00000000000E+00 0.  1.
         21   -1    0    0  502  503 -0.00000000000E+00 -0.00000000000E+00 -0.98405669280E+03  0.98405669280E+03  0.00000000000E+00 0.  1.
    9000005    1    1    2  501    0 -0.19724122577E+03 -0.32605116756E+03 -0.32107424045E+03  0.63898523683E+03  0.40000000000E+03 0.  1.
   -9000005    1    1    2    0  503  0.19724122577E+03  0.32605116756E+03 -0.35263948248E+03  0.65541442585E+03  0.40000000000E+03 0.  1.
<mgrwt>
<rscale>  2 0.55246128E+03</rscale>
<asrwt>0</asrwt>
<pdfrwt beam="1">  1       21 0.47745073E-01 0.55246128E+03</pdfrwt>
<pdfrwt beam="2">  1       21 0.15139334E+00 0.55246128E+03</pdfrwt>
<totfact> 0.99390286E+02</totfact>
</mgrwt>
</event>
<event>
 4    1  0.8722554E-003  0.4983991E+03  0.7818608E-02  0.1014198E+00
         21   -1    0    0  503  502  0.00000000000E+00  0.00000000000E+00  0.22020033724E+04  0.22020033724E+04  0.00000000000E+00 0.  1.
         21   -1    0    0  501  503 -0.00000000000E+00 -0.00000000000E+00 -0.25768220069E+03  0.25768220069E+03  0.00000000000E+00 0. -1.
    9000005    1    1    2  501    0 -0.27500418014E+03  0.11302363368E+03  0.50004906522E+02  0.50090131916E+03  0.40000000000E+03 0. -1.
   -9000005    1    1    2    0  502  0.27500418014E+03 -0.11302363368E+03  0.18943162652E+04  0.19587842539E+04  0.40000000000E+03 0.  1.
<mgrwt>
<rscale>  2 0.49839908E+03</rscale>
<asrwt>0</asrwt>
<pdfrwt beam="1">  1       21 0.33876974E+00 0.49839908E+03</pdfrwt>
<pdfrwt beam="2">  1       21 0.39643417E-01 0.49839908E+03</pdfrwt>
<totfact> 0.92353270E+01</totfact>
</mgrwt>
</event>
<event>
 4    1  0.8722554E-003  0.4390548E+03  0.7818608E-02  0.1031037E+00
         21   -1    0    0  503  502  0.00000000000E+00  0.00000000000E+00  0.76411054301E+03  0.76411054301E+03  0.00000000000E+00 0. -1.
         21   -1    0    0  501  503 -0.00000000000E+00 -0.00000000000E+00 -0.26462779806E+03  0.26462779806E+03  0.00000000000E+00 0.  1.
    9000005    1    1    2  501    0  0.70472427385E+02 -0.16674165934E+03  0.13862776827E+03  0.46042024512E+03  0.40000000000E+03 0.  1.
   -9000005    1    1    2    0  502 -0.70472427385E+02  0.16674165934E+03  0.36085497669E+03  0.56831809595E+03  0.40000000000E+03 0. -1.
<mgrwt>
<rscale>  2 0.43905483E+03</rscale>
<asrwt>0</asrwt>
<pdfrwt beam="1">  1       21 0.11755547E+00 0.43905483E+03</pdfrwt>
<pdfrwt beam="2">  1       21 0.40711969E-01 0.43905483E+03</pdfrwt>
<totfact> 0.28098167E+03</totfact>
</mgrwt>
</event>
<event>
 4    1  0.8722554E-003  0.5461128E+03  0.7818608E-02  0.1002398E+00
         21   -1    0    0  501  502  0.00000000000E+00  0.00000000000E+00  0.79240465909E+03  0.79240465909E+03  0.00000000000E+00 0.  1.
         21   -1    0    0  502  503 -0.00000000000E+00 -0.00000000000E+00 -0.51327075886E+03  0.51327075886E+03  0.00000000000E+00 0. -1.
    9000005    1    1    2  501    0 -0.16490635887E+03 -0.33323424489E+03  0.47672321955E+03  0.72491668295E+03  0.40000000000E+03 0.  1.
   -9000005    1    1    2    0  503  0.16490635887E+03  0.33323424489E+03 -0.19758931932E+03  0.58075873500E+03  0.40000000000E+03 0. -1.
<mgrwt>
<rscale>  2 0.54611278E+03</rscale>
<asrwt>0</asrwt>
<pdfrwt beam="1">  1       21 0.12190841E+00 0.54611278E+03</pdfrwt>
<pdfrwt beam="2">  1       21 0.78964732E-01 0.54611278E+03</pdfrwt>
<totfact> 0.58107948E+02</totfact>
</mgrwt>
</event>
<event>
 4    1  0.8722554E-003  0.4113761E+03  0.7818608E-02  0.1039910E+00
         21   -1    0    0  501  502  0.00000000000E+00  0.00000000000E+00  0.54257230299E+03  0.54257230299E+03  0.00000000000E+00 0. -1.
         21   -1    0    0  502  503 -0.00000000000E+00 -0.00000000000E+00 -0.33322807044E+03  0.33322807044E+03  0.00000000000E+00 0. -1.
    9000005    1    1    2  501    0  0.59142253595E+02  0.75713098591E+02  0.21544743324E+03  0.46437902187E+03  0.40000000000E+03 0. -1.
   -9000005    1    1    2    0  503 -0.59142253595E+02 -0.75713098591E+02 -0.61032006935E+01  0.41142135156E+03  0.40000000000E+03 0. -1.
<mgrwt>
<rscale>  2 0.41137608E+03</rscale>
<asrwt>0</asrwt>
<pdfrwt beam="1">  1       21 0.83472662E-01 0.41137608E+03</pdfrwt>
<pdfrwt beam="2">  1       21 0.51265857E-01 0.41137608E+03</pdfrwt>
<totfact> 0.40086863E+03</totfact>
</mgrwt>
</event>
<event>
 4    1  0.8722554E-003  0.4051812E+03  0.7818608E-02  0.1042000E+00
         21   -1    0    0  501  502  0.00000000000E+00  0.00000000000E+00  0.17830794577E+03  0.17830794577E+03  0.00000000000E+00 0.  1.
         21   -1    0    0  502  503 -0.00000000000E+00 -0.00000000000E+00 -0.12857463013E+04  0.12857463013E+04  0.00000000000E+00 0.  1.
    9000005    1    1    2  501    0 -0.29563637079E+02 -0.57426198582E+02 -0.16367722119E+03  0.43699200182E+03  0.40000000000E+03 0. -1.
   -9000005    1    1    2    0  503  0.29563637079E+02  0.57426198582E+02 -0.94376113432E+03  0.10270622452E+04  0.40000000000E+03 0. -1.
<mgrwt>
<rscale>  2 0.40518117E+03</rscale>
<asrwt>0</asrwt>
<pdfrwt beam="1">  1       21 0.27431992E-01 0.40518117E+03</pdfrwt>
<pdfrwt beam="2">  1       21 0.19780712E+00 0.40518117E+03</pdfrwt>
<totfact> 0.15100539E+03</totfact>
</mgrwt>
</event>
<event>
 4    1  0.8722554E-003  0.5626651E+03  0.7818608E-02  0.9986042E-01
         21   -1    0    0  501  502  0.00000000000E+00  0.00000000000E+00  0.19170415383E+04  0.19170415383E+04  0.00000000000E+00 0. -1.
         21   -1    0    0  502  503 -0.00000000000E+00 -0.00000000000E+00 -0.22323858063E+03  0.22323858063E+03  0.00000000000E+00 0. -1.
    9000005    1    1    2  501    0  0.38515439301E+03  0.90819242995E+02  0.13928048122E+04  0.15021642008E+04  0.40000000000E+03 0. -1.
   -9000005    1    1    2    0  503 -0.38515439301E+03 -0.90819242995E+02  0.30099814547E+03  0.63811591810E+03  0.40000000000E+03 0. -1.
<mgrwt>
<rscale>  2 0.56266512E+03</rscale>
<asrwt>0</asrwt>
<pdfrwt beam="1">  1       21 0.29492946E+00 0.56266512E+03</pdfrwt>
<pdfrwt beam="2">  1       21 0.34344398E-01 0.56266512E+03</pdfrwt>
<totfact> 0.22113387E+02</totfact>
</mgrwt>
</event>
<event>
 4    1  0.8722554E-003  0.7646980E+03  0.7818608E-02  0.9612570E-01
         21   -1    0    0  501  502  0.00000000000E+00  0.00000000000E+00  0.78444224674E+03  0.78444224674E+03  0.00000000000E+00 0. -1.
         21   -1    0    0  502  503 -0.00000000000E+00 -0.00000000000E+00 -0.77885329071E+03  0.77885329071E+03  0.00000000000E+00 0.  1.
    9000005    1    1    2  501    0 -0.54270812758E+03  0.36087530080E+03  0.16466685269E+03  0.78222648053E+03  0.40000000000E+03 0.  1.
   -9000005    1    1    2    0  503  0.54270812758E+03 -0.36087530080E+03 -0.15907789666E+03  0.78106905692E+03  0.40000000000E+03 0. -1.
<mgrwt>
<rscale>  2 0.76469804E+03</rscale>
<asrwt>0</asrwt>
<pdfrwt beam="1">  1       21 0.12068342E+00 0.76469804E+03</pdfrwt>
<pdfrwt beam="2">  1       21 0.11982358E+00 0.76469804E+03</pdfrwt>
<totfact> 0.20138136E+02</totfact>
</mgrwt>
</event>
<event>
 4    1  0.8722554E-003  0.4741483E+03  0.7818608E-02  0.1020756E+00
         21   -1    0    0  501  502  0.00000000000E+00  0.00000000000E+00  0.19574108164E+03  0.19574108164E+03  0.00000000000E+00 0. -1.
         21   -1    0    0  502  503 -0.00000000000E+00 -0.00000000000E+00 -0.15520919117E+04  0.15520919117E+04  0.00000000000E+00 0.  1.
    9000005    1    1    2  501    0  0.36362982565E+02 -0.25198076793E+03 -0.23255957890E+03  0.52811034040E+03  0.40000000000E+03 0. -1.
   -9000005    1    1    2    0  503 -0.36362982565E+02  0.25198076793E+03 -0.11237912512E+04  0.12197226530E+04  0.40000000000E+03 0. -1.
<mgrwt>
<rscale>  2 0.47414826E+03</rscale>
<asrwt>0</asrwt>
<pdfrwt beam="1">  1       21 0.30114011E-01 0.47414826E+03</pdfrwt>
<pdfrwt beam="2">  1       21 0.23878338E+00 0.47414826E+03</pdfrwt>
<totfact> 0.66250464E+02</totfact>
</mgrwt>
</event>
<event>
 4    1  0.8722554E-003  0.4494111E+03  0.7818608E-02  0.1027898E+00
         21   -1    0    0  503  502  0.00000000000E+00  0.00000000000E+00  0.14237516492E+04  0.14237516492E+04  0.00000000000E+00 0. -1.
         21   -1    0    0  501  503 -0.00000000000E+00 -0.00000000000E+00 -0.18049964182E+03  0.18049964182E+03  0.00000000000E+00 0. -1.
    9000005    1    1    2  501    0  0.19885454027E+03  0.49266581952E+02  0.25049011632E+03  0.51450522121E+03  0.40000000000E+03 0. -1.
   -9000005    1    1    2    0  502 -0.19885454027E+03 -0.49266581952E+02  0.99276189104E+03  0.10897460698E+04  0.40000000000E+03 0. -1.
<mgrwt>
<rscale>  2 0.44941109E+03</rscale>
<asrwt>0</asrwt>
<pdfrwt beam="1">  1       21 0.21903871E+00 0.44941109E+03</pdfrwt>
<pdfrwt beam="2">  1       21 0.27769177E-01 0.44941109E+03</pdfrwt>
<totfact> 0.10487607E+03</totfact>
</mgrwt>
</event>
<event>
 4    1  0.8722554E-003  0.4009897E+03  0.7818608E-02  0.1043438E+00
         21   -1    0    0  503  502  0.00000000000E+00  0.00000000000E+00  0.18855230256E+03  0.18855230256E+03  0.00000000000E+00 0. -1.
         21   -1    0    0  501  503 -0.00000000000E+00 -0.00000000000E+00 -0.10710101713E+04  0.10710101713E+04  0.00000000000E+00 0. -1.
    9000005    1    1    2  501    0  0.52439971040E+00  0.28150378024E+02 -0.72551471582E+03  0.82895375121E+03  0.40000000000E+03 0. -1.
   -9000005    1    1    2    0  502 -0.52439971040E+00 -0.28150378024E+02 -0.15694315292E+03  0.43060872265E+03  0.40000000000E+03 0. -1.
<mgrwt>
<rscale>  2 0.40098967E+03</rscale>
<asrwt>0</asrwt>
<pdfrwt beam="1">  1       21 0.29008047E-01 0.40098967E+03</pdfrwt>
<pdfrwt beam="2">  1       21 0.16477079E+00 0.40098967E+03</pdfrwt>
<totfact> 0.23091540E+03</totfact>
</mgrwt>
</event>
<event>
 4    1  0.8722554E-003  0.4024057E+03  0.7818608E-02  0.1042950E+00
         21   -1    0    0  503  502  0.00000000000E+00  0.00000000000E+00  0.12297942471E+04  0.12297942471E+04  0.00000000000E+00 0. -1.
         21   -1    0    0  501  503 -0.00000000000E+00 -0.00000000000E+00 -0.15289791534E+03  0.15289791534E+03  0.00000000000E+00 0. -1.
    9000005    1    1    2  501    0  0.37621915512E+02  0.22692307998E+02  0.28086314386E+03  0.49072849413E+03  0.40000000000E+03 0. -1.
   -9000005    1    1    2    0  502 -0.37621915512E+02 -0.22692307998E+02  0.79603318793E+03  0.89196366835E+03  0.40000000000E+03 0. -1.
<mgrwt>
<rscale>  2 0.40240570E+03</rscale>
<asrwt>0</asrwt>
<pdfrwt beam="1">  1       21 0.18919911E+00 0.40240570E+03</pdfrwt>
<pdfrwt beam="2">  1       21 0.23522757E-01 0.40240570E+03</pdfrwt>
<totfact> 0.23311010E+03</totfact>
</mgrwt>
</event>
<event>
 4    1  0.8722554E-003  0.4445193E+03  0.7818608E-02  0.1029369E+00
         21   -1    0    0  503  502  0.00000000000E+00  0.00000000000E+00  0.42553285597E+03  0.42553285597E+03  0.00000000000E+00 0.  1.
         21   -1    0    0  501  503 -0.00000000000E+00 -0.00000000000E+00 -0.49972373451E+03  0.49972373451E+03  0.00000000000E+00 0.  1.
    9000005    1    1    2  501    0  0.12425050395E+03  0.14885970844E+03 -0.16017617265E+03  0.47249741461E+03  0.40000000000E+03 0.  1.
   -9000005    1    1    2    0  502 -0.12425050395E+03 -0.14885970844E+03  0.85985294113E+02  0.45275917587E+03  0.40000000000E+03 0.  1.
<mgrwt>
<rscale>  2 0.44451929E+03</rscale>
<asrwt>0</asrwt>
<pdfrwt beam="1">  1       21 0.65466593E-01 0.44451929E+03</pdfrwt>
<pdfrwt beam="2">  1       21 0.76880574E-01 0.44451929E+03</pdfrwt>
<totfact> 0.28124822E+03</totfact>
</mgrwt>
</event>
<event>
 4    1  0.8722554E-003  0.4993249E+03  0.7818608E-02  0.1013955E+00
         21   -1    0    0  503  502  0.00000000000E+00  0.00000000000E+00  0.70906744361E+03  0.70906744361E+03  0.00000000000E+00 0. -1.
         21   -1    0    0  501  503 -0.00000000000E+00 -0.00000000000E+00 -0.37360886698E+03  0.37360886698E+03  0.00000000000E+00 0. -1.
    9000005    1    1    2  501    0  0.27550826287E+03  0.11584689564E+03  0.36412718481E+02  0.50065076871E+03  0.40000000000E+03 0. -1.
   -9000005    1    1    2    0  502 -0.27550826287E+03 -0.11584689564E+03  0.29904585815E+03  0.58202554189E+03  0.40000000000E+03 0. -1.
<mgrwt>
<rscale>  2 0.49932485E+03</rscale>
<asrwt>0</asrwt>
<pdfrwt beam="1">  1       21 0.10908730E+00 0.49932485E+03</pdfrwt>
<pdfrwt beam="2">  1       21 0.57478288E-01 0.49932485E+03</pdfrwt>
<totfact> 0.15948874E+03</totfact>
</mgrwt>
</event>
<event>
 4    1  0.8722554E-003  0.4106190E+03  0.7818608E-02  0.1040163E+00
         21   -1    0    0  503  502  0.00000000000E+00  0.00000000000E+00  0.59448224791E+03  0.59448224791E+03  0.00000000000E+00 0. -1.
         21   -1    0    0  501  503 -0.00000000000E+00 -0.00000000000E+00 -0.29688399348E+03  0.29688399348E+03  0.00000000000E+00 0. -1.
    9000005    1    1    2  501    0 -0.77396392774E+02  0.51164083220E+02  0.54600432132E+02  0.41423323408E+03  0.40000000000E+03 0. -1.
   -9000005    1    1    2    0  502  0.77396392774E+02 -0.51164083220E+02  0.24299782230E+03  0.47713300732E+03  0.40000000000E+03 0. -1.
<mgrwt>
<rscale>  2 0.41061900E+03</rscale>
<asrwt>0</asrwt>
<pdfrwt beam="1">  1       21 0.91458807E-01 0.41061900E+03</pdfrwt>
<pdfrwt beam="2">  1       21 0.45674461E-01 0.41061900E+03</pdfrwt>
<totfact> 0.41295994E+03</totfact>
</mgrwt>
</event>
<event>
 4    1  0.8722554E-003  0.4092300E+03  0.7818608E-02  0.1040630E+00
         21   -1    0    0  501  502  0.00000000000E+00  0.00000000000E+00  0.71507253155E+03  0.71507253155E+03  0.00000000000E+00 0. -1.
         21   -1    0    0  502  503 -0.00000000000E+00 -0.00000000000E+00 -0.28669462591E+03  0.28669462591E+03  0.00000000000E+00 0. -1.
    9000005    1    1    2  501    0  0.17073061443E+02  0.84721536086E+02  0.42852184762E+03  0.59253708913E+03  0.40000000000E+03 0. -1.
   -9000005    1    1    2    0  503 -0.17073061443E+02 -0.84721536086E+02 -0.14394198783E+00  0.40923006833E+03  0.40000000000E+03 0. -1.
<mgrwt>
<rscale>  2 0.40923004E+03</rscale>
<asrwt>0</asrwt>
<pdfrwt beam="1">  1       21 0.11001116E+00 0.40923004E+03</pdfrwt>
<pdfrwt beam="2">  1       21 0.44106866E-01 0.40923004E+03</pdfrwt>
<totfact> 0.28398537E+03</totfact>
</mgrwt>
</event>
<event>
 4    1  0.8722554E-003  0.5491727E+03  0.7818608E-02  0.1001686E+00
         21   -1    0    0  501  502  0.00000000000E+00  0.00000000000E+00  0.78849160638E+03  0.78849160638E+03  0.00000000000E+00 0.  1.
         21   -1    0    0  502  503 -0.00000000000E+00 -0.00000000000E+00 -0.39955361341E+03  0.39955361341E+03  0.00000000000E+00 0. -1.
    9000005    1    1    2  501    0  0.37551318538E+03 -0.24094651513E+02  0.31722480962E+03  0.63420996875E+03  0.40000000000E+03 0.  1.
   -9000005    1    1    2    0  503 -0.37551318538E+03  0.24094651513E+02  0.71713183358E+02  0.55383525104E+03  0.40000000000E+03 0. -1.
<mgrwt>
<rscale>  2 0.54917275E+03</rscale>
<asrwt>0</asrwt>
<pdfrwt beam="1">  1       21 0.12130640E+00 0.54917275E+03</pdfrwt>
<pdfrwt beam="2">  1       21 0.61469787E-01 0.54917275E+03</pdfrwt>
<totfact> 0.10356812E+03</totfact>
</mgrwt>
</event>
<event>
 4    1  0.8722554E-003  0.4829657E+03  0.7818608E-02  0.1018323E+00
         21   -1    0    0  503  502  0.00000000000E+00  0.00000000000E+00  0.54680258132E+03  0.54680258132E+03  0.00000000000E+00 0. -1.
         21   -1    0    0  501  503 -0.00000000000E+00 -0.00000000000E+00 -0.45478194717E+03  0.45478194717E+03  0.00000000000E+00 0. -1.
    9000005    1    1    2  501    0 -0.26455785608E+03 -0.57140298734E+02  0.17071532480E+03  0.51224954376E+03  0.40000000000E+03 0. -1.
   -9000005    1    1    2    0  502  0.26455785608E+03  0.57140298734E+02 -0.78694690656E+02  0.48933498474E+03  0.40000000000E+03 0. -1.
<mgrwt>
<rscale>  2 0.48296571E+03</rscale>
<asrwt>0</asrwt>
<pdfrwt beam="1">  1       21 0.84123474E-01 0.48296571E+03</pdfrwt>
<pdfrwt beam="2">  1       21 0.69966453E-01 0.48296571E+03</pdfrwt>
<totfact> 0.19407418E+03</totfact>
</mgrwt>
</event>
<event>
 4    1  0.8722554E-003  0.4642957E+03  0.7818608E-02  0.1023543E+00
         21   -1    0    0  501  502  0.00000000000E+00  0.00000000000E+00  0.26829841645E+03  0.26829841645E+03  0.00000000000E+00 0. -1.
         21   -1    0    0  502  503 -0.00000000000E+00 -0.00000000000E+00 -0.81794956210E+03  0.81794956210E+03  0.00000000000E+00 0. -1.
    9000005    1    1    2  501    0 -0.21819416030E+03 -0.89229183805E+02 -0.20257053249E+03  0.50656229574E+03  0.40000000000E+03 0. -1.
   -9000005    1    1    2    0  503  0.21819416030E+03  0.89229183805E+02 -0.34708061316E+03  0.57968568281E+03  0.40000000000E+03 0. -1.
<mgrwt>
<rscale>  2 0.46429575E+03</rscale>
<asrwt>0</asrwt>
<pdfrwt beam="1">  1       21 0.41276679E-01 0.46429575E+03</pdfrwt>
<pdfrwt beam="2">  1       21 0.12583840E+00 0.46429575E+03</pdfrwt>
<totfact> 0.22736689E+03</totfact>
</mgrwt>
</event>
<event>
 4    1  0.8722554E-003  0.4843043E+03  0.7818608E-02  0.1017959E+00
         21   -1    0    0  501  502  0.00000000000E+00  0.00000000000E+00  0.21383816276E+03  0.21383816276E+03  0.00000000000E+00 0. -1.
         21   -1    0    0  502  503 -0.00000000000E+00 -0.00000000000E+00 -0.11450575360E+04  0.11450575360E+04  0.00000000000E+00 0. -1.
    9000005    1    1    2  501    0 -0.27265227923E+03 -0.14539692038E+02 -0.60500620443E+03  0.77497301592E+03  0.40000000000E+03 0. -1.
   -9000005    1    1    2    0  503  0.27265227923E+03  0.14539692038E+02 -0.32621316878E+03  0.58392268281E+03  0.40000000000E+03 0. -1.
<mgrwt>
<rscale>  2 0.48430431E+03</rscale>
<asrwt>0</asrwt>
<pdfrwt beam="1">  1       21 0.32898179E-01 0.48430431E+03</pdfrwt>
<pdfrwt beam="2">  1       21 0.17616270E+00 0.48430431E+03</pdfrwt>
<totfact> 0.14339861E+03</totfact>
</mgrwt>
</event>
<event>
 4    1  0.8722554E-003  0.4928313E+03  0.7818608E-02  0.1015667E+00
         21   -1    0    0  501  502  0.00000000000E+00  0.00000000000E+00  0.73499307634E+03  0.73499307634E+03  0.00000000000E+00 0.  1.
         21   -1    0    0  502  503 -0.00000000000E+00 -0.00000000000E+00 -0.33121471520E+03  0.33121471520E+03  0.00000000000E+00 0. -1.
    9000005    1    1    2  501    0 -0.18729972807E+03  0.21863557359E+03  0.17637024408E+03  0.52343974359E+03  0.40000000000E+03 0. -1.
   -9000005    1    1    2    0  503  0.18729972807E+03 -0.21863557359E+03  0.22740811706E+03  0.54276804796E+03  0.40000000000E+03 0. -1.
<mgrwt>
<rscale>  2 0.49283131E+03</rscale>
<asrwt>0</asrwt>
<pdfrwt beam="1">  1       21 0.11307586E+00 0.49283131E+03</pdfrwt>
<pdfrwt beam="2">  1       21 0.50956110E-01 0.49283131E+03</pdfrwt>
<totfact> 0.18954816E+03</totfact>
</mgrwt>
</event>
<event>
 4    1  0.8722554E-003  0.4112412E+03  0.7818608E-02  0.1039955E+00
         21   -1    0    0  501  502  0.00000000000E+00  0.00000000000E+00  0.23191364217E+04  0.23191364217E+04  0.00000000000E+00 0.  1.
         21   -1    0    0  502  503 -0.00000000000E+00 -0.00000000000E+00 -0.76539372240E+02  0.76539372240E+02  0.00000000000E+00 0.  1.
    9000005    1    1    2  501    0  0.46477040951E+02 -0.83421754911E+02  0.86094206188E+03  0.95411767536E+03  0.40000000000E+03 0.  1.
   -9000005    1    1    2    0  503 -0.46477040951E+02  0.83421754911E+02  0.13816549876E+04  0.14415581186E+04  0.40000000000E+03 0.  1.
<mgrwt>
<rscale>  2 0.41124118E+03</rscale>
<asrwt>0</asrwt>
<pdfrwt beam="1">  1       21 0.35679016E+00 0.41124118E+03</pdfrwt>
<pdfrwt beam="2">  1       21 0.11775290E-01 0.41124118E+03</pdfrwt>
<totfact> 0.78237189E+02</totfact>
</mgrwt>
</event>
<event>
 4    1  0.8722554E-003  0.4047523E+03  0.7818608E-02  0.1042146E+00
         21   -1    0    0  501  502  0.00000000000E+00  0.00000000000E+00  0.42224772823E+03  0.42224772823E+03  0.00000000000E+00 0.  1.
         21   -1    0    0  502  503 -0.00000000000E+00 -0.00000000000E+00 -0.39242740339E+03  0.39242740339E+03  0.00000000000E+00 0.  1.
    9000005    1    1    2  501    0 -0.38922484883E+02 -0.48056878341E+02 -0.28445052650E+02  0.40575059384E+03  0.40000000000E+03 0.  1.
   -9000005    1    1    2    0  503  0.38922484883E+02  0.48056878341E+02  0.58265377488E+02  0.40892453778E+03  0.40000000000E+03 0.  1.
<mgrwt>
<rscale>  2 0.40475230E+03</rscale>
<asrwt>0</asrwt>
<pdfrwt beam="1">  1       21 0.64961189E-01 0.40475230E+03</pdfrwt>
<pdfrwt beam="2">  1       21 0.60373446E-01 0.40475230E+03</pdfrwt>
<totfact> 0.49867830E+03</totfact>
</mgrwt>
</event>
<event>
 4    1  0.8722554E-003  0.6059404E+03  0.7818608E-02  0.9893158E-01
         21   -1    0    0  503  502  0.00000000000E+00  0.00000000000E+00  0.36097393125E+03  0.36097393125E+03  0.00000000000E+00 0.  1.
         21   -1    0    0  501  503 -0.00000000000E+00 -0.00000000000E+00 -0.10312540565E+04  0.10312540565E+04  0.00000000000E+00 0. -1.
    9000005    1    1    2  501    0  0.44419860526E+03  0.99254282810E+02 -0.41655508474E+03  0.73531078612E+03  0.40000000000E+03 0. -1.
   -9000005    1    1    2    0  502 -0.44419860526E+03 -0.99254282810E+02 -0.25372504046E+03  0.65691720158E+03  0.40000000000E+03 0.  1.
<mgrwt>
<rscale>  2 0.60594044E+03</rscale>
<asrwt>0</asrwt>
<pdfrwt beam="1">  1       21 0.55534452E-01 0.60594044E+03</pdfrwt>
<pdfrwt beam="2">  1       21 0.15865447E+00 0.60594044E+03</pdfrwt>
<totfact> 0.61948277E+02</totfact>
</mgrwt>
</event>
<event>
 4    1  0.8722554E-003  0.4153532E+03  0.7818608E-02  0.1038589E+00
         21   -1    0    0  503  502  0.00000000000E+00  0.00000000000E+00  0.12988373931E+03  0.12988373931E+03  0.00000000000E+00 0. -1.
         21   -1    0    0  501  503 -0.00000000000E+00 -0.00000000000E+00 -0.13719335432E+04  0.13719335432E+04  0.00000000000E+00 0. -1.
    9000005    1    1    2  501    0 -0.36131174629E+02 -0.10589055163E+03 -0.75501480396E+03  0.86172247557E+03  0.40000000000E+03 0. -1.
   -9000005    1    1    2    0  502  0.36131174629E+02  0.10589055163E+03 -0.48703499994E+03  0.64009480694E+03  0.40000000000E+03 0. -1.
<mgrwt>
<rscale>  2 0.41535319E+03</rscale>
<asrwt>0</asrwt>
<pdfrwt beam="1">  1       21 0.19982114E-01 0.41535319E+03</pdfrwt>
<pdfrwt beam="2">  1       21 0.21106670E+00 0.41535319E+03</pdfrwt>
<totfact> 0.22659646E+03</totfact>
</mgrwt>
</event>
<event>
 4    1  0.8722554E-003  0.4991757E+03  0.7818608E-02  0.1013994E+00
         21   -1    0    0  503  502  0.00000000000E+00  0.00000000000E+00  0.69494603324E+03  0.69494603324E+03  0.00000000000E+00 0. -1.
         21   -1    0    0  501  503 -0.00000000000E+00 -0.00000000000E+00 -0.36456167525E+03  0.36456167525E+03  0.00000000000E+00 0.  1.
    9000005    1    1    2  501    0 -0.21095658749E+03 -0.21136158239E+03  0.23319146870E+03  0.55095794884E+03  0.40000000000E+03 0.  1.
   -9000005    1    1    2    0  502  0.21095658749E+03  0.21136158239E+03  0.97192889287E+02  0.50854975965E+03  0.40000000000E+03 0.  1.
<mgrwt>
<rscale>  2 0.49917572E+03</rscale>
<asrwt>0</asrwt>
<pdfrwt beam="1">  1       21 0.10691477E+00 0.49917572E+03</pdfrwt>
<pdfrwt beam="2">  1       21 0.56086412E-01 0.49917572E+03</pdfrwt>
<totfact> 0.17684031E+03</totfact>
</mgrwt>
</event>
<event>
 4    1  0.8722554E-003  0.8713484E+03  0.7818608E-02  0.9462123E-01
         21   -1    0    0  501  502  0.00000000000E+00  0.00000000000E+00  0.24529056908E+03  0.24529056908E+03  0.00000000000E+00 0.  1.
         21   -1    0    0  502  503 -0.00000000000E+00 -0.00000000000E+00 -0.31405426955E+04  0.31405426955E+04  0.00000000000E+00 0.  1.
    9000005    1    1    2  501    0 -0.76256651506E+03 -0.13319291248E+03 -0.16508171493E+04  0.18666668964E+04  0.40000000000E+03 0.  1.
   -9000005    1    1    2    0  503  0.76256651506E+03  0.13319291248E+03 -0.12444349771E+04  0.15191663682E+04  0.40000000000E+03 0.  1.
<mgrwt>
<rscale>  2 0.87134840E+03</rscale>
<asrwt>0</asrwt>
<pdfrwt beam="1">  1       21 0.37737011E-01 0.87134840E+03</pdfrwt>
<pdfrwt beam="2">  1       21 0.48316041E+00 0.87134840E+03</pdfrwt>
<totfact> 0.96167446E+00</totfact>
</mgrwt>
</event>
<event>
 4    1  0.8722554E-003  0.6307169E+03  0.7818608E-02  0.9843651E-01
         21   -1    0    0  503  502  0.00000000000E+00  0.00000000000E+00  0.75897166754E+03  0.75897166754E+03  0.00000000000E+00 0.  1.
         21   -1    0    0  501  503 -0.00000000000E+00 -0.00000000000E+00 -0.64963966668E+03  0.64963966668E+03  0.00000000000E+00 0. -1.
    9000005    1    1    2  501    0 -0.35012321330E+03 -0.33943700606E+03 -0.25490092585E+03  0.68027805166E+03  0.40000000000E+03 0. -1.
   -9000005    1    1    2    0  502  0.35012321330E+03  0.33943700606E+03  0.36423292671E+03  0.72833328255E+03  0.40000000000E+03 0.  1.
<mgrwt>
<rscale>  2 0.63071685E+03</rscale>
<asrwt>0</asrwt>
<pdfrwt beam="1">  1       21 0.11676487E+00 0.63071685E+03</pdfrwt>
<pdfrwt beam="2">  1       21 0.99944564E-01 0.63071685E+03</pdfrwt>
<totfact> 0.35984384E+02</totfact>
</mgrwt>
</event>
<event>
 4    1  0.8722554E-003  0.5211784E+03  0.7818608E-02  0.1008394E+00
         21   -1    0    0  501  502  0.00000000000E+00  0.00000000000E+00  0.32150949692E+03  0.32150949692E+03  0.00000000000E+00 0.  1.
         21   -1    0    0  502  503 -0.00000000000E+00 -0.00000000000E+00 -0.90010954971E+03  0.90010954971E+03  0.00000000000E+00 0.  1.
    9000005    1    1    2  501    0 -0.33398191723E+03  0.91133271125E+01 -0.44064421677E+03  0.68249124503E+03  0.40000000000E+03 0.  1.
   -9000005    1    1    2    0  503  0.33398191723E+03 -0.91133271125E+01 -0.13795583603E+03  0.53912780160E+03  0.40000000000E+03 0.  1.
<mgrwt>
<rscale>  2 0.52117845E+03</rscale>
<asrwt>0</asrwt>
<pdfrwt beam="1">  1       21 0.49463000E-01 0.52117845E+03</pdfrwt>
<pdfrwt beam="2">  1       21 0.13847839E+00 0.52117845E+03</pdfrwt>
<totfact> 0.11861101E+03</totfact>
</mgrwt>
</event>
<event>
 4    1  0.8722554E-003  0.5268738E+03  0.7818608E-02  0.1006993E+00
         21   -1    0    0  501  502  0.00000000000E+00  0.00000000000E+00  0.12665497449E+04  0.12665497449E+04  0.00000000000E+00 0.  1.
         21   -1    0    0  502  503 -0.00000000000E+00 -0.00000000000E+00 -0.21950983695E+03  0.21950983695E+03  0.00000000000E+00 0. -1.
    9000005    1    1    2  501    0 -0.33296430677E+03  0.82041319199E+02  0.55254097365E+03  0.76347726568E+03  0.40000000000E+03 0.  1.
   -9000005    1    1    2    0  503  0.33296430677E+03 -0.82041319199E+02  0.49449893433E+03  0.72258231620E+03  0.40000000000E+03 0.  1.
<mgrwt>
<rscale>  2 0.52687381E+03</rscale>
<asrwt>0</asrwt>
<pdfrwt beam="1">  1       21 0.19485380E+00 0.52687381E+03</pdfrwt>
<pdfrwt beam="2">  1       21 0.33770745E-01 0.52687381E+03</pdfrwt>
<totfact> 0.99135468E+02</totfact>
</mgrwt>
</event>
<event>
 4    1  0.8722554E-003  0.4240381E+03  0.7818608E-02  0.1035760E+00
         21   -1    0    0  501  502  0.00000000000E+00  0.00000000000E+00  0.14970734141E+04  0.14970734141E+04  0.00000000000E+00 0.  1.
         21   -1    0    0  502  503 -0.00000000000E+00 -0.00000000000E+00 -0.12010668551E+03  0.12010668551E+03  0.00000000000E+00 0.  1.
    9000005    1    1    2  501    0  0.11484723623E+03 -0.81353787542E+02  0.68933468416E+03  0.80931491597E+03  0.40000000000E+03 0.  1.
   -9000005    1    1    2    0  503 -0.11484723623E+03  0.81353787542E+02  0.68763204438E+03  0.80786518360E+03  0.40000000000E+03 0.  1.
<mgrwt>
<rscale>  2 0.42403812E+03</rscale>
<asrwt>0</asrwt>
<pdfrwt beam="1">  1       21 0.23031897E+00 0.42403812E+03</pdfrwt>
<pdfrwt beam="2">  1       21 0.18477953E-01 0.42403812E+03</pdfrwt>
<totfact> 0.19732244E+03</totfact>
</mgrwt>
</event>
<event>
 4    1  0.8722554E-003  0.4454021E+03  0.7818608E-02  0.1029102E+00
         21   -1    0    0  503  502  0.00000000000E+00  0.00000000000E+00  0.71896414001E+03  0.71896414001E+03  0.00000000000E+00 0. -1.
         21   -1    0    0  501  503 -0.00000000000E+00 -0.00000000000E+00 -0.27650597025E+03  0.27650597025E+03  0.00000000000E+00 0. -1.
    9000005    1    1    2  501    0  0.19400988975E+03 -0.27261871647E+02  0.24396578890E+03  0.50784087382E+03  0.40000000000E+03 0.  1.
   -9000005    1    1    2    0  502 -0.19400988975E+03  0.27261871647E+02  0.19849238087E+03  0.48762923644E+03  0.40000000000E+03 0.  1.
<mgrwt>
<rscale>  2 0.44540212E+03</rscale>
<asrwt>0</asrwt>
<pdfrwt beam="1">  1       21 0.11060987E+00 0.44540212E+03</pdfrwt>
<pdfrwt beam="2">  1       21 0.42539380E-01 0.44540212E+03</pdfrwt>
<totfact> 0.29797419E+03</totfact>
</mgrwt>
</event>
<event>
 4    1  0.8722554E-003  0.4082063E+03  0.7818608E-02  0.1040975E+00
         21   -1    0    0  501  502  0.00000000000E+00  0.00000000000E+00  0.19940093628E+03  0.19940093628E+03  0.00000000000E+00 0. -1.
         21   -1    0    0  502  503 -0.00000000000E+00 -0.00000000000E+00 -0.10018142545E+04  0.10018142545E+04  0.00000000000E+00 0.  1.
    9000005    1    1    2  501    0 -0.30774875034E+02 -0.75400660644E+02 -0.15661219841E+03  0.43721817580E+03  0.40000000000E+03 0. -1.
   -9000005    1    1    2    0  503  0.30774875034E+02  0.75400660644E+02 -0.64580111982E+03  0.76399701500E+03  0.40000000000E+03 0.  1.
<mgrwt>
<rscale>  2 0.40820626E+03</rscale>
<asrwt>0</asrwt>
<pdfrwt beam="1">  1       21 0.30677066E-01 0.40820626E+03</pdfrwt>
<pdfrwt beam="2">  1       21 0.15412527E+00 0.40820626E+03</pdfrwt>
<totfact> 0.24791074E+03</totfact>
</mgrwt>
</event>
<event>
 4    1  0.8722554E-003  0.4354005E+03  0.7818608E-02  0.1032167E+00
         21   -1    0    0  503  502  0.00000000000E+00  0.00000000000E+00  0.40556661438E+03  0.40556661438E+03  0.00000000000E+00 0. -1.
         21   -1    0    0  501  503 -0.00000000000E+00 -0.00000000000E+00 -0.66078422418E+03  0.66078422418E+03  0.00000000000E+00 0. -1.
    9000005    1    1    2  501    0  0.87828405477E+02  0.14785044757E+03 -0.41602409367E+03  0.60220397721E+03  0.40000000000E+03 0. -1.
   -9000005    1    1    2    0  502 -0.87828405477E+02 -0.14785044757E+03  0.16080648386E+03  0.46414686136E+03  0.40000000000E+03 0. -1.
<mgrwt>
<rscale>  2 0.43540049E+03</rscale>
<asrwt>0</asrwt>
<pdfrwt beam="1">  1       21 0.62394864E-01 0.43540049E+03</pdfrwt>
<pdfrwt beam="2">  1       21 0.10165911E+00 0.43540049E+03</pdfrwt>
<totfact> 0.16236384E+03</totfact>
</mgrwt>
</event>
<event>
 4    1  0.8722554E-003  0.4570735E+03  0.7818608E-02  0.1025633E+00
         21   -1    0    0  503  502  0.00000000000E+00  0.00000000000E+00  0.18681013553E+04  0.18681013553E+04  0.00000000000E+00 0.  1.
         21   -1    0    0  501  503 -0.00000000000E+00 -0.00000000000E+00 -0.12634568926E+03  0.12634568926E+03  0.00000000000E+00 0. -1.
    9000005    1    1    2  501    0  0.21644461918E+03 -0.45473858587E+02  0.53290630795E+03  0.70207213165E+03  0.40000000000E+03 0. -1.
   -9000005    1    1    2    0  502 -0.21644461918E+03  0.45473858587E+02  0.12088493581E+04  0.12923749129E+04  0.40000000000E+03 0.  1.
<mgrwt>
<rscale>  2 0.45707346E+03</rscale>
<asrwt>0</asrwt>
<pdfrwt beam="1">  1       21 0.28740019E+00 0.45707346E+03</pdfrwt>
<pdfrwt beam="2">  1       21 0.19437800E-01 0.45707346E+03</pdfrwt>
<totfact> 0.78998859E+02</totfact>
</mgrwt>
</event>
<event>
 4    1  0.8722554E-003  0.4413677E+03  0.7818608E-02  0.1030328E+00
         21   -1    0    0  501  502  0.00000000000E+00  0.00000000000E+00  0.15467371952E+03  0.15467371952E+03  0.00000000000E+00 0. -1.
         21   -1    0    0  502  503 -0.00000000000E+00 -0.00000000000E+00 -0.12833084150E+04  0.12833084150E+04  0.00000000000E+00 0. -1.
    9000005    1    1    2  501    0  0.18526555421E+03  0.21958179860E+02 -0.46630508681E+03  0.64206379841E+03  0.40000000000E+03 0. -1.
   -9000005    1    1    2    0  503 -0.18526555421E+03 -0.21958179860E+02 -0.66232960868E+03  0.79591833612E+03  0.40000000000E+03 0. -1.
<mgrwt>
<rscale>  2 0.44136775E+03</rscale>
<asrwt>0</asrwt>
<pdfrwt beam="1">  1       21 0.23795957E-01 0.44136775E+03</pdfrwt>
<pdfrwt beam="2">  1       21 0.19743206E+00 0.44136775E+03</pdfrwt>
<totfact> 0.19705144E+03</totfact>
</mgrwt>
</event>
<event>
 4    1  0.8722554E-003  0.4434145E+03  0.7818608E-02  0.1029704E+00
         21   -1    0    0  503  502  0.00000000000E+00  0.00000000000E+00  0.63789730676E+03  0.63789730676E+03  0.00000000000E+00 0.  1.
         21   -1    0    0  501  503 -0.00000000000E+00 -0.00000000000E+00 -0.33141727449E+03  0.33141727449E+03  0.00000000000E+00 0. -1.
    9000005    1    1    2  501    0 -0.23688373661E+02  0.18988234106E+03  0.25033278454E+02  0.44412060020E+03  0.40000000000E+03 0. -1.
   -9000005    1    1    2    0  502  0.23688373661E+02 -0.18988234106E+03  0.28144675382E+03  0.52519398105E+03  0.40000000000E+03 0.  1.
<mgrwt>
<rscale>  2 0.44341453E+03</rscale>
<asrwt>0</asrwt>
<pdfrwt beam="1">  1       21 0.98138047E-01 0.44341453E+03</pdfrwt>
<pdfrwt beam="2">  1       21 0.50987273E-01 0.44341453E+03</pdfrwt>
<totfact> 0.27315386E+03</totfact>
</mgrwt>
</event>
<event>
 4    1  0.8722554E-003  0.5585261E+03  0.7818608E-02  0.9995395E-01
         21   -1    0    0  501  502  0.00000000000E+00  0.00000000000E+00  0.25626327815E+03  0.25626327815E+03  0.00000000000E+00 0. -1.
         21   -1    0    0  502  503 -0.00000000000E+00 -0.00000000000E+00 -0.16768024268E+04  0.16768024268E+04  0.00000000000E+00 0.  1.
    9000005    1    1    2  501    0 -0.23777090583E+02  0.38908367457E+03 -0.20431027646E+03  0.59472190553E+03  0.40000000000E+03 0. -1.
   -9000005    1    1    2    0  503  0.23777090583E+02 -0.38908367457E+03 -0.12162288721E+04  0.13383437994E+04  0.40000000000E+03 0.  1.
<mgrwt>
<rscale>  2 0.55852615E+03</rscale>
<asrwt>0</asrwt>
<pdfrwt beam="1">  1       21 0.39425120E-01 0.55852615E+03</pdfrwt>
<pdfrwt beam="2">  1       21 0.25796960E+00 0.55852615E+03</pdfrwt>
<totfact> 0.28084265E+02</totfact>
</mgrwt>
</event>
<event>
 4    1  0.8722554E-003  0.4028675E+03  0.7818608E-02  0.1042791E+00
         21   -1    0    0  501  502  0.00000000000E+00  0.00000000000E+00  0.20733640369E+04  0.20733640369E+04  0.00000000000E+00 0. -1.
         21   -1    0    0  502  503 -0.00000000000E+00 -0.00000000000E+00 -0.94536174311E+02  0.94536174311E+02  0.00000000000E+00 0. -1.
    9000005    1    1    2  501    0  0.51411027809E+01  0.47705590115E+02  0.14389078820E+04  0.14942416629E+04  0.40000000000E+03 0.  1.
   -9000005    1    1    2    0  503 -0.51411027809E+01 -0.47705590115E+02  0.53991998057E+03  0.67365854829E+03  0.40000000000E+03 0.  1.
<mgrwt>
<rscale>  2 0.40286754E+03</rscale>
<asrwt>0</asrwt>
<pdfrwt beam="1">  1       21 0.31897905E+00 0.40286754E+03</pdfrwt>
<pdfrwt beam="2">  1       21 0.14544028E-01 0.40286754E+03</pdfrwt>
<totfact> 0.90623443E+02</totfact>
</mgrwt>
</event>
<event>
 4    1  0.8722554E-003  0.5336362E+03  0.7818608E-02  0.1005354E+00
         21   -1    0    0  503  502  0.00000000000E+00  0.00000000000E+00  0.74197474948E+03  0.74197474948E+03  0.00000000000E+00 0. -1.
         21   -1    0    0  501  503 -0.00000000000E+00 -0.00000000000E+00 -0.50580943075E+03  0.50580943075E+03  0.00000000000E+00 0. -1.
    9000005    1    1    2  501    0 -0.35292023166E+03 -0.14658621624E+02 -0.18833821014E+03  0.56589649805E+03  0.40000000000E+03 0. -1.
   -9000005    1    1    2    0  502  0.35292023166E+03  0.14658621624E+02  0.42450352887E+03  0.68188768219E+03  0.40000000000E+03 0. -1.
<mgrwt>
<rscale>  2 0.53363617E+03</rscale>
<asrwt>0</asrwt>
<pdfrwt beam="1">  1       21 0.11414996E+00 0.53363617E+03</pdfrwt>
<pdfrwt beam="2">  1       21 0.77816836E-01 0.53363617E+03</pdfrwt>
<totfact> 0.71344332E+02</totfact>
</mgrwt>
</event>
<event>
 4    1  0.8722554E-003  0.4846508E+03  0.7818608E-02  0.1017865E+00
         21   -1    0    0  501  502  0.00000000000E+00  0.00000000000E+00  0.34389397920E+03  0.34389397920E+03  0.00000000000E+00 0.  1.
         21   -1    0    0  502  503 -0.00000000000E+00 -0.00000000000E+00 -0.74794311358E+03  0.74794311358E+03  0.00000000000E+00 0.  1.
    9000005    1    1    2  501    0 -0.53552365407E+01 -0.27360143789E+03 -0.41184729383E+02  0.48639758152E+03  0.40000000000E+03 0.  1.
   -9000005    1    1    2    0  503  0.53552365407E+01  0.27360143789E+03 -0.36286440499E+03  0.60543951125E+03  0.40000000000E+03 0.  1.
<mgrwt>
<rscale>  2 0.48465083E+03</rscale>
<asrwt>0</asrwt>
<pdfrwt beam="1">  1       21 0.52906767E-01 0.48465083E+03</pdfrwt>
<pdfrwt beam="2">  1       21 0.11506817E+00 0.48465083E+03</pdfrwt>
<totfact> 0.16789578E+03</totfact>
</mgrwt>
</event>
<event>
 4    1  0.8722554E-003  0.4543410E+03  0.7818608E-02  0.1026435E+00
         21   -1    0    0  501  502  0.00000000000E+00  0.00000000000E+00  0.96614398966E+03  0.96614398966E+03  0.00000000000E+00 0. -1.
         21   -1    0    0  502  503 -0.00000000000E+00 -0.00000000000E+00 -0.31273794534E+03  0.31273794534E+03  0.00000000000E+00 0. -1.
    9000005    1    1    2  501    0 -0.18026409920E+03  0.11802789986E+03  0.68661807579E+03  0.82332867836E+03  0.40000000000E+03 0. -1.
   -9000005    1    1    2    0  503  0.18026409920E+03 -0.11802789986E+03 -0.33212031473E+02  0.45555325664E+03  0.40000000000E+03 0. -1.
<mgrwt>
<rscale>  2 0.45434098E+03</rscale>
<asrwt>0</asrwt>
<pdfrwt beam="1">  1       21 0.14863754E+00 0.45434098E+03</pdfrwt>
<pdfrwt beam="2">  1       21 0.48113530E-01 0.45434098E+03</pdfrwt>
<totfact> 0.10671327E+03</totfact>
</mgrwt>
</event>
<event>
 4    1  0.8722554E-003  0.4779440E+03  0.7818608E-02  0.1019702E+00
         21   -1    0    0  503  502  0.00000000000E+00  0.00000000000E+00  0.64239852941E+03  0.64239852941E+03  0.00000000000E+00 0.  1.
         21   -1    0    0  501  503 -0.00000000000E+00 -0.00000000000E+00 -0.50844609246E+03  0.50844609246E+03  0.00000000000E+00 0.  1.
    9000005    1    1    2  501    0 -0.11123662231E+03  0.23676335511E+03  0.38248079414E+03  0.61214543235E+03  0.40000000000E+03 0.  1.
   -9000005    1    1    2    0  502  0.11123662231E+03 -0.23676335511E+03 -0.24852835719E+03  0.53869918952E+03  0.40000000000E+03 0.  1.
<mgrwt>
<rscale>  2 0.47794401E+03</rscale>
<asrwt>0</asrwt>
<pdfrwt beam="1">  1       21 0.98830543E-01 0.47794401E+03</pdfrwt>
<pdfrwt beam="2">  1       21 0.78222476E-01 0.47794401E+03</pdfrwt>
<totfact> 0.10276885E+03</totfact>
</mgrwt>
</event>
<event>
 4    1  0.8722554E-003  0.4689126E+03  0.7818608E-02  0.1022228E+00
         21   -1    0    0  501  502  0.00000000000E+00  0.00000000000E+00  0.29815229292E+03  0.29815229292E+03  0.00000000000E+00 0.  1.
         21   -1    0    0  502  503 -0.00000000000E+00 -0.00000000000E+00 -0.76947996683E+03  0.76947996683E+03  0.00000000000E+00 0. -1.
    9000005    1    1    2  501    0  0.23787985121E+03  0.57378116841E+02 -0.12679095778E+03  0.48575201377E+03  0.40000000000E+03 0.  1.
   -9000005    1    1    2    0  503 -0.23787985121E+03 -0.57378116841E+02 -0.34453671613E+03  0.58188024599E+03  0.40000000000E+03 0. -1.
<mgrwt>
<rscale>  2 0.46891265E+03</rscale>
<asrwt>0</asrwt>
<pdfrwt beam="1">  1       21 0.45869584E-01 0.46891265E+03</pdfrwt>
<pdfrwt beam="2">  1       21 0.11838153E+00 0.46891265E+03</pdfrwt>
<totfact> 0.21296496E+03</totfact>
</mgrwt>
</event>
<event>
 4    1  0.8722554E-003  0.4611644E+03  0.7818608E-02  0.1024444E+00
         21   -1    0    0  501  502  0.00000000000E+00  0.00000000000E+00  0.26245997981E+03  0.26245997981E+03  0.00000000000E+00 0. -1.
         21   -1    0    0  502  503 -0.00000000000E+00 -0.00000000000E+00 -0.81964106969E+03  0.81964106969E+03  0.00000000000E+00 0. -1.
    9000005    1    1    2  501    0 -0.11041425154E+03 -0.20119964057E+03 -0.22084602004E+03  0.51131748149E+03  0.40000000000E+03 0. -1.
   -9000005    1    1    2    0  503  0.11041425154E+03  0.20119964057E+03 -0.33633506984E+03  0.57078356801E+03  0.40000000000E+03 0. -1.
<mgrwt>
<rscale>  2 0.46116440E+03</rscale>
<asrwt>0</asrwt>
<pdfrwt beam="1">  1       21 0.40378459E-01 0.46116440E+03</pdfrwt>
<pdfrwt beam="2">  1       21 0.12609862E+00 0.46116440E+03</pdfrwt>
<totfact> 0.23695930E+03</totfact>
</mgrwt>
</event>
<event>
 4    1  0.8722554E-003  0.5855167E+03  0.7818608E-02  0.9935918E-01
         21   -1    0    0  503  502  0.00000000000E+00  0.00000000000E+00  0.23297800554E+03  0.23297800554E+03  0.00000000000E+00 0. -1.
         21   -1    0    0  501  503 -0.00000000000E+00 -0.00000000000E+00 -0.15324017090E+04  0.15324017090E+04  0.00000000000E+00 0.  1.
    9000005    1    1    2  501    0 -0.12013889486E+03  0.41036131361E+03 -0.47375897956E+03  0.75317815454E+03  0.40000000000E+03 0. -1.
   -9000005    1    1    2    0  502  0.12013889486E+03 -0.41036131361E+03 -0.82566472390E+03  0.10122015600E+04  0.40000000000E+03 0. -1.
<mgrwt>
<rscale>  2 0.58551666E+03</rscale>
<asrwt>0</asrwt>
<pdfrwt beam="1">  1       21 0.35842771E-01 0.58551666E+03</pdfrwt>
<pdfrwt beam="2">  1       21 0.23575410E+00 0.58551666E+03</pdfrwt>
<totfact> 0.46436549E+02</totfact>
</mgrwt>
</event>
<event>
 4    1  0.8722554E-003  0.4081014E+03  0.7818608E-02  0.1041010E+00
         21   -1    0    0  501  502  0.00000000000E+00  0.00000000000E+00  0.46402759682E+03  0.46402759682E+03  0.00000000000E+00 0. -1.
         21   -1    0    0  502  503 -0.00000000000E+00 -0.00000000000E+00 -0.95149901263E+03  0.95149901263E+03  0.00000000000E+00 0. -1.
    9000005    1    1    2  501    0 -0.46584570166E+02  0.66156261183E+02  0.31480983812E+03  0.51541440341E+03  0.40000000000E+03 0. -1.
   -9000005    1    1    2    0  503  0.46584570166E+02 -0.66156261183E+02 -0.80228125392E+03  0.90011220604E+03  0.40000000000E+03 0. -1.
<mgrwt>
<rscale>  2 0.40810142E+03</rscale>
<asrwt>0</asrwt>
<pdfrwt beam="1">  1       21 0.71388862E-01 0.40810142E+03</pdfrwt>
<pdfrwt beam="2">  1       21 0.14638446E+00 0.40810142E+03</pdfrwt>
<totfact> 0.48030730E+02</totfact>
</mgrwt>
</event>
<event>
 4    1  0.8722554E-003  0.4637461E+03  0.7818608E-02  0.1023700E+00
         21   -1    0    0  503  502  0.00000000000E+00  0.00000000000E+00  0.20240257033E+04  0.20240257033E+04  0.00000000000E+00 0. -1.
         21   -1    0    0  501  503 -0.00000000000E+00 -0.00000000000E+00 -0.10728249652E+03  0.10728249652E+03  0.00000000000E+00 0. -1.
    9000005    1    1    2  501    0 -0.59676782086E+02 -0.22693421262E+03  0.85402170557E+03  0.97180940969E+03  0.40000000000E+03 0.  1.
   -9000005    1    1    2    0  502  0.59676782086E+02  0.22693421262E+03  0.10627215012E+04  0.11594987902E+04  0.40000000000E+03 0.  1.
<mgrwt>
<rscale>  2 0.46374611E+03</rscale>
<asrwt>0</asrwt>
<pdfrwt beam="1">  1       21 0.31138854E+00 0.46374611E+03</pdfrwt>
<pdfrwt beam="2">  1       21 0.16505001E-01 0.46374611E+03</pdfrwt>
<totfact> 0.76818485E+02</totfact>
</mgrwt>
</event>
<event>
 4    1  0.8722554E-003  0.4697742E+03  0.7818608E-02  0.1021984E+00
         21   -1    0    0  503  502  0.00000000000E+00  0.00000000000E+00  0.18049711432E+04  0.18049711432E+04  0.00000000000E+00 0.  1.
         21   -1    0    0  501  503 -0.00000000000E+00 -0.00000000000E+00 -0.23042844211E+03  0.23042844211E+03  0.00000000000E+00 0. -1.
    9000005    1    1    2  501    0 -0.20084980168E+02 -0.24552886288E+03  0.90021352958E+02  0.47832172533E+03  0.40000000000E+03 0. -1.
   -9000005    1    1    2    0  502  0.20084980168E+02  0.24552886288E+03  0.14845213481E+04  0.15570778599E+04  0.40000000000E+03 0.  1.
<mgrwt>
<rscale>  2 0.46977423E+03</rscale>
<asrwt>0</asrwt>
<pdfrwt beam="1">  1       21 0.27768786E+00 0.46977423E+03</pdfrwt>
<pdfrwt beam="2">  1       21 0.35450531E-01 0.46977423E+03</pdfrwt>
<totfact> 0.27650330E+02</totfact>
</mgrwt>
</event>
<event>
 4    1  0.8722554E-003  0.4820576E+03  0.7818608E-02  0.1018571E+00
         21   -1    0    0  501  502  0.00000000000E+00  0.00000000000E+00  0.18888612118E+03  0.18888612118E+03  0.00000000000E+00 0. -1.
         21   -1    0    0  502  503 -0.00000000000E+00 -0.00000000000E+00 -0.16579947251E+04  0.16579947251E+04  0.00000000000E+00 0.  1.
    9000005    1    1    2  501    0  0.25715397722E+02 -0.26780270124E+03 -0.26552158006E+03  0.55034650717E+03  0.40000000000E+03 0. -1.
   -9000005    1    1    2    0  503 -0.25715397722E+02  0.26780270124E+03 -0.12035870238E+04  0.12965343391E+04  0.40000000000E+03 0.  1.
<mgrwt>
<rscale>  2 0.48205764E+03</rscale>
<asrwt>0</asrwt>
<pdfrwt beam="1">  1       21 0.29059403E-01 0.48205764E+03</pdfrwt>
<pdfrwt beam="2">  1       21 0.25507612E+00 0.48205764E+03</pdfrwt>
<totfact> 0.56178074E+02</totfact>
</mgrwt>
</event>
<event>
 4    1  0.8722554E-003  0.4456303E+03  0.7818608E-02  0.1029033E+00
         21   -1    0    0  503  502  0.00000000000E+00  0.00000000000E+00  0.74888401912E+03  0.74888401912E+03  0.00000000000E+00 0. -1.
         21   -1    0    0  501  503 -0.00000000000E+00 -0.00000000000E+00 -0.29042352850E+03  0.29042352850E+03  0.00000000000E+00 0. -1.
    9000005    1    1    2  501    0 -0.24693275028E+02 -0.19487590311E+03  0.76014252760E+02  0.45206696635E+03  0.40000000000E+03 0. -1.
   -9000005    1    1    2    0  502  0.24693275028E+02  0.19487590311E+03  0.38244623785E+03  0.58724058127E+03  0.40000000000E+03 0. -1.
<mgrwt>
<rscale>  2 0.44563031E+03</rscale>
<asrwt>0</asrwt>
<pdfrwt beam="1">  1       21 0.11521293E+00 0.44563031E+03</pdfrwt>
<pdfrwt beam="2">  1       21 0.44680543E-01 0.44563031E+03</pdfrwt>
<totfact> 0.24296800E+03</totfact>
</mgrwt>
</event>
<event>
 4    1  0.8722554E-003  0.4887574E+03  0.7818608E-02  0.1016756E+00
         21   -1    0    0  503  502  0.00000000000E+00  0.00000000000E+00  0.18086666491E+03  0.18086666491E+03  0.00000000000E+00 0.  1.
         21   -1    0    0  501  503 -0.00000000000E+00 -0.00000000000E+00 -0.15190373277E+04  0.15190373277E+04  0.00000000000E+00 0.  1.
    9000005    1    1    2  501    0 -0.27696263401E+03 -0.46642483056E+02 -0.36201887313E+03  0.60822815321E+03  0.40000000000E+03 0.  1.
   -9000005    1    1    2    0  502  0.27696263401E+03  0.46642483056E+02 -0.97615178966E+03  0.10916758394E+04  0.40000000000E+03 0.  1.
<mgrwt>
<rscale>  2 0.48875743E+03</rscale>
<asrwt>0</asrwt>
<pdfrwt beam="1">  1       21 0.27825641E-01 0.48875743E+03</pdfrwt>
<pdfrwt beam="2">  1       21 0.23369805E+00 0.48875743E+03</pdfrwt>
<totfact> 0.82801207E+02</totfact>
</mgrwt>
</event>
<event>
 4    1  0.8722554E-003  0.4285951E+03  0.7818608E-02  0.1034305E+00
         21   -1    0    0  503  502  0.00000000000E+00  0.00000000000E+00  0.47125479387E+03  0.47125479387E+03  0.00000000000E+00 0. -1.
         21   -1    0    0  501  503 -0.00000000000E+00 -0.00000000000E+00 -0.47749448412E+03  0.47749448412E+03  0.00000000000E+00 0. -1.
    9000005    1    1    2  501    0  0.61091412855E+02  0.14128552119E+03 -0.20641665554E+03  0.47571167203E+03  0.40000000000E+03 0. -1.
   -9000005    1    1    2    0  502 -0.61091412855E+02 -0.14128552119E+03  0.20017696528E+03  0.47303760596E+03  0.40000000000E+03 0. -1.
<mgrwt>
<rscale>  2 0.42859510E+03</rscale>
<asrwt>0</asrwt>
<pdfrwt beam="1">  1       21 0.72500737E-01 0.42859510E+03</pdfrwt>
<pdfrwt beam="2">  1       21 0.73460690E-01 0.42859510E+03</pdfrwt>
<totfact> 0.24960914E+03</totfact>
</mgrwt>
</event>
<event>
 4    1  0.8722554E-003  0.4009594E+03  0.7818608E-02  0.1043448E+00
         21   -1    0    0  501  502  0.00000000000E+00  0.00000000000E+00  0.92318579938E+03  0.92318579938E+03  0.00000000000E+00 0. -1.
         21   -1    0    0  502  503 -0.00000000000E+00 -0.00000000000E+00 -0.23552381350E+03  0.23552381350E+03  0.00000000000E+00 0. -1.
    9000005    1    1    2  501    0 -0.21068783423E+01  0.27639906317E+02  0.63958840184E+03  0.75487861748E+03  0.40000000000E+03 0. -1.
   -9000005    1    1    2    0  503  0.21068783423E+01 -0.27639906317E+02  0.48073584039E+02  0.40383099539E+03  0.40000000000E+03 0. -1.
<mgrwt>
<rscale>  2 0.40095935E+03</rscale>
<asrwt>0</asrwt>
<pdfrwt beam="1">  1       21 0.14202858E+00 0.40095935E+03</pdfrwt>
<pdfrwt beam="2">  1       21 0.36234433E-01 0.40095935E+03</pdfrwt>
<totfact> 0.22192071E+03</totfact>
</mgrwt>
</event>
<event>
 4    1  0.8722554E-003  0.4089905E+03  0.7818608E-02  0.1040710E+00
         21   -1    0    0  501  502  0.00000000000E+00  0.00000000000E+00  0.98610751602E+03  0.98610751602E+03  0.00000000000E+00 0. -1.
         21   -1    0    0  502  503 -0.00000000000E+00 -0.00000000000E+00 -0.17102251454E+03  0.17102251454E+03  0.00000000000E+00 0. -1.
    9000005    1    1    2  501    0 -0.67882459559E+02  0.51625273483E+02  0.35533170611E+03  0.54178761387E+03  0.40000000000E+03 0. -1.
   -9000005    1    1    2    0  503  0.67882459559E+02 -0.51625273483E+02  0.45975329536E+03  0.61534241669E+03  0.40000000000E+03 0. -1.
<mgrwt>
<rscale>  2 0.40899046E+03</rscale>
<asrwt>0</asrwt>
<pdfrwt beam="1">  1       21 0.15170885E+00 0.40899046E+03</pdfrwt>
<pdfrwt beam="2">  1       21 0.26311157E-01 0.40899046E+03</pdfrwt>
<totfact> 0.35011177E+03</totfact>
</mgrwt>
</event>
<event>
 4    1  0.8722554E-003  0.4339256E+03  0.7818608E-02  0.1032627E+00
         21   -1    0    0  503  502  0.00000000000E+00  0.00000000000E+00  0.13450800248E+04  0.13450800248E+04  0.00000000000E+00 0. -1.
         21   -1    0    0  501  503 -0.00000000000E+00 -0.00000000000E+00 -0.27301437134E+03  0.27301437134E+03  0.00000000000E+00 0. -1.
    9000005    1    1    2  501    0 -0.15203840383E+03 -0.71942775753E+02  0.11007803998E+04  0.11832197293E+04  0.40000000000E+03 0. -1.
   -9000005    1    1    2    0  502  0.15203840383E+03  0.71942775753E+02 -0.28714746326E+02  0.43487466686E+03  0.40000000000E+03 0. -1.
<mgrwt>
<rscale>  2 0.43392561E+03</rscale>
<asrwt>0</asrwt>
<pdfrwt beam="1">  1       21 0.20693538E+00 0.43392561E+03</pdfrwt>
<pdfrwt beam="2">  1       21 0.42002212E-01 0.43392561E+03</pdfrwt>
<totfact> 0.54912222E+02</totfact>
</mgrwt>
</event>
<event>
 4    1  0.8722554E-003  0.4858822E+03  0.7818608E-02  0.1017531E+00
         21   -1    0    0  501  502  0.00000000000E+00  0.00000000000E+00  0.29592822828E+03  0.29592822828E+03  0.00000000000E+00 0.  1.
         21   -1    0    0  502  503 -0.00000000000E+00 -0.00000000000E+00 -0.85100626820E+03  0.85100626820E+03  0.00000000000E+00 0.  1.
    9000005    1    1    2  501    0  0.62259995705E+02  0.26871020095E+03 -0.42097640353E+03  0.64288615748E+03  0.40000000000E+03 0.  1.
   -9000005    1    1    2    0  503 -0.62259995705E+02 -0.26871020095E+03 -0.13410163639E+03  0.50404833899E+03  0.40000000000E+03 0.  1.
<mgrwt>
<rscale>  2 0.48588217E+03</rscale>
<asrwt>0</asrwt>
<pdfrwt beam="1">  1       21 0.45527420E-01 0.48588217E+03</pdfrwt>
<pdfrwt beam="2">  1       21 0.13092404E+00 0.48588217E+03</pdfrwt>
<totfact> 0.16590841E+03</totfact>
</mgrwt>
</event>
<event>
 4    1  0.8722554E-003  0.5447658E+03  0.7818608E-02  0.1002713E+00
         21   -1    0    0  501  502  0.00000000000E+00  0.00000000000E+00  0.43633015489E+03  0.43633015489E+03  0.00000000000E+00 0.  1.
         21   -1    0    0  502  503 -0.00000000000E+00 -0.00000000000E+00 -0.68018187833E+03  0.68018187833E+03  0.00000000000E+00 0. -1.
    9000005    1    1    2  501    0  0.10863469568E+03 -0.35350854459E+03 -0.11808123000E+03  0.55741633012E+03  0.40000000000E+03 0.  1.
   -9000005    1    1    2    0  503 -0.10863469568E+03  0.35350854459E+03 -0.12577049344E+03  0.55909570310E+03  0.40000000000E+03 0. -1.
<mgrwt>
<rscale>  2 0.54476581E+03</rscale>
<asrwt>0</asrwt>
<pdfrwt beam="1">  1       21 0.67127717E-01 0.54476581E+03</pdfrwt>
<pdfrwt beam="2">  1       21 0.10464336E+00 0.54476581E+03</pdfrwt>
<totfact> 0.12352673E+03</totfact>
</mgrwt>
</event>
<event>
 4    1  0.8722554E-003  0.4237197E+03  0.7818608E-02  0.1035862E+00
         21   -1    0    0  503  502  0.00000000000E+00  0.00000000000E+00  0.71107946872E+03  0.71107946872E+03  0.00000000000E+00 0. -1.
         21   -1    0    0  501  503 -0.00000000000E+00 -0.00000000000E+00 -0.29542593667E+03  0.29542593667E+03  0.00000000000E+00 0. -1.
    9000005    1    1    2  501    0  0.16771817136E+02 -0.13877002007E+03  0.15965721537E+02  0.42402042001E+03  0.40000000000E+03 0. -1.
   -9000005    1    1    2    0  502 -0.16771817136E+02  0.13877002007E+03  0.39968781052E+03  0.58248498538E+03  0.40000000000E+03 0. -1.
<mgrwt>
<rscale>  2 0.42371973E+03</rscale>
<asrwt>0</asrwt>
<pdfrwt beam="1">  1       21 0.10939684E+00 0.42371973E+03</pdfrwt>
<pdfrwt beam="2">  1       21 0.45450144E-01 0.42371973E+03</pdfrwt>
<totfact> 0.26891719E+03</totfact>
</mgrwt>
</event>
<event>
 4    1  0.8722554E-003  0.6346405E+03  0.7818608E-02  0.9836035E-01
         21   -1    0    0  501  502  0.00000000000E+00  0.00000000000E+00  0.15753588386E+04  0.15753588386E+04  0.00000000000E+00 0.  1.
         21   -1    0    0  502  503 -0.00000000000E+00 -0.00000000000E+00 -0.31273830502E+03  0.31273830502E+03  0.00000000000E+00 0. -1.
    9000005    1    1    2  501    0 -0.48687874032E+03 -0.75615150486E+02  0.10345929604E+04  0.12137343830E+04  0.40000000000E+03 0.  1.
   -9000005    1    1    2    0  503  0.48687874032E+03  0.75615150486E+02  0.22802757314E+03  0.67436276059E+03  0.40000000000E+03 0. -1.
<mgrwt>
<rscale>  2 0.63464050E+03</rscale>
<asrwt>0</asrwt>
<pdfrwt beam="1">  1       21 0.24236289E+00 0.63464050E+03</pdfrwt>
<pdfrwt beam="2">  1       21 0.48113586E-01 0.63464050E+03</pdfrwt>
<totfact> 0.22411121E+02</totfact>
</mgrwt>
</event>
<event>
 4    1  0.8722554E-003  0.5271103E+03  0.7818608E-02  0.1006935E+00
         21   -1    0    0  503  502  0.00000000000E+00  0.00000000000E+00  0.41819802952E+03  0.41819802952E+03  0.00000000000E+00 0.  1.
         21   -1    0    0  501  503 -0.00000000000E+00 -0.00000000000E+00 -0.69196711359E+03  0.69196711359E+03  0.00000000000E+00 0. -1.
    9000005    1    1    2  501    0  0.24378218002E+03  0.24169307321E+03 -0.24770339920E+03  0.58241073729E+03  0.40000000000E+03 0. -1.
   -9000005    1    1    2    0  502 -0.24378218002E+03 -0.24169307321E+03 -0.26065684861E+02  0.52775440582E+03  0.40000000000E+03 0.  1.
<mgrwt>
<rscale>  2 0.52711032E+03</rscale>
<asrwt>0</asrwt>
<pdfrwt beam="1">  1       21 0.64338158E-01 0.52711032E+03</pdfrwt>
<pdfrwt beam="2">  1       21 0.10645648E+00 0.52711032E+03</pdfrwt>
<totfact> 0.13093108E+03</totfact>
</mgrwt>
</event>
<event>
 4    1  0.8722554E-003  0.4065876E+03  0.7818608E-02  0.1041522E+00
         21   -1    0    0  501  502  0.00000000000E+00  0.00000000000E+00  0.98023284745E+03  0.98023284745E+03  0.00000000000E+00 0. -1.
         21   -1    0    0  502  503 -0.00000000000E+00 -0.00000000000E+00 -0.18707524775E+03  0.18707524775E+03  0.00000000000E+00 0. -1.
    9000005    1    1    2  501    0 -0.67839184460E+02  0.26670083635E+02  0.21339463691E+03  0.45918484227E+03  0.40000000000E+03 0. -1.
   -9000005    1    1    2    0  503  0.67839184460E+02 -0.26670083635E+02  0.57976296280E+03  0.70812325293E+03  0.40000000000E+03 0. -1.
<mgrwt>
<rscale>  2 0.40658757E+03</rscale>
<asrwt>0</asrwt>
<pdfrwt beam="1">  1       21 0.15080505E+00 0.40658757E+03</pdfrwt>
<pdfrwt beam="2">  1       21 0.28780808E-01 0.40658757E+03</pdfrwt>
<totfact> 0.29867742E+03</totfact>
</mgrwt>
</event>
<event>
 4    1  0.8722554E-003  0.4051254E+03  0.7818608E-02  0.1042019E+00
         21   -1    0    0  501  502  0.00000000000E+00  0.00000000000E+00  0.12386449153E+04  0.12386449153E+04  0.00000000000E+00 0. -1.
         21   -1    0    0  502  503 -0.00000000000E+00 -0.00000000000E+00 -0.15340492687E+03  0.15340492687E+03  0.00000000000E+00 0. -1.
    9000005    1    1    2  501    0  0.12180740629E+02  0.63073270264E+02  0.79952811137E+03  0.89631010746E+03  0.40000000000E+03 0. -1.
   -9000005    1    1    2    0  503 -0.12180740629E+02 -0.63073270264E+02  0.28571187702E+03  0.49573973467E+03  0.40000000000E+03 0. -1.
<mgrwt>
<rscale>  2 0.40512542E+03</rscale>
<asrwt>0</asrwt>
<pdfrwt beam="1">  1       21 0.19056075E+00 0.40512542E+03</pdfrwt>
<pdfrwt beam="2">  1       21 0.23600759E-01 0.40512542E+03</pdfrwt>
<totfact> 0.22644238E+03</totfact>
</mgrwt>
</event>
<event>
 4    1  0.8722554E-003  0.4232639E+03  0.7818608E-02  0.1036009E+00
         21   -1    0    0  503  502  0.00000000000E+00  0.00000000000E+00  0.35753033433E+03  0.35753033433E+03  0.00000000000E+00 0.  1.
         21   -1    0    0  501  503 -0.00000000000E+00 -0.00000000000E+00 -0.72462137357E+03  0.72462137357E+03  0.00000000000E+00 0.  1.
    9000005    1    1    2  501    0  0.13755927411E+03 -0.15157991876E+02 -0.48406925162E+03  0.64302049654E+03  0.40000000000E+03 0.  1.
   -9000005    1    1    2    0  502 -0.13755927411E+03  0.15157991876E+02  0.11697821238E+03  0.43913121135E+03  0.40000000000E+03 0.  1.
<mgrwt>
<rscale>  2 0.42326389E+03</rscale>
<asrwt>0</asrwt>
<pdfrwt beam="1">  1       21 0.55004667E-01 0.42326389E+03</pdfrwt>
<pdfrwt beam="2">  1       21 0.11148021E+00 0.42326389E+03</pdfrwt>
<totfact> 0.17112812E+03</totfact>
</mgrwt>
</event>
<event>
 4    1  0.8722554E-003  0.4639057E+03  0.7818608E-02  0.1023655E+00
         21   -1    0    0  501  502  0.00000000000E+00  0.00000000000E+00  0.71559705822E+03  0.71559705822E+03  0.00000000000E+00 0.  1.
         21   -1    0    0  502  503 -0.00000000000E+00 -0.00000000000E+00 -0.30369141570E+03  0.30369141570E+03  0.00000000000E+00 0.  1.
    9000005    1    1    2  501    0  0.17233706095E+03  0.15971368820E+03  0.15570932178E+03  0.48934028821E+03  0.40000000000E+03 0.  1.
   -9000005    1    1    2    0  503 -0.17233706095E+03 -0.15971368820E+03  0.25619632074E+03  0.52994818571E+03  0.40000000000E+03 0.  1.
<mgrwt>
<rscale>  2 0.46390573E+03</rscale>
<asrwt>0</asrwt>
<pdfrwt beam="1">  1       21 0.11009185E+00 0.46390573E+03</pdfrwt>
<pdfrwt beam="2">  1       21 0.46721756E-01 0.46390573E+03</pdfrwt>
<totfact> 0.24609574E+03</totfact>
</mgrwt>
</event>
<event>
 4    1  0.8722554E-003  0.4380500E+03  0.7818608E-02  0.1031347E+00
         21   -1    0    0  503  502  0.00000000000E+00  0.00000000000E+00  0.15814231539E+04  0.15814231539E+04  0.00000000000E+00 0.  1.
         21   -1    0    0  501  503 -0.00000000000E+00 -0.00000000000E+00 -0.12333557286E+03  0.12333557286E+03  0.00000000000E+00 0.  1.
    9000005    1    1    2  501    0 -0.17261778332E+03 -0.45726033994E+02  0.62058416391E+03  0.75961337127E+03  0.40000000000E+03 0. -1.
   -9000005    1    1    2    0  502  0.17261778332E+03  0.45726033994E+02  0.83750341713E+03  0.94514535549E+03  0.40000000000E+03 0. -1.
<mgrwt>
<rscale>  2 0.43804996E+03</rscale>
<asrwt>0</asrwt>
<pdfrwt beam="1">  1       21 0.24329586E+00 0.43804996E+03</pdfrwt>
<pdfrwt beam="2">  1       21 0.18974705E-01 0.43804996E+03</pdfrwt>
<totfact> 0.15478701E+03</totfact>
</mgrwt>
</event>
<event>
 4    1  0.8722554E-003  0.4886921E+03  0.7818608E-02  0.1016773E+00
         21   -1    0    0  501  502  0.00000000000E+00  0.00000000000E+00  0.45525636819E+03  0.45525636819E+03  0.00000000000E+00 0. -1.
         21   -1    0    0  502  503 -0.00000000000E+00 -0.00000000000E+00 -0.58282719079E+03  0.58282719079E+03  0.00000000000E+00 0. -1.
    9000005    1    1    2  501    0 -0.27479033769E+03 -0.57535059781E+02  0.10029494181E+03  0.49887782888E+03  0.40000000000E+03 0. -1.
   -9000005    1    1    2    0  503  0.27479033769E+03  0.57535059781E+02 -0.22786576441E+03  0.53920573011E+03  0.40000000000E+03 0. -1.
<mgrwt>
<rscale>  2 0.48869215E+03</rscale>
<asrwt>0</asrwt>
<pdfrwt beam="1">  1       21 0.70039441E-01 0.48869215E+03</pdfrwt>
<pdfrwt beam="2">  1       21 0.89665722E-01 0.48869215E+03</pdfrwt>
<totfact> 0.16626625E+03</totfact>
</mgrwt>
</event>
<event>
 4    1  0.8722554E-003  0.4099976E+03  0.7818608E-02  0.1040372E+00
         21   -1    0    0  503  502  0.00000000000E+00  0.00000000000E+00  0.10376023412E+04  0.10376023412E+04  0.00000000000E+00 0. -1.
         21   -1    0    0  501  503 -0.00000000000E+00 -0.00000000000E+00 -0.16291528329E+03  0.16291528329E+03  0.00000000000E+00 0. -1.
    9000005    1    1    2  501    0 -0.78300380106E+02 -0.44352047467E+02  0.48218191562E+03  0.63292768417E+03  0.40000000000E+03 0.  1.
   -9000005    1    1    2    0  502  0.78300380106E+02  0.44352047467E+02  0.39250514233E+03  0.56758994036E+03  0.40000000000E+03 0.  1.
<mgrwt>
<rscale>  2 0.40999763E+03</rscale>
<asrwt>0</asrwt>
<pdfrwt beam="1">  1       21 0.15963113E+00 0.40999763E+03</pdfrwt>
<pdfrwt beam="2">  1       21 0.25063890E-01 0.40999763E+03</pdfrwt>
<totfact> 0.33450669E+03</totfact>
</mgrwt>
</event>
<event>
 4    1  0.8722554E-003  0.4012404E+03  0.7818608E-02  0.1043351E+00
         21   -1    0    0  503  502  0.00000000000E+00  0.00000000000E+00  0.40558258514E+03  0.40558258514E+03  0.00000000000E+00 0.  1.
         21   -1    0    0  501  503 -0.00000000000E+00 -0.00000000000E+00 -0.41214731108E+03  0.41214731108E+03  0.00000000000E+00 0.  1.
    9000005    1    1    2  501    0 -0.55763536827E+01 -0.31029065435E+02 -0.81807968164E+02  0.40949535074E+03  0.40000000000E+03 0.  1.
   -9000005    1    1    2    0  502  0.55763536827E+01  0.31029065435E+02  0.75243242231E+02  0.40823454548E+03  0.40000000000E+03 0.  1.
<mgrwt>
<rscale>  2 0.40124045E+03</rscale>
<asrwt>0</asrwt>
<pdfrwt beam="1">  1       21 0.62397321E-01 0.40124045E+03</pdfrwt>
<pdfrwt beam="2">  1       21 0.63407278E-01 0.40124045E+03</pdfrwt>
<totfact> 0.49002254E+03</totfact>
</mgrwt>
</event>
<event>
 4    1  0.8722554E-003  0.4807715E+03  0.7818608E-02  0.1018923E+00
         21   -1    0    0  503  502  0.00000000000E+00  0.00000000000E+00  0.30188803306E+03  0.30188803306E+03  0.00000000000E+00 0.  1.
         21   -1    0    0  501  503 -0.00000000000E+00 -0.00000000000E+00 -0.81801880736E+03  0.81801880736E+03  0.00000000000E+00 0.  1.
    9000005    1    1    2  501    0 -0.14552143202E+03  0.22352804073E+03 -0.39974161618E+03  0.62524765643E+03  0.40000000000E+03 0.  1.
   -9000005    1    1    2    0  502  0.14552143202E+03 -0.22352804073E+03 -0.11638915812E+03  0.49465918398E+03  0.40000000000E+03 0.  1.
<mgrwt>
<rscale>  2 0.48077154E+03</rscale>
<asrwt>0</asrwt>
<pdfrwt beam="1">  1       21 0.46444313E-01 0.48077154E+03</pdfrwt>
<pdfrwt beam="2">  1       21 0.12584905E+00 0.48077154E+03</pdfrwt>
<totfact> 0.17659552E+03</totfact>
</mgrwt>
</event>
<event>
 4    1  0.8722554E-003  0.4093002E+03  0.7818608E-02  0.1040606E+00
         21   -1    0    0  503  502  0.00000000000E+00  0.00000000000E+00  0.68050683428E+03  0.68050683428E+03  0.00000000000E+00 0.  1.
         21   -1    0    0  501  503 -0.00000000000E+00 -0.00000000000E+00 -0.33896120372E+03  0.33896120372E+03  0.00000000000E+00 0.  1.
    9000005    1    1    2  501    0 -0.28048407327E+02  0.82097351330E+02 -0.95913228541E+02  0.42038795851E+03  0.40000000000E+03 0.  1.
   -9000005    1    1    2    0  502  0.28048407327E+02 -0.82097351330E+02  0.43745885910E+03  0.59908007950E+03  0.40000000000E+03 0.  1.
<mgrwt>
<rscale>  2 0.40930024E+03</rscale>
<asrwt>0</asrwt>
<pdfrwt beam="1">  1       21 0.10469336E+00 0.40930024E+03</pdfrwt>
<pdfrwt beam="2">  1       21 0.52147877E-01 0.40930024E+03</pdfrwt>
<totfact> 0.22534557E+03</totfact>
</mgrwt>
</event>
<event>
 4    1  0.8722554E-003  0.4945132E+03  0.7818608E-02  0.1015221E+00
         21   -1    0    0  501  502  0.00000000000E+00  0.00000000000E+00  0.19301144254E+03  0.19301144254E+03  0.00000000000E+00 0.  1.
         21   -1    0    0  502  503 -0.00000000000E+00 -0.00000000000E+00 -0.12677826745E+04  0.12677826745E+04  0.00000000000E+00 0.  1.
    9000005    1    1    2  501    0  0.18057993584E+03  0.22789071841E+03 -0.55566551352E+03  0.74384639253E+03  0.40000000000E+03 0.  1.
   -9000005    1    1    2    0  503 -0.18057993584E+03 -0.22789071841E+03 -0.51910571846E+03  0.71694772453E+03  0.40000000000E+03 0.  1.
<mgrwt>
<rscale>  2 0.49451319E+03</rscale>
<asrwt>0</asrwt>
<pdfrwt beam="1">  1       21 0.29694068E-01 0.49451319E+03</pdfrwt>
<pdfrwt beam="2">  1       21 0.19504349E+00 0.49451319E+03</pdfrwt>
<totfact> 0.12953814E+03</totfact>
</mgrwt>
</event>
<event>
 4    1  0.8722554E-003  0.9822642E+03  0.7818608E-02  0.9328214E-01
         21   -1    0    0  501  502  0.00000000000E+00  0.00000000000E+00  0.44907800954E+03  0.44907800954E+03  0.00000000000E+00 0. -1.
         21   -1    0    0  502  503 -0.00000000000E+00 -0.00000000000E+00 -0.21484994515E+04  0.21484994515E+04  0.00000000000E+00 0.  1.
    9000005    1    1    2  501    0  0.57778904727E+03  0.68629644117E+03 -0.84847821177E+03  0.12979823821E+04  0.40000000000E+03 0. -1.
   -9000005    1    1    2    0  503 -0.57778904727E+03 -0.68629644117E+03 -0.85094323023E+03  0.12995950790E+04  0.40000000000E+03 0.  1.
<mgrwt>
<rscale>  2 0.98226422E+03</rscale>
<asrwt>0</asrwt>
<pdfrwt beam="1">  1       21 0.69088926E-01 0.98226422E+03</pdfrwt>
<pdfrwt beam="2">  1       21 0.33053837E+00 0.98226422E+03</pdfrwt>
<totfact> 0.25449341E+01</totfact>
</mgrwt>
</event>
<event>
 4    1  0.8722554E-003  0.4528174E+03  0.7818608E-02  0.1026885E+00
         21   -1    0    0  501  502  0.00000000000E+00  0.00000000000E+00  0.94313013949E+03  0.94313013949E+03  0.00000000000E+00 0.  1.
         21   -1    0    0  502  503 -0.00000000000E+00 -0.00000000000E+00 -0.21746648412E+03  0.21746648412E+03  0.00000000000E+00 0.  1.
    9000005    1    1    2  501    0  0.19014320419E+03 -0.94282535736E+02  0.35328071830E+03  0.57432647560E+03  0.40000000000E+03 0.  1.
   -9000005    1    1    2    0  503 -0.19014320419E+03  0.94282535736E+02  0.37238293707E+03  0.58627014802E+03  0.40000000000E+03 0.  1.
<mgrwt>
<rscale>  2 0.45281744E+03</rscale>
<asrwt>0</asrwt>
<pdfrwt beam="1">  1       21 0.14509694E+00 0.45281744E+03</pdfrwt>
<pdfrwt beam="2">  1       21 0.33456383E-01 0.45281744E+03</pdfrwt>
<totfact> 0.24106785E+03</totfact>
</mgrwt>
</event>
<event>
 4    1  0.8722554E-003  0.4909069E+03  0.7818608E-02  0.1016180E+00
         21   -1    0    0  503  502  0.00000000000E+00  0.00000000000E+00  0.12208284204E+04  0.12208284204E+04  0.00000000000E+00 0.  1.
         21   -1    0    0  501  503 -0.00000000000E+00 -0.00000000000E+00 -0.19849468206E+03  0.19849468206E+03  0.00000000000E+00 0.  1.
    9000005    1    1    2  501    0 -0.50536417050E+02 -0.28006372081E+03  0.56390581587E+03  0.74764924017E+03  0.40000000000E+03 0.  1.
   -9000005    1    1    2    0  502  0.50536417050E+02  0.28006372081E+03  0.45842792244E+03  0.67167386225E+03  0.40000000000E+03 0.  1.
<mgrwt>
<rscale>  2 0.49090693E+03</rscale>
<asrwt>0</asrwt>
<pdfrwt beam="1">  1       21 0.18781975E+00 0.49090693E+03</pdfrwt>
<pdfrwt beam="2">  1       21 0.30537644E-01 0.49090693E+03</pdfrwt>
<totfact> 0.13747447E+03</totfact>
</mgrwt>
</event>
<event>
 4    1  0.8722554E-003  0.4050354E+03  0.7818608E-02  0.1042050E+00
         21   -1    0    0  501  502  0.00000000000E+00  0.00000000000E+00  0.10572725917E+04  0.10572725917E+04  0.00000000000E+00 0.  1.
         21   -1    0    0  502  503 -0.00000000000E+00 -0.00000000000E+00 -0.29474355678E+03  0.29474355678E+03  0.00000000000E+00 0.  1.
    9000005    1    1    2  501    0 -0.43702642583E+02 -0.46300868902E+02  0.84646070519E+03  0.93837594644E+03  0.40000000000E+03 0.  1.
   -9000005    1    1    2    0  503  0.43702642583E+02  0.46300868902E+02 -0.83931670301E+02  0.41364020200E+03  0.40000000000E+03 0.  1.
<mgrwt>
<rscale>  2 0.40503542E+03</rscale>
<asrwt>0</asrwt>
<pdfrwt beam="1">  1       21 0.16265732E+00 0.40503542E+03</pdfrwt>
<pdfrwt beam="2">  1       21 0.45345163E-01 0.40503542E+03</pdfrwt>
<totfact> 0.96478590E+02</totfact>
</mgrwt>
</event>
<event>
 4    1  0.8722554E-003  0.4108110E+03  0.7818608E-02  0.1040099E+00
         21   -1    0    0  503  502  0.00000000000E+00  0.00000000000E+00  0.22411734565E+03  0.22411734565E+03  0.00000000000E+00 0. -1.
         21   -1    0    0  501  503 -0.00000000000E+00 -0.00000000000E+00 -0.75307786729E+03  0.75307786729E+03  0.00000000000E+00 0. -1.
    9000005    1    1    2  501    0 -0.90684616894E+02 -0.23280689554E+02 -0.26862110270E+03  0.49083906432E+03  0.40000000000E+03 0. -1.
   -9000005    1    1    2    0  502  0.90684616894E+02  0.23280689554E+02 -0.26033941894E+03  0.48635614862E+03  0.40000000000E+03 0. -1.
<mgrwt>
<rscale>  2 0.41081102E+03</rscale>
<asrwt>0</asrwt>
<pdfrwt beam="1">  1       21 0.34479591E-01 0.41081102E+03</pdfrwt>
<pdfrwt beam="2">  1       21 0.11585814E+00 0.41081102E+03</pdfrwt>
<totfact> 0.41330140E+03</totfact>
</mgrwt>
</event>
<event>
 4    1  0.8722554E-003  0.4300852E+03  0.7818608E-02  0.1033833E+00
         21   -1    0    0  501  502  0.00000000000E+00  0.00000000000E+00  0.56405837403E+03  0.56405837403E+03  0.00000000000E+00 0.  1.
         21   -1    0    0  502  503 -0.00000000000E+00 -0.00000000000E+00 -0.38717625807E+03  0.38717625807E+03  0.00000000000E+00 0. -1.
    9000005    1    1    2  501    0 -0.14698945559E+03 -0.58029240446E+02  0.27448827097E+03  0.51021280237E+03  0.40000000000E+03 0.  1.
   -9000005    1    1    2    0  503  0.14698945559E+03  0.58029240446E+02 -0.97606155004E+02  0.44102182973E+03  0.40000000000E+03 0. -1.
<mgrwt>
<rscale>  2 0.43008522E+03</rscale>
<asrwt>0</asrwt>
<pdfrwt beam="1">  1       21 0.86778212E-01 0.43008522E+03</pdfrwt>
<pdfrwt beam="2">  1       21 0.59565578E-01 0.43008522E+03</pdfrwt>
<totfact> 0.26298103E+03</totfact>
</mgrwt>
</event>
<event>
 4    1  0.8722554E-003  0.5881251E+03  0.7818608E-02  0.9930354E-01
         21   -1    0    0  503  502  0.00000000000E+00  0.00000000000E+00  0.35755499196E+03  0.35755499196E+03  0.00000000000E+00 0.  1.
         21   -1    0    0  501  503 -0.00000000000E+00 -0.00000000000E+00 -0.11011987648E+04  0.11011987648E+04  0.00000000000E+00 0. -1.
    9000005    1    1    2  501    0  0.39080594947E+03  0.18210386285E+03 -0.62608282411E+03  0.85899406846E+03  0.40000000000E+03 0.  1.
   -9000005    1    1    2    0  502 -0.39080594947E+03 -0.18210386285E+03 -0.11756094868E+03  0.59975968826E+03  0.40000000000E+03 0. -1.
<mgrwt>
<rscale>  2 0.58812508E+03</rscale>
<asrwt>0</asrwt>
<pdfrwt beam="1">  1       21 0.55008460E-01 0.58812508E+03</pdfrwt>
<pdfrwt beam="2">  1       21 0.16941520E+00 0.58812508E+03</pdfrwt>
<totfact> 0.52812956E+02</totfact>
</mgrwt>
</event>
<event>
 4    1  0.8722554E-003  0.5007024E+03  0.7818608E-02  0.1013596E+00
         21   -1    0    0  503  502  0.00000000000E+00  0.00000000000E+00  0.48163361837E+03  0.48163361837E+03  0.00000000000E+00 0.  1.
         21   -1    0    0  501  503 -0.00000000000E+00 -0.00000000000E+00 -0.98385856379E+03  0.98385856379E+03  0.00000000000E+00 0.  1.
    9000005    1    1    2  501    0  0.15174820291E+03  0.26014498352E+03 -0.75395671484E+03  0.90507107864E+03  0.40000000000E+03 0.  1.
   -9000005    1    1    2    0  502 -0.15174820291E+03 -0.26014498352E+03  0.25173176942E+03  0.56042110352E+03  0.40000000000E+03 0.  1.
<mgrwt>
<rscale>  2 0.50070244E+03</rscale>
<asrwt>0</asrwt>
<pdfrwt beam="1">  1       21 0.74097480E-01 0.50070244E+03</pdfrwt>
<pdfrwt beam="2">  1       21 0.15136285E+00 0.50070244E+03</pdfrwt>
<totfact> 0.38606914E+02</totfact>
</mgrwt>
</event>
<event>
 4    1  0.8722554E-003  0.4034002E+03  0.7818608E-02  0.1042609E+00
         21   -1    0    0  503  502  0.00000000000E+00  0.00000000000E+00  0.45337587809E+03  0.45337587809E+03  0.00000000000E+00 0.  1.
         21   -1    0    0  501  503 -0.00000000000E+00 -0.00000000000E+00 -0.36645102218E+03  0.36645102218E+03  0.00000000000E+00 0.  1.
    9000005    1    1    2  501    0 -0.31196864395E+02  0.41934126899E+02 -0.15249502768E+02  0.40368832369E+03  0.40000000000E+03 0.  1.
   -9000005    1    1    2    0  502  0.31196864395E+02 -0.41934126899E+02  0.10217435867E+03  0.41613857658E+03  0.40000000000E+03 0.  1.
<mgrwt>
<rscale>  2 0.40340019E+03</rscale>
<asrwt>0</asrwt>
<pdfrwt beam="1">  1       21 0.69750135E-01 0.40340019E+03</pdfrwt>
<pdfrwt beam="2">  1       21 0.56377080E-01 0.40340019E+03</pdfrwt>
<totfact> 0.49414406E+03</totfact>
</mgrwt>
</event>
<event>
 4    1  0.8722554E-003  0.4261837E+03  0.7818608E-02  0.1035072E+00
         21   -1    0    0  503  502  0.00000000000E+00  0.00000000000E+00  0.40006542391E+03  0.40006542391E+03  0.00000000000E+00 0. -1.
         21   -1    0    0  501  503 -0.00000000000E+00 -0.00000000000E+00 -0.45705783364E+03  0.45705783364E+03  0.00000000000E+00 0. -1.
    9000005    1    1    2  501    0 -0.13890151163E+03  0.48362509986E+02 -0.63508969248E+02  0.43088972079E+03  0.40000000000E+03 0. -1.
   -9000005    1    1    2    0  502  0.13890151163E+03 -0.48362509986E+02  0.65165595173E+01  0.42623353675E+03  0.40000000000E+03 0. -1.
<mgrwt>
<rscale>  2 0.42618372E+03</rscale>
<asrwt>0</asrwt>
<pdfrwt beam="1">  1       21 0.61548527E-01 0.42618372E+03</pdfrwt>
<pdfrwt beam="2">  1       21 0.70316590E-01 0.42618372E+03</pdfrwt>
<totfact> 0.39741240E+03</totfact>
</mgrwt>
</event>
<event>
 4    1  0.8722554E-003  0.4189898E+03  0.7818608E-02  0.1037396E+00
         21   -1    0    0  501  502  0.00000000000E+00  0.00000000000E+00  0.13261826188E+03  0.13261826188E+03  0.00000000000E+00 0.  1.
         21   -1    0    0  502  503 -0.00000000000E+00 -0.00000000000E+00 -0.15401696616E+04  0.15401696616E+04  0.00000000000E+00 0.  1.
    9000005    1    1    2  501    0  0.61952703837E+02  0.10823271347E+03 -0.10173079901E+04  0.11002127087E+04  0.40000000000E+03 0.  1.
   -9000005    1    1    2    0  503 -0.61952703837E+02 -0.10823271347E+03 -0.39024340968E+03  0.57257521478E+03  0.40000000000E+03 0.  1.
<mgrwt>
<rscale>  2 0.41898981E+03</rscale>
<asrwt>0</asrwt>
<pdfrwt beam="1">  1       21 0.20402809E-01 0.41898981E+03</pdfrwt>
<pdfrwt beam="2">  1       21 0.23694919E+00 0.41898981E+03</pdfrwt>
<totfact> 0.14902593E+03</totfact>
</mgrwt>
</event>
<event>
 4    1  0.8722554E-003  0.5475478E+03  0.7818608E-02  0.1002063E+00
         21   -1    0    0  501  502  0.00000000000E+00  0.00000000000E+00  0.45955890846E+03  0.45955890846E+03  0.00000000000E+00 0. -1.
         21   -1    0    0  502  503 -0.00000000000E+00 -0.00000000000E+00 -0.76814141885E+03  0.76814141885E+03  0.00000000000E+00 0. -1.
    9000005    1    1    2  501    0 -0.13558382571E+03  0.34846171706E+03  0.84005197054E+02  0.55395434395E+03  0.40000000000E+03 0. -1.
   -9000005    1    1    2    0  503  0.13558382571E+03 -0.34846171706E+03 -0.39258770744E+03  0.67374598335E+03  0.40000000000E+03 0. -1.
<mgrwt>
<rscale>  2 0.54754775E+03</rscale>
<asrwt>0</asrwt>
<pdfrwt beam="1">  1       21 0.70701371E-01 0.54754775E+03</pdfrwt>
<pdfrwt beam="2">  1       21 0.11817560E+00 0.54754775E+03</pdfrwt>
<totfact> 0.81009383E+02</totfact>
</mgrwt>
</event>
<event>
 4    1  0.8722554E-003  0.5179731E+03  0.7818608E-02  0.1009191E+00
         21   -1    0    0  503  502  0.00000000000E+00  0.00000000000E+00  0.12491073651E+03  0.12491073651E+03  0.00000000000E+00 0. -1.
         21   -1    0    0  501  503 -0.00000000000E+00 -0.00000000000E+00 -0.22446982814E+04  0.22446982814E+04  0.00000000000E+00 0.  1.
    9000005    1    1    2  501    0  0.28157111746E+03 -0.17033452464E+03 -0.13059276018E+04  0.14048996568E+04  0.40000000000E+03 0. -1.
   -9000005    1    1    2    0  502 -0.28157111746E+03  0.17033452464E+03 -0.81385994306E+03  0.96470936109E+03  0.40000000000E+03 0.  1.
<mgrwt>
<rscale>  2 0.51797311E+03</rscale>
<asrwt>0</asrwt>
<pdfrwt beam="1">  1       21 0.19217036E-01 0.51797311E+03</pdfrwt>
<pdfrwt beam="2">  1       21 0.34533820E+00 0.51797311E+03</pdfrwt>
<totfact> 0.34810997E+02</totfact>
</mgrwt>
</event>
<event>
 4    1  0.8722554E-003  0.4321742E+03  0.7818608E-02  0.1033175E+00
         21   -1    0    0  503  502  0.00000000000E+00  0.00000000000E+00  0.19241276483E+03  0.19241276483E+03  0.00000000000E+00 0.  1.
         21   -1    0    0  501  503 -0.00000000000E+00 -0.00000000000E+00 -0.97070074631E+03  0.97070074631E+03  0.00000000000E+00 0.  1.
    9000005    1    1    2  501    0  0.15217392373E+03  0.60146486243E+02 -0.38800888899E+03  0.58079721143E+03  0.40000000000E+03 0.  1.
   -9000005    1    1    2    0  502 -0.15217392373E+03 -0.60146486243E+02 -0.39027909250E+03  0.58231629971E+03  0.40000000000E+03 0.  1.
<mgrwt>
<rscale>  2 0.43217416E+03</rscale>
<asrwt>0</asrwt>
<pdfrwt beam="1">  1       21 0.29601964E-01 0.43217416E+03</pdfrwt>
<pdfrwt beam="2">  1       21 0.14933858E+00 0.43217416E+03</pdfrwt>
<totfact> 0.28709641E+03</totfact>
</mgrwt>
</event>
<event>
 4    1  0.8722554E-003  0.5156371E+03  0.7818608E-02  0.1009776E+00
         21   -1    0    0  503  502  0.00000000000E+00  0.00000000000E+00  0.12766003751E+04  0.12766003751E+04  0.00000000000E+00 0. -1.
         21   -1    0    0  501  503 -0.00000000000E+00 -0.00000000000E+00 -0.22459105322E+03  0.22459105322E+03  0.00000000000E+00 0. -1.
    9000005    1    1    2  501    0  0.13212251709E+03  0.29736384147E+03  0.32368332032E+03  0.60881237306E+03  0.40000000000E+03 0. -1.
   -9000005    1    1    2    0  502 -0.13212251709E+03 -0.29736384147E+03  0.72832600156E+03  0.89237905527E+03  0.40000000000E+03 0. -1.
<mgrwt>
<rscale>  2 0.51563709E+03</rscale>
<asrwt>0</asrwt>
<pdfrwt beam="1">  1       21 0.19640005E+00 0.51563709E+03</pdfrwt>
<pdfrwt beam="2">  1       21 0.34552470E-01 0.51563709E+03</pdfrwt>
<totfact> 0.92791266E+02</totfact>
</mgrwt>
</event>
<event>
 4    1  0.8722554E-003  0.4059216E+03  0.7818608E-02  0.1041748E+00
         21   -1    0    0  503  502  0.00000000000E+00  0.00000000000E+00  0.93989355050E+03  0.93989355050E+03  0.00000000000E+00 0. -1.
         21   -1    0    0  501  503 -0.00000000000E+00 -0.00000000000E+00 -0.18684885022E+03  0.18684885022E+03  0.00000000000E+00 0. -1.
    9000005    1    1    2  501    0 -0.38214193590E+02  0.57550396354E+02  0.23651913291E+03  0.46980173791E+03  0.40000000000E+03 0. -1.
   -9000005    1    1    2    0  502  0.38214193590E+02 -0.57550396354E+02  0.51652556737E+03  0.65694066281E+03  0.40000000000E+03 0. -1.
<mgrwt>
<rscale>  2 0.40592163E+03</rscale>
<asrwt>0</asrwt>
<pdfrwt beam="1">  1       21 0.14459901E+00 0.40592163E+03</pdfrwt>
<pdfrwt beam="2">  1       21 0.28745977E-01 0.40592163E+03</pdfrwt>
<totfact> 0.33536770E+03</totfact>
</mgrwt>
</event>
<event>
 4    1  0.8722554E-003  0.4388621E+03  0.7818608E-02  0.1031097E+00
         21   -1    0    0  503  502  0.00000000000E+00  0.00000000000E+00  0.18317153086E+03  0.18317153086E+03  0.00000000000E+00 0.  1.
         21   -1    0    0  501  503 -0.00000000000E+00 -0.00000000000E+00 -0.10753683017E+04  0.10753683017E+04  0.00000000000E+00 0.  1.
    9000005    1    1    2  501    0  0.15222844098E+03 -0.97089714908E+02 -0.35229575549E+03  0.56277189901E+03  0.40000000000E+03 0.  1.
   -9000005    1    1    2    0  502 -0.15222844098E+03  0.97089714908E+02 -0.53990101537E+03  0.69576793357E+03  0.40000000000E+03 0.  1.
<mgrwt>
<rscale>  2 0.43886206E+03</rscale>
<asrwt>0</asrwt>
<pdfrwt beam="1">  1       21 0.28180235E-01 0.43886206E+03</pdfrwt>
<pdfrwt beam="2">  1       21 0.16544128E+00 0.43886206E+03</pdfrwt>
<totfact> 0.23784145E+03</totfact>
</mgrwt>
</event>
<event>
 4    1  0.8722554E-003  0.4692616E+03  0.7818608E-02  0.1022129E+00
         21   -1    0    0  501  502  0.00000000000E+00  0.00000000000E+00  0.45579286257E+03  0.45579286257E+03  0.00000000000E+00 0. -1.
         21   -1    0    0  502  503 -0.00000000000E+00 -0.00000000000E+00 -0.55876508049E+03  0.55876508049E+03  0.00000000000E+00 0. -1.
    9000005    1    1    2  501    0  0.34529058831E+00  0.24536979699E+03  0.13515125276E+03  0.48833627515E+03  0.40000000000E+03 0. -1.
   -9000005    1    1    2    0  503 -0.34529058831E+00 -0.24536979699E+03 -0.23812347068E+03  0.52622166792E+03  0.40000000000E+03 0. -1.
<mgrwt>
<rscale>  2 0.46926161E+03</rscale>
<asrwt>0</asrwt>
<pdfrwt beam="1">  1       21 0.70121979E-01 0.46926161E+03</pdfrwt>
<pdfrwt beam="2">  1       21 0.85963859E-01 0.46926161E+03</pdfrwt>
<totfact> 0.18445994E+03</totfact>
</mgrwt>
</event>
<event>
 4    1  0.8722554E-003  0.4352756E+03  0.7818608E-02  0.1032206E+00
         21   -1    0    0  503  502  0.00000000000E+00  0.00000000000E+00  0.17252019041E+03  0.17252019041E+03  0.00000000000E+00 0. -1.
         21   -1    0    0  501  503 -0.00000000000E+00 -0.00000000000E+00 -0.10983078097E+04  0.10983078097E+04  0.00000000000E+00 0.  1.
    9000005    1    1    2  501    0  0.67822190645E+02 -0.15768647352E+03 -0.46862204622E+03  0.63958697272E+03  0.40000000000E+03 0. -1.
   -9000005    1    1    2    0  502 -0.67822190645E+02  0.15768647352E+03 -0.45716557310E+03  0.63124102743E+03  0.40000000000E+03 0.  1.
<mgrwt>
<rscale>  2 0.43527563E+03</rscale>
<asrwt>0</asrwt>
<pdfrwt beam="1">  1       21 0.26541568E-01 0.43527563E+03</pdfrwt>
<pdfrwt beam="2">  1       21 0.16897043E+00 0.43527563E+03</pdfrwt>
<totfact> 0.25241877E+03</totfact>
</mgrwt>
</event>
<event>
 4    1  0.8722554E-003  0.4027474E+03  0.7818608E-02  0.1042832E+00
         21   -1    0    0  503  502  0.00000000000E+00  0.00000000000E+00  0.11824217236E+04  0.11824217236E+04  0.00000000000E+00 0. -1.
         21   -1    0    0  501  503 -0.00000000000E+00 -0.00000000000E+00 -0.14311967877E+03  0.14311967877E+03  0.00000000000E+00 0. -1.
    9000005    1    1    2  501    0 -0.39868353680E+02 -0.24819258794E+02  0.65466173476E+03  0.76862700199E+03  0.40000000000E+03 0. -1.
   -9000005    1    1    2    0  502  0.39868353680E+02  0.24819258794E+02  0.38464031009E+03  0.55691440041E+03  0.40000000000E+03 0. -1.
<mgrwt>
<rscale>  2 0.40274742E+03</rscale>
<asrwt>0</asrwt>
<pdfrwt beam="1">  1       21 0.18191103E+00 0.40274742E+03</pdfrwt>
<pdfrwt beam="2">  1       21 0.22018413E-01 0.40274742E+03</pdfrwt>
<totfact> 0.29713519E+03</totfact>
</mgrwt>
</event>
<event>
 4    1  0.8722554E-003  0.5857555E+03  0.7818608E-02  0.9935408E-01
         21   -1    0    0  503  502  0.00000000000E+00  0.00000000000E+00  0.10129948409E+04  0.10129948409E+04  0.00000000000E+00 0. -1.
         21   -1    0    0  501  503 -0.00000000000E+00 -0.00000000000E+00 -0.35649908460E+03  0.35649908460E+03  0.00000000000E+00 0. -1.
    9000005    1    1    2  501    0 -0.41106400860E+03  0.11889451194E+03  0.17527962630E+03  0.61141840954E+03  0.40000000000E+03 0. -1.
   -9000005    1    1    2    0  502  0.41106400860E+03 -0.11889451194E+03  0.48121613004E+03  0.75807551599E+03  0.40000000000E+03 0. -1.
<mgrwt>
<rscale>  2 0.58575552E+03</rscale>
<asrwt>0</asrwt>
<pdfrwt beam="1">  1       21 0.15584536E+00 0.58575552E+03</pdfrwt>
<pdfrwt beam="2">  1       21 0.54846014E-01 0.58575552E+03</pdfrwt>
<totfact> 0.67365157E+02</totfact>
</mgrwt>
</event>
<event>
 4    1  0.8722554E-003  0.5869898E+03  0.7818608E-02  0.9932772E-01
         21   -1    0    0  503  502  0.00000000000E+00  0.00000000000E+00  0.47220247018E+03  0.47220247018E+03  0.00000000000E+00 0. -1.
         21   -1    0    0  501  503 -0.00000000000E+00 -0.00000000000E+00 -0.11429709002E+04  0.11429709002E+04  0.00000000000E+00 0. -1.
    9000005    1    1    2  501    0 -0.47232329263E+02  0.42699664464E+03 -0.82100707100E+03  0.10092619274E+04  0.40000000000E+03 0. -1.
   -9000005    1    1    2    0  502  0.47232329263E+02 -0.42699664464E+03  0.15023864100E+03  0.60591144296E+03  0.40000000000E+03 0. -1.
<mgrwt>
<rscale>  2 0.58698980E+03</rscale>
<asrwt>0</asrwt>
<pdfrwt beam="1">  1       21 0.72646534E-01 0.58698980E+03</pdfrwt>
<pdfrwt beam="2">  1       21 0.17584168E+00 0.58698980E+03</pdfrwt>
<totfact> 0.25546432E+02</totfact>
</mgrwt>
</event>
<event>
 4    1  0.8722554E-003  0.4814727E+03  0.7818608E-02  0.1018731E+00
         21   -1    0    0  501  502  0.00000000000E+00  0.00000000000E+00  0.34577782345E+03  0.34577782345E+03  0.00000000000E+00 0. -1.
         21   -1    0    0  502  503 -0.00000000000E+00 -0.00000000000E+00 -0.69364551350E+03  0.69364551350E+03  0.00000000000E+00 0. -1.
    9000005    1    1    2  501    0  0.22761551343E+03  0.14144657842E+03 -0.78832321086E+02  0.48788368629E+03  0.40000000000E+03 0. -1.
   -9000005    1    1    2    0  503 -0.22761551343E+03 -0.14144657842E+03 -0.26903536897E+03  0.55153965067E+03  0.40000000000E+03 0. -1.
<mgrwt>
<rscale>  2 0.48147270E+03</rscale>
<asrwt>0</asrwt>
<pdfrwt beam="1">  1       21 0.53196589E-01 0.48147270E+03</pdfrwt>
<pdfrwt beam="2">  1       21 0.10671469E+00 0.48147270E+03</pdfrwt>
<totfact> 0.20041128E+03</totfact>
</mgrwt>
</event>
<event>
 4    1  0.8722554E-003  0.4512741E+03  0.7818608E-02  0.1027343E+00
         21   -1    0    0  501  502  0.00000000000E+00  0.00000000000E+00  0.74398380427E+03  0.74398380427E+03  0.00000000000E+00 0.  1.
         21   -1    0    0  502  503 -0.00000000000E+00 -0.00000000000E+00 -0.27416984688E+03  0.27416984688E+03  0.00000000000E+00 0.  1.
    9000005    1    1    2  501    0 -0.51195366856E+02  0.20255210787E+03  0.25537084957E+03  0.51851961660E+03  0.40000000000E+03 0.  1.
   -9000005    1    1    2    0  503  0.51195366856E+02 -0.20255210787E+03  0.21444310782E+03  0.49963403455E+03  0.40000000000E+03 0.  1.
<mgrwt>
<rscale>  2 0.45127411E+03</rscale>
<asrwt>0</asrwt>
<pdfrwt beam="1">  1       21 0.11445905E+00 0.45127411E+03</pdfrwt>
<pdfrwt beam="2">  1       21 0.42179977E-01 0.45127411E+03</pdfrwt>
<totfact> 0.27790444E+03</totfact>
</mgrwt>
</event>
<event>
 4    1  0.8722554E-003  0.6788352E+03  0.7818608E-02  0.9754127E-01
         21   -1    0    0  503  502  0.00000000000E+00  0.00000000000E+00  0.24271461108E+03  0.24271461108E+03  0.00000000000E+00 0.  1.
         21   -1    0    0  501  503 -0.00000000000E+00 -0.00000000000E+00 -0.20580406073E+04  0.20580406073E+04  0.00000000000E+00 0.  1.
    9000005    1    1    2  501    0 -0.53147132522E+03  0.13548235106E+03 -0.12278597931E+04  0.14030170735E+04  0.40000000000E+03 0.  1.
   -9000005    1    1    2    0  502  0.53147132522E+03 -0.13548235106E+03 -0.58746620309E+03  0.89773814487E+03  0.40000000000E+03 0.  1.
<mgrwt>
<rscale>  2 0.67883521E+03</rscale>
<asrwt>0</asrwt>
<pdfrwt beam="1">  1       21 0.37340710E-01 0.67883521E+03</pdfrwt>
<pdfrwt beam="2">  1       21 0.31662162E+00 0.67883521E+03</pdfrwt>
<totfact> 0.13063707E+02</totfact>
</mgrwt>
</event>
<event>
 4    1  0.8722554E-003  0.4707290E+03  0.7818608E-02  0.1021715E+00
         21   -1    0    0  503  502  0.00000000000E+00  0.00000000000E+00  0.15372003699E+04  0.15372003699E+04  0.00000000000E+00 0. -1.
         21   -1    0    0  501  503 -0.00000000000E+00 -0.00000000000E+00 -0.20123835234E+03  0.20123835234E+03  0.00000000000E+00 0. -1.
    9000005    1    1    2  501    0 -0.22891217295E+03 -0.95838519128E+02  0.20501212903E+03  0.51343527121E+03  0.40000000000E+03 0. -1.
   -9000005    1    1    2    0  502  0.22891217295E+03  0.95838519128E+02  0.11309498885E+04  0.12250034510E+04  0.40000000000E+03 0. -1.
<mgrwt>
<rscale>  2 0.47072901E+03</rscale>
<asrwt>0</asrwt>
<pdfrwt beam="1">  1       21 0.23649236E+00 0.47072901E+03</pdfrwt>
<pdfrwt beam="2">  1       21 0.30959748E-01 0.47072901E+03</pdfrwt>
<totfact> 0.64898752E+02</totfact>
</mgrwt>
</event>
<event>
 4    1  0.8722554E-003  0.4534647E+03  0.7818608E-02  0.1026694E+00
         21   -1    0    0  503  502  0.00000000000E+00  0.00000000000E+00  0.41583939900E+03  0.41583939900E+03  0.00000000000E+00 0. -1.
         21   -1    0    0  501  503 -0.00000000000E+00 -0.00000000000E+00 -0.51767206156E+03  0.51767206156E+03  0.00000000000E+00 0.  1.
    9000005    1    1    2  501    0 -0.16081356316E+03  0.14060315739E+03 -0.14967999605E+03  0.47752942442E+03  0.40000000000E+03 0.  1.
   -9000005    1    1    2    0  502  0.16081356316E+03 -0.14060315739E+03  0.47847333482E+02  0.45598203615E+03  0.40000000000E+03 0. -1.
<mgrwt>
<rscale>  2 0.45346472E+03</rscale>
<asrwt>0</asrwt>
<pdfrwt beam="1">  1       21 0.63975292E-01 0.45346472E+03</pdfrwt>
<pdfrwt beam="2">  1       21 0.79641856E-01 0.45346472E+03</pdfrwt>
<totfact> 0.27206356E+03</totfact>
</mgrwt>
</event>
<event>
 4    1  0.8722554E-003  0.5551279E+03  0.7818608E-02  0.1000314E+00
         21   -1    0    0  501  502  0.00000000000E+00  0.00000000000E+00  0.61356210638E+03  0.61356210638E+03  0.00000000000E+00 0. -1.
         21   -1    0    0  502  503 -0.00000000000E+00 -0.00000000000E+00 -0.64210543300E+03  0.64210543300E+03  0.00000000000E+00 0. -1.
    9000005    1    1    2  501    0  0.38327392567E+03 -0.35609955134E+02  0.27872825363E+03  0.62117341409E+03  0.40000000000E+03 0. -1.
   -9000005    1    1    2    0  503 -0.38327392567E+03  0.35609955134E+02 -0.30727158025E+03  0.63449412529E+03  0.40000000000E+03 0. -1.
<mgrwt>
<rscale>  2 0.55512789E+03</rscale>
<asrwt>0</asrwt>
<pdfrwt beam="1">  1       21 0.94394170E-01 0.55512789E+03</pdfrwt>
<pdfrwt beam="2">  1       21 0.98785451E-01 0.55512789E+03</pdfrwt>
<totfact> 0.64272826E+02</totfact>
</mgrwt>
</event>
<event>
 4    1  0.8722554E-003  0.4585684E+03  0.7818608E-02  0.1025197E+00
         21   -1    0    0  501  502  0.00000000000E+00  0.00000000000E+00  0.34497827255E+03  0.34497827255E+03  0.00000000000E+00 0.  1.
         21   -1    0    0  502  503 -0.00000000000E+00 -0.00000000000E+00 -0.79432602356E+03  0.79432602356E+03  0.00000000000E+00 0. -1.
    9000005    1    1    2  501    0 -0.11372015408E+03  0.19326859024E+03  0.50065670628E+02  0.46129339123E+03  0.40000000000E+03 0.  1.
   -9000005    1    1    2    0  503  0.11372015408E+03 -0.19326859024E+03 -0.49941342164E+03  0.67801090488E+03  0.40000000000E+03 0. -1.
<mgrwt>
<rscale>  2 0.45856845E+03</rscale>
<asrwt>0</asrwt>
<pdfrwt beam="1">  1       21 0.53073581E-01 0.45856845E+03</pdfrwt>
<pdfrwt beam="2">  1       21 0.12220400E+00 0.45856845E+03</pdfrwt>
<totfact> 0.14461129E+03</totfact>
</mgrwt>
</event>
<event>
 4    1  0.8722554E-003  0.5249382E+03  0.7818608E-02  0.1007467E+00
         21   -1    0    0  503  502  0.00000000000E+00  0.00000000000E+00  0.83362170962E+03  0.83362170962E+03  0.00000000000E+00 0.  1.
         21   -1    0    0  501  503 -0.00000000000E+00 -0.00000000000E+00 -0.34996215587E+03  0.34996215587E+03  0.00000000000E+00 0. -1.
    9000005    1    1    2  501    0  0.27946115503E+03 -0.19355006379E+03  0.10247943649E+03  0.53484782814E+03  0.40000000000E+03 0. -1.
   -9000005    1    1    2    0  502 -0.27946115503E+03  0.19355006379E+03  0.38118011726E+03  0.64873603735E+03  0.40000000000E+03 0.  1.
<mgrwt>
<rscale>  2 0.52493825E+03</rscale>
<asrwt>0</asrwt>
<pdfrwt beam="1">  1       21 0.12824949E+00 0.52493825E+03</pdfrwt>
<pdfrwt beam="2">  1       21 0.53840332E-01 0.52493825E+03</pdfrwt>
<totfact> 0.12079921E+03</totfact>
</mgrwt>
</event>
<event>
 4    1  0.8722554E-003  0.4185551E+03  0.7818608E-02  0.1037538E+00
         21   -1    0    0  501  502  0.00000000000E+00  0.00000000000E+00  0.18731475712E+03  0.18731475712E+03  0.00000000000E+00 0. -1.
         21   -1    0    0  502  503 -0.00000000000E+00 -0.00000000000E+00 -0.16493755618E+04  0.16493755618E+04  0.00000000000E+00 0.  1.
    9000005    1    1    2  501    0 -0.11740760962E+03  0.37467469273E+02 -0.12676207634E+03  0.43732937478E+03  0.40000000000E+03 0. -1.
   -9000005    1    1    2    0  503  0.11740760962E+03 -0.37467469273E+02 -0.13352987283E+04  0.13993609441E+04  0.40000000000E+03 0.  1.
<mgrwt>
<rscale>  2 0.41855508E+03</rscale>
<asrwt>0</asrwt>
<pdfrwt beam="1">  1       21 0.28817655E-01 0.41855508E+03</pdfrwt>
<pdfrwt beam="2">  1       21 0.25375009E+00 0.41855508E+03</pdfrwt>
<totfact> 0.60172643E+02</totfact>
</mgrwt>
</event>
<event>
 4    1  0.8722554E-003  0.4465693E+03  0.7818608E-02  0.1028750E+00
         21   -1    0    0  501  502  0.00000000000E+00  0.00000000000E+00  0.47752748641E+03  0.47752748641E+03  0.00000000000E+00 0. -1.
         21   -1    0    0  502  503 -0.00000000000E+00 -0.00000000000E+00 -0.51349907780E+03  0.51349907780E+03  0.00000000000E+00 0. -1.
    9000005    1    1    2  501    0  0.11070716512E+03 -0.16482729982E+03  0.19613148722E+03  0.48774140223E+03  0.40000000000E+03 0. -1.
   -9000005    1    1    2    0  503 -0.11070716512E+03  0.16482729982E+03 -0.23210307861E+03  0.50328516198E+03  0.40000000000E+03 0. -1.
<mgrwt>
<rscale>  2 0.44656927E+03</rscale>
<asrwt>0</asrwt>
<pdfrwt beam="1">  1       21 0.73465767E-01 0.44656927E+03</pdfrwt>
<pdfrwt beam="2">  1       21 0.78999858E-01 0.44656927E+03</pdfrwt>
<totfact> 0.20374728E+03</totfact>
</mgrwt>
</event>
<event>
 4    1  0.8722554E-003  0.5544039E+03  0.7818608E-02  0.1000480E+00
         21   -1    0    0  503  502  0.00000000000E+00  0.00000000000E+00  0.14489988520E+03  0.14489988520E+03  0.00000000000E+00 0.  1.
         21   -1    0    0  501  503 -0.00000000000E+00 -0.00000000000E+00 -0.21787580578E+04  0.21787580578E+04  0.00000000000E+00 0.  1.
    9000005    1    1    2  501    0  0.32069616505E+03  0.21099194869E+03 -0.82811309020E+03  0.99656154996E+03  0.40000000000E+03 0.  1.
   -9000005    1    1    2    0  502 -0.32069616505E+03 -0.21099194869E+03 -0.12057450824E+04  0.13270963930E+04  0.40000000000E+03 0.  1.
<mgrwt>
<rscale>  2 0.55440385E+03</rscale>
<asrwt>0</asrwt>
<pdfrwt beam="1">  1       21 0.22292290E-01 0.55440385E+03</pdfrwt>
<pdfrwt beam="2">  1       21 0.33519355E+00 0.55440385E+03</pdfrwt>
<totfact> 0.29678430E+02</totfact>
</mgrwt>
</event>
<event>
 4    1  0.8722554E-003  0.5718764E+03  0.7818608E-02  0.9965535E-01
         21   -1    0    0  501  502  0.00000000000E+00  0.00000000000E+00  0.35799523513E+03  0.35799523513E+03  0.00000000000E+00 0.  1.
         21   -1    0    0  502  503 -0.00000000000E+00 -0.00000000000E+00 -0.11538348663E+04  0.11538348663E+04  0.00000000000E+00 0. -1.
    9000005    1    1    2  501    0 -0.37909702143E+03  0.15273541476E+03 -0.52955487199E+02  0.57432302949E+03  0.40000000000E+03 0.  1.
   -9000005    1    1    2    0  503  0.37909702143E+03 -0.15273541476E+03 -0.74288414397E+03  0.93750707194E+03  0.40000000000E+03 0. -1.
<mgrwt>
<rscale>  2 0.57187644E+03</rscale>
<asrwt>0</asrwt>
<pdfrwt beam="1">  1       21 0.55076190E-01 0.57187644E+03</pdfrwt>
<pdfrwt beam="2">  1       21 0.17751306E+00 0.57187644E+03</pdfrwt>
<totfact> 0.46273849E+02</totfact>
</mgrwt>
</event>
<event>
 4    1  0.8722554E-003  0.4473876E+03  0.7818608E-02  0.1028504E+00
         21   -1    0    0  503  502  0.00000000000E+00  0.00000000000E+00  0.25836701636E+03  0.25836701636E+03  0.00000000000E+00 0. -1.
         21   -1    0    0  501  503 -0.00000000000E+00 -0.00000000000E+00 -0.78438612172E+03  0.78438612172E+03  0.00000000000E+00 0.  1.
    9000005    1    1    2  501    0  0.18074569967E+03  0.86525226719E+02 -0.32096239024E+03  0.55061100493E+03  0.40000000000E+03 0. -1.
   -9000005    1    1    2    0  502 -0.18074569967E+03 -0.86525226719E+02 -0.20505671512E+03  0.49214213315E+03  0.40000000000E+03 0. -1.
<mgrwt>
<rscale>  2 0.44738755E+03</rscale>
<asrwt>0</asrwt>
<pdfrwt beam="1">  1       21 0.39748772E-01 0.44738755E+03</pdfrwt>
<pdfrwt beam="2">  1       21 0.12067479E+00 0.44738755E+03</pdfrwt>
<totfact> 0.27537874E+03</totfact>
</mgrwt>
</event>
<event>
 4    1  0.8722554E-003  0.4346839E+03  0.7818608E-02  0.1032390E+00
         21   -1    0    0  503  502  0.00000000000E+00  0.00000000000E+00  0.22692352051E+03  0.22692352051E+03  0.00000000000E+00 0. -1.
         21   -1    0    0  501  503 -0.00000000000E+00 -0.00000000000E+00 -0.84521178549E+03  0.84521178549E+03  0.00000000000E+00 0.  1.
    9000005    1    1    2  501    0 -0.14282349141E+03 -0.92474750353E+02 -0.24381749508E+03  0.49839452250E+03  0.40000000000E+03 0. -1.
   -9000005    1    1    2    0  502  0.14282349141E+03  0.92474750353E+02 -0.37447076990E+03  0.57374078351E+03  0.40000000000E+03 0. -1.
<mgrwt>
<rscale>  2 0.43468394E+03</rscale>
<asrwt>0</asrwt>
<pdfrwt beam="1">  1       21 0.34911312E-01 0.43468394E+03</pdfrwt>
<pdfrwt beam="2">  1       21 0.13003258E+00 0.43468394E+03</pdfrwt>
<totfact> 0.29751739E+03</totfact>
</mgrwt>
</event>
<event>
 4    1  0.8722554E-003  0.7758154E+03  0.7818608E-02  0.9595698E-01
         21   -1    0    0  503  502  0.00000000000E+00  0.00000000000E+00  0.73722067450E+03  0.73722067450E+03  0.00000000000E+00 0.  1.
         21   -1    0    0  501  503 -0.00000000000E+00 -0.00000000000E+00 -0.81825705180E+03  0.81825705180E+03  0.00000000000E+00 0. -1.
    9000005    1    1    2  501    0 -0.48982411564E+03 -0.44940171557E+03 -0.77262083639E+02  0.77965312530E+03  0.40000000000E+03 0. -1.
   -9000005    1    1    2    0  502  0.48982411564E+03  0.44940171557E+03 -0.37742936562E+01  0.77582460100E+03  0.40000000000E+03 0.  1.
<mgrwt>
<rscale>  2 0.77581542E+03</rscale>
<asrwt>0</asrwt>
<pdfrwt beam="1">  1       21 0.11341857E+00 0.77581542E+03</pdfrwt>
<pdfrwt beam="2">  1       21 0.12588570E+00 0.77581542E+03</pdfrwt>
<totfact> 0.20691744E+02</totfact>
</mgrwt>
</event>
<event>
 4    1  0.8722554E-003  0.4558375E+03  0.7818608E-02  0.1025995E+00
         21   -1    0    0  503  502  0.00000000000E+00  0.00000000000E+00  0.97159594899E+03  0.97159594899E+03  0.00000000000E+00 0.  1.
         21   -1    0    0  501  503 -0.00000000000E+00 -0.00000000000E+00 -0.25879504039E+03  0.25879504039E+03  0.00000000000E+00 0. -1.
    9000005    1    1    2  501    0 -0.57349406684E+02 -0.21094757969E+03  0.10006057833E+03  0.46669042754E+03  0.40000000000E+03 0. -1.
   -9000005    1    1    2    0  502  0.57349406684E+02  0.21094757969E+03  0.61274033026E+03  0.76370056184E+03  0.40000000000E+03 0.  1.
<mgrwt>
<rscale>  2 0.45583751E+03</rscale>
<asrwt>0</asrwt>
<pdfrwt beam="1">  1       21 0.14947630E+00 0.45583751E+03</pdfrwt>
<pdfrwt beam="2">  1       21 0.39814622E-01 0.45583751E+03</pdfrwt>
<totfact> 0.15593951E+03</totfact>
</mgrwt>
</event>
<event>
 4    1  0.8722554E-003  0.5349642E+03  0.7818608E-02  0.1005035E+00
         21   -1    0    0  501  502  0.00000000000E+00  0.00000000000E+00  0.92659747485E+03  0.92659747485E+03  0.00000000000E+00 0. -1.
         21   -1    0    0  502  503 -0.00000000000E+00 -0.00000000000E+00 -0.31646094669E+03  0.31646094669E+03  0.00000000000E+00 0. -1.
    9000005    1    1    2  501    0 -0.34663522922E+03 -0.77657528014E+02  0.40140764079E+03  0.66881594470E+03  0.40000000000E+03 0. -1.
   -9000005    1    1    2    0  503  0.34663522922E+03  0.77657528014E+02  0.20872888737E+03  0.57424247685E+03  0.40000000000E+03 0. -1.
<mgrwt>
<rscale>  2 0.53496418E+03</rscale>
<asrwt>0</asrwt>
<pdfrwt beam="1">  1       21 0.14255346E+00 0.53496418E+03</pdfrwt>
<pdfrwt beam="2">  1       21 0.48686300E-01 0.53496418E+03</pdfrwt>
<totfact> 0.11295966E+03</totfact>
</mgrwt>
</event>
<event>
 4    1  0.8722554E-003  0.5462968E+03  0.7818608E-02  0.1002355E+00
         21   -1    0    0  501  502  0.00000000000E+00  0.00000000000E+00  0.70156802696E+03  0.70156802696E+03  0.00000000000E+00 0.  1.
         21   -1    0    0  502  503 -0.00000000000E+00 -0.00000000000E+00 -0.42540067708E+03  0.42540067708E+03  0.00000000000E+00 0. -1.
    9000005    1    1    2  501    0 -0.15347413893E+03 -0.33894824397E+03  0.13529870897E+03  0.56280188705E+03  0.40000000000E+03 0. -1.
   -9000005    1    1    2    0  503  0.15347413893E+03  0.33894824397E+03  0.14086864091E+03  0.56416681700E+03  0.40000000000E+03 0.  1.
<mgrwt>
<rscale>  2 0.54629683E+03</rscale>
<asrwt>0</asrwt>
<pdfrwt beam="1">  1       21 0.10793354E+00 0.54629683E+03</pdfrwt>
<pdfrwt beam="2">  1       21 0.65446258E-01 0.54629683E+03</pdfrwt>
<totfact> 0.12102719E+03</totfact>
</mgrwt>
</event>
<event>
 4    1  0.8722554E-003  0.4972544E+03  0.7818608E-02  0.1014498E+00
         21   -1    0    0  503  502  0.00000000000E+00  0.00000000000E+00  0.11017208542E+03  0.11017208542E+03  0.00000000000E+00 0. -1.
         21   -1    0    0  501  503 -0.00000000000E+00 -0.00000000000E+00 -0.22512124138E+04  0.22512124138E+04  0.00000000000E+00 0. -1.
    9000005    1    1    2  501    0 -0.21832541395E+03  0.19898724668E+03 -0.10052112792E+04  0.11214774302E+04  0.40000000000E+03 0. -1.
   -9000005    1    1    2    0  502  0.21832541395E+03 -0.19898724668E+03 -0.11358290492E+04  0.12399070689E+04  0.40000000000E+03 0. -1.
<mgrwt>
<rscale>  2 0.49725437E+03</rscale>
<asrwt>0</asrwt>
<pdfrwt beam="1">  1       21 0.16949553E-01 0.49725437E+03</pdfrwt>
<pdfrwt beam="2">  1       21 0.34634034E+00 0.49725437E+03</pdfrwt>
<totfact> 0.43983231E+02</totfact>
</mgrwt>
</event>
<event>
 4    1  0.8722554E-003  0.4097264E+03  0.7818608E-02  0.1040463E+00
         21   -1    0    0  501  502  0.00000000000E+00  0.00000000000E+00  0.15795373949E+03  0.15795373949E+03  0.00000000000E+00 0.  1.
         21   -1    0    0  502  503 -0.00000000000E+00 -0.00000000000E+00 -0.10884212084E+04  0.10884212084E+04  0.00000000000E+00 0.  1.
    9000005    1    1    2  501    0  0.88567263137E+02 -0.56176202005E+01 -0.36964939830E+03  0.55183004215E+03  0.40000000000E+03 0. -1.
   -9000005    1    1    2    0  503 -0.88567263137E+02  0.56176202005E+01 -0.56081807058E+03  0.69454490571E+03  0.40000000000E+03 0. -1.
<mgrwt>
<rscale>  2 0.40972639E+03</rscale>
<asrwt>0</asrwt>
<pdfrwt beam="1">  1       21 0.24300576E-01 0.40972639E+03</pdfrwt>
<pdfrwt beam="2">  1       21 0.16744941E+00 0.40972639E+03</pdfrwt>
<totfact> 0.31073894E+03</totfact>
</mgrwt>
</event>
<event>
 4    1  0.8722554E-003  0.4524054E+03  0.7818608E-02  0.1027007E+00
         21   -1    0    0  503  502  0.00000000000E+00  0.00000000000E+00  0.10702407569E+04  0.10702407569E+04  0.00000000000E+00 0. -1.
         21   -1    0    0  501  503 -0.00000000000E+00 -0.00000000000E+00 -0.20275866452E+03  0.20275866452E+03  0.00000000000E+00 0. -1.
    9000005    1    1    2  501    0  0.10215983785E+03 -0.18502432962E+03  0.58546300532E+03  0.73989023890E+03  0.40000000000E+03 0. -1.
   -9000005    1    1    2    0  502 -0.10215983785E+03  0.18502432962E+03  0.28201908707E+03  0.53310918253E+03  0.40000000000E+03 0. -1.
<mgrwt>
<rscale>  2 0.45240539E+03</rscale>
<asrwt>0</asrwt>
<pdfrwt beam="1">  1       21 0.16465242E+00 0.45240539E+03</pdfrwt>
<pdfrwt beam="2">  1       21 0.31193641E-01 0.45240539E+03</pdfrwt>
<totfact> 0.19598261E+03</totfact>
</mgrwt>
</event>
<event>
 4    1  0.8722554E-003  0.4943460E+03  0.7818608E-02  0.1015265E+00
         21   -1    0    0  503  502  0.00000000000E+00  0.00000000000E+00  0.13176419250E+04  0.13176419250E+04  0.00000000000E+00 0. -1.
         21   -1    0    0  501  503 -0.00000000000E+00 -0.00000000000E+00 -0.22783946682E+03  0.22783946682E+03  0.00000000000E+00 0. -1.
    9000005    1    1    2  501    0 -0.28894204613E+03  0.29840915987E+02  0.21165480896E+03  0.53775063407E+03  0.40000000000E+03 0. -1.
   -9000005    1    1    2    0  502  0.28894204613E+03 -0.29840915987E+02  0.87814764920E+03  0.10077307577E+04  0.40000000000E+03 0. -1.
<mgrwt>
<rscale>  2 0.49434602E+03</rscale>
<asrwt>0</asrwt>
<pdfrwt beam="1">  1       21 0.20271414E+00 0.49434602E+03</pdfrwt>
<pdfrwt beam="2">  1       21 0.35052226E-01 0.49434602E+03</pdfrwt>
<totfact> 0.82457283E+02</totfact>
</mgrwt>
</event>
<event>
 4    1  0.8722554E-003  0.4670892E+03  0.7818608E-02  0.1022745E+00
         21   -1    0    0  503  502  0.00000000000E+00  0.00000000000E+00  0.48924374020E+03  0.48924374020E+03  0.00000000000E+00 0.  1.
         21   -1    0    0  501  503 -0.00000000000E+00 -0.00000000000E+00 -0.44912933951E+03  0.44912933951E+03  0.00000000000E+00 0.  1.
    9000005    1    1    2  501    0  0.23777260334E+03  0.40453613959E+02  0.59608063352E+02  0.47087729506E+03  0.40000000000E+03 0.  1.
   -9000005    1    1    2    0  502 -0.23777260334E+03 -0.40453613959E+02 -0.19493662661E+02  0.46749578465E+03  0.40000000000E+03 0.  1.
<mgrwt>
<rscale>  2 0.46708918E+03</rscale>
<asrwt>0</asrwt>
<pdfrwt beam="1">  1       21 0.75268268E-01 0.46708918E+03</pdfrwt>
<pdfrwt beam="2">  1       21 0.69096822E-01 0.46708918E+03</pdfrwt>
<totfact> 0.25956972E+03</totfact>
</mgrwt>
</event>
<event>
 4    1  0.8722554E-003  0.4655944E+03  0.7818608E-02  0.1023171E+00
         21   -1    0    0  501  502  0.00000000000E+00  0.00000000000E+00  0.11518690473E+04  0.11518690473E+04  0.00000000000E+00 0.  1.
         21   -1    0    0  502  503 -0.00000000000E+00 -0.00000000000E+00 -0.19656183275E+03  0.19656183275E+03  0.00000000000E+00 0. -1.
    9000005    1    1    2  501    0  0.21977664270E+02 -0.23726602584E+03  0.33856860384E+03  0.57567949786E+03  0.40000000000E+03 0. -1.
   -9000005    1    1    2    0  503 -0.21977664270E+02  0.23726602584E+03  0.61673861074E+03  0.77275138222E+03  0.40000000000E+03 0.  1.
<mgrwt>
<rscale>  2 0.46559444E+03</rscale>
<asrwt>0</asrwt>
<pdfrwt beam="1">  1       21 0.17721062E+00 0.46559444E+03</pdfrwt>
<pdfrwt beam="2">  1       21 0.30240283E-01 0.46559444E+03</pdfrwt>
<totfact> 0.16809036E+03</totfact>
</mgrwt>
</event>
<event>
 4    1  0.8722554E-003  0.5775416E+03  0.7818608E-02  0.9953128E-01
         21   -1    0    0  501  502  0.00000000000E+00  0.00000000000E+00  0.12383539231E+04  0.12383539231E+04  0.00000000000E+00 0. -1.
         21   -1    0    0  502  503 -0.00000000000E+00 -0.00000000000E+00 -0.35033311005E+03  0.35033311005E+03  0.00000000000E+00 0.  1.
    9000005    1    1    2  501    0 -0.36909323124E+03 -0.19319551650E+03  0.82591685781E+03  0.10078159440E+04  0.40000000000E+03 0. -1.
   -9000005    1    1    2    0  503  0.36909323124E+03  0.19319551650E+03  0.62103955209E+02  0.58087108914E+03  0.40000000000E+03 0.  1.
<mgrwt>
<rscale>  2 0.57754162E+03</rscale>
<asrwt>0</asrwt>
<pdfrwt beam="1">  1       21 0.19051599E+00 0.57754162E+03</pdfrwt>
<pdfrwt beam="2">  1       21 0.53897402E-01 0.57754162E+03</pdfrwt>
<totfact> 0.39207750E+02</totfact>
</mgrwt>
</event>
<event>
 4    1  0.8722554E-003  0.4021483E+03  0.7818608E-02  0.1043038E+00
         21   -1    0    0  503  502  0.00000000000E+00  0.00000000000E+00  0.25948868863E+03  0.25948868863E+03  0.00000000000E+00 0. -1.
         21   -1    0    0  501  503 -0.00000000000E+00 -0.00000000000E+00 -0.65954075112E+03  0.65954075112E+03  0.00000000000E+00 0. -1.
    9000005    1    1    2  501    0  0.30618229921E+02 -0.28031606528E+02 -0.30783317953E+03  0.50644300112E+03  0.40000000000E+03 0. -1.
   -9000005    1    1    2    0  502 -0.30618229921E+02  0.28031606528E+02 -0.92218882961E+02  0.41258643863E+03  0.40000000000E+03 0. -1.
<mgrwt>
<rscale>  2 0.40214829E+03</rscale>
<asrwt>0</asrwt>
<pdfrwt beam="1">  1       21 0.39921337E-01 0.40214829E+03</pdfrwt>
<pdfrwt beam="2">  1       21 0.10146781E+00 0.40214829E+03</pdfrwt>
<totfact> 0.42697022E+03</totfact>
</mgrwt>
</event>
<event>
 4    1  0.8722554E-003  0.4041155E+03  0.7818608E-02  0.1042364E+00
         21   -1    0    0  501  502  0.00000000000E+00  0.00000000000E+00  0.13376137435E+03  0.13376137435E+03  0.00000000000E+00 0.  1.
         21   -1    0    0  502  503 -0.00000000000E+00 -0.00000000000E+00 -0.12672913986E+04  0.12672913986E+04  0.00000000000E+00 0.  1.
    9000005    1    1    2  501    0  0.50686024312E+02  0.27207477236E+02 -0.43273472113E+03  0.59208838762E+03  0.40000000000E+03 0.  1.
   -9000005    1    1    2    0  503 -0.50686024312E+02 -0.27207477236E+02 -0.70079530313E+03  0.80896438535E+03  0.40000000000E+03 0.  1.
<mgrwt>
<rscale>  2 0.40411548E+03</rscale>
<asrwt>0</asrwt>
<pdfrwt beam="1">  1       21 0.20578673E-01 0.40411548E+03</pdfrwt>
<pdfrwt beam="2">  1       21 0.19496790E+00 0.40411548E+03</pdfrwt>
<totfact> 0.27506331E+03</totfact>
</mgrwt>
</event>
<event>
 4    1  0.8722554E-003  0.4503492E+03  0.7818608E-02  0.1027618E+00
         21   -1    0    0  503  502  0.00000000000E+00  0.00000000000E+00  0.29500146531E+03  0.29500146531E+03  0.00000000000E+00 0.  1.
         21   -1    0    0  501  503 -0.00000000000E+00 -0.00000000000E+00 -0.73212583445E+03  0.73212583445E+03  0.00000000000E+00 0.  1.
    9000005    1    1    2  501    0 -0.18131797110E+03  0.99690322901E+02 -0.34535084236E+03  0.56752230921E+03  0.40000000000E+03 0.  1.
   -9000005    1    1    2    0  502  0.18131797110E+03 -0.99690322901E+02 -0.91773526782E+02  0.45960499056E+03  0.40000000000E+03 0.  1.
<mgrwt>
<rscale>  2 0.45034916E+03</rscale>
<asrwt>0</asrwt>
<pdfrwt beam="1">  1       21 0.45384841E-01 0.45034916E+03</pdfrwt>
<pdfrwt beam="2">  1       21 0.11263474E+00 0.45034916E+03</pdfrwt>
<totfact> 0.24836529E+03</totfact>
</mgrwt>
</event>
<event>
 4    1  0.8722554E-003  0.5343829E+03  0.7818608E-02  0.1005175E+00
         21   -1    0    0  503  502  0.00000000000E+00  0.00000000000E+00  0.44803687931E+03  0.44803687931E+03  0.00000000000E+00 0. -1.
         21   -1    0    0  501  503 -0.00000000000E+00 -0.00000000000E+00 -0.64832448376E+03  0.64832448376E+03  0.00000000000E+00 0.  1.
    9000005    1    1    2  501    0  0.29941814145E+03 -0.18950960030E+03 -0.17140125179E+03  0.56119827259E+03  0.40000000000E+03 0. -1.
   -9000005    1    1    2    0  502 -0.29941814145E+03  0.18950960030E+03 -0.28886352658E+02  0.53516309048E+03  0.40000000000E+03 0.  1.
<mgrwt>
<rscale>  2 0.53438293E+03</rscale>
<asrwt>0</asrwt>
<pdfrwt beam="1">  1       21 0.68928751E-01 0.53438293E+03</pdfrwt>
<pdfrwt beam="2">  1       21 0.99742227E-01 0.53438293E+03</pdfrwt>
<totfact> 0.13140260E+03</totfact>
</mgrwt>
</event>
<event>
 4    1  0.8722554E-003  0.4188643E+03  0.7818608E-02  0.1037437E+00
         21   -1    0    0  501  502  0.00000000000E+00  0.00000000000E+00  0.18704962349E+03  0.18704962349E+03  0.00000000000E+00 0.  1.
         21   -1    0    0  502  503 -0.00000000000E+00 -0.00000000000E+00 -0.12385103197E+04  0.12385103197E+04  0.00000000000E+00 0.  1.
    9000005    1    1    2  501    0  0.45419004056E+02  0.11569103167E+03 -0.17461029480E+03  0.45380178029E+03  0.40000000000E+03 0.  1.
   -9000005    1    1    2    0  503 -0.45419004056E+02 -0.11569103167E+03 -0.87685040144E+03  0.97175816294E+03  0.40000000000E+03 0.  1.
<mgrwt>
<rscale>  2 0.41886430E+03</rscale>
<asrwt>0</asrwt>
<pdfrwt beam="1">  1       21 0.28776865E-01 0.41886430E+03</pdfrwt>
<pdfrwt beam="2">  1       21 0.19054005E+00 0.41886430E+03</pdfrwt>
<totfact> 0.15285112E+03</totfact>
</mgrwt>
</event>
<event>
 4    1  0.8722554E-003  0.4079973E+03  0.7818608E-02  0.1041045E+00
         21   -1    0    0  501  502  0.00000000000E+00  0.00000000000E+00  0.22147330318E+03  0.22147330318E+03  0.00000000000E+00 0.  1.
         21   -1    0    0  502  503 -0.00000000000E+00 -0.00000000000E+00 -0.76912573039E+03  0.76912573039E+03  0.00000000000E+00 0.  1.
    9000005    1    1    2  501    0  0.37527169853E+02  0.71087909691E+02 -0.19908322035E+03  0.45397787172E+03  0.40000000000E+03 0.  1.
   -9000005    1    1    2    0  503 -0.37527169853E+02 -0.71087909691E+02 -0.34856920686E+03  0.53662116186E+03  0.40000000000E+03 0.  1.
<mgrwt>
<rscale>  2 0.40799728E+03</rscale>
<asrwt>0</asrwt>
<pdfrwt beam="1">  1       21 0.34072816E-01 0.40799728E+03</pdfrwt>
<pdfrwt beam="2">  1       21 0.11832703E+00 0.40799728E+03</pdfrwt>
<totfact> 0.40197719E+03</totfact>
</mgrwt>
</event>
<event>
 4    1  0.8722554E-003  0.4295480E+03  0.7818608E-02  0.1034003E+00
         21   -1    0    0  501  502  0.00000000000E+00  0.00000000000E+00  0.96834668396E+03  0.96834668396E+03  0.00000000000E+00 0. -1.
         21   -1    0    0  502  503 -0.00000000000E+00 -0.00000000000E+00 -0.19175570344E+03  0.19175570344E+03  0.00000000000E+00 0. -1.
    9000005    1    1    2  501    0  0.14173787314E+03 -0.66497312354E+02  0.43442724635E+03  0.61093252459E+03  0.40000000000E+03 0. -1.
   -9000005    1    1    2    0  503 -0.14173787314E+03  0.66497312354E+02  0.34216373417E+03  0.54916986281E+03  0.40000000000E+03 0. -1.
<mgrwt>
<rscale>  2 0.42954804E+03</rscale>
<asrwt>0</asrwt>
<pdfrwt beam="1">  1       21 0.14897641E+00 0.42954804E+03</pdfrwt>
<pdfrwt beam="2">  1       21 0.29500878E-01 0.42954804E+03</pdfrwt>
<totfact> 0.29125635E+03</totfact>
</mgrwt>
</event>
<event>
 4    1  0.8722554E-003  0.4699984E+03  0.7818608E-02  0.1021921E+00
         21   -1    0    0  501  502  0.00000000000E+00  0.00000000000E+00  0.20936400477E+03  0.20936400477E+03  0.00000000000E+00 0. -1.
         21   -1    0    0  502  503 -0.00000000000E+00 -0.00000000000E+00 -0.10932153133E+04  0.10932153133E+04  0.00000000000E+00 0. -1.
    9000005    1    1    2  501    0  0.24638533583E+03 -0.13884119466E+02 -0.32030403729E+03  0.56876460754E+03  0.40000000000E+03 0. -1.
   -9000005    1    1    2    0  503 -0.24638533583E+03  0.13884119466E+02 -0.56354727129E+03  0.73381471058E+03  0.40000000000E+03 0. -1.
<mgrwt>
<rscale>  2 0.46999841E+03</rscale>
<asrwt>0</asrwt>
<pdfrwt beam="1">  1       21 0.32209847E-01 0.46999841E+03</pdfrwt>
<pdfrwt beam="2">  1       21 0.16818697E+00 0.46999841E+03</pdfrwt>
<totfact> 0.17187747E+03</totfact>
</mgrwt>
</event>
<event>
 4    1  0.8722554E-003  0.5075627E+03  0.7818608E-02  0.1011824E+00
         21   -1    0    0  501  502  0.00000000000E+00  0.00000000000E+00  0.84237235344E+03  0.84237235344E+03  0.00000000000E+00 0. -1.
         21   -1    0    0  502  503 -0.00000000000E+00 -0.00000000000E+00 -0.40627480414E+03  0.40627480414E+03  0.00000000000E+00 0. -1.
    9000005    1    1    2  501    0  0.27749975200E+03  0.14357517298E+03 -0.92386240734E+02  0.51590227770E+03  0.40000000000E+03 0. -1.
   -9000005    1    1    2    0  503 -0.27749975200E+03 -0.14357517298E+03  0.52848379004E+03  0.73274487988E+03  0.40000000000E+03 0. -1.
<mgrwt>
<rscale>  2 0.50756275E+03</rscale>
<asrwt>0</asrwt>
<pdfrwt beam="1">  1       21 0.12959575E+00 0.50756275E+03</pdfrwt>
<pdfrwt beam="2">  1       21 0.62503816E-01 0.50756275E+03</pdfrwt>
<totfact> 0.85379358E+02</totfact>
</mgrwt>
</event>
<event>
 4    1  0.8722554E-003  0.4133578E+03  0.7818608E-02  0.1039250E+00
         21   -1    0    0  501  502  0.00000000000E+00  0.00000000000E+00  0.16832347731E+04  0.16832347731E+04  0.00000000000E+00 0.  1.
         21   -1    0    0  502  503 -0.00000000000E+00 -0.00000000000E+00 -0.11971724252E+03  0.11971724252E+03  0.00000000000E+00 0. -1.
    9000005    1    1    2  501    0 -0.81162756631E+02 -0.65401052939E+02  0.11333202146E+04  0.12063496175E+04  0.40000000000E+03 0.  1.
   -9000005    1    1    2    0  503  0.81162756631E+02  0.65401052939E+02  0.43019731602E+03  0.59660239817E+03  0.40000000000E+03 0. -1.
<mgrwt>
<rscale>  2 0.41335782E+03</rscale>
<asrwt>0</asrwt>
<pdfrwt beam="1">  1       21 0.25895918E+00 0.41335782E+03</pdfrwt>
<pdfrwt beam="2">  1       21 0.18418039E-01 0.41335782E+03</pdfrwt>
<totfact> 0.13295363E+03</totfact>
</mgrwt>
</event>
<event>
 4    1  0.8722554E-003  0.4190017E+03  0.7818608E-02  0.1037392E+00
         21   -1    0    0  503  502  0.00000000000E+00  0.00000000000E+00  0.18405713712E+03  0.18405713712E+03  0.00000000000E+00 0. -1.
         21   -1    0    0  501  503 -0.00000000000E+00 -0.00000000000E+00 -0.95992889488E+03  0.95992889488E+03  0.00000000000E+00 0. -1.
    9000005    1    1    2  501    0 -0.94331703558E+02  0.81632792601E+02 -0.43346443193E+03  0.60287129379E+03  0.40000000000E+03 0. -1.
   -9000005    1    1    2    0  502  0.94331703558E+02 -0.81632792601E+02 -0.34240732584E+03  0.54111473821E+03  0.40000000000E+03 0. -1.
<mgrwt>
<rscale>  2 0.41900165E+03</rscale>
<asrwt>0</asrwt>
<pdfrwt beam="1">  1       21 0.28316483E-01 0.41900165E+03</pdfrwt>
<pdfrwt beam="2">  1       21 0.14768136E+00 0.41900165E+03</pdfrwt>
<totfact> 0.32471128E+03</totfact>
</mgrwt>
</event>
<event>
 4    1  0.8722554E-003  0.4409813E+03  0.7818608E-02  0.1030446E+00
         21   -1    0    0  503  502  0.00000000000E+00  0.00000000000E+00  0.14733167439E+04  0.14733167439E+04  0.00000000000E+00 0.  1.
         21   -1    0    0  501  503 -0.00000000000E+00 -0.00000000000E+00 -0.17969184288E+03  0.17969184288E+03  0.00000000000E+00 0. -1.
    9000005    1    1    2  501    0 -0.11079026201E+03  0.14896324975E+03  0.22097484023E+03  0.49324883370E+03  0.40000000000E+03 0. -1.
   -9000005    1    1    2    0  502  0.11079026201E+03 -0.14896324975E+03  0.10726500607E+04  0.11597597530E+04  0.40000000000E+03 0.  1.
<mgrwt>
<rscale>  2 0.44098133E+03</rscale>
<asrwt>0</asrwt>
<pdfrwt beam="1">  1       21 0.22666411E+00 0.44098133E+03</pdfrwt>
<pdfrwt beam="2">  1       21 0.27644900E-01 0.44098133E+03</pdfrwt>
<totfact> 0.95013918E+02</totfact>
</mgrwt>
</event>
<event>
 4    1  0.8722554E-003  0.6046247E+03  0.7818608E-02  0.9895858E-01
         21   -1    0    0  503  502  0.00000000000E+00  0.00000000000E+00  0.98170138241E+03  0.98170138241E+03  0.00000000000E+00 0.  1.
         21   -1    0    0  501  503 -0.00000000000E+00 -0.00000000000E+00 -0.38094133734E+03  0.38094133734E+03  0.00000000000E+00 0.  1.
    9000005    1    1    2  501    0  0.20497044188E+03  0.40442315243E+03  0.19827094707E+03  0.63630365135E+03  0.40000000000E+03 0.  1.
   -9000005    1    1    2    0  502 -0.20497044188E+03 -0.40442315243E+03  0.40248909800E+03  0.72633906840E+03  0.40000000000E+03 0.  1.
<mgrwt>
<rscale>  2 0.60462465E+03</rscale>
<asrwt>0</asrwt>
<pdfrwt beam="1">  1       21 0.15103098E+00 0.60462465E+03</pdfrwt>
<pdfrwt beam="2">  1       21 0.58606360E-01 0.60462465E+03</pdfrwt>
<totfact> 0.63162564E+02</totfact>
</mgrwt>
</event>
<event>
 4    1  0.8722554E-003  0.4409025E+03  0.7818608E-02  0.1030470E+00
         21   -1    0    0  503  502  0.00000000000E+00  0.00000000000E+00  0.11858361069E+04  0.11858361069E+04  0.00000000000E+00 0.  1.
         21   -1    0    0  501  503 -0.00000000000E+00 -0.00000000000E+00 -0.16393796882E+03  0.16393796882E+03  0.00000000000E+00 0.  1.
    9000005    1    1    2  501    0  0.12002834900E+03 -0.14137952083E+03  0.50646310009E+03  0.67149076332E+03  0.40000000000E+03 0.  1.
   -9000005    1    1    2    0  502 -0.12002834900E+03  0.14137952083E+03  0.51543503796E+03  0.67828331236E+03  0.40000000000E+03 0.  1.
<mgrwt>
<rscale>  2 0.44090245E+03</rscale>
<asrwt>0</asrwt>
<pdfrwt beam="1">  1       21 0.18243632E+00 0.44090245E+03</pdfrwt>
<pdfrwt beam="2">  1       21 0.25221227E-01 0.44090245E+03</pdfrwt>
<totfact> 0.22295738E+03</totfact>
</mgrwt>
</event>
<event>
 4    1  0.8722554E-003  0.4022125E+03  0.7818608E-02  0.1043016E+00
         21   -1    0    0  503  502  0.00000000000E+00  0.00000000000E+00  0.11989329209E+04  0.11989329209E+04  0.00000000000E+00 0. -1.
         21   -1    0    0  501  503 -0.00000000000E+00 -0.00000000000E+00 -0.13524933223E+03  0.13524933223E+03  0.00000000000E+00 0. -1.
    9000005    1    1    2  501    0 -0.17776912111E+02  0.38194821575E+02  0.56413565158E+03  0.69283756855E+03  0.40000000000E+03 0. -1.
   -9000005    1    1    2    0  502  0.17776912111E+02 -0.38194821575E+02  0.49954793708E+03  0.64134468458E+03  0.40000000000E+03 0. -1.
<mgrwt>
<rscale>  2 0.40221246E+03</rscale>
<asrwt>0</asrwt>
<pdfrwt beam="1">  1       21 0.18445121E+00 0.40221246E+03</pdfrwt>
<pdfrwt beam="2">  1       21 0.20807590E-01 0.40221246E+03</pdfrwt>
<totfact> 0.31795262E+03</totfact>
</mgrwt>
</event>
<event>
 4    1  0.8722554E-003  0.4627947E+03  0.7818608E-02  0.1023974E+00
         21   -1    0    0  501  502  0.00000000000E+00  0.00000000000E+00  0.19315328492E+03  0.19315328492E+03  0.00000000000E+00 0.  1.
         21   -1    0    0  502  503 -0.00000000000E+00 -0.00000000000E+00 -0.12078415927E+04  0.12078415927E+04  0.00000000000E+00 0.  1.
    9000005    1    1    2  501    0  0.17590796383E+03 -0.15243147439E+03 -0.70787905670E+03  0.84573738539E+03  0.40000000000E+03 0.  1.
   -9000005    1    1    2    0  503 -0.17590796383E+03  0.15243147439E+03 -0.30680925106E+03  0.55525749222E+03  0.40000000000E+03 0.  1.
<mgrwt>
<rscale>  2 0.46279473E+03</rscale>
<asrwt>0</asrwt>
<pdfrwt beam="1">  1       21 0.29715889E-01 0.46279473E+03</pdfrwt>
<pdfrwt beam="2">  1       21 0.18582179E+00 0.46279473E+03</pdfrwt>
<totfact> 0.15158209E+03</totfact>
</mgrwt>
</event>
<event>
 4    1  0.8722554E-003  0.4333301E+03  0.7818608E-02  0.1032813E+00
         21   -1    0    0  503  502  0.00000000000E+00  0.00000000000E+00  0.24884333860E+04  0.24884333860E+04  0.00000000000E+00 0.  1.
         21   -1    0    0  501  503 -0.00000000000E+00 -0.00000000000E+00 -0.76436621248E+02  0.76436621248E+02  0.00000000000E+00 0.  1.
    9000005    1    1    2  501    0  0.96042560918E+02 -0.13620141469E+03  0.13510233584E+04  0.14188160958E+04  0.40000000000E+03 0.  1.
   -9000005    1    1    2    0  502 -0.96042560918E+02  0.13620141469E+03  0.10609734064E+04  0.11460539114E+04  0.40000000000E+03 0.  1.
<mgrwt>
<rscale>  2 0.43333013E+03</rscale>
<asrwt>0</asrwt>
<pdfrwt beam="1">  1       21 0.38283584E+00 0.43333013E+03</pdfrwt>
<pdfrwt beam="2">  1       21 0.11759482E-01 0.43333013E+03</pdfrwt>
<totfact> 0.53252856E+02</totfact>
</mgrwt>
</event>
<event>
 4    1  0.8722554E-003  0.4248987E+03  0.7818608E-02  0.1035484E+00
         21   -1    0    0  501  502  0.00000000000E+00  0.00000000000E+00  0.66342265395E+03  0.66342265395E+03  0.00000000000E+00 0.  1.
         21   -1    0    0  502  503 -0.00000000000E+00 -0.00000000000E+00 -0.28439280005E+03  0.28439280005E+03  0.00000000000E+00 0.  1.
    9000005    1    1    2  501    0 -0.11027364958E+03  0.91534696348E+02  0.28791256922E+03  0.51325678363E+03  0.40000000000E+03 0. -1.
   -9000005    1    1    2    0  503  0.11027364958E+03 -0.91534696348E+02  0.91117284685E+02  0.43455867037E+03  0.40000000000E+03 0. -1.
<mgrwt>
<rscale>  2 0.42489867E+03</rscale>
<asrwt>0</asrwt>
<pdfrwt beam="1">  1       21 0.10206502E+00 0.42489867E+03</pdfrwt>
<pdfrwt beam="2">  1       21 0.43752739E-01 0.42489867E+03</pdfrwt>
<totfact> 0.34520075E+03</totfact>
</mgrwt>
</event>
<event>
 4    1  0.8722554E-003  0.5046431E+03  0.7818608E-02  0.1012574E+00
         21   -1    0    0  501  502  0.00000000000E+00  0.00000000000E+00  0.94800518683E+03  0.94800518683E+03  0.00000000000E+00 0.  1.
         21   -1    0    0  502  503 -0.00000000000E+00 -0.00000000000E+00 -0.27815318569E+03  0.27815318569E+03  0.00000000000E+00 0. -1.
    9000005    1    1    2  501    0  0.36948422339E+02  0.30544958717E+03  0.44835327590E+03  0.67504466239E+03  0.40000000000E+03 0. -1.
   -9000005    1    1    2    0  503 -0.36948422339E+02 -0.30544958717E+03  0.22149872525E+03  0.55111371013E+03  0.40000000000E+03 0.  1.
<mgrwt>
<rscale>  2 0.50464308E+03</rscale>
<asrwt>0</asrwt>
<pdfrwt beam="1">  1       21 0.14584695E+00 0.50464308E+03</pdfrwt>
<pdfrwt beam="2">  1       21 0.42792798E-01 0.50464308E+03</pdfrwt>
<totfact> 0.14086574E+03</totfact>
</mgrwt>
</event>
<event>
 4    1  0.8722554E-003  0.5789325E+03  0.7818608E-02  0.9950105E-01
         21   -1    0    0  501  502  0.00000000000E+00  0.00000000000E+00  0.15791537540E+04  0.15791537540E+04  0.00000000000E+00 0. -1.
         21   -1    0    0  502  503 -0.00000000000E+00 -0.00000000000E+00 -0.21959409235E+03  0.21959409235E+03  0.00000000000E+00 0. -1.
    9000005    1    1    2  501    0  0.23709060886E+03  0.34489255683E+03  0.51521617855E+03  0.77499067298E+03  0.40000000000E+03 0. -1.
   -9000005    1    1    2    0  503 -0.23709060886E+03 -0.34489255683E+03  0.84434348308E+03  0.10237571734E+04  0.40000000000E+03 0. -1.
<mgrwt>
<rscale>  2 0.57893249E+03</rscale>
<asrwt>0</asrwt>
<pdfrwt beam="1">  1       21 0.24294672E+00 0.57893249E+03</pdfrwt>
<pdfrwt beam="2">  1       21 0.33783708E-01 0.57893249E+03</pdfrwt>
<totfact> 0.47319714E+02</totfact>
</mgrwt>
</event>
<event>
 4    1  0.8722554E-003  0.4050356E+03  0.7818608E-02  0.1042050E+00
         21   -1    0    0  503  502  0.00000000000E+00  0.00000000000E+00  0.23580508678E+03  0.23580508678E+03  0.00000000000E+00 0. -1.
         21   -1    0    0  501  503 -0.00000000000E+00 -0.00000000000E+00 -0.75272773370E+03  0.75272773370E+03  0.00000000000E+00 0. -1.
    9000005    1    1    2  501    0  0.42034458861E+02  0.47821872721E+02 -0.12243689646E+03  0.42313664561E+03  0.40000000000E+03 0.  1.
   -9000005    1    1    2    0  502 -0.42034458861E+02 -0.47821872721E+02 -0.39448575046E+03  0.56539617487E+03  0.40000000000E+03 0.  1.
<mgrwt>
<rscale>  2 0.40503559E+03</rscale>
<asrwt>0</asrwt>
<pdfrwt beam="1">  1       21 0.36277706E-01 0.40503559E+03</pdfrwt>
<pdfrwt beam="2">  1       21 0.11580427E+00 0.40503559E+03</pdfrwt>
<totfact> 0.37420436E+03</totfact>
</mgrwt>
</event>
<event>
 4    1  0.8722554E-003  0.4891063E+03  0.7818608E-02  0.1016662E+00
         21   -1    0    0  503  502  0.00000000000E+00  0.00000000000E+00  0.86225772074E+03  0.86225772074E+03  0.00000000000E+00 0. -1.
         21   -1    0    0  501  503 -0.00000000000E+00 -0.00000000000E+00 -0.55916996524E+03  0.55916996524E+03  0.00000000000E+00 0.  1.
    9000005    1    1    2  501    0  0.84055165119E+02 -0.26862555619E+03 -0.35293062169E+03  0.60314590602E+03  0.40000000000E+03 0.  1.
   -9000005    1    1    2    0  502 -0.84055165119E+02  0.26862555619E+03  0.65601837719E+03  0.81828177997E+03  0.40000000000E+03 0. -1.
<mgrwt>
<rscale>  2 0.48910629E+03</rscale>
<asrwt>0</asrwt>
<pdfrwt beam="1">  1       21 0.13265503E+00 0.48910629E+03</pdfrwt>
<pdfrwt beam="2">  1       21 0.86026148E-01 0.48910629E+03</pdfrwt>
<totfact> 0.39088268E+02</totfact>
</mgrwt>
</event>
<event>
 4    1  0.8722554E-003  0.4662918E+03  0.7818608E-02  0.1022972E+00
         21   -1    0    0  501  502  0.00000000000E+00  0.00000000000E+00  0.11334046278E+04  0.11334046278E+04  0.00000000000E+00 0. -1.
         21   -1    0    0  502  503 -0.00000000000E+00 -0.00000000000E+00 -0.22666547831E+03  0.22666547831E+03  0.00000000000E+00 0. -1.
    9000005    1    1    2  501    0  0.10970925511E+03  0.21305380444E+03  0.18679986073E+03  0.50231686435E+03  0.40000000000E+03 0. -1.
   -9000005    1    1    2    0  503 -0.10970925511E+03 -0.21305380444E+03  0.71993928879E+03  0.85775324179E+03  0.40000000000E+03 0. -1.
<mgrwt>
<rscale>  2 0.46629180E+03</rscale>
<asrwt>0</asrwt>
<pdfrwt beam="1">  1       21 0.17436994E+00 0.46629180E+03</pdfrwt>
<pdfrwt beam="2">  1       21 0.34871613E-01 0.46629180E+03</pdfrwt>
<totfact> 0.13229735E+03</totfact>
</mgrwt>
</event>
<event>
 4    1  0.8722554E-003  0.4287807E+03  0.7818608E-02  0.1034246E+00
         21   -1    0    0  501  502  0.00000000000E+00  0.00000000000E+00  0.73519086225E+03  0.73519086225E+03  0.00000000000E+00 0.  1.
         21   -1    0    0  502  503 -0.00000000000E+00 -0.00000000000E+00 -0.30899188687E+03  0.30899188687E+03  0.00000000000E+00 0.  1.
    9000005    1    1    2  501    0  0.65401127712E+01  0.15430522697E+03  0.44107739824E+03  0.61514400541E+03  0.40000000000E+03 0. -1.
   -9000005    1    1    2    0  503 -0.65401127712E+01 -0.15430522697E+03 -0.14878422862E+02  0.42903874372E+03  0.40000000000E+03 0. -1.
<mgrwt>
<rscale>  2 0.42878069E+03</rscale>
<asrwt>0</asrwt>
<pdfrwt beam="1">  1       21 0.11310629E+00 0.42878069E+03</pdfrwt>
<pdfrwt beam="2">  1       21 0.47537214E-01 0.42878069E+03</pdfrwt>
<totfact> 0.22481339E+03</totfact>
</mgrwt>
</event>
<event>
 4    1  0.8722554E-003  0.4513095E+03  0.7818608E-02  0.1027332E+00
         21   -1    0    0  501  502  0.00000000000E+00  0.00000000000E+00  0.50017265234E+03  0.50017265234E+03  0.00000000000E+00 0. -1.
         21   -1    0    0  502  503 -0.00000000000E+00 -0.00000000000E+00 -0.40722029599E+03  0.40722029599E+03  0.00000000000E+00 0. -1.
    9000005    1    1    2  501    0  0.10040348555E+03  0.18330150147E+03  0.46080164965E+02  0.45365590700E+03  0.40000000000E+03 0.  1.
   -9000005    1    1    2    0  503 -0.10040348555E+03 -0.18330150147E+03  0.46872191381E+02  0.45373704133E+03  0.40000000000E+03 0.  1.
<mgrwt>
<rscale>  2 0.45130954E+03</rscale>
<asrwt>0</asrwt>
<pdfrwt beam="1">  1       21 0.76949639E-01 0.45130954E+03</pdfrwt>
<pdfrwt beam="2">  1       21 0.62649276E-01 0.45130954E+03</pdfrwt>
<totfact> 0.30866225E+03</totfact>
</mgrwt>
</event>
<event>
 4    1  0.8722554E-003  0.4226974E+03  0.7818608E-02  0.1036192E+00
         21   -1    0    0  501  502  0.00000000000E+00  0.00000000000E+00  0.25039761968E+03  0.25039761968E+03  0.00000000000E+00 0.  1.
         21   -1    0    0  502  503 -0.00000000000E+00 -0.00000000000E+00 -0.76594681895E+03  0.76594681895E+03  0.00000000000E+00 0.  1.
    9000005    1    1    2  501    0  0.70383651689E+02 -0.11712900142E+03 -0.12487195653E+03  0.44075624434E+03  0.40000000000E+03 0.  1.
   -9000005    1    1    2    0  503 -0.70383651689E+02  0.11712900142E+03 -0.39067724274E+03  0.57558819428E+03  0.40000000000E+03 0.  1.
<mgrwt>
<rscale>  2 0.42269736E+03</rscale>
<asrwt>0</asrwt>
<pdfrwt beam="1">  1       21 0.38522711E-01 0.42269736E+03</pdfrwt>
<pdfrwt beam="2">  1       21 0.11783797E+00 0.42269736E+03</pdfrwt>
<totfact> 0.31484094E+03</totfact>
</mgrwt>
</event>
<event>
 4    1  0.8722554E-003  0.5189643E+03  0.7818608E-02  0.1008944E+00
         21   -1    0    0  501  502  0.00000000000E+00  0.00000000000E+00  0.27575673374E+03  0.27575673374E+03  0.00000000000E+00 0.  1.
         21   -1    0    0  502  503 -0.00000000000E+00 -0.00000000000E+00 -0.10838926266E+04  0.10838926266E+04  0.00000000000E+00 0.  1.
    9000005    1    1    2  501    0 -0.31514784895E+03  0.10002866777E+03 -0.19025065854E+03  0.55273792537E+03  0.40000000000E+03 0.  1.
   -9000005    1    1    2    0  503  0.31514784895E+03 -0.10002866777E+03 -0.61788523432E+03  0.80691143496E+03  0.40000000000E+03 0.  1.
<mgrwt>
<rscale>  2 0.51896426E+03</rscale>
<asrwt>0</asrwt>
<pdfrwt beam="1">  1       21 0.42424113E-01 0.51896426E+03</pdfrwt>
<pdfrwt beam="2">  1       21 0.16675271E+00 0.51896426E+03</pdfrwt>
<totfact> 0.98451040E+02</totfact>
</mgrwt>
</event>
<event>
 4    1  0.8722554E-003  0.4744478E+03  0.7818608E-02  0.1020672E+00
         21   -1    0    0  501  502  0.00000000000E+00  0.00000000000E+00  0.15022528591E+04  0.15022528591E+04  0.00000000000E+00 0.  1.
         21   -1    0    0  502  503 -0.00000000000E+00 -0.00000000000E+00 -0.19296004297E+03  0.19296004297E+03  0.00000000000E+00 0. -1.
    9000005    1    1    2  501    0  0.24974845154E+03  0.52214873072E+02  0.25397374316E+03  0.53814806906E+03  0.40000000000E+03 0. -1.
   -9000005    1    1    2    0  503 -0.24974845154E+03 -0.52214873072E+02  0.10553190729E+04  0.11570648330E+04  0.40000000000E+03 0. -1.
<mgrwt>
<rscale>  2 0.47444777E+03</rscale>
<asrwt>0</asrwt>
<pdfrwt beam="1">  1       21 0.23111582E+00 0.47444777E+03</pdfrwt>
<pdfrwt beam="2">  1       21 0.29686161E-01 0.47444777E+03</pdfrwt>
<totfact> 0.76125532E+02</totfact>
</mgrwt>
</event>
<event>
 4    1  0.8722554E-003  0.4232550E+03  0.7818608E-02  0.1036012E+00
         21   -1    0    0  503  502  0.00000000000E+00  0.00000000000E+00  0.19602277696E+04  0.19602277696E+04  0.00000000000E+00 0. -1.
         21   -1    0    0  501  503 -0.00000000000E+00 -0.00000000000E+00 -0.98619430596E+02  0.98619430596E+02  0.00000000000E+00 0. -1.
    9000005    1    1    2  501    0 -0.13233619638E+03  0.40397172338E+02  0.12095261938E+04  0.12814438785E+04  0.40000000000E+03 0. -1.
   -9000005    1    1    2    0  502  0.13233619638E+03 -0.40397172338E+02  0.65208214524E+03  0.77740332167E+03  0.40000000000E+03 0. -1.
<mgrwt>
<rscale>  2 0.42325501E+03</rscale>
<asrwt>0</asrwt>
<pdfrwt beam="1">  1       21 0.30157347E+00 0.42325501E+03</pdfrwt>
<pdfrwt beam="2">  1       21 0.15172222E-01 0.42325501E+03</pdfrwt>
<totfact> 0.10528417E+03</totfact>
</mgrwt>
</event>
<event>
 4    1  0.8722554E-003  0.8226207E+03  0.7818608E-02  0.9527840E-01
         21   -1    0    0  503  502  0.00000000000E+00  0.00000000000E+00  0.12051230714E+04  0.12051230714E+04  0.00000000000E+00 0.  1.
         21   -1    0    0  501  503 -0.00000000000E+00 -0.00000000000E+00 -0.58455133158E+03  0.58455133158E+03  0.00000000000E+00 0. -1.
    9000005    1    1    2  501    0  0.61074902888E+03 -0.37906527598E+03  0.13267900969E+03  0.83325181028E+03  0.40000000000E+03 0. -1.
   -9000005    1    1    2    0  502 -0.61074902888E+03  0.37906527598E+03  0.48789273013E+03  0.95642259271E+03  0.40000000000E+03 0.  1.
<mgrwt>
<rscale>  2 0.82262073E+03</rscale>
<asrwt>0</asrwt>
<pdfrwt beam="1">  1       21 0.18540355E+00 0.82262073E+03</pdfrwt>
<pdfrwt beam="2">  1       21 0.89930975E-01 0.82262073E+03</pdfrwt>
<totfact> 0.12259947E+02</totfact>
</mgrwt>
</event>
<event>
 4    1  0.8722554E-003  0.4852338E+03  0.7818608E-02  0.1017707E+00
         21   -1    0    0  503  502  0.00000000000E+00  0.00000000000E+00  0.79022075123E+03  0.79022075123E+03  0.00000000000E+00 0. -1.
         21   -1    0    0  501  503 -0.00000000000E+00 -0.00000000000E+00 -0.35112092473E+03  0.35112092473E+03  0.00000000000E+00 0. -1.
    9000005    1    1    2  501    0 -0.10526788459E+02 -0.27448313897E+03 -0.25077823887E+01  0.48524024547E+03  0.40000000000E+03 0. -1.
   -9000005    1    1    2    0  502  0.10526788459E+02  0.27448313897E+03  0.44160760888E+03  0.65610143048E+03  0.40000000000E+03 0. -1.
<mgrwt>
<rscale>  2 0.48523377E+03</rscale>
<asrwt>0</asrwt>
<pdfrwt beam="1">  1       21 0.12157242E+00 0.48523377E+03</pdfrwt>
<pdfrwt beam="2">  1       21 0.54018604E-01 0.48523377E+03</pdfrwt>
<totfact> 0.13964561E+03</totfact>
</mgrwt>
</event>
<event>
 4    1  0.8722554E-003  0.4215835E+03  0.7818608E-02  0.1036552E+00
         21   -1    0    0  501  502  0.00000000000E+00  0.00000000000E+00  0.30966729402E+03  0.30966729402E+03  0.00000000000E+00 0.  1.
         21   -1    0    0  502  503 -0.00000000000E+00 -0.00000000000E+00 -0.10732573796E+04  0.10732573796E+04  0.00000000000E+00 0.  1.
    9000005    1    1    2  501    0  0.12766302381E+03 -0.37878592975E+02  0.89835427440E+02  0.43104876694E+03  0.40000000000E+03 0.  1.
   -9000005    1    1    2    0  503 -0.12766302381E+03  0.37878592975E+02 -0.85342551300E+03  0.95187590667E+03  0.40000000000E+03 0.  1.
<mgrwt>
<rscale>  2 0.42158349E+03</rscale>
<asrwt>0</asrwt>
<pdfrwt beam="1">  1       21 0.47641123E-01 0.42158349E+03</pdfrwt>
<pdfrwt beam="2">  1       21 0.16511652E+00 0.42158349E+03</pdfrwt>
<totfact> 0.82726686E+02</totfact>
</mgrwt>
</event>
<event>
 4    1  0.8722554E-003  0.4445434E+03  0.7818608E-02  0.1029362E+00
         21   -1    0    0  501  502  0.00000000000E+00  0.00000000000E+00  0.83649790087E+03  0.83649790087E+03  0.00000000000E+00 0. -1.
         21   -1    0    0  502  503 -0.00000000000E+00 -0.00000000000E+00 -0.32019349226E+03  0.32019349226E+03  0.00000000000E+00 0.  1.
    9000005    1    1    2  501    0 -0.43512643106E+02 -0.18901189383E+03  0.55428497685E+03  0.71052845241E+03  0.40000000000E+03 0. -1.
   -9000005    1    1    2    0  503  0.43512643106E+02  0.18901189383E+03 -0.37980568235E+02  0.44616294073E+03  0.40000000000E+03 0.  1.
<mgrwt>
<rscale>  2 0.44454341E+03</rscale>
<asrwt>0</asrwt>
<pdfrwt beam="1">  1       21 0.12869198E+00 0.44454341E+03</pdfrwt>
<pdfrwt beam="2">  1       21 0.49260538E-01 0.44454341E+03</pdfrwt>
<totfact> 0.14925421E+03</totfact>
</mgrwt>
</event>
<event>
 4    1  0.8722554E-003  0.4299959E+03  0.7818608E-02  0.1033861E+00
         21   -1    0    0  501  502  0.00000000000E+00  0.00000000000E+00  0.38775617925E+03  0.38775617925E+03  0.00000000000E+00 0. -1.
         21   -1    0    0  502  503 -0.00000000000E+00 -0.00000000000E+00 -0.86546246267E+03  0.86546246267E+03  0.00000000000E+00 0. -1.
    9000005    1    1    2  501    0  0.15213542536E+03  0.41848357929E+02  0.18103962023E+03  0.46655312324E+03  0.40000000000E+03 0. -1.
   -9000005    1    1    2    0  503 -0.15213542536E+03 -0.41848357929E+02 -0.65874590364E+03  0.78666551868E+03  0.40000000000E+03 0. -1.
<mgrwt>
<rscale>  2 0.42999590E+03</rscale>
<asrwt>0</asrwt>
<pdfrwt beam="1">  1       21 0.59654798E-01 0.42999590E+03</pdfrwt>
<pdfrwt beam="2">  1       21 0.13314807E+00 0.42999590E+03</pdfrwt>
<totfact> 0.91032009E+02</totfact>
</mgrwt>
</event>
<event>
 4    1  0.8722554E-003  0.4534428E+03  0.7818608E-02  0.1026700E+00
         21   -1    0    0  503  502  0.00000000000E+00  0.00000000000E+00  0.10257019980E+04  0.10257019980E+04  0.00000000000E+00 0.  1.
         21   -1    0    0  501  503 -0.00000000000E+00 -0.00000000000E+00 -0.20471204334E+03  0.20471204334E+03  0.00000000000E+00 0.  1.
    9000005    1    1    2  501    0  0.20423688568E+03 -0.62431580555E+02  0.32181230606E+03  0.55603378319E+03  0.40000000000E+03 0.  1.
   -9000005    1    1    2    0  502 -0.20423688568E+03  0.62431580555E+02  0.49917764864E+03  0.67438025818E+03  0.40000000000E+03 0.  1.
<mgrwt>
<rscale>  2 0.45344284E+03</rscale>
<asrwt>0</asrwt>
<pdfrwt beam="1">  1       21 0.15780030E+00 0.45344284E+03</pdfrwt>
<pdfrwt beam="2">  1       21 0.31494161E-01 0.45344284E+03</pdfrwt>
<totfact> 0.21642554E+03</totfact>
</mgrwt>
</event>
<event>
 4    1  0.8722554E-003  0.4924079E+03  0.7818608E-02  0.1015780E+00
         21   -1    0    0  503  502  0.00000000000E+00  0.00000000000E+00  0.32232359150E+03  0.32232359150E+03  0.00000000000E+00 0.  1.
         21   -1    0    0  501  503 -0.00000000000E+00 -0.00000000000E+00 -0.89950919934E+03  0.89950919934E+03  0.00000000000E+00 0.  1.
    9000005    1    1    2  501    0 -0.28698233098E+03 -0.10330653307E+02 -0.53578280705E+03  0.72768729343E+03  0.40000000000E+03 0.  1.
   -9000005    1    1    2    0  502  0.28698233098E+03  0.10330653307E+02 -0.41402800794E+02  0.49414549740E+03  0.40000000000E+03 0.  1.
<mgrwt>
<rscale>  2 0.49240794E+03</rscale>
<asrwt>0</asrwt>
<pdfrwt beam="1">  1       21 0.49588245E-01 0.49240794E+03</pdfrwt>
<pdfrwt beam="2">  1       21 0.13838603E+00 0.49240794E+03</pdfrwt>
<totfact> 0.11942072E+03</totfact>
</mgrwt>
</event>
<event>
 4    1  0.8722554E-003  0.4676851E+03  0.7818608E-02  0.1022576E+00
         21   -1    0    0  503  502  0.00000000000E+00  0.00000000000E+00  0.75215498071E+03  0.75215498071E+03  0.00000000000E+00 0.  1.
         21   -1    0    0  501  503 -0.00000000000E+00 -0.00000000000E+00 -0.37884175858E+03  0.37884175858E+03  0.00000000000E+00 0.  1.
    9000005    1    1    2  501    0 -0.15510460308E+03  0.18620391292E+03  0.45926426482E+03  0.65547921403E+03  0.40000000000E+03 0.  1.
   -9000005    1    1    2    0  502  0.15510460308E+03 -0.18620391292E+03 -0.85951042687E+02  0.47551752525E+03  0.40000000000E+03 0.  1.
<mgrwt>
<rscale>  2 0.46768508E+03</rscale>
<asrwt>0</asrwt>
<pdfrwt beam="1">  1       21 0.11571615E+00 0.46768508E+03</pdfrwt>
<pdfrwt beam="2">  1       21 0.58283348E-01 0.46768508E+03</pdfrwt>
<totfact> 0.13510921E+03</totfact>
</mgrwt>
</event>
<event>
 4    1  0.8722554E-003  0.4547275E+03  0.7818608E-02  0.1026322E+00
         21   -1    0    0  503  502  0.00000000000E+00  0.00000000000E+00  0.21147194125E+04  0.21147194125E+04  0.00000000000E+00 0. -1.
         21   -1    0    0  501  503 -0.00000000000E+00 -0.00000000000E+00 -0.98278343934E+02  0.98278343934E+02  0.00000000000E+00 0. -1.
    9000005    1    1    2  501    0 -0.95926899700E+02 -0.19384302152E+03  0.92942109372E+03  0.10346983408E+04  0.40000000000E+03 0. -1.
   -9000005    1    1    2    0  502  0.95926899700E+02  0.19384302152E+03  0.10870199748E+04  0.11782994156E+04  0.40000000000E+03 0. -1.
<mgrwt>
<rscale>  2 0.45472749E+03</rscale>
<asrwt>0</asrwt>
<pdfrwt beam="1">  1       21 0.32534141E+00 0.45472749E+03</pdfrwt>
<pdfrwt beam="2">  1       21 0.15119747E-01 0.45472749E+03</pdfrwt>
<totfact> 0.74875087E+02</totfact>
</mgrwt>
</event>
<event>
 4    1  0.8722554E-003  0.4039278E+03  0.7818608E-02  0.1042428E+00
         21   -1    0    0  503  502  0.00000000000E+00  0.00000000000E+00  0.26774036182E+03  0.26774036182E+03  0.00000000000E+00 0.  1.
         21   -1    0    0  501  503 -0.00000000000E+00 -0.00000000000E+00 -0.69613276423E+03  0.69613276423E+03  0.00000000000E+00 0.  1.
    9000005    1    1    2  501    0  0.29605476293E+02  0.47761340732E+02 -0.38432064738E+03  0.55754819514E+03  0.40000000000E+03 0. -1.
   -9000005    1    1    2    0  502 -0.29605476293E+02 -0.47761340732E+02 -0.44071755032E+02  0.40632493092E+03  0.40000000000E+03 0. -1.
<mgrwt>
<rscale>  2 0.40392775E+03</rscale>
<asrwt>0</asrwt>
<pdfrwt beam="1">  1       21 0.41190825E-01 0.40392775E+03</pdfrwt>
<pdfrwt beam="2">  1       21 0.10709735E+00 0.40392775E+03</pdfrwt>
<totfact> 0.35045367E+03</totfact>
</mgrwt>
</event>
<event>
 4    1  0.8722554E-003  0.4664426E+03  0.7818608E-02  0.1022929E+00
         21   -1    0    0  501  502  0.00000000000E+00  0.00000000000E+00  0.93436202431E+03  0.93436202431E+03  0.00000000000E+00 0.  1.
         21   -1    0    0  502  503 -0.00000000000E+00 -0.00000000000E+00 -0.24204764039E+03  0.24204764039E+03  0.00000000000E+00 0.  1.
    9000005    1    1    2  501    0 -0.15673279606E+03  0.18166868400E+03  0.46080179962E+03  0.65567292047E+03  0.40000000000E+03 0.  1.
   -9000005    1    1    2    0  503  0.15673279606E+03 -0.18166868400E+03  0.23151258430E+03  0.52073674423E+03  0.40000000000E+03 0.  1.
<mgrwt>
<rscale>  2 0.46644258E+03</rscale>
<asrwt>0</asrwt>
<pdfrwt beam="1">  1       21 0.14374800E+00 0.46644258E+03</pdfrwt>
<pdfrwt beam="2">  1       21 0.37238099E-01 0.46644258E+03</pdfrwt>
<totfact> 0.19793146E+03</totfact>
</mgrwt>
</event>
<event>
 4    1  0.8722554E-003  0.8317999E+03  0.7818608E-02  0.9515095E-01
         21   -1    0    0  503  502  0.00000000000E+00  0.00000000000E+00  0.14932110725E+04  0.14932110725E+04  0.00000000000E+00 0.  1.
         21   -1    0    0  501  503 -0.00000000000E+00 -0.00000000000E+00 -0.59928826441E+03  0.59928826441E+03  0.00000000000E+00 0. -1.
    9000005    1    1    2  501    0 -0.63891693895E+03 -0.35167621311E+03 -0.51321319664E+02  0.83338160023E+03  0.40000000000E+03 0. -1.
   -9000005    1    1    2    0  502  0.63891693895E+03  0.35167621311E+03  0.94524412774E+03  0.12591177367E+04  0.40000000000E+03 0.  1.
<mgrwt>
<rscale>  2 0.83179986E+03</rscale>
<asrwt>0</asrwt>
<pdfrwt beam="1">  1       21 0.22972478E+00 0.83179986E+03</pdfrwt>
<pdfrwt beam="2">  1       21 0.92198195E-01 0.83179986E+03</pdfrwt>
<totfact> 0.57900303E+01</totfact>
</mgrwt>
</event>
<event>
 4    1  0.8722554E-003  0.5640950E+03  0.7818608E-02  0.9982831E-01
         21   -1    0    0  501  502  0.00000000000E+00  0.00000000000E+00  0.52860200891E+03  0.52860200891E+03  0.00000000000E+00 0. -1.
         21   -1    0    0  502  503 -0.00000000000E+00 -0.00000000000E+00 -0.67088814196E+03  0.67088814196E+03  0.00000000000E+00 0.  1.
    9000005    1    1    2  501    0  0.19720256105E+03  0.34541899838E+03  0.12107975003E+03  0.57694318646E+03  0.40000000000E+03 0. -1.
   -9000005    1    1    2    0  503 -0.19720256105E+03 -0.34541899838E+03 -0.26336588308E+03  0.62254696442E+03  0.40000000000E+03 0.  1.
<mgrwt>
<rscale>  2 0.56409497E+03</rscale>
<asrwt>0</asrwt>
<pdfrwt beam="1">  1       21 0.81323386E-01 0.56409497E+03</pdfrwt>
<pdfrwt beam="2">  1       21 0.10321356E+00 0.56409497E+03</pdfrwt>
<totfact> 0.81896815E+02</totfact>
</mgrwt>
</event>
<event>
 4    1  0.8722554E-003  0.4204712E+03  0.7818608E-02  0.1036913E+00
         21   -1    0    0  501  502  0.00000000000E+00  0.00000000000E+00  0.85873350412E+03  0.85873350412E+03  0.00000000000E+00 0.  1.
         21   -1    0    0  502  503 -0.00000000000E+00 -0.00000000000E+00 -0.23535317594E+03  0.23535317594E+03  0.00000000000E+00 0.  1.
    9000005    1    1    2  501    0 -0.11494220357E+03  0.59869129466E+02  0.50527682896E+03  0.65734366712E+03  0.40000000000E+03 0. -1.
   -9000005    1    1    2    0  503  0.11494220357E+03 -0.59869129466E+02  0.11810349922E+03  0.43674301294E+03  0.40000000000E+03 0. -1.
<mgrwt>
<rscale>  2 0.42047119E+03</rscale>
<asrwt>0</asrwt>
<pdfrwt beam="1">  1       21 0.13211284E+00 0.42047119E+03</pdfrwt>
<pdfrwt beam="2">  1       21 0.36208181E-01 0.42047119E+03</pdfrwt>
<totfact> 0.26665121E+03</totfact>
</mgrwt>
</event>
<event>
 4    1  0.8722554E-003  0.4129463E+03  0.7818608E-02  0.1039387E+00
         21   -1    0    0  501  502  0.00000000000E+00  0.00000000000E+00  0.24450600192E+03  0.24450600192E+03  0.00000000000E+00 0.  1.
         21   -1    0    0  502  503 -0.00000000000E+00 -0.00000000000E+00 -0.78263307273E+03  0.78263307273E+03  0.00000000000E+00 0.  1.
    9000005    1    1    2  501    0  0.72143584016E+02 -0.72937924140E+02 -0.99606298491E+02  0.42478942100E+03  0.40000000000E+03 0. -1.
   -9000005    1    1    2    0  503 -0.72143584016E+02  0.72937924140E+02 -0.43852077232E+03  0.60234965365E+03  0.40000000000E+03 0. -1.
<mgrwt>
<rscale>  2 0.41294629E+03</rscale>
<asrwt>0</asrwt>
<pdfrwt beam="1">  1       21 0.37616308E-01 0.41294629E+03</pdfrwt>
<pdfrwt beam="2">  1       21 0.12040509E+00 0.41294629E+03</pdfrwt>
<totfact> 0.31415613E+03</totfact>
</mgrwt>
</event>
<event>
 4    1  0.8722554E-003  0.6295080E+03  0.7818608E-02  0.9846009E-01
         21   -1    0    0  503  502  0.00000000000E+00  0.00000000000E+00  0.62595322842E+03  0.62595322842E+03  0.00000000000E+00 0.  1.
         21   -1    0    0  501  503 -0.00000000000E+00 -0.00000000000E+00 -0.64997590133E+03  0.64997590133E+03  0.00000000000E+00 0. -1.
    9000005    1    1    2  501    0  0.40539178543E+03 -0.26821234932E+03 -0.11486025207E+03  0.63990096228E+03  0.40000000000E+03 0. -1.
   -9000005    1    1    2    0  502 -0.40539178543E+03  0.26821234932E+03  0.90837579157E+02  0.63602816747E+03  0.40000000000E+03 0.  1.
<mgrwt>
<rscale>  2 0.62950803E+03</rscale>
<asrwt>0</asrwt>
<pdfrwt beam="1">  1       21 0.96300497E-01 0.62950803E+03</pdfrwt>
<pdfrwt beam="2">  1       21 0.99996292E-01 0.62950803E+03</pdfrwt>
<totfact> 0.58022467E+02</totfact>
</mgrwt>
</event>
<event>
 4    1  0.8722554E-003  0.5341485E+03  0.7818608E-02  0.1005231E+00
         21   -1    0    0  501  502  0.00000000000E+00  0.00000000000E+00  0.13861153436E+04  0.13861153436E+04  0.00000000000E+00 0. -1.
         21   -1    0    0  502  503 -0.00000000000E+00 -0.00000000000E+00 -0.33862307113E+03  0.33862307113E+03  0.00000000000E+00 0. -1.
    9000005    1    1    2  501    0  0.30678181089E+03 -0.17663395320E+03 -0.16274398914E+02  0.53439637815E+03  0.40000000000E+03 0. -1.
   -9000005    1    1    2    0  503 -0.30678181089E+03  0.17663395320E+03  0.10637666714E+04  0.11903420366E+04  0.40000000000E+03 0. -1.
<mgrwt>
<rscale>  2 0.53414851E+03</rscale>
<asrwt>0</asrwt>
<pdfrwt beam="1">  1       21 0.21324851E+00 0.53414851E+03</pdfrwt>
<pdfrwt beam="2">  1       21 0.52095858E-01 0.53414851E+03</pdfrwt>
<totfact> 0.30235452E+02</totfact>
</mgrwt>
</event>
<event>
 4    1  0.8722554E-003  0.5936542E+03  0.7818608E-02  0.9918660E-01
         21   -1    0    0  501  502  0.00000000000E+00  0.00000000000E+00  0.11475643614E+04  0.11475643614E+04  0.00000000000E+00 0. -1.
         21   -1    0    0  502  503 -0.00000000000E+00 -0.00000000000E+00 -0.46572168007E+03  0.46572168007E+03  0.00000000000E+00 0.  1.
    9000005    1    1    2  501    0 -0.19204590990E+02 -0.43824246287E+03  0.81167052373E+03  0.10056014676E+04  0.40000000000E+03 0. -1.
   -9000005    1    1    2    0  503  0.19204590990E+02  0.43824246287E+03 -0.12982784245E+03  0.60768457381E+03  0.40000000000E+03 0.  1.
<mgrwt>
<rscale>  2 0.59365417E+03</rscale>
<asrwt>0</asrwt>
<pdfrwt beam="1">  1       21 0.17654836E+00 0.59365417E+03</pdfrwt>
<pdfrwt beam="2">  1       21 0.71649489E-01 0.59365417E+03</pdfrwt>
<totfact> 0.25989210E+02</totfact>
</mgrwt>
</event>
<event>
 4    1  0.8722554E-003  0.4663977E+03  0.7818608E-02  0.1022942E+00
         21   -1    0    0  501  502  0.00000000000E+00  0.00000000000E+00  0.13175188726E+03  0.13175188726E+03  0.00000000000E+00 0.  1.
         21   -1    0    0  502  503 -0.00000000000E+00 -0.00000000000E+00 -0.20055837691E+04  0.20055837691E+04  0.00000000000E+00 0. -1.
    9000005    1    1    2  501    0  0.20635530497E+03  0.12224694834E+03 -0.48759049354E+03  0.67473796222E+03  0.40000000000E+03 0.  1.
   -9000005    1    1    2    0  503 -0.20635530497E+03 -0.12224694834E+03 -0.13862413883E+04  0.14625976941E+04  0.40000000000E+03 0.  1.
<mgrwt>
<rscale>  2 0.46639771E+03</rscale>
<asrwt>0</asrwt>
<pdfrwt beam="1">  1       21 0.20269522E-01 0.46639771E+03</pdfrwt>
<pdfrwt beam="2">  1       21 0.30855134E+00 0.46639771E+03</pdfrwt>
<totfact> 0.54128231E+02</totfact>
</mgrwt>
</event>
<event>
 4    1  0.8722554E-003  0.7051032E+03  0.7818608E-02  0.9708545E-01
         21   -1    0    0  503  502  0.00000000000E+00  0.00000000000E+00  0.11581676302E+04  0.11581676302E+04  0.00000000000E+00 0.  1.
         21   -1    0    0  501  503 -0.00000000000E+00 -0.00000000000E+00 -0.43090194274E+03  0.43090194274E+03  0.00000000000E+00 0. -1.
    9000005    1    1    2  501    0 -0.52568449465E+03  0.24662994595E+03  0.31478699352E+03  0.77217962252E+03  0.40000000000E+03 0.  1.
   -9000005    1    1    2    0  502  0.52568449465E+03 -0.24662994595E+03  0.41247869398E+03  0.81688995045E+03  0.40000000000E+03 0. -1.
<mgrwt>
<rscale>  2 0.70510320E+03</rscale>
<asrwt>0</asrwt>
<pdfrwt beam="1">  1       21 0.17817963E+00 0.70510320E+03</pdfrwt>
<pdfrwt beam="2">  1       21 0.66292607E-01 0.70510320E+03</pdfrwt>
<totfact> 0.29040194E+02</totfact>
</mgrwt>
</event>
<event>
 4    1  0.8722554E-003  0.4238182E+03  0.7818608E-02  0.1035831E+00
         21   -1    0    0  503  502  0.00000000000E+00  0.00000000000E+00  0.74285170998E+02  0.74285170998E+02  0.00000000000E+00 0.  1.
         21   -1    0    0  501  503 -0.00000000000E+00 -0.00000000000E+00 -0.24466693543E+04  0.24466693543E+04  0.00000000000E+00 0.  1.
    9000005    1    1    2  501    0  0.54916184845E+02  0.12886441401E+03 -0.10497565029E+04  0.11320823910E+04  0.40000000000E+03 0.  1.
   -9000005    1    1    2    0  502 -0.54916184845E+02 -0.12886441401E+03 -0.13226276804E+04  0.13888721343E+04  0.40000000000E+03 0.  1.
<mgrwt>
<rscale>  2 0.42381815E+03</rscale>
<asrwt>0</asrwt>
<pdfrwt beam="1">  1       21 0.11428489E-01 0.42381815E+03</pdfrwt>
<pdfrwt beam="2">  1       21 0.37641062E+00 0.42381815E+03</pdfrwt>
<totfact> 0.61922437E+02</totfact>
</mgrwt>
</event>
<event>
 4    1  0.8722554E-003  0.5284945E+03  0.7818608E-02  0.1006598E+00
         21   -1    0    0  503  502  0.00000000000E+00  0.00000000000E+00  0.11527953863E+04  0.11527953863E+04  0.00000000000E+00 0.  1.
         21   -1    0    0  501  503 -0.00000000000E+00 -0.00000000000E+00 -0.32602204909E+03  0.32602204909E+03  0.00000000000E+00 0.  1.
    9000005    1    1    2  501    0 -0.34471682259E+03  0.21834495242E+02  0.38658146024E+02  0.52990648723E+03  0.40000000000E+03 0.  1.
   -9000005    1    1    2    0  502  0.34471682259E+03 -0.21834495242E+02  0.78811519116E+03  0.94891094814E+03  0.40000000000E+03 0.  1.
<mgrwt>
<rscale>  2 0.52849450E+03</rscale>
<asrwt>0</asrwt>
<pdfrwt beam="1">  1       21 0.17735313E+00 0.52849450E+03</pdfrwt>
<pdfrwt beam="2">  1       21 0.50157239E-01 0.52849450E+03</pdfrwt>
<totfact> 0.57699794E+02</totfact>
</mgrwt>
</event>
<event>
 4    1  0.8722554E-003  0.4030649E+03  0.7818608E-02  0.1042724E+00
         21   -1    0    0  501  502  0.00000000000E+00  0.00000000000E+00  0.73871612948E+02  0.73871612948E+02  0.00000000000E+00 0.  1.
         21   -1    0    0  502  503 -0.00000000000E+00 -0.00000000000E+00 -0.22052002300E+04  0.22052002300E+04  0.00000000000E+00 0.  1.
    9000005    1    1    2  501    0 -0.26560718751E+02  0.41902446007E+02 -0.10064134916E+04  0.10841261010E+04  0.40000000000E+03 0.  1.
   -9000005    1    1    2    0  503  0.26560718751E+02 -0.41902446007E+02 -0.11249151254E+04  0.11949457419E+04  0.40000000000E+03 0.  1.
<mgrwt>
<rscale>  2 0.40306487E+03</rscale>
<asrwt>0</asrwt>
<pdfrwt beam="1">  1       21 0.11364864E-01 0.40306487E+03</pdfrwt>
<pdfrwt beam="2">  1       21 0.33926156E+00 0.40306487E+03</pdfrwt>
<totfact> 0.10732243E+03</totfact>
</mgrwt>
</event>
<event>
 4    1  0.8722554E-003  0.4005903E+03  0.7818608E-02  0.1043575E+00
         21   -1    0    0  501  502  0.00000000000E+00  0.00000000000E+00  0.22923706856E+03  0.22923706856E+03  0.00000000000E+00 0. -1.
         21   -1    0    0  502  503 -0.00000000000E+00 -0.00000000000E+00 -0.76522809337E+03  0.76522809337E+03  0.00000000000E+00 0. -1.
    9000005    1    1    2  501    0 -0.11918889361E+02  0.18180162074E+02 -0.12285616707E+03  0.41900622430E+03  0.40000000000E+03 0.  1.
   -9000005    1    1    2    0  503  0.11918889361E+02 -0.18180162074E+02 -0.41313485774E+03  0.57545893763E+03  0.40000000000E+03 0.  1.
<mgrwt>
<rscale>  2 0.40059029E+03</rscale>
<asrwt>0</asrwt>
<pdfrwt beam="1">  1       21 0.35267241E-01 0.40059029E+03</pdfrwt>
<pdfrwt beam="2">  1       21 0.11772740E+00 0.40059029E+03</pdfrwt>
<totfact> 0.38092122E+03</totfact>
</mgrwt>
</event>
<event>
 4    1  0.8722554E-003  0.4037901E+03  0.7818608E-02  0.1042475E+00
         21   -1    0    0  501  502  0.00000000000E+00  0.00000000000E+00  0.43085753208E+03  0.43085753208E+03  0.00000000000E+00 0. -1.
         21   -1    0    0  502  503 -0.00000000000E+00 -0.00000000000E+00 -0.53113611416E+03  0.53113611416E+03  0.00000000000E+00 0. -1.
    9000005    1    1    2  501    0 -0.95378612504E+01 -0.54364279743E+02  0.20777612856E+03  0.45411162208E+03  0.40000000000E+03 0. -1.
   -9000005    1    1    2    0  503  0.95378612504E+01  0.54364279743E+02 -0.30805471064E+03  0.50788202415E+03  0.40000000000E+03 0. -1.
<mgrwt>
<rscale>  2 0.40379010E+03</rscale>
<asrwt>0</asrwt>
<pdfrwt beam="1">  1       21 0.66285774E-01 0.40379010E+03</pdfrwt>
<pdfrwt beam="2">  1       21 0.81713248E-01 0.40379010E+03</pdfrwt>
<totfact> 0.24149107E+03</totfact>
</mgrwt>
</event>
<event>
 4    1  0.8722554E-003  0.4818974E+03  0.7818608E-02  0.1018615E+00
         21   -1    0    0  503  502  0.00000000000E+00  0.00000000000E+00  0.72028557796E+03  0.72028557796E+03  0.00000000000E+00 0.  1.
         21   -1    0    0  501  503 -0.00000000000E+00 -0.00000000000E+00 -0.32588829515E+03  0.32588829515E+03  0.00000000000E+00 0.  1.
    9000005    1    1    2  501    0 -0.97378478144E+02  0.25048462345E+03  0.14313444895E+03  0.50270526660E+03  0.40000000000E+03 0.  1.
   -9000005    1    1    2    0  502  0.97378478144E+02 -0.25048462345E+03  0.25126283386E+03  0.54346860651E+03  0.40000000000E+03 0.  1.
<mgrwt>
<rscale>  2 0.48189741E+03</rscale>
<asrwt>0</asrwt>
<pdfrwt beam="1">  1       21 0.11081317E+00 0.48189741E+03</pdfrwt>
<pdfrwt beam="2">  1       21 0.50136661E-01 0.48189741E+03</pdfrwt>
<totfact> 0.20717044E+03</totfact>
</mgrwt>
</event>
<event>
 4    1  0.8722554E-003  0.6386242E+03  0.7818608E-02  0.9828362E-01
         21   -1    0    0  501  502  0.00000000000E+00  0.00000000000E+00  0.13791530051E+04  0.13791530051E+04  0.00000000000E+00 0. -1.
         21   -1    0    0  502  503 -0.00000000000E+00 -0.00000000000E+00 -0.49738350554E+03  0.49738350554E+03  0.00000000000E+00 0. -1.
    9000005    1    1    2  501    0  0.78342551788E+02 -0.49163334603E+03  0.10383280927E+04  0.12190021044E+04  0.40000000000E+03 0. -1.
   -9000005    1    1    2    0  503 -0.78342551788E+02  0.49163334603E+03 -0.15655859313E+03  0.65753440627E+03  0.40000000000E+03 0. -1.
<mgrwt>
<rscale>  2 0.63862423E+03</rscale>
<asrwt>0</asrwt>
<pdfrwt beam="1">  1       21 0.21217738E+00 0.63862423E+03</pdfrwt>
<pdfrwt beam="2">  1       21 0.76520540E-01 0.63862423E+03</pdfrwt>
<totfact> 0.12514166E+02</totfact>
</mgrwt>
</event>
<event>
 4    1  0.8722554E-003  0.4716690E+03  0.7818608E-02  0.1021450E+00
         21   -1    0    0  503  502  0.00000000000E+00  0.00000000000E+00  0.87951321380E+03  0.87951321380E+03  0.00000000000E+00 0.  1.
         21   -1    0    0  501  503 -0.00000000000E+00 -0.00000000000E+00 -0.28421793350E+03  0.28421793350E+03  0.00000000000E+00 0.  1.
    9000005    1    1    2  501    0  0.19922837024E+03 -0.15092954275E+03  0.10464823716E+03  0.48313861771E+03  0.40000000000E+03 0.  1.
   -9000005    1    1    2    0  502 -0.19922837024E+03  0.15092954275E+03  0.49064704314E+03  0.68059252958E+03  0.40000000000E+03 0.  1.
<mgrwt>
<rscale>  2 0.47166903E+03</rscale>
<asrwt>0</asrwt>
<pdfrwt beam="1">  1       21 0.13530972E+00 0.47166903E+03</pdfrwt>
<pdfrwt beam="2">  1       21 0.43725836E-01 0.47166903E+03</pdfrwt>
<totfact> 0.16654127E+03</totfact>
</mgrwt>
</event>
<event>
 4    1  0.8722554E-003  0.5599967E+03  0.7818608E-02  0.9992062E-01
         21   -1    0    0  503  502  0.00000000000E+00  0.00000000000E+00  0.14888416395E+04  0.14888416395E+04  0.00000000000E+00 0.  1.
         21   -1    0    0  501  503 -0.00000000000E+00 -0.00000000000E+00 -0.21610431724E+03  0.21610431724E+03  0.00000000000E+00 0.  1.
    9000005    1    1    2  501    0 -0.25189284864E+03 -0.30024366854E+03  0.50070219995E+03  0.75119834979E+03  0.40000000000E+03 0.  1.
   -9000005    1    1    2    0  502  0.25189284864E+03  0.30024366854E+03  0.77203512234E+03  0.95374760698E+03  0.40000000000E+03 0.  1.
<mgrwt>
<rscale>  2 0.55999667E+03</rscale>
<asrwt>0</asrwt>
<pdfrwt beam="1">  1       21 0.22905255E+00 0.55999667E+03</pdfrwt>
<pdfrwt beam="2">  1       21 0.33246819E-01 0.55999667E+03</pdfrwt>
<totfact> 0.60266667E+02</totfact>
</mgrwt>
</event>
<event>
 4    1  0.8722554E-003  0.7288155E+03  0.7818608E-02  0.9669184E-01
         21   -1    0    0  503  502  0.00000000000E+00  0.00000000000E+00  0.18338092451E+03  0.18338092451E+03  0.00000000000E+00 0. -1.
         21   -1    0    0  501  503 -0.00000000000E+00 -0.00000000000E+00 -0.34193069058E+04  0.34193069058E+04  0.00000000000E+00 0.  1.
    9000005    1    1    2  501    0  0.44238160098E+02  0.60763069447E+03 -0.23222948790E+04  0.24339732087E+04  0.40000000000E+03 0.  1.
   -9000005    1    1    2    0  502 -0.44238160098E+02 -0.60763069447E+03 -0.91363110227E+03  0.11687146216E+04  0.40000000000E+03 0.  1.
<mgrwt>
<rscale>  2 0.72881553E+03</rscale>
<asrwt>0</asrwt>
<pdfrwt beam="1">  1       21 0.28212450E-01 0.72881553E+03</pdfrwt>
<pdfrwt beam="2">  1       21 0.52604722E+00 0.72881553E+03</pdfrwt>
<totfact> 0.90402497E+00</totfact>
</mgrwt>
</event>
<event>
 4    1  0.8722554E-003  0.4456100E+03  0.7818608E-02  0.1029039E+00
         21   -1    0    0  501  502  0.00000000000E+00  0.00000000000E+00  0.31080583024E+03  0.31080583024E+03  0.00000000000E+00 0.  1.
         21   -1    0    0  502  503 -0.00000000000E+00 -0.00000000000E+00 -0.65520900460E+03  0.65520900460E+03  0.00000000000E+00 0.  1.
    9000005    1    1    2  501    0 -0.13782332373E+03  0.13990340711E+03 -0.95955436548E+02  0.45582417409E+03  0.40000000000E+03 0.  1.
   -9000005    1    1    2    0  503  0.13782332373E+03 -0.13990340711E+03 -0.24844773781E+03  0.51019066074E+03  0.40000000000E+03 0.  1.
<mgrwt>
<rscale>  2 0.44560995E+03</rscale>
<asrwt>0</asrwt>
<pdfrwt beam="1">  1       21 0.47816282E-01 0.44560995E+03</pdfrwt>
<pdfrwt beam="2">  1       21 0.10080139E+00 0.44560995E+03</pdfrwt>
<totfact> 0.29312661E+03</totfact>
</mgrwt>
</event>
<event>
 4    1  0.8722554E-003  0.4874537E+03  0.7818608E-02  0.1017107E+00
         21   -1    0    0  503  502  0.00000000000E+00  0.00000000000E+00  0.67747979985E+03  0.67747979985E+03  0.00000000000E+00 0. -1.
         21   -1    0    0  501  503 -0.00000000000E+00 -0.00000000000E+00 -0.61305864582E+03  0.61305864582E+03  0.00000000000E+00 0.  1.
    9000005    1    1    2  501    0 -0.27856383165E+03  0.36511894090E+01 -0.38988854563E+03  0.62419886054E+03  0.40000000000E+03 0.  1.
   -9000005    1    1    2    0  502  0.27856383165E+03 -0.36511894090E+01  0.45430969967E+03  0.66633958512E+03  0.40000000000E+03 0. -1.
<mgrwt>
<rscale>  2 0.48745373E+03</rscale>
<asrwt>0</asrwt>
<pdfrwt beam="1">  1       21 0.10422766E+00 0.48745373E+03</pdfrwt>
<pdfrwt beam="2">  1       21 0.94316714E-01 0.48745373E+03</pdfrwt>
<totfact> 0.57916172E+02</totfact>
</mgrwt>
</event>
<event>
 4    1  0.8722554E-003  0.4452178E+03  0.7818608E-02  0.1029158E+00
         21   -1    0    0  503  502  0.00000000000E+00  0.00000000000E+00  0.13116484766E+04  0.13116484766E+04  0.00000000000E+00 0.  1.
         21   -1    0    0  501  503 -0.00000000000E+00 -0.00000000000E+00 -0.34191133688E+03  0.34191133688E+03  0.00000000000E+00 0.  1.
    9000005    1    1    2  501    0  0.81935469373E+02 -0.17749787407E+03 -0.13273561986E+03  0.46458332000E+03  0.40000000000E+03 0.  1.
   -9000005    1    1    2    0  502 -0.81935469373E+02  0.17749787407E+03  0.11024727596E+04  0.11889764935E+04  0.40000000000E+03 0.  1.
<mgrwt>
<rscale>  2 0.44521783E+03</rscale>
<asrwt>0</asrwt>
<pdfrwt beam="1">  1       21 0.20179207E+00 0.44521783E+03</pdfrwt>
<pdfrwt beam="2">  1       21 0.52601745E-01 0.44521783E+03</pdfrwt>
<totfact> 0.36738826E+02</totfact>
</mgrwt>
</event>
<event>
 4    1  0.8722554E-003  0.4863489E+03  0.7818608E-02  0.1017405E+00
         21   -1    0    0  501  502  0.00000000000E+00  0.00000000000E+00  0.15366546064E+03  0.15366546064E+03  0.00000000000E+00 0.  1.
         21   -1    0    0  502  503 -0.00000000000E+00 -0.00000000000E+00 -0.18343296589E+04  0.18343296589E+04  0.00000000000E+00 0.  1.
    9000005    1    1    2  501    0 -0.27590865394E+03  0.20240706430E+02 -0.12389794736E+04  0.13310166819E+04  0.40000000000E+03 0.  1.
   -9000005    1    1    2    0  503  0.27590865394E+03 -0.20240706430E+02 -0.44168472466E+03  0.65697843763E+03  0.40000000000E+03 0.  1.
<mgrwt>
<rscale>  2 0.48634892E+03</rscale>
<asrwt>0</asrwt>
<pdfrwt beam="1">  1       21 0.23640841E-01 0.48634892E+03</pdfrwt>
<pdfrwt beam="2">  1       21 0.28220456E+00 0.48634892E+03</pdfrwt>
<totfact> 0.57443171E+02</totfact>
</mgrwt>
</event>
<event>
 4    1  0.8722554E-003  0.5388309E+03  0.7818608E-02  0.1004113E+00
         21   -1    0    0  503  502  0.00000000000E+00  0.00000000000E+00  0.18153637541E+04  0.18153637541E+04  0.00000000000E+00 0.  1.
         21   -1    0    0  501  503 -0.00000000000E+00 -0.00000000000E+00 -0.18914966390E+03  0.18914966390E+03  0.00000000000E+00 0. -1.
    9000005    1    1    2  501    0  0.35834577044E+03  0.43898517015E+02  0.41921020998E+03  0.68269756931E+03  0.40000000000E+03 0. -1.
   -9000005    1    1    2    0  502 -0.35834577044E+03 -0.43898517015E+02  0.12070038803E+04  0.13218158487E+04  0.40000000000E+03 0.  1.
<mgrwt>
<rscale>  2 0.53883093E+03</rscale>
<asrwt>0</asrwt>
<pdfrwt beam="1">  1       21 0.27928672E+00 0.53883093E+03</pdfrwt>
<pdfrwt beam="2">  1       21 0.29099950E-01 0.53883093E+03</pdfrwt>
<totfact> 0.38814976E+02</totfact>
</mgrwt>
</event>
<event>
 4    1  0.8722554E-003  0.4146470E+03  0.7818608E-02  0.1038823E+00
         21   -1    0    0  503  502  0.00000000000E+00  0.00000000000E+00  0.11820422034E+04  0.11820422034E+04  0.00000000000E+00 0. -1.
         21   -1    0    0  501  503 -0.00000000000E+00 -0.00000000000E+00 -0.25549262162E+03  0.25549262162E+03  0.00000000000E+00 0. -1.
    9000005    1    1    2  501    0 -0.63113293107E+02  0.89156514723E+02 -0.84326872034E+01  0.41473278397E+03  0.40000000000E+03 0. -1.
   -9000005    1    1    2    0  502  0.63113293107E+02 -0.89156514723E+02  0.93498226901E+03  0.10228020411E+04  0.40000000000E+03 0. -1.
<mgrwt>
<rscale>  2 0.41464704E+03</rscale>
<asrwt>0</asrwt>
<pdfrwt beam="1">  1       21 0.18185264E+00 0.41464704E+03</pdfrwt>
<pdfrwt beam="2">  1       21 0.39306558E-01 0.41464704E+03</pdfrwt>
<totfact> 0.93897804E+02</totfact>
</mgrwt>
</event>
<event>
 4    1  0.8722554E-003  0.4526515E+03  0.7818608E-02  0.1026934E+00
         21   -1    0    0  501  502  0.00000000000E+00  0.00000000000E+00  0.13249269406E+04  0.13249269406E+04  0.00000000000E+00 0. -1.
         21   -1    0    0  502  503 -0.00000000000E+00 -0.00000000000E+00 -0.15524841658E+03  0.15524841658E+03  0.00000000000E+00 0. -1.
    9000005    1    1    2  501    0  0.15018368151E+03 -0.14945985392E+03  0.63097761339E+03  0.77654757403E+03  0.40000000000E+03 0.  1.
   -9000005    1    1    2    0  503 -0.15018368151E+03  0.14945985392E+03  0.53870091067E+03  0.70362778319E+03  0.40000000000E+03 0.  1.
<mgrwt>
<rscale>  2 0.45265151E+03</rscale>
<asrwt>0</asrwt>
<pdfrwt beam="1">  1       21 0.20383491E+00 0.45265151E+03</pdfrwt>
<pdfrwt beam="2">  1       21 0.23884373E-01 0.45265151E+03</pdfrwt>
<totfact> 0.17648249E+03</totfact>
</mgrwt>
</event>
<event>
 4    1  0.8722554E-003  0.5733253E+03  0.7818608E-02  0.9962347E-01
         21   -1    0    0  503  502  0.00000000000E+00  0.00000000000E+00  0.19211435351E+03  0.19211435351E+03  0.00000000000E+00 0. -1.
         21   -1    0    0  501  503 -0.00000000000E+00 -0.00000000000E+00 -0.17320347702E+04  0.17320347702E+04  0.00000000000E+00 0.  1.
    9000005    1    1    2  501    0 -0.40526602412E+03  0.66793354948E+02 -0.87605850400E+03  0.10469863442E+04  0.40000000000E+03 0. -1.
   -9000005    1    1    2    0  502  0.40526602412E+03 -0.66793354948E+02 -0.66386191268E+03  0.87716277947E+03  0.40000000000E+03 0. -1.
<mgrwt>
<rscale>  2 0.57332530E+03</rscale>
<asrwt>0</asrwt>
<pdfrwt beam="1">  1       21 0.29556053E-01 0.57332530E+03</pdfrwt>
<pdfrwt beam="2">  1       21 0.26646690E+00 0.57332530E+03</pdfrwt>
<totfact> 0.44378997E+02</totfact>
</mgrwt>
</event>
<event>
 4    1  0.8722554E-003  0.8041512E+03  0.7818608E-02  0.9554028E-01
         21   -1    0    0  503  502  0.00000000000E+00  0.00000000000E+00  0.85989376488E+03  0.85989376488E+03  0.00000000000E+00 0. -1.
         21   -1    0    0  501  503 -0.00000000000E+00 -0.00000000000E+00 -0.86304940221E+03  0.86304940221E+03  0.00000000000E+00 0.  1.
    9000005    1    1    2  501    0  0.55585720702E+03 -0.42152324461E+03 -0.31056331940E+03  0.86203750249E+03  0.40000000000E+03 0. -1.
   -9000005    1    1    2    0  502 -0.55585720702E+03  0.42152324461E+03  0.30740768207E+03  0.86090566460E+03  0.40000000000E+03 0.  1.
<mgrwt>
<rscale>  2 0.80415116E+03</rscale>
<asrwt>0</asrwt>
<pdfrwt beam="1">  1       21 0.13229135E+00 0.80415116E+03</pdfrwt>
<pdfrwt beam="2">  1       21 0.13277683E+00 0.80415116E+03</pdfrwt>
<totfact> 0.11965580E+02</totfact>
</mgrwt>
</event>
<event>
 4    1  0.8722554E-003  0.4324669E+03  0.7818608E-02  0.1033084E+00
         21   -1    0    0  501  502  0.00000000000E+00  0.00000000000E+00  0.80975837629E+03  0.80975837629E+03  0.00000000000E+00 0. -1.
         21   -1    0    0  502  503 -0.00000000000E+00 -0.00000000000E+00 -0.24554500315E+03  0.24554500315E+03  0.00000000000E+00 0. -1.
    9000005    1    1    2  501    0 -0.15542619951E+02  0.16366446193E+03  0.15354020915E+03  0.45891418039E+03  0.40000000000E+03 0. -1.
   -9000005    1    1    2    0  503  0.15542619951E+02 -0.16366446193E+03  0.41067316398E+03  0.59638919905E+03  0.40000000000E+03 0. -1.
<mgrwt>
<rscale>  2 0.43246691E+03</rscale>
<asrwt>0</asrwt>
<pdfrwt beam="1">  1       21 0.12457821E+00 0.43246691E+03</pdfrwt>
<pdfrwt beam="2">  1       21 0.37776154E-01 0.43246691E+03</pdfrwt>
<totfact> 0.28333356E+03</totfact>
</mgrwt>
</event>
<event>
 4    1  0.8722554E-003  0.4106421E+03  0.7818608E-02  0.1040156E+00
         21   -1    0    0  503  502  0.00000000000E+00  0.00000000000E+00  0.46029330058E+03  0.46029330058E+03  0.00000000000E+00 0. -1.
         21   -1    0    0  501  503 -0.00000000000E+00 -0.00000000000E+00 -0.58213937993E+03  0.58213937993E+03  0.00000000000E+00 0. -1.
    9000005    1    1    2  501    0  0.73039704849E+02 -0.57377150532E+02 -0.37826162265E+03  0.55830886708E+03  0.40000000000E+03 0. -1.
   -9000005    1    1    2    0  502 -0.73039704849E+02  0.57377150532E+02  0.25641554330E+03  0.48412381343E+03  0.40000000000E+03 0. -1.
<mgrwt>
<rscale>  2 0.41064210E+03</rscale>
<asrwt>0</asrwt>
<pdfrwt beam="1">  1       21 0.70814354E-01 0.41064210E+03</pdfrwt>
<pdfrwt beam="2">  1       21 0.89559904E-01 0.41064210E+03</pdfrwt>
<totfact> 0.16762521E+03</totfact>
</mgrwt>
</event>
<event>
 4    1  0.8722554E-003  0.4562055E+03  0.7818608E-02  0.1025887E+00
         21   -1    0    0  501  502  0.00000000000E+00  0.00000000000E+00  0.52415985524E+03  0.52415985524E+03  0.00000000000E+00 0. -1.
         21   -1    0    0  502  503 -0.00000000000E+00 -0.00000000000E+00 -0.50647194696E+03  0.50647194696E+03  0.00000000000E+00 0. -1.
    9000005    1    1    2  501    0 -0.37414104319E+02  0.21615662273E+03 -0.23066733618E+03  0.51120536063E+03  0.40000000000E+03 0. -1.
   -9000005    1    1    2    0  503  0.37414104319E+02 -0.21615662273E+03  0.24835524446E+03  0.51942644157E+03  0.40000000000E+03 0. -1.
<mgrwt>
<rscale>  2 0.45620555E+03</rscale>
<asrwt>0</asrwt>
<pdfrwt beam="1">  1       21 0.80639978E-01 0.45620555E+03</pdfrwt>
<pdfrwt beam="2">  1       21 0.77918761E-01 0.45620555E+03</pdfrwt>
<totfact> 0.16923856E+03</totfact>
</mgrwt>
</event>
<event>
 4    1  0.8722554E-003  0.4010493E+03  0.7818608E-02  0.1043417E+00
         21   -1    0    0  501  502  0.00000000000E+00  0.00000000000E+00  0.80786597053E+03  0.80786597053E+03  0.00000000000E+00 0.  1.
         21   -1    0    0  502  503 -0.00000000000E+00 -0.00000000000E+00 -0.23533729890E+03  0.23533729890E+03  0.00000000000E+00 0.  1.
    9000005    1    1    2  501    0  0.27398600646E+02 -0.94773668306E+01  0.81566577821E+02  0.40925983240E+03  0.40000000000E+03 0. -1.
   -9000005    1    1    2    0  503 -0.27398600646E+02  0.94773668306E+01  0.49096209381E+03  0.63394343703E+03  0.40000000000E+03 0. -1.
<mgrwt>
<rscale>  2 0.40104925E+03</rscale>
<asrwt>0</asrwt>
<pdfrwt beam="1">  1       21 0.12428707E+00 0.40104925E+03</pdfrwt>
<pdfrwt beam="2">  1       21 0.36205739E-01 0.40104925E+03</pdfrwt>
<totfact> 0.31464932E+03</totfact>
</mgrwt>
</event>
<event>
 4    1  0.8722554E-003  0.4400547E+03  0.7818608E-02  0.1030730E+00
         21   -1    0    0  503  502  0.00000000000E+00  0.00000000000E+00  0.17015201756E+04  0.17015201756E+04  0.00000000000E+00 0. -1.
         21   -1    0    0  501  503 -0.00000000000E+00 -0.00000000000E+00 -0.13864975517E+03  0.13864975517E+03  0.00000000000E+00 0. -1.
    9000005    1    1    2  501    0 -0.15211847193E+03  0.10250918767E+03  0.39198536903E+03  0.58932223155E+03  0.40000000000E+03 0. -1.
   -9000005    1    1    2    0  502  0.15211847193E+03 -0.10250918767E+03  0.11708850514E+04  0.12508476993E+04  0.40000000000E+03 0. -1.
<mgrwt>
<rscale>  2 0.44005473E+03</rscale>
<asrwt>0</asrwt>
<pdfrwt beam="1">  1       21 0.26177232E+00 0.44005473E+03</pdfrwt>
<pdfrwt beam="2">  1       21 0.21330733E-01 0.44005473E+03</pdfrwt>
<totfact> 0.95369123E+02</totfact>
</mgrwt>
</event>
<event>
 4    1  0.8722554E-003  0.4682474E+03  0.7818608E-02  0.1022416E+00
         21   -1    0    0  503  502  0.00000000000E+00  0.00000000000E+00  0.56514805440E+03  0.56514805440E+03  0.00000000000E+00 0.  1.
         21   -1    0    0  501  503 -0.00000000000E+00 -0.00000000000E+00 -0.47984974869E+03  0.47984974869E+03  0.00000000000E+00 0. -1.
    9000005    1    1    2  501    0 -0.15412410256E+03  0.18841800882E+03 -0.18599661073E+03  0.50383561232E+03  0.40000000000E+03 0. -1.
   -9000005    1    1    2    0  502  0.15412410256E+03 -0.18841800882E+03  0.27129491644E+03  0.54116219077E+03  0.40000000000E+03 0.  1.
<mgrwt>
<rscale>  2 0.46824735E+03</rscale>
<asrwt>0</asrwt>
<pdfrwt beam="1">  1       21 0.86945854E-01 0.46824735E+03</pdfrwt>
<pdfrwt beam="2">  1       21 0.73823038E-01 0.46824735E+03</pdfrwt>
<totfact> 0.15990456E+03</totfact>
</mgrwt>
</event>
<event>
 4    1  0.8722554E-003  0.7970572E+03  0.7818608E-02  0.9564286E-01
         21   -1    0    0  503  502  0.00000000000E+00  0.00000000000E+00  0.10204825148E+04  0.10204825148E+04  0.00000000000E+00 0. -1.
         21   -1    0    0  501  503 -0.00000000000E+00 -0.00000000000E+00 -0.65542556851E+03  0.65542556851E+03  0.00000000000E+00 0. -1.
    9000005    1    1    2  501    0  0.16769161024E+03 -0.66871501017E+03 -0.51448656989E+01  0.79707384263E+03  0.40000000000E+03 0. -1.
   -9000005    1    1    2    0  502 -0.16769161024E+03  0.66871501017E+03  0.37020181197E+03  0.87883424066E+03  0.40000000000E+03 0. -1.
<mgrwt>
<rscale>  2 0.79705724E+03</rscale>
<asrwt>0</asrwt>
<pdfrwt beam="1">  1       21 0.15699731E+00 0.79705724E+03</pdfrwt>
<pdfrwt beam="2">  1       21 0.10083470E+00 0.79705724E+03</pdfrwt>
<totfact> 0.15184136E+02</totfact>
</mgrwt>
</event>
<event>
 4    1  0.8722554E-003  0.5488086E+03  0.7818608E-02  0.1001770E+00
         21   -1    0    0  503  502  0.00000000000E+00  0.00000000000E+00  0.24644847486E+03  0.24644847486E+03  0.00000000000E+00 0.  1.
         21   -1    0    0  501  503 -0.00000000000E+00 -0.00000000000E+00 -0.12221338326E+04  0.12221338326E+04  0.00000000000E+00 0.  1.
    9000005    1    1    2  501    0  0.25653723042E+03 -0.27455342374E+03 -0.48591023566E+03  0.73300729205E+03  0.40000000000E+03 0.  1.
   -9000005    1    1    2    0  502 -0.25653723042E+03  0.27455342374E+03 -0.48977512208E+03  0.73557501540E+03  0.40000000000E+03 0.  1.
<mgrwt>
<rscale>  2 0.54880865E+03</rscale>
<asrwt>0</asrwt>
<pdfrwt beam="1">  1       21 0.37915150E-01 0.54880865E+03</pdfrwt>
<pdfrwt beam="2">  1       21 0.18802059E+00 0.54880865E+03</pdfrwt>
<totfact> 0.86527317E+02</totfact>
</mgrwt>
</event>
<event>
 4    1  0.8722554E-003  0.4355700E+03  0.7818608E-02  0.1032115E+00
         21   -1    0    0  501  502  0.00000000000E+00  0.00000000000E+00  0.14593482571E+04  0.14593482571E+04  0.00000000000E+00 0.  1.
         21   -1    0    0  502  503 -0.00000000000E+00 -0.00000000000E+00 -0.19284230968E+03  0.19284230968E+03  0.00000000000E+00 0.  1.
    9000005    1    1    2  501    0  0.88708004205E+02  0.14782457103E+03  0.11048173436E+04  0.11875784507E+04  0.40000000000E+03 0.  1.
   -9000005    1    1    2    0  503 -0.88708004205E+02 -0.14782457103E+03  0.16168860382E+03  0.46461211609E+03  0.40000000000E+03 0.  1.
<mgrwt>
<rscale>  2 0.43556999E+03</rscale>
<asrwt>0</asrwt>
<pdfrwt beam="1">  1       21 0.22451511E+00 0.43556999E+03</pdfrwt>
<pdfrwt beam="2">  1       21 0.29668049E-01 0.43556999E+03</pdfrwt>
<totfact> 0.85495580E+02</totfact>
</mgrwt>
</event>
<event>
 4    1  0.8722554E-003  0.4401010E+03  0.7818608E-02  0.1030716E+00
         21   -1    0    0  501  502  0.00000000000E+00  0.00000000000E+00  0.18099499070E+03  0.18099499070E+03  0.00000000000E+00 0. -1.
         21   -1    0    0  502  503 -0.00000000000E+00 -0.00000000000E+00 -0.14272172516E+04  0.14272172516E+04  0.00000000000E+00 0. -1.
    9000005    1    1    2  501    0  0.11501504996E+03 -0.14303980082E+03 -0.10253214631E+04  0.11157835583E+04  0.40000000000E+03 0. -1.
   -9000005    1    1    2    0  503 -0.11501504996E+03  0.14303980082E+03 -0.22090079781E+03  0.49242868398E+03  0.40000000000E+03 0. -1.
<mgrwt>
<rscale>  2 0.44010095E+03</rscale>
<asrwt>0</asrwt>
<pdfrwt beam="1">  1       21 0.27845383E-01 0.44010095E+03</pdfrwt>
<pdfrwt beam="2">  1       21 0.21957188E+00 0.44010095E+03</pdfrwt>
<totfact> 0.10395548E+03</totfact>
</mgrwt>
</event>
<event>
 4    1  0.8722554E-003  0.4003484E+03  0.7818608E-02  0.1043659E+00
         21   -1    0    0  501  502  0.00000000000E+00  0.00000000000E+00  0.14346692556E+04  0.14346692556E+04  0.00000000000E+00 0. -1.
         21   -1    0    0  502  503 -0.00000000000E+00 -0.00000000000E+00 -0.14412254382E+03  0.14412254382E+03  0.00000000000E+00 0. -1.
    9000005    1    1    2  501    0 -0.33222980672E+01 -0.16365664265E+02  0.10195817454E+04  0.10953656048E+04  0.40000000000E+03 0. -1.
   -9000005    1    1    2    0  503  0.33222980672E+01  0.16365664265E+02  0.27096496637E+03  0.48342619460E+03  0.40000000000E+03 0. -1.
<mgrwt>
<rscale>  2 0.40034844E+03</rscale>
<asrwt>0</asrwt>
<pdfrwt beam="1">  1       21 0.22071834E+00 0.40034844E+03</pdfrwt>
<pdfrwt beam="2">  1       21 0.22172700E-01 0.40034844E+03</pdfrwt>
<totfact> 0.16227872E+03</totfact>
</mgrwt>
</event>
<event>
 4    1  0.8722554E-003  0.4562667E+03  0.7818608E-02  0.1025870E+00
         21   -1    0    0  501  502  0.00000000000E+00  0.00000000000E+00  0.17024839074E+04  0.17024839074E+04  0.00000000000E+00 0.  1.
         21   -1    0    0  502  503 -0.00000000000E+00 -0.00000000000E+00 -0.12527499691E+03  0.12527499691E+03  0.00000000000E+00 0.  1.
    9000005    1    1    2  501    0 -0.81880514192E+01  0.21934499270E+03  0.92991500438E+03  0.10358190891E+04  0.40000000000E+03 0.  1.
   -9000005    1    1    2    0  503  0.81880514192E+01 -0.21934499270E+03  0.64729390614E+03  0.79193981523E+03  0.40000000000E+03 0.  1.
<mgrwt>
<rscale>  2 0.45626667E+03</rscale>
<asrwt>0</asrwt>
<pdfrwt beam="1">  1       21 0.26192058E+00 0.45626667E+03</pdfrwt>
<pdfrwt beam="2">  1       21 0.19273078E-01 0.45626667E+03</pdfrwt>
<totfact> 0.11452409E+03</totfact>
</mgrwt>
</event>
<event>
 4    1  0.8722554E-003  0.5699766E+03  0.7818608E-02  0.9969730E-01
         21   -1    0    0  503  502  0.00000000000E+00  0.00000000000E+00  0.65159851347E+03  0.65159851347E+03  0.00000000000E+00 0. -1.
         21   -1    0    0  501  503 -0.00000000000E+00 -0.00000000000E+00 -0.50665285318E+03  0.50665285318E+03  0.00000000000E+00 0.  1.
    9000005    1    1    2  501    0 -0.34476352792E+03 -0.21450268255E+03 -0.63431573468E+00  0.56997692353E+03  0.40000000000E+03 0. -1.
   -9000005    1    1    2    0  502  0.34476352792E+03  0.21450268255E+03  0.14557997602E+03  0.58827444312E+03  0.40000000000E+03 0.  1.
<mgrwt>
<rscale>  2 0.56997657E+03</rscale>
<asrwt>0</asrwt>
<pdfrwt beam="1">  1       21 0.10024593E+00 0.56997657E+03</pdfrwt>
<pdfrwt beam="2">  1       21 0.77946593E-01 0.56997657E+03</pdfrwt>
<totfact> 0.96905239E+02</totfact>
</mgrwt>
</event>
<event>
 4    1  0.8722554E-003  0.8194160E+03  0.7818608E-02  0.9532331E-01
         21   -1    0    0  501  502  0.00000000000E+00  0.00000000000E+00  0.16709764218E+04  0.16709764218E+04  0.00000000000E+00 0.  1.
         21   -1    0    0  502  503 -0.00000000000E+00 -0.00000000000E+00 -0.40849181272E+03  0.40849181272E+03  0.00000000000E+00 0.  1.
    9000005    1    1    2  501    0 -0.70026217670E+03 -0.14517408758E+03  0.49842936134E+03  0.95910086022E+03  0.40000000000E+03 0.  1.
   -9000005    1    1    2    0  503  0.70026217670E+03  0.14517408758E+03  0.76405524775E+03  0.11203673743E+04  0.40000000000E+03 0.  1.
<mgrwt>
<rscale>  2 0.81941603E+03</rscale>
<asrwt>0</asrwt>
<pdfrwt beam="1">  1       21 0.25707329E+00 0.81941603E+03</pdfrwt>
<pdfrwt beam="2">  1       21 0.62844895E-01 0.81941603E+03</pdfrwt>
<totfact> 0.94877260E+01</totfact>
</mgrwt>
</event>
<event>
 4    1  0.8722554E-003  0.4181590E+03  0.7818608E-02  0.1037667E+00
         21   -1    0    0  503  502  0.00000000000E+00  0.00000000000E+00  0.84248599220E+03  0.84248599220E+03  0.00000000000E+00 0.  1.
         21   -1    0    0  501  503 -0.00000000000E+00 -0.00000000000E+00 -0.31557458823E+03  0.31557458823E+03  0.00000000000E+00 0.  1.
    9000005    1    1    2  501    0 -0.12152088347E+03 -0.94667578744E+01 -0.75321379084E+02  0.42488852040E+03  0.40000000000E+03 0.  1.
   -9000005    1    1    2    0  502  0.12152088347E+03  0.94667578744E+01  0.60223278305E+03  0.73317206002E+03  0.40000000000E+03 0.  1.
<mgrwt>
<rscale>  2 0.41815899E+03</rscale>
<asrwt>0</asrwt>
<pdfrwt beam="1">  1       21 0.12961323E+00 0.41815899E+03</pdfrwt>
<pdfrwt beam="2">  1       21 0.48549937E-01 0.41815899E+03</pdfrwt>
<totfact> 0.15277533E+03</totfact>
</mgrwt>
</event>
<event>
 4    1  0.8722554E-003  0.4311338E+03  0.7818608E-02  0.1033502E+00
         21   -1    0    0  503  502  0.00000000000E+00  0.00000000000E+00  0.31422748405E+03  0.31422748405E+03  0.00000000000E+00 0.  1.
         21   -1    0    0  501  503 -0.00000000000E+00 -0.00000000000E+00 -0.77540588921E+03  0.77540588921E+03  0.00000000000E+00 0.  1.
    9000005    1    1    2  501    0  0.11598057347E+03  0.11146684286E+03 -0.49589278178E+03  0.65710425467E+03  0.40000000000E+03 0.  1.
   -9000005    1    1    2    0  502 -0.11598057347E+03 -0.11146684286E+03  0.34714376621E+02  0.43252911858E+03  0.40000000000E+03 0.  1.
<mgrwt>
<rscale>  2 0.43113380E+03</rscale>
<asrwt>0</asrwt>
<pdfrwt beam="1">  1       21 0.48342691E-01 0.43113380E+03</pdfrwt>
<pdfrwt beam="2">  1       21 0.11929321E+00 0.43113380E+03</pdfrwt>
<totfact> 0.18968819E+03</totfact>
</mgrwt>
</event>
<event>
 4    1  0.8722554E-003  0.4963896E+03  0.7818608E-02  0.1014726E+00
         21   -1    0    0  501  502  0.00000000000E+00  0.00000000000E+00  0.64790069500E+03  0.64790069500E+03  0.00000000000E+00 0.  1.
         21   -1    0    0  502  503 -0.00000000000E+00 -0.00000000000E+00 -0.39036181081E+03  0.39036181081E+03  0.00000000000E+00 0.  1.
    9000005    1    1    2  501    0  0.21675664428E+03  0.19854261912E+03  0.21207659633E+03  0.53979542158E+03  0.40000000000E+03 0.  1.
   -9000005    1    1    2    0  503 -0.21675664428E+03 -0.19854261912E+03  0.45462287855E+02  0.49846708423E+03  0.40000000000E+03 0.  1.
<mgrwt>
<rscale>  2 0.49638958E+03</rscale>
<asrwt>0</asrwt>
<pdfrwt beam="1">  1       21 0.99677030E-01 0.49638958E+03</pdfrwt>
<pdfrwt beam="2">  1       21 0.60055663E-01 0.49638958E+03</pdfrwt>
<totfact> 0.18112993E+03</totfact>
</mgrwt>
</event>
<event>
 4    1  0.8722554E-003  0.4215752E+03  0.7818608E-02  0.1036555E+00
         21   -1    0    0  501  502  0.00000000000E+00  0.00000000000E+00  0.11130631451E+04  0.11130631451E+04  0.00000000000E+00 0.  1.
         21   -1    0    0  502  503 -0.00000000000E+00 -0.00000000000E+00 -0.23332722539E+03  0.23332722539E+03  0.00000000000E+00 0.  1.
    9000005    1    1    2  501    0 -0.11368033886E+03  0.69299363046E+02  0.81810014170E+03  0.92033334342E+03  0.40000000000E+03 0.  1.
   -9000005    1    1    2    0  503  0.11368033886E+03 -0.69299363046E+02  0.61635777967E+02  0.42605702704E+03  0.40000000000E+03 0.  1.
<mgrwt>
<rscale>  2 0.42157517E+03</rscale>
<asrwt>0</asrwt>
<pdfrwt beam="1">  1       21 0.17124048E+00 0.42157517E+03</pdfrwt>
<pdfrwt beam="2">  1       21 0.35896497E-01 0.42157517E+03</pdfrwt>
<totfact> 0.13397898E+03</totfact>
</mgrwt>
</event>
<event>
 4    1  0.8722554E-003  0.4189914E+03  0.7818608E-02  0.1037395E+00
         21   -1    0    0  501  502  0.00000000000E+00  0.00000000000E+00  0.17583240573E+03  0.17583240573E+03  0.00000000000E+00 0. -1.
         21   -1    0    0  502  503 -0.00000000000E+00 -0.00000000000E+00 -0.11519977648E+04  0.11519977648E+04  0.00000000000E+00 0. -1.
    9000005    1    1    2  501    0  0.82940159096E+02  0.93138414186E+02 -0.73049627416E+03  0.84212744923E+03  0.40000000000E+03 0. -1.
   -9000005    1    1    2    0  503 -0.82940159096E+02 -0.93138414186E+02 -0.24566908489E+03  0.48570272128E+03  0.40000000000E+03 0. -1.
<mgrwt>
<rscale>  2 0.41899145E+03</rscale>
<asrwt>0</asrwt>
<pdfrwt beam="1">  1       21 0.27051139E-01 0.41899145E+03</pdfrwt>
<pdfrwt beam="2">  1       21 0.17723042E+00 0.41899145E+03</pdfrwt>
<totfact> 0.21357164E+03</totfact>
</mgrwt>
</event>
<event>
 4    1  0.8722554E-003  0.4399091E+03  0.7818608E-02  0.1030775E+00
         21   -1    0    0  501  502  0.00000000000E+00  0.00000000000E+00  0.98711148560E+03  0.98711148560E+03  0.00000000000E+00 0.  1.
         21   -1    0    0  502  503 -0.00000000000E+00 -0.00000000000E+00 -0.21959506744E+03  0.21959506744E+03  0.00000000000E+00 0. -1.
    9000005    1    1    2  501    0 -0.72936466461E+02  0.16792934291E+03  0.58133702789E+03  0.72902176397E+03  0.40000000000E+03 0.  1.
   -9000005    1    1    2    0  503  0.72936466461E+02 -0.16792934291E+03  0.18617939028E+03  0.47768478907E+03  0.40000000000E+03 0. -1.
<mgrwt>
<rscale>  2 0.43990907E+03</rscale>
<asrwt>0</asrwt>
<pdfrwt beam="1">  1       21 0.15186330E+00 0.43990907E+03</pdfrwt>
<pdfrwt beam="2">  1       21 0.33783857E-01 0.43990907E+03</pdfrwt>
<totfact> 0.21001995E+03</totfact>
</mgrwt>
</event>
<event>
 4    1  0.8722554E-003  0.4604247E+03  0.7818608E-02  0.1024658E+00
         21   -1    0    0  503  502  0.00000000000E+00  0.00000000000E+00  0.10617171931E+04  0.10617171931E+04  0.00000000000E+00 0.  1.
         21   -1    0    0  501  503 -0.00000000000E+00 -0.00000000000E+00 -0.20103740288E+03  0.20103740288E+03  0.00000000000E+00 0. -1.
    9000005    1    1    2  501    0 -0.18861242248E+03 -0.12812604281E+03  0.48244965829E+03  0.66689474548E+03  0.40000000000E+03 0. -1.
   -9000005    1    1    2    0  502  0.18861242248E+03  0.12812604281E+03  0.37823013195E+03  0.59585985053E+03  0.40000000000E+03 0. -1.
<mgrwt>
<rscale>  2 0.46042473E+03</rscale>
<asrwt>0</asrwt>
<pdfrwt beam="1">  1       21 0.16334110E+00 0.46042473E+03</pdfrwt>
<pdfrwt beam="2">  1       21 0.30928832E-01 0.46042473E+03</pdfrwt>
<totfact> 0.20322661E+03</totfact>
</mgrwt>
</event>
<event>
 4    1  0.8722554E-003  0.5701026E+03  0.7818608E-02  0.9969452E-01
         21   -1    0    0  503  502  0.00000000000E+00  0.00000000000E+00  0.77307006688E+03  0.77307006688E+03  0.00000000000E+00 0. -1.
         21   -1    0    0  501  503 -0.00000000000E+00 -0.00000000000E+00 -0.42050548643E+03  0.42050548643E+03  0.00000000000E+00 0. -1.
    9000005    1    1    2  501    0  0.34823616346E+02 -0.40472747588E+03  0.16796176692E+03  0.59433001703E+03  0.40000000000E+03 0. -1.
   -9000005    1    1    2    0  502 -0.34823616346E+02  0.40472747588E+03  0.18460281354E+03  0.59924553629E+03  0.40000000000E+03 0. -1.
<mgrwt>
<rscale>  2 0.57010263E+03</rscale>
<asrwt>0</asrwt>
<pdfrwt beam="1">  1       21 0.11893386E+00 0.57010263E+03</pdfrwt>
<pdfrwt beam="2">  1       21 0.64693152E-01 0.57010263E+03</pdfrwt>
<totfact> 0.96584454E+02</totfact>
</mgrwt>
</event>
<event>
 4    1  0.8722554E-003  0.4121384E+03  0.7818608E-02  0.1039656E+00
         21   -1    0    0  503  502  0.00000000000E+00  0.00000000000E+00  0.43583040268E+03  0.43583040268E+03  0.00000000000E+00 0. -1.
         21   -1    0    0  501  503 -0.00000000000E+00 -0.00000000000E+00 -0.38981932711E+03  0.38981932711E+03  0.00000000000E+00 0.  1.
    9000005    1    1    2  501    0  0.33345618186E+02 -0.93520569281E+02  0.16906135418E+02  0.41248496281E+03  0.40000000000E+03 0.  1.
   -9000005    1    1    2    0  502 -0.33345618186E+02  0.93520569281E+02  0.29104940161E+02  0.41316476698E+03  0.40000000000E+03 0.  1.
<mgrwt>
<rscale>  2 0.41213836E+03</rscale>
<asrwt>0</asrwt>
<pdfrwt beam="1">  1       21 0.67050831E-01 0.41213836E+03</pdfrwt>
<pdfrwt beam="2">  1       21 0.59972204E-01 0.41213836E+03</pdfrwt>
<totfact> 0.47033838E+03</totfact>
</mgrwt>
</event>
<event>
 4    1  0.8722554E-003  0.5653649E+03  0.7818608E-02  0.9979988E-01
         21   -1    0    0  501  502  0.00000000000E+00  0.00000000000E+00  0.20486349050E+04  0.20486349050E+04  0.00000000000E+00 0.  1.
         21   -1    0    0  502  503 -0.00000000000E+00 -0.00000000000E+00 -0.18767623015E+03  0.18767623015E+03  0.00000000000E+00 0.  1.
    9000005    1    1    2  501    0  0.27559360875E+03 -0.28928474300E+03  0.13896725305E+04  0.15002757219E+04  0.40000000000E+03 0.  1.
   -9000005    1    1    2    0  503 -0.27559360875E+03  0.28928474300E+03  0.47128614437E+03  0.73603541327E+03  0.40000000000E+03 0.  1.
<mgrwt>
<rscale>  2 0.56536493E+03</rscale>
<asrwt>0</asrwt>
<pdfrwt beam="1">  1       21 0.31517458E+00 0.56536493E+03</pdfrwt>
<pdfrwt beam="2">  1       21 0.28873268E-01 0.56536493E+03</pdfrwt>
<totfact> 0.23570218E+02</totfact>
</mgrwt>
</event>
<event>
 4    1  0.8722554E-003  0.4772254E+03  0.7818608E-02  0.1019900E+00
         21   -1    0    0  503  502  0.00000000000E+00  0.00000000000E+00  0.10161893545E+04  0.10161893545E+04  0.00000000000E+00 0. -1.
         21   -1    0    0  501  503 -0.00000000000E+00 -0.00000000000E+00 -0.23898072569E+03  0.23898072569E+03  0.00000000000E+00 0. -1.
    9000005    1    1    2  501    0  0.17292590959E+03 -0.19452696663E+03  0.23208345752E+03  0.53066641330E+03  0.40000000000E+03 0. -1.
   -9000005    1    1    2    0  502 -0.17292590959E+03  0.19452696663E+03  0.54512517130E+03  0.72450366689E+03  0.40000000000E+03 0. -1.
<mgrwt>
<rscale>  2 0.47722543E+03</rscale>
<asrwt>0</asrwt>
<pdfrwt beam="1">  1       21 0.15633682E+00 0.47722543E+03</pdfrwt>
<pdfrwt beam="2">  1       21 0.36766266E-01 0.47722543E+03</pdfrwt>
<totfact> 0.16099429E+03</totfact>
</mgrwt>
</event>
<event>
 4    1  0.8722554E-003  0.6156749E+03  0.7818608E-02  0.9873409E-01
         21   -1    0    0  501  502  0.00000000000E+00  0.00000000000E+00  0.12095746981E+04  0.12095746981E+04  0.00000000000E+00 0.  1.
         21   -1    0    0  502  503 -0.00000000000E+00 -0.00000000000E+00 -0.49895039050E+03  0.49895039050E+03  0.00000000000E+00 0.  1.
    9000005    1    1    2  501    0  0.43901758750E+03 -0.16223174033E+03  0.87628841036E+03  0.10709514265E+04  0.40000000000E+03 0.  1.
   -9000005    1    1    2    0  503 -0.43901758750E+03  0.16223174033E+03 -0.16566410277E+03  0.63757366214E+03  0.40000000000E+03 0.  1.
<mgrwt>
<rscale>  2 0.61567490E+03</rscale>
<asrwt>0</asrwt>
<pdfrwt beam="1">  1       21 0.18608841E+00 0.61567490E+03</pdfrwt>
<pdfrwt beam="2">  1       21 0.76761599E-01 0.61567490E+03</pdfrwt>
<totfact> 0.18831582E+02</totfact>
</mgrwt>
</event>
<event>
 4    1  0.8722554E-003  0.5365447E+03  0.7818608E-02  0.1004657E+00
         21   -1    0    0  503  502  0.00000000000E+00  0.00000000000E+00  0.80346806625E+03  0.80346806625E+03  0.00000000000E+00 0.  1.
         21   -1    0    0  501  503 -0.00000000000E+00 -0.00000000000E+00 -0.36850476953E+03  0.36850476953E+03  0.00000000000E+00 0.  1.
    9000005    1    1    2  501    0 -0.84298466534E+01 -0.35750404474E+03  0.31501008148E+03  0.62218289575E+03  0.40000000000E+03 0.  1.
   -9000005    1    1    2    0  502  0.84298466534E+01  0.35750404474E+03  0.11995321524E+03  0.54978994004E+03  0.40000000000E+03 0.  1.
<mgrwt>
<rscale>  2 0.53654469E+03</rscale>
<asrwt>0</asrwt>
<pdfrwt beam="1">  1       21 0.12361047E+00 0.53654469E+03</pdfrwt>
<pdfrwt beam="2">  1       21 0.56693042E-01 0.53654469E+03</pdfrwt>
<totfact> 0.11834470E+03</totfact>
</mgrwt>
</event>
<event>
 4    1  0.8722554E-003  0.5297454E+03  0.7818608E-02  0.1006294E+00
         21   -1    0    0  503  502  0.00000000000E+00  0.00000000000E+00  0.52611224057E+03  0.52611224057E+03  0.00000000000E+00 0. -1.
         21   -1    0    0  501  503 -0.00000000000E+00 -0.00000000000E+00 -0.55331037524E+03  0.55331037524E+03  0.00000000000E+00 0. -1.
    9000005    1    1    2  501    0  0.22046611344E+03  0.26837447421E+03 -0.11597020177E+03  0.54229074608E+03  0.40000000000E+03 0. -1.
   -9000005    1    1    2    0  502 -0.22046611344E+03 -0.26837447421E+03  0.88772067098E+02  0.53713186973E+03  0.40000000000E+03 0. -1.
<mgrwt>
<rscale>  2 0.52974538E+03</rscale>
<asrwt>0</asrwt>
<pdfrwt beam="1">  1       21 0.80940345E-01 0.52974538E+03</pdfrwt>
<pdfrwt beam="2">  1       21 0.85124673E-01 0.52974538E+03</pdfrwt>
<totfact> 0.13310000E+03</totfact>
</mgrwt>
</event>
<event>
 4    1  0.8722554E-003  0.4909097E+03  0.7818608E-02  0.1016179E+00
         21   -1    0    0  503  502  0.00000000000E+00  0.00000000000E+00  0.52534110237E+03  0.52534110237E+03  0.00000000000E+00 0. -1.
         21   -1    0    0  501  503 -0.00000000000E+00 -0.00000000000E+00 -0.46267961272E+03  0.46267961272E+03  0.00000000000E+00 0. -1.
    9000005    1    1    2  501    0 -0.89955319087E+02 -0.27000072191E+03 -0.14283259328E+02  0.49111746127E+03  0.40000000000E+03 0. -1.
   -9000005    1    1    2    0  502  0.89955319087E+02  0.27000072191E+03  0.76944748980E+02  0.49690325382E+03  0.40000000000E+03 0. -1.
<mgrwt>
<rscale>  2 0.49090972E+03</rscale>
<asrwt>0</asrwt>
<pdfrwt beam="1">  1       21 0.80821709E-01 0.49090972E+03</pdfrwt>
<pdfrwt beam="2">  1       21 0.71181478E-01 0.49090972E+03</pdfrwt>
<totfact> 0.20434985E+03</totfact>
</mgrwt>
</event>
<event>
 4    1  0.8722554E-003  0.6488468E+03  0.7818608E-02  0.9808946E-01
         21   -1    0    0  503  502  0.00000000000E+00  0.00000000000E+00  0.12121782977E+04  0.12121782977E+04  0.00000000000E+00 0.  1.
         21   -1    0    0  501  503 -0.00000000000E+00 -0.00000000000E+00 -0.34858324519E+03  0.34858324519E+03  0.00000000000E+00 0.  1.
    9000005    1    1    2  501    0 -0.42476795506E+03 -0.28385618545E+03  0.38464138583E+03  0.75428850273E+03  0.40000000000E+03 0.  1.
   -9000005    1    1    2    0  502  0.42476795506E+03  0.28385618545E+03  0.47895366668E+03  0.80647304015E+03  0.40000000000E+03 0.  1.
<mgrwt>
<rscale>  2 0.64884678E+03</rscale>
<asrwt>0</asrwt>
<pdfrwt beam="1">  1       21 0.18648897E+00 0.64884678E+03</pdfrwt>
<pdfrwt beam="2">  1       21 0.53628192E-01 0.64884678E+03</pdfrwt>
<totfact> 0.41225023E+02</totfact>
</mgrwt>
</event>
<event>
 4    1  0.8722554E-003  0.4066461E+03  0.7818608E-02  0.1041502E+00
         21   -1    0    0  503  502  0.00000000000E+00  0.00000000000E+00  0.24061609829E+03  0.24061609829E+03  0.00000000000E+00 0.  1.
         21   -1    0    0  501  503 -0.00000000000E+00 -0.00000000000E+00 -0.68734105883E+03  0.68734105883E+03  0.00000000000E+00 0.  1.
    9000005    1    1    2  501    0 -0.10920380993E+02  0.72400008129E+02 -0.22898748511E+03  0.46668649459E+03  0.40000000000E+03 0. -1.
   -9000005    1    1    2    0  502  0.10920380993E+02 -0.72400008129E+02 -0.21773747544E+03  0.46127066253E+03  0.40000000000E+03 0. -1.
<mgrwt>
<rscale>  2 0.40664606E+03</rscale>
<asrwt>0</asrwt>
<pdfrwt beam="1">  1       21 0.37017861E-01 0.40664606E+03</pdfrwt>
<pdfrwt beam="2">  1       21 0.10574478E+00 0.40664606E+03</pdfrwt>
<totfact> 0.44954888E+03</totfact>
</mgrwt>
</event>
<event>
 4    1  0.8722554E-003  0.4043188E+03  0.7818608E-02  0.1042294E+00
         21   -1    0    0  503  502  0.00000000000E+00  0.00000000000E+00  0.10314425543E+04  0.10314425543E+04  0.00000000000E+00 0. -1.
         21   -1    0    0  501  503 -0.00000000000E+00 -0.00000000000E+00 -0.15972775490E+03  0.15972775490E+03  0.00000000000E+00 0. -1.
    9000005    1    1    2  501    0  0.47721873866E+02 -0.34587212286E+02  0.38343508273E+03  0.55722178275E+03  0.40000000000E+03 0. -1.
   -9000005    1    1    2    0  502 -0.47721873866E+02  0.34587212286E+02  0.48827971671E+03  0.63394852649E+03  0.40000000000E+03 0. -1.
<mgrwt>
<rscale>  2 0.40431875E+03</rscale>
<asrwt>0</asrwt>
<pdfrwt beam="1">  1       21 0.15868347E+00 0.40431875E+03</pdfrwt>
<pdfrwt beam="2">  1       21 0.24573501E-01 0.40431875E+03</pdfrwt>
<totfact> 0.35421769E+03</totfact>
</mgrwt>
</event>
<event>
 4    1  0.8722554E-003  0.4054352E+03  0.7818608E-02  0.1041914E+00
         21   -1    0    0  503  502  0.00000000000E+00  0.00000000000E+00  0.27862773856E+03  0.27862773856E+03  0.00000000000E+00 0. -1.
         21   -1    0    0  501  503 -0.00000000000E+00 -0.00000000000E+00 -0.64753551651E+03  0.64753551651E+03  0.00000000000E+00 0. -1.
    9000005    1    1    2  501    0 -0.25084255467E+02  0.61224513422E+02 -0.32254502005E+03  0.51808585280E+03  0.40000000000E+03 0.  1.
   -9000005    1    1    2    0  502  0.25084255467E+02 -0.61224513422E+02 -0.46362757902E+02  0.40807740226E+03  0.40000000000E+03 0.  1.
<mgrwt>
<rscale>  2 0.40543515E+03</rscale>
<asrwt>0</asrwt>
<pdfrwt beam="1">  1       21 0.42865807E-01 0.40543515E+03</pdfrwt>
<pdfrwt beam="2">  1       21 0.99620847E-01 0.40543515E+03</pdfrwt>
<totfact> 0.38493895E+03</totfact>
</mgrwt>
</event>
<event>
 4    1  0.8722554E-003  0.4168011E+03  0.7818608E-02  0.1038113E+00
         21   -1    0    0  503  502  0.00000000000E+00  0.00000000000E+00  0.92676512196E+02  0.92676512196E+02  0.00000000000E+00 0.  1.
         21   -1    0    0  501  503 -0.00000000000E+00 -0.00000000000E+00 -0.22554564211E+04  0.22554564211E+04  0.00000000000E+00 0.  1.
    9000005    1    1    2  501    0 -0.28417625091E+02 -0.11364662544E+03 -0.15639007055E+04  0.16184895840E+04  0.40000000000E+03 0.  1.
   -9000005    1    1    2    0  502  0.28417625091E+02  0.11364662544E+03 -0.59887920343E+03  0.72964334931E+03  0.40000000000E+03 0.  1.
<mgrwt>
<rscale>  2 0.41680105E+03</rscale>
<asrwt>0</asrwt>
<pdfrwt beam="1">  1       21 0.14257926E-01 0.41680105E+03</pdfrwt>
<pdfrwt beam="2">  1       21 0.34699326E+00 0.41680105E+03</pdfrwt>
<totfact> 0.63068259E+02</totfact>
</mgrwt>
</event>
<event>
 4    1  0.8722554E-003  0.4242200E+03  0.7818608E-02  0.1035702E+00
         21   -1    0    0  501  502  0.00000000000E+00  0.00000000000E+00  0.11823403779E+03  0.11823403779E+03  0.00000000000E+00 0. -1.
         21   -1    0    0  502  503 -0.00000000000E+00 -0.00000000000E+00 -0.15231207314E+04  0.15231207314E+04  0.00000000000E+00 0.  1.
    9000005    1    1    2  501    0  0.13261958141E+02  0.14066518540E+03 -0.68107045103E+03  0.80238365710E+03  0.40000000000E+03 0.  1.
   -9000005    1    1    2    0  503 -0.13261958141E+02 -0.14066518540E+03 -0.72381624262E+03  0.83897111214E+03  0.40000000000E+03 0. -1.
<mgrwt>
<rscale>  2 0.42421996E+03</rscale>
<asrwt>0</asrwt>
<pdfrwt beam="1">  1       21 0.18189852E-01 0.42421996E+03</pdfrwt>
<pdfrwt beam="2">  1       21 0.23432627E+00 0.42421996E+03</pdfrwt>
<totfact> 0.19183231E+03</totfact>
</mgrwt>
</event>
<event>
 4    1  0.8722554E-003  0.4575223E+03  0.7818608E-02  0.1025502E+00
         21   -1    0    0  501  502  0.00000000000E+00  0.00000000000E+00  0.60659553627E+03  0.60659553627E+03  0.00000000000E+00 0.  1.
         21   -1    0    0  502  503 -0.00000000000E+00 -0.00000000000E+00 -0.58622602894E+03  0.58622602894E+03  0.00000000000E+00 0.  1.
    9000005    1    1    2  501    0  0.19956004656E+03  0.97480288205E+02  0.39270029873E+03  0.60294290227E+03  0.40000000000E+03 0.  1.
   -9000005    1    1    2    0  503 -0.19956004656E+03 -0.97480288205E+02 -0.37233079140E+03  0.58987866294E+03  0.40000000000E+03 0.  1.
<mgrwt>
<rscale>  2 0.45752226E+03</rscale>
<asrwt>0</asrwt>
<pdfrwt beam="1">  1       21 0.93322390E-01 0.45752226E+03</pdfrwt>
<pdfrwt beam="2">  1       21 0.90188620E-01 0.45752226E+03</pdfrwt>
<totfact> 0.85289952E+02</totfact>
</mgrwt>
</event>
<event>
 4    1  0.8722554E-003  0.7583845E+03  0.7818608E-02  0.9622287E-01
         21   -1    0    0  503  502  0.00000000000E+00  0.00000000000E+00  0.15191188294E+04  0.15191188294E+04  0.00000000000E+00 0.  1.
         21   -1    0    0  501  503 -0.00000000000E+00 -0.00000000000E+00 -0.38674018059E+03  0.38674018059E+03  0.00000000000E+00 0. -1.
    9000005    1    1    2  501    0 -0.64409875146E+03 -0.16848773348E+02  0.70439167326E+03  0.10350433383E+04  0.40000000000E+03 0.  1.
   -9000005    1    1    2    0  502  0.64409875146E+03  0.16848773348E+02  0.42798697553E+03  0.87081567166E+03  0.40000000000E+03 0. -1.
<mgrwt>
<rscale>  2 0.75838452E+03</rscale>
<asrwt>0</asrwt>
<pdfrwt beam="1">  1       21 0.23371059E+00 0.75838452E+03</pdfrwt>
<pdfrwt beam="2">  1       21 0.59498490E-01 0.75838452E+03</pdfrwt>
<totfact> 0.15356920E+02</totfact>
</mgrwt>
</event>
<event>
 4    1  0.8722554E-003  0.4106361E+03  0.7818608E-02  0.1040158E+00
         21   -1    0    0  503  502  0.00000000000E+00  0.00000000000E+00  0.24923497211E+03  0.24923497211E+03  0.00000000000E+00 0.  1.
         21   -1    0    0  501  503 -0.00000000000E+00 -0.00000000000E+00 -0.71899715286E+03  0.71899715286E+03  0.00000000000E+00 0.  1.
    9000005    1    1    2  501    0  0.18657504737E+02 -0.90961165905E+02 -0.11726499515E+03  0.42705165410E+03  0.40000000000E+03 0.  1.
   -9000005    1    1    2    0  502 -0.18657504737E+02  0.90961165905E+02 -0.35249718561E+03  0.54118047087E+03  0.40000000000E+03 0.  1.
<mgrwt>
<rscale>  2 0.41063614E+03</rscale>
<asrwt>0</asrwt>
<pdfrwt beam="1">  1       21 0.38343842E-01 0.41063614E+03</pdfrwt>
<pdfrwt beam="2">  1       21 0.11061495E+00 0.41063614E+03</pdfrwt>
<totfact> 0.37385030E+03</totfact>
</mgrwt>
</event>
<event>
 4    1  0.8722554E-003  0.4256376E+03  0.7818608E-02  0.1035247E+00
         21   -1    0    0  501  502  0.00000000000E+00  0.00000000000E+00  0.59234148417E+03  0.59234148417E+03  0.00000000000E+00 0.  1.
         21   -1    0    0  502  503 -0.00000000000E+00 -0.00000000000E+00 -0.61202934372E+03  0.61202934372E+03  0.00000000000E+00 0.  1.
    9000005    1    1    2  501    0  0.12827346751E+03 -0.68653090408E+02  0.41608038059E+03  0.59522282584E+03  0.40000000000E+03 0.  1.
   -9000005    1    1    2    0  503 -0.12827346751E+03  0.68653090408E+02 -0.43576824013E+03  0.60914800205E+03  0.40000000000E+03 0.  1.
<mgrwt>
<rscale>  2 0.42563756E+03</rscale>
<asrwt>0</asrwt>
<pdfrwt beam="1">  1       21 0.91129459E-01 0.42563756E+03</pdfrwt>
<pdfrwt beam="2">  1       21 0.94158360E-01 0.42563756E+03</pdfrwt>
<totfact> 0.82587996E+02</totfact>
</mgrwt>
</event>
<event>
 4    1  0.8722554E-003  0.4333557E+03  0.7818608E-02  0.1032805E+00
         21   -1    0    0  501  502  0.00000000000E+00  0.00000000000E+00  0.35094588865E+03  0.35094588865E+03  0.00000000000E+00 0.  1.
         21   -1    0    0  502  503 -0.00000000000E+00 -0.00000000000E+00 -0.97572894641E+03  0.97572894641E+03  0.00000000000E+00 0. -1.
    9000005    1    1    2  501    0  0.10207008629E+03 -0.13182885566E+03 -0.75814833286E+03  0.87326172728E+03  0.40000000000E+03 0. -1.
   -9000005    1    1    2    0  503 -0.10207008629E+03  0.13182885566E+03  0.13336527510E+03  0.45341310778E+03  0.40000000000E+03 0.  1.
<mgrwt>
<rscale>  2 0.43335568E+03</rscale>
<asrwt>0</asrwt>
<pdfrwt beam="1">  1       21 0.53991676E-01 0.43335568E+03</pdfrwt>
<pdfrwt beam="2">  1       21 0.15011214E+00 0.43335568E+03</pdfrwt>
<totfact> 0.82001681E+02</totfact>
</mgrwt>
</event>
<event>
 4    1  0.8722554E-003  0.4226945E+03  0.7818608E-02  0.1036193E+00
         21   -1    0    0  503  502  0.00000000000E+00  0.00000000000E+00  0.46658136881E+03  0.46658136881E+03  0.00000000000E+00 0.  1.
         21   -1    0    0  501  503 -0.00000000000E+00 -0.00000000000E+00 -0.39046743234E+03  0.39046743234E+03  0.00000000000E+00 0.  1.
    9000005    1    1    2  501    0  0.73643695014E+02  0.11509650328E+03 -0.21459143870E+02  0.42323881407E+03  0.40000000000E+03 0.  1.
   -9000005    1    1    2    0  502 -0.73643695014E+02 -0.11509650328E+03  0.97573080341E+02  0.43380998708E+03  0.40000000000E+03 0.  1.
<mgrwt>
<rscale>  2 0.42269445E+03</rscale>
<asrwt>0</asrwt>
<pdfrwt beam="1">  1       21 0.71781749E-01 0.42269445E+03</pdfrwt>
<pdfrwt beam="2">  1       21 0.60071913E-01 0.42269445E+03</pdfrwt>
<totfact> 0.40061369E+03</totfact>
</mgrwt>
</event>
<event>
 4    1  0.8722554E-003  0.4115368E+03  0.7818608E-02  0.1039857E+00
         21   -1    0    0  501  502  0.00000000000E+00  0.00000000000E+00  0.48116960883E+03  0.48116960883E+03  0.00000000000E+00 0. -1.
         21   -1    0    0  502  503 -0.00000000000E+00 -0.00000000000E+00 -0.45784793601E+03  0.45784793601E+03  0.00000000000E+00 0. -1.
    9000005    1    1    2  501    0 -0.94671467682E+02 -0.19996010125E+02  0.23742935997E+03  0.47511601551E+03  0.40000000000E+03 0. -1.
   -9000005    1    1    2    0  503  0.94671467682E+02  0.19996010125E+02 -0.21410768716E+03  0.46390152933E+03  0.40000000000E+03 0. -1.
<mgrwt>
<rscale>  2 0.41153679E+03</rscale>
<asrwt>0</asrwt>
<pdfrwt beam="1">  1       21 0.74026093E-01 0.41153679E+03</pdfrwt>
<pdfrwt beam="2">  1       21 0.70438144E-01 0.41153679E+03</pdfrwt>
<totfact> 0.26354272E+03</totfact>
</mgrwt>
</event>
<event>
 4    1  0.8722554E-003  0.4428602E+03  0.7818608E-02  0.1029873E+00
         21   -1    0    0  503  502  0.00000000000E+00  0.00000000000E+00  0.60258611718E+03  0.60258611718E+03  0.00000000000E+00 0. -1.
         21   -1    0    0  501  503 -0.00000000000E+00 -0.00000000000E+00 -0.40062822182E+03  0.40062822182E+03  0.00000000000E+00 0. -1.
    9000005    1    1    2  501    0  0.89271062486E+02 -0.16779706599E+03 -0.11627823551E+03  0.45787094907E+03  0.40000000000E+03 0. -1.
   -9000005    1    1    2    0  502 -0.89271062486E+02  0.16779706599E+03  0.31823613087E+03  0.54534338993E+03  0.40000000000E+03 0. -1.
<mgrwt>
<rscale>  2 0.44286022E+03</rscale>
<asrwt>0</asrwt>
<pdfrwt beam="1">  1       21 0.92705556E-01 0.44286022E+03</pdfrwt>
<pdfrwt beam="2">  1       21 0.61635111E-01 0.44286022E+03</pdfrwt>
<totfact> 0.20769024E+03</totfact>
</mgrwt>
</event>
<event>
 4    1  0.8722554E-003  0.4475936E+03  0.7818608E-02  0.1028442E+00
         21   -1    0    0  501  502  0.00000000000E+00  0.00000000000E+00  0.43697368654E+03  0.43697368654E+03  0.00000000000E+00 0. -1.
         21   -1    0    0  502  503 -0.00000000000E+00 -0.00000000000E+00 -0.46105677991E+03  0.46105677991E+03  0.00000000000E+00 0. -1.
    9000005    1    1    2  501    0  0.19890882732E+03 -0.27843960142E+02 -0.45664249592E+02  0.44991691610E+03  0.40000000000E+03 0. -1.
   -9000005    1    1    2    0  503 -0.19890882732E+03  0.27843960142E+02  0.21581156224E+02  0.44811355035E+03  0.40000000000E+03 0. -1.
<mgrwt>
<rscale>  2 0.44759357E+03</rscale>
<asrwt>0</asrwt>
<pdfrwt beam="1">  1       21 0.67226721E-01 0.44759357E+03</pdfrwt>
<pdfrwt beam="2">  1       21 0.70931812E-01 0.44759357E+03</pdfrwt>
<totfact> 0.31802284E+03</totfact>
</mgrwt>
</event>
<event>
 4    1  0.8722554E-003  0.4467617E+03  0.7818608E-02  0.1028692E+00
         21   -1    0    0  503  502  0.00000000000E+00  0.00000000000E+00  0.21550530631E+04  0.21550530631E+04  0.00000000000E+00 0. -1.
         21   -1    0    0  501  503 -0.00000000000E+00 -0.00000000000E+00 -0.94600185331E+02  0.94600185331E+02  0.00000000000E+00 0. -1.
    9000005    1    1    2  501    0 -0.18039124330E+03  0.83994053399E+02  0.86739155363E+03  0.97568648088E+03  0.40000000000E+03 0. -1.
   -9000005    1    1    2    0  502  0.18039124330E+03 -0.83994053399E+02  0.11930613241E+04  0.12739667675E+04  0.40000000000E+03 0. -1.
<mgrwt>
<rscale>  2 0.44676168E+03</rscale>
<asrwt>0</asrwt>
<pdfrwt beam="1">  1       21 0.33154659E+00 0.44676168E+03</pdfrwt>
<pdfrwt beam="2">  1       21 0.14553876E-01 0.44676168E+03</pdfrwt>
<totfact> 0.74033729E+02</totfact>
</mgrwt>
</event>
<event>
 4    1  0.8722554E-003  0.5739339E+03  0.7818608E-02  0.9961011E-01
         21   -1    0    0  501  502  0.00000000000E+00  0.00000000000E+00  0.19456669402E+03  0.19456669402E+03  0.00000000000E+00 0.  1.
         21   -1    0    0  502  503 -0.00000000000E+00 -0.00000000000E+00 -0.17091184336E+04  0.17091184336E+04  0.00000000000E+00 0.  1.
    9000005    1    1    2  501    0  0.32548180525E+03 -0.25191614019E+03 -0.84973037602E+03  0.10253983905E+04  0.40000000000E+03 0.  1.
   -9000005    1    1    2    0  503 -0.32548180525E+03  0.25191614019E+03 -0.66482136358E+03  0.87828673718E+03  0.40000000000E+03 0.  1.
<mgrwt>
<rscale>  2 0.57393392E+03</rscale>
<asrwt>0</asrwt>
<pdfrwt beam="1">  1       21 0.29933337E-01 0.57393392E+03</pdfrwt>
<pdfrwt beam="2">  1       21 0.26294130E+00 0.57393392E+03</pdfrwt>
<totfact> 0.45468793E+02</totfact>
</mgrwt>
</event>
<event>
 4    1  0.8722554E-003  0.4317838E+03  0.7818608E-02  0.1033298E+00
         21   -1    0    0  501  502  0.00000000000E+00  0.00000000000E+00  0.19644924340E+03  0.19644924340E+03  0.00000000000E+00 0.  1.
         21   -1    0    0  502  503 -0.00000000000E+00 -0.00000000000E+00 -0.95371075953E+03  0.95371075953E+03  0.00000000000E+00 0.  1.
    9000005    1    1    2  501    0  0.15723189788E+03  0.41417003710E+02 -0.33836472292E+03  0.54856897800E+03  0.40000000000E+03 0. -1.
   -9000005    1    1    2    0  503 -0.15723189788E+03 -0.41417003710E+02 -0.41889679321E+03  0.60159102493E+03  0.40000000000E+03 0. -1.
<mgrwt>
<rscale>  2 0.43178379E+03</rscale>
<asrwt>0</asrwt>
<pdfrwt beam="1">  1       21 0.30222961E-01 0.43178379E+03</pdfrwt>
<pdfrwt beam="2">  1       21 0.14672473E+00 0.43178379E+03</pdfrwt>
<totfact> 0.28900968E+03</totfact>
</mgrwt>
</event>
<event>
 4    1  0.8722554E-003  0.4005516E+03  0.7818608E-02  0.1043589E+00
         21   -1    0    0  501  502  0.00000000000E+00  0.00000000000E+00  0.94420251370E+03  0.94420251370E+03  0.00000000000E+00 0.  1.
         21   -1    0    0  502  503 -0.00000000000E+00 -0.00000000000E+00 -0.19068748486E+03  0.19068748486E+03  0.00000000000E+00 0.  1.
    9000005    1    1    2  501    0  0.63803089888E+01  0.20022774145E+02  0.56400862806E+03  0.69177117052E+03  0.40000000000E+03 0.  1.
   -9000005    1    1    2    0  503 -0.63803089888E+01 -0.20022774145E+02  0.18950640077E+03  0.44311882804E+03  0.40000000000E+03 0.  1.
<mgrwt>
<rscale>  2 0.40055164E+03</rscale>
<asrwt>0</asrwt>
<pdfrwt beam="1">  1       21 0.14526192E+00 0.40055164E+03</pdfrwt>
<pdfrwt beam="2">  1       21 0.29336537E-01 0.40055164E+03</pdfrwt>
<totfact> 0.31896583E+03</totfact>
</mgrwt>
</event>
<event>
 4    1  0.8722554E-003  0.5618854E+03  0.7818608E-02  0.9987798E-01
         21   -1    0    0  503  502  0.00000000000E+00  0.00000000000E+00  0.12888845314E+04  0.12888845314E+04  0.00000000000E+00 0.  1.
         21   -1    0    0  501  503 -0.00000000000E+00 -0.00000000000E+00 -0.25847454147E+03  0.25847454147E+03  0.00000000000E+00 0.  1.
    9000005    1    1    2  501    0  0.22082011002E+03  0.32703780228E+03  0.33824447585E+03  0.65583882970E+03  0.40000000000E+03 0.  1.
   -9000005    1    1    2    0  502 -0.22082011002E+03 -0.32703780228E+03  0.69216551412E+03  0.89152024320E+03  0.40000000000E+03 0.  1.
<mgrwt>
<rscale>  2 0.56188544E+03</rscale>
<asrwt>0</asrwt>
<pdfrwt beam="1">  1       21 0.19828993E+00 0.56188544E+03</pdfrwt>
<pdfrwt beam="2">  1       21 0.39765315E-01 0.56188544E+03</pdfrwt>
<totfact> 0.66392198E+02</totfact>
</mgrwt>
</event>
<event>
 4    1  0.8722554E-003  0.4706190E+03  0.7818608E-02  0.1021746E+00
         21   -1    0    0  501  502  0.00000000000E+00  0.00000000000E+00  0.19792146722E+03  0.19792146722E+03  0.00000000000E+00 0.  1.
         21   -1    0    0  502  503 -0.00000000000E+00 -0.00000000000E+00 -0.16428513865E+04  0.16428513865E+04  0.00000000000E+00 0.  1.
    9000005    1    1    2  501    0  0.72829812866E+02 -0.23701918378E+03 -0.20275859169E+03  0.51243860279E+03  0.40000000000E+03 0.  1.
   -9000005    1    1    2    0  503 -0.72829812866E+02  0.23701918378E+03 -0.12421713276E+04  0.13283342509E+04  0.40000000000E+03 0.  1.
<mgrwt>
<rscale>  2 0.47061903E+03</rscale>
<asrwt>0</asrwt>
<pdfrwt beam="1">  1       21 0.30449457E-01 0.47061903E+03</pdfrwt>
<pdfrwt beam="2">  1       21 0.25274637E+00 0.47061903E+03</pdfrwt>
<totfact> 0.53215989E+02</totfact>
</mgrwt>
</event>
<event>
 4    1  0.8722554E-003  0.4304812E+03  0.7818608E-02  0.1033708E+00
         21   -1    0    0  501  502  0.00000000000E+00  0.00000000000E+00  0.13189437701E+03  0.13189437701E+03  0.00000000000E+00 0.  1.
         21   -1    0    0  502  503 -0.00000000000E+00 -0.00000000000E+00 -0.14122208523E+04  0.14122208523E+04  0.00000000000E+00 0.  1.
    9000005    1    1    2  501    0  0.15512739782E+03 -0.35348770130E+02 -0.69529912328E+03  0.81777436738E+03  0.40000000000E+03 0.  1.
   -9000005    1    1    2    0  503 -0.15512739782E+03  0.35348770130E+02 -0.58502735200E+03  0.72634086192E+03  0.40000000000E+03 0.  1.
<mgrwt>
<rscale>  2 0.43048118E+03</rscale>
<asrwt>0</asrwt>
<pdfrwt beam="1">  1       21 0.20291442E-01 0.43048118E+03</pdfrwt>
<pdfrwt beam="2">  1       21 0.21726475E+00 0.43048118E+03</pdfrwt>
<totfact> 0.19931854E+03</totfact>
</mgrwt>
</event>
<event>
 4    1  0.8722554E-003  0.4037313E+03  0.7818608E-02  0.1042495E+00
         21   -1    0    0  503  502  0.00000000000E+00  0.00000000000E+00  0.16231214675E+03  0.16231214675E+03  0.00000000000E+00 0. -1.
         21   -1    0    0  501  503 -0.00000000000E+00 -0.00000000000E+00 -0.10138138715E+04  0.10138138715E+04  0.00000000000E+00 0. -1.
    9000005    1    1    2  501    0 -0.44105808645E+02 -0.32459896065E+02 -0.48292264360E+03  0.62945472189E+03  0.40000000000E+03 0. -1.
   -9000005    1    1    2    0  502  0.44105808645E+02  0.32459896065E+02 -0.36857908116E+03  0.54667129637E+03  0.40000000000E+03 0. -1.
<mgrwt>
<rscale>  2 0.40373131E+03</rscale>
<asrwt>0</asrwt>
<pdfrwt beam="1">  1       21 0.24971099E-01 0.40373131E+03</pdfrwt>
<pdfrwt beam="2">  1       21 0.15597136E+00 0.40373131E+03</pdfrwt>
<totfact> 0.36018236E+03</totfact>
</mgrwt>
</event>
<event>
 4    1  0.8722554E-003  0.4598793E+03  0.7818608E-02  0.1024816E+00
         21   -1    0    0  501  502  0.00000000000E+00  0.00000000000E+00  0.17146640344E+04  0.17146640344E+04  0.00000000000E+00 0.  1.
         21   -1    0    0  502  503 -0.00000000000E+00 -0.00000000000E+00 -0.21854019905E+03  0.21854019905E+03  0.00000000000E+00 0.  1.
    9000005    1    1    2  501    0  0.22469332796E+03  0.31652252765E+02  0.13860285294E+04  0.14603301137E+04  0.40000000000E+03 0.  1.
   -9000005    1    1    2    0  503 -0.22469332796E+03 -0.31652252765E+02  0.11009530598E+03  0.47287411976E+03  0.40000000000E+03 0.  1.
<mgrwt>
<rscale>  2 0.45987928E+03</rscale>
<asrwt>0</asrwt>
<pdfrwt beam="1">  1       21 0.26379446E+00 0.45987928E+03</pdfrwt>
<pdfrwt beam="2">  1       21 0.33621570E-01 0.45987928E+03</pdfrwt>
<totfact> 0.37566365E+02</totfact>
</mgrwt>
</event>
<event>
 4    1  0.8722554E-003  0.4502737E+03  0.7818608E-02  0.1027640E+00
         21   -1    0    0  501  502  0.00000000000E+00  0.00000000000E+00  0.19749503562E+03  0.19749503562E+03  0.00000000000E+00 0. -1.
         21   -1    0    0  502  503 -0.00000000000E+00 -0.00000000000E+00 -0.10659998173E+04  0.10659998173E+04  0.00000000000E+00 0. -1.
    9000005    1    1    2  501    0  0.54179730727E+02 -0.19952686871E+03 -0.31278281375E+03  0.54825131385E+03  0.40000000000E+03 0. -1.
   -9000005    1    1    2    0  503 -0.54179730727E+02  0.19952686871E+03 -0.55572196797E+03  0.71524353911E+03  0.40000000000E+03 0. -1.
<mgrwt>
<rscale>  2 0.45027371E+03</rscale>
<asrwt>0</asrwt>
<pdfrwt beam="1">  1       21 0.30383852E-01 0.45027371E+03</pdfrwt>
<pdfrwt beam="2">  1       21 0.16399997E+00 0.45027371E+03</pdfrwt>
<totfact> 0.20902951E+03</totfact>
</mgrwt>
</event>
<event>
 4    1  0.8722554E-003  0.5111719E+03  0.7818608E-02  0.1010903E+00
         21   -1    0    0  503  502  0.00000000000E+00  0.00000000000E+00  0.20431877718E+03  0.20431877718E+03  0.00000000000E+00 0.  1.
         21   -1    0    0  501  503 -0.00000000000E+00 -0.00000000000E+00 -0.14909690359E+04  0.14909690359E+04  0.00000000000E+00 0. -1.
    9000005    1    1    2  501    0  0.10634902630E+03  0.29997762533E+03 -0.96303114040E+03  0.10902869661E+04  0.40000000000E+03 0. -1.
   -9000005    1    1    2    0  502 -0.10634902630E+03 -0.29997762533E+03 -0.32361911833E+03  0.60500084698E+03  0.40000000000E+03 0.  1.
<mgrwt>
<rscale>  2 0.51117188E+03</rscale>
<asrwt>0</asrwt>
<pdfrwt beam="1">  1       21 0.31433658E-01 0.51117188E+03</pdfrwt>
<pdfrwt beam="2">  1       21 0.22937985E+00 0.51117188E+03</pdfrwt>
<totfact> 0.68510098E+02</totfact>
</mgrwt>
</event>
<event>
 4    1  0.8722554E-003  0.4385156E+03  0.7818608E-02  0.1031203E+00
         21   -1    0    0  503  502  0.00000000000E+00  0.00000000000E+00  0.31101971795E+03  0.31101971795E+03  0.00000000000E+00 0. -1.
         21   -1    0    0  501  503 -0.00000000000E+00 -0.00000000000E+00 -0.62532761264E+03  0.62532761264E+03  0.00000000000E+00 0.  1.
    9000005    1    1    2  501    0 -0.17344279444E+03  0.47048507014E+02 -0.10743710262E+03  0.45148498976E+03  0.40000000000E+03 0. -1.
   -9000005    1    1    2    0  502  0.17344279444E+03 -0.47048507014E+02 -0.20687079207E+03  0.48486234084E+03  0.40000000000E+03 0.  1.
<mgrwt>
<rscale>  2 0.43851564E+03</rscale>
<asrwt>0</asrwt>
<pdfrwt beam="1">  1       21 0.47849187E-01 0.43851564E+03</pdfrwt>
<pdfrwt beam="2">  1       21 0.96204248E-01 0.43851564E+03</pdfrwt>
<totfact> 0.32850857E+03</totfact>
</mgrwt>
</event>
<event>
 4    1  0.8722554E-003  0.7236369E+03  0.7818608E-02  0.9677643E-01
         21   -1    0    0  501  502  0.00000000000E+00  0.00000000000E+00  0.41314347614E+03  0.41314347614E+03  0.00000000000E+00 0. -1.
         21   -1    0    0  502  503 -0.00000000000E+00 -0.00000000000E+00 -0.12763354539E+04  0.12763354539E+04  0.00000000000E+00 0. -1.
    9000005    1    1    2  501    0  0.46884647994E+03  0.37925361005E+03 -0.50196663136E+03  0.88069337541E+03  0.40000000000E+03 0. -1.
   -9000005    1    1    2    0  503 -0.46884647994E+03 -0.37925361005E+03 -0.36122534637E+03  0.80878555461E+03  0.40000000000E+03 0. -1.
<mgrwt>
<rscale>  2 0.72363687E+03</rscale>
<asrwt>0</asrwt>
<pdfrwt beam="1">  1       21 0.63560535E-01 0.72363687E+03</pdfrwt>
<pdfrwt beam="2">  1       21 0.19635930E+00 0.72363687E+03</pdfrwt>
<totfact> 0.23649743E+02</totfact>
</mgrwt>
</event>
<event>
 4    1  0.8722554E-003  0.4020514E+03  0.7818608E-02  0.1043072E+00
         21   -1    0    0  503  502  0.00000000000E+00  0.00000000000E+00  0.27450724596E+03  0.27450724596E+03  0.00000000000E+00 0. -1.
         21   -1    0    0  501  503 -0.00000000000E+00 -0.00000000000E+00 -0.73461365919E+03  0.73461365919E+03  0.00000000000E+00 0. -1.
    9000005    1    1    2  501    0 -0.15880409035E+02 -0.37324720262E+02 -0.45480281742E+03  0.60703453350E+03  0.40000000000E+03 0. -1.
   -9000005    1    1    2    0  502  0.15880409035E+02  0.37324720262E+02 -0.53035958171E+01  0.40208637164E+03  0.40000000000E+03 0. -1.
<mgrwt>
<rscale>  2 0.40205139E+03</rscale>
<asrwt>0</asrwt>
<pdfrwt beam="1">  1       21 0.42231884E-01 0.40205139E+03</pdfrwt>
<pdfrwt beam="2">  1       21 0.11301749E+00 0.40205139E+03</pdfrwt>
<totfact> 0.29156786E+03</totfact>
</mgrwt>
</event>
<event>
 4    1  0.8722554E-003  0.5161082E+03  0.7818608E-02  0.1009658E+00
         21   -1    0    0  501  502  0.00000000000E+00  0.00000000000E+00  0.17199870501E+04  0.17199870501E+04  0.00000000000E+00 0.  1.
         21   -1    0    0  502  503 -0.00000000000E+00 -0.00000000000E+00 -0.15968178847E+03  0.15968178847E+03  0.00000000000E+00 0.  1.
    9000005    1    1    2  501    0  0.20573456463E+03  0.25306314450E+03  0.61694014592E+03  0.80435241644E+03  0.40000000000E+03 0.  1.
   -9000005    1    1    2    0  503 -0.20573456463E+03 -0.25306314450E+03  0.94336511575E+03  0.10753164222E+04  0.40000000000E+03 0.  1.
<mgrwt>
<rscale>  2 0.51610819E+03</rscale>
<asrwt>0</asrwt>
<pdfrwt beam="1">  1       21 0.26461338E+00 0.51610819E+03</pdfrwt>
<pdfrwt beam="2">  1       21 0.24566430E-01 0.51610819E+03</pdfrwt>
<totfact> 0.67231161E+02</totfact>
</mgrwt>
</event>
<event>
 4    1  0.8722554E-003  0.6856629E+03  0.7818608E-02  0.9742070E-01
         21   -1    0    0  501  502  0.00000000000E+00  0.00000000000E+00  0.10100396400E+04  0.10100396400E+04  0.00000000000E+00 0. -1.
         21   -1    0    0  502  503 -0.00000000000E+00 -0.00000000000E+00 -0.47236320056E+03  0.47236320056E+03  0.00000000000E+00 0.  1.
    9000005    1    1    2  501    0 -0.54023085401E+03 -0.13521944731E+03  0.17923903983E+03  0.70870325804E+03  0.40000000000E+03 0.  1.
   -9000005    1    1    2    0  503  0.54023085401E+03  0.13521944731E+03  0.35843739963E+03  0.77369958253E+03  0.40000000000E+03 0. -1.
<mgrwt>
<rscale>  2 0.68566295E+03</rscale>
<asrwt>0</asrwt>
<pdfrwt beam="1">  1       21 0.15539071E+00 0.68566295E+03</pdfrwt>
<pdfrwt beam="2">  1       21 0.72671262E-01 0.68566295E+03</pdfrwt>
<totfact> 0.35134089E+02</totfact>
</mgrwt>
</event>
<event>
 4    1  0.8722554E-003  0.5229541E+03  0.7818608E-02  0.1007955E+00
         21   -1    0    0  501  502  0.00000000000E+00  0.00000000000E+00  0.16515368045E+04  0.16515368045E+04  0.00000000000E+00 0. -1.
         21   -1    0    0  502  503 -0.00000000000E+00 -0.00000000000E+00 -0.25300581336E+03  0.25300581336E+03  0.00000000000E+00 0.  1.
    9000005    1    1    2  501    0  0.74215145242E+02 -0.32859259587E+03  0.12590049692E+04  0.13632954538E+04  0.40000000000E+03 0. -1.
   -9000005    1    1    2    0  503 -0.74215145242E+02  0.32859259587E+03  0.13952602198E+03  0.54124716411E+03  0.40000000000E+03 0.  1.
<mgrwt>
<rscale>  2 0.52295409E+03</rscale>
<asrwt>0</asrwt>
<pdfrwt beam="1">  1       21 0.25408258E+00 0.52295409E+03</pdfrwt>
<pdfrwt beam="2">  1       21 0.38923972E-01 0.52295409E+03</pdfrwt>
<totfact> 0.30967602E+02</totfact>
</mgrwt>
</event>
<event>
 4    1  0.8722554E-003  0.5578149E+03  0.7818608E-02  0.9997011E-01
         21   -1    0    0  503  502  0.00000000000E+00  0.00000000000E+00  0.66272788899E+03  0.66272788899E+03  0.00000000000E+00 0. -1.
         21   -1    0    0  501  503 -0.00000000000E+00 -0.00000000000E+00 -0.50929349121E+03  0.50929349121E+03  0.00000000000E+00 0.  1.
    9000005    1    1    2  501    0  0.37415709984E+03  0.10565973596E+03 -0.87066899987E+02  0.56456900397E+03  0.40000000000E+03 0.  1.
   -9000005    1    1    2    0  502 -0.37415709984E+03 -0.10565973596E+03  0.24050129776E+03  0.60745237623E+03  0.40000000000E+03 0. -1.
<mgrwt>
<rscale>  2 0.55781495E+03</rscale>
<asrwt>0</asrwt>
<pdfrwt beam="1">  1       21 0.10195814E+00 0.55781495E+03</pdfrwt>
<pdfrwt beam="2">  1       21 0.78352845E-01 0.55781495E+03</pdfrwt>
<totfact> 0.92211483E+02</totfact>
</mgrwt>
</event>
<event>
 4    1  0.8722554E-003  0.4656516E+03  0.7818608E-02  0.1023155E+00
         21   -1    0    0  501  502  0.00000000000E+00  0.00000000000E+00  0.92788790296E+03  0.92788790296E+03  0.00000000000E+00 0.  1.
         21   -1    0    0  502  503 -0.00000000000E+00 -0.00000000000E+00 -0.26181659450E+03  0.26181659450E+03  0.00000000000E+00 0.  1.
    9000005    1    1    2  501    0  0.23667777131E+03  0.28549341968E+02  0.52803123499E+03  0.70402302340E+03  0.40000000000E+03 0.  1.
   -9000005    1    1    2    0  503 -0.23667777131E+03 -0.28549341968E+02  0.13804007348E+03  0.48568147406E+03  0.40000000000E+03 0.  1.
<mgrwt>
<rscale>  2 0.46565162E+03</rscale>
<asrwt>0</asrwt>
<pdfrwt beam="1">  1       21 0.14275198E+00 0.46565162E+03</pdfrwt>
<pdfrwt beam="2">  1       21 0.40279477E-01 0.46565162E+03</pdfrwt>
<totfact> 0.17170342E+03</totfact>
</mgrwt>
</event>
<event>
 4    1  0.8722554E-003  0.4100700E+03  0.7818608E-02  0.1040348E+00
         21   -1    0    0  503  502  0.00000000000E+00  0.00000000000E+00  0.68176670852E+03  0.68176670852E+03  0.00000000000E+00 0.  1.
         21   -1    0    0  501  503 -0.00000000000E+00 -0.00000000000E+00 -0.25609028663E+03  0.25609028663E+03  0.00000000000E+00 0.  1.
    9000005    1    1    2  501    0  0.89704035468E+02 -0.10514576631E+02  0.30287412250E+03  0.50979417845E+03  0.40000000000E+03 0.  1.
   -9000005    1    1    2    0  502 -0.89704035468E+02  0.10514576631E+02  0.12280229939E+03  0.42806281669E+03  0.40000000000E+03 0.  1.
<mgrwt>
<rscale>  2 0.41006996E+03</rscale>
<asrwt>0</asrwt>
<pdfrwt beam="1">  1       21 0.10488719E+00 0.41006996E+03</pdfrwt>
<pdfrwt beam="2">  1       21 0.39398506E-01 0.41006996E+03</pdfrwt>
<totfact> 0.40328995E+03</totfact>
</mgrwt>
</event>
<event>
 4    1  0.8722554E-003  0.4607395E+03  0.7818608E-02  0.1024567E+00
         21   -1    0    0  503  502  0.00000000000E+00  0.00000000000E+00  0.13330782376E+04  0.13330782376E+04  0.00000000000E+00 0. -1.
         21   -1    0    0  501  503 -0.00000000000E+00 -0.00000000000E+00 -0.18654493449E+03  0.18654493449E+03  0.00000000000E+00 0. -1.
    9000005    1    1    2  501    0  0.92475653226E+02 -0.20911519518E+03  0.86395364950E+03  0.97913064490E+03  0.40000000000E+03 0. -1.
   -9000005    1    1    2    0  502 -0.92475653226E+02  0.20911519518E+03  0.28257965356E+03  0.54049252715E+03  0.40000000000E+03 0. -1.
<mgrwt>
<rscale>  2 0.46073953E+03</rscale>
<asrwt>0</asrwt>
<pdfrwt beam="1">  1       21 0.20508895E+00 0.46073953E+03</pdfrwt>
<pdfrwt beam="2">  1       21 0.28699222E-01 0.46073953E+03</pdfrwt>
<totfact> 0.12045554E+03</totfact>
</mgrwt>
</event>
<event>
 4    1  0.8722554E-003  0.5069917E+03  0.7818608E-02  0.1011970E+00
         21   -1    0    0  501  502  0.00000000000E+00  0.00000000000E+00  0.80527223074E+03  0.80527223074E+03  0.00000000000E+00 0.  1.
         21   -1    0    0  502  503 -0.00000000000E+00 -0.00000000000E+00 -0.32058589760E+03  0.32058589760E+03  0.00000000000E+00 0. -1.
    9000005    1    1    2  501    0  0.31121255296E+03 -0.13687938619E+02  0.20529294211E+03  0.54697879745E+03  0.40000000000E+03 0.  1.
   -9000005    1    1    2    0  503 -0.31121255296E+03  0.13687938619E+02  0.27939339103E+03  0.57887933089E+03  0.40000000000E+03 0. -1.
<mgrwt>
<rscale>  2 0.50699173E+03</rscale>
<asrwt>0</asrwt>
<pdfrwt beam="1">  1       21 0.12388803E+00 0.50699173E+03</pdfrwt>
<pdfrwt beam="2">  1       21 0.49320908E-01 0.50699173E+03</pdfrwt>
<totfact> 0.16041284E+03</totfact>
</mgrwt>
</event>
<event>
 4    1  0.8722554E-003  0.4417425E+03  0.7818608E-02  0.1030214E+00
         21   -1    0    0  501  502  0.00000000000E+00  0.00000000000E+00  0.31965374649E+03  0.31965374649E+03  0.00000000000E+00 0. -1.
         21   -1    0    0  502  503 -0.00000000000E+00 -0.00000000000E+00 -0.92154912437E+03  0.92154912437E+03  0.00000000000E+00 0. -1.
    9000005    1    1    2  501    0 -0.97139652219E+02 -0.16031321751E+03  0.59626474485E+02  0.44574853472E+03  0.40000000000E+03 0. -1.
   -9000005    1    1    2    0  503  0.97139652219E+02  0.16031321751E+03 -0.66152185236E+03  0.79545433615E+03  0.40000000000E+03 0. -1.
<mgrwt>
<rscale>  2 0.44174250E+03</rscale>
<asrwt>0</asrwt>
<pdfrwt beam="1">  1       21 0.49177501E-01 0.44174250E+03</pdfrwt>
<pdfrwt beam="2">  1       21 0.14177679E+00 0.44174250E+03</pdfrwt>
<totfact> 0.11630778E+03</totfact>
</mgrwt>
</event>
<event>
 4    1  0.8722554E-003  0.4068568E+03  0.7818608E-02  0.1041431E+00
         21   -1    0    0  501  502  0.00000000000E+00  0.00000000000E+00  0.51073089882E+03  0.51073089882E+03  0.00000000000E+00 0.  1.
         21   -1    0    0  502  503 -0.00000000000E+00 -0.00000000000E+00 -0.44263622002E+03  0.44263622002E+03  0.00000000000E+00 0.  1.
    9000005    1    1    2  501    0 -0.27757734126E+02  0.69006826612E+02  0.28071710267E+03  0.49430205912E+03  0.40000000000E+03 0.  1.
   -9000005    1    1    2    0  503  0.27757734126E+02 -0.69006826612E+02 -0.21262242387E+03  0.45906505972E+03  0.40000000000E+03 0.  1.
<mgrwt>
<rscale>  2 0.40685677E+03</rscale>
<asrwt>0</asrwt>
<pdfrwt beam="1">  1       21 0.78573984E-01 0.40685677E+03</pdfrwt>
<pdfrwt beam="2">  1       21 0.68097880E-01 0.40685677E+03</pdfrwt>
<totfact> 0.24857061E+03</totfact>
</mgrwt>
</event>
<event>
 4    1  0.8722554E-003  0.4229088E+03  0.7818608E-02  0.1036124E+00
         21   -1    0    0  503  502  0.00000000000E+00  0.00000000000E+00  0.24387348792E+03  0.24387348792E+03  0.00000000000E+00 0.  1.
         21   -1    0    0  501  503 -0.00000000000E+00 -0.00000000000E+00 -0.82595842929E+03  0.82595842929E+03  0.00000000000E+00 0.  1.
    9000005    1    1    2  501    0 -0.89169553116E+02 -0.10440621706E+03 -0.11195630056E+03  0.43747694865E+03  0.40000000000E+03 0.  1.
   -9000005    1    1    2    0  502  0.89169553116E+02  0.10440621706E+03 -0.47012864081E+03  0.63235496857E+03  0.40000000000E+03 0.  1.
<mgrwt>
<rscale>  2 0.42290882E+03</rscale>
<asrwt>0</asrwt>
<pdfrwt beam="1">  1       21 0.37518997E-01 0.42290882E+03</pdfrwt>
<pdfrwt beam="2">  1       21 0.12707053E+00 0.42290882E+03</pdfrwt>
<totfact> 0.27405430E+03</totfact>
</mgrwt>
</event>
<event>
 4    1  0.8722554E-003  0.4245923E+03  0.7818608E-02  0.1035582E+00
         21   -1    0    0  503  502  0.00000000000E+00  0.00000000000E+00  0.33301957270E+03  0.33301957270E+03  0.00000000000E+00 0. -1.
         21   -1    0    0  501  503 -0.00000000000E+00 -0.00000000000E+00 -0.87765471600E+03  0.87765471600E+03  0.00000000000E+00 0. -1.
    9000005    1    1    2  501    0 -0.31652576600E+02  0.13884081954E+03 -0.64703581711E+03  0.77390826808E+03  0.40000000000E+03 0. -1.
   -9000005    1    1    2    0  502  0.31652576600E+02 -0.13884081954E+03  0.10240067381E+03  0.43676602062E+03  0.40000000000E+03 0. -1.
<mgrwt>
<rscale>  2 0.42459234E+03</rscale>
<asrwt>0</asrwt>
<pdfrwt beam="1">  1       21 0.51233781E-01 0.42459234E+03</pdfrwt>
<pdfrwt beam="2">  1       21 0.13502380E+00 0.42459234E+03</pdfrwt>
<totfact> 0.12219496E+03</totfact>
</mgrwt>
</event>
<event>
 4    1  0.8722554E-003  0.4191006E+03  0.7818608E-02  0.1037359E+00
         21   -1    0    0  503  502  0.00000000000E+00  0.00000000000E+00  0.42559665866E+03  0.42559665866E+03  0.00000000000E+00 0. -1.
         21   -1    0    0  501  503 -0.00000000000E+00 -0.00000000000E+00 -0.41304411833E+03  0.41304411833E+03  0.00000000000E+00 0. -1.
    9000005    1    1    2  501    0  0.99871559277E+02 -0.75306182043E+02 -0.57603278464E+01  0.41914022807E+03  0.40000000000E+03 0. -1.
   -9000005    1    1    2    0  502 -0.99871559277E+02  0.75306182043E+02  0.18312868168E+02  0.41950054892E+03  0.40000000000E+03 0. -1.
<mgrwt>
<rscale>  2 0.41910064E+03</rscale>
<asrwt>0</asrwt>
<pdfrwt beam="1">  1       21 0.65476409E-01 0.41910064E+03</pdfrwt>
<pdfrwt beam="2">  1       21 0.63545249E-01 0.41910064E+03</pdfrwt>
<totfact> 0.43554883E+03</totfact>
</mgrwt>
</event>
<event>
 4    1  0.8722554E-003  0.4828720E+03  0.7818608E-02  0.1018349E+00
         21   -1    0    0  503  502  0.00000000000E+00  0.00000000000E+00  0.73083461183E+03  0.73083461183E+03  0.00000000000E+00 0.  1.
         21   -1    0    0  501  503 -0.00000000000E+00 -0.00000000000E+00 -0.34613824635E+03  0.34613824635E+03  0.00000000000E+00 0. -1.
    9000005    1    1    2  501    0  0.18893399049E+03 -0.19356987025E+03  0.41679859403E+02  0.48466747169E+03  0.40000000000E+03 0. -1.
   -9000005    1    1    2    0  502 -0.18893399049E+03  0.19356987025E+03  0.34301650607E+03  0.59230538649E+03  0.40000000000E+03 0.  1.
<mgrwt>
<rscale>  2 0.48287198E+03</rscale>
<asrwt>0</asrwt>
<pdfrwt beam="1">  1       21 0.11243609E+00 0.48287198E+03</pdfrwt>
<pdfrwt beam="2">  1       21 0.53252038E-01 0.48287198E+03</pdfrwt>
<totfact> 0.17554164E+03</totfact>
</mgrwt>
</event>
<event>
 4    1  0.8722554E-003  0.4507812E+03  0.7818608E-02  0.1027489E+00
         21   -1    0    0  503  502  0.00000000000E+00  0.00000000000E+00  0.59956157511E+03  0.59956157511E+03  0.00000000000E+00 0.  1.
         21   -1    0    0  501  503 -0.00000000000E+00 -0.00000000000E+00 -0.41402396026E+03  0.41402396026E+03  0.00000000000E+00 0. -1.
    9000005    1    1    2  501    0  0.11986183715E+03 -0.16981404717E+03 -0.12307909299E+03  0.46728164286E+03  0.40000000000E+03 0. -1.
   -9000005    1    1    2    0  502 -0.11986183715E+03  0.16981404717E+03  0.30861670784E+03  0.54630389252E+03  0.40000000000E+03 0.  1.
<mgrwt>
<rscale>  2 0.45078118E+03</rscale>
<asrwt>0</asrwt>
<pdfrwt beam="1">  1       21 0.92240242E-01 0.45078118E+03</pdfrwt>
<pdfrwt beam="2">  1       21 0.63695994E-01 0.45078118E+03</pdfrwt>
<totfact> 0.19488758E+03</totfact>
</mgrwt>
</event>
<event>
 4    1  0.8722554E-003  0.4049998E+03  0.7818608E-02  0.1042062E+00
         21   -1    0    0  503  502  0.00000000000E+00  0.00000000000E+00  0.33503873484E+03  0.33503873484E+03  0.00000000000E+00 0.  1.
         21   -1    0    0  501  503 -0.00000000000E+00 -0.00000000000E+00 -0.56968433291E+03  0.56968433291E+03  0.00000000000E+00 0.  1.
    9000005    1    1    2  501    0 -0.63430840303E+02 -0.11752611177E+01 -0.28696118485E+03  0.49635831246E+03  0.40000000000E+03 0.  1.
   -9000005    1    1    2    0  502  0.63430840303E+02  0.11752611177E+01  0.52315586774E+02  0.40836475529E+03  0.40000000000E+03 0.  1.
<mgrwt>
<rscale>  2 0.40499982E+03</rscale>
<asrwt>0</asrwt>
<pdfrwt beam="1">  1       21 0.51544421E-01 0.40499982E+03</pdfrwt>
<pdfrwt beam="2">  1       21 0.87643743E-01 0.40499982E+03</pdfrwt>
<totfact> 0.35444607E+03</totfact>
</mgrwt>
</event>
<event>
 4    1  0.8722554E-003  0.6292826E+03  0.7818608E-02  0.9846450E-01
         21   -1    0    0  503  502  0.00000000000E+00  0.00000000000E+00  0.29918982839E+03  0.29918982839E+03  0.00000000000E+00 0.  1.
         21   -1    0    0  501  503 -0.00000000000E+00 -0.00000000000E+00 -0.13315836935E+04  0.13315836935E+04  0.00000000000E+00 0. -1.
    9000005    1    1    2  501    0 -0.12464726955E+02 -0.48563486776E+03 -0.57947959118E+03  0.85544911643E+03  0.40000000000E+03 0. -1.
   -9000005    1    1    2    0  502  0.12464726955E+02  0.48563486776E+03 -0.45291427396E+03  0.77532440550E+03  0.40000000000E+03 0.  1.
<mgrwt>
<rscale>  2 0.62928260E+03</rscale>
<asrwt>0</asrwt>
<pdfrwt beam="1">  1       21 0.46029204E-01 0.62928260E+03</pdfrwt>
<pdfrwt beam="2">  1       21 0.20485903E+00 0.62928260E+03</pdfrwt>
<totfact> 0.43100152E+02</totfact>
</mgrwt>
</event>
<event>
 4    1  0.8722554E-003  0.4458969E+03  0.7818608E-02  0.1028953E+00
         21   -1    0    0  501  502  0.00000000000E+00  0.00000000000E+00  0.88961806816E+03  0.88961806816E+03  0.00000000000E+00 0.  1.
         21   -1    0    0  502  503 -0.00000000000E+00 -0.00000000000E+00 -0.23861920494E+03  0.23861920494E+03  0.00000000000E+00 0.  1.
    9000005    1    1    2  501    0  0.30164054018E+02 -0.19471555408E+03  0.46752709993E+03  0.64606935102E+03  0.40000000000E+03 0.  1.
   -9000005    1    1    2    0  503 -0.30164054018E+02  0.19471555408E+03  0.18347176328E+03  0.48216792208E+03  0.40000000000E+03 0.  1.
<mgrwt>
<rscale>  2 0.44589687E+03</rscale>
<asrwt>0</asrwt>
<pdfrwt beam="1">  1       21 0.13686432E+00 0.44589687E+03</pdfrwt>
<pdfrwt beam="2">  1       21 0.36710647E-01 0.44589687E+03</pdfrwt>
<totfact> 0.23407579E+03</totfact>
</mgrwt>
</event>
<event>
 4    1  0.8722554E-003  0.4383285E+03  0.7818608E-02  0.1031261E+00
         21   -1    0    0  501  502  0.00000000000E+00  0.00000000000E+00  0.12148525506E+03  0.12148525506E+03  0.00000000000E+00 0. -1.
         21   -1    0    0  502  503 -0.00000000000E+00 -0.00000000000E+00 -0.15824656479E+04  0.15824656479E+04  0.00000000000E+00 0.  1.
    9000005    1    1    2  501    0  0.10035291916E+03  0.14852986882E+03 -0.75127447510E+03  0.86979604923E+03  0.40000000000E+03 0. -1.
   -9000005    1    1    2    0  503 -0.10035291916E+03 -0.14852986882E+03 -0.70970591770E+03  0.83415485369E+03  0.40000000000E+03 0.  1.
<mgrwt>
<rscale>  2 0.43832845E+03</rscale>
<asrwt>0</asrwt>
<pdfrwt beam="1">  1       21 0.18690039E-01 0.43832845E+03</pdfrwt>
<pdfrwt beam="2">  1       21 0.24345626E+00 0.43832845E+03</pdfrwt>
<totfact> 0.15889290E+03</totfact>
</mgrwt>
</event>
<event>
 4    1  0.8722554E-003  0.4752636E+03  0.7818608E-02  0.1020445E+00
         21   -1    0    0  503  502  0.00000000000E+00  0.00000000000E+00  0.80860269642E+03  0.80860269642E+03  0.00000000000E+00 0.  1.
         21   -1    0    0  501  503 -0.00000000000E+00 -0.00000000000E+00 -0.29396638791E+03  0.29396638791E+03  0.00000000000E+00 0. -1.
    9000005    1    1    2  501    0  0.18789514830E+03  0.17484540137E+03  0.13435139219E+03  0.49388844663E+03  0.40000000000E+03 0. -1.
   -9000005    1    1    2    0  502 -0.18789514830E+03 -0.17484540137E+03  0.38028491632E+03  0.60868063770E+03  0.40000000000E+03 0.  1.
<mgrwt>
<rscale>  2 0.47526361E+03</rscale>
<asrwt>0</asrwt>
<pdfrwt beam="1">  1       21 0.12440041E+00 0.47526361E+03</pdfrwt>
<pdfrwt beam="2">  1       21 0.45225599E-01 0.47526361E+03</pdfrwt>
<totfact> 0.19279892E+03</totfact>
</mgrwt>
</event>
<event>
 4    1  0.8722554E-003  0.5236752E+03  0.7818608E-02  0.1007778E+00
         21   -1    0    0  501  502  0.00000000000E+00  0.00000000000E+00  0.78473283526E+03  0.78473283526E+03  0.00000000000E+00 0. -1.
         21   -1    0    0  502  503 -0.00000000000E+00 -0.00000000000E+00 -0.38214516252E+03  0.38214516252E+03  0.00000000000E+00 0. -1.
    9000005    1    1    2  501    0 -0.14102272707E+03 -0.30716161387E+03  0.37191456401E+03  0.64230530864E+03  0.40000000000E+03 0.  1.
   -9000005    1    1    2    0  503  0.14102272707E+03  0.30716161387E+03  0.30673108732E+02  0.52457268913E+03  0.40000000000E+03 0.  1.
<mgrwt>
<rscale>  2 0.52367515E+03</rscale>
<asrwt>0</asrwt>
<pdfrwt beam="1">  1       21 0.12072813E+00 0.52367515E+03</pdfrwt>
<pdfrwt beam="2">  1       21 0.58791564E-01 0.52367515E+03</pdfrwt>
<totfact> 0.11665586E+03</totfact>
</mgrwt>
</event>
<event>
 4    1  0.8722554E-003  0.4120047E+03  0.7818608E-02  0.1039700E+00
         21   -1    0    0  503  502  0.00000000000E+00  0.00000000000E+00  0.55817591241E+03  0.55817591241E+03  0.00000000000E+00 0. -1.
         21   -1    0    0  501  503 -0.00000000000E+00 -0.00000000000E+00 -0.35253208146E+03  0.35253208146E+03  0.00000000000E+00 0. -1.
    9000005    1    1    2  501    0 -0.53536568986E+02 -0.82956091159E+02 -0.65935753791E+02  0.41724740971E+03  0.40000000000E+03 0. -1.
   -9000005    1    1    2    0  502  0.53536568986E+02  0.82956091159E+02  0.27157958474E+03  0.49346058417E+03  0.40000000000E+03 0. -1.
<mgrwt>
<rscale>  2 0.41200471E+03</rscale>
<asrwt>0</asrwt>
<pdfrwt beam="1">  1       21 0.85873217E-01 0.41200471E+03</pdfrwt>
<pdfrwt beam="2">  1       21 0.54235705E-01 0.41200471E+03</pdfrwt>
<totfact> 0.33252649E+03</totfact>
</mgrwt>
</event>
<event>
 4    1  0.8722554E-003  0.4853191E+03  0.7818608E-02  0.1017683E+00
         21   -1    0    0  503  502  0.00000000000E+00  0.00000000000E+00  0.11835699420E+04  0.11835699420E+04  0.00000000000E+00 0. -1.
         21   -1    0    0  501  503 -0.00000000000E+00 -0.00000000000E+00 -0.22873731579E+03  0.22873731579E+03  0.00000000000E+00 0. -1.
    9000005    1    1    2  501    0 -0.18121148259E+03  0.20663256612E+03  0.22281792407E+03  0.53402476169E+03  0.40000000000E+03 0. -1.
   -9000005    1    1    2    0  502  0.18121148259E+03 -0.20663256612E+03  0.73201470213E+03  0.87828249609E+03  0.40000000000E+03 0. -1.
<mgrwt>
<rscale>  2 0.48531909E+03</rscale>
<asrwt>0</asrwt>
<pdfrwt beam="1">  1       21 0.18208768E+00 0.48531909E+03</pdfrwt>
<pdfrwt beam="2">  1       21 0.35190357E-01 0.48531909E+03</pdfrwt>
<totfact> 0.11356750E+03</totfact>
</mgrwt>
</event>
<event>
 4    1  0.8722554E-003  0.4467828E+03  0.7818608E-02  0.1028686E+00
         21   -1    0    0  501  502  0.00000000000E+00  0.00000000000E+00  0.15586121604E+03  0.15586121604E+03  0.00000000000E+00 0. -1.
         21   -1    0    0  502  503 -0.00000000000E+00 -0.00000000000E+00 -0.12980638427E+04  0.12980638427E+04  0.00000000000E+00 0. -1.
    9000005    1    1    2  501    0 -0.18706157831E+03  0.67991668452E+02 -0.65512671512E+03  0.79297283303E+03  0.40000000000E+03 0. -1.
   -9000005    1    1    2    0  503  0.18706157831E+03 -0.67991668452E+02 -0.48707591151E+03  0.66095222568E+03  0.40000000000E+03 0. -1.
<mgrwt>
<rscale>  2 0.44678283E+03</rscale>
<asrwt>0</asrwt>
<pdfrwt beam="1">  1       21 0.23978648E-01 0.44678283E+03</pdfrwt>
<pdfrwt beam="2">  1       21 0.19970213E+00 0.44678283E+03</pdfrwt>
<totfact> 0.18704124E+03</totfact>
</mgrwt>
</event>
<event>
 4    1  0.8722554E-003  0.4263209E+03  0.7818608E-02  0.1035029E+00
         21   -1    0    0  501  502  0.00000000000E+00  0.00000000000E+00  0.46000108714E+03  0.46000108714E+03  0.00000000000E+00 0.  1.
         21   -1    0    0  502  503 -0.00000000000E+00 -0.00000000000E+00 -0.49338892420E+03  0.49338892420E+03  0.00000000000E+00 0.  1.
    9000005    1    1    2  501    0 -0.11683482964E+03  0.89995217702E+02  0.19606284125E+03  0.46924423741E+03  0.40000000000E+03 0.  1.
   -9000005    1    1    2    0  503  0.11683482964E+03 -0.89995217702E+02 -0.22945067831E+03  0.48414577392E+03  0.40000000000E+03 0.  1.
<mgrwt>
<rscale>  2 0.42632091E+03</rscale>
<asrwt>0</asrwt>
<pdfrwt beam="1">  1       21 0.70769398E-01 0.42632091E+03</pdfrwt>
<pdfrwt beam="2">  1       21 0.75905988E-01 0.42632091E+03</pdfrwt>
<totfact> 0.24489131E+03</totfact>
</mgrwt>
</event>
<event>
 4    1  0.8722554E-003  0.4068166E+03  0.7818608E-02  0.1041445E+00
         21   -1    0    0  503  502  0.00000000000E+00  0.00000000000E+00  0.17177056448E+04  0.17177056448E+04  0.00000000000E+00 0.  1.
         21   -1    0    0  501  503 -0.00000000000E+00 -0.00000000000E+00 -0.10063020927E+03  0.10063020927E+03  0.00000000000E+00 0.  1.
    9000005    1    1    2  501    0 -0.72645890110E+02 -0.14909662320E+02  0.62101740546E+03  0.74240308543E+03  0.40000000000E+03 0.  1.
   -9000005    1    1    2    0  502  0.72645890110E+02  0.14909662320E+02  0.99605803011E+03  0.10759327687E+04  0.40000000000E+03 0.  1.
<mgrwt>
<rscale>  2 0.40681657E+03</rscale>
<asrwt>0</asrwt>
<pdfrwt beam="1">  1       21 0.26426239E+00 0.40681657E+03</pdfrwt>
<pdfrwt beam="2">  1       21 0.15481572E-01 0.40681657E+03</pdfrwt>
<totfact> 0.17146430E+03</totfact>
</mgrwt>
</event>
<event>
 4    1  0.8722554E-003  0.5239758E+03  0.7818608E-02  0.1007704E+00
         21   -1    0    0  501  502  0.00000000000E+00  0.00000000000E+00  0.76799389699E+03  0.76799389699E+03  0.00000000000E+00 0. -1.
         21   -1    0    0  502  503 -0.00000000000E+00 -0.00000000000E+00 -0.36659253822E+03  0.36659253822E+03  0.00000000000E+00 0. -1.
    9000005    1    1    2  501    0 -0.28691815561E+03 -0.17952316434E+03  0.29008942887E+03  0.59891775003E+03  0.40000000000E+03 0. -1.
   -9000005    1    1    2    0  503  0.28691815561E+03  0.17952316434E+03  0.11131192989E+03  0.53566868518E+03  0.40000000000E+03 0. -1.
<mgrwt>
<rscale>  2 0.52397576E+03</rscale>
<asrwt>0</asrwt>
<pdfrwt beam="1">  1       21 0.11815291E+00 0.52397576E+03</pdfrwt>
<pdfrwt beam="2">  1       21 0.56398852E-01 0.52397576E+03</pdfrwt>
<totfact> 0.13495057E+03</totfact>
</mgrwt>
</event>
<event>
 4    1  0.8722554E-003  0.4544099E+03  0.7818608E-02  0.1026415E+00
         21   -1    0    0  501  502  0.00000000000E+00  0.00000000000E+00  0.15187033726E+03  0.15187033726E+03  0.00000000000E+00 0. -1.
         21   -1    0    0  502  503 -0.00000000000E+00 -0.00000000000E+00 -0.15757520694E+04  0.15757520694E+04  0.00000000000E+00 0. -1.
    9000005    1    1    2  501    0 -0.11294483570E+03 -0.18366223532E+03 -0.39203766436E+03  0.60015154992E+03  0.40000000000E+03 0. -1.
   -9000005    1    1    2    0  503  0.11294483570E+03  0.18366223532E+03 -0.10318440678E+04  0.11274708567E+04  0.40000000000E+03 0. -1.
<mgrwt>
<rscale>  2 0.45440989E+03</rscale>
<asrwt>0</asrwt>
<pdfrwt beam="1">  1       21 0.23364667E-01 0.45440989E+03</pdfrwt>
<pdfrwt beam="2">  1       21 0.24242339E+00 0.45440989E+03</pdfrwt>
<totfact> 0.10442486E+03</totfact>
</mgrwt>
</event>
<event>
 4    1  0.8722554E-003  0.4217236E+03  0.7818608E-02  0.1036507E+00
         21   -1    0    0  503  502  0.00000000000E+00  0.00000000000E+00  0.31029339323E+03  0.31029339323E+03  0.00000000000E+00 0. -1.
         21   -1    0    0  501  503 -0.00000000000E+00 -0.00000000000E+00 -0.57489095338E+03  0.57489095338E+03  0.00000000000E+00 0. -1.
    9000005    1    1    2  501    0  0.94143279033E+02 -0.94804304326E+02 -0.10808200428E+03  0.43535334242E+03  0.40000000000E+03 0.  1.
   -9000005    1    1    2    0  502 -0.94143279033E+02  0.94804304326E+02 -0.15651555587E+03  0.44983100419E+03  0.40000000000E+03 0.  1.
<mgrwt>
<rscale>  2 0.42172362E+03</rscale>
<asrwt>0</asrwt>
<pdfrwt beam="1">  1       21 0.47737445E-01 0.42172362E+03</pdfrwt>
<pdfrwt beam="2">  1       21 0.88444762E-01 0.42172362E+03</pdfrwt>
<totfact> 0.40569623E+03</totfact>
</mgrwt>
</event>
<event>
 4    1  0.8722554E-003  0.4010005E+03  0.7818608E-02  0.1043434E+00
         21   -1    0    0  501  502  0.00000000000E+00  0.00000000000E+00  0.24068691445E+03  0.24068691445E+03  0.00000000000E+00 0.  1.
         21   -1    0    0  502  503 -0.00000000000E+00 -0.00000000000E+00 -0.72738136319E+03  0.72738136319E+03  0.00000000000E+00 0.  1.
    9000005    1    1    2  501    0  0.18626667155E+02 -0.21318056598E+02 -0.10515708358E+03  0.41455931360E+03  0.40000000000E+03 0.  1.
   -9000005    1    1    2    0  503 -0.18626667155E+02  0.21318056598E+02 -0.38153736515E+03  0.55350896404E+03  0.40000000000E+03 0.  1.
<mgrwt>
<rscale>  2 0.40100051E+03</rscale>
<asrwt>0</asrwt>
<pdfrwt beam="1">  1       21 0.37028757E-01 0.40100051E+03</pdfrwt>
<pdfrwt beam="2">  1       21 0.11190482E+00 0.40100051E+03</pdfrwt>
<totfact> 0.39152308E+03</totfact>
</mgrwt>
</event>
<event>
 4    1  0.8722554E-003  0.4817661E+03  0.7818608E-02  0.1018651E+00
         21   -1    0    0  501  502  0.00000000000E+00  0.00000000000E+00  0.97028151062E+03  0.97028151062E+03  0.00000000000E+00 0. -1.
         21   -1    0    0  502  503 -0.00000000000E+00 -0.00000000000E+00 -0.31747862425E+03  0.31747862425E+03  0.00000000000E+00 0.  1.
    9000005    1    1    2  501    0  0.23113767560E+03  0.13665281600E+03  0.64610577009E+03  0.80594744453E+03  0.40000000000E+03 0. -1.
   -9000005    1    1    2    0  503 -0.23113767560E+03 -0.13665281600E+03  0.66971162768E+01  0.48181269034E+03  0.40000000000E+03 0.  1.
<mgrwt>
<rscale>  2 0.48176614E+03</rscale>
<asrwt>0</asrwt>
<pdfrwt beam="1">  1       21 0.14927408E+00 0.48176614E+03</pdfrwt>
<pdfrwt beam="2">  1       21 0.48842866E-01 0.48176614E+03</pdfrwt>
<totfact> 0.10102378E+03</totfact>
</mgrwt>
</event>
<event>
 4    1  0.8722554E-003  0.4555318E+03  0.7818608E-02  0.1026085E+00
         21   -1    0    0  503  502  0.00000000000E+00  0.00000000000E+00  0.17059507847E+03  0.17059507847E+03  0.00000000000E+00 0.  1.
         21   -1    0    0  501  503 -0.00000000000E+00 -0.00000000000E+00 -0.13834278222E+04  0.13834278222E+04  0.00000000000E+00 0.  1.
    9000005    1    1    2  501    0  0.18082921324E+03  0.12169644895E+03 -0.87641624919E+03  0.98773208508E+03  0.40000000000E+03 0.  1.
   -9000005    1    1    2    0  502 -0.18082921324E+03 -0.12169644895E+03 -0.33641649458E+03  0.56629081563E+03  0.40000000000E+03 0.  1.
<mgrwt>
<rscale>  2 0.45553181E+03</rscale>
<asrwt>0</asrwt>
<pdfrwt beam="1">  1       21 0.26245397E-01 0.45553181E+03</pdfrwt>
<pdfrwt beam="2">  1       21 0.21283504E+00 0.45553181E+03</pdfrwt>
<totfact> 0.12810212E+03</totfact>
</mgrwt>
</event>
<event>
 4    1  0.8722554E-003  0.4447204E+03  0.7818608E-02  0.1029308E+00
         21   -1    0    0  503  502  0.00000000000E+00  0.00000000000E+00  0.99161866588E+03  0.99161866588E+03  0.00000000000E+00 0. -1.
         21   -1    0    0  501  503 -0.00000000000E+00 -0.00000000000E+00 -0.21525573301E+03  0.21525573301E+03  0.00000000000E+00 0. -1.
    9000005    1    1    2  501    0 -0.19386509150E+03  0.13875262779E+02  0.22465360003E+03  0.49824234729E+03  0.40000000000E+03 0.  1.
   -9000005    1    1    2    0  502  0.19386509150E+03 -0.13875262779E+02  0.55170933283E+03  0.70863205160E+03  0.40000000000E+03 0.  1.
<mgrwt>
<rscale>  2 0.44472036E+03</rscale>
<asrwt>0</asrwt>
<pdfrwt beam="1">  1       21 0.15255672E+00 0.44472036E+03</pdfrwt>
<pdfrwt beam="2">  1       21 0.33116267E-01 0.44472036E+03</pdfrwt>
<totfact> 0.21551070E+03</totfact>
</mgrwt>
</event>
<event>
 4    1  0.8722554E-003  0.6567858E+03  0.7818608E-02  0.9794129E-01
         21   -1    0    0  503  502  0.00000000000E+00  0.00000000000E+00  0.34177236263E+03  0.34177236263E+03  0.00000000000E+00 0.  1.
         21   -1    0    0  501  503 -0.00000000000E+00 -0.00000000000E+00 -0.14264184729E+04  0.14264184729E+04  0.00000000000E+00 0.  1.
    9000005    1    1    2  501    0  0.39573524810E+03  0.33876427191E+03 -0.84234581333E+03  0.10681358002E+04  0.40000000000E+03 0.  1.
   -9000005    1    1    2    0  502 -0.39573524810E+03 -0.33876427191E+03 -0.24230029690E+03  0.70005503525E+03  0.40000000000E+03 0.  1.
<mgrwt>
<rscale>  2 0.65678582E+03</rscale>
<asrwt>0</asrwt>
<pdfrwt beam="1">  1       21 0.52580364E-01 0.65678582E+03</pdfrwt>
<pdfrwt beam="2">  1       21 0.21944899E+00 0.65678582E+03</pdfrwt>
<totfact> 0.25737064E+02</totfact>
</mgrwt>
</event>
<event>
 4    1  0.8722554E-003  0.4616456E+03  0.7818608E-02  0.1024305E+00
         21   -1    0    0  501  502  0.00000000000E+00  0.00000000000E+00  0.19832825049E+03  0.19832825049E+03  0.00000000000E+00 0.  1.
         21   -1    0    0  502  503 -0.00000000000E+00 -0.00000000000E+00 -0.11431404958E+04  0.11431404958E+04  0.00000000000E+00 0. -1.
    9000005    1    1    2  501    0 -0.14843355395E+03 -0.17630701883E+03 -0.30812645110E+03  0.55503026467E+03  0.40000000000E+03 0.  1.
   -9000005    1    1    2    0  503  0.14843355395E+03  0.17630701883E+03 -0.63668579423E+03  0.78643848164E+03  0.40000000000E+03 0. -1.
<mgrwt>
<rscale>  2 0.46164563E+03</rscale>
<asrwt>0</asrwt>
<pdfrwt beam="1">  1       21 0.30512040E-01 0.46164563E+03</pdfrwt>
<pdfrwt beam="2">  1       21 0.17586776E+00 0.46164563E+03</pdfrwt>
<totfact> 0.16908200E+03</totfact>
</mgrwt>
</event>
<event>
 4    1  0.8722554E-003  0.4442840E+03  0.7818608E-02  0.1029440E+00
         21   -1    0    0  501  502  0.00000000000E+00  0.00000000000E+00  0.15978216578E+03  0.15978216578E+03  0.00000000000E+00 0. -1.
         21   -1    0    0  502  503 -0.00000000000E+00 -0.00000000000E+00 -0.12499110185E+04  0.12499110185E+04  0.00000000000E+00 0. -1.
    9000005    1    1    2  501    0  0.12119375126E+03 -0.15066641444E+03 -0.62111818259E+03  0.76365966931E+03  0.40000000000E+03 0. -1.
   -9000005    1    1    2    0  503 -0.12119375126E+03  0.15066641444E+03 -0.46901067018E+03  0.64603351502E+03  0.40000000000E+03 0. -1.
<mgrwt>
<rscale>  2 0.44428402E+03</rscale>
<asrwt>0</asrwt>
<pdfrwt beam="1">  1       21 0.24581871E-01 0.44428402E+03</pdfrwt>
<pdfrwt beam="2">  1       21 0.19229401E+00 0.44428402E+03</pdfrwt>
<totfact> 0.20017029E+03</totfact>
</mgrwt>
</event>
<event>
 4    1  0.8722554E-003  0.4048887E+03  0.7818608E-02  0.1042100E+00
         21   -1    0    0  501  502  0.00000000000E+00  0.00000000000E+00  0.20668232594E+04  0.20668232594E+04  0.00000000000E+00 0.  1.
         21   -1    0    0  502  503 -0.00000000000E+00 -0.00000000000E+00 -0.13999171970E+03  0.13999171970E+03  0.00000000000E+00 0.  1.
    9000005    1    1    2  501    0  0.12978629407E+02  0.61370952186E+02  0.16898354008E+04  0.17376646744E+04  0.40000000000E+03 0.  1.
   -9000005    1    1    2    0  503 -0.12978629407E+02 -0.61370952186E+02  0.23699613883E+03  0.46915030471E+03  0.40000000000E+03 0.  1.
<mgrwt>
<rscale>  2 0.40488867E+03</rscale>
<asrwt>0</asrwt>
<pdfrwt beam="1">  1       21 0.31797279E+00 0.40488867E+03</pdfrwt>
<pdfrwt beam="2">  1       21 0.21537189E-01 0.40488867E+03</pdfrwt>
<totfact> 0.43900961E+02</totfact>
</mgrwt>
</event>
<event>
 4    1  0.8722554E-003  0.4338637E+03  0.7818608E-02  0.1032646E+00
         21   -1    0    0  501  502  0.00000000000E+00  0.00000000000E+00  0.67679704459E+03  0.67679704459E+03  0.00000000000E+00 0. -1.
         21   -1    0    0  502  503 -0.00000000000E+00 -0.00000000000E+00 -0.31927422008E+03  0.31927422008E+03  0.00000000000E+00 0.  1.
    9000005    1    1    2  501    0 -0.30887689455E+02  0.16517755284E+03 -0.23982860657E-01  0.43386365819E+03  0.40000000000E+03 0.  1.
   -9000005    1    1    2    0  503  0.30887689455E+02 -0.16517755284E+03  0.35754680737E+03  0.56220760648E+03  0.40000000000E+03 0.  1.
<mgrwt>
<rscale>  2 0.43386366E+03</rscale>
<asrwt>0</asrwt>
<pdfrwt beam="1">  1       21 0.10412262E+00 0.43386366E+03</pdfrwt>
<pdfrwt beam="2">  1       21 0.49119111E-01 0.43386366E+03</pdfrwt>
<totfact> 0.25690938E+03</totfact>
</mgrwt>
</event>
<event>
 4    1  0.8722554E-003  0.4032814E+03  0.7818608E-02  0.1042649E+00
         21   -1    0    0  503  502  0.00000000000E+00  0.00000000000E+00  0.39295161340E+03  0.39295161340E+03  0.00000000000E+00 0.  1.
         21   -1    0    0  501  503 -0.00000000000E+00 -0.00000000000E+00 -0.61424694794E+03  0.61424694794E+03  0.00000000000E+00 0.  1.
    9000005    1    1    2  501    0 -0.33288354366E+02  0.39087213688E+02 -0.39827064267E+03  0.56679399223E+03  0.40000000000E+03 0. -1.
   -9000005    1    1    2    0  502  0.33288354366E+02 -0.39087213688E+02  0.17697530813E+03  0.44040456911E+03  0.40000000000E+03 0. -1.
<mgrwt>
<rscale>  2 0.40328145E+03</rscale>
<asrwt>0</asrwt>
<pdfrwt beam="1">  1       21 0.60454095E-01 0.40328145E+03</pdfrwt>
<pdfrwt beam="2">  1       21 0.94499530E-01 0.40328145E+03</pdfrwt>
<totfact> 0.21031053E+03</totfact>
</mgrwt>
</event>
<event>
 4    1  0.8722554E-003  0.5756302E+03  0.7818608E-02  0.9957297E-01
         21   -1    0    0  503  502  0.00000000000E+00  0.00000000000E+00  0.14295009860E+04  0.14295009860E+04  0.00000000000E+00 0. -1.
         21   -1    0    0  501  503 -0.00000000000E+00 -0.00000000000E+00 -0.23179475903E+03  0.23179475903E+03  0.00000000000E+00 0. -1.
    9000005    1    1    2  501    0 -0.49923647917E+01  0.41391445272E+03  0.59761285317E+03  0.82975371054E+03  0.40000000000E+03 0. -1.
   -9000005    1    1    2    0  502  0.49923647917E+01 -0.41391445272E+03  0.60009337381E+03  0.83154203452E+03  0.40000000000E+03 0. -1.
<mgrwt>
<rscale>  2 0.57563017E+03</rscale>
<asrwt>0</asrwt>
<pdfrwt beam="1">  1       21 0.21992322E+00 0.57563017E+03</pdfrwt>
<pdfrwt beam="2">  1       21 0.35660733E-01 0.57563017E+03</pdfrwt>
<totfact> 0.59448572E+02</totfact>
</mgrwt>
</event>
<event>
 4    1  0.8722554E-003  0.4020484E+03  0.7818608E-02  0.1043073E+00
         21   -1    0    0  503  502  0.00000000000E+00  0.00000000000E+00  0.21792839171E+03  0.21792839171E+03  0.00000000000E+00 0.  1.
         21   -1    0    0  501  503 -0.00000000000E+00 -0.00000000000E+00 -0.76632404231E+03  0.76632404231E+03  0.00000000000E+00 0.  1.
    9000005    1    1    2  501    0  0.18668084161E+02  0.35978503136E+02 -0.18602620527E+03  0.44299966038E+03  0.40000000000E+03 0.  1.
   -9000005    1    1    2    0  502 -0.18668084161E+02 -0.35978503136E+02 -0.36236944534E+03  0.54125277364E+03  0.40000000000E+03 0.  1.
<mgrwt>
<rscale>  2 0.40204844E+03</rscale>
<asrwt>0</asrwt>
<pdfrwt beam="1">  1       21 0.33527445E-01 0.40204844E+03</pdfrwt>
<pdfrwt beam="2">  1       21 0.11789601E+00 0.40204844E+03</pdfrwt>
<totfact> 0.42003431E+03</totfact>
</mgrwt>
</event>
<event>
 4    1  0.8722554E-003  0.4143208E+03  0.7818608E-02  0.1038931E+00
         21   -1    0    0  501  502  0.00000000000E+00  0.00000000000E+00  0.33004862987E+03  0.33004862987E+03  0.00000000000E+00 0. -1.
         21   -1    0    0  502  503 -0.00000000000E+00 -0.00000000000E+00 -0.90701251874E+03  0.90701251874E+03  0.00000000000E+00 0. -1.
    9000005    1    1    2  501    0 -0.72693008353E+02  0.79858786855E+02  0.11549365010E+03  0.43011682426E+03  0.40000000000E+03 0. -1.
   -9000005    1    1    2    0  503  0.72693008353E+02 -0.79858786855E+02 -0.69245753898E+03  0.80694432435E+03  0.40000000000E+03 0. -1.
<mgrwt>
<rscale>  2 0.41432077E+03</rscale>
<asrwt>0</asrwt>
<pdfrwt beam="1">  1       21 0.50776712E-01 0.41432077E+03</pdfrwt>
<pdfrwt beam="2">  1       21 0.13954039E+00 0.41432077E+03</pdfrwt>
<totfact> 0.11472948E+03</totfact>
</mgrwt>
</event>
<event>
 4    1  0.8722554E-003  0.4258501E+03  0.7818608E-02  0.1035179E+00
         21   -1    0    0  503  502  0.00000000000E+00  0.00000000000E+00  0.27765285901E+03  0.27765285901E+03  0.00000000000E+00 0.  1.
         21   -1    0    0  501  503 -0.00000000000E+00 -0.00000000000E+00 -0.67392848685E+03  0.67392848685E+03  0.00000000000E+00 0. -1.
    9000005    1    1    2  501    0  0.12596652361E+03 -0.74032283416E+02 -0.28168644549E+03  0.51058358535E+03  0.40000000000E+03 0. -1.
   -9000005    1    1    2    0  502 -0.12596652361E+03  0.74032283416E+02 -0.11458918236E+03  0.44099776051E+03  0.40000000000E+03 0.  1.
<mgrwt>
<rscale>  2 0.42585014E+03</rscale>
<asrwt>0</asrwt>
<pdfrwt beam="1">  1       21 0.42715825E-01 0.42585014E+03</pdfrwt>
<pdfrwt beam="2">  1       21 0.10368131E+00 0.42585014E+03</pdfrwt>
<totfact> 0.34905047E+03</totfact>
</mgrwt>
</event>
<event>
 4    1  0.8722554E-003  0.4988555E+03  0.7818608E-02  0.1014078E+00
         21   -1    0    0  503  502  0.00000000000E+00  0.00000000000E+00  0.17138964752E+03  0.17138964752E+03  0.00000000000E+00 0.  1.
         21   -1    0    0  501  503 -0.00000000000E+00 -0.00000000000E+00 -0.14630208217E+04  0.14630208217E+04  0.00000000000E+00 0.  1.
    9000005    1    1    2  501    0  0.25497551034E+03 -0.15441595318E+03 -0.71676102032E+03  0.87327152577E+03  0.40000000000E+03 0.  1.
   -9000005    1    1    2    0  502 -0.25497551034E+03  0.15441595318E+03 -0.57487015389E+03  0.76113894349E+03  0.40000000000E+03 0.  1.
<mgrwt>
<rscale>  2 0.49885549E+03</rscale>
<asrwt>0</asrwt>
<pdfrwt beam="1">  1       21 0.26367638E-01 0.49885549E+03</pdfrwt>
<pdfrwt beam="2">  1       21 0.22508012E+00 0.49885549E+03</pdfrwt>
<totfact> 0.10389669E+03</totfact>
</mgrwt>
</event>
<event>
 4    1  0.8722554E-003  0.6085347E+03  0.7818608E-02  0.9887856E-01
         21   -1    0    0  501  502  0.00000000000E+00  0.00000000000E+00  0.14953107073E+04  0.14953107073E+04  0.00000000000E+00 0.  1.
         21   -1    0    0  502  503 -0.00000000000E+00 -0.00000000000E+00 -0.25361077475E+03  0.25361077475E+03  0.00000000000E+00 0.  1.
    9000005    1    1    2  501    0  0.35632437018E+03  0.28869962625E+03  0.75490634832E+03  0.96963814164E+03  0.40000000000E+03 0.  1.
   -9000005    1    1    2    0  503 -0.35632437018E+03 -0.28869962625E+03  0.48679358419E+03  0.77928334037E+03  0.40000000000E+03 0.  1.
<mgrwt>
<rscale>  2 0.60853474E+03</rscale>
<asrwt>0</asrwt>
<pdfrwt beam="1">  1       21 0.23004780E+00 0.60853474E+03</pdfrwt>
<pdfrwt beam="2">  1       21 0.39017043E-01 0.60853474E+03</pdfrwt>
<totfact> 0.42035848E+02</totfact>
</mgrwt>
</event>
<event>
 4    1  0.8722554E-003  0.4731554E+03  0.7818608E-02  0.1021033E+00
         21   -1    0    0  501  502  0.00000000000E+00  0.00000000000E+00  0.28569889582E+03  0.28569889582E+03  0.00000000000E+00 0.  1.
         21   -1    0    0  502  503 -0.00000000000E+00 -0.00000000000E+00 -0.16407161795E+04  0.16407161795E+04  0.00000000000E+00 0.  1.
    9000005    1    1    2  501    0  0.65244673832E+02 -0.24417038539E+03  0.18670279209E+02  0.47352362548E+03  0.40000000000E+03 0.  1.
   -9000005    1    1    2    0  503 -0.65244673832E+02  0.24417038539E+03 -0.13736875629E+04  0.14528914499E+04  0.40000000000E+03 0.  1.
<mgrwt>
<rscale>  2 0.47315541E+03</rscale>
<asrwt>0</asrwt>
<pdfrwt beam="1">  1       21 0.43953677E-01 0.47315541E+03</pdfrwt>
<pdfrwt beam="2">  1       21 0.25241787E+00 0.47315541E+03</pdfrwt>
<totfact> 0.25262874E+02</totfact>
</mgrwt>
</event>
<event>
 4    1  0.8722554E-003  0.4028115E+03  0.7818608E-02  0.1042810E+00
         21   -1    0    0  501  502  0.00000000000E+00  0.00000000000E+00  0.14775801005E+03  0.14775801005E+03  0.00000000000E+00 0.  1.
         21   -1    0    0  502  503 -0.00000000000E+00 -0.00000000000E+00 -0.13315210823E+04  0.13315210823E+04  0.00000000000E+00 0.  1.
    9000005    1    1    2  501    0  0.44567001973E+02  0.16459524634E+02 -0.28221765087E+03  0.49183730651E+03  0.40000000000E+03 0.  1.
   -9000005    1    1    2    0  503 -0.44567001973E+02 -0.16459524634E+02 -0.90154542142E+03  0.98744178588E+03  0.40000000000E+03 0.  1.
<mgrwt>
<rscale>  2 0.40281154E+03</rscale>
<asrwt>0</asrwt>
<pdfrwt beam="1">  1       21 0.22732002E-01 0.40281154E+03</pdfrwt>
<pdfrwt beam="2">  1       21 0.20484939E+00 0.40281154E+03</pdfrwt>
<totfact> 0.19559502E+03</totfact>
</mgrwt>
</event>
<event>
 4    1  0.8722554E-003  0.5553892E+03  0.7818608E-02  0.1000254E+00
         21   -1    0    0  501  502  0.00000000000E+00  0.00000000000E+00  0.17311740217E+04  0.17311740217E+04  0.00000000000E+00 0. -1.
         21   -1    0    0  502  503 -0.00000000000E+00 -0.00000000000E+00 -0.19017329855E+03  0.19017329855E+03  0.00000000000E+00 0.  1.
    9000005    1    1    2  501    0  0.20467680870E+03 -0.32644222272E+03  0.10117722297E+04  0.11541837659E+04  0.40000000000E+03 0. -1.
   -9000005    1    1    2    0  503 -0.20467680870E+03  0.32644222272E+03  0.52922849350E+03  0.76716355435E+03  0.40000000000E+03 0.  1.
<mgrwt>
<rscale>  2 0.55538916E+03</rscale>
<asrwt>0</asrwt>
<pdfrwt beam="1">  1       21 0.26633445E+00 0.55538916E+03</pdfrwt>
<pdfrwt beam="2">  1       21 0.29257432E-01 0.55538916E+03</pdfrwt>
<totfact> 0.45722317E+02</totfact>
</mgrwt>
</event>
<event>
 4    1  0.8722554E-003  0.7359114E+03  0.7818608E-02  0.9657716E-01
         21   -1    0    0  501  502  0.00000000000E+00  0.00000000000E+00  0.21798438713E+04  0.21798438713E+04  0.00000000000E+00 0. -1.
         21   -1    0    0  502  503 -0.00000000000E+00 -0.00000000000E+00 -0.30857539965E+03  0.30857539965E+03  0.00000000000E+00 0. -1.
    9000005    1    1    2  501    0  0.61226955318E+03  0.81801726715E+02  0.14848835643E+04  0.16572400936E+04  0.40000000000E+03 0. -1.
   -9000005    1    1    2    0  503 -0.61226955318E+03 -0.81801726715E+02  0.38638490732E+03  0.83117917734E+03  0.40000000000E+03 0. -1.
<mgrwt>
<rscale>  2 0.73591136E+03</rscale>
<asrwt>0</asrwt>
<pdfrwt beam="1">  1       21 0.33536059E+00 0.73591136E+03</pdfrwt>
<pdfrwt beam="2">  1       21 0.47473140E-01 0.73591136E+03</pdfrwt>
<totfact> 0.59163344E+01</totfact>
</mgrwt>
</event>
<event>
 4    1  0.8722554E-003  0.4208402E+03  0.7818608E-02  0.1036793E+00
         21   -1    0    0  501  502  0.00000000000E+00  0.00000000000E+00  0.52067681362E+03  0.52067681362E+03  0.00000000000E+00 0.  1.
         21   -1    0    0  502  503 -0.00000000000E+00 -0.00000000000E+00 -0.51431031346E+03  0.51431031346E+03  0.00000000000E+00 0.  1.
    9000005    1    1    2  501    0 -0.78414584994E+02  0.10467867056E+03  0.30432510276E+03  0.51934597272E+03  0.40000000000E+03 0.  1.
   -9000005    1    1    2    0  503  0.78414584994E+02 -0.10467867056E+03 -0.29795860260E+03  0.51564115436E+03  0.40000000000E+03 0.  1.
<mgrwt>
<rscale>  2 0.42084020E+03</rscale>
<asrwt>0</asrwt>
<pdfrwt beam="1">  1       21 0.80104125E-01 0.42084020E+03</pdfrwt>
<pdfrwt beam="2">  1       21 0.79124664E-01 0.42084020E+03</pdfrwt>
<totfact> 0.16822567E+03</totfact>
</mgrwt>
</event>
<event>
 4    1  0.8722554E-003  0.5591129E+03  0.7818608E-02  0.9994064E-01
         21   -1    0    0  501  502  0.00000000000E+00  0.00000000000E+00  0.64074715140E+03  0.64074715140E+03  0.00000000000E+00 0. -1.
         21   -1    0    0  502  503 -0.00000000000E+00 -0.00000000000E+00 -0.54849595637E+03  0.54849595637E+03  0.00000000000E+00 0. -1.
    9000005    1    1    2  501    0 -0.17688901668E+03 -0.34830666922E+03 -0.15154860073E+03  0.57928769919E+03  0.40000000000E+03 0. -1.
   -9000005    1    1    2    0  503  0.17688901668E+03  0.34830666922E+03  0.24379979576E+03  0.60995540858E+03  0.40000000000E+03 0. -1.
<mgrwt>
<rscale>  2 0.55911292E+03</rscale>
<asrwt>0</asrwt>
<pdfrwt beam="1">  1       21 0.98576485E-01 0.55911292E+03</pdfrwt>
<pdfrwt beam="2">  1       21 0.84383993E-01 0.55911292E+03</pdfrwt>
<totfact> 0.84217217E+02</totfact>
</mgrwt>
</event>
<event>
 4    1  0.8722554E-003  0.4242990E+03  0.7818608E-02  0.1035676E+00
         21   -1    0    0  501  502  0.00000000000E+00  0.00000000000E+00  0.90287355930E+03  0.90287355930E+03  0.00000000000E+00 0.  1.
         21   -1    0    0  502  503 -0.00000000000E+00 -0.00000000000E+00 -0.26282683797E+03  0.26282683797E+03  0.00000000000E+00 0.  1.
    9000005    1    1    2  501    0  0.14114826144E+03 -0.10333122861E+02  0.60635639143E+03  0.74006599609E+03  0.40000000000E+03 0.  1.
   -9000005    1    1    2    0  503 -0.14114826144E+03  0.10333122861E+02  0.33690329894E+02  0.42563440118E+03  0.40000000000E+03 0.  1.
<mgrwt>
<rscale>  2 0.42429896E+03</rscale>
<asrwt>0</asrwt>
<pdfrwt beam="1">  1       21 0.13890362E+00 0.42429896E+03</pdfrwt>
<pdfrwt beam="2">  1       21 0.40434899E-01 0.42429896E+03</pdfrwt>
<totfact> 0.18628619E+03</totfact>
</mgrwt>
</event>
<event>
 4    1  0.8722554E-003  0.5095696E+03  0.7818608E-02  0.1011311E+00
         21   -1    0    0  503  502  0.00000000000E+00  0.00000000000E+00  0.38000102464E+03  0.38000102464E+03  0.00000000000E+00 0. -1.
         21   -1    0    0  501  503 -0.00000000000E+00 -0.00000000000E+00 -0.68383720838E+03  0.68383720838E+03  0.00000000000E+00 0. -1.
    9000005    1    1    2  501    0 -0.29412901126E+03 -0.11467026889E+03 -0.13724662156E+03  0.52772888964E+03  0.40000000000E+03 0. -1.
   -9000005    1    1    2    0  502  0.29412901126E+03  0.11467026889E+03 -0.16658956217E+03  0.53610934338E+03  0.40000000000E+03 0. -1.
<mgrwt>
<rscale>  2 0.50956957E+03</rscale>
<asrwt>0</asrwt>
<pdfrwt beam="1">  1       21 0.58461696E-01 0.50956957E+03</pdfrwt>
<pdfrwt beam="2">  1       21 0.10520572E+00 0.50956957E+03</pdfrwt>
<totfact> 0.16753549E+03</totfact>
</mgrwt>
</event>
<event>
 4    1  0.8722554E-003  0.4646354E+03  0.7818608E-02  0.1023445E+00
         21   -1    0    0  503  502  0.00000000000E+00  0.00000000000E+00  0.11123848691E+04  0.11123848691E+04  0.00000000000E+00 0. -1.
         21   -1    0    0  501  503 -0.00000000000E+00 -0.00000000000E+00 -0.20326585877E+03  0.20326585877E+03  0.00000000000E+00 0. -1.
    9000005    1    1    2  501    0 -0.18824791100E+03  0.14299909448E+03  0.31467871883E+03  0.56116727729E+03  0.40000000000E+03 0. -1.
   -9000005    1    1    2    0  502  0.18824791100E+03 -0.14299909448E+03  0.59444029147E+03  0.75448345054E+03  0.40000000000E+03 0. -1.
<mgrwt>
<rscale>  2 0.46463536E+03</rscale>
<asrwt>0</asrwt>
<pdfrwt beam="1">  1       21 0.17113613E+00 0.46463536E+03</pdfrwt>
<pdfrwt beam="2">  1       21 0.31271671E-01 0.46463536E+03</pdfrwt>
<totfact> 0.17391762E+03</totfact>
</mgrwt>
</event>
<event>
 4    1  0.8722554E-003  0.5024044E+03  0.7818608E-02  0.1013153E+00
         21   -1    0    0  501  502  0.00000000000E+00  0.00000000000E+00  0.25226858868E+03  0.25226858868E+03  0.00000000000E+00 0.  1.
         21   -1    0    0  502  503 -0.00000000000E+00 -0.00000000000E+00 -0.11448927347E+04  0.11448927347E+04  0.00000000000E+00 0.  1.
    9000005    1    1    2  501    0 -0.26246181349E+03  0.15337528081E+03 -0.19827610441E+03  0.54011442666E+03  0.40000000000E+03 0.  1.
   -9000005    1    1    2    0  503  0.26246181349E+03 -0.15337528081E+03 -0.69434804166E+03  0.85704689677E+03  0.40000000000E+03 0.  1.
<mgrwt>
<rscale>  2 0.50240440E+03</rscale>
<asrwt>0</asrwt>
<pdfrwt beam="1">  1       21 0.38810552E-01 0.50240440E+03</pdfrwt>
<pdfrwt beam="2">  1       21 0.17613734E+00 0.50240440E+03</pdfrwt>
<totfact> 0.10178794E+03</totfact>
</mgrwt>
</event>
<event>
 4    1  0.8722554E-003  0.4097274E+03  0.7818608E-02  0.1040463E+00
         21   -1    0    0  501  502  0.00000000000E+00  0.00000000000E+00  0.10506992295E+03  0.10506992295E+03  0.00000000000E+00 0. -1.
         21   -1    0    0  502  503 -0.00000000000E+00 -0.00000000000E+00 -0.16762723460E+04  0.16762723460E+04  0.00000000000E+00 0. -1.
    9000005    1    1    2  501    0 -0.82434906151E+02  0.32878825132E+02 -0.59284260399E+03  0.72065170783E+03  0.40000000000E+03 0.  1.
   -9000005    1    1    2    0  503  0.82434906151E+02 -0.32878825132E+02 -0.97835981905E+03  0.10606905611E+04  0.40000000000E+03 0.  1.
<mgrwt>
<rscale>  2 0.40972739E+03</rscale>
<asrwt>0</asrwt>
<pdfrwt beam="1">  1       21 0.16164604E-01 0.40972739E+03</pdfrwt>
<pdfrwt beam="2">  1       21 0.25788804E+00 0.40972739E+03</pdfrwt>
<totfact> 0.17267102E+03</totfact>
</mgrwt>
</event>
<event>
 4    1  0.8722554E-003  0.5593162E+03  0.7818608E-02  0.9993603E-01
         21   -1    0    0  503  502  0.00000000000E+00  0.00000000000E+00  0.14941785365E+04  0.14941785365E+04  0.00000000000E+00 0. -1.
         21   -1    0    0  501  503 -0.00000000000E+00 -0.00000000000E+00 -0.21068353106E+03  0.21068353106E+03  0.00000000000E+00 0.  1.
    9000005    1    1    2  501    0  0.32497746906E+03 -0.21731151696E+03  0.70908098362E+03  0.90312263404E+03  0.40000000000E+03 0.  1.
   -9000005    1    1    2    0  502 -0.32497746906E+03  0.21731151696E+03  0.57441402186E+03  0.80173943354E+03  0.40000000000E+03 0.  1.
<mgrwt>
<rscale>  2 0.55931624E+03</rscale>
<asrwt>0</asrwt>
<pdfrwt beam="1">  1       21 0.22987361E+00 0.55931624E+03</pdfrwt>
<pdfrwt beam="2">  1       21 0.32412852E-01 0.55931624E+03</pdfrwt>
<totfact> 0.62693890E+02</totfact>
</mgrwt>
</event>
<event>
 4    1  0.8722554E-003  0.5348854E+03  0.7818608E-02  0.1005054E+00
         21   -1    0    0  501  502  0.00000000000E+00  0.00000000000E+00  0.30924349877E+03  0.30924349877E+03  0.00000000000E+00 0.  1.
         21   -1    0    0  502  503 -0.00000000000E+00 -0.00000000000E+00 -0.17521696870E+04  0.17521696870E+04  0.00000000000E+00 0.  1.
    9000005    1    1    2  501    0 -0.30876411392E+03  0.17540558822E+03 -0.13354292114E+02  0.53505208675E+03  0.40000000000E+03 0.  1.
   -9000005    1    1    2    0  503  0.30876411392E+03 -0.17540558822E+03 -0.14295718962E+04  0.15263610991E+04  0.40000000000E+03 0.  1.
<mgrwt>
<rscale>  2 0.53488541E+03</rscale>
<asrwt>0</asrwt>
<pdfrwt beam="1">  1       21 0.47575923E-01 0.53488541E+03</pdfrwt>
<pdfrwt beam="2">  1       21 0.26956457E+00 0.53488541E+03</pdfrwt>
<totfact> 0.16271998E+02</totfact>
</mgrwt>
</event>
<event>
 4    1  0.8722554E-003  0.4598623E+03  0.7818608E-02  0.1024821E+00
         21   -1    0    0  501  502  0.00000000000E+00  0.00000000000E+00  0.42125791906E+03  0.42125791906E+03  0.00000000000E+00 0. -1.
         21   -1    0    0  502  503 -0.00000000000E+00 -0.00000000000E+00 -0.50202173869E+03  0.50202173869E+03  0.00000000000E+00 0. -1.
    9000005    1    1    2  501    0 -0.18955159665E+02 -0.22608414376E+03 -0.43093196320E+02  0.46187699846E+03  0.40000000000E+03 0. -1.
   -9000005    1    1    2    0  503  0.18955159665E+02  0.22608414376E+03 -0.37670623316E+02  0.46140265929E+03  0.40000000000E+03 0. -1.
<mgrwt>
<rscale>  2 0.45986230E+03</rscale>
<asrwt>0</asrwt>
<pdfrwt beam="1">  1       21 0.64808911E-01 0.45986230E+03</pdfrwt>
<pdfrwt beam="2">  1       21 0.77234113E-01 0.45986230E+03</pdfrwt>
<totfact> 0.28307444E+03</totfact>
</mgrwt>
</event>
<event>
 4    1  0.8722554E-003  0.5251736E+03  0.7818608E-02  0.1007409E+00
         21   -1    0    0  503  502  0.00000000000E+00  0.00000000000E+00  0.82185412110E+03  0.82185412110E+03  0.00000000000E+00 0. -1.
         21   -1    0    0  501  503 -0.00000000000E+00 -0.00000000000E+00 -0.42749378613E+03  0.42749378613E+03  0.00000000000E+00 0. -1.
    9000005    1    1    2  501    0 -0.28799477967E+03  0.18129064798E+03  0.48681550785E+03  0.71609819917E+03  0.40000000000E+03 0. -1.
   -9000005    1    1    2    0  502  0.28799477967E+03 -0.18129064798E+03 -0.92455172876E+02  0.53324970807E+03  0.40000000000E+03 0. -1.
<mgrwt>
<rscale>  2 0.52517358E+03</rscale>
<asrwt>0</asrwt>
<pdfrwt beam="1">  1       21 0.12643910E+00 0.52517358E+03</pdfrwt>
<pdfrwt beam="2">  1       21 0.65768275E-01 0.52517358E+03</pdfrwt>
<totfact> 0.80757801E+02</totfact>
</mgrwt>
</event>
<event>
 4    1  0.8722554E-003  0.4204127E+03  0.7818608E-02  0.1036932E+00
         21   -1    0    0  503  502  0.00000000000E+00  0.00000000000E+00  0.12191637378E+04  0.12191637378E+04  0.00000000000E+00 0. -1.
         21   -1    0    0  501  503 -0.00000000000E+00 -0.00000000000E+00 -0.17995304819E+03  0.17995304819E+03  0.00000000000E+00 0.  1.
    9000005    1    1    2  501    0 -0.52706678259E+02 -0.11818972436E+03  0.21118034168E+03  0.47047204124E+03  0.40000000000E+03 0.  1.
   -9000005    1    1    2    0  502  0.52706678259E+02  0.11818972436E+03  0.82803034796E+03  0.92864474479E+03  0.40000000000E+03 0. -1.
<mgrwt>
<rscale>  2 0.42041266E+03</rscale>
<asrwt>0</asrwt>
<pdfrwt beam="1">  1       21 0.18756365E+00 0.42041266E+03</pdfrwt>
<pdfrwt beam="2">  1       21 0.27685085E-01 0.42041266E+03</pdfrwt>
<totfact> 0.17274376E+03</totfact>
</mgrwt>
</event>
<event>
 4    1  0.8722554E-003  0.4349422E+03  0.7818608E-02  0.1032310E+00
         21   -1    0    0  503  502  0.00000000000E+00  0.00000000000E+00  0.48171242337E+03  0.48171242337E+03  0.00000000000E+00 0.  1.
         21   -1    0    0  501  503 -0.00000000000E+00 -0.00000000000E+00 -0.64875422977E+03  0.64875422977E+03  0.00000000000E+00 0.  1.
    9000005    1    1    2  501    0 -0.19239365017E+02 -0.16971896153E+03 -0.43861438682E+03  0.61770321303E+03  0.40000000000E+03 0.  1.
   -9000005    1    1    2    0  502  0.19239365017E+02  0.16971896153E+03  0.27157258043E+03  0.51276344010E+03  0.40000000000E+03 0.  1.
<mgrwt>
<rscale>  2 0.43494216E+03</rscale>
<asrwt>0</asrwt>
<pdfrwt beam="1">  1       21 0.74109604E-01 0.43494216E+03</pdfrwt>
<pdfrwt beam="2">  1       21 0.99808343E-01 0.43494216E+03</pdfrwt>
<totfact> 0.11553815E+03</totfact>
</mgrwt>
</event>
<event>
 4    1  0.8722554E-003  0.4487554E+03  0.7818608E-02  0.1028094E+00
         21   -1    0    0  503  502  0.00000000000E+00  0.00000000000E+00  0.73724987826E+03  0.73724987826E+03  0.00000000000E+00 0.  1.
         21   -1    0    0  501  503 -0.00000000000E+00 -0.00000000000E+00 -0.29322322565E+03  0.29322322565E+03  0.00000000000E+00 0. -1.
    9000005    1    1    2  501    0 -0.13719453188E+03  0.15019673637E+03  0.87212466901E+02  0.45715141209E+03  0.40000000000E+03 0.  1.
   -9000005    1    1    2    0  502  0.13719453188E+03 -0.15019673637E+03  0.35681418571E+03  0.57332169182E+03  0.40000000000E+03 0.  1.
<mgrwt>
<rscale>  2 0.44875539E+03</rscale>
<asrwt>0</asrwt>
<pdfrwt beam="1">  1       21 0.11342306E+00 0.44875539E+03</pdfrwt>
<pdfrwt beam="2">  1       21 0.45111266E-01 0.44875539E+03</pdfrwt>
<totfact> 0.24734395E+03</totfact>
</mgrwt>
</event>
<event>
 4    1  0.8722554E-003  0.5959984E+03  0.7818608E-02  0.9913743E-01
         21   -1    0    0  503  502  0.00000000000E+00  0.00000000000E+00  0.53591052876E+03  0.53591052876E+03  0.00000000000E+00 0. -1.
         21   -1    0    0  501  503 -0.00000000000E+00 -0.00000000000E+00 -0.69021358228E+03  0.69021358228E+03  0.00000000000E+00 0. -1.
    9000005    1    1    2  501    0 -0.36061985649E+03 -0.25527901896E+03 -0.19927801160E+03  0.62843120890E+03  0.40000000000E+03 0. -1.
   -9000005    1    1    2    0  502  0.36061985649E+03  0.25527901896E+03  0.44974958087E+02  0.59769290214E+03  0.40000000000E+03 0. -1.
<mgrwt>
<rscale>  2 0.59599837E+03</rscale>
<asrwt>0</asrwt>
<pdfrwt beam="1">  1       21 0.82447773E-01 0.59599837E+03</pdfrwt>
<pdfrwt beam="2">  1       21 0.10618671E+00 0.59599837E+03</pdfrwt>
<totfact> 0.73157719E+02</totfact>
</mgrwt>
</event>
<event>
 4    1  0.8722554E-003  0.4418367E+03  0.7818608E-02  0.1030185E+00
         21   -1    0    0  501  502  0.00000000000E+00  0.00000000000E+00  0.50470610631E+03  0.50470610631E+03  0.00000000000E+00 0. -1.
         21   -1    0    0  502  503 -0.00000000000E+00 -0.00000000000E+00 -0.43521424097E+03  0.43521424097E+03  0.00000000000E+00 0.  1.
    9000005    1    1    2  501    0 -0.14169381888E+03 -0.12305508625E+03  0.19149380819E+03  0.48154913678E+03  0.40000000000E+03 0. -1.
   -9000005    1    1    2    0  503  0.14169381888E+03  0.12305508625E+03 -0.12200194285E+03  0.45837121050E+03  0.40000000000E+03 0.  1.
<mgrwt>
<rscale>  2 0.44183673E+03</rscale>
<asrwt>0</asrwt>
<pdfrwt beam="1">  1       21 0.77647093E-01 0.44183673E+03</pdfrwt>
<pdfrwt beam="2">  1       21 0.66956037E-01 0.44183673E+03</pdfrwt>
<totfact> 0.26173293E+03</totfact>
</mgrwt>
</event>
<event>
 4    1  0.8722554E-003  0.4108405E+03  0.7818608E-02  0.1040089E+00
         21   -1    0    0  501  502  0.00000000000E+00  0.00000000000E+00  0.56658474971E+02  0.56658474971E+02  0.00000000000E+00 0.  1.
         21   -1    0    0  502  503 -0.00000000000E+00 -0.00000000000E+00 -0.30048763632E+04  0.30048763632E+04  0.00000000000E+00 0.  1.
    9000005    1    1    2  501    0  0.72665416685E+02  0.59242170091E+02 -0.13322653815E+04  0.13941739290E+04  0.40000000000E+03 0.  1.
   -9000005    1    1    2    0  503 -0.72665416685E+02 -0.59242170091E+02 -0.16159525067E+04  0.16673609092E+04  0.40000000000E+03 0.  1.
<mgrwt>
<rscale>  2 0.41084048E+03</rscale>
<asrwt>0</asrwt>
<pdfrwt beam="1">  1       21 0.87166877E-02 0.41084048E+03</pdfrwt>
<pdfrwt beam="2">  1       21 0.46228871E+00 0.41084048E+03</pdfrwt>
<totfact> 0.27883332E+02</totfact>
</mgrwt>
</event>
<event>
 4    1  0.8722554E-003  0.4190475E+03  0.7818608E-02  0.1037377E+00
         21   -1    0    0  501  502  0.00000000000E+00  0.00000000000E+00  0.17450768986E+03  0.17450768986E+03  0.00000000000E+00 0.  1.
         21   -1    0    0  502  503 -0.00000000000E+00 -0.00000000000E+00 -0.17182736176E+04  0.17182736176E+04  0.00000000000E+00 0.  1.
    9000005    1    1    2  501    0 -0.12361644106E+03 -0.17883642159E+02 -0.16267280566E+03  0.44951450573E+03  0.40000000000E+03 0.  1.
   -9000005    1    1    2    0  503  0.12361644106E+03  0.17883642159E+02 -0.13810931221E+04  0.14432668017E+04  0.40000000000E+03 0.  1.
<mgrwt>
<rscale>  2 0.41904755E+03</rscale>
<asrwt>0</asrwt>
<pdfrwt beam="1">  1       21 0.26847337E-01 0.41904755E+03</pdfrwt>
<pdfrwt beam="2">  1       21 0.26434979E+00 0.41904755E+03</pdfrwt>
<totfact> 0.59619631E+02</totfact>
</mgrwt>
</event>
<event>
 4    1  0.8722554E-003  0.4272554E+03  0.7818608E-02  0.1034730E+00
         21   -1    0    0  501  502  0.00000000000E+00  0.00000000000E+00  0.57392239307E+03  0.57392239307E+03  0.00000000000E+00 0. -1.
         21   -1    0    0  502  503 -0.00000000000E+00 -0.00000000000E+00 -0.34097975508E+03  0.34097975508E+03  0.00000000000E+00 0.  1.
    9000005    1    1    2  501    0  0.13968284709E+03  0.55099085604E+02  0.23504692231E+03  0.48764153094E+03  0.40000000000E+03 0. -1.
   -9000005    1    1    2    0  503 -0.13968284709E+03 -0.55099085604E+02 -0.21042843197E+01  0.42726061721E+03  0.40000000000E+03 0.  1.
<mgrwt>
<rscale>  2 0.42725544E+03</rscale>
<asrwt>0</asrwt>
<pdfrwt beam="1">  1       21 0.88295753E-01 0.42725544E+03</pdfrwt>
<pdfrwt beam="2">  1       21 0.52458424E-01 0.42725544E+03</pdfrwt>
<totfact> 0.33267681E+03</totfact>
</mgrwt>
</event>
<event>
 4    1  0.8722554E-003  0.5185816E+03  0.7818608E-02  0.1009039E+00
         21   -1    0    0  501  502  0.00000000000E+00  0.00000000000E+00  0.34798919612E+03  0.34798919612E+03  0.00000000000E+00 0. -1.
         21   -1    0    0  502  503 -0.00000000000E+00 -0.00000000000E+00 -0.77312679507E+03  0.77312679507E+03  0.00000000000E+00 0.  1.
    9000005    1    1    2  501    0 -0.32745060235E+03 -0.41267501611E+02 -0.22405028805E+03  0.56491188272E+03  0.40000000000E+03 0.  1.
   -9000005    1    1    2    0  503  0.32745060235E+03  0.41267501611E+02 -0.20108731090E+03  0.55620410846E+03  0.40000000000E+03 0.  1.
<mgrwt>
<rscale>  2 0.51858163E+03</rscale>
<asrwt>0</asrwt>
<pdfrwt beam="1">  1       21 0.53536800E-01 0.51858163E+03</pdfrwt>
<pdfrwt beam="2">  1       21 0.11894258E+00 0.51858163E+03</pdfrwt>
<totfact> 0.14879312E+03</totfact>
</mgrwt>
</event>
<event>
 4    1  0.8722554E-003  0.4817498E+03  0.7818608E-02  0.1018655E+00
         21   -1    0    0  503  502  0.00000000000E+00  0.00000000000E+00  0.34305716438E+03  0.34305716438E+03  0.00000000000E+00 0.  1.
         21   -1    0    0  501  503 -0.00000000000E+00 -0.00000000000E+00 -0.91341095518E+03  0.91341095518E+03  0.00000000000E+00 0. -1.
    9000005    1    1    2  501    0  0.26793137163E+03 -0.17193694681E+02  0.34763045791E+02  0.48300239377E+03  0.40000000000E+03 0.  1.
   -9000005    1    1    2    0  502 -0.26793137163E+03  0.17193694681E+02 -0.60511683659E+03  0.77346572579E+03  0.40000000000E+03 0. -1.
<mgrwt>
<rscale>  2 0.48174977E+03</rscale>
<asrwt>0</asrwt>
<pdfrwt beam="1">  1       21 0.52778025E-01 0.48174977E+03</pdfrwt>
<pdfrwt beam="2">  1       21 0.14052476E+00 0.48174977E+03</pdfrwt>
<totfact> 0.10074804E+03</totfact>
</mgrwt>
</event>
<event>
 4    1  0.8722554E-003  0.5477821E+03  0.7818608E-02  0.1002009E+00
         21   -1    0    0  503  502  0.00000000000E+00  0.00000000000E+00  0.83527309044E+03  0.83527309044E+03  0.00000000000E+00 0.  1.
         21   -1    0    0  501  503 -0.00000000000E+00 -0.00000000000E+00 -0.79823933896E+03  0.79823933896E+03  0.00000000000E+00 0. -1.
    9000005    1    1    2  501    0 -0.30614188924E+03  0.21527280992E+03 -0.58718203200E+03  0.80302426971E+03  0.40000000000E+03 0. -1.
   -9000005    1    1    2    0  502  0.30614188924E+03 -0.21527280992E+03  0.62421578348E+03  0.83048815969E+03  0.40000000000E+03 0.  1.
<mgrwt>
<rscale>  2 0.54778211E+03</rscale>
<asrwt>0</asrwt>
<pdfrwt beam="1">  1       21 0.12850355E+00 0.54778211E+03</pdfrwt>
<pdfrwt beam="2">  1       21 0.12280605E+00 0.54778211E+03</pdfrwt>
<totfact> 0.17294124E+02</totfact>
</mgrwt>
</event>
<event>
 4    1  0.8722554E-003  0.5792399E+03  0.7818608E-02  0.9949438E-01
         21   -1    0    0  501  502  0.00000000000E+00  0.00000000000E+00  0.15392621937E+04  0.15392621937E+04  0.00000000000E+00 0. -1.
         21   -1    0    0  502  503 -0.00000000000E+00 -0.00000000000E+00 -0.27542468936E+03  0.27542468936E+03  0.00000000000E+00 0. -1.
    9000005    1    1    2  501    0  0.40730400624E+03  0.98093365394E+02  0.10463176284E+04  0.11959512705E+04  0.40000000000E+03 0. -1.
   -9000005    1    1    2    0  503 -0.40730400624E+03 -0.98093365394E+02  0.21751987592E+03  0.61873561256E+03  0.40000000000E+03 0. -1.
<mgrwt>
<rscale>  2 0.57923990E+03</rscale>
<asrwt>0</asrwt>
<pdfrwt beam="1">  1       21 0.23680956E+00 0.57923990E+03</pdfrwt>
<pdfrwt beam="2">  1       21 0.42373030E-01 0.57923990E+03</pdfrwt>
<totfact> 0.32455228E+02</totfact>
</mgrwt>
</event>
<event>
 4    1  0.8722554E-003  0.4656127E+03  0.7818608E-02  0.1023166E+00
         21   -1    0    0  501  502  0.00000000000E+00  0.00000000000E+00  0.15412014879E+04  0.15412014879E+04  0.00000000000E+00 0. -1.
         21   -1    0    0  502  503 -0.00000000000E+00 -0.00000000000E+00 -0.14483411183E+03  0.14483411183E+03  0.00000000000E+00 0. -1.
    9000005    1    1    2  501    0  0.23368821106E+03 -0.46744088944E+02  0.55517820296E+03  0.72458127693E+03  0.40000000000E+03 0. -1.
   -9000005    1    1    2    0  503 -0.23368821106E+03  0.46744088944E+02  0.84118917308E+03  0.96145432275E+03  0.40000000000E+03 0. -1.
<mgrwt>
<rscale>  2 0.46561270E+03</rscale>
<asrwt>0</asrwt>
<pdfrwt beam="1">  1       21 0.23710791E+00 0.46561270E+03</pdfrwt>
<pdfrwt beam="2">  1       21 0.22282172E-01 0.46561270E+03</pdfrwt>
<totfact> 0.12281929E+03</totfact>
</mgrwt>
</event>
<event>
 4    1  0.8722554E-003  0.5598613E+03  0.7818608E-02  0.9992368E-01
         21   -1    0    0  501  502  0.00000000000E+00  0.00000000000E+00  0.34140632356E+03  0.34140632356E+03  0.00000000000E+00 0.  1.
         21   -1    0    0  502  503 -0.00000000000E+00 -0.00000000000E+00 -0.10781835611E+04  0.10781835611E+04  0.00000000000E+00 0. -1.
    9000005    1    1    2  501    0 -0.33373119088E+03  0.20510532420E+03 -0.94885880082E+02  0.56784507748E+03  0.40000000000E+03 0.  1.
   -9000005    1    1    2    0  503  0.33373119088E+03 -0.20510532420E+03 -0.64189135748E+03  0.85174480720E+03  0.40000000000E+03 0. -1.
<mgrwt>
<rscale>  2 0.55986132E+03</rscale>
<asrwt>0</asrwt>
<pdfrwt beam="1">  1       21 0.52524051E-01 0.55986132E+03</pdfrwt>
<pdfrwt beam="2">  1       21 0.16587439E+00 0.55986132E+03</pdfrwt>
<totfact> 0.62628829E+02</totfact>
</mgrwt>
</event>
<event>
 4    1  0.8722554E-003  0.5282114E+03  0.7818608E-02  0.1006667E+00
         21   -1    0    0  501  502  0.00000000000E+00  0.00000000000E+00  0.27659984441E+03  0.27659984441E+03  0.00000000000E+00 0.  1.
         21   -1    0    0  502  503 -0.00000000000E+00 -0.00000000000E+00 -0.10371369081E+04  0.10371369081E+04  0.00000000000E+00 0. -1.
    9000005    1    1    2  501    0  0.33896117291E+03  0.64129341810E+02 -0.27150726198E+03  0.59390524710E+03  0.40000000000E+03 0. -1.
   -9000005    1    1    2    0  503 -0.33896117291E+03 -0.64129341810E+02 -0.48902980169E+03  0.71983150539E+03  0.40000000000E+03 0. -1.
<mgrwt>
<rscale>  2 0.52821137E+03</rscale>
<asrwt>0</asrwt>
<pdfrwt beam="1">  1       21 0.42553822E-01 0.52821137E+03</pdfrwt>
<pdfrwt beam="2">  1       21 0.15955952E+00 0.52821137E+03</pdfrwt>
<totfact> 0.11040823E+03</totfact>
</mgrwt>
</event>
<event>
 4    1  0.8722554E-003  0.4690966E+03  0.7818608E-02  0.1022175E+00
         21   -1    0    0  503  502  0.00000000000E+00  0.00000000000E+00  0.27996122819E+03  0.27996122819E+03  0.00000000000E+00 0.  1.
         21   -1    0    0  501  503 -0.00000000000E+00 -0.00000000000E+00 -0.78821052819E+03  0.78821052819E+03  0.00000000000E+00 0.  1.
    9000005    1    1    2  501    0 -0.14726655822E+03 -0.19586786355E+03 -0.22588963599E+03  0.52065131018E+03  0.40000000000E+03 0.  1.
   -9000005    1    1    2    0  502  0.14726655822E+03  0.19586786355E+03 -0.28235966401E+03  0.54752044620E+03  0.40000000000E+03 0.  1.
<mgrwt>
<rscale>  2 0.46909664E+03</rscale>
<asrwt>0</asrwt>
<pdfrwt beam="1">  1       21 0.43070958E-01 0.46909664E+03</pdfrwt>
<pdfrwt beam="2">  1       21 0.12126316E+00 0.46909664E+03</pdfrwt>
<totfact> 0.22849315E+03</totfact>
</mgrwt>
</event>
<event>
 4    1  0.8722554E-003  0.4042706E+03  0.7818608E-02  0.1042311E+00
         21   -1    0    0  503  502  0.00000000000E+00  0.00000000000E+00  0.35802610608E+03  0.35802610608E+03  0.00000000000E+00 0.  1.
         21   -1    0    0  501  503 -0.00000000000E+00 -0.00000000000E+00 -0.47408215666E+03  0.47408215666E+03  0.00000000000E+00 0.  1.
    9000005    1    1    2  501    0  0.44945409705E+02  0.37611106995E+02 -0.13817830665E+03  0.42723287520E+03  0.40000000000E+03 0.  1.
   -9000005    1    1    2    0  502 -0.44945409705E+02 -0.37611106995E+02  0.22122256064E+02  0.40487538754E+03  0.40000000000E+03 0.  1.
<mgrwt>
<rscale>  2 0.40427056E+03</rscale>
<asrwt>0</asrwt>
<pdfrwt beam="1">  1       21 0.55080940E-01 0.40427056E+03</pdfrwt>
<pdfrwt beam="2">  1       21 0.72935716E-01 0.40427056E+03</pdfrwt>
<totfact> 0.46967015E+03</totfact>
</mgrwt>
</event>
<event>
 4    1  0.8722554E-003  0.4546563E+03  0.7818608E-02  0.1026343E+00
         21   -1    0    0  501  502  0.00000000000E+00  0.00000000000E+00  0.18811782888E+04  0.18811782888E+04  0.00000000000E+00 0.  1.
         21   -1    0    0  502  503 -0.00000000000E+00 -0.00000000000E+00 -0.11067133786E+03  0.11067133786E+03  0.00000000000E+00 0.  1.
    9000005    1    1    2  501    0  0.18411221783E+03  0.11320363755E+03  0.80127920843E+03  0.92128211866E+03  0.40000000000E+03 0.  1.
   -9000005    1    1    2    0  503 -0.18411221783E+03 -0.11320363755E+03  0.96922774253E+03  0.10705675080E+04  0.40000000000E+03 0.  1.
<mgrwt>
<rscale>  2 0.45465632E+03</rscale>
<asrwt>0</asrwt>
<pdfrwt beam="1">  1       21 0.28941202E+00 0.45465632E+03</pdfrwt>
<pdfrwt beam="2">  1       21 0.17026361E-01 0.45465632E+03</pdfrwt>
<totfact> 0.98761811E+02</totfact>
</mgrwt>
</event>
<event>
 4    1  0.8722554E-003  0.7156769E+03  0.7818608E-02  0.9690792E-01
         21   -1    0    0  501  502  0.00000000000E+00  0.00000000000E+00  0.59985034191E+03  0.59985034191E+03  0.00000000000E+00 0.  1.
         21   -1    0    0  502  503 -0.00000000000E+00 -0.00000000000E+00 -0.97434979075E+03  0.97434979075E+03  0.00000000000E+00 0. -1.
    9000005    1    1    2  501    0 -0.42693446387E+03  0.41221400210E+03  0.89528539733E+02  0.72125500303E+03  0.40000000000E+03 0.  1.
   -9000005    1    1    2    0  503  0.42693446387E+03 -0.41221400210E+03 -0.46402798857E+03  0.85294512962E+03  0.40000000000E+03 0. -1.
<mgrwt>
<rscale>  2 0.71567690E+03</rscale>
<asrwt>0</asrwt>
<pdfrwt beam="1">  1       21 0.92284669E-01 0.71567690E+03</pdfrwt>
<pdfrwt beam="2">  1       21 0.14989997E+00 0.71567690E+03</pdfrwt>
<totfact> 0.21950695E+02</totfact>
</mgrwt>
</event>
<event>
 4    1  0.8722554E-003  0.5153779E+03  0.7818608E-02  0.1009841E+00
         21   -1    0    0  501  502  0.00000000000E+00  0.00000000000E+00  0.80200095559E+03  0.80200095559E+03  0.00000000000E+00 0. -1.
         21   -1    0    0  502  503 -0.00000000000E+00 -0.00000000000E+00 -0.36288781121E+03  0.36288781121E+03  0.00000000000E+00 0.  1.
    9000005    1    1    2  501    0  0.31906792116E+02 -0.32341349906E+03  0.47414907664E+02  0.51755435292E+03  0.40000000000E+03 0. -1.
   -9000005    1    1    2    0  503 -0.31906792116E+02  0.32341349906E+03  0.39169823671E+03  0.64733441389E+03  0.40000000000E+03 0. -1.
<mgrwt>
<rscale>  2 0.51537786E+03</rscale>
<asrwt>0</asrwt>
<pdfrwt beam="1">  1       21 0.12338476E+00 0.51537786E+03</pdfrwt>
<pdfrwt beam="2">  1       21 0.55828894E-01 0.51537786E+03</pdfrwt>
<totfact> 0.12383773E+03</totfact>
</mgrwt>
</event>
<event>
 4    1  0.8722554E-003  0.4196882E+03  0.7818608E-02  0.1037168E+00
         21   -1    0    0  501  502  0.00000000000E+00  0.00000000000E+00  0.80719915965E+03  0.80719915965E+03  0.00000000000E+00 0. -1.
         21   -1    0    0  502  503 -0.00000000000E+00 -0.00000000000E+00 -0.23462310925E+03  0.23462310925E+03  0.00000000000E+00 0. -1.
    9000005    1    1    2  501    0  0.37608034961E+02 -0.12134183469E+03  0.14850822979E+03  0.44518861110E+03  0.40000000000E+03 0. -1.
   -9000005    1    1    2    0  503 -0.37608034961E+02  0.12134183469E+03  0.42406782061E+03  0.59663365780E+03  0.40000000000E+03 0. -1.
<mgrwt>
<rscale>  2 0.41968822E+03</rscale>
<asrwt>0</asrwt>
<pdfrwt beam="1">  1       21 0.12418449E+00 0.41968822E+03</pdfrwt>
<pdfrwt beam="2">  1       21 0.36095863E-01 0.41968822E+03</pdfrwt>
<totfact> 0.31490071E+03</totfact>
</mgrwt>
</event>
<event>
 4    1  0.8722554E-003  0.4189348E+03  0.7818608E-02  0.1037414E+00
         21   -1    0    0  503  502  0.00000000000E+00  0.00000000000E+00  0.50374195694E+03  0.50374195694E+03  0.00000000000E+00 0. -1.
         21   -1    0    0  501  503 -0.00000000000E+00 -0.00000000000E+00 -0.44621034911E+03  0.44621034911E+03  0.00000000000E+00 0. -1.
    9000005    1    1    2  501    0 -0.53637605237E+02 -0.11238059207E+03 -0.19360743653E+03  0.46150864526E+03  0.40000000000E+03 0. -1.
   -9000005    1    1    2    0  502  0.53637605237E+02  0.11238059207E+03  0.25113904436E+03  0.48844366080E+03  0.40000000000E+03 0. -1.
<mgrwt>
<rscale>  2 0.41893483E+03</rscale>
<asrwt>0</asrwt>
<pdfrwt beam="1">  1       21 0.77498762E-01 0.41893483E+03</pdfrwt>
<pdfrwt beam="2">  1       21 0.68647746E-01 0.41893483E+03</pdfrwt>
<totfact> 0.25077364E+03</totfact>
</mgrwt>
</event>
<event>
 4    1  0.8722554E-003  0.5743179E+03  0.7818608E-02  0.9960169E-01
         21   -1    0    0  503  502  0.00000000000E+00  0.00000000000E+00  0.13181712834E+04  0.13181712834E+04  0.00000000000E+00 0.  1.
         21   -1    0    0  501  503 -0.00000000000E+00 -0.00000000000E+00 -0.25436414704E+03  0.25436414704E+03  0.00000000000E+00 0. -1.
    9000005    1    1    2  501    0  0.93701328330E+02 -0.40132424547E+03  0.63218743411E+03  0.85410891623E+03  0.40000000000E+03 0.  1.
   -9000005    1    1    2    0  502 -0.93701328330E+02  0.40132424547E+03  0.43161970221E+03  0.71842651417E+03  0.40000000000E+03 0.  1.
<mgrwt>
<rscale>  2 0.57431793E+03</rscale>
<asrwt>0</asrwt>
<pdfrwt beam="1">  1       21 0.20279558E+00 0.57431793E+03</pdfrwt>
<pdfrwt beam="2">  1       21 0.39132946E-01 0.57431793E+03</pdfrwt>
<totfact> 0.63704612E+02</totfact>
</mgrwt>
</event>
<event>
 4    1  0.8722554E-003  0.4425645E+03  0.7818608E-02  0.1029963E+00
         21   -1    0    0  503  502  0.00000000000E+00  0.00000000000E+00  0.23082924444E+03  0.23082924444E+03  0.00000000000E+00 0.  1.
         21   -1    0    0  501  503 -0.00000000000E+00 -0.00000000000E+00 -0.85032587152E+03  0.85032587152E+03  0.00000000000E+00 0.  1.
    9000005    1    1    2  501    0 -0.12099110777E+03 -0.14568633126E+03 -0.33465659286E+03  0.55484988098E+03  0.40000000000E+03 0.  1.
   -9000005    1    1    2    0  502  0.12099110777E+03  0.14568633126E+03 -0.28484003422E+03  0.52630523498E+03  0.40000000000E+03 0.  1.
<mgrwt>
<rscale>  2 0.44256452E+03</rscale>
<asrwt>0</asrwt>
<pdfrwt beam="1">  1       21 0.35512191E-01 0.44256452E+03</pdfrwt>
<pdfrwt beam="2">  1       21 0.13081936E+00 0.44256452E+03</pdfrwt>
<totfact> 0.28210945E+03</totfact>
</mgrwt>
</event>
<event>
 4    1  0.8722554E-003  0.4887049E+03  0.7818608E-02  0.1016770E+00
         21   -1    0    0  501  502  0.00000000000E+00  0.00000000000E+00  0.42845497909E+03  0.42845497909E+03  0.00000000000E+00 0.  1.
         21   -1    0    0  502  503 -0.00000000000E+00 -0.00000000000E+00 -0.60831383007E+03  0.60831383007E+03  0.00000000000E+00 0.  1.
    9000005    1    1    2  501    0  0.19055446380E+03  0.20620730395E+03  0.60001065112E+02  0.49237443444E+03  0.40000000000E+03 0.  1.
   -9000005    1    1    2    0  503 -0.19055446380E+03 -0.20620730395E+03 -0.23985991609E+03  0.54439437472E+03  0.40000000000E+03 0.  1.
<mgrwt>
<rscale>  2 0.48870488E+03</rscale>
<asrwt>0</asrwt>
<pdfrwt beam="1">  1       21 0.65916151E-01 0.48870488E+03</pdfrwt>
<pdfrwt beam="2">  1       21 0.93586743E-01 0.48870488E+03</pdfrwt>
<totfact> 0.17204709E+03</totfact>
</mgrwt>
</event>
<event>
 4    1  0.8722554E-003  0.4594066E+03  0.7818608E-02  0.1024953E+00
         21   -1    0    0  503  502  0.00000000000E+00  0.00000000000E+00  0.53895387766E+03  0.53895387766E+03  0.00000000000E+00 0.  1.
         21   -1    0    0  501  503 -0.00000000000E+00 -0.00000000000E+00 -0.39721386900E+03  0.39721386900E+03  0.00000000000E+00 0. -1.
    9000005    1    1    2  501    0  0.17187909466E+03  0.14666983531E+03  0.15224046475E+02  0.45965882496E+03  0.40000000000E+03 0.  1.
   -9000005    1    1    2    0  502 -0.17187909466E+03 -0.14666983531E+03  0.12651596219E+03  0.47650892170E+03  0.40000000000E+03 0.  1.
<mgrwt>
<rscale>  2 0.45940664E+03</rscale>
<asrwt>0</asrwt>
<pdfrwt beam="1">  1       21 0.82915982E-01 0.45940664E+03</pdfrwt>
<pdfrwt beam="2">  1       21 0.61109826E-01 0.45940664E+03</pdfrwt>
<totfact> 0.27361240E+03</totfact>
</mgrwt>
</event>
<event>
 4    1  0.8722554E-003  0.4181492E+03  0.7818608E-02  0.1037670E+00
         21   -1    0    0  503  502  0.00000000000E+00  0.00000000000E+00  0.73590779049E+03  0.73590779049E+03  0.00000000000E+00 0. -1.
         21   -1    0    0  501  503 -0.00000000000E+00 -0.00000000000E+00 -0.25165955981E+03  0.25165955981E+03  0.00000000000E+00 0. -1.
    9000005    1    1    2  501    0  0.11536176724E+03 -0.39247793903E+02  0.12539529987E+03  0.43654634106E+03  0.40000000000E+03 0. -1.
   -9000005    1    1    2    0  502 -0.11536176724E+03  0.39247793903E+02  0.35885293081E+03  0.55102100923E+03  0.40000000000E+03 0. -1.
<mgrwt>
<rscale>  2 0.41814917E+03</rscale>
<asrwt>0</asrwt>
<pdfrwt beam="1">  1       21 0.11321658E+00 0.41814917E+03</pdfrwt>
<pdfrwt beam="2">  1       21 0.38716856E-01 0.41814917E+03</pdfrwt>
<totfact> 0.34497343E+03</totfact>
</mgrwt>
</event>
<event>
 4    1  0.8722554E-003  0.7829238E+03  0.7818608E-02  0.9585069E-01
         21   -1    0    0  501  502  0.00000000000E+00  0.00000000000E+00  0.54694747479E+03  0.54694747479E+03  0.00000000000E+00 0.  1.
         21   -1    0    0  502  503 -0.00000000000E+00 -0.00000000000E+00 -0.11681117560E+04  0.11681117560E+04  0.00000000000E+00 0. -1.
    9000005    1    1    2  501    0  0.65252545812E+03  0.16486407766E+03 -0.13783811727E+03  0.79496476914E+03  0.40000000000E+03 0.  1.
   -9000005    1    1    2    0  503 -0.65252545812E+03 -0.16486407766E+03 -0.48332616392E+03  0.92009446164E+03  0.40000000000E+03 0. -1.
<mgrwt>
<rscale>  2 0.78292378E+03</rscale>
<asrwt>0</asrwt>
<pdfrwt beam="1">  1       21 0.84145766E-01 0.78292378E+03</pdfrwt>
<pdfrwt beam="2">  1       21 0.17970950E+00 0.78292378E+03</pdfrwt>
<totfact> 0.15959215E+02</totfact>
</mgrwt>
</event>
<event>
 4    1  0.8722554E-003  0.1193694E+04  0.7818608E-02  0.9118395E-01
         21   -1    0    0  503  502  0.00000000000E+00  0.00000000000E+00  0.17388753378E+04  0.17388753378E+04  0.00000000000E+00 0. -1.
         21   -1    0    0  501  503 -0.00000000000E+00 -0.00000000000E+00 -0.92119532736E+03  0.92119532736E+03  0.00000000000E+00 0.  1.
    9000005    1    1    2  501    0 -0.31591746697E+03  0.10793981331E+04 -0.33204183799E+02  0.11941552217E+04  0.40000000000E+03 0.  1.
   -9000005    1    1    2    0  502  0.31591746697E+03 -0.10793981331E+04  0.85088419428E+03  0.14659154436E+04  0.40000000000E+03 0. -1.
<mgrwt>
<rscale>  2 0.11936935E+04</rscale>
<asrwt>0</asrwt>
<pdfrwt beam="1">  1       21 0.26751928E+00 0.11936935E+04</pdfrwt>
<pdfrwt beam="2">  1       21 0.14172236E+00 0.11936935E+04</pdfrwt>
<totfact> 0.99617807E+00</totfact>
</mgrwt>
</event>
<event>
 4    1  0.8722554E-003  0.4416209E+03  0.7818608E-02  0.1030251E+00
         21   -1    0    0  503  502  0.00000000000E+00  0.00000000000E+00  0.17483171783E+03  0.17483171783E+03  0.00000000000E+00 0.  1.
         21   -1    0    0  501  503 -0.00000000000E+00 -0.00000000000E+00 -0.13909121678E+04  0.13909121678E+04  0.00000000000E+00 0. -1.
    9000005    1    1    2  501    0 -0.12302546864E+02 -0.18675570355E+03 -0.95638813236E+03  0.10534264593E+04  0.40000000000E+03 0. -1.
   -9000005    1    1    2    0  502  0.12302546864E+02  0.18675570355E+03 -0.25969231758E+03  0.51231742629E+03  0.40000000000E+03 0.  1.
<mgrwt>
<rscale>  2 0.44162093E+03</rscale>
<asrwt>0</asrwt>
<pdfrwt beam="1">  1       21 0.26897188E-01 0.44162093E+03</pdfrwt>
<pdfrwt beam="2">  1       21 0.21398648E+00 0.44162093E+03</pdfrwt>
<totfact> 0.12078585E+03</totfact>
</mgrwt>
</event>
<event>
 4    1  0.8722554E-003  0.6647180E+03  0.7818608E-02  0.9779547E-01
         21   -1    0    0  501  502  0.00000000000E+00  0.00000000000E+00  0.40488569316E+03  0.40488569316E+03  0.00000000000E+00 0. -1.
         21   -1    0    0  502  503 -0.00000000000E+00 -0.00000000000E+00 -0.12765781599E+04  0.12765781599E+04  0.00000000000E+00 0. -1.
    9000005    1    1    2  501    0  0.44640755534E+03 -0.28735052093E+03 -0.11555064579E+03  0.67468657841E+03  0.40000000000E+03 0. -1.
   -9000005    1    1    2    0  503 -0.44640755534E+03  0.28735052093E+03 -0.75614182095E+03  0.10067772746E+04  0.40000000000E+03 0. -1.
<mgrwt>
<rscale>  2 0.66471801E+03</rscale>
<asrwt>0</asrwt>
<pdfrwt beam="1">  1       21 0.62290107E-01 0.66471801E+03</pdfrwt>
<pdfrwt beam="2">  1       21 0.19639664E+00 0.66471801E+03</pdfrwt>
<totfact> 0.25208414E+02</totfact>
</mgrwt>
</event>
<event>
 4    1  0.8722554E-003  0.5043337E+03  0.7818608E-02  0.1012654E+00
         21   -1    0    0  503  502  0.00000000000E+00  0.00000000000E+00  0.34565292637E+03  0.34565292637E+03  0.00000000000E+00 0.  1.
         21   -1    0    0  501  503 -0.00000000000E+00 -0.00000000000E+00 -0.76404272865E+03  0.76404272865E+03  0.00000000000E+00 0.  1.
    9000005    1    1    2  501    0 -0.28958387453E+03  0.10243872523E+03 -0.10263378156E+03  0.51467096861E+03  0.40000000000E+03 0.  1.
   -9000005    1    1    2    0  502  0.28958387453E+03 -0.10243872523E+03 -0.31575602072E+03  0.59502468641E+03  0.40000000000E+03 0.  1.
<mgrwt>
<rscale>  2 0.50433373E+03</rscale>
<asrwt>0</asrwt>
<pdfrwt beam="1">  1       21 0.53177374E-01 0.50433373E+03</pdfrwt>
<pdfrwt beam="2">  1       21 0.11754503E+00 0.50433373E+03</pdfrwt>
<totfact> 0.15631601E+03</totfact>
</mgrwt>
</event>
<event>
 4    1  0.8722554E-003  0.4888747E+03  0.7818608E-02  0.1016724E+00
         21   -1    0    0  501  502  0.00000000000E+00  0.00000000000E+00  0.14259465824E+03  0.14259465824E+03  0.00000000000E+00 0. -1.
         21   -1    0    0  502  503 -0.00000000000E+00 -0.00000000000E+00 -0.18186832462E+04  0.18186832462E+04  0.00000000000E+00 0. -1.
    9000005    1    1    2  501    0 -0.13370394657E+02 -0.28074846054E+03 -0.56343686426E+03  0.74596217435E+03  0.40000000000E+03 0. -1.
   -9000005    1    1    2    0  503  0.13370394657E+02  0.28074846054E+03 -0.11126517237E+04  0.12153157301E+04  0.40000000000E+03 0. -1.
<mgrwt>
<rscale>  2 0.48887469E+03</rscale>
<asrwt>0</asrwt>
<pdfrwt beam="1">  1       21 0.21937640E-01 0.48887469E+03</pdfrwt>
<pdfrwt beam="2">  1       21 0.27979742E+00 0.48887469E+03</pdfrwt>
<totfact> 0.68537926E+02</totfact>
</mgrwt>
</event>
<event>
 4    1  0.8722554E-003  0.4555430E+03  0.7818608E-02  0.1026082E+00
         21   -1    0    0  503  502  0.00000000000E+00  0.00000000000E+00  0.26292910272E+04  0.26292910272E+04  0.00000000000E+00 0.  1.
         21   -1    0    0  501  503 -0.00000000000E+00 -0.00000000000E+00 -0.10591353785E+03  0.10591353785E+03  0.00000000000E+00 0.  1.
    9000005    1    1    2  501    0 -0.19214879040E+03  0.10294785634E+03  0.57134447154E+03  0.73072150915E+03  0.40000000000E+03 0.  1.
   -9000005    1    1    2    0  502  0.19214879040E+03 -0.10294785634E+03  0.19520330178E+04  0.20044830559E+04  0.40000000000E+03 0.  1.
<mgrwt>
<rscale>  2 0.45554299E+03</rscale>
<asrwt>0</asrwt>
<pdfrwt beam="1">  1       21 0.40450626E+00 0.45554299E+03</pdfrwt>
<pdfrwt beam="2">  1       21 0.16294393E-01 0.45554299E+03</pdfrwt>
<totfact> 0.20937245E+02</totfact>
</mgrwt>
</event>
<event>
 4    1  0.8722554E-003  0.4164320E+03  0.7818608E-02  0.1038234E+00
         21   -1    0    0  503  502  0.00000000000E+00  0.00000000000E+00  0.97030295389E+02  0.97030295389E+02  0.00000000000E+00 0. -1.
         21   -1    0    0  501  503 -0.00000000000E+00 -0.00000000000E+00 -0.17881369169E+04  0.17881369169E+04  0.00000000000E+00 0. -1.
    9000005    1    1    2  501    0  0.10364549478E+03 -0.51703582892E+02 -0.82434903781E+03  0.92356211768E+03  0.40000000000E+03 0. -1.
   -9000005    1    1    2    0  502 -0.10364549478E+03  0.51703582892E+02 -0.86675758367E+03  0.96160509458E+03  0.40000000000E+03 0. -1.
<mgrwt>
<rscale>  2 0.41643205E+03</rscale>
<asrwt>0</asrwt>
<pdfrwt beam="1">  1       21 0.14927737E-01 0.41643205E+03</pdfrwt>
<pdfrwt beam="2">  1       21 0.27509799E+00 0.41643205E+03</pdfrwt>
<totfact> 0.15700381E+03</totfact>
</mgrwt>
</event>
<event>
 4    1  0.8722554E-003  0.4063762E+03  0.7818608E-02  0.1041594E+00
         21   -1    0    0  503  502  0.00000000000E+00  0.00000000000E+00  0.41618099069E+03  0.41618099069E+03  0.00000000000E+00 0.  1.
         21   -1    0    0  501  503 -0.00000000000E+00 -0.00000000000E+00 -0.40166084762E+03  0.40166084762E+03  0.00000000000E+00 0.  1.
    9000005    1    1    2  501    0 -0.50112494106E+02  0.51287057135E+02  0.52233649823E+02  0.40971938991E+03  0.40000000000E+03 0.  1.
   -9000005    1    1    2    0  502  0.50112494106E+02 -0.51287057135E+02 -0.37713506755E+02  0.40812244840E+03  0.40000000000E+03 0.  1.
<mgrwt>
<rscale>  2 0.40637621E+03</rscale>
<asrwt>0</asrwt>
<pdfrwt beam="1">  1       21 0.64027844E-01 0.40637621E+03</pdfrwt>
<pdfrwt beam="2">  1       21 0.61793977E-01 0.40637621E+03</pdfrwt>
<totfact> 0.48901304E+03</totfact>
</mgrwt>
</event>
<event>
 4    1  0.8722554E-003  0.4776070E+03  0.7818608E-02  0.1019795E+00
         21   -1    0    0  501  502  0.00000000000E+00  0.00000000000E+00  0.13342166764E+04  0.13342166764E+04  0.00000000000E+00 0. -1.
         21   -1    0    0  502  503 -0.00000000000E+00 -0.00000000000E+00 -0.24909059984E+03  0.24909059984E+03  0.00000000000E+00 0. -1.
    9000005    1    1    2  501    0  0.21286576897E+03 -0.15098547443E+03  0.98591097758E+03  0.10955039502E+04  0.40000000000E+03 0. -1.
   -9000005    1    1    2    0  503 -0.21286576897E+03  0.15098547443E+03  0.99215099000E+02  0.48780332610E+03  0.40000000000E+03 0. -1.
<mgrwt>
<rscale>  2 0.47760700E+03</rscale>
<asrwt>0</asrwt>
<pdfrwt beam="1">  1       21 0.20526410E+00 0.47760700E+03</pdfrwt>
<pdfrwt beam="2">  1       21 0.38321632E-01 0.47760700E+03</pdfrwt>
<totfact> 0.66620872E+02</totfact>
</mgrwt>
</event>
<event>
 4    1  0.8722554E-003  0.4961114E+03  0.7818608E-02  0.1014799E+00
         21   -1    0    0  501  502  0.00000000000E+00  0.00000000000E+00  0.27512976841E+03  0.27512976841E+03  0.00000000000E+00 0. -1.
         21   -1    0    0  502  503 -0.00000000000E+00 -0.00000000000E+00 -0.90498421335E+03  0.90498421335E+03  0.00000000000E+00 0. -1.
    9000005    1    1    2  501    0 -0.21481950840E+03 -0.19994778416E+03 -0.25167059204E+03  0.55629544711E+03  0.40000000000E+03 0. -1.
   -9000005    1    1    2    0  503  0.21481950840E+03  0.19994778416E+03 -0.37818385291E+03  0.62381853465E+03  0.40000000000E+03 0. -1.
<mgrwt>
<rscale>  2 0.49611142E+03</rscale>
<asrwt>0</asrwt>
<pdfrwt beam="1">  1       21 0.42327657E-01 0.49611142E+03</pdfrwt>
<pdfrwt beam="2">  1       21 0.13922834E+00 0.49611142E+03</pdfrwt>
<totfact> 0.16374620E+03</totfact>
</mgrwt>
</event>
<event>
 4    1  0.8722554E-003  0.4345315E+03  0.7818608E-02  0.1032438E+00
         21   -1    0    0  503  502  0.00000000000E+00  0.00000000000E+00  0.62485395731E+03  0.62485395731E+03  0.00000000000E+00 0. -1.
         21   -1    0    0  501  503 -0.00000000000E+00 -0.00000000000E+00 -0.33902532041E+03  0.33902532041E+03  0.00000000000E+00 0. -1.
    9000005    1    1    2  501    0 -0.16752169809E+03 -0.27460749518E+02 -0.15967750400E+02  0.43482477062E+03  0.40000000000E+03 0. -1.
   -9000005    1    1    2    0  502  0.16752169809E+03  0.27460749518E+02  0.30179638730E+03  0.52905450710E+03  0.40000000000E+03 0. -1.
<mgrwt>
<rscale>  2 0.43453149E+03</rscale>
<asrwt>0</asrwt>
<pdfrwt beam="1">  1       21 0.96131378E-01 0.43453149E+03</pdfrwt>
<pdfrwt beam="2">  1       21 0.52157742E-01 0.43453149E+03</pdfrwt>
<totfact> 0.27439790E+03</totfact>
</mgrwt>
</event>
<event>
 4    1  0.8722554E-003  0.4636282E+03  0.7818608E-02  0.1023734E+00
         21   -1    0    0  503  502  0.00000000000E+00  0.00000000000E+00  0.17187032937E+03  0.17187032937E+03  0.00000000000E+00 0. -1.
         21   -1    0    0  501  503 -0.00000000000E+00 -0.00000000000E+00 -0.13541726409E+04  0.13541726409E+04  0.00000000000E+00 0. -1.
    9000005    1    1    2  501    0 -0.54272147287E+02  0.22804755470E+03 -0.80211051553E+03  0.92646232103E+03  0.40000000000E+03 0. -1.
   -9000005    1    1    2    0  502  0.54272147287E+02 -0.22804755470E+03 -0.38019179598E+03  0.59958064921E+03  0.40000000000E+03 0. -1.
<mgrwt>
<rscale>  2 0.46362825E+03</rscale>
<asrwt>0</asrwt>
<pdfrwt beam="1">  1       21 0.26441589E-01 0.46362825E+03</pdfrwt>
<pdfrwt beam="2">  1       21 0.20833425E+00 0.46362825E+03</pdfrwt>
<totfact> 0.13458471E+03</totfact>
</mgrwt>
</event>
<event>
 4    1  0.8722554E-003  0.4414227E+03  0.7818608E-02  0.1030311E+00
         21   -1    0    0  503  502  0.00000000000E+00  0.00000000000E+00  0.14679270004E+04  0.14679270004E+04  0.00000000000E+00 0.  1.
         21   -1    0    0  501  503 -0.00000000000E+00 -0.00000000000E+00 -0.13649400282E+03  0.13649400282E+03  0.00000000000E+00 0.  1.
    9000005    1    1    2  501    0  0.64630160890E+02 -0.17514832784E+03  0.53269400554E+03  0.69182143504E+03  0.40000000000E+03 0. -1.
   -9000005    1    1    2    0  502 -0.64630160890E+02  0.17514832784E+03  0.79873899202E+03  0.91259956817E+03  0.40000000000E+03 0. -1.
<mgrwt>
<rscale>  2 0.44142269E+03</rscale>
<asrwt>0</asrwt>
<pdfrwt beam="1">  1       21 0.22583491E+00 0.44142269E+03</pdfrwt>
<pdfrwt beam="2">  1       21 0.20999078E-01 0.44142269E+03</pdfrwt>
<totfact> 0.16382400E+03</totfact>
</mgrwt>
</event>
<event>
 4    1  0.8722554E-003  0.5145625E+03  0.7818608E-02  0.1010046E+00
         21   -1    0    0  503  502  0.00000000000E+00  0.00000000000E+00  0.41279503974E+03  0.41279503974E+03  0.00000000000E+00 0. -1.
         21   -1    0    0  501  503 -0.00000000000E+00 -0.00000000000E+00 -0.82523682882E+03  0.82523682882E+03  0.00000000000E+00 0.  1.
    9000005    1    1    2  501    0 -0.12332147773E+03 -0.29927642268E+03 -0.49837123314E+03  0.71634380716E+03  0.40000000000E+03 0.  1.
   -9000005    1    1    2    0  502  0.12332147773E+03  0.29927642268E+03  0.85929444065E+02  0.52168806139E+03  0.40000000000E+03 0. -1.
<mgrwt>
<rscale>  2 0.51456250E+03</rscale>
<asrwt>0</asrwt>
<pdfrwt beam="1">  1       21 0.63506929E-01 0.51456250E+03</pdfrwt>
<pdfrwt beam="2">  1       21 0.12695951E+00 0.51456250E+03</pdfrwt>
<totfact> 0.86712620E+02</totfact>
</mgrwt>
</event>
<event>
 4    1  0.8722554E-003  0.5038995E+03  0.7818608E-02  0.1012766E+00
         21   -1    0    0  503  502  0.00000000000E+00  0.00000000000E+00  0.15029385584E+04  0.15029385584E+04  0.00000000000E+00 0.  1.
         21   -1    0    0  501  503 -0.00000000000E+00 -0.00000000000E+00 -0.28504048085E+03  0.28504048085E+03  0.00000000000E+00 0.  1.
    9000005    1    1    2  501    0  0.23483930411E+02 -0.30555396448E+03  0.38409349498E+02  0.50536125527E+03  0.40000000000E+03 0.  1.
   -9000005    1    1    2    0  502 -0.23483930411E+02  0.30555396448E+03  0.11794887281E+04  0.12826177840E+04  0.40000000000E+03 0.  1.
<mgrwt>
<rscale>  2 0.50389951E+03</rscale>
<asrwt>0</asrwt>
<pdfrwt beam="1">  1       21 0.23122131E+00 0.50389951E+03</pdfrwt>
<pdfrwt beam="2">  1       21 0.43852382E-01 0.50389951E+03</pdfrwt>
<totfact> 0.33862956E+02</totfact>
</mgrwt>
</event>
<event>
 4    1  0.8722554E-003  0.4111011E+03  0.7818608E-02  0.1040002E+00
         21   -1    0    0  503  502  0.00000000000E+00  0.00000000000E+00  0.13682167344E+03  0.13682167344E+03  0.00000000000E+00 0.  1.
         21   -1    0    0  501  503 -0.00000000000E+00 -0.00000000000E+00 -0.12527612329E+04  0.12527612329E+04  0.00000000000E+00 0.  1.
    9000005    1    1    2  501    0 -0.78471608785E+02  0.53350840158E+02 -0.47574186083E+03  0.62875625140E+03  0.40000000000E+03 0. -1.
   -9000005    1    1    2    0  502  0.78471608785E+02 -0.53350840158E+02 -0.64019769868E+03  0.76082665498E+03  0.40000000000E+03 0. -1.
<mgrwt>
<rscale>  2 0.41110109E+03</rscale>
<asrwt>0</asrwt>
<pdfrwt beam="1">  1       21 0.21049489E-01 0.41110109E+03</pdfrwt>
<pdfrwt beam="2">  1       21 0.19273249E+00 0.41110109E+03</pdfrwt>
<totfact> 0.27189497E+03</totfact>
</mgrwt>
</event>
<event>
 4    1  0.8722554E-003  0.4364814E+03  0.7818608E-02  0.1031832E+00
         21   -1    0    0  503  502  0.00000000000E+00  0.00000000000E+00  0.49274946619E+03  0.49274946619E+03  0.00000000000E+00 0. -1.
         21   -1    0    0  501  503 -0.00000000000E+00 -0.00000000000E+00 -0.46635206666E+03  0.46635206666E+03  0.00000000000E+00 0.  1.
    9000005    1    1    2  501    0  0.64982429291E+02 -0.16215219604E+03 -0.18506490753E+03  0.47409394723E+03  0.40000000000E+03 0. -1.
   -9000005    1    1    2    0  502 -0.64982429291E+02  0.16215219604E+03  0.21146230707E+03  0.48500758562E+03  0.40000000000E+03 0. -1.
<mgrwt>
<rscale>  2 0.43648144E+03</rscale>
<asrwt>0</asrwt>
<pdfrwt beam="1">  1       21 0.75807610E-01 0.43648144E+03</pdfrwt>
<pdfrwt beam="2">  1       21 0.71746472E-01 0.43648144E+03</pdfrwt>
<totfact> 0.23721503E+03</totfact>
</mgrwt>
</event>
<event>
 4    1  0.8722554E-003  0.6325652E+03  0.7818608E-02  0.9840056E-01
         21   -1    0    0  501  502  0.00000000000E+00  0.00000000000E+00  0.10786047973E+04  0.10786047973E+04  0.00000000000E+00 0. -1.
         21   -1    0    0  502  503 -0.00000000000E+00 -0.00000000000E+00 -0.56577407843E+03  0.56577407843E+03  0.00000000000E+00 0. -1.
    9000005    1    1    2  501    0  0.41337672799E+03  0.26317001256E+03  0.73885206905E+03  0.97264646954E+03  0.40000000000E+03 0. -1.
   -9000005    1    1    2    0  503 -0.41337672799E+03 -0.26317001256E+03 -0.22602135020E+03  0.67173240617E+03  0.40000000000E+03 0. -1.
<mgrwt>
<rscale>  2 0.63256523E+03</rscale>
<asrwt>0</asrwt>
<pdfrwt beam="1">  1       21 0.16593920E+00 0.63256523E+03</pdfrwt>
<pdfrwt beam="2">  1       21 0.87042166E-01 0.63256523E+03</pdfrwt>
<totfact> 0.19507099E+02</totfact>
</mgrwt>
</event>
<event>
 4    1  0.8722554E-003  0.5847842E+03  0.7818608E-02  0.9937487E-01
         21   -1    0    0  501  502  0.00000000000E+00  0.00000000000E+00  0.75672076102E+03  0.75672076102E+03  0.00000000000E+00 0. -1.
         21   -1    0    0  502  503 -0.00000000000E+00 -0.00000000000E+00 -0.56600522243E+03  0.56600522243E+03  0.00000000000E+00 0.  1.
    9000005    1    1    2  501    0  0.38375910845E+03  0.18628351951E+03  0.39228911456E+03  0.70417565448E+03  0.40000000000E+03 0. -1.
   -9000005    1    1    2    0  503 -0.38375910845E+03 -0.18628351951E+03 -0.20157357596E+03  0.61855032898E+03  0.40000000000E+03 0.  1.
<mgrwt>
<rscale>  2 0.58478424E+03</rscale>
<asrwt>0</asrwt>
<pdfrwt beam="1">  1       21 0.11641858E+00 0.58478424E+03</pdfrwt>
<pdfrwt beam="2">  1       21 0.87077726E-01 0.58478424E+03</pdfrwt>
<totfact> 0.51281563E+02</totfact>
</mgrwt>
</event>
<event>
 4    1  0.8722554E-003  0.4691728E+03  0.7818608E-02  0.1022154E+00
         21   -1    0    0  503  502  0.00000000000E+00  0.00000000000E+00  0.72698382482E+03  0.72698382482E+03  0.00000000000E+00 0.  1.
         21   -1    0    0  501  503 -0.00000000000E+00 -0.00000000000E+00 -0.33637704655E+03  0.33637704655E+03  0.00000000000E+00 0.  1.
    9000005    1    1    2  501    0 -0.87477755733E+02 -0.22906497625E+03  0.36330992577E+03  0.59339466062E+03  0.40000000000E+03 0.  1.
   -9000005    1    1    2    0  502  0.87477755733E+02  0.22906497625E+03  0.27296852498E+02  0.46996621075E+03  0.40000000000E+03 0.  1.
<mgrwt>
<rscale>  2 0.46917281E+03</rscale>
<asrwt>0</asrwt>
<pdfrwt beam="1">  1       21 0.11184366E+00 0.46917281E+03</pdfrwt>
<pdfrwt beam="2">  1       21 0.51750315E-01 0.46917281E+03</pdfrwt>
<totfact> 0.19007926E+03</totfact>
</mgrwt>
</event>
<event>
 4    1  0.8722554E-003  0.5035900E+03  0.7818608E-02  0.1012846E+00
         21   -1    0    0  501  502  0.00000000000E+00  0.00000000000E+00  0.51160585703E+03  0.51160585703E+03  0.00000000000E+00 0. -1.
         21   -1    0    0  502  503 -0.00000000000E+00 -0.00000000000E+00 -0.54590935785E+03  0.54590935785E+03  0.00000000000E+00 0. -1.
    9000005    1    1    2  501    0  0.26431228537E+03  0.15408401276E+03  0.14320602128E+03  0.52355594899E+03  0.40000000000E+03 0. -1.
   -9000005    1    1    2    0  503 -0.26431228537E+03 -0.15408401276E+03 -0.17750952210E+03  0.53395926589E+03  0.40000000000E+03 0. -1.
<mgrwt>
<rscale>  2 0.50358998E+03</rscale>
<asrwt>0</asrwt>
<pdfrwt beam="1">  1       21 0.78708594E-01 0.50358998E+03</pdfrwt>
<pdfrwt beam="2">  1       21 0.83986055E-01 0.50358998E+03</pdfrwt>
<totfact> 0.14785810E+03</totfact>
</mgrwt>
</event>
<event>
 4    1  0.8722554E-003  0.7421175E+03  0.7818608E-02  0.9647798E-01
         21   -1    0    0  503  502  0.00000000000E+00  0.00000000000E+00  0.44814065731E+03  0.44814065731E+03  0.00000000000E+00 0.  1.
         21   -1    0    0  501  503 -0.00000000000E+00 -0.00000000000E+00 -0.12714923476E+04  0.12714923476E+04  0.00000000000E+00 0. -1.
    9000005    1    1    2  501    0  0.62351273302E+03  0.44387936165E+02 -0.56896749909E+03  0.93512696044E+03  0.40000000000E+03 0. -1.
   -9000005    1    1    2    0  502 -0.62351273302E+03 -0.44387936165E+02 -0.25438419123E+03  0.78450604450E+03  0.40000000000E+03 0. -1.
<mgrwt>
<rscale>  2 0.74211752E+03</rscale>
<asrwt>0</asrwt>
<pdfrwt beam="1">  1       21 0.68944715E-01 0.74211752E+03</pdfrwt>
<pdfrwt beam="2">  1       21 0.19561421E+00 0.74211752E+03</pdfrwt>
<totfact> 0.19811381E+02</totfact>
</mgrwt>
</event>
<event>
 4    1  0.8722554E-003  0.4003020E+03  0.7818608E-02  0.1043675E+00
         21   -1    0    0  503  502  0.00000000000E+00  0.00000000000E+00  0.60893382531E+03  0.60893382531E+03  0.00000000000E+00 0. -1.
         21   -1    0    0  501  503 -0.00000000000E+00 -0.00000000000E+00 -0.26368500375E+03  0.26368500375E+03  0.00000000000E+00 0. -1.
    9000005    1    1    2  501    0  0.81007681208E+01  0.13268809919E+02  0.15299390980E+03  0.42854267022E+03  0.40000000000E+03 0.  1.
   -9000005    1    1    2    0  502 -0.81007681208E+01 -0.13268809919E+02  0.19225491175E+03  0.44407615884E+03  0.40000000000E+03 0.  1.
<mgrwt>
<rscale>  2 0.40030199E+03</rscale>
<asrwt>0</asrwt>
<pdfrwt beam="1">  1       21 0.93682126E-01 0.40030199E+03</pdfrwt>
<pdfrwt beam="2">  1       21 0.40566924E-01 0.40030199E+03</pdfrwt>
<totfact> 0.50094532E+03</totfact>
</mgrwt>
</event>
<event>
 4    1  0.8722554E-003  0.4252797E+03  0.7818608E-02  0.1035362E+00
         21   -1    0    0  501  502  0.00000000000E+00  0.00000000000E+00  0.20557282492E+03  0.20557282492E+03  0.00000000000E+00 0.  1.
         21   -1    0    0  502  503 -0.00000000000E+00 -0.00000000000E+00 -0.12299658990E+04  0.12299658990E+04  0.00000000000E+00 0. -1.
    9000005    1    1    2  501    0 -0.14276757288E+03  0.21914036830E+02 -0.12921678969E+03  0.44447697760E+03  0.40000000000E+03 0.  1.
   -9000005    1    1    2    0  503  0.14276757288E+03 -0.21914036830E+02 -0.89517628441E+03  0.99106174633E+03  0.40000000000E+03 0. -1.
<mgrwt>
<rscale>  2 0.42527968E+03</rscale>
<asrwt>0</asrwt>
<pdfrwt beam="1">  1       21 0.31626587E-01 0.42527968E+03</pdfrwt>
<pdfrwt beam="2">  1       21 0.18922553E+00 0.42527968E+03</pdfrwt>
<totfact> 0.12897840E+03</totfact>
</mgrwt>
</event>
<event>
 4    1  0.8722554E-003  0.4961278E+03  0.7818608E-02  0.1014795E+00
         21   -1    0    0  501  502  0.00000000000E+00  0.00000000000E+00  0.51036378043E+03  0.51036378043E+03  0.00000000000E+00 0. -1.
         21   -1    0    0  502  503 -0.00000000000E+00 -0.00000000000E+00 -0.48261734082E+03  0.48261734082E+03  0.00000000000E+00 0.  1.
    9000005    1    1    2  501    0  0.23413121149E+03 -0.17698987060E+03  0.92319990695E+00  0.49612870385E+03  0.40000000000E+03 0.  1.
   -9000005    1    1    2    0  503 -0.23413121149E+03  0.17698987060E+03  0.26823239707E+02  0.49685241740E+03  0.40000000000E+03 0.  1.
<mgrwt>
<rscale>  2 0.49612784E+03</rscale>
<asrwt>0</asrwt>
<pdfrwt beam="1">  1       21 0.78517505E-01 0.49612784E+03</pdfrwt>
<pdfrwt beam="2">  1       21 0.74248822E-01 0.49612784E+03</pdfrwt>
<totfact> 0.19816245E+03</totfact>
</mgrwt>
</event>
<event>
 4    1  0.8722554E-003  0.4272021E+03  0.7818608E-02  0.1034747E+00
         21   -1    0    0  501  502  0.00000000000E+00  0.00000000000E+00  0.63643242246E+03  0.63643242246E+03  0.00000000000E+00 0.  1.
         21   -1    0    0  502  503 -0.00000000000E+00 -0.00000000000E+00 -0.33783663497E+03  0.33783663497E+03  0.00000000000E+00 0.  1.
    9000005    1    1    2  501    0  0.23142175861E+02 -0.14820956623E+03  0.33871456859E+03  0.54518730250E+03  0.40000000000E+03 0.  1.
   -9000005    1    1    2    0  503 -0.23142175861E+02  0.14820956623E+03 -0.40118781100E+02  0.42908175494E+03  0.40000000000E+03 0.  1.
<mgrwt>
<rscale>  2 0.42720210E+03</rscale>
<asrwt>0</asrwt>
<pdfrwt beam="1">  1       21 0.97912680E-01 0.42720210E+03</pdfrwt>
<pdfrwt beam="2">  1       21 0.51974867E-01 0.42720210E+03</pdfrwt>
<totfact> 0.26525432E+03</totfact>
</mgrwt>
</event>
<event>
 4    1  0.8722554E-003  0.4202750E+03  0.7818608E-02  0.1036977E+00
         21   -1    0    0  503  502  0.00000000000E+00  0.00000000000E+00  0.36105753199E+03  0.36105753199E+03  0.00000000000E+00 0.  1.
         21   -1    0    0  501  503 -0.00000000000E+00 -0.00000000000E+00 -0.49019476495E+03  0.49019476495E+03  0.00000000000E+00 0. -1.
    9000005    1    1    2  501    0  0.12831391681E+03 -0.12908744722E+02 -0.45441821461E+02  0.42272456289E+03  0.40000000000E+03 0.  1.
   -9000005    1    1    2    0  502 -0.12831391681E+03  0.12908744722E+02 -0.83695411505E+02  0.42852773404E+03  0.40000000000E+03 0.  1.
<mgrwt>
<rscale>  2 0.42027503E+03</rscale>
<asrwt>0</asrwt>
<pdfrwt beam="1">  1       21 0.55547313E-01 0.42027503E+03</pdfrwt>
<pdfrwt beam="2">  1       21 0.75414579E-01 0.42027503E+03</pdfrwt>
<totfact> 0.42499279E+03</totfact>
</mgrwt>
</event>
<event>
 4    1  0.8722554E-003  0.4275192E+03  0.7818608E-02  0.1034647E+00
         21   -1    0    0  501  502  0.00000000000E+00  0.00000000000E+00  0.11348208793E+04  0.11348208793E+04  0.00000000000E+00 0.  1.
         21   -1    0    0  502  503 -0.00000000000E+00 -0.00000000000E+00 -0.16323291482E+03  0.16323291482E+03  0.00000000000E+00 0.  1.
    9000005    1    1    2  501    0  0.49909803985E+02  0.14241369546E+03  0.56070077018E+03  0.70509432197E+03  0.40000000000E+03 0.  1.
   -9000005    1    1    2    0  503 -0.49909803985E+02 -0.14241369546E+03  0.41088719434E+03  0.59295947219E+03  0.40000000000E+03 0.  1.
<mgrwt>
<rscale>  2 0.42751918E+03</rscale>
<asrwt>0</asrwt>
<pdfrwt beam="1">  1       21 0.17458782E+00 0.42751918E+03</pdfrwt>
<pdfrwt beam="2">  1       21 0.25112757E-01 0.42751918E+03</pdfrwt>
<totfact> 0.25694354E+03</totfact>
</mgrwt>
</event>
<event>
 4    1  0.8722554E-003  0.5452399E+03  0.7818608E-02  0.1002602E+00
         21   -1    0    0  501  502  0.00000000000E+00  0.00000000000E+00  0.12510481831E+04  0.12510481831E+04  0.00000000000E+00 0.  1.
         21   -1    0    0  502  503 -0.00000000000E+00 -0.00000000000E+00 -0.25224022465E+03  0.25224022465E+03  0.00000000000E+00 0.  1.
    9000005    1    1    2  501    0  0.15954977877E+03  0.33441053593E+03  0.68030210952E+03  0.87183570623E+03  0.40000000000E+03 0.  1.
   -9000005    1    1    2    0  503 -0.15954977877E+03 -0.33441053593E+03  0.31850584891E+03  0.63145270151E+03  0.40000000000E+03 0.  1.
<mgrwt>
<rscale>  2 0.54523989E+03</rscale>
<asrwt>0</asrwt>
<pdfrwt beam="1">  1       21 0.19246895E+00 0.54523989E+03</pdfrwt>
<pdfrwt beam="2">  1       21 0.38806189E-01 0.54523989E+03</pdfrwt>
<totfact> 0.76977632E+02</totfact>
</mgrwt>
</event>
<event>
 4    1  0.8722554E-003  0.4167222E+03  0.7818608E-02  0.1038138E+00
         21   -1    0    0  503  502  0.00000000000E+00  0.00000000000E+00  0.57836537271E+03  0.57836537271E+03  0.00000000000E+00 0.  1.
         21   -1    0    0  501  503 -0.00000000000E+00 -0.00000000000E+00 -0.80817123874E+03  0.80817123874E+03  0.00000000000E+00 0. -1.
    9000005    1    1    2  501    0 -0.66539458489E+02 -0.96072325359E+02 -0.66450135944E+03  0.78435925948E+03  0.40000000000E+03 0. -1.
   -9000005    1    1    2    0  502  0.66539458489E+02  0.96072325359E+02  0.43469549341E+03  0.60217735197E+03  0.40000000000E+03 0.  1.
<mgrwt>
<rscale>  2 0.41672220E+03</rscale>
<asrwt>0</asrwt>
<pdfrwt beam="1">  1       21 0.88979288E-01 0.41672220E+03</pdfrwt>
<pdfrwt beam="2">  1       21 0.12433404E+00 0.41672220E+03</pdfrwt>
<totfact> 0.44151328E+02</totfact>
</mgrwt>
</event>
<event>
 4    1  0.8722554E-003  0.4440368E+03  0.7818608E-02  0.1029515E+00
         21   -1    0    0  503  502  0.00000000000E+00  0.00000000000E+00  0.30341946352E+03  0.30341946352E+03  0.00000000000E+00 0. -1.
         21   -1    0    0  501  503 -0.00000000000E+00 -0.00000000000E+00 -0.70457679137E+03  0.70457679137E+03  0.00000000000E+00 0.  1.
    9000005    1    1    2  501    0  0.76136578349E+02 -0.17712126730E+03 -0.34107816574E+03  0.55991341923E+03  0.40000000000E+03 0.  1.
   -9000005    1    1    2    0  502 -0.76136578349E+02  0.17712126730E+03 -0.60079162120E+02  0.44808283566E+03  0.40000000000E+03 0. -1.
<mgrwt>
<rscale>  2 0.44403685E+03</rscale>
<asrwt>0</asrwt>
<pdfrwt beam="1">  1       21 0.46679918E-01 0.44403685E+03</pdfrwt>
<pdfrwt beam="2">  1       21 0.10839643E+00 0.44403685E+03</pdfrwt>
<totfact> 0.25810263E+03</totfact>
</mgrwt>
</event>
<event>
 4    1  0.8722554E-003  0.5459380E+03  0.7818608E-02  0.1002439E+00
         21   -1    0    0  501  502  0.00000000000E+00  0.00000000000E+00  0.43197979026E+03  0.43197979026E+03  0.00000000000E+00 0. -1.
         21   -1    0    0  502  503 -0.00000000000E+00 -0.00000000000E+00 -0.76554277912E+03  0.76554277912E+03  0.00000000000E+00 0. -1.
    9000005    1    1    2  501    0  0.27243520474E+02  0.37054837065E+03  0.21359547405E+02  0.54635568512E+03  0.40000000000E+03 0. -1.
   -9000005    1    1    2    0  503 -0.27243520474E+02 -0.37054837065E+03 -0.35492253627E+03  0.65116688426E+03  0.40000000000E+03 0. -1.
<mgrwt>
<rscale>  2 0.54593800E+03</rscale>
<asrwt>0</asrwt>
<pdfrwt beam="1">  1       21 0.66458430E-01 0.54593800E+03</pdfrwt>
<pdfrwt beam="2">  1       21 0.11777581E+00 0.54593800E+03</pdfrwt>
<totfact> 0.93985265E+02</totfact>
</mgrwt>
</event>
<event>
 4    1  0.8722554E-003  0.4507835E+03  0.7818608E-02  0.1027489E+00
         21   -1    0    0  503  502  0.00000000000E+00  0.00000000000E+00  0.38504868889E+03  0.38504868889E+03  0.00000000000E+00 0.  1.
         21   -1    0    0  501  503 -0.00000000000E+00 -0.00000000000E+00 -0.74593509671E+03  0.74593509671E+03  0.00000000000E+00 0.  1.
    9000005    1    1    2  501    0 -0.91899664670E+02  0.18644092100E+03 -0.48628576062E+03  0.66308340830E+03  0.40000000000E+03 0.  1.
   -9000005    1    1    2    0  502  0.91899664670E+02 -0.18644092100E+03  0.12539935281E+03  0.46790037730E+03  0.40000000000E+03 0.  1.
<mgrwt>
<rscale>  2 0.45078350E+03</rscale>
<asrwt>0</asrwt>
<pdfrwt beam="1">  1       21 0.59238261E-01 0.45078350E+03</pdfrwt>
<pdfrwt beam="2">  1       21 0.11475924E+00 0.45078350E+03</pdfrwt>
<totfact> 0.13402374E+03</totfact>
</mgrwt>
</event>
<event>
 4    1  0.8722554E-003  0.4377107E+03  0.7818608E-02  0.1031452E+00
         21   -1    0    0  503  502  0.00000000000E+00  0.00000000000E+00  0.18928589707E+03  0.18928589707E+03  0.00000000000E+00 0. -1.
         21   -1    0    0  501  503 -0.00000000000E+00 -0.00000000000E+00 -0.10423314259E+04  0.10423314259E+04  0.00000000000E+00 0. -1.
    9000005    1    1    2  501    0  0.62823136981E+02 -0.16626454026E+03 -0.32177963524E+03  0.54326124244E+03  0.40000000000E+03 0.  1.
   -9000005    1    1    2    0  502 -0.62823136981E+02  0.16626454026E+03 -0.53126589355E+03  0.68835608048E+03  0.40000000000E+03 0.  1.
<mgrwt>
<rscale>  2 0.43771069E+03</rscale>
<asrwt>0</asrwt>
<pdfrwt beam="1">  1       21 0.29120908E-01 0.43771069E+03</pdfrwt>
<pdfrwt beam="2">  1       21 0.16035868E+00 0.43771069E+03</pdfrwt>
<totfact> 0.24337752E+03</totfact>
</mgrwt>
</event>
<event>
 4    1  0.8722554E-003  0.5926539E+03  0.7818608E-02  0.9920765E-01
         21   -1    0    0  501  502  0.00000000000E+00  0.00000000000E+00  0.28097779402E+03  0.28097779402E+03  0.00000000000E+00 0.  1.
         21   -1    0    0  502  503 -0.00000000000E+00 -0.00000000000E+00 -0.17963238939E+04  0.17963238939E+04  0.00000000000E+00 0. -1.
    9000005    1    1    2  501    0 -0.12206519183E+03  0.41992699200E+03 -0.18490441640E+03  0.62082866627E+03  0.40000000000E+03 0.  1.
   -9000005    1    1    2    0  503  0.12206519183E+03 -0.41992699200E+03 -0.13304416835E+04  0.14564730216E+04  0.40000000000E+03 0. -1.
<mgrwt>
<rscale>  2 0.59265385E+03</rscale>
<asrwt>0</asrwt>
<pdfrwt beam="1">  1       21 0.43227352E-01 0.59265385E+03</pdfrwt>
<pdfrwt beam="2">  1       21 0.27635753E+00 0.59265385E+03</pdfrwt>
<totfact> 0.17613598E+02</totfact>
</mgrwt>
</event>
<event>
 4    1  0.8722554E-003  0.4417401E+03  0.7818608E-02  0.1030214E+00
         21   -1    0    0  501  502  0.00000000000E+00  0.00000000000E+00  0.68836618399E+03  0.68836618399E+03  0.00000000000E+00 0. -1.
         21   -1    0    0  502  503 -0.00000000000E+00 -0.00000000000E+00 -0.29658600882E+03  0.29658600882E+03  0.00000000000E+00 0. -1.
    9000005    1    1    2  501    0 -0.12068736446E+03 -0.14341861437E+03  0.29943630996E+03  0.53366322958E+03  0.40000000000E+03 0. -1.
   -9000005    1    1    2    0  503  0.12068736446E+03  0.14341861437E+03  0.92343865215E+02  0.45128896323E+03  0.40000000000E+03 0. -1.
<mgrwt>
<rscale>  2 0.44174013E+03</rscale>
<asrwt>0</asrwt>
<pdfrwt beam="1">  1       21 0.10590249E+00 0.44174013E+03</pdfrwt>
<pdfrwt beam="2">  1       21 0.45628617E-01 0.44174013E+03</pdfrwt>
<totfact> 0.28701989E+03</totfact>
</mgrwt>
</event>
<event>
 4    1  0.8722554E-003  0.4055802E+03  0.7818608E-02  0.1041864E+00
         21   -1    0    0  501  502  0.00000000000E+00  0.00000000000E+00  0.13168833214E+03  0.13168833214E+03  0.00000000000E+00 0. -1.
         21   -1    0    0  502  503 -0.00000000000E+00 -0.00000000000E+00 -0.13574350638E+04  0.13574350638E+04  0.00000000000E+00 0.  1.
    9000005    1    1    2  501    0 -0.62693390084E+02 -0.23766960932E+02 -0.40255683566E+03  0.57144320412E+03  0.40000000000E+03 0. -1.
   -9000005    1    1    2    0  503  0.62693390084E+02  0.23766960932E+02 -0.82318989601E+03  0.91768019184E+03  0.40000000000E+03 0.  1.
<mgrwt>
<rscale>  2 0.40558024E+03</rscale>
<asrwt>0</asrwt>
<pdfrwt beam="1">  1       21 0.20259744E-01 0.40558024E+03</pdfrwt>
<pdfrwt beam="2">  1       21 0.20883616E+00 0.40558024E+03</pdfrwt>
<totfact> 0.22927160E+03</totfact>
</mgrwt>
</event>
<event>
 4    1  0.8722554E-003  0.4526521E+03  0.7818608E-02  0.1026934E+00
         21   -1    0    0  503  502  0.00000000000E+00  0.00000000000E+00  0.67988277220E+03  0.67988277220E+03  0.00000000000E+00 0. -1.
         21   -1    0    0  501  503 -0.00000000000E+00 -0.00000000000E+00 -0.30163555880E+03  0.30163555880E+03  0.00000000000E+00 0.  1.
    9000005    1    1    2  501    0 -0.38361272853E+02 -0.20838017737E+03  0.17446617958E+03  0.48511064036E+03  0.40000000000E+03 0. -1.
   -9000005    1    1    2    0  502  0.38361272853E+02  0.20838017737E+03  0.20378103382E+03  0.49640769063E+03  0.40000000000E+03 0. -1.
<mgrwt>
<rscale>  2 0.45265206E+03</rscale>
<asrwt>0</asrwt>
<pdfrwt beam="1">  1       21 0.10459735E+00 0.45265206E+03</pdfrwt>
<pdfrwt beam="2">  1       21 0.46405471E-01 0.45265206E+03</pdfrwt>
<totfact> 0.28447170E+03</totfact>
</mgrwt>
</event>
<event>
 4    1  0.8722554E-003  0.4895821E+03  0.7818608E-02  0.1016534E+00
         21   -1    0    0  503  502  0.00000000000E+00  0.00000000000E+00  0.36585652601E+03  0.36585652601E+03  0.00000000000E+00 0. -1.
         21   -1    0    0  501  503 -0.00000000000E+00 -0.00000000000E+00 -0.65518607091E+03  0.65518607091E+03  0.00000000000E+00 0. -1.
    9000005    1    1    2  501    0  0.27860678289E+03 -0.45484926476E+02 -0.14083608545E+03  0.50943637578E+03  0.40000000000E+03 0. -1.
   -9000005    1    1    2    0  502 -0.27860678289E+03  0.45484926476E+02 -0.14849345945E+03  0.51160622114E+03  0.40000000000E+03 0. -1.
<mgrwt>
<rscale>  2 0.48958209E+03</rscale>
<asrwt>0</asrwt>
<pdfrwt beam="1">  1       21 0.56285620E-01 0.48958209E+03</pdfrwt>
<pdfrwt beam="2">  1       21 0.10079786E+00 0.48958209E+03</pdfrwt>
<totfact> 0.20354609E+03</totfact>
</mgrwt>
</event>
<event>
 4    1  0.8722554E-003  0.4009536E+03  0.7818608E-02  0.1043450E+00
         21   -1    0    0  501  502  0.00000000000E+00  0.00000000000E+00  0.83101541232E+03  0.83101541232E+03  0.00000000000E+00 0. -1.
         21   -1    0    0  502  503 -0.00000000000E+00 -0.00000000000E+00 -0.25082954483E+03  0.25082954483E+03  0.00000000000E+00 0. -1.
    9000005    1    1    2  501    0  0.25579290731E+02 -0.10464932927E+02  0.54879896172E+03  0.67966470802E+03  0.40000000000E+03 0.  1.
   -9000005    1    1    2    0  503 -0.25579290731E+02  0.10464932927E+02  0.31386905764E+02  0.40218024913E+03  0.40000000000E+03 0.  1.
<mgrwt>
<rscale>  2 0.40095363E+03</rscale>
<asrwt>0</asrwt>
<pdfrwt beam="1">  1       21 0.12784852E+00 0.40095363E+03</pdfrwt>
<pdfrwt beam="2">  1       21 0.38589161E-01 0.40095363E+03</pdfrwt>
<totfact> 0.25702697E+03</totfact>
</mgrwt>
</event>
<event>
 4    1  0.8722554E-003  0.5061566E+03  0.7818608E-02  0.1012184E+00
         21   -1    0    0  501  502  0.00000000000E+00  0.00000000000E+00  0.59265357992E+03  0.59265357992E+03  0.00000000000E+00 0.  1.
         21   -1    0    0  502  503 -0.00000000000E+00 -0.00000000000E+00 -0.49254535130E+03  0.49254535130E+03  0.00000000000E+00 0. -1.
    9000005    1    1    2  501    0  0.13738403042E+02 -0.30984800955E+03  0.23984548270E+03  0.56010747925E+03  0.40000000000E+03 0.  1.
   -9000005    1    1    2    0  503 -0.13738403042E+02  0.30984800955E+03 -0.13973725408E+03  0.52509145196E+03  0.40000000000E+03 0. -1.
<mgrwt>
<rscale>  2 0.50615663E+03</rscale>
<asrwt>0</asrwt>
<pdfrwt beam="1">  1       21 0.91177474E-01 0.50615663E+03</pdfrwt>
<pdfrwt beam="2">  1       21 0.75776208E-01 0.50615663E+03</pdfrwt>
<totfact> 0.13278351E+03</totfact>
</mgrwt>
</event>
<event>
 4    1  0.8722554E-003  0.4558940E+03  0.7818608E-02  0.1025979E+00
         21   -1    0    0  501  502  0.00000000000E+00  0.00000000000E+00  0.49090699975E+03  0.49090699975E+03  0.00000000000E+00 0.  1.
         21   -1    0    0  502  503 -0.00000000000E+00 -0.00000000000E+00 -0.57612706381E+03  0.57612706381E+03  0.00000000000E+00 0.  1.
    9000005    1    1    2  501    0 -0.20873321039E+03 -0.65343696452E+02  0.23210223796E+03  0.51157677884E+03  0.40000000000E+03 0.  1.
   -9000005    1    1    2    0  503  0.20873321039E+03  0.65343696452E+02 -0.31732230202E+03  0.55545728472E+03  0.40000000000E+03 0.  1.
<mgrwt>
<rscale>  2 0.45589401E+03</rscale>
<asrwt>0</asrwt>
<pdfrwt beam="1">  1       21 0.75524154E-01 0.45589401E+03</pdfrwt>
<pdfrwt beam="2">  1       21 0.88634932E-01 0.45589401E+03</pdfrwt>
<totfact> 0.14575921E+03</totfact>
</mgrwt>
</event>
<event>
 4    1  0.8722554E-003  0.5652453E+03  0.7818608E-02  0.9980256E-01
         21   -1    0    0  503  502  0.00000000000E+00  0.00000000000E+00  0.83200539695E+03  0.83200539695E+03  0.00000000000E+00 0. -1.
         21   -1    0    0  501  503 -0.00000000000E+00 -0.00000000000E+00 -0.41494126506E+03  0.41494126506E+03  0.00000000000E+00 0. -1.
    9000005    1    1    2  501    0  0.28873042593E+03 -0.27592923894E+03  0.38319645283E+02  0.56654267180E+03  0.40000000000E+03 0. -1.
   -9000005    1    1    2    0  502 -0.28873042593E+03  0.27592923894E+03  0.37874448661E+03  0.68040399021E+03  0.40000000000E+03 0. -1.
<mgrwt>
<rscale>  2 0.56524526E+03</rscale>
<asrwt>0</asrwt>
<pdfrwt beam="1">  1       21 0.12800083E+00 0.56524526E+03</pdfrwt>
<pdfrwt beam="2">  1       21 0.63837118E-01 0.56524526E+03</pdfrwt>
<totfact> 0.82439211E+02</totfact>
</mgrwt>
</event>
<event>
 4    1  0.8722554E-003  0.5335945E+03  0.7818608E-02  0.1005364E+00
         21   -1    0    0  501  502  0.00000000000E+00  0.00000000000E+00  0.35866520775E+03  0.35866520775E+03  0.00000000000E+00 0. -1.
         21   -1    0    0  502  503 -0.00000000000E+00 -0.00000000000E+00 -0.81974280351E+03  0.81974280351E+03  0.00000000000E+00 0. -1.
    9000005    1    1    2  501    0  0.10387001583E+02  0.35300874310E+03 -0.33527428716E+03  0.63018402879E+03  0.40000000000E+03 0. -1.
   -9000005    1    1    2    0  503 -0.10387001583E+02 -0.35300874310E+03 -0.12580330861E+03  0.54822398248E+03  0.40000000000E+03 0. -1.
<mgrwt>
<rscale>  2 0.53359447E+03</rscale>
<asrwt>0</asrwt>
<pdfrwt beam="1">  1       21 0.55179263E-01 0.53359447E+03</pdfrwt>
<pdfrwt beam="2">  1       21 0.12611428E+00 0.53359447E+03</pdfrwt>
<totfact> 0.11929257E+03</totfact>
</mgrwt>
</event>
<event>
 4    1  0.8722554E-003  0.7081104E+03  0.7818608E-02  0.9703462E-01
         21   -1    0    0  503  502  0.00000000000E+00  0.00000000000E+00  0.12757715792E+04  0.12757715792E+04  0.00000000000E+00 0. -1.
         21   -1    0    0  501  503 -0.00000000000E+00 -0.00000000000E+00 -0.41611344411E+03  0.41611344411E+03  0.00000000000E+00 0.  1.
    9000005    1    1    2  501    0 -0.49928972974E+03  0.30352937390E+03  0.23059794798E+03  0.74471184270E+03  0.40000000000E+03 0.  1.
   -9000005    1    1    2    0  502  0.49928972974E+03 -0.30352937390E+03  0.62906018706E+03  0.94717318057E+03  0.40000000000E+03 0. -1.
<mgrwt>
<rscale>  2 0.70811038E+03</rscale>
<asrwt>0</asrwt>
<pdfrwt beam="1">  1       21 0.19627255E+00 0.70811038E+03</pdfrwt>
<pdfrwt beam="2">  1       21 0.64017454E-01 0.70811038E+03</pdfrwt>
<totfact> 0.23421149E+02</totfact>
</mgrwt>
</event>
<event>
 4    1  0.8722554E-003  0.7793226E+03  0.7818608E-02  0.9590439E-01
         21   -1    0    0  503  502  0.00000000000E+00  0.00000000000E+00  0.17950420506E+04  0.17950420506E+04  0.00000000000E+00 0. -1.
         21   -1    0    0  501  503 -0.00000000000E+00 -0.00000000000E+00 -0.38308029843E+03  0.38308029843E+03  0.00000000000E+00 0. -1.
    9000005    1    1    2  501    0  0.25536220583E+03 -0.61816976979E+03  0.33381894428E+03  0.84780823776E+03  0.40000000000E+03 0. -1.
   -9000005    1    1    2    0  502 -0.25536220583E+03  0.61816976979E+03  0.10781428079E+04  0.13303141112E+04  0.40000000000E+03 0. -1.
<mgrwt>
<rscale>  2 0.77932260E+03</rscale>
<asrwt>0</asrwt>
<pdfrwt beam="1">  1       21 0.27616031E+00 0.77932260E+03</pdfrwt>
<pdfrwt beam="2">  1       21 0.58935432E-01 0.77932260E+03</pdfrwt>
<totfact> 0.84379024E+01</totfact>
</mgrwt>
</event>
<event>
 4    1  0.8722554E-003  0.4607883E+03  0.7818608E-02  0.1024553E+00
         21   -1    0    0  503  502  0.00000000000E+00  0.00000000000E+00  0.77409038104E+03  0.77409038104E+03  0.00000000000E+00 0. -1.
         21   -1    0    0  501  503 -0.00000000000E+00 -0.00000000000E+00 -0.29728008883E+03  0.29728008883E+03  0.00000000000E+00 0. -1.
    9000005    1    1    2  501    0  0.13295822618E+03  0.18613958810E+03  0.89438189640E+02  0.46938792691E+03  0.40000000000E+03 0. -1.
   -9000005    1    1    2    0  502 -0.13295822618E+03 -0.18613958810E+03  0.38737210257E+03  0.60198254295E+03  0.40000000000E+03 0. -1.
<mgrwt>
<rscale>  2 0.46078828E+03</rscale>
<asrwt>0</asrwt>
<pdfrwt beam="1">  1       21 0.11909083E+00 0.46078828E+03</pdfrwt>
<pdfrwt beam="2">  1       21 0.45735399E-01 0.46078828E+03</pdfrwt>
<totfact> 0.21168290E+03</totfact>
</mgrwt>
</event>
<event>
 4    1  0.8722554E-003  0.4855755E+03  0.7818608E-02  0.1017614E+00
         21   -1    0    0  501  502  0.00000000000E+00  0.00000000000E+00  0.11068460507E+04  0.11068460507E+04  0.00000000000E+00 0.  1.
         21   -1    0    0  502  503 -0.00000000000E+00 -0.00000000000E+00 -0.25627813081E+03  0.25627813081E+03  0.00000000000E+00 0.  1.
    9000005    1    1    2  501    0 -0.29121884339E+02  0.27374349966E+03  0.70529091798E+03  0.85628200187E+03  0.40000000000E+03 0.  1.
   -9000005    1    1    2    0  503  0.29121884339E+02 -0.27374349966E+03  0.14527700189E+03  0.50684217961E+03  0.40000000000E+03 0.  1.
<mgrwt>
<rscale>  2 0.48557552E+03</rscale>
<asrwt>0</asrwt>
<pdfrwt beam="1">  1       21 0.17028400E+00 0.48557552E+03</pdfrwt>
<pdfrwt beam="2">  1       21 0.39427405E-01 0.48557552E+03</pdfrwt>
<totfact> 0.10934873E+03</totfact>
</mgrwt>
</event>
<event>
 4    1  0.8722554E-003  0.4005812E+03  0.7818608E-02  0.1043579E+00
         21   -1    0    0  503  502  0.00000000000E+00  0.00000000000E+00  0.54754142734E+03  0.54754142734E+03  0.00000000000E+00 0.  1.
         21   -1    0    0  501  503 -0.00000000000E+00 -0.00000000000E+00 -0.40890182903E+03  0.40890182903E+03  0.00000000000E+00 0.  1.
    9000005    1    1    2  501    0 -0.21444506407E+02 -0.23336450027E+01 -0.18521239929E+03  0.44132634819E+03  0.40000000000E+03 0.  1.
   -9000005    1    1    2    0  502  0.21444506407E+02  0.23336450027E+01  0.32385199759E+03  0.51511690819E+03  0.40000000000E+03 0.  1.
<mgrwt>
<rscale>  2 0.40058122E+03</rscale>
<asrwt>0</asrwt>
<pdfrwt beam="1">  1       21 0.84237143E-01 0.40058122E+03</pdfrwt>
<pdfrwt beam="2">  1       21 0.62907973E-01 0.40058122E+03</pdfrwt>
<totfact> 0.25298994E+03</totfact>
</mgrwt>
</event>
<event>
 4    1  0.8722554E-003  0.4077295E+03  0.7818608E-02  0.1041136E+00
         21   -1    0    0  503  502  0.00000000000E+00  0.00000000000E+00  0.30162242497E+03  0.30162242497E+03  0.00000000000E+00 0.  1.
         21   -1    0    0  501  503 -0.00000000000E+00 -0.00000000000E+00 -0.68337040222E+03  0.68337040222E+03  0.00000000000E+00 0.  1.
    9000005    1    1    2  501    0 -0.80258910936E+01 -0.78606188676E+02 -0.40749552833E+03  0.57645117177E+03  0.40000000000E+03 0.  1.
   -9000005    1    1    2    0  502  0.80258910936E+01  0.78606188676E+02  0.25747551085E+02  0.40854165542E+03  0.40000000000E+03 0.  1.
<mgrwt>
<rscale>  2 0.40772950E+03</rscale>
<asrwt>0</asrwt>
<pdfrwt beam="1">  1       21 0.46403450E-01 0.40772950E+03</pdfrwt>
<pdfrwt beam="2">  1       21 0.10513391E+00 0.40772950E+03</pdfrwt>
<totfact> 0.28575591E+03</totfact>
</mgrwt>
</event>
<event>
 4    1  0.8722554E-003  0.4367054E+03  0.7818608E-02  0.1031762E+00
         21   -1    0    0  503  502  0.00000000000E+00  0.00000000000E+00  0.43676280061E+03  0.43676280061E+03  0.00000000000E+00 0. -1.
         21   -1    0    0  501  503 -0.00000000000E+00 -0.00000000000E+00 -0.45407539184E+03  0.45407539184E+03  0.00000000000E+00 0. -1.
    9000005    1    1    2  501    0 -0.15301488749E+03  0.85428465098E+02 -0.95917611565E+02  0.44711493673E+03  0.40000000000E+03 0. -1.
   -9000005    1    1    2    0  502  0.15301488749E+03 -0.85428465098E+02  0.78605020341E+02  0.44372325572E+03  0.40000000000E+03 0. -1.
<mgrwt>
<rscale>  2 0.43670537E+03</rscale>
<asrwt>0</asrwt>
<pdfrwt beam="1">  1       21 0.67194277E-01 0.43670537E+03</pdfrwt>
<pdfrwt beam="2">  1       21 0.69857753E-01 0.43670537E+03</pdfrwt>
<totfact> 0.33078038E+03</totfact>
</mgrwt>
</event>
<event>
 4    1  0.8722554E-003  0.4494814E+03  0.7818608E-02  0.1027877E+00
         21   -1    0    0  503  502  0.00000000000E+00  0.00000000000E+00  0.21783690224E+04  0.21783690224E+04  0.00000000000E+00 0.  1.
         21   -1    0    0  501  503 -0.00000000000E+00 -0.00000000000E+00 -0.13433190057E+03  0.13433190057E+03  0.00000000000E+00 0.  1.
    9000005    1    1    2  501    0  0.64931890412E+02 -0.19446682147E+03  0.37862517325E+03  0.58769934224E+03  0.40000000000E+03 0.  1.
   -9000005    1    1    2    0  502 -0.64931890412E+02  0.19446682147E+03  0.16654119486E+04  0.17250015808E+04  0.40000000000E+03 0.  1.
<mgrwt>
<rscale>  2 0.44948136E+03</rscale>
<asrwt>0</asrwt>
<pdfrwt beam="1">  1       21 0.33513367E+00 0.44948136E+03</pdfrwt>
<pdfrwt beam="2">  1       21 0.20666448E-01 0.44948136E+03</pdfrwt>
<totfact> 0.36381319E+02</totfact>
</mgrwt>
</event>
<event>
 4    1  0.8722554E-003  0.4696516E+03  0.7818608E-02  0.1022019E+00
         21   -1    0    0  501  502  0.00000000000E+00  0.00000000000E+00  0.36119511522E+03  0.36119511522E+03  0.00000000000E+00 0.  1.
         21   -1    0    0  502  503 -0.00000000000E+00 -0.00000000000E+00 -0.61201769946E+03  0.61201769946E+03  0.00000000000E+00 0. -1.
    9000005    1    1    2  501    0 -0.80332791888E+02 -0.23263542074E+03 -0.10261372809E+03  0.48073087443E+03  0.40000000000E+03 0. -1.
   -9000005    1    1    2    0  503  0.80332791888E+02  0.23263542074E+03 -0.14820885616E+03  0.49248194026E+03  0.40000000000E+03 0.  1.
<mgrwt>
<rscale>  2 0.46965157E+03</rscale>
<asrwt>0</asrwt>
<pdfrwt beam="1">  1       21 0.55568480E-01 0.46965157E+03</pdfrwt>
<pdfrwt beam="2">  1       21 0.94156568E-01 0.46965157E+03</pdfrwt>
<totfact> 0.24847399E+03</totfact>
</mgrwt>
</event>
<event>
 4    1  0.8722554E-003  0.9695679E+03  0.7818608E-02  0.9342567E-01
         21   -1    0    0  501  502  0.00000000000E+00  0.00000000000E+00  0.16425777169E+04  0.16425777169E+04  0.00000000000E+00 0. -1.
         21   -1    0    0  502  503 -0.00000000000E+00 -0.00000000000E+00 -0.63709295646E+03  0.63709295646E+03  0.00000000000E+00 0. -1.
    9000005    1    1    2  501    0 -0.87922420553E+03  0.83826003772E+02  0.86621731315E+03  0.13001516973E+04  0.40000000000E+03 0. -1.
   -9000005    1    1    2    0  503  0.87922420553E+03 -0.83826003772E+02  0.13926744728E+03  0.97951897601E+03  0.40000000000E+03 0. -1.
<mgrwt>
<rscale>  2 0.96956795E+03</rscale>
<asrwt>0</asrwt>
<pdfrwt beam="1">  1       21 0.25270426E+00 0.96956795E+03</pdfrwt>
<pdfrwt beam="2">  1       21 0.98014302E-01 0.96956795E+03</pdfrwt>
<totfact> 0.34139650E+01</totfact>
</mgrwt>
</event>
<event>
 4    1  0.8722554E-003  0.4077146E+03  0.7818608E-02  0.1041141E+00
         21   -1    0    0  503  502  0.00000000000E+00  0.00000000000E+00  0.16079551837E+04  0.16079551837E+04  0.00000000000E+00 0. -1.
         21   -1    0    0  501  503 -0.00000000000E+00 -0.00000000000E+00 -0.15855260944E+03  0.15855260944E+03  0.00000000000E+00 0. -1.
    9000005    1    1    2  501    0  0.19139477452E+02 -0.76582455467E+02  0.20367611523E+03  0.45575777777E+03  0.40000000000E+03 0. -1.
   -9000005    1    1    2    0  502 -0.19139477452E+02  0.76582455467E+02  0.12457264590E+04  0.13107500154E+04  0.40000000000E+03 0. -1.
<mgrwt>
<rscale>  2 0.40771460E+03</rscale>
<asrwt>0</asrwt>
<pdfrwt beam="1">  1       21 0.24737771E+00 0.40771460E+03</pdfrwt>
<pdfrwt beam="2">  1       21 0.24392710E-01 0.40771460E+03</pdfrwt>
<totfact> 0.91739589E+02</totfact>
</mgrwt>
</event>
<event>
 4    1  0.8722554E-003  0.4617422E+03  0.7818608E-02  0.1024277E+00
         21   -1    0    0  501  502  0.00000000000E+00  0.00000000000E+00  0.27364126684E+03  0.27364126684E+03  0.00000000000E+00 0.  1.
         21   -1    0    0  502  503 -0.00000000000E+00 -0.00000000000E+00 -0.89524634924E+03  0.89524634924E+03  0.00000000000E+00 0.  1.
    9000005    1    1    2  501    0 -0.50396141151E+02  0.22509121399E+03 -0.10033126020E+03  0.47251686471E+03  0.40000000000E+03 0.  1.
   -9000005    1    1    2    0  503  0.50396141151E+02 -0.22509121399E+03 -0.52127382220E+03  0.69637075137E+03  0.40000000000E+03 0.  1.
<mgrwt>
<rscale>  2 0.46174216E+03</rscale>
<asrwt>0</asrwt>
<pdfrwt beam="1">  1       21 0.42098656E-01 0.46174216E+03</pdfrwt>
<pdfrwt beam="2">  1       21 0.13773021E+00 0.46174216E+03</pdfrwt>
<totfact> 0.17265668E+03</totfact>
</mgrwt>
</event>
<event>
 4    1  0.8722554E-003  0.5804506E+03  0.7818608E-02  0.9946816E-01
         21   -1    0    0  501  502  0.00000000000E+00  0.00000000000E+00  0.13446459412E+04  0.13446459412E+04  0.00000000000E+00 0.  1.
         21   -1    0    0  502  503 -0.00000000000E+00 -0.00000000000E+00 -0.29915241194E+03  0.29915241194E+03  0.00000000000E+00 0. -1.
    9000005    1    1    2  501    0  0.13583965957E+03 -0.39808348742E+03  0.85397598127E+03  0.10325685704E+04  0.40000000000E+03 0.  1.
   -9000005    1    1    2    0  503 -0.13583965957E+03  0.39808348742E+03  0.19151754797E+03  0.61122978269E+03  0.40000000000E+03 0. -1.
<mgrwt>
<rscale>  2 0.58045058E+03</rscale>
<asrwt>0</asrwt>
<pdfrwt beam="1">  1       21 0.20686860E+00 0.58045058E+03</pdfrwt>
<pdfrwt beam="2">  1       21 0.46023449E-01 0.58045058E+03</pdfrwt>
<totfact> 0.42551392E+02</totfact>
</mgrwt>
</event>
<event>
 4    1  0.8722554E-003  0.4156556E+03  0.7818608E-02  0.1038490E+00
         21   -1    0    0  503  502  0.00000000000E+00  0.00000000000E+00  0.98832133200E+02  0.98832133200E+02  0.00000000000E+00 0. -1.
         21   -1    0    0  501  503 -0.00000000000E+00 -0.00000000000E+00 -0.17999059197E+04  0.17999059197E+04  0.00000000000E+00 0. -1.
    9000005    1    1    2  501    0  0.10816514034E+03 -0.32708524924E+02 -0.10115842065E+04  0.10936508364E+04  0.40000000000E+03 0. -1.
   -9000005    1    1    2    0  502 -0.10816514034E+03  0.32708524924E+02 -0.68948957998E+03  0.80508721645E+03  0.40000000000E+03 0. -1.
<mgrwt>
<rscale>  2 0.41565556E+03</rscale>
<asrwt>0</asrwt>
<pdfrwt beam="1">  1       21 0.15204944E-01 0.41565556E+03</pdfrwt>
<pdfrwt beam="2">  1       21 0.27690859E+00 0.41565556E+03</pdfrwt>
<totfact> 0.14804552E+03</totfact>
</mgrwt>
</event>
<event>
 4    1  0.8722554E-003  0.5404256E+03  0.7818608E-02  0.1003735E+00
         21   -1    0    0  503  502  0.00000000000E+00  0.00000000000E+00  0.61582319853E+03  0.61582319853E+03  0.00000000000E+00 0. -1.
         21   -1    0    0  501  503 -0.00000000000E+00 -0.00000000000E+00 -0.72357652375E+03  0.72357652375E+03  0.00000000000E+00 0. -1.
    9000005    1    1    2  501    0  0.28200074441E+03  0.22920598252E+03 -0.44698678304E+03  0.70132516458E+03  0.40000000000E+03 0. -1.
   -9000005    1    1    2    0  502 -0.28200074441E+03 -0.22920598252E+03  0.33923345782E+03  0.63807455769E+03  0.40000000000E+03 0. -1.
<mgrwt>
<rscale>  2 0.54042558E+03</rscale>
<asrwt>0</asrwt>
<pdfrwt beam="1">  1       21 0.94742031E-01 0.54042558E+03</pdfrwt>
<pdfrwt beam="2">  1       21 0.11131946E+00 0.54042558E+03</pdfrwt>
<totfact> 0.47672432E+02</totfact>
</mgrwt>
</event>
<event>
 4    1  0.8722554E-003  0.4079447E+03  0.7818608E-02  0.1041063E+00
         21   -1    0    0  503  502  0.00000000000E+00  0.00000000000E+00  0.14049124471E+03  0.14049124471E+03  0.00000000000E+00 0.  1.
         21   -1    0    0  501  503 -0.00000000000E+00 -0.00000000000E+00 -0.12282628639E+04  0.12282628639E+04  0.00000000000E+00 0.  1.
    9000005    1    1    2  501    0 -0.78567085334E+02  0.15686438085E+02 -0.41477688225E+03  0.58177204581E+03  0.40000000000E+03 0.  1.
   -9000005    1    1    2    0  502  0.78567085334E+02 -0.15686438085E+02 -0.67299473698E+03  0.78698206284E+03  0.40000000000E+03 0.  1.
<mgrwt>
<rscale>  2 0.40794467E+03</rscale>
<asrwt>0</asrwt>
<pdfrwt beam="1">  1       21 0.21614038E-01 0.40794467E+03</pdfrwt>
<pdfrwt beam="2">  1       21 0.18896352E+00 0.40794467E+03</pdfrwt>
<totfact> 0.27457800E+03</totfact>
</mgrwt>
</event>
<event>
 4    1  0.8722554E-003  0.4058023E+03  0.7818608E-02  0.1041789E+00
         21   -1    0    0  501  502  0.00000000000E+00  0.00000000000E+00  0.76481972116E+03  0.76481972116E+03  0.00000000000E+00 0.  1.
         21   -1    0    0  502  503 -0.00000000000E+00 -0.00000000000E+00 -0.22866677558E+03  0.22866677558E+03  0.00000000000E+00 0.  1.
    9000005    1    1    2  501    0  0.56248161534E+02  0.38879490824E+02  0.14803374984E+03  0.43196002312E+03  0.40000000000E+03 0.  1.
   -9000005    1    1    2    0  503 -0.56248161534E+02 -0.38879490824E+02  0.38811919574E+03  0.56152647362E+03  0.40000000000E+03 0.  1.
<mgrwt>
<rscale>  2 0.40580226E+03</rscale>
<asrwt>0</asrwt>
<pdfrwt beam="1">  1       21 0.11766457E+00 0.40580226E+03</pdfrwt>
<pdfrwt beam="2">  1       21 0.35179504E-01 0.40580226E+03</pdfrwt>
<totfact> 0.38255558E+03</totfact>
</mgrwt>
</event>
<event>
 4    1  0.8722554E-003  0.5203421E+03  0.7818608E-02  0.1008602E+00
         21   -1    0    0  503  502  0.00000000000E+00  0.00000000000E+00  0.39138339637E+03  0.39138339637E+03  0.00000000000E+00 0. -1.
         21   -1    0    0  501  503 -0.00000000000E+00 -0.00000000000E+00 -0.94034114649E+03  0.94034114649E+03  0.00000000000E+00 0. -1.
    9000005    1    1    2  501    0  0.28616678214E+03  0.16989556097E+03 -0.61681108785E+03  0.80697698042E+03  0.40000000000E+03 0. -1.
   -9000005    1    1    2    0  502 -0.28616678214E+03 -0.16989556097E+03  0.67853337736E+02  0.52474756244E+03  0.40000000000E+03 0. -1.
<mgrwt>
<rscale>  2 0.52034213E+03</rscale>
<asrwt>0</asrwt>
<pdfrwt beam="1">  1       21 0.60212831E-01 0.52034213E+03</pdfrwt>
<pdfrwt beam="2">  1       21 0.14466787E+00 0.52034213E+03</pdfrwt>
<totfact> 0.68941880E+02</totfact>
</mgrwt>
</event>
<event>
 4    1  0.8722554E-003  0.4207352E+03  0.7818608E-02  0.1036827E+00
         21   -1    0    0  503  502  0.00000000000E+00  0.00000000000E+00  0.23582554284E+03  0.23582554284E+03  0.00000000000E+00 0.  1.
         21   -1    0    0  501  503 -0.00000000000E+00 -0.00000000000E+00 -0.13007906882E+04  0.13007906882E+04  0.00000000000E+00 0.  1.
    9000005    1    1    2  501    0  0.13017107663E+03  0.85787044394E+01 -0.10321440396E+04  0.11146028090E+04  0.40000000000E+03 0.  1.
   -9000005    1    1    2    0  502 -0.13017107663E+03 -0.85787044394E+01 -0.32821105720E+02  0.42201342199E+03  0.40000000000E+03 0.  1.
<mgrwt>
<rscale>  2 0.42073519E+03</rscale>
<asrwt>0</asrwt>
<pdfrwt beam="1">  1       21 0.36280853E-01 0.42073519E+03</pdfrwt>
<pdfrwt beam="2">  1       21 0.20012165E+00 0.42073519E+03</pdfrwt>
<totfact> 0.82782188E+02</totfact>
</mgrwt>
</event>
<event>
 4    1  0.8722554E-003  0.4299075E+03  0.7818608E-02  0.1033889E+00
         21   -1    0    0  503  502  0.00000000000E+00  0.00000000000E+00  0.58466853395E+03  0.58466853395E+03  0.00000000000E+00 0. -1.
         21   -1    0    0  501  503 -0.00000000000E+00 -0.00000000000E+00 -0.32348379334E+03  0.32348379334E+03  0.00000000000E+00 0. -1.
    9000005    1    1    2  501    0  0.15754477928E+03  0.35422726776E+00  0.19914150024E+03  0.47379090332E+03  0.40000000000E+03 0.  1.
   -9000005    1    1    2    0  502 -0.15754477928E+03 -0.35422726776E+00  0.62043240367E+02  0.43436142397E+03  0.40000000000E+03 0.  1.
<mgrwt>
<rscale>  2 0.42990753E+03</rscale>
<asrwt>0</asrwt>
<pdfrwt beam="1">  1       21 0.89949005E-01 0.42990753E+03</pdfrwt>
<pdfrwt beam="2">  1       21 0.49766737E-01 0.42990753E+03</pdfrwt>
<totfact> 0.35592141E+03</totfact>
</mgrwt>
</event>
<event>
 4    1  0.8722554E-003  0.4740173E+03  0.7818608E-02  0.1020792E+00
         21   -1    0    0  503  502  0.00000000000E+00  0.00000000000E+00  0.11084626807E+04  0.11084626807E+04  0.00000000000E+00 0. -1.
         21   -1    0    0  501  503 -0.00000000000E+00 -0.00000000000E+00 -0.22157928609E+03  0.22157928609E+03  0.00000000000E+00 0.  1.
    9000005    1    1    2  501    0  0.23390724161E+03 -0.99899167321E+02  0.24935743304E+03  0.53560393083E+03  0.40000000000E+03 0.  1.
   -9000005    1    1    2    0  502 -0.23390724161E+03  0.99899167321E+02  0.63752596160E+03  0.79443803599E+03  0.40000000000E+03 0. -1.
<mgrwt>
<rscale>  2 0.47401734E+03</rscale>
<asrwt>0</asrwt>
<pdfrwt beam="1">  1       21 0.17053272E+00 0.47401734E+03</pdfrwt>
<pdfrwt beam="2">  1       21 0.34089122E-01 0.47401734E+03</pdfrwt>
<totfact> 0.14717417E+03</totfact>
</mgrwt>
</event>
<event>
 4    1  0.8722554E-003  0.4009465E+03  0.7818608E-02  0.1043452E+00
         21   -1    0    0  501  502  0.00000000000E+00  0.00000000000E+00  0.22181943939E+03  0.22181943939E+03  0.00000000000E+00 0.  1.
         21   -1    0    0  502  503 -0.00000000000E+00 -0.00000000000E+00 -0.78402509669E+03  0.78402509669E+03  0.00000000000E+00 0.  1.
    9000005    1    1    2  501    0  0.25193885404E+02 -0.11105172768E+02 -0.14278945127E+03  0.42561353846E+03  0.40000000000E+03 0.  1.
   -9000005    1    1    2    0  503 -0.25193885404E+02  0.11105172768E+02 -0.41941620603E+03  0.58023099763E+03  0.40000000000E+03 0.  1.
<mgrwt>
<rscale>  2 0.40094645E+03</rscale>
<asrwt>0</asrwt>
<pdfrwt beam="1">  1       21 0.34126068E-01 0.40094645E+03</pdfrwt>
<pdfrwt beam="2">  1       21 0.12061924E+00 0.40094645E+03</pdfrwt>
<totfact> 0.38275725E+03</totfact>
</mgrwt>
</event>
<event>
 4    1  0.8722554E-003  0.4610504E+03  0.7818608E-02  0.1024477E+00
         21   -1    0    0  501  502  0.00000000000E+00  0.00000000000E+00  0.13992100353E+04  0.13992100353E+04  0.00000000000E+00 0. -1.
         21   -1    0    0  502  503 -0.00000000000E+00 -0.00000000000E+00 -0.15544635409E+03  0.15544635409E+03  0.00000000000E+00 0. -1.
    9000005    1    1    2  501    0  0.19752582959E+03 -0.11640890379E+03  0.73896628920E+03  0.87099865833E+03  0.40000000000E+03 0. -1.
   -9000005    1    1    2    0  503 -0.19752582959E+03  0.11640890379E+03  0.50479739197E+03  0.68365773101E+03  0.40000000000E+03 0. -1.
<mgrwt>
<rscale>  2 0.46105042E+03</rscale>
<asrwt>0</asrwt>
<pdfrwt beam="1">  1       21 0.21526307E+00 0.46105042E+03</pdfrwt>
<pdfrwt beam="2">  1       21 0.23914825E-01 0.46105042E+03</pdfrwt>
<totfact> 0.14770285E+03</totfact>
</mgrwt>
</event>
<event>
 4    1  0.8722554E-003  0.6380287E+03  0.7818608E-02  0.9829505E-01
         21   -1    0    0  501  502  0.00000000000E+00  0.00000000000E+00  0.72941843831E+03  0.72941843831E+03  0.00000000000E+00 0. -1.
         21   -1    0    0  502  503 -0.00000000000E+00 -0.00000000000E+00 -0.55809633680E+03  0.55809633680E+03  0.00000000000E+00 0.  1.
    9000005    1    1    2  501    0  0.48059718845E+03 -0.12691338873E+03  0.83384117484E+02  0.64345440929E+03  0.40000000000E+03 0. -1.
   -9000005    1    1    2    0  503 -0.48059718845E+03  0.12691338873E+03  0.87937984024E+02  0.64406036582E+03  0.40000000000E+03 0.  1.
<mgrwt>
<rscale>  2 0.63802873E+03</rscale>
<asrwt>0</asrwt>
<pdfrwt beam="1">  1       21 0.11221822E+00 0.63802873E+03</pdfrwt>
<pdfrwt beam="2">  1       21 0.85860974E-01 0.63802873E+03</pdfrwt>
<totfact> 0.57179486E+02</totfact>
</mgrwt>
</event>
<event>
 4    1  0.8722554E-003  0.4088903E+03  0.7818608E-02  0.1040744E+00
         21   -1    0    0  501  502  0.00000000000E+00  0.00000000000E+00  0.55676183131E+03  0.55676183131E+03  0.00000000000E+00 0.  1.
         21   -1    0    0  502  503 -0.00000000000E+00 -0.00000000000E+00 -0.30155993887E+03  0.30155993887E+03  0.00000000000E+00 0.  1.
    9000005    1    1    2  501    0 -0.83018840681E+01 -0.84393815423E+02  0.15542673911E+03  0.43743423345E+03  0.40000000000E+03 0.  1.
   -9000005    1    1    2    0  503  0.83018840681E+01  0.84393815423E+02  0.99775153325E+02  0.42088753674E+03  0.40000000000E+03 0.  1.
<mgrwt>
<rscale>  2 0.40889025E+03</rscale>
<asrwt>0</asrwt>
<pdfrwt beam="1">  1       21 0.85655666E-01 0.40889025E+03</pdfrwt>
<pdfrwt beam="2">  1       21 0.46393837E-01 0.40889025E+03</pdfrwt>
<totfact> 0.46664329E+03</totfact>
</mgrwt>
</event>
<event>
 4    1  0.8722554E-003  0.5016624E+03  0.7818608E-02  0.1013346E+00
         21   -1    0    0  501  502  0.00000000000E+00  0.00000000000E+00  0.10355505786E+04  0.10355505786E+04  0.00000000000E+00 0.  1.
         21   -1    0    0  502  503 -0.00000000000E+00 -0.00000000000E+00 -0.25670436111E+03  0.25670436111E+03  0.00000000000E+00 0.  1.
    9000005    1    1    2  501    0 -0.23577958687E+03  0.18992934483E+03  0.53857438492E+03  0.73602142476E+03  0.40000000000E+03 0.  1.
   -9000005    1    1    2    0  503  0.23577958687E+03 -0.18992934483E+03  0.24027183255E+03  0.55623351493E+03  0.40000000000E+03 0.  1.
<mgrwt>
<rscale>  2 0.50166241E+03</rscale>
<asrwt>0</asrwt>
<pdfrwt beam="1">  1       21 0.15931547E+00 0.50166241E+03</pdfrwt>
<pdfrwt beam="2">  1       21 0.39492979E-01 0.50166241E+03</pdfrwt>
<totfact> 0.13070313E+03</totfact>
</mgrwt>
</event>
<event>
 4    1  0.8722554E-003  0.4094825E+03  0.7818608E-02  0.1040545E+00
         21   -1    0    0  503  502  0.00000000000E+00  0.00000000000E+00  0.31803788421E+03  0.31803788421E+03  0.00000000000E+00 0.  1.
         21   -1    0    0  501  503 -0.00000000000E+00 -0.00000000000E+00 -0.54139419530E+03  0.54139419530E+03  0.00000000000E+00 0.  1.
    9000005    1    1    2  501    0 -0.69188129598E+02  0.53748490963E+02 -0.18120871049E+03  0.44778621497E+03  0.40000000000E+03 0.  1.
   -9000005    1    1    2    0  502  0.69188129598E+02 -0.53748490963E+02 -0.42147600595E+02  0.41164586454E+03  0.40000000000E+03 0.  1.
<mgrwt>
<rscale>  2 0.40948248E+03</rscale>
<asrwt>0</asrwt>
<pdfrwt beam="1">  1       21 0.48928906E-01 0.40948248E+03</pdfrwt>
<pdfrwt beam="2">  1       21 0.83291413E-01 0.40948248E+03</pdfrwt>
<totfact> 0.44517297E+03</totfact>
</mgrwt>
</event>
<event>
 4    1  0.8722554E-003  0.4411428E+03  0.7818608E-02  0.1030397E+00
         21   -1    0    0  501  502  0.00000000000E+00  0.00000000000E+00  0.62425664018E+03  0.62425664018E+03  0.00000000000E+00 0. -1.
         21   -1    0    0  502  503 -0.00000000000E+00 -0.00000000000E+00 -0.45064495240E+03  0.45064495240E+03  0.00000000000E+00 0.  1.
    9000005    1    1    2  501    0  0.39326261186E+02 -0.18182517413E+03  0.38519109720E+03  0.58564420097E+03  0.40000000000E+03 0. -1.
   -9000005    1    1    2    0  503 -0.39326261186E+02  0.18182517413E+03 -0.21157940942E+03  0.48925739162E+03  0.40000000000E+03 0.  1.
<mgrwt>
<rscale>  2 0.44114278E+03</rscale>
<asrwt>0</asrwt>
<pdfrwt beam="1">  1       21 0.96039483E-01 0.44114278E+03</pdfrwt>
<pdfrwt beam="2">  1       21 0.69329992E-01 0.44114278E+03</pdfrwt>
<totfact> 0.14702346E+03</totfact>
</mgrwt>
</event>
<event>
 4    1  0.8722554E-003  0.4900126E+03  0.7818608E-02  0.1016419E+00
         21   -1    0    0  501  502  0.00000000000E+00  0.00000000000E+00  0.24845720498E+03  0.24845720498E+03  0.00000000000E+00 0.  1.
         21   -1    0    0  502  503 -0.00000000000E+00 -0.00000000000E+00 -0.10849202294E+04  0.10849202294E+04  0.00000000000E+00 0.  1.
    9000005    1    1    2  501    0 -0.73913718394E+02  0.27321984756E+03 -0.19789003572E+03  0.52846266576E+03  0.40000000000E+03 0.  1.
   -9000005    1    1    2    0  503  0.73913718394E+02 -0.27321984756E+03 -0.63857298874E+03  0.80491476866E+03  0.40000000000E+03 0.  1.
<mgrwt>
<rscale>  2 0.49001257E+03</rscale>
<asrwt>0</asrwt>
<pdfrwt beam="1">  1       21 0.38224185E-01 0.49001257E+03</pdfrwt>
<pdfrwt beam="2">  1       21 0.16691081E+00 0.49001257E+03</pdfrwt>
<totfact> 0.12314639E+03</totfact>
</mgrwt>
</event>
<event>
 4    1  0.8722554E-003  0.6451885E+03  0.7818608E-02  0.9815850E-01
         21   -1    0    0  503  502  0.00000000000E+00  0.00000000000E+00  0.24809201578E+03  0.24809201578E+03  0.00000000000E+00 0. -1.
         21   -1    0    0  501  503 -0.00000000000E+00 -0.00000000000E+00 -0.16789908343E+04  0.16789908343E+04  0.00000000000E+00 0.  1.
    9000005    1    1    2  501    0 -0.77556379120E+02 -0.50025313663E+03 -0.69064571745E+03  0.94512417157E+03  0.40000000000E+03 0. -1.
   -9000005    1    1    2    0  502  0.77556379120E+02  0.50025313663E+03 -0.74025310108E+03  0.98195867852E+03  0.40000000000E+03 0. -1.
<mgrwt>
<rscale>  2 0.64518849E+03</rscale>
<asrwt>0</asrwt>
<pdfrwt beam="1">  1       21 0.38168004E-01 0.64518849E+03</pdfrwt>
<pdfrwt beam="2">  1       21 0.25830627E+00 0.64518849E+03</pdfrwt>
<totfact> 0.28843252E+02</totfact>
</mgrwt>
</event>
<event>
 4    1  0.8722554E-003  0.4670851E+03  0.7818608E-02  0.1022746E+00
         21   -1    0    0  501  502  0.00000000000E+00  0.00000000000E+00  0.86221752122E+03  0.86221752122E+03  0.00000000000E+00 0.  1.
         21   -1    0    0  502  503 -0.00000000000E+00 -0.00000000000E+00 -0.29677135583E+03  0.29677135583E+03  0.00000000000E+00 0. -1.
    9000005    1    1    2  501    0  0.18001955950E+03 -0.16050376238E+03  0.50519499552E+03  0.68803378045E+03  0.40000000000E+03 0.  1.
   -9000005    1    1    2    0  503 -0.18001955950E+03  0.16050376238E+03  0.60251169861E+02  0.47095509660E+03  0.40000000000E+03 0.  1.
<mgrwt>
<rscale>  2 0.46708511E+03</rscale>
<asrwt>0</asrwt>
<pdfrwt beam="1">  1       21 0.13264885E+00 0.46708511E+03</pdfrwt>
<pdfrwt beam="2">  1       21 0.45657132E-01 0.46708511E+03</pdfrwt>
<totfact> 0.16052199E+03</totfact>
</mgrwt>
</event>
<event>
 4    1  0.8722554E-003  0.5177236E+03  0.7818608E-02  0.1009254E+00
         21   -1    0    0  501  502  0.00000000000E+00  0.00000000000E+00  0.56465979193E+03  0.56465979193E+03  0.00000000000E+00 0. -1.
         21   -1    0    0  502  503 -0.00000000000E+00 -0.00000000000E+00 -0.47653589109E+03  0.47653589109E+03  0.00000000000E+00 0. -1.
    9000005    1    1    2  501    0 -0.30762526933E+03  0.11577727617E+03  0.76473341965E+02  0.52334105136E+03  0.40000000000E+03 0. -1.
   -9000005    1    1    2    0  503  0.30762526933E+03 -0.11577727617E+03  0.11650558872E+02  0.51785463166E+03  0.40000000000E+03 0. -1.
<mgrwt>
<rscale>  2 0.51772356E+03</rscale>
<asrwt>0</asrwt>
<pdfrwt beam="1">  1       21 0.86870737E-01 0.51772356E+03</pdfrwt>
<pdfrwt beam="2">  1       21 0.73313214E-01 0.51772356E+03</pdfrwt>
<totfact> 0.15997741E+03</totfact>
</mgrwt>
</event>
<event>
 4    1  0.8722554E-003  0.6768830E+03  0.7818608E-02  0.9757603E-01
         21   -1    0    0  501  502  0.00000000000E+00  0.00000000000E+00  0.92281047435E+03  0.92281047435E+03  0.00000000000E+00 0. -1.
         21   -1    0    0  502  503 -0.00000000000E+00 -0.00000000000E+00 -0.51349466212E+03  0.51349466212E+03  0.00000000000E+00 0.  1.
    9000005    1    1    2  501    0  0.17528208152E+03 -0.51715260345E+03  0.33532648077E+03  0.75539027797E+03  0.40000000000E+03 0.  1.
   -9000005    1    1    2    0  503 -0.17528208152E+03  0.51715260345E+03  0.73989331464E+02  0.68091485850E+03  0.40000000000E+03 0. -1.
<mgrwt>
<rscale>  2 0.67688302E+03</rscale>
<asrwt>0</asrwt>
<pdfrwt beam="1">  1       21 0.14197084E+00 0.67688302E+03</pdfrwt>
<pdfrwt beam="2">  1       21 0.78999179E-01 0.67688302E+03</pdfrwt>
<totfact> 0.37230216E+02</totfact>
</mgrwt>
</event>
<event>
 4    1  0.8722554E-003  0.4898898E+03  0.7818608E-02  0.1016452E+00
         21   -1    0    0  503  502  0.00000000000E+00  0.00000000000E+00  0.16950667260E+03  0.16950667260E+03  0.00000000000E+00 0. -1.
         21   -1    0    0  501  503 -0.00000000000E+00 -0.00000000000E+00 -0.18569304584E+04  0.18569304584E+04  0.00000000000E+00 0.  1.
    9000005    1    1    2  501    0 -0.12544066699E+03 -0.25348893919E+03 -0.34988367721E+03  0.60200547407E+03  0.40000000000E+03 0. -1.
   -9000005    1    1    2    0  502  0.12544066699E+03  0.25348893919E+03 -0.13375401086E+04  0.14244316569E+04  0.40000000000E+03 0.  1.
<mgrwt>
<rscale>  2 0.48988979E+03</rscale>
<asrwt>0</asrwt>
<pdfrwt beam="1">  1       21 0.26077951E-01 0.48988979E+03</pdfrwt>
<pdfrwt beam="2">  1       21 0.28568159E+00 0.48988979E+03</pdfrwt>
<totfact> 0.45125723E+02</totfact>
</mgrwt>
</event>
<event>
 4    1  0.8722554E-003  0.6379581E+03  0.7818608E-02  0.9829641E-01
         21   -1    0    0  503  502  0.00000000000E+00  0.00000000000E+00  0.15447370150E+04  0.15447370150E+04  0.00000000000E+00 0. -1.
         21   -1    0    0  501  503 -0.00000000000E+00 -0.00000000000E+00 -0.34342142484E+03  0.34342142484E+03  0.00000000000E+00 0. -1.
    9000005    1    1    2  501    0 -0.26269168736E+03  0.42188103127E+03  0.14513491536E+03  0.65425887140E+03  0.40000000000E+03 0. -1.
   -9000005    1    1    2    0  502  0.26269168736E+03 -0.42188103127E+03  0.10561806748E+04  0.12338995685E+04  0.40000000000E+03 0. -1.
<mgrwt>
<rscale>  2 0.63795809E+03</rscale>
<asrwt>0</asrwt>
<pdfrwt beam="1">  1       21 0.23765184E+00 0.63795809E+03</pdfrwt>
<pdfrwt beam="2">  1       21 0.52834066E-01 0.63795809E+03</pdfrwt>
<totfact> 0.19606163E+02</totfact>
</mgrwt>
</event>
<event>
 4    1  0.8722554E-003  0.4468983E+03  0.7818608E-02  0.1028651E+00
         21   -1    0    0  503  502  0.00000000000E+00  0.00000000000E+00  0.25674006117E+04  0.25674006117E+04  0.00000000000E+00 0. -1.
         21   -1    0    0  501  503 -0.00000000000E+00 -0.00000000000E+00 -0.11269149884E+03  0.11269149884E+03  0.00000000000E+00 0.  1.
    9000005    1    1    2  501    0 -0.18886089532E+03 -0.63636550578E+02  0.48159934714E+03  0.65700531164E+03  0.40000000000E+03 0.  1.
   -9000005    1    1    2    0  502  0.18886089532E+03  0.63636550578E+02  0.19731097657E+04  0.20230867989E+04  0.40000000000E+03 0. -1.
<mgrwt>
<rscale>  2 0.44689825E+03</rscale>
<asrwt>0</asrwt>
<pdfrwt beam="1">  1       21 0.39498467E+00 0.44689825E+03</pdfrwt>
<pdfrwt beam="2">  1       21 0.17337156E-01 0.44689825E+03</pdfrwt>
<totfact> 0.21580164E+02</totfact>
</mgrwt>
</event>
<event>
 4    1  0.8722554E-003  0.4044892E+03  0.7818608E-02  0.1042236E+00
         21   -1    0    0  503  502  0.00000000000E+00  0.00000000000E+00  0.88524790884E+03  0.88524790884E+03  0.00000000000E+00 0.  1.
         21   -1    0    0  501  503 -0.00000000000E+00 -0.00000000000E+00 -0.20155976006E+03  0.20155976006E+03  0.00000000000E+00 0.  1.
    9000005    1    1    2  501    0  0.38556693335E+02  0.46096954359E+02  0.18524291703E+03  0.44488929647E+03  0.40000000000E+03 0.  1.
   -9000005    1    1    2    0  502 -0.38556693335E+02 -0.46096954359E+02  0.49844523176E+03  0.64191837243E+03  0.40000000000E+03 0.  1.
<mgrwt>
<rscale>  2 0.40448924E+03</rscale>
<asrwt>0</asrwt>
<pdfrwt beam="1">  1       21 0.13619198E+00 0.40448924E+03</pdfrwt>
<pdfrwt beam="2">  1       21 0.31009194E-01 0.40448924E+03</pdfrwt>
<totfact> 0.33852984E+03</totfact>
</mgrwt>
</event>
<event>
 4    1  0.8722554E-003  0.4966662E+03  0.7818608E-02  0.1014653E+00
         21   -1    0    0  503  502  0.00000000000E+00  0.00000000000E+00  0.68963367021E+03  0.68963367021E+03  0.00000000000E+00 0.  1.
         21   -1    0    0  501  503 -0.00000000000E+00 -0.00000000000E+00 -0.35859600197E+03  0.35859600197E+03  0.00000000000E+00 0.  1.
    9000005    1    1    2  501    0  0.24057836579E+03  0.16970386495E+03  0.13922263767E+03  0.51581032822E+03  0.40000000000E+03 0.  1.
   -9000005    1    1    2    0  502 -0.24057836579E+03 -0.16970386495E+03  0.19181503057E+03  0.53241934395E+03  0.40000000000E+03 0.  1.
<mgrwt>
<rscale>  2 0.49666624E+03</rscale>
<asrwt>0</asrwt>
<pdfrwt beam="1">  1       21 0.10609749E+00 0.49666624E+03</pdfrwt>
<pdfrwt beam="2">  1       21 0.55168616E-01 0.49666624E+03</pdfrwt>
<totfact> 0.18695127E+03</totfact>
</mgrwt>
</event>
<event>
 4    1  0.8722554E-003  0.4317966E+03  0.7818608E-02  0.1033294E+00
         21   -1    0    0  501  502  0.00000000000E+00  0.00000000000E+00  0.36144783043E+03  0.36144783043E+03  0.00000000000E+00 0.  1.
         21   -1    0    0  502  503 -0.00000000000E+00 -0.00000000000E+00 -0.52732834682E+03  0.52732834682E+03  0.00000000000E+00 0. -1.
    9000005    1    1    2  501    0 -0.13438271697E+03 -0.91594693780E+02 -0.14853969334E+03  0.45663151780E+03  0.40000000000E+03 0.  1.
   -9000005    1    1    2    0  503  0.13438271697E+03  0.91594693780E+02 -0.17340823045E+02  0.43214465945E+03  0.40000000000E+03 0.  1.
<mgrwt>
<rscale>  2 0.43179660E+03</rscale>
<asrwt>0</asrwt>
<pdfrwt beam="1">  1       21 0.55607359E-01 0.43179660E+03</pdfrwt>
<pdfrwt beam="2">  1       21 0.81127438E-01 0.43179660E+03</pdfrwt>
<totfact> 0.35705019E+03</totfact>
</mgrwt>
</event>
<event>
 4    1  0.8722554E-003  0.5276730E+03  0.7818608E-02  0.1006798E+00
         21   -1    0    0  503  502  0.00000000000E+00  0.00000000000E+00  0.53894406701E+03  0.53894406701E+03  0.00000000000E+00 0. -1.
         21   -1    0    0  501  503 -0.00000000000E+00 -0.00000000000E+00 -0.57253070542E+03  0.57253070542E+03  0.00000000000E+00 0. -1.
    9000005    1    1    2  501    0 -0.30560050797E+03  0.15826299779E+03 -0.19043292161E+03  0.56098444237E+03  0.40000000000E+03 0. -1.
   -9000005    1    1    2    0  502  0.30560050797E+03 -0.15826299779E+03  0.15684628320E+03  0.55049033007E+03  0.40000000000E+03 0. -1.
<mgrwt>
<rscale>  2 0.52767305E+03</rscale>
<asrwt>0</asrwt>
<pdfrwt beam="1">  1       21 0.82914472E-01 0.52767305E+03</pdfrwt>
<pdfrwt beam="2">  1       21 0.88081647E-01 0.52767305E+03</pdfrwt>
<totfact> 0.11617580E+03</totfact>
</mgrwt>
</event>
<event>
 4    1  0.8722554E-003  0.6879418E+03  0.7818608E-02  0.9738078E-01
         21   -1    0    0  503  502  0.00000000000E+00  0.00000000000E+00  0.22185572755E+03  0.22185572755E+03  0.00000000000E+00 0.  1.
         21   -1    0    0  501  503 -0.00000000000E+00 -0.00000000000E+00 -0.26998692245E+04  0.26998692245E+04  0.00000000000E+00 0.  1.
    9000005    1    1    2  501    0  0.25667608414E+03  0.49737439035E+03 -0.19082755949E+04  0.20284919626E+04  0.40000000000E+03 0.  1.
   -9000005    1    1    2    0  502 -0.25667608414E+03 -0.49737439035E+03 -0.56973790203E+03  0.89323298940E+03  0.40000000000E+03 0.  1.
<mgrwt>
<rscale>  2 0.68794178E+03</rscale>
<asrwt>0</asrwt>
<pdfrwt beam="1">  1       21 0.34131652E-01 0.68794178E+03</pdfrwt>
<pdfrwt beam="2">  1       21 0.41536448E+00 0.68794178E+03</pdfrwt>
<totfact> 0.37115336E+01</totfact>
</mgrwt>
</event>
<event>
 4    1  0.8722554E-003  0.5355821E+03  0.7818608E-02  0.1004887E+00
         21   -1    0    0  501  502  0.00000000000E+00  0.00000000000E+00  0.86611716002E+03  0.86611716002E+03  0.00000000000E+00 0. -1.
         21   -1    0    0  502  503 -0.00000000000E+00 -0.00000000000E+00 -0.40403738980E+03  0.40403738980E+03  0.00000000000E+00 0.  1.
    9000005    1    1    2  501    0 -0.28898451243E+03 -0.20817338717E+03 -0.38626427605E+02  0.53697319156E+03  0.40000000000E+03 0.  1.
   -9000005    1    1    2    0  503  0.28898451243E+03  0.20817338717E+03  0.50070619783E+03  0.73318135825E+03  0.40000000000E+03 0. -1.
<mgrwt>
<rscale>  2 0.53558212E+03</rscale>
<asrwt>0</asrwt>
<pdfrwt beam="1">  1       21 0.13324879E+00 0.53558212E+03</pdfrwt>
<pdfrwt beam="2">  1       21 0.62159599E-01 0.53558212E+03</pdfrwt>
<totfact> 0.79558311E+02</totfact>
</mgrwt>
</event>
<event>
 4    1  0.8722554E-003  0.5749974E+03  0.7818608E-02  0.9958681E-01
         21   -1    0    0  501  502  0.00000000000E+00  0.00000000000E+00  0.12154050929E+04  0.12154050929E+04  0.00000000000E+00 0.  1.
         21   -1    0    0  502  503 -0.00000000000E+00 -0.00000000000E+00 -0.33767169468E+03  0.33767169468E+03  0.00000000000E+00 0.  1.
    9000005    1    1    2  501    0  0.21574473809E+03  0.35224452002E+03  0.78125440519E+03  0.97004146279E+03  0.40000000000E+03 0.  1.
   -9000005    1    1    2    0  503 -0.21574473809E+03 -0.35224452002E+03  0.96478993076E+02  0.58303532483E+03  0.40000000000E+03 0.  1.
<mgrwt>
<rscale>  2 0.57499739E+03</rscale>
<asrwt>0</asrwt>
<pdfrwt beam="1">  1       21 0.18698540E+00 0.57499739E+03</pdfrwt>
<pdfrwt beam="2">  1       21 0.51949492E-01 0.57499739E+03</pdfrwt>
<totfact> 0.44950352E+02</totfact>
</mgrwt>
</event>
<event>
 4    1  0.8722554E-003  0.5683602E+03  0.7818608E-02  0.9973314E-01
         21   -1    0    0  501  502  0.00000000000E+00  0.00000000000E+00  0.64878785504E+03  0.64878785504E+03  0.00000000000E+00 0.  1.
         21   -1    0    0  502  503 -0.00000000000E+00 -0.00000000000E+00 -0.51510193463E+03  0.51510193463E+03  0.00000000000E+00 0. -1.
    9000005    1    1    2  501    0 -0.11655069553E+03  0.38658673891E+03  0.17318059107E+03  0.59415897574E+03  0.40000000000E+03 0.  1.
   -9000005    1    1    2    0  503  0.11655069553E+03 -0.38658673891E+03 -0.39494670662E+02  0.56973081393E+03  0.40000000000E+03 0. -1.
<mgrwt>
<rscale>  2 0.56836025E+03</rscale>
<asrwt>0</asrwt>
<pdfrwt beam="1">  1       21 0.99813516E-01 0.56836025E+03</pdfrwt>
<pdfrwt beam="2">  1       21 0.79246452E-01 0.56836025E+03</pdfrwt>
<totfact> 0.94306617E+02</totfact>
</mgrwt>
</event>
<event>
 4    1  0.8722554E-003  0.4309757E+03  0.7818608E-02  0.1033552E+00
         21   -1    0    0  503  502  0.00000000000E+00  0.00000000000E+00  0.10273355708E+04  0.10273355708E+04  0.00000000000E+00 0. -1.
         21   -1    0    0  501  503 -0.00000000000E+00 -0.00000000000E+00 -0.18285894122E+03  0.18285894122E+03  0.00000000000E+00 0. -1.
    9000005    1    1    2  501    0  0.15276431152E+03 -0.49021618793E+02  0.35799668414E+03  0.56026929225E+03  0.40000000000E+03 0. -1.
   -9000005    1    1    2    0  502 -0.15276431152E+03  0.49021618793E+02  0.48647994547E+03  0.64992521979E+03  0.40000000000E+03 0. -1.
<mgrwt>
<rscale>  2 0.43097570E+03</rscale>
<asrwt>0</asrwt>
<pdfrwt beam="1">  1       21 0.15805162E+00 0.43097570E+03</pdfrwt>
<pdfrwt beam="2">  1       21 0.28132145E-01 0.43097570E+03</pdfrwt>
<totfact> 0.27200147E+03</totfact>
</mgrwt>
</event>
<event>
 4    1  0.8722554E-003  0.5905821E+03  0.7818608E-02  0.9925140E-01
         21   -1    0    0  503  502  0.00000000000E+00  0.00000000000E+00  0.13917469744E+04  0.13917469744E+04  0.00000000000E+00 0. -1.
         21   -1    0    0  501  503 -0.00000000000E+00 -0.00000000000E+00 -0.25269576549E+03  0.25269576549E+03  0.00000000000E+00 0.  1.
    9000005    1    1    2  501    0  0.18664191897E+03 -0.39236715416E+03  0.64420688460E+03  0.87395062775E+03  0.40000000000E+03 0.  1.
   -9000005    1    1    2    0  502 -0.18664191897E+03  0.39236715416E+03  0.49484432437E+03  0.77049211219E+03  0.40000000000E+03 0.  1.
<mgrwt>
<rscale>  2 0.59058208E+03</rscale>
<asrwt>0</asrwt>
<pdfrwt beam="1">  1       21 0.21411491E+00 0.59058208E+03</pdfrwt>
<pdfrwt beam="2">  1       21 0.38876272E-01 0.59058208E+03</pdfrwt>
<totfact> 0.54021274E+02</totfact>
</mgrwt>
</event>
<event>
 4    1  0.8722554E-003  0.5143218E+03  0.7818608E-02  0.1010107E+00
         21   -1    0    0  501  502  0.00000000000E+00  0.00000000000E+00  0.10264489529E+04  0.10264489529E+04  0.00000000000E+00 0.  1.
         21   -1    0    0  502  503 -0.00000000000E+00 -0.00000000000E+00 -0.27412655444E+03  0.27412655444E+03  0.00000000000E+00 0. -1.
    9000005    1    1    2  501    0 -0.24348104502E+03  0.21270614923E+03  0.53529453332E+03  0.74233898093E+03  0.40000000000E+03 0. -1.
   -9000005    1    1    2    0  503  0.24348104502E+03 -0.21270614923E+03  0.21702786518E+03  0.55823652646E+03  0.40000000000E+03 0. -1.
<mgrwt>
<rscale>  2 0.51432181E+03</rscale>
<asrwt>0</asrwt>
<pdfrwt beam="1">  1       21 0.15791522E+00 0.51432181E+03</pdfrwt>
<pdfrwt beam="2">  1       21 0.42173317E-01 0.51432181E+03</pdfrwt>
<totfact> 0.11638051E+03</totfact>
</mgrwt>
</event>
<event>
 4    1  0.8722554E-003  0.4159925E+03  0.7818608E-02  0.1038379E+00
         21   -1    0    0  503  502  0.00000000000E+00  0.00000000000E+00  0.32557753009E+03  0.32557753009E+03  0.00000000000E+00 0.  1.
         21   -1    0    0  501  503 -0.00000000000E+00 -0.00000000000E+00 -0.63271264146E+03  0.63271264146E+03  0.00000000000E+00 0.  1.
    9000005    1    1    2  501    0  0.10598625039E+03  0.42622896204E+02 -0.34518982314E+03  0.54056064465E+03  0.40000000000E+03 0.  1.
   -9000005    1    1    2    0  502 -0.10598625039E+03 -0.42622896204E+02  0.38054711762E+02  0.41772952689E+03  0.40000000000E+03 0.  1.
<mgrwt>
<rscale>  2 0.41599254E+03</rscale>
<asrwt>0</asrwt>
<pdfrwt beam="1">  1       21 0.50088852E-01 0.41599254E+03</pdfrwt>
<pdfrwt beam="2">  1       21 0.97340405E-01 0.41599254E+03</pdfrwt>
<totfact> 0.29232311E+03</totfact>
</mgrwt>
</event>
<event>
 4    1  0.8722554E-003  0.5172662E+03  0.7818608E-02  0.1009368E+00
         21   -1    0    0  503  502  0.00000000000E+00  0.00000000000E+00  0.21966587650E+03  0.21966587650E+03  0.00000000000E+00 0. -1.
         21   -1    0    0  501  503 -0.00000000000E+00 -0.00000000000E+00 -0.16855917481E+04  0.16855917481E+04  0.00000000000E+00 0. -1.
    9000005    1    1    2  501    0 -0.47066613168E+02 -0.32457518100E+03 -0.12346779436E+04  0.13386537785E+04  0.40000000000E+03 0. -1.
   -9000005    1    1    2    0  502  0.47066613168E+02  0.32457518100E+03 -0.23124792794E+03  0.56660384606E+03  0.40000000000E+03 0. -1.
<mgrwt>
<rscale>  2 0.51726619E+03</rscale>
<asrwt>0</asrwt>
<pdfrwt beam="1">  1       21 0.33794750E-01 0.51726619E+03</pdfrwt>
<pdfrwt beam="2">  1       21 0.25932181E+00 0.51726619E+03</pdfrwt>
<totfact> 0.38457956E+02</totfact>
</mgrwt>
</event>
<event>
 4    1  0.8722554E-003  0.4101868E+03  0.7818608E-02  0.1040308E+00
         21   -1    0    0  503  502  0.00000000000E+00  0.00000000000E+00  0.46974884187E+03  0.46974884187E+03  0.00000000000E+00 0.  1.
         21   -1    0    0  501  503 -0.00000000000E+00 -0.00000000000E+00 -0.46906265253E+03  0.46906265253E+03  0.00000000000E+00 0.  1.
    9000005    1    1    2  501    0 -0.39391488689E+02  0.81862633345E+02 -0.22788592517E+03  0.46923893169E+03  0.40000000000E+03 0.  1.
   -9000005    1    1    2    0  502  0.39391488689E+02 -0.81862633345E+02  0.22857211451E+03  0.46957256271E+03  0.40000000000E+03 0.  1.
<mgrwt>
<rscale>  2 0.41018676E+03</rscale>
<asrwt>0</asrwt>
<pdfrwt beam="1">  1       21 0.72269053E-01 0.41018676E+03</pdfrwt>
<pdfrwt beam="2">  1       21 0.72163485E-01 0.41018676E+03</pdfrwt>
<totfact> 0.26364501E+03</totfact>
</mgrwt>
</event>
<event>
 4    1  0.8722554E-003  0.5268894E+03  0.7818608E-02  0.1006989E+00
         21   -1    0    0  503  502  0.00000000000E+00  0.00000000000E+00  0.14859981710E+03  0.14859981710E+03  0.00000000000E+00 0. -1.
         21   -1    0    0  501  503 -0.00000000000E+00 -0.00000000000E+00 -0.19754679047E+04  0.19754679047E+04  0.00000000000E+00 0.  1.
    9000005    1    1    2  501    0  0.33493391879E+03 -0.73700170287E+02 -0.11609264533E+04  0.12748971233E+04  0.40000000000E+03 0.  1.
   -9000005    1    1    2    0  502 -0.33493391879E+03  0.73700170287E+02 -0.66594163437E+03  0.84917059855E+03  0.40000000000E+03 0.  1.
<mgrwt>
<rscale>  2 0.52688940E+03</rscale>
<asrwt>0</asrwt>
<pdfrwt beam="1">  1       21 0.22861513E-01 0.52688940E+03</pdfrwt>
<pdfrwt beam="2">  1       21 0.30391810E+00 0.52688940E+03</pdfrwt>
<totfact> 0.44409692E+02</totfact>
</mgrwt>
</event>
<event>
 4    1  0.8722554E-003  0.5255069E+03  0.7818608E-02  0.1007328E+00
         21   -1    0    0  501  502  0.00000000000E+00  0.00000000000E+00  0.76428773226E+03  0.76428773226E+03  0.00000000000E+00 0. -1.
         21   -1    0    0  502  503 -0.00000000000E+00 -0.00000000000E+00 -0.36314853504E+03  0.36314853504E+03  0.00000000000E+00 0.  1.
    9000005    1    1    2  501    0  0.32953207239E+03  0.86983587983E+02  0.24049777763E+03  0.57792448672E+03  0.40000000000E+03 0.  1.
   -9000005    1    1    2    0  503 -0.32953207239E+03 -0.86983587983E+02  0.16064141959E+03  0.54951178058E+03  0.40000000000E+03 0.  1.
<mgrwt>
<rscale>  2 0.52550693E+03</rscale>
<asrwt>0</asrwt>
<pdfrwt beam="1">  1       21 0.11758273E+00 0.52550693E+03</pdfrwt>
<pdfrwt beam="2">  1       21 0.55869006E-01 0.52550693E+03</pdfrwt>
<totfact> 0.13936710E+03</totfact>
</mgrwt>
</event>
<event>
 4    1  0.8722554E-003  0.4535745E+03  0.7818608E-02  0.1026661E+00
         21   -1    0    0  503  502  0.00000000000E+00  0.00000000000E+00  0.45842955854E+03  0.45842955854E+03  0.00000000000E+00 0. -1.
         21   -1    0    0  501  503 -0.00000000000E+00 -0.00000000000E+00 -0.52229378941E+03  0.52229378941E+03  0.00000000000E+00 0. -1.
    9000005    1    1    2  501    0 -0.19325596562E+03  0.91552882245E+02  0.15204790999E+03  0.47838098356E+03  0.40000000000E+03 0. -1.
   -9000005    1    1    2    0  502  0.19325596562E+03 -0.91552882245E+02 -0.21591214087E+03  0.50234236440E+03  0.40000000000E+03 0. -1.
<mgrwt>
<rscale>  2 0.45357447E+03</rscale>
<asrwt>0</asrwt>
<pdfrwt beam="1">  1       21 0.70527624E-01 0.45357447E+03</pdfrwt>
<pdfrwt beam="2">  1       21 0.80352891E-01 0.45357447E+03</pdfrwt>
<totfact> 0.21431777E+03</totfact>
</mgrwt>
</event>
<event>
 4    1  0.8722554E-003  0.4224238E+03  0.7818608E-02  0.1036280E+00
         21   -1    0    0  501  502  0.00000000000E+00  0.00000000000E+00  0.46036028282E+03  0.46036028282E+03  0.00000000000E+00 0. -1.
         21   -1    0    0  502  503 -0.00000000000E+00 -0.00000000000E+00 -0.38989426700E+03  0.38989426700E+03  0.00000000000E+00 0. -1.
    9000005    1    1    2  501    0 -0.10022690242E+03  0.91632225782E+02  0.67747614269E+02  0.42782196766E+03  0.40000000000E+03 0. -1.
   -9000005    1    1    2    0  503  0.10022690242E+03 -0.91632225782E+02  0.27184015537E+01  0.42243258217E+03  0.40000000000E+03 0. -1.
<mgrwt>
<rscale>  2 0.42242384E+03</rscale>
<asrwt>0</asrwt>
<pdfrwt beam="1">  1       21 0.70824659E-01 0.42242384E+03</pdfrwt>
<pdfrwt beam="2">  1       21 0.59983734E-01 0.42242384E+03</pdfrwt>
<totfact> 0.41430249E+03</totfact>
</mgrwt>
</event>
<event>
 4    1  0.8722554E-003  0.4144735E+03  0.7818608E-02  0.1038880E+00
         21   -1    0    0  501  502  0.00000000000E+00  0.00000000000E+00  0.12346296977E+04  0.12346296977E+04  0.00000000000E+00 0.  1.
         21   -1    0    0  502  503 -0.00000000000E+00 -0.00000000000E+00 -0.15814576224E+03  0.15814576224E+03  0.00000000000E+00 0.  1.
    9000005    1    1    2  501    0 -0.31985998079E+02 -0.10375550484E+03  0.77964742901E+03  0.88297135991E+03  0.40000000000E+03 0.  1.
   -9000005    1    1    2    0  503  0.31985998079E+02  0.10375550484E+03  0.29683650645E+03  0.50980410004E+03  0.40000000000E+03 0.  1.
<mgrwt>
<rscale>  2 0.41447353E+03</rscale>
<asrwt>0</asrwt>
<pdfrwt beam="1">  1       21 0.18994302E+00 0.41447353E+03</pdfrwt>
<pdfrwt beam="2">  1       21 0.24330118E-01 0.41447353E+03</pdfrwt>
<totfact> 0.21465057E+03</totfact>
</mgrwt>
</event>
<event>
 4    1  0.8722554E-003  0.4345872E+03  0.7818608E-02  0.1032421E+00
         21   -1    0    0  501  502  0.00000000000E+00  0.00000000000E+00  0.97466515107E+02  0.97466515107E+02  0.00000000000E+00 0.  1.
         21   -1    0    0  502  503 -0.00000000000E+00 -0.00000000000E+00 -0.20197686564E+04  0.20197686564E+04  0.00000000000E+00 0.  1.
    9000005    1    1    2  501    0  0.28797124181E+02  0.16744170973E+03 -0.74782814610E+03  0.86493522106E+03  0.40000000000E+03 0. -1.
   -9000005    1    1    2    0  503 -0.28797124181E+02 -0.16744170973E+03 -0.11744739952E+04  0.12522999504E+04  0.40000000000E+03 0. -1.
<mgrwt>
<rscale>  2 0.43458716E+03</rscale>
<asrwt>0</asrwt>
<pdfrwt beam="1">  1       21 0.14994848E-01 0.43458716E+03</pdfrwt>
<pdfrwt beam="2">  1       21 0.31073364E+00 0.43458716E+03</pdfrwt>
<totfact> 0.94199866E+02</totfact>
</mgrwt>
</event>
<event>
 4    1  0.8722554E-003  0.4392747E+03  0.7818608E-02  0.1030970E+00
         21   -1    0    0  503  502  0.00000000000E+00  0.00000000000E+00  0.38956250769E+03  0.38956250769E+03  0.00000000000E+00 0. -1.
         21   -1    0    0  501  503 -0.00000000000E+00 -0.00000000000E+00 -0.49855171407E+03  0.49855171407E+03  0.00000000000E+00 0. -1.
    9000005    1    1    2  501    0  0.11924429391E+03  0.13690533630E+03 -0.90187310849E+02  0.44843731310E+03  0.40000000000E+03 0. -1.
   -9000005    1    1    2    0  502 -0.11924429391E+03 -0.13690533630E+03 -0.18801895529E+02  0.43967690867E+03  0.40000000000E+03 0. -1.
<mgrwt>
<rscale>  2 0.43927471E+03</rscale>
<asrwt>0</asrwt>
<pdfrwt beam="1">  1       21 0.59932694E-01 0.43927471E+03</pdfrwt>
<pdfrwt beam="2">  1       21 0.76700263E-01 0.43927471E+03</pdfrwt>
<totfact> 0.34426988E+03</totfact>
</mgrwt>
</event>
<event>
 4    1  0.8722554E-003  0.4280200E+03  0.7818608E-02  0.1034487E+00
         21   -1    0    0  503  502  0.00000000000E+00  0.00000000000E+00  0.62888344436E+03  0.62888344436E+03  0.00000000000E+00 0. -1.
         21   -1    0    0  501  503 -0.00000000000E+00 -0.00000000000E+00 -0.38764818670E+03  0.38764818670E+03  0.00000000000E+00 0.  1.
    9000005    1    1    2  501    0 -0.14094634144E+02  0.15166559686E+03  0.37399475198E+03  0.56839527311E+03  0.40000000000E+03 0. -1.
   -9000005    1    1    2    0  502  0.14094634144E+02 -0.15166559686E+03 -0.13275949432E+03  0.44813635795E+03  0.40000000000E+03 0.  1.
<mgrwt>
<rscale>  2 0.42801999E+03</rscale>
<asrwt>0</asrwt>
<pdfrwt beam="1">  1       21 0.96751300E-01 0.42801999E+03</pdfrwt>
<pdfrwt beam="2">  1       21 0.59638182E-01 0.42801999E+03</pdfrwt>
<totfact> 0.20272123E+03</totfact>
</mgrwt>
</event>
<event>
 4    1  0.8722554E-003  0.4499974E+03  0.7818608E-02  0.1027723E+00
         21   -1    0    0  503  502  0.00000000000E+00  0.00000000000E+00  0.13028080700E+03  0.13028080700E+03  0.00000000000E+00 0.  1.
         21   -1    0    0  501  503 -0.00000000000E+00 -0.00000000000E+00 -0.15584359810E+04  0.15584359810E+04  0.00000000000E+00 0. -1.
    9000005    1    1    2  501    0 -0.19569047124E+03  0.64829778237E+02 -0.67066833937E+03  0.80764700341E+03  0.40000000000E+03 0.  1.
   -9000005    1    1    2    0  502  0.19569047124E+03 -0.64829778237E+02 -0.75748683467E+03  0.88106978463E+03  0.40000000000E+03 0.  1.
<mgrwt>
<rscale>  2 0.44999740E+03</rscale>
<asrwt>0</asrwt>
<pdfrwt beam="1">  1       21 0.20043199E-01 0.44999740E+03</pdfrwt>
<pdfrwt beam="2">  1       21 0.23975941E+00 0.44999740E+03</pdfrwt>
<totfact> 0.14587362E+03</totfact>
</mgrwt>
</event>
<event>
 4    1  0.8722554E-003  0.4605670E+03  0.7818608E-02  0.1024617E+00
         21   -1    0    0  501  502  0.00000000000E+00  0.00000000000E+00  0.28131020459E+03  0.28131020459E+03  0.00000000000E+00 0.  1.
         21   -1    0    0  502  503 -0.00000000000E+00 -0.00000000000E+00 -0.77301960378E+03  0.77301960378E+03  0.00000000000E+00 0.  1.
    9000005    1    1    2  501    0  0.91887927783E+01  0.22811738592E+03 -0.16327377929E+03  0.48865151455E+03  0.40000000000E+03 0.  1.
   -9000005    1    1    2    0  503 -0.91887927783E+01 -0.22811738592E+03 -0.32843561991E+03  0.56567829382E+03  0.40000000000E+03 0.  1.
<mgrwt>
<rscale>  2 0.46056702E+03</rscale>
<asrwt>0</asrwt>
<pdfrwt beam="1">  1       21 0.43278494E-01 0.46056702E+03</pdfrwt>
<pdfrwt beam="2">  1       21 0.11892609E+00 0.46056702E+03</pdfrwt>
<totfact> 0.23846755E+03</totfact>
</mgrwt>
</event>
<event>
 4    1  0.8722554E-003  0.4025939E+03  0.7818608E-02  0.1042885E+00
         21   -1    0    0  501  502  0.00000000000E+00  0.00000000000E+00  0.48499526588E+03  0.48499526588E+03  0.00000000000E+00 0.  1.
         21   -1    0    0  502  503 -0.00000000000E+00 -0.00000000000E+00 -0.35408453376E+03  0.35408453376E+03  0.00000000000E+00 0.  1.
    9000005    1    1    2  501    0  0.56100995040E+01  0.45280960835E+02 -0.33983937594E+02  0.40402567572E+03  0.40000000000E+03 0.  1.
   -9000005    1    1    2    0  503 -0.56100995040E+01 -0.45280960835E+02  0.16489466972E+03  0.43505412391E+03  0.40000000000E+03 0.  1.
<mgrwt>
<rscale>  2 0.40259389E+03</rscale>
<asrwt>0</asrwt>
<pdfrwt beam="1">  1       21 0.74614657E-01 0.40259389E+03</pdfrwt>
<pdfrwt beam="2">  1       21 0.54474543E-01 0.40259389E+03</pdfrwt>
<totfact> 0.45708385E+03</totfact>
</mgrwt>
</event>
<event>
 4    1  0.8722554E-003  0.4400129E+03  0.7818608E-02  0.1030743E+00
         21   -1    0    0  503  502  0.00000000000E+00  0.00000000000E+00  0.21646768164E+03  0.21646768164E+03  0.00000000000E+00 0. -1.
         21   -1    0    0  501  503 -0.00000000000E+00 -0.00000000000E+00 -0.11169024102E+04  0.11169024102E+04  0.00000000000E+00 0. -1.
    9000005    1    1    2  501    0  0.91911249721E+02  0.15863054161E+03 -0.74777328254E+03  0.86762676805E+03  0.40000000000E+03 0. -1.
   -9000005    1    1    2    0  502 -0.91911249721E+02 -0.15863054161E+03 -0.15266144604E+03  0.46574332380E+03  0.40000000000E+03 0. -1.
<mgrwt>
<rscale>  2 0.44001287E+03</rscale>
<asrwt>0</asrwt>
<pdfrwt beam="1">  1       21 0.33302720E-01 0.44001287E+03</pdfrwt>
<pdfrwt beam="2">  1       21 0.17183114E+00 0.44001287E+03</pdfrwt>
<totfact> 0.15310762E+03</totfact>
</mgrwt>
</event>
<event>
 4    1  0.8722554E-003  0.4055322E+03  0.7818608E-02  0.1041881E+00
         21   -1    0    0  501  502  0.00000000000E+00  0.00000000000E+00  0.18404915986E+03  0.18404915986E+03  0.00000000000E+00 0.  1.
         21   -1    0    0  502  503 -0.00000000000E+00 -0.00000000000E+00 -0.89670221752E+03  0.89670221752E+03  0.00000000000E+00 0.  1.
    9000005    1    1    2  501    0 -0.26197980866E+02  0.61400516351E+02 -0.38838682083E+03  0.56151641134E+03  0.40000000000E+03 0. -1.
   -9000005    1    1    2    0  503  0.26197980866E+02 -0.61400516351E+02 -0.32426623683E+03  0.51923496604E+03  0.40000000000E+03 0. -1.
<mgrwt>
<rscale>  2 0.40553219E+03</rscale>
<asrwt>0</asrwt>
<pdfrwt beam="1">  1       21 0.28315255E-01 0.40553219E+03</pdfrwt>
<pdfrwt beam="2">  1       21 0.13795419E+00 0.40553219E+03</pdfrwt>
<totfact> 0.39161501E+03</totfact>
</mgrwt>
</event>
<event>
 4    1  0.8722554E-003  0.4693931E+03  0.7818608E-02  0.1022092E+00
         21   -1    0    0  503  502  0.00000000000E+00  0.00000000000E+00  0.21913745586E+04  0.21913745586E+04  0.00000000000E+00 0. -1.
         21   -1    0    0  501  503 -0.00000000000E+00 -0.00000000000E+00 -0.14706568721E+03  0.14706568721E+03  0.00000000000E+00 0. -1.
    9000005    1    1    2  501    0  0.23862707549E+03 -0.58197582069E+02  0.36454544334E+03  0.59432585336E+03  0.40000000000E+03 0. -1.
   -9000005    1    1    2    0  502 -0.23862707549E+03  0.58197582069E+02  0.16797634280E+04  0.17441143924E+04  0.40000000000E+03 0. -1.
<mgrwt>
<rscale>  2 0.46939305E+03</rscale>
<asrwt>0</asrwt>
<pdfrwt beam="1">  1       21 0.33713452E+00 0.46939305E+03</pdfrwt>
<pdfrwt beam="2">  1       21 0.22625492E-01 0.46939305E+03</pdfrwt>
<totfact> 0.29376319E+02</totfact>
</mgrwt>
</event>
<event>
 4    1  0.8722554E-003  0.4365704E+03  0.7818608E-02  0.1031804E+00
         21   -1    0    0  501  502  0.00000000000E+00  0.00000000000E+00  0.49340245829E+03  0.49340245829E+03  0.00000000000E+00 0.  1.
         21   -1    0    0  502  503 -0.00000000000E+00 -0.00000000000E+00 -0.41467315791E+03  0.41467315791E+03  0.00000000000E+00 0. -1.
    9000005    1    1    2  501    0 -0.32150317644E+02  0.17193043428E+03  0.15816331530E+03  0.46433754044E+03  0.40000000000E+03 0. -1.
   -9000005    1    1    2    0  503  0.32150317644E+02 -0.17193043428E+03 -0.79434014920E+02  0.44373807577E+03  0.40000000000E+03 0.  1.
<mgrwt>
<rscale>  2 0.43657040E+03</rscale>
<asrwt>0</asrwt>
<pdfrwt beam="1">  1       21 0.75908070E-01 0.43657040E+03</pdfrwt>
<pdfrwt beam="2">  1       21 0.63795871E-01 0.43657040E+03</pdfrwt>
<totfact> 0.30754043E+03</totfact>
</mgrwt>
</event>
<event>
 4    1  0.8722554E-003  0.4463981E+03  0.7818608E-02  0.1028802E+00
         21   -1    0    0  503  502  0.00000000000E+00  0.00000000000E+00  0.61802471632E+03  0.61802471632E+03  0.00000000000E+00 0. -1.
         21   -1    0    0  501  503 -0.00000000000E+00 -0.00000000000E+00 -0.39568889283E+03  0.39568889283E+03  0.00000000000E+00 0. -1.
    9000005    1    1    2  501    0  0.37568769991E+02  0.19457599849E+03 -0.10691981485E+03  0.45902404999E+03  0.40000000000E+03 0. -1.
   -9000005    1    1    2    0  502 -0.37568769991E+02 -0.19457599849E+03  0.32925563834E+03  0.55468955916E+03  0.40000000000E+03 0. -1.
<mgrwt>
<rscale>  2 0.44639806E+03</rscale>
<asrwt>0</asrwt>
<pdfrwt beam="1">  1       21 0.95080726E-01 0.44639806E+03</pdfrwt>
<pdfrwt beam="2">  1       21 0.60875214E-01 0.44639806E+03</pdfrwt>
<totfact> 0.20064271E+03</totfact>
</mgrwt>
</event>
<event>
 4    1  0.8722554E-003  0.5177146E+03  0.7818608E-02  0.1009256E+00
         21   -1    0    0  501  502  0.00000000000E+00  0.00000000000E+00  0.35560820048E+03  0.35560820048E+03  0.00000000000E+00 0.  1.
         21   -1    0    0  502  503 -0.00000000000E+00 -0.00000000000E+00 -0.91335323067E+03  0.91335323067E+03  0.00000000000E+00 0. -1.
    9000005    1    1    2  501    0  0.32434336055E+03 -0.53195353607E+02 -0.13617754900E+02  0.51789362269E+03  0.40000000000E+03 0.  1.
   -9000005    1    1    2    0  503 -0.32434336055E+03  0.53195353607E+02 -0.54412727529E+03  0.75106780845E+03  0.40000000000E+03 0. -1.
<mgrwt>
<rscale>  2 0.51771456E+03</rscale>
<asrwt>0</asrwt>
<pdfrwt beam="1">  1       21 0.54708954E-01 0.51771456E+03</pdfrwt>
<pdfrwt beam="2">  1       21 0.14051588E+00 0.51771456E+03</pdfrwt>
<totfact> 0.91988438E+02</totfact>
</mgrwt>
</event>
<event>
 4    1  0.8722554E-003  0.4008888E+03  0.7818608E-02  0.1043472E+00
         21   -1    0    0  501  502  0.00000000000E+00  0.00000000000E+00  0.34444118641E+03  0.34444118641E+03  0.00000000000E+00 0. -1.
         21   -1    0    0  502  503 -0.00000000000E+00 -0.00000000000E+00 -0.46834710646E+03  0.46834710646E+03  0.00000000000E+00 0. -1.
    9000005    1    1    2  501    0 -0.24627376127E+01 -0.26566706899E+02 -0.37041104694E+02  0.40259644612E+03  0.40000000000E+03 0. -1.
   -9000005    1    1    2    0  503  0.24627376127E+01  0.26566706899E+02 -0.86864815351E+02  0.41019184675E+03  0.40000000000E+03 0. -1.
<mgrwt>
<rscale>  2 0.40088883E+03</rscale>
<asrwt>0</asrwt>
<pdfrwt beam="1">  1       21 0.52990952E-01 0.40088883E+03</pdfrwt>
<pdfrwt beam="2">  1       21 0.72053401E-01 0.40088883E+03</pdfrwt>
<totfact> 0.52524990E+03</totfact>
</mgrwt>
</event>
<event>
 4    1  0.8722554E-003  0.4568286E+03  0.7818608E-02  0.1025705E+00
         21   -1    0    0  501  502  0.00000000000E+00  0.00000000000E+00  0.19389470140E+03  0.19389470140E+03  0.00000000000E+00 0. -1.
         21   -1    0    0  502  503 -0.00000000000E+00 -0.00000000000E+00 -0.11914953646E+04  0.11914953646E+04  0.00000000000E+00 0. -1.
    9000005    1    1    2  501    0 -0.13952573916E+03  0.17095304516E+03 -0.28343326868E+03  0.53761212164E+03  0.40000000000E+03 0. -1.
   -9000005    1    1    2    0  503  0.13952573916E+03 -0.17095304516E+03 -0.71416739449E+03  0.84777794433E+03  0.40000000000E+03 0. -1.
<mgrwt>
<rscale>  2 0.45682861E+03</rscale>
<asrwt>0</asrwt>
<pdfrwt beam="1">  1       21 0.29829954E-01 0.45682861E+03</pdfrwt>
<pdfrwt beam="2">  1       21 0.18330698E+00 0.45682861E+03</pdfrwt>
<totfact> 0.15700843E+03</totfact>
</mgrwt>
</event>
<event>
 4    1  0.8722554E-003  0.4779324E+03  0.7818608E-02  0.1019705E+00
         21   -1    0    0  503  502  0.00000000000E+00  0.00000000000E+00  0.13590359547E+03  0.13590359547E+03  0.00000000000E+00 0. -1.
         21   -1    0    0  501  503 -0.00000000000E+00 -0.00000000000E+00 -0.17060806095E+04  0.17060806095E+04  0.00000000000E+00 0. -1.
    9000005    1    1    2  501    0 -0.10098650004E+03  0.24129054609E+03 -0.67285701638E+03  0.82532173443E+03  0.40000000000E+03 0. -1.
   -9000005    1    1    2    0  502  0.10098650004E+03 -0.24129054609E+03 -0.89731999768E+03  0.10166624706E+04  0.40000000000E+03 0. -1.
<mgrwt>
<rscale>  2 0.47793242E+03</rscale>
<asrwt>0</asrwt>
<pdfrwt beam="1">  1       21 0.20908244E-01 0.47793242E+03</pdfrwt>
<pdfrwt beam="2">  1       21 0.26247396E+00 0.47793242E+03</pdfrwt>
<totfact> 0.96275255E+02</totfact>
</mgrwt>
</event>
<event>
 4    1  0.8722554E-003  0.4681688E+03  0.7818608E-02  0.1022438E+00
         21   -1    0    0  501  502  0.00000000000E+00  0.00000000000E+00  0.27820856859E+03  0.27820856859E+03  0.00000000000E+00 0.  1.
         21   -1    0    0  502  503 -0.00000000000E+00 -0.00000000000E+00 -0.10273940282E+04  0.10273940282E+04  0.00000000000E+00 0.  1.
    9000005    1    1    2  501    0 -0.17986014300E+03 -0.16380577550E+03 -0.68981740846E+03  0.83368462870E+03  0.40000000000E+03 0.  1.
   -9000005    1    1    2    0  503  0.17986014300E+03  0.16380577550E+03 -0.59368051187E+02  0.47191796811E+03  0.40000000000E+03 0.  1.
<mgrwt>
<rscale>  2 0.46816878E+03</rscale>
<asrwt>0</asrwt>
<pdfrwt beam="1">  1       21 0.42801319E-01 0.46816878E+03</pdfrwt>
<pdfrwt beam="2">  1       21 0.15806062E+00 0.46816878E+03</pdfrwt>
<totfact> 0.11460314E+03</totfact>
</mgrwt>
</event>
<event>
 4    1  0.8722554E-003  0.4064863E+03  0.7818608E-02  0.1041557E+00
         21   -1    0    0  503  502  0.00000000000E+00  0.00000000000E+00  0.96373033139E+03  0.96373033139E+03  0.00000000000E+00 0.  1.
         21   -1    0    0  501  503 -0.00000000000E+00 -0.00000000000E+00 -0.17463155426E+03  0.17463155426E+03  0.00000000000E+00 0.  1.
    9000005    1    1    2  501    0  0.64120986919E+02 -0.33460985922E+02  0.31771796491E+03  0.51592232338E+03  0.40000000000E+03 0. -1.
   -9000005    1    1    2    0  502 -0.64120986919E+02  0.33460985922E+02  0.47138081222E+03  0.62243956227E+03  0.40000000000E+03 0. -1.
<mgrwt>
<rscale>  2 0.40648633E+03</rscale>
<asrwt>0</asrwt>
<pdfrwt beam="1">  1       21 0.14826620E+00 0.40648633E+03</pdfrwt>
<pdfrwt beam="2">  1       21 0.26866393E-01 0.40648633E+03</pdfrwt>
<totfact> 0.35802123E+03</totfact>
</mgrwt>
</event>
<event>
 4    1  0.8722554E-003  0.4624567E+03  0.7818608E-02  0.1024071E+00
         21   -1    0    0  501  502  0.00000000000E+00  0.00000000000E+00  0.16803477067E+03  0.16803477067E+03  0.00000000000E+00 0.  1.
         21   -1    0    0  502  503 -0.00000000000E+00 -0.00000000000E+00 -0.13698462599E+04  0.13698462599E+04  0.00000000000E+00 0. -1.
    9000005    1    1    2  501    0 -0.16664536106E+03 -0.16154118462E+03 -0.39618662928E+03  0.60895818897E+03  0.40000000000E+03 0.  1.
   -9000005    1    1    2    0  503  0.16664536106E+03  0.16154118462E+03 -0.80562486000E+03  0.92892284165E+03  0.40000000000E+03 0. -1.
<mgrwt>
<rscale>  2 0.46245673E+03</rscale>
<asrwt>0</asrwt>
<pdfrwt beam="1">  1       21 0.25851503E-01 0.46245673E+03</pdfrwt>
<pdfrwt beam="2">  1       21 0.21074558E+00 0.46245673E+03</pdfrwt>
<totfact> 0.13572108E+03</totfact>
</mgrwt>
</event>
<event>
 4    1  0.8722554E-003  0.6080201E+03  0.7818608E-02  0.9888905E-01
         21   -1    0    0  501  502  0.00000000000E+00  0.00000000000E+00  0.20992820384E+03  0.20992820384E+03  0.00000000000E+00 0. -1.
         21   -1    0    0  502  503 -0.00000000000E+00 -0.00000000000E+00 -0.18519792682E+04  0.18519792682E+04  0.00000000000E+00 0. -1.
    9000005    1    1    2  501    0  0.15846712778E+03 -0.42962375942E+03 -0.59255125069E+03  0.84900258536E+03  0.40000000000E+03 0. -1.
   -9000005    1    1    2    0  503 -0.15846712778E+03  0.42962375942E+03 -0.10494998136E+04  0.12129048867E+04  0.40000000000E+03 0. -1.
<mgrwt>
<rscale>  2 0.60802007E+03</rscale>
<asrwt>0</asrwt>
<pdfrwt beam="1">  1       21 0.32296645E-01 0.60802007E+03</pdfrwt>
<pdfrwt beam="2">  1       21 0.28491990E+00 0.60802007E+03</pdfrwt>
<totfact> 0.28235245E+02</totfact>
</mgrwt>
</event>
<event>
 4    1  0.8722554E-003  0.6555438E+03  0.7818608E-02  0.9796432E-01
         21   -1    0    0  503  502  0.00000000000E+00  0.00000000000E+00  0.67455488354E+03  0.67455488354E+03  0.00000000000E+00 0. -1.
         21   -1    0    0  501  503 -0.00000000000E+00 -0.00000000000E+00 -0.64960966385E+03  0.64960966385E+03  0.00000000000E+00 0. -1.
    9000005    1    1    2  501    0 -0.51709721411E+03 -0.48457280535E+02  0.10446574864E+03  0.66381528268E+03  0.40000000000E+03 0. -1.
   -9000005    1    1    2    0  502  0.51709721411E+03  0.48457280535E+02 -0.79520528952E+02  0.66034926471E+03  0.40000000000E+03 0. -1.
<mgrwt>
<rscale>  2 0.65554377E+03</rscale>
<asrwt>0</asrwt>
<pdfrwt beam="1">  1       21 0.10377767E+00 0.65554377E+03</pdfrwt>
<pdfrwt beam="2">  1       21 0.99939949E-01 0.65554377E+03</pdfrwt>
<totfact> 0.47985756E+02</totfact>
</mgrwt>
</event>
<event>
 4    1  0.8722554E-003  0.4147050E+03  0.7818608E-02  0.1038804E+00
         21   -1    0    0  501  502  0.00000000000E+00  0.00000000000E+00  0.54342151933E+03  0.54342151933E+03  0.00000000000E+00 0. -1.
         21   -1    0    0  502  503 -0.00000000000E+00 -0.00000000000E+00 -0.32413819954E+03  0.32413819954E+03  0.00000000000E+00 0. -1.
    9000005    1    1    2  501    0  0.90570309686E+02  0.61459613032E+02  0.42951718275E+02  0.41692339240E+03  0.40000000000E+03 0.  1.
   -9000005    1    1    2    0  503 -0.90570309686E+02 -0.61459613032E+02  0.17633160151E+03  0.45063632646E+03  0.40000000000E+03 0.  1.
<mgrwt>
<rscale>  2 0.41470503E+03</rscale>
<asrwt>0</asrwt>
<pdfrwt beam="1">  1       21 0.83603310E-01 0.41470503E+03</pdfrwt>
<pdfrwt beam="2">  1       21 0.49867415E-01 0.41470503E+03</pdfrwt>
<totfact> 0.42309363E+03</totfact>
</mgrwt>
</event>
<event>
 4    1  0.8722554E-003  0.4384362E+03  0.7818608E-02  0.1031228E+00
         21   -1    0    0  503  502  0.00000000000E+00  0.00000000000E+00  0.12512232825E+04  0.12512232825E+04  0.00000000000E+00 0.  1.
         21   -1    0    0  501  503 -0.00000000000E+00 -0.00000000000E+00 -0.18125876568E+03  0.18125876568E+03  0.00000000000E+00 0.  1.
    9000005    1    1    2  501    0 -0.75063788177E+02  0.16306967984E+03  0.25535144663E+03  0.50737624508E+03  0.40000000000E+03 0. -1.
   -9000005    1    1    2    0  502  0.75063788177E+02 -0.16306967984E+03  0.81461307020E+03  0.92510580310E+03  0.40000000000E+03 0. -1.
<mgrwt>
<rscale>  2 0.43843619E+03</rscale>
<asrwt>0</asrwt>
<pdfrwt beam="1">  1       21 0.19249588E+00 0.43843619E+03</pdfrwt>
<pdfrwt beam="2">  1       21 0.27885965E-01 0.43843619E+03</pdfrwt>
<totfact> 0.15633561E+03</totfact>
</mgrwt>
</event>
<event>
 4    1  0.8722554E-003  0.4071912E+03  0.7818608E-02  0.1041318E+00
         21   -1    0    0  503  502  0.00000000000E+00  0.00000000000E+00  0.32099173304E+03  0.32099173304E+03  0.00000000000E+00 0.  1.
         21   -1    0    0  501  503 -0.00000000000E+00 -0.00000000000E+00 -0.52166981373E+03  0.52166981373E+03  0.00000000000E+00 0.  1.
    9000005    1    1    2  501    0  0.48231419424E+01  0.76035342434E+02 -0.58552797641E+02  0.41137946729E+03  0.40000000000E+03 0.  1.
   -9000005    1    1    2    0  502 -0.48231419424E+01 -0.76035342434E+02 -0.14212528304E+03  0.43128207948E+03  0.40000000000E+03 0.  1.
<mgrwt>
<rscale>  2 0.40719115E+03</rscale>
<asrwt>0</asrwt>
<pdfrwt beam="1">  1       21 0.49383344E-01 0.40719115E+03</pdfrwt>
<pdfrwt beam="2">  1       21 0.80256894E-01 0.40719115E+03</pdfrwt>
<totfact> 0.47611673E+03</totfact>
</mgrwt>
</event>
<event>
 4    1  0.8722554E-003  0.4782230E+03  0.7818608E-02  0.1019625E+00
         21   -1    0    0  503  502  0.00000000000E+00  0.00000000000E+00  0.22816343910E+04  0.22816343910E+04  0.00000000000E+00 0. -1.
         21   -1    0    0  501  503 -0.00000000000E+00 -0.00000000000E+00 -0.12950476769E+03  0.12950476769E+03  0.00000000000E+00 0. -1.
    9000005    1    1    2  501    0  0.11101856216E+03 -0.23742813091E+03  0.50291679536E+03  0.69399030364E+03  0.40000000000E+03 0. -1.
   -9000005    1    1    2    0  502 -0.11101856216E+03  0.23742813091E+03  0.16492128279E+04  0.17171488550E+04  0.40000000000E+03 0. -1.
<mgrwt>
<rscale>  2 0.47822300E+03</rscale>
<asrwt>0</asrwt>
<pdfrwt beam="1">  1       21 0.35102065E+00 0.47822300E+03</pdfrwt>
<pdfrwt beam="2">  1       21 0.19923812E-01 0.47822300E+03</pdfrwt>
<totfact> 0.30653041E+02</totfact>
</mgrwt>
</event>
<event>
 4    1  0.8722554E-003  0.5058018E+03  0.7818608E-02  0.1012276E+00
         21   -1    0    0  503  502  0.00000000000E+00  0.00000000000E+00  0.28377096077E+03  0.28377096077E+03  0.00000000000E+00 0.  1.
         21   -1    0    0  501  503 -0.00000000000E+00 -0.00000000000E+00 -0.96556260316E+03  0.96556260316E+03  0.00000000000E+00 0.  1.
    9000005    1    1    2  501    0  0.26678402223E+03  0.15704048503E+03 -0.50172705377E+03  0.71243628834E+03  0.40000000000E+03 0.  1.
   -9000005    1    1    2    0  502 -0.26678402223E+03 -0.15704048503E+03 -0.18006458861E+03  0.53689727558E+03  0.40000000000E+03 0.  1.
<mgrwt>
<rscale>  2 0.50580177E+03</rscale>
<asrwt>0</asrwt>
<pdfrwt beam="1">  1       21 0.43657071E-01 0.50580177E+03</pdfrwt>
<pdfrwt beam="2">  1       21 0.14854809E+00 0.50580177E+03</pdfrwt>
<totfact> 0.12849535E+03</totfact>
</mgrwt>
</event>
<event>
 4    1  0.8722554E-003  0.4650911E+03  0.7818608E-02  0.1023315E+00
         21   -1    0    0  503  502  0.00000000000E+00  0.00000000000E+00  0.72266872196E+03  0.72266872196E+03  0.00000000000E+00 0. -1.
         21   -1    0    0  501  503 -0.00000000000E+00 -0.00000000000E+00 -0.39891126734E+03  0.39891126734E+03  0.00000000000E+00 0. -1.
    9000005    1    1    2  501    0 -0.12188215093E+03  0.20360367757E+03  0.44208069611E+03  0.64167363831E+03  0.40000000000E+03 0. -1.
   -9000005    1    1    2    0  502  0.12188215093E+03 -0.20360367757E+03 -0.11832324148E+03  0.47990635098E+03  0.40000000000E+03 0. -1.
<mgrwt>
<rscale>  2 0.46509108E+03</rscale>
<asrwt>0</asrwt>
<pdfrwt beam="1">  1       21 0.11117980E+00 0.46509108E+03</pdfrwt>
<pdfrwt beam="2">  1       21 0.61370965E-01 0.46509108E+03</pdfrwt>
<totfact> 0.13345721E+03</totfact>
</mgrwt>
</event>
<event>
 4    1  0.8722554E-003  0.6073158E+03  0.7818608E-02  0.9890343E-01
         21   -1    0    0  501  502  0.00000000000E+00  0.00000000000E+00  0.20285485739E+04  0.20285485739E+04  0.00000000000E+00 0.  1.
         21   -1    0    0  502  503 -0.00000000000E+00 -0.00000000000E+00 -0.19462429183E+03  0.19462429183E+03  0.00000000000E+00 0. -1.
    9000005    1    1    2  501    0  0.31716422984E+03 -0.32899738471E+03  0.63185501945E+03  0.87639785112E+03  0.40000000000E+03 0. -1.
   -9000005    1    1    2    0  503 -0.31716422984E+03  0.32899738471E+03  0.12020692626E+04  0.13467750146E+04  0.40000000000E+03 0.  1.
<mgrwt>
<rscale>  2 0.60731576E+03</rscale>
<asrwt>0</asrwt>
<pdfrwt beam="1">  1       21 0.31208438E+00 0.60731576E+03</pdfrwt>
<pdfrwt beam="2">  1       21 0.29942200E-01 0.60731576E+03</pdfrwt>
<totfact> 0.22454639E+02</totfact>
</mgrwt>
</event>
<event>
 4    1  0.8722554E-003  0.4839157E+03  0.7818608E-02  0.1018065E+00
         21   -1    0    0  503  502  0.00000000000E+00  0.00000000000E+00  0.81849113814E+03  0.81849113814E+03  0.00000000000E+00 0. -1.
         21   -1    0    0  501  503 -0.00000000000E+00 -0.00000000000E+00 -0.28623266468E+03  0.28623266468E+03  0.00000000000E+00 0. -1.
    9000005    1    1    2  501    0 -0.88359785820E+02  0.25761791085E+03  0.25446566386E+03  0.54674236513E+03  0.40000000000E+03 0. -1.
   -9000005    1    1    2    0  502  0.88359785820E+02 -0.25761791085E+03  0.27779280961E+03  0.55798143769E+03  0.40000000000E+03 0. -1.
<mgrwt>
<rscale>  2 0.48391574E+03</rscale>
<asrwt>0</asrwt>
<pdfrwt beam="1">  1       21 0.12592171E+00 0.48391574E+03</pdfrwt>
<pdfrwt beam="2">  1       21 0.44035795E-01 0.48391574E+03</pdfrwt>
<totfact> 0.19696447E+03</totfact>
</mgrwt>
</event>
<event>
 4    1  0.8722554E-003  0.4520120E+03  0.7818608E-02  0.1027124E+00
         21   -1    0    0  501  502  0.00000000000E+00  0.00000000000E+00  0.11956807650E+04  0.11956807650E+04  0.00000000000E+00 0.  1.
         21   -1    0    0  502  503 -0.00000000000E+00 -0.00000000000E+00 -0.18855918921E+03  0.18855918921E+03  0.00000000000E+00 0. -1.
    9000005    1    1    2  501    0 -0.80450569858E+02 -0.19453152992E+03  0.29161697589E+03  0.53791753174E+03  0.40000000000E+03 0. -1.
   -9000005    1    1    2    0  503  0.80450569858E+02  0.19453152992E+03  0.71550459992E+03  0.84632242250E+03  0.40000000000E+03 0. -1.
<mgrwt>
<rscale>  2 0.45201196E+03</rscale>
<asrwt>0</asrwt>
<pdfrwt beam="1">  1       21 0.18395088E+00 0.45201196E+03</pdfrwt>
<pdfrwt beam="2">  1       21 0.29009107E-01 0.45201196E+03</pdfrwt>
<totfact> 0.16456885E+03</totfact>
</mgrwt>
</event>
<event>
 4    1  0.8722554E-003  0.5201004E+03  0.7818608E-02  0.1008662E+00
         21   -1    0    0  503  502  0.00000000000E+00  0.00000000000E+00  0.13522599592E+04  0.13522599592E+04  0.00000000000E+00 0. -1.
         21   -1    0    0  501  503 -0.00000000000E+00 -0.00000000000E+00 -0.35632672842E+03  0.35632672842E+03  0.00000000000E+00 0. -1.
    9000005    1    1    2  501    0  0.28140058432E+03 -0.17696945167E+03 -0.67810690251E+02  0.52450239789E+03  0.40000000000E+03 0. -1.
   -9000005    1    1    2    0  502 -0.28140058432E+03  0.17696945167E+03  0.10637439210E+04  0.11840842898E+04  0.40000000000E+03 0. -1.
<mgrwt>
<rscale>  2 0.52010045E+03</rscale>
<asrwt>0</asrwt>
<pdfrwt beam="1">  1       21 0.20803999E+00 0.52010045E+03</pdfrwt>
<pdfrwt beam="2">  1       21 0.54819497E-01 0.52010045E+03</pdfrwt>
<totfact> 0.29485690E+02</totfact>
</mgrwt>
</event>
<event>
 4    1  0.8722554E-003  0.7772280E+03  0.7818608E-02  0.9593576E-01
         21   -1    0    0  503  502  0.00000000000E+00  0.00000000000E+00  0.65589124544E+03  0.65589124544E+03  0.00000000000E+00 0. -1.
         21   -1    0    0  501  503 -0.00000000000E+00 -0.00000000000E+00 -0.97837330958E+03  0.97837330958E+03  0.00000000000E+00 0.  1.
    9000005    1    1    2  501    0 -0.46918391709E+03  0.47323341753E+03  0.36615905694E+02  0.77809005910E+03  0.40000000000E+03 0. -1.
   -9000005    1    1    2    0  502  0.46918391709E+03 -0.47323341753E+03 -0.35909796984E+03  0.85617449592E+03  0.40000000000E+03 0.  1.
<mgrwt>
<rscale>  2 0.77722803E+03</rscale>
<asrwt>0</asrwt>
<pdfrwt beam="1">  1       21 0.10090635E+00 0.77722803E+03</pdfrwt>
<pdfrwt beam="2">  1       21 0.15051897E+00 0.77722803E+03</pdfrwt>
<totfact> 0.17145115E+02</totfact>
</mgrwt>
</event>
<event>
 4    1  0.8722554E-003  0.5466433E+03  0.7818608E-02  0.1002274E+00
         21   -1    0    0  501  502  0.00000000000E+00  0.00000000000E+00  0.25181726854E+03  0.25181726854E+03  0.00000000000E+00 0. -1.
         21   -1    0    0  502  503 -0.00000000000E+00 -0.00000000000E+00 -0.11946571729E+04  0.11946571729E+04  0.00000000000E+00 0.  1.
    9000005    1    1    2  501    0  0.15865782670E+03 -0.33711512976E+03 -0.53063111259E+03  0.76183219565E+03  0.40000000000E+03 0.  1.
   -9000005    1    1    2    0  503 -0.15865782670E+03  0.33711512976E+03 -0.41220879174E+03  0.68464224575E+03  0.40000000000E+03 0.  1.
<mgrwt>
<rscale>  2 0.54664332E+03</rscale>
<asrwt>0</asrwt>
<pdfrwt beam="1">  1       21 0.38741118E-01 0.54664332E+03</pdfrwt>
<pdfrwt beam="2">  1       21 0.18379341E+00 0.54664332E+03</pdfrwt>
<totfact> 0.88661572E+02</totfact>
</mgrwt>
</event>
<event>
 4    1  0.8722554E-003  0.4885577E+03  0.7818608E-02  0.1016809E+00
         21   -1    0    0  501  502  0.00000000000E+00  0.00000000000E+00  0.13258817124E+03  0.13258817124E+03  0.00000000000E+00 0.  1.
         21   -1    0    0  502  503 -0.00000000000E+00 -0.00000000000E+00 -0.18722786720E+04  0.18722786720E+04  0.00000000000E+00 0.  1.
    9000005    1    1    2  501    0 -0.13106313709E+03 -0.24801429469E+03 -0.67319424260E+03  0.83179271730E+03  0.40000000000E+03 0.  1.
   -9000005    1    1    2    0  503  0.13106313709E+03  0.24801429469E+03 -0.10664962582E+04  0.11730741260E+04  0.40000000000E+03 0.  1.
<mgrwt>
<rscale>  2 0.48855771E+03</rscale>
<asrwt>0</asrwt>
<pdfrwt beam="1">  1       21 0.20398181E-01 0.48855771E+03</pdfrwt>
<pdfrwt beam="2">  1       21 0.28804286E+00 0.48855771E+03</pdfrwt>
<totfact> 0.70263398E+02</totfact>
</mgrwt>
</event>
<event>
 4    1  0.8722554E-003  0.4309376E+03  0.7818608E-02  0.1033564E+00
         21   -1    0    0  501  502  0.00000000000E+00  0.00000000000E+00  0.10078258387E+03  0.10078258387E+03  0.00000000000E+00 0. -1.
         21   -1    0    0  502  503 -0.00000000000E+00 -0.00000000000E+00 -0.18877746756E+04  0.18877746756E+04  0.00000000000E+00 0. -1.
    9000005    1    1    2  501    0  0.16016538897E+03  0.73671932719E+01 -0.73977597994E+03  0.85614001651E+03  0.40000000000E+03 0.  1.
   -9000005    1    1    2    0  503 -0.16016538897E+03 -0.73671932719E+01 -0.10472161118E+04  0.11324172429E+04  0.40000000000E+03 0.  1.
<mgrwt>
<rscale>  2 0.43093761E+03</rscale>
<asrwt>0</asrwt>
<pdfrwt beam="1">  1       21 0.15505012E-01 0.43093761E+03</pdfrwt>
<pdfrwt beam="2">  1       21 0.29042689E+00 0.43093761E+03</pdfrwt>
<totfact> 0.11745571E+03</totfact>
</mgrwt>
</event>
<event>
 4    1  0.8722554E-003  0.4122825E+03  0.7818608E-02  0.1039608E+00
         21   -1    0    0  501  502  0.00000000000E+00  0.00000000000E+00  0.14443406624E+03  0.14443406624E+03  0.00000000000E+00 0.  1.
         21   -1    0    0  502  503 -0.00000000000E+00 -0.00000000000E+00 -0.21999635285E+04  0.21999635285E+04  0.00000000000E+00 0.  1.
    9000005    1    1    2  501    0 -0.76008964008E+02 -0.64803382454E+02 -0.22837968918E+03  0.47131106863E+03  0.40000000000E+03 0.  1.
   -9000005    1    1    2    0  503  0.76008964008E+02  0.64803382454E+02 -0.18271497731E+04  0.18730865261E+04  0.40000000000E+03 0.  1.
<mgrwt>
<rscale>  2 0.41228248E+03</rscale>
<asrwt>0</asrwt>
<pdfrwt beam="1">  1       21 0.22220626E-01 0.41228248E+03</pdfrwt>
<pdfrwt beam="2">  1       21 0.33845592E+00 0.41228248E+03</pdfrwt>
<totfact> 0.30954222E+02</totfact>
</mgrwt>
</event>
<event>
 4    1  0.8722554E-003  0.4320669E+03  0.7818608E-02  0.1033209E+00
         21   -1    0    0  503  502  0.00000000000E+00  0.00000000000E+00  0.58718262280E+03  0.58718262280E+03  0.00000000000E+00 0.  1.
         21   -1    0    0  501  503 -0.00000000000E+00 -0.00000000000E+00 -0.32210246804E+03  0.32210246804E+03  0.00000000000E+00 0.  1.
    9000005    1    1    2  501    0  0.51856892276E+02  0.15489556321E+03  0.18429787111E+03  0.46973128284E+03  0.40000000000E+03 0.  1.
   -9000005    1    1    2    0  502 -0.51856892276E+02 -0.15489556321E+03  0.80782283650E+02  0.43955380801E+03  0.40000000000E+03 0.  1.
<mgrwt>
<rscale>  2 0.43206686E+03</rscale>
<asrwt>0</asrwt>
<pdfrwt beam="1">  1       21 0.90335788E-01 0.43206686E+03</pdfrwt>
<pdfrwt beam="2">  1       21 0.49554226E-01 0.43206686E+03</pdfrwt>
<totfact> 0.35526310E+03</totfact>
</mgrwt>
</event>
<event>
 4    1  0.8722554E-003  0.4323043E+03  0.7818608E-02  0.1033135E+00
         21   -1    0    0  501  502  0.00000000000E+00  0.00000000000E+00  0.70831053954E+03  0.70831053954E+03  0.00000000000E+00 0. -1.
         21   -1    0    0  502  503 -0.00000000000E+00 -0.00000000000E+00 -0.26549248640E+03  0.26549248640E+03  0.00000000000E+00 0. -1.
    9000005    1    1    2  501    0 -0.16095491612E+03  0.31313856015E+02  0.18310051704E+03  0.46948146070E+03  0.40000000000E+03 0.  1.
   -9000005    1    1    2    0  503  0.16095491612E+03 -0.31313856015E+02  0.25971753610E+03  0.50432156524E+03  0.40000000000E+03 0.  1.
<mgrwt>
<rscale>  2 0.43230434E+03</rscale>
<asrwt>0</asrwt>
<pdfrwt beam="1">  1       21 0.10897085E+00 0.43230434E+03</pdfrwt>
<pdfrwt beam="2">  1       21 0.40844998E-01 0.43230434E+03</pdfrwt>
<totfact> 0.33798749E+03</totfact>
</mgrwt>
</event>
<event>
 4    1  0.8722554E-003  0.4636684E+03  0.7818608E-02  0.1023723E+00
         21   -1    0    0  503  502  0.00000000000E+00  0.00000000000E+00  0.80800985473E+03  0.80800985473E+03  0.00000000000E+00 0.  1.
         21   -1    0    0  501  503 -0.00000000000E+00 -0.00000000000E+00 -0.26613112785E+03  0.26613112785E+03  0.00000000000E+00 0. -1.
    9000005    1    1    2  501    0 -0.17969322775E+03  0.15066096237E+03  0.26289921957E+03  0.53301442882E+03  0.40000000000E+03 0. -1.
   -9000005    1    1    2    0  502  0.17969322775E+03 -0.15066096237E+03  0.27897950731E+03  0.54112655376E+03  0.40000000000E+03 0.  1.
<mgrwt>
<rscale>  2 0.46366840E+03</rscale>
<asrwt>0</asrwt>
<pdfrwt beam="1">  1       21 0.12430921E+00 0.46366840E+03</pdfrwt>
<pdfrwt beam="2">  1       21 0.40943251E-01 0.46366840E+03</pdfrwt>
<totfact> 0.23866502E+03</totfact>
</mgrwt>
</event>
<event>
 4    1  0.8722554E-003  0.5149173E+03  0.7818608E-02  0.1009957E+00
         21   -1    0    0  501  502  0.00000000000E+00  0.00000000000E+00  0.42500501633E+03  0.42500501633E+03  0.00000000000E+00 0. -1.
         21   -1    0    0  502  503 -0.00000000000E+00 -0.00000000000E+00 -0.70278836644E+03  0.70278836644E+03  0.00000000000E+00 0. -1.
    9000005    1    1    2  501    0  0.27099519068E+03 -0.17804909197E+03  0.50093675430E+02  0.51734828582E+03  0.40000000000E+03 0. -1.
   -9000005    1    1    2    0  503 -0.27099519068E+03  0.17804909197E+03 -0.32787702553E+03  0.61044509695E+03  0.40000000000E+03 0. -1.
<mgrwt>
<rscale>  2 0.51491735E+03</rscale>
<asrwt>0</asrwt>
<pdfrwt beam="1">  1       21 0.65385388E-01 0.51491735E+03</pdfrwt>
<pdfrwt beam="2">  1       21 0.10812129E+00 0.51491735E+03</pdfrwt>
<totfact> 0.12204018E+03</totfact>
</mgrwt>
</event>
<event>
 4    1  0.8722554E-003  0.4409455E+03  0.7818608E-02  0.1030457E+00
         21   -1    0    0  503  502  0.00000000000E+00  0.00000000000E+00  0.58714095677E+03  0.58714095677E+03  0.00000000000E+00 0. -1.
         21   -1    0    0  501  503 -0.00000000000E+00 -0.00000000000E+00 -0.92566843895E+03  0.92566843895E+03  0.00000000000E+00 0. -1.
    9000005    1    1    2  501    0 -0.16203667546E+03  0.90427122040E+02 -0.77545321967E+03  0.89205417127E+03  0.40000000000E+03 0. -1.
   -9000005    1    1    2    0  502  0.16203667546E+03 -0.90427122040E+02  0.43692573749E+03  0.62075522444E+03  0.40000000000E+03 0. -1.
<mgrwt>
<rscale>  2 0.44094552E+03</rscale>
<asrwt>0</asrwt>
<pdfrwt beam="1">  1       21 0.90329378E-01 0.44094552E+03</pdfrwt>
<pdfrwt beam="2">  1       21 0.14241053E+00 0.44094552E+03</pdfrwt>
<totfact> 0.29532159E+02</totfact>
</mgrwt>
</event>
<event>
 4    1  0.8722554E-003  0.4187841E+03  0.7818608E-02  0.1037463E+00
         21   -1    0    0  501  502  0.00000000000E+00  0.00000000000E+00  0.80529596159E+03  0.80529596159E+03  0.00000000000E+00 0. -1.
         21   -1    0    0  502  503 -0.00000000000E+00 -0.00000000000E+00 -0.22481378155E+03  0.22481378155E+03  0.00000000000E+00 0. -1.
    9000005    1    1    2  501    0 -0.82371984160E+02 -0.92709310122E+02  0.19915985835E+03  0.46372924119E+03  0.40000000000E+03 0. -1.
   -9000005    1    1    2    0  503  0.82371984160E+02  0.92709310122E+02  0.38132232169E+03  0.56638050194E+03  0.40000000000E+03 0. -1.
<mgrwt>
<rscale>  2 0.41878414E+03</rscale>
<asrwt>0</asrwt>
<pdfrwt beam="1">  1       21 0.12389168E+00 0.41878414E+03</pdfrwt>
<pdfrwt beam="2">  1       21 0.34586736E-01 0.41878414E+03</pdfrwt>
<totfact> 0.34552192E+03</totfact>
</mgrwt>
</event>
<event>
 4    1  0.8722554E-003  0.4190361E+03  0.7818608E-02  0.1037380E+00
         21   -1    0    0  503  502  0.00000000000E+00  0.00000000000E+00  0.11872605965E+03  0.11872605965E+03  0.00000000000E+00 0. -1.
         21   -1    0    0  501  503 -0.00000000000E+00 -0.00000000000E+00 -0.15232662642E+04  0.15232662642E+04  0.00000000000E+00 0.  1.
    9000005    1    1    2  501    0  0.25080130427E+02  0.12232007256E+03 -0.56225308200E+03  0.70122731073E+03  0.40000000000E+03 0. -1.
   -9000005    1    1    2    0  502 -0.25080130427E+02 -0.12232007256E+03 -0.84228712256E+03  0.94076501312E+03  0.40000000000E+03 0.  1.
<mgrwt>
<rscale>  2 0.41903605E+03</rscale>
<asrwt>0</asrwt>
<pdfrwt beam="1">  1       21 0.18265548E-01 0.41903605E+03</pdfrwt>
<pdfrwt beam="2">  1       21 0.23434865E+00 0.41903605E+03</pdfrwt>
<totfact> 0.19075250E+03</totfact>
</mgrwt>
</event>
<event>
 4    1  0.8722554E-003  0.4030043E+03  0.7818608E-02  0.1042744E+00
         21   -1    0    0  503  502  0.00000000000E+00  0.00000000000E+00  0.41705547426E+03  0.41705547426E+03  0.00000000000E+00 0. -1.
         21   -1    0    0  501  503 -0.00000000000E+00 -0.00000000000E+00 -0.44722609390E+03  0.44722609390E+03  0.00000000000E+00 0. -1.
    9000005    1    1    2  501    0 -0.15226680784E+02  0.46697202652E+02 -0.17043981045E+03  0.43756394908E+03  0.40000000000E+03 0. -1.
   -9000005    1    1    2    0  502  0.15226680784E+02 -0.46697202652E+02  0.14026919082E+03  0.42671761908E+03  0.40000000000E+03 0. -1.
<mgrwt>
<rscale>  2 0.40300432E+03</rscale>
<asrwt>0</asrwt>
<pdfrwt beam="1">  1       21 0.64162380E-01 0.40300432E+03</pdfrwt>
<pdfrwt beam="2">  1       21 0.68804015E-01 0.40300432E+03</pdfrwt>
<totfact> 0.38400970E+03</totfact>
</mgrwt>
</event>
<event>
 4    1  0.8722554E-003  0.4010533E+03  0.7818608E-02  0.1043416E+00
         21   -1    0    0  503  502  0.00000000000E+00  0.00000000000E+00  0.62325255607E+03  0.62325255607E+03  0.00000000000E+00 0.  1.
         21   -1    0    0  501  503 -0.00000000000E+00 -0.00000000000E+00 -0.28710625548E+03  0.28710625548E+03  0.00000000000E+00 0.  1.
    9000005    1    1    2  501    0  0.20079906513E+02 -0.20989590425E+02  0.31282357316E+03  0.50862791260E+03  0.40000000000E+03 0.  1.
   -9000005    1    1    2    0  502 -0.20079906513E+02  0.20989590425E+02  0.23322727431E+02  0.40173089894E+03  0.40000000000E+03 0.  1.
<mgrwt>
<rscale>  2 0.40105332E+03</rscale>
<asrwt>0</asrwt>
<pdfrwt beam="1">  1       21 0.95885008E-01 0.40105332E+03</pdfrwt>
<pdfrwt beam="2">  1       21 0.44170193E-01 0.40105332E+03</pdfrwt>
<totfact> 0.39718338E+03</totfact>
</mgrwt>
</event>
<event>
 4    1  0.8722554E-003  0.4191121E+03  0.7818608E-02  0.1037356E+00
         21   -1    0    0  501  502  0.00000000000E+00  0.00000000000E+00  0.62895075929E+03  0.62895075929E+03  0.00000000000E+00 0.  1.
         21   -1    0    0  502  503 -0.00000000000E+00 -0.00000000000E+00 -0.38523707299E+03  0.38523707299E+03  0.00000000000E+00 0. -1.
    9000005    1    1    2  501    0 -0.85165947970E+02  0.91660978870E+02 -0.14408342795E+03  0.44318732828E+03  0.40000000000E+03 0. -1.
   -9000005    1    1    2    0  503  0.85165947970E+02 -0.91660978870E+02  0.38779711425E+03  0.57100050400E+03  0.40000000000E+03 0.  1.
<mgrwt>
<rscale>  2 0.41911213E+03</rscale>
<asrwt>0</asrwt>
<pdfrwt beam="1">  1       21 0.96761655E-01 0.41911213E+03</pdfrwt>
<pdfrwt beam="2">  1       21 0.59267242E-01 0.41911213E+03</pdfrwt>
<totfact> 0.20618124E+03</totfact>
</mgrwt>
</event>
<event>
 4    1  0.8722554E-003  0.4811802E+03  0.7818608E-02  0.1018811E+00
         21   -1    0    0  501  502  0.00000000000E+00  0.00000000000E+00  0.48986389200E+03  0.48986389200E+03  0.00000000000E+00 0. -1.
         21   -1    0    0  502  503 -0.00000000000E+00 -0.00000000000E+00 -0.47544765693E+03  0.47544765693E+03  0.00000000000E+00 0. -1.
    9000005    1    1    2  501    0 -0.20503222921E+03 -0.17174442450E+03 -0.29813268062E+02  0.48210288664E+03  0.40000000000E+03 0. -1.
   -9000005    1    1    2    0  503  0.20503222921E+03  0.17174442450E+03  0.44229503138E+02  0.48320866228E+03  0.40000000000E+03 0. -1.
<mgrwt>
<rscale>  2 0.48118018E+03</rscale>
<asrwt>0</asrwt>
<pdfrwt beam="1">  1       21 0.75363676E-01 0.48118018E+03</pdfrwt>
<pdfrwt beam="2">  1       21 0.73145793E-01 0.48118018E+03</pdfrwt>
<totfact> 0.22643831E+03</totfact>
</mgrwt>
</event>
<event>
 4    1  0.8722554E-003  0.7420605E+03  0.7818608E-02  0.9647889E-01
         21   -1    0    0  503  502  0.00000000000E+00  0.00000000000E+00  0.52033098654E+03  0.52033098654E+03  0.00000000000E+00 0.  1.
         21   -1    0    0  501  503 -0.00000000000E+00 -0.00000000000E+00 -0.11056130070E+04  0.11056130070E+04  0.00000000000E+00 0. -1.
    9000005    1    1    2  501    0 -0.53296303317E+03 -0.32650288370E+03 -0.12442202541E+03  0.75241914396E+03  0.40000000000E+03 0. -1.
   -9000005    1    1    2    0  502  0.53296303317E+03  0.32650288370E+03 -0.46085999506E+03  0.87352484958E+03  0.40000000000E+03 0.  1.
<mgrwt>
<rscale>  2 0.74206046E+03</rscale>
<asrwt>0</asrwt>
<pdfrwt beam="1">  1       21 0.80050922E-01 0.74206046E+03</pdfrwt>
<pdfrwt beam="2">  1       21 0.17009431E+00 0.74206046E+03</pdfrwt>
<totfact> 0.21348429E+02</totfact>
</mgrwt>
</event>
<event>
 4    1  0.8722554E-003  0.5761472E+03  0.7818608E-02  0.9956167E-01
         21   -1    0    0  501  502  0.00000000000E+00  0.00000000000E+00  0.13090978637E+04  0.13090978637E+04  0.00000000000E+00 0.  1.
         21   -1    0    0  502  503 -0.00000000000E+00 -0.00000000000E+00 -0.28539168515E+03  0.28539168515E+03  0.00000000000E+00 0. -1.
    9000005    1    1    2  501    0 -0.20201956192E+03  0.36212391295E+03  0.24563064281E+03  0.62632263604E+03  0.40000000000E+03 0. -1.
   -9000005    1    1    2    0  503  0.20201956192E+03 -0.36212391295E+03  0.77807553574E+03  0.96816691280E+03  0.40000000000E+03 0.  1.
<mgrwt>
<rscale>  2 0.57614723E+03</rscale>
<asrwt>0</asrwt>
<pdfrwt beam="1">  1       21 0.20139967E+00 0.57614723E+03</pdfrwt>
<pdfrwt beam="2">  1       21 0.43906414E-01 0.57614723E+03</pdfrwt>
<totfact> 0.51189088E+02</totfact>
</mgrwt>
</event>
<event>
 4    1  0.8722554E-003  0.5322685E+03  0.7818608E-02  0.1005683E+00
         21   -1    0    0  501  502  0.00000000000E+00  0.00000000000E+00  0.67349525188E+03  0.67349525188E+03  0.00000000000E+00 0.  1.
         21   -1    0    0  502  503 -0.00000000000E+00 -0.00000000000E+00 -0.45754803068E+03  0.45754803068E+03  0.00000000000E+00 0. -1.
    9000005    1    1    2  501    0  0.81930017408E+02 -0.34146331882E+03  0.26855602215E+03  0.59618123326E+03  0.40000000000E+03 0.  1.
   -9000005    1    1    2    0  503 -0.81930017408E+02  0.34146331882E+03 -0.52608800954E+02  0.53486204931E+03  0.40000000000E+03 0. -1.
<mgrwt>
<rscale>  2 0.53226847E+03</rscale>
<asrwt>0</asrwt>
<pdfrwt beam="1">  1       21 0.10361465E+00 0.53226847E+03</pdfrwt>
<pdfrwt beam="2">  1       21 0.70392004E-01 0.53226847E+03</pdfrwt>
<totfact> 0.11420478E+03</totfact>
</mgrwt>
</event>
<event>
 4    1  0.8722554E-003  0.4022722E+03  0.7818608E-02  0.1042996E+00
         21   -1    0    0  501  502  0.00000000000E+00  0.00000000000E+00  0.78543069768E+03  0.78543069768E+03  0.00000000000E+00 0.  1.
         21   -1    0    0  502  503 -0.00000000000E+00 -0.00000000000E+00 -0.21045524458E+03  0.21045524458E+03  0.00000000000E+00 0.  1.
    9000005    1    1    2  501    0  0.42570277326E+02  0.32753308246E+01  0.35968595280E+03  0.53962666812E+03  0.40000000000E+03 0.  1.
   -9000005    1    1    2    0  503 -0.42570277326E+02 -0.32753308246E+01  0.21528950030E+03  0.45625927415E+03  0.40000000000E+03 0.  1.
<mgrwt>
<rscale>  2 0.40227224E+03</rscale>
<asrwt>0</asrwt>
<pdfrwt beam="1">  1       21 0.12083549E+00 0.40227224E+03</pdfrwt>
<pdfrwt beam="2">  1       21 0.32377730E-01 0.40227224E+03</pdfrwt>
<totfact> 0.42319124E+03</totfact>
</mgrwt>
</event>
<event>
 4    1  0.8722554E-003  0.4124327E+03  0.7818608E-02  0.1039558E+00
         21   -1    0    0  503  502  0.00000000000E+00  0.00000000000E+00  0.14055329368E+03  0.14055329368E+03  0.00000000000E+00 0.  1.
         21   -1    0    0  501  503 -0.00000000000E+00 -0.00000000000E+00 -0.19706681979E+04  0.19706681979E+04  0.00000000000E+00 0.  1.
    9000005    1    1    2  501    0  0.53380469356E+02 -0.85154133907E+02 -0.15707968368E+04  0.16240392248E+04  0.40000000000E+03 0.  1.
   -9000005    1    1    2    0  502 -0.53380469356E+02  0.85154133907E+02 -0.25931806746E+03  0.48718226686E+03  0.40000000000E+03 0.  1.
<mgrwt>
<rscale>  2 0.41243266E+03</rscale>
<asrwt>0</asrwt>
<pdfrwt beam="1">  1       21 0.21623585E-01 0.41243266E+03</pdfrwt>
<pdfrwt beam="2">  1       21 0.30317971E+00 0.41243266E+03</pdfrwt>
<totfact> 0.53175620E+02</totfact>
</mgrwt>
</event>
<event>
 4    1  0.8722554E-003  0.4824423E+03  0.7818608E-02  0.1018466E+00
         21   -1    0    0  501  502  0.00000000000E+00  0.00000000000E+00  0.15262040721E+03  0.15262040721E+03  0.00000000000E+00 0.  1.
         21   -1    0    0  502  503 -0.00000000000E+00 -0.00000000000E+00 -0.17058619496E+04  0.17058619496E+04  0.00000000000E+00 0.  1.
    9000005    1    1    2  501    0 -0.14221000896E+03 -0.22918741813E+03 -0.47407214017E+03  0.67638373234E+03  0.40000000000E+03 0. -1.
   -9000005    1    1    2    0  503  0.14221000896E+03  0.22918741813E+03 -0.10791694022E+04  0.11820986244E+04  0.40000000000E+03 0. -1.
<mgrwt>
<rscale>  2 0.48244229E+03</rscale>
<asrwt>0</asrwt>
<pdfrwt beam="1">  1       21 0.23480063E-01 0.48244229E+03</pdfrwt>
<pdfrwt beam="2">  1       21 0.26244029E+00 0.48244229E+03</pdfrwt>
<totfact> 0.76874257E+02</totfact>
</mgrwt>
</event>
<event>
 4    1  0.8722554E-003  0.4719979E+03  0.7818608E-02  0.1021358E+00
         21   -1    0    0  503  502  0.00000000000E+00  0.00000000000E+00  0.34667476950E+03  0.34667476950E+03  0.00000000000E+00 0.  1.
         21   -1    0    0  501  503 -0.00000000000E+00 -0.00000000000E+00 -0.79637360249E+03  0.79637360249E+03  0.00000000000E+00 0. -1.
    9000005    1    1    2  501    0 -0.85649491048E+02 -0.23547004067E+03 -0.47596944977E+03  0.67031999261E+03  0.40000000000E+03 0. -1.
   -9000005    1    1    2    0  502  0.85649491048E+02  0.23547004067E+03  0.26270616783E+02  0.47272837939E+03  0.40000000000E+03 0.  1.
<mgrwt>
<rscale>  2 0.47199786E+03</rscale>
<asrwt>0</asrwt>
<pdfrwt beam="1">  1       21 0.53334580E-01 0.47199786E+03</pdfrwt>
<pdfrwt beam="2">  1       21 0.12251902E+00 0.47199786E+03</pdfrwt>
<totfact> 0.14141430E+03</totfact>
</mgrwt>
</event>
<event>
 4    1  0.8722554E-003  0.5030284E+03  0.7818608E-02  0.1012991E+00
         21   -1    0    0  503  502  0.00000000000E+00  0.00000000000E+00  0.40748467492E+03  0.40748467492E+03  0.00000000000E+00 0. -1.
         21   -1    0    0  501  503 -0.00000000000E+00 -0.00000000000E+00 -0.70229333357E+03  0.70229333357E+03  0.00000000000E+00 0.  1.
    9000005    1    1    2  501    0 -0.29382784149E+03  0.81870276214E+02 -0.33622204615E+03  0.60504777240E+03  0.40000000000E+03 0.  1.
   -9000005    1    1    2    0  502  0.29382784149E+03 -0.81870276214E+02  0.41413387499E+02  0.50473023609E+03  0.40000000000E+03 0. -1.
<mgrwt>
<rscale>  2 0.50302837E+03</rscale>
<asrwt>0</asrwt>
<pdfrwt beam="1">  1       21 0.62689950E-01 0.50302837E+03</pdfrwt>
<pdfrwt beam="2">  1       21 0.10804513E+00 0.50302837E+03</pdfrwt>
<totfact> 0.13480122E+03</totfact>
</mgrwt>
</event>
<event>
 4    1  0.8722554E-003  0.5688671E+03  0.7818608E-02  0.9972189E-01
         21   -1    0    0  501  502  0.00000000000E+00  0.00000000000E+00  0.64051199194E+03  0.64051199194E+03  0.00000000000E+00 0. -1.
         21   -1    0    0  502  503 -0.00000000000E+00 -0.00000000000E+00 -0.50679437519E+03  0.50679437519E+03  0.00000000000E+00 0.  1.
    9000005    1    1    2  501    0  0.39506125603E+03  0.86812060801E+02  0.35048588891E+02  0.56994572856E+03  0.40000000000E+03 0. -1.
   -9000005    1    1    2    0  503 -0.39506125603E+03 -0.86812060801E+02  0.98669027858E+02  0.57736063858E+03  0.40000000000E+03 0. -1.
<mgrwt>
<rscale>  2 0.56886706E+03</rscale>
<asrwt>0</asrwt>
<pdfrwt beam="1">  1       21 0.98540306E-01 0.56886706E+03</pdfrwt>
<pdfrwt beam="2">  1       21 0.77968366E-01 0.56886706E+03</pdfrwt>
<totfact> 0.10101705E+03</totfact>
</mgrwt>
</event>
<event>
 4    1  0.8722554E-003  0.4324670E+03  0.7818608E-02  0.1033083E+00
         21   -1    0    0  501  502  0.00000000000E+00  0.00000000000E+00  0.89732522674E+03  0.89732522674E+03  0.00000000000E+00 0. -1.
         21   -1    0    0  502  503 -0.00000000000E+00 -0.00000000000E+00 -0.34803480903E+03  0.34803480903E+03  0.00000000000E+00 0. -1.
    9000005    1    1    2  501    0 -0.80980563410E+02  0.14307300476E+03  0.66901789578E+03  0.79662581004E+03  0.40000000000E+03 0. -1.
   -9000005    1    1    2    0  503  0.80980563410E+02 -0.14307300476E+03 -0.11972747806E+03  0.44873422573E+03  0.40000000000E+03 0. -1.
<mgrwt>
<rscale>  2 0.43246703E+03</rscale>
<asrwt>0</asrwt>
<pdfrwt beam="1">  1       21 0.13805003E+00 0.43246703E+03</pdfrwt>
<pdfrwt beam="2">  1       21 0.53543817E-01 0.43246703E+03</pdfrwt>
<totfact> 0.10453556E+03</totfact>
</mgrwt>
</event>
<event>
 4    1  0.8722554E-003  0.4421432E+03  0.7818608E-02  0.1030091E+00
         21   -1    0    0  501  502  0.00000000000E+00  0.00000000000E+00  0.39409850780E+03  0.39409850780E+03  0.00000000000E+00 0. -1.
         21   -1    0    0  502  503 -0.00000000000E+00 -0.00000000000E+00 -0.52176247048E+03  0.52176247048E+03  0.00000000000E+00 0. -1.
    9000005    1    1    2  501    0  0.13737246835E+03 -0.12891619969E+03 -0.16549840302E+03  0.47210200487E+03  0.40000000000E+03 0. -1.
   -9000005    1    1    2    0  503 -0.13737246835E+03  0.12891619969E+03  0.37834440340E+02  0.44375897341E+03  0.40000000000E+03 0. -1.
<mgrwt>
<rscale>  2 0.44214317E+03</rscale>
<asrwt>0</asrwt>
<pdfrwt beam="1">  1       21 0.60630540E-01 0.44214317E+03</pdfrwt>
<pdfrwt beam="2">  1       21 0.80271149E-01 0.44214317E+03</pdfrwt>
<totfact> 0.30197644E+03</totfact>
</mgrwt>
</event>
<event>
 4    1  0.8722554E-003  0.4722320E+03  0.7818608E-02  0.1021292E+00
         21   -1    0    0  501  502  0.00000000000E+00  0.00000000000E+00  0.50470899614E+03  0.50470899614E+03  0.00000000000E+00 0.  1.
         21   -1    0    0  502  503 -0.00000000000E+00 -0.00000000000E+00 -0.45908014994E+03  0.45908014994E+03  0.00000000000E+00 0.  1.
    9000005    1    1    2  501    0 -0.24563081945E+03  0.51657885487E+02 -0.70557875902E+02  0.47747403118E+03  0.40000000000E+03 0.  1.
   -9000005    1    1    2    0  503  0.24563081945E+03 -0.51657885487E+02  0.11618672210E+03  0.48631511491E+03  0.40000000000E+03 0.  1.
<mgrwt>
<rscale>  2 0.47223197E+03</rscale>
<asrwt>0</asrwt>
<pdfrwt beam="1">  1       21 0.77647537E-01 0.47223197E+03</pdfrwt>
<pdfrwt beam="2">  1       21 0.70627716E-01 0.47223197E+03</pdfrwt>
<totfact> 0.22964110E+03</totfact>
</mgrwt>
</event>
<event>
 4    1  0.8722554E-003  0.4906403E+03  0.7818608E-02  0.1016251E+00
         21   -1    0    0  501  502  0.00000000000E+00  0.00000000000E+00  0.56840828403E+03  0.56840828403E+03  0.00000000000E+00 0. -1.
         21   -1    0    0  502  503 -0.00000000000E+00 -0.00000000000E+00 -0.43488396177E+03  0.43488396177E+03  0.00000000000E+00 0. -1.
    9000005    1    1    2  501    0  0.42332754544E+02  0.28095514567E+03 -0.14357139940E+02  0.49085026582E+03  0.40000000000E+03 0. -1.
   -9000005    1    1    2    0  503 -0.42332754544E+02 -0.28095514567E+03  0.14788146220E+03  0.51244197998E+03  0.40000000000E+03 0. -1.
<mgrwt>
<rscale>  2 0.49064025E+03</rscale>
<asrwt>0</asrwt>
<pdfrwt beam="1">  1       21 0.87447429E-01 0.49064025E+03</pdfrwt>
<pdfrwt beam="2">  1       21 0.66905224E-01 0.49064025E+03</pdfrwt>
<totfact> 0.19539822E+03</totfact>
</mgrwt>
</event>
<event>
 4    1  0.8722554E-003  0.5338895E+03  0.7818608E-02  0.1005293E+00
         21   -1    0    0  503  502  0.00000000000E+00  0.00000000000E+00  0.58323458843E+03  0.58323458843E+03  0.00000000000E+00 0. -1.
         21   -1    0    0  501  503 -0.00000000000E+00 -0.00000000000E+00 -0.70249070610E+03  0.70249070610E+03  0.00000000000E+00 0. -1.
    9000005    1    1    2  501    0  0.13177258333E+03  0.32813711279E+03 -0.41425583193E+03  0.67575577896E+03  0.40000000000E+03 0. -1.
   -9000005    1    1    2    0  502 -0.13177258333E+03 -0.32813711279E+03  0.29499971426E+03  0.60996951557E+03  0.40000000000E+03 0. -1.
<mgrwt>
<rscale>  2 0.53388948E+03</rscale>
<asrwt>0</asrwt>
<pdfrwt beam="1">  1       21 0.89728398E-01 0.53388948E+03</pdfrwt>
<pdfrwt beam="2">  1       21 0.10807549E+00 0.53388948E+03</pdfrwt>
<totfact> 0.58587119E+02</totfact>
</mgrwt>
</event>
<event>
 4    1  0.8722554E-003  0.5660224E+03  0.7818608E-02  0.9978519E-01
         21   -1    0    0  501  502  0.00000000000E+00  0.00000000000E+00  0.17815204888E+04  0.17815204888E+04  0.00000000000E+00 0.  1.
         21   -1    0    0  502  503 -0.00000000000E+00 -0.00000000000E+00 -0.27571280024E+03  0.27571280024E+03  0.00000000000E+00 0.  1.
    9000005    1    1    2  501    0  0.72208262510E+02 -0.39391285665E+03  0.13594753925E+04  0.14726013427E+04  0.40000000000E+03 0.  1.
   -9000005    1    1    2    0  503 -0.72208262510E+02  0.39391285665E+03  0.14633229609E+03  0.58463194635E+03  0.40000000000E+03 0.  1.
<mgrwt>
<rscale>  2 0.56602241E+03</rscale>
<asrwt>0</asrwt>
<pdfrwt beam="1">  1       21 0.27408007E+00 0.56602241E+03</pdfrwt>
<pdfrwt beam="2">  1       21 0.42417355E-01 0.56602241E+03</pdfrwt>
<totfact> 0.19153366E+02</totfact>
</mgrwt>
</event>
