<event>
 4    1  0.4758708E-002  0.4564573E+03  0.7818608E-02  0.1025814E+00
         21   -1    0    0  503  502  0.00000000000E+00  0.00000000000E+00  0.37186269640E+03  0.37186269640E+03  0.00000000000E+00 0.  1.
         21   -1    0    0  501  503 -0.00000000000E+00 -0.00000000000E+00 -0.72097443522E+03  0.72097443522E+03  0.00000000000E+00 0.  1.
    9000007    1    1    2  501    0  0.14864225256E+03 -0.16204553044E+03 -0.43251088548E+03  0.62882345634E+03  0.40000000000E+03 0.  1.
   -9000007    1    1    2    0  502 -0.14864225256E+03  0.16204553044E+03  0.83399146665E+02  0.46401367528E+03  0.40000000000E+03 0.  1.
<mgrwt>
<rscale>  2 0.45645731E+03</rscale>
<asrwt>0</asrwt>
<pdfrwt beam="1">  1       21 0.57209646E-01 0.45645731E+03</pdfrwt>
<pdfrwt beam="2">  1       21 0.11091914E+00 0.45645731E+03</pdfrwt>
<totfact> 0.15706041E+03</totfact>
</mgrwt>
</event>
<event>
 4    1  0.4758708E-002  0.4077704E+03  0.7818608E-02  0.1041122E+00
         21   -1    0    0  503  502  0.00000000000E+00  0.00000000000E+00  0.35578024854E+03  0.35578024854E+03  0.00000000000E+00 0. -1.
         21   -1    0    0  501  503 -0.00000000000E+00 -0.00000000000E+00 -0.46764841975E+03  0.46764841975E+03  0.00000000000E+00 0. -1.
    9000007    1    1    2  501    0 -0.74955218233E+02 -0.25659469335E+02 -0.66196727850E+02  0.41310858123E+03  0.40000000000E+03 0. -1.
   -9000007    1    1    2    0  502  0.74955218233E+02  0.25659469335E+02 -0.45671443365E+02  0.41032008706E+03  0.40000000000E+03 0. -1.
<mgrwt>
<rscale>  2 0.40777039E+03</rscale>
<asrwt>0</asrwt>
<pdfrwt beam="1">  1       21 0.54735423E-01 0.40777039E+03</pdfrwt>
<pdfrwt beam="2">  1       21 0.71945910E-01 0.40777039E+03</pdfrwt>
<totfact> 0.49037306E+03</totfact>
</mgrwt>
</event>
<event>
 4    1  0.4758708E-002  0.5226795E+03  0.7818608E-02  0.1008023E+00
         21   -1    0    0  501  502  0.00000000000E+00  0.00000000000E+00  0.30553665986E+03  0.30553665986E+03  0.00000000000E+00 0.  1.
         21   -1    0    0  502  503 -0.00000000000E+00 -0.00000000000E+00 -0.89422081334E+03  0.89422081334E+03  0.00000000000E+00 0.  1.
    9000007    1    1    2  501    0  0.18854411269E+03  0.27864851027E+03 -0.29988960506E+03  0.60260073841E+03  0.40000000000E+03 0.  1.
   -9000007    1    1    2    0  503 -0.18854411269E+03 -0.27864851027E+03 -0.28879454842E+03  0.59715673479E+03  0.40000000000E+03 0.  1.
<mgrwt>
<rscale>  2 0.52267951E+03</rscale>
<asrwt>0</asrwt>
<pdfrwt beam="1">  1       21 0.47005640E-01 0.52267951E+03</pdfrwt>
<pdfrwt beam="2">  1       21 0.13757243E+00 0.52267951E+03</pdfrwt>
<totfact> 0.13442056E+03</totfact>
</mgrwt>
</event>
<event>
 4    1  0.4758708E-002  0.4893473E+03  0.7818608E-02  0.1016597E+00
         21   -1    0    0  503  502  0.00000000000E+00  0.00000000000E+00  0.14801842952E+04  0.14801842952E+04  0.00000000000E+00 0. -1.
         21   -1    0    0  501  503 -0.00000000000E+00 -0.00000000000E+00 -0.17972343448E+03  0.17972343448E+03  0.00000000000E+00 0. -1.
    9000007    1    1    2  501    0  0.99389945526E+02 -0.26378471532E+03  0.38796997125E+03  0.62448493649E+03  0.40000000000E+03 0. -1.
   -9000007    1    1    2    0  502 -0.99389945526E+02  0.26378471532E+03  0.91249088948E+03  0.10354227932E+04  0.40000000000E+03 0. -1.
<mgrwt>
<rscale>  2 0.48934726E+03</rscale>
<asrwt>0</asrwt>
<pdfrwt beam="1">  1       21 0.22772065E+00 0.48934726E+03</pdfrwt>
<pdfrwt beam="2">  1       21 0.27649760E-01 0.48934726E+03</pdfrwt>
<totfact> 0.91429621E+02</totfact>
</mgrwt>
</event>
<event>
 4    1  0.4758708E-002  0.4011295E+03  0.7818608E-02  0.1043389E+00
         21   -1    0    0  501  502  0.00000000000E+00  0.00000000000E+00  0.89127725034E+03  0.89127725034E+03  0.00000000000E+00 0. -1.
         21   -1    0    0  502  503 -0.00000000000E+00 -0.00000000000E+00 -0.44195806156E+03  0.44195806156E+03  0.00000000000E+00 0. -1.
    9000007    1    1    2  501    0 -0.30068287017E+02  0.86835907591E+00  0.73735565997E+03  0.83940349369E+03  0.40000000000E+03 0. -1.
   -9000007    1    1    2    0  503  0.30068287017E+02 -0.86835907591E+00 -0.28803647120E+03  0.49383181821E+03  0.40000000000E+03 0. -1.
<mgrwt>
<rscale>  2 0.40112948E+03</rscale>
<asrwt>0</asrwt>
<pdfrwt beam="1">  1       21 0.13711958E+00 0.40112948E+03</pdfrwt>
<pdfrwt beam="2">  1       21 0.67993548E-01 0.40112948E+03</pdfrwt>
<totfact> 0.63999972E+02</totfact>
</mgrwt>
</event>
<event>
 4    1  0.4758708E-002  0.4245789E+03  0.7818608E-02  0.1035586E+00
         21   -1    0    0  501  502  0.00000000000E+00  0.00000000000E+00  0.10543452879E+04  0.10543452879E+04  0.00000000000E+00 0.  1.
         21   -1    0    0  502  503 -0.00000000000E+00 -0.00000000000E+00 -0.59132662517E+03  0.59132662517E+03  0.00000000000E+00 0.  1.
    9000007    1    1    2  501    0 -0.71237329042E+02  0.12325772331E+03  0.92526356479E+03  0.10180274494E+04  0.40000000000E+03 0.  1.
   -9000007    1    1    2    0  503  0.71237329042E+02 -0.12325772331E+03 -0.46224490201E+03  0.62764446372E+03  0.40000000000E+03 0.  1.
<mgrwt>
<rscale>  2 0.42457888E+03</rscale>
<asrwt>0</asrwt>
<pdfrwt beam="1">  1       21 0.16220697E+00 0.42457888E+03</pdfrwt>
<pdfrwt beam="2">  1       21 0.90973327E-01 0.42457888E+03</pdfrwt>
<totfact> 0.20532730E+02</totfact>
</mgrwt>
</event>
<event>
 4    1  0.4758708E-002  0.4510403E+03  0.7818608E-02  0.1027412E+00
         21   -1    0    0  503  502  0.00000000000E+00  0.00000000000E+00  0.16445252098E+04  0.16445252098E+04  0.00000000000E+00 0. -1.
         21   -1    0    0  501  503 -0.00000000000E+00 -0.00000000000E+00 -0.17854388271E+03  0.17854388271E+03  0.00000000000E+00 0.  1.
    9000007    1    1    2  501    0  0.24999937041E+02 -0.20691149426E+03  0.22781590802E+03  0.50530926298E+03  0.40000000000E+03 0.  1.
   -9000007    1    1    2    0  502 -0.24999937041E+02  0.20691149426E+03  0.12381654191E+04  0.13177598295E+04  0.40000000000E+03 0. -1.
<mgrwt>
<rscale>  2 0.45104031E+03</rscale>
<asrwt>0</asrwt>
<pdfrwt beam="1">  1       21 0.25300387E+00 0.45104031E+03</pdfrwt>
<pdfrwt beam="2">  1       21 0.27468291E-01 0.45104031E+03</pdfrwt>
<totfact> 0.65678532E+02</totfact>
</mgrwt>
</event>
<event>
 4    1  0.4758708E-002  0.4771827E+03  0.7818608E-02  0.1019912E+00
         21   -1    0    0  503  502  0.00000000000E+00  0.00000000000E+00  0.62499230011E+03  0.62499230011E+03  0.00000000000E+00 0. -1.
         21   -1    0    0  501  503 -0.00000000000E+00 -0.00000000000E+00 -0.73913988134E+03  0.73913988134E+03  0.00000000000E+00 0. -1.
    9000007    1    1    2  501    0  0.23755824004E+03 -0.10615729364E+03 -0.54277457159E+03  0.72270846402E+03  0.40000000000E+03 0. -1.
   -9000007    1    1    2    0  502 -0.23755824004E+03  0.10615729364E+03  0.42862699036E+03  0.64142371742E+03  0.40000000000E+03 0. -1.
<mgrwt>
<rscale>  2 0.47718266E+03</rscale>
<asrwt>0</asrwt>
<pdfrwt beam="1">  1       21 0.96152661E-01 0.47718266E+03</pdfrwt>
<pdfrwt beam="2">  1       21 0.11371383E+00 0.47718266E+03</pdfrwt>
<totfact> 0.44739591E+02</totfact>
</mgrwt>
</event>
<event>
 4    1  0.4758708E-002  0.5780952E+03  0.7818608E-02  0.9951923E-01
         21   -1    0    0  501  502  0.00000000000E+00  0.00000000000E+00  0.14473978590E+04  0.14473978590E+04  0.00000000000E+00 0.  1.
         21   -1    0    0  502  503 -0.00000000000E+00 -0.00000000000E+00 -0.23452966604E+03  0.23452966604E+03  0.00000000000E+00 0.  1.
    9000007    1    1    2  501    0  0.41189044136E+03 -0.67381811099E+02  0.71115410672E+03  0.91647924562E+03  0.40000000000E+03 0.  1.
   -9000007    1    1    2    0  503 -0.41189044136E+03  0.67381811099E+02  0.50171408628E+03  0.76544827946E+03  0.40000000000E+03 0.  1.
<mgrwt>
<rscale>  2 0.57809519E+03</rscale>
<asrwt>0</asrwt>
<pdfrwt beam="1">  1       21 0.22267659E+00 0.57809519E+03</pdfrwt>
<pdfrwt beam="2">  1       21 0.36081488E-01 0.57809519E+03</pdfrwt>
<totfact> 0.55664498E+02</totfact>
</mgrwt>
</event>
<event>
 4    1  0.4758708E-002  0.4322178E+03  0.7818608E-02  0.1033162E+00
         21   -1    0    0  501  502  0.00000000000E+00  0.00000000000E+00  0.21096129261E+03  0.21096129261E+03  0.00000000000E+00 0.  1.
         21   -1    0    0  502  503 -0.00000000000E+00 -0.00000000000E+00 -0.17391180841E+04  0.17391180841E+04  0.00000000000E+00 0.  1.
    9000007    1    1    2  501    0  0.63609235737E+02  0.15088439396E+03 -0.80981496705E+02  0.43973882933E+03  0.40000000000E+03 0.  1.
   -9000007    1    1    2    0  503 -0.63609235737E+02 -0.15088439396E+03 -0.14471752948E+04  0.15103405474E+04  0.40000000000E+03 0.  1.
<mgrwt>
<rscale>  2 0.43221781E+03</rscale>
<asrwt>0</asrwt>
<pdfrwt beam="1">  1       21 0.32455584E-01 0.43221781E+03</pdfrwt>
<pdfrwt beam="2">  1       21 0.26755663E+00 0.43221781E+03</pdfrwt>
<totfact> 0.38859998E+02</totfact>
</mgrwt>
</event>
<event>
 4    1  0.4758708E-002  0.4767619E+03  0.7818608E-02  0.1020029E+00
         21   -1    0    0  503  502  0.00000000000E+00  0.00000000000E+00  0.28557881963E+03  0.28557881963E+03  0.00000000000E+00 0.  1.
         21   -1    0    0  501  503 -0.00000000000E+00 -0.00000000000E+00 -0.79693323838E+03  0.79693323838E+03  0.00000000000E+00 0. -1.
    9000007    1    1    2  501    0 -0.18832975349E+03  0.17842037576E+03 -0.23651258902E+03  0.53220309216E+03  0.40000000000E+03 0. -1.
   -9000007    1    1    2    0  502  0.18832975349E+03 -0.17842037576E+03 -0.27484182972E+03  0.55030896585E+03  0.40000000000E+03 0. -1.
<mgrwt>
<rscale>  2 0.47676192E+03</rscale>
<asrwt>0</asrwt>
<pdfrwt beam="1">  1       21 0.43935203E-01 0.47676192E+03</pdfrwt>
<pdfrwt beam="2">  1       21 0.12260511E+00 0.47676192E+03</pdfrwt>
<totfact> 0.21252911E+03</totfact>
</mgrwt>
</event>
<event>
 4    1  0.4758708E-002  0.5343655E+03  0.7818608E-02  0.1005179E+00
         21   -1    0    0  501  502  0.00000000000E+00  0.00000000000E+00  0.64262482224E+03  0.64262482224E+03  0.00000000000E+00 0. -1.
         21   -1    0    0  502  503 -0.00000000000E+00 -0.00000000000E+00 -0.45057704046E+03  0.45057704046E+03  0.00000000000E+00 0. -1.
    9000007    1    1    2  501    0 -0.49341518078E+02  0.35087300366E+03  0.31734745960E+02  0.53530696260E+03  0.40000000000E+03 0. -1.
   -9000007    1    1    2    0  503  0.49341518078E+02 -0.35087300366E+03  0.16031303583E+03  0.55789490010E+03  0.40000000000E+03 0. -1.
<mgrwt>
<rscale>  2 0.53436546E+03</rscale>
<asrwt>0</asrwt>
<pdfrwt beam="1">  1       21 0.98865358E-01 0.53436546E+03</pdfrwt>
<pdfrwt beam="2">  1       21 0.69319545E-01 0.53436546E+03</pdfrwt>
<totfact> 0.13255480E+03</totfact>
</mgrwt>
</event>
<event>
 4    1  0.4758708E-002  0.4320521E+03  0.7818608E-02  0.1033214E+00
         21   -1    0    0  503  502  0.00000000000E+00  0.00000000000E+00  0.60698502509E+03  0.60698502509E+03  0.00000000000E+00 0. -1.
         21   -1    0    0  501  503 -0.00000000000E+00 -0.00000000000E+00 -0.31497563304E+03  0.31497563304E+03  0.00000000000E+00 0. -1.
    9000007    1    1    2  501    0 -0.33352354230E+02  0.15986455008E+03  0.21685683773E+03  0.48342108144E+03  0.40000000000E+03 0. -1.
   -9000007    1    1    2    0  502  0.33352354230E+02 -0.15986455008E+03  0.75152554319E+02  0.43853957669E+03  0.40000000000E+03 0. -1.
<mgrwt>
<rscale>  2 0.43205214E+03</rscale>
<asrwt>0</asrwt>
<pdfrwt beam="1">  1       21 0.93382311E-01 0.43205214E+03</pdfrwt>
<pdfrwt beam="2">  1       21 0.48457790E-01 0.43205214E+03</pdfrwt>
<totfact> 0.34427800E+03</totfact>
</mgrwt>
</event>
<event>
 4    1  0.4758708E-002  0.4363729E+03  0.7818608E-02  0.1031866E+00
         21   -1    0    0  503  502  0.00000000000E+00  0.00000000000E+00  0.18751966466E+03  0.18751966466E+03  0.00000000000E+00 0. -1.
         21   -1    0    0  501  503 -0.00000000000E+00 -0.00000000000E+00 -0.17021523264E+04  0.17021523264E+04  0.00000000000E+00 0. -1.
    9000007    1    1    2  501    0 -0.16995884316E+03  0.39182649975E+02 -0.13574306405E+04  0.14258468474E+04  0.40000000000E+03 0. -1.
   -9000007    1    1    2    0  502  0.16995884316E+03 -0.39182649975E+02 -0.15720202126E+03  0.46382514368E+03  0.40000000000E+03 0. -1.
<mgrwt>
<rscale>  2 0.43637288E+03</rscale>
<asrwt>0</asrwt>
<pdfrwt beam="1">  1       21 0.28849180E-01 0.43637288E+03</pdfrwt>
<pdfrwt beam="2">  1       21 0.26186958E+00 0.43637288E+03</pdfrwt>
<totfact> 0.53058659E+02</totfact>
</mgrwt>
</event>
<event>
 4    1  0.4758708E-002  0.4512012E+03  0.7818608E-02  0.1027364E+00
         21   -1    0    0  503  502  0.00000000000E+00  0.00000000000E+00  0.88630882076E+03  0.88630882076E+03  0.00000000000E+00 0.  1.
         21   -1    0    0  501  503 -0.00000000000E+00 -0.00000000000E+00 -0.32120685702E+03  0.32120685702E+03  0.00000000000E+00 0.  1.
    9000007    1    1    2  501    0 -0.18307053607E+03 -0.10033800267E+03 -0.39707353648E+02  0.45294504069E+03  0.40000000000E+03 0.  1.
   -9000007    1    1    2    0  502  0.18307053607E+03  0.10033800267E+03  0.60480931739E+03  0.75457063709E+03  0.40000000000E+03 0.  1.
<mgrwt>
<rscale>  2 0.45120121E+03</rscale>
<asrwt>0</asrwt>
<pdfrwt beam="1">  1       21 0.13635520E+00 0.45120121E+03</pdfrwt>
<pdfrwt beam="2">  1       21 0.49416440E-01 0.45120121E+03</pdfrwt>
<totfact> 0.12716905E+03</totfact>
</mgrwt>
</event>
<event>
 4    1  0.4758708E-002  0.5940086E+03  0.7818608E-02  0.9917915E-01
         21   -1    0    0  501  502  0.00000000000E+00  0.00000000000E+00  0.10145775458E+04  0.10145775458E+04  0.00000000000E+00 0.  1.
         21   -1    0    0  502  503 -0.00000000000E+00 -0.00000000000E+00 -0.41806024351E+03  0.41806024351E+03  0.00000000000E+00 0.  1.
    9000007    1    1    2  501    0  0.42586873977E+03  0.10715415289E+03  0.59196579625E+03  0.83861176949E+03  0.40000000000E+03 0.  1.
   -9000007    1    1    2    0  503 -0.42586873977E+03 -0.10715415289E+03  0.45515060227E+01  0.59402601980E+03  0.40000000000E+03 0.  1.
<mgrwt>
<rscale>  2 0.59400858E+03</rscale>
<asrwt>0</asrwt>
<pdfrwt beam="1">  1       21 0.15608885E+00 0.59400858E+03</pdfrwt>
<pdfrwt beam="2">  1       21 0.64316961E-01 0.59400858E+03</pdfrwt>
<totfact> 0.47101802E+02</totfact>
</mgrwt>
</event>
<event>
 4    1  0.4758708E-002  0.4030464E+03  0.7818608E-02  0.1042730E+00
         21   -1    0    0  503  502  0.00000000000E+00  0.00000000000E+00  0.27286710872E+04  0.27286710872E+04  0.00000000000E+00 0.  1.
         21   -1    0    0  501  503 -0.00000000000E+00 -0.00000000000E+00 -0.60475169797E+02  0.60475169797E+02  0.00000000000E+00 0.  1.
    9000007    1    1    2  501    0 -0.43869277659E+02  0.22844749428E+02  0.15081510869E+04  0.15610785044E+04  0.40000000000E+03 0.  1.
   -9000007    1    1    2    0  502  0.43869277659E+02 -0.22844749428E+02  0.11600448305E+04  0.12280677526E+04  0.40000000000E+03 0.  1.
<mgrwt>
<rscale>  2 0.40304639E+03</rscale>
<asrwt>0</asrwt>
<pdfrwt beam="1">  1       21 0.41979546E+00 0.40304639E+03</pdfrwt>
<pdfrwt beam="2">  1       21 0.93038744E-02 0.40304639E+03</pdfrwt>
<totfact> 0.48043490E+02</totfact>
</mgrwt>
</event>
<event>
 4    1  0.4758708E-002  0.4760231E+03  0.7818608E-02  0.1020234E+00
         21   -1    0    0  503  502  0.00000000000E+00  0.00000000000E+00  0.84419770354E+03  0.84419770354E+03  0.00000000000E+00 0. -1.
         21   -1    0    0  501  503 -0.00000000000E+00 -0.00000000000E+00 -0.39164148449E+03  0.39164148449E+03  0.00000000000E+00 0.  1.
    9000007    1    1    2  501    0 -0.24891665292E+03 -0.68106215623E+02 -0.12032636256E+03  0.49099530572E+03  0.40000000000E+03 0.  1.
   -9000007    1    1    2    0  502  0.24891665292E+03  0.68106215623E+02  0.57288258161E+03  0.74484388231E+03  0.40000000000E+03 0. -1.
<mgrwt>
<rscale>  2 0.47602306E+03</rscale>
<asrwt>0</asrwt>
<pdfrwt beam="1">  1       21 0.12987657E+00 0.47602306E+03</pdfrwt>
<pdfrwt beam="2">  1       21 0.60252536E-01 0.47602306E+03</pdfrwt>
<totfact> 0.93185317E+02</totfact>
</mgrwt>
</event>
<event>
 4    1  0.4758708E-002  0.5270970E+03  0.7818608E-02  0.1006939E+00
         21   -1    0    0  503  502  0.00000000000E+00  0.00000000000E+00  0.19190340003E+04  0.19190340003E+04  0.00000000000E+00 0. -1.
         21   -1    0    0  501  503 -0.00000000000E+00 -0.00000000000E+00 -0.73468361369E+03  0.73468361369E+03  0.00000000000E+00 0. -1.
    9000007    1    1    2  501    0 -0.22203435900E+03  0.26178613283E+03 -0.59678225272E+03  0.79622879443E+03  0.40000000000E+03 0. -1.
   -9000007    1    1    2    0  502  0.22203435900E+03 -0.26178613283E+03  0.17811326393E+04  0.18574888195E+04  0.40000000000E+03 0. -1.
<mgrwt>
<rscale>  2 0.52709699E+03</rscale>
<asrwt>0</asrwt>
<pdfrwt beam="1">  1       21 0.29523600E+00 0.52709699E+03</pdfrwt>
<pdfrwt beam="2">  1       21 0.11302825E+00 0.52709699E+03</pdfrwt>
<totfact> 0.15702267E+01</totfact>
</mgrwt>
</event>
<event>
 4    1  0.4758708E-002  0.5022759E+03  0.7818608E-02  0.1013187E+00
         21   -1    0    0  501  502  0.00000000000E+00  0.00000000000E+00  0.59666347559E+03  0.59666347559E+03  0.00000000000E+00 0. -1.
         21   -1    0    0  502  503 -0.00000000000E+00 -0.00000000000E+00 -0.92781080892E+03  0.92781080892E+03  0.00000000000E+00 0.  1.
    9000007    1    1    2  501    0  0.29821345146E+03  0.57877246942E+02  0.39677061512E+03  0.64008433770E+03  0.40000000000E+03 0. -1.
   -9000007    1    1    2    0  503 -0.29821345146E+03 -0.57877246942E+02 -0.72791794845E+03  0.88438994681E+03  0.40000000000E+03 0.  1.
<mgrwt>
<rscale>  2 0.50227586E+03</rscale>
<asrwt>0</asrwt>
<pdfrwt beam="1">  1       21 0.91794381E-01 0.50227586E+03</pdfrwt>
<pdfrwt beam="2">  1       21 0.14274012E+00 0.50227586E+03</pdfrwt>
<totfact> 0.27446724E+02</totfact>
</mgrwt>
</event>
<event>
 4    1  0.4758708E-002  0.4151130E+03  0.7818608E-02  0.1038669E+00
         21   -1    0    0  503  502  0.00000000000E+00  0.00000000000E+00  0.29018831527E+03  0.29018831527E+03  0.00000000000E+00 0. -1.
         21   -1    0    0  501  503 -0.00000000000E+00 -0.00000000000E+00 -0.10322768067E+04  0.10322768067E+04  0.00000000000E+00 0. -1.
    9000007    1    1    2  501    0  0.99905483831E+02 -0.48349707941E+02 -0.80198836977E+03  0.90305268130E+03  0.40000000000E+03 0. -1.
   -9000007    1    1    2    0  502 -0.99905483831E+02  0.48349707941E+02  0.59899878352E+02  0.41941244066E+03  0.40000000000E+03 0. -1.
<mgrwt>
<rscale>  2 0.41511300E+03</rscale>
<asrwt>0</asrwt>
<pdfrwt beam="1">  1       21 0.44644356E-01 0.41511300E+03</pdfrwt>
<pdfrwt beam="2">  1       21 0.15881182E+00 0.41511300E+03</pdfrwt>
<totfact> 0.10601681E+03</totfact>
</mgrwt>
</event>
<event>
 4    1  0.4758708E-002  0.5413010E+03  0.7818608E-02  0.1003528E+00
         21   -1    0    0  503  502  0.00000000000E+00  0.00000000000E+00  0.24795715213E+04  0.24795715213E+04  0.00000000000E+00 0. -1.
         21   -1    0    0  501  503 -0.00000000000E+00 -0.00000000000E+00 -0.27641596843E+03  0.27641596843E+03  0.00000000000E+00 0.  1.
    9000007    1    1    2  501    0 -0.20370124293E+03  0.30251051378E+03  0.58937947461E+02  0.54450021944E+03  0.40000000000E+03 0.  1.
   -9000007    1    1    2    0  502  0.20370124293E+03 -0.30251051378E+03  0.21442176054E+04  0.22114872703E+04  0.40000000000E+03 0. -1.
<mgrwt>
<rscale>  2 0.54130103E+03</rscale>
<asrwt>0</asrwt>
<pdfrwt beam="1">  1       21 0.38147253E+00 0.54130103E+03</pdfrwt>
<pdfrwt beam="2">  1       21 0.42525535E-01 0.54130103E+03</pdfrwt>
<totfact> 0.42218935E+01</totfact>
</mgrwt>
</event>
<event>
 4    1  0.4758708E-002  0.4385136E+03  0.7818608E-02  0.1031204E+00
         21   -1    0    0  501  502  0.00000000000E+00  0.00000000000E+00  0.14384242840E+03  0.14384242840E+03  0.00000000000E+00 0. -1.
         21   -1    0    0  502  503 -0.00000000000E+00 -0.00000000000E+00 -0.15148714106E+04  0.15148714106E+04  0.00000000000E+00 0.  1.
    9000007    1    1    2  501    0 -0.12705392498E+02  0.17925617194E+03 -0.40119748638E+03  0.59435143245E+03  0.40000000000E+03 0. -1.
   -9000007    1    1    2    0  503  0.12705392498E+02 -0.17925617194E+03 -0.96983149583E+03  0.10643624066E+04  0.40000000000E+03 0.  1.
<mgrwt>
<rscale>  2 0.43851363E+03</rscale>
<asrwt>0</asrwt>
<pdfrwt beam="1">  1       21 0.22129605E-01 0.43851363E+03</pdfrwt>
<pdfrwt beam="2">  1       21 0.23305713E+00 0.43851363E+03</pdfrwt>
<totfact> 0.13362646E+03</totfact>
</mgrwt>
</event>
<event>
 4    1  0.4758708E-002  0.4504272E+03  0.7818608E-02  0.1027595E+00
         21   -1    0    0  501  502  0.00000000000E+00  0.00000000000E+00  0.28786119082E+03  0.28786119082E+03  0.00000000000E+00 0. -1.
         21   -1    0    0  502  503 -0.00000000000E+00 -0.00000000000E+00 -0.73623747200E+03  0.73623747200E+03  0.00000000000E+00 0.  1.
    9000007    1    1    2  501    0 -0.18981022326E+03 -0.82805492333E+02 -0.32999752258E+03  0.55837535343E+03  0.40000000000E+03 0.  1.
   -9000007    1    1    2    0  503  0.18981022326E+03  0.82805492333E+02 -0.11837875860E+03  0.46572330938E+03  0.40000000000E+03 0.  1.
<mgrwt>
<rscale>  2 0.45042721E+03</rscale>
<asrwt>0</asrwt>
<pdfrwt beam="1">  1       21 0.44286338E-01 0.45042721E+03</pdfrwt>
<pdfrwt beam="2">  1       21 0.11326730E+00 0.45042721E+03</pdfrwt>
<totfact> 0.25780698E+03</totfact>
</mgrwt>
</event>
<event>
 4    1  0.4758708E-002  0.4424185E+03  0.7818608E-02  0.1030007E+00
         21   -1    0    0  501  502  0.00000000000E+00  0.00000000000E+00  0.38864298732E+03  0.38864298732E+03  0.00000000000E+00 0. -1.
         21   -1    0    0  502  503 -0.00000000000E+00 -0.00000000000E+00 -0.96461021908E+03  0.96461021908E+03  0.00000000000E+00 0. -1.
    9000007    1    1    2  501    0  0.18627589518E+03  0.32178431527E+02  0.17976443942E+03  0.47754519604E+03  0.40000000000E+03 0. -1.
   -9000007    1    1    2    0  503 -0.18627589518E+03 -0.32178431527E+02 -0.75573167118E+03  0.87570801036E+03  0.40000000000E+03 0. -1.
<mgrwt>
<rscale>  2 0.44241854E+03</rscale>
<asrwt>0</asrwt>
<pdfrwt beam="1">  1       21 0.59791229E-01 0.44241854E+03</pdfrwt>
<pdfrwt beam="2">  1       21 0.14840157E+00 0.44241854E+03</pdfrwt>
<totfact> 0.67510391E+02</totfact>
</mgrwt>
</event>
<event>
 4    1  0.4758708E-002  0.4046891E+03  0.7818608E-02  0.1042168E+00
         21   -1    0    0  503  502  0.00000000000E+00  0.00000000000E+00  0.69439020762E+03  0.69439020762E+03  0.00000000000E+00 0. -1.
         21   -1    0    0  501  503 -0.00000000000E+00 -0.00000000000E+00 -0.25991340062E+03  0.25991340062E+03  0.00000000000E+00 0. -1.
    9000007    1    1    2  501    0  0.41978070856E+02 -0.44845278305E+02  0.72059507299E+02  0.41105453411E+03  0.40000000000E+03 0. -1.
   -9000007    1    1    2    0  502 -0.41978070856E+02  0.44845278305E+02  0.36241729971E+03  0.54324907413E+03  0.40000000000E+03 0. -1.
<mgrwt>
<rscale>  2 0.40468909E+03</rscale>
<asrwt>0</asrwt>
<pdfrwt beam="1">  1       21 0.10682926E+00 0.40468909E+03</pdfrwt>
<pdfrwt beam="2">  1       21 0.39986677E-01 0.40468909E+03</pdfrwt>
<totfact> 0.37473507E+03</totfact>
</mgrwt>
</event>
<event>
 4    1  0.4758708E-002  0.4864582E+03  0.7818608E-02  0.1017375E+00
         21   -1    0    0  503  502  0.00000000000E+00  0.00000000000E+00  0.12162999360E+04  0.12162999360E+04  0.00000000000E+00 0.  1.
         21   -1    0    0  501  503 -0.00000000000E+00 -0.00000000000E+00 -0.65675090035E+03  0.65675090035E+03  0.00000000000E+00 0.  1.
    9000007    1    1    2  501    0  0.27528182666E+03  0.29350816897E+02 -0.50587818015E+03  0.70182211970E+03  0.40000000000E+03 0.  1.
   -9000007    1    1    2    0  502 -0.27528182666E+03 -0.29350816897E+02  0.10654272158E+04  0.11712287167E+04  0.40000000000E+03 0.  1.
<mgrwt>
<rscale>  2 0.48645817E+03</rscale>
<asrwt>0</asrwt>
<pdfrwt beam="1">  1       21 0.18712307E+00 0.48645817E+03</pdfrwt>
<pdfrwt beam="2">  1       21 0.10103860E+00 0.48645817E+03</pdfrwt>
<totfact> 0.10222858E+02</totfact>
</mgrwt>
</event>
<event>
 4    1  0.4758708E-002  0.5381544E+03  0.7818608E-02  0.1004274E+00
         21   -1    0    0  503  502  0.00000000000E+00  0.00000000000E+00  0.38951062576E+03  0.38951062576E+03  0.00000000000E+00 0. -1.
         21   -1    0    0  501  503 -0.00000000000E+00 -0.00000000000E+00 -0.80315705371E+03  0.80315705371E+03  0.00000000000E+00 0.  1.
    9000007    1    1    2  501    0 -0.34753222718E+03 -0.93975914603E+02 -0.36931681578E+03  0.65269060961E+03  0.40000000000E+03 0.  1.
   -9000007    1    1    2    0  502  0.34753222718E+03  0.93975914603E+02 -0.44329612172E+02  0.53997706986E+03  0.40000000000E+03 0. -1.
<mgrwt>
<rscale>  2 0.53815437E+03</rscale>
<asrwt>0</asrwt>
<pdfrwt beam="1">  1       21 0.59924712E-01 0.53815437E+03</pdfrwt>
<pdfrwt beam="2">  1       21 0.12356262E+00 0.53815437E+03</pdfrwt>
<totfact> 0.10486489E+03</totfact>
</mgrwt>
</event>
<event>
 4    1  0.4758708E-002  0.4828211E+03  0.7818608E-02  0.1018363E+00
         21   -1    0    0  503  502  0.00000000000E+00  0.00000000000E+00  0.17534583778E+04  0.17534583778E+04  0.00000000000E+00 0.  1.
         21   -1    0    0  501  503 -0.00000000000E+00 -0.00000000000E+00 -0.15753888985E+03  0.15753888985E+03  0.00000000000E+00 0.  1.
    9000007    1    1    2  501    0 -0.26799860783E+03 -0.35957411903E+02  0.42044286753E+03  0.64022526827E+03  0.40000000000E+03 0.  1.
   -9000007    1    1    2    0  502  0.26799860783E+03  0.35957411903E+02  0.11754766204E+04  0.12707719994E+04  0.40000000000E+03 0.  1.
<mgrwt>
<rscale>  2 0.48282107E+03</rscale>
<asrwt>0</asrwt>
<pdfrwt beam="1">  1       21 0.26976281E+00 0.48282107E+03</pdfrwt>
<pdfrwt beam="2">  1       21 0.24236754E-01 0.48282107E+03</pdfrwt>
<totfact> 0.65225117E+02</totfact>
</mgrwt>
</event>
<event>
 4    1  0.4758708E-002  0.8034350E+03  0.7818608E-02  0.9555058E-01
         21   -1    0    0  501  502  0.00000000000E+00  0.00000000000E+00  0.39007923034E+03  0.39007923034E+03  0.00000000000E+00 0. -1.
         21   -1    0    0  502  503 -0.00000000000E+00 -0.00000000000E+00 -0.16556357248E+04  0.16556357248E+04  0.00000000000E+00 0. -1.
    9000007    1    1    2  501    0  0.15189682731E+03 -0.68002587655E+03 -0.60996476308E+03  0.10087441951E+04  0.40000000000E+03 0. -1.
   -9000007    1    1    2    0  503 -0.15189682731E+03  0.68002587655E+03 -0.65559173136E+03  0.10369707600E+04  0.40000000000E+03 0. -1.
<mgrwt>
<rscale>  2 0.80343502E+03</rscale>
<asrwt>0</asrwt>
<pdfrwt beam="1">  1       21 0.60012190E-01 0.80343502E+03</pdfrwt>
<pdfrwt beam="2">  1       21 0.25471318E+00 0.80343502E+03</pdfrwt>
<totfact> 0.10934896E+02</totfact>
</mgrwt>
</event>
<event>
 4    1  0.4758708E-002  0.4624455E+03  0.7818608E-02  0.1024074E+00
         21   -1    0    0  503  502  0.00000000000E+00  0.00000000000E+00  0.11576012629E+04  0.11576012629E+04  0.00000000000E+00 0. -1.
         21   -1    0    0  501  503 -0.00000000000E+00 -0.00000000000E+00 -0.20390790283E+03  0.20390790283E+03  0.00000000000E+00 0. -1.
    9000007    1    1    2  501    0 -0.82625435834E+02 -0.21686141002E+03  0.26813093986E+03  0.53455592290E+03  0.40000000000E+03 0. -1.
   -9000007    1    1    2    0  502  0.82625435834E+02  0.21686141002E+03  0.68556242021E+03  0.82695324282E+03  0.40000000000E+03 0. -1.
<mgrwt>
<rscale>  2 0.46244549E+03</rscale>
<asrwt>0</asrwt>
<pdfrwt beam="1">  1       21 0.17809250E+00 0.46244549E+03</pdfrwt>
<pdfrwt beam="2">  1       21 0.31370447E-01 0.46244549E+03</pdfrwt>
<totfact> 0.15418833E+03</totfact>
</mgrwt>
</event>
<event>
 4    1  0.4758708E-002  0.4835677E+03  0.7818608E-02  0.1018159E+00
         21   -1    0    0  501  502  0.00000000000E+00  0.00000000000E+00  0.62456125075E+03  0.62456125075E+03  0.00000000000E+00 0.  1.
         21   -1    0    0  502  503 -0.00000000000E+00 -0.00000000000E+00 -0.70278411835E+03  0.70278411835E+03  0.00000000000E+00 0.  1.
    9000007    1    1    2  501    0  0.59885749293E+01 -0.27166491049E+03  0.41455012153E+03  0.63693758712E+03  0.40000000000E+03 0.  1.
   -9000007    1    1    2    0  503 -0.59885749293E+01  0.27166491049E+03 -0.49277298913E+03  0.69040778199E+03  0.40000000000E+03 0.  1.
<mgrwt>
<rscale>  2 0.48356766E+03</rscale>
<asrwt>0</asrwt>
<pdfrwt beam="1">  1       21 0.96086346E-01 0.48356766E+03</pdfrwt>
<pdfrwt beam="2">  1       21 0.10812063E+00 0.48356766E+03</pdfrwt>
<totfact> 0.50670209E+02</totfact>
</mgrwt>
</event>
<event>
 4    1  0.4758708E-002  0.4226292E+03  0.7818608E-02  0.1036214E+00
         21   -1    0    0  503  502  0.00000000000E+00  0.00000000000E+00  0.86616895663E+03  0.86616895663E+03  0.00000000000E+00 0.  1.
         21   -1    0    0  501  503 -0.00000000000E+00 -0.00000000000E+00 -0.32653461183E+03  0.32653461183E+03  0.00000000000E+00 0.  1.
    9000007    1    1    2  501    0 -0.10186532663E+03 -0.90768425579E+02 -0.92183530719E+02  0.43256589693E+03  0.40000000000E+03 0.  1.
   -9000007    1    1    2    0  502  0.10186532663E+03  0.90768425579E+02  0.63181787552E+03  0.76013767153E+03  0.40000000000E+03 0.  1.
<mgrwt>
<rscale>  2 0.42262921E+03</rscale>
<asrwt>0</asrwt>
<pdfrwt beam="1">  1       21 0.13325676E+00 0.42262921E+03</pdfrwt>
<pdfrwt beam="2">  1       21 0.50236094E-01 0.42262921E+03</pdfrwt>
<totfact> 0.13198706E+03</totfact>
</mgrwt>
</event>
<event>
 4    1  0.4758708E-002  0.4730570E+03  0.7818608E-02  0.1021061E+00
         21   -1    0    0  501  502  0.00000000000E+00  0.00000000000E+00  0.31058064435E+03  0.31058064435E+03  0.00000000000E+00 0. -1.
         21   -1    0    0  502  503 -0.00000000000E+00 -0.00000000000E+00 -0.79965075872E+03  0.79965075872E+03  0.00000000000E+00 0.  1.
    9000007    1    1    2  501    0 -0.22248099128E+03 -0.11952040966E+03 -0.69922141725E+02  0.47819663917E+03  0.40000000000E+03 0. -1.
   -9000007    1    1    2    0  503  0.22248099128E+03  0.11952040966E+03 -0.41914797264E+03  0.63203476390E+03  0.40000000000E+03 0.  1.
<mgrwt>
<rscale>  2 0.47305699E+03</rscale>
<asrwt>0</asrwt>
<pdfrwt beam="1">  1       21 0.47781638E-01 0.47305699E+03</pdfrwt>
<pdfrwt beam="2">  1       21 0.12302319E+00 0.47305699E+03</pdfrwt>
<totfact> 0.17683823E+03</totfact>
</mgrwt>
</event>
<event>
 4    1  0.4758708E-002  0.4195674E+03  0.7818608E-02  0.1037207E+00
         21   -1    0    0  501  502  0.00000000000E+00  0.00000000000E+00  0.26251831025E+03  0.26251831025E+03  0.00000000000E+00 0.  1.
         21   -1    0    0  502  503 -0.00000000000E+00 -0.00000000000E+00 -0.67215054157E+03  0.67215054157E+03  0.00000000000E+00 0.  1.
    9000007    1    1    2  501    0  0.10861077091E+03  0.65119221253E+02 -0.22748055384E+03  0.47726744589E+03  0.40000000000E+03 0.  1.
   -9000007    1    1    2    0  503 -0.10861077091E+03 -0.65119221253E+02 -0.18215167748E+03  0.45740140593E+03  0.40000000000E+03 0.  1.
<mgrwt>
<rscale>  2 0.41956741E+03</rscale>
<asrwt>0</asrwt>
<pdfrwt beam="1">  1       21 0.40387433E-01 0.41956741E+03</pdfrwt>
<pdfrwt beam="2">  1       21 0.10340777E+00 0.41956741E+03</pdfrwt>
<totfact> 0.39542636E+03</totfact>
</mgrwt>
</event>
<event>
 4    1  0.4758708E-002  0.4956969E+03  0.7818608E-02  0.1014908E+00
         21   -1    0    0  503  502  0.00000000000E+00  0.00000000000E+00  0.29674122145E+04  0.29674122145E+04  0.00000000000E+00 0.  1.
         21   -1    0    0  501  503 -0.00000000000E+00 -0.00000000000E+00 -0.11110178022E+03  0.11110178022E+03  0.00000000000E+00 0.  1.
    9000007    1    1    2  501    0 -0.15853423071E+03 -0.24613473895E+03  0.65133212168E+03  0.81850408964E+03  0.40000000000E+03 0.  1.
   -9000007    1    1    2    0  502  0.15853423071E+03  0.24613473895E+03  0.22049783126E+04  0.22600099051E+04  0.40000000000E+03 0.  1.
<mgrwt>
<rscale>  2 0.49569690E+03</rscale>
<asrwt>0</asrwt>
<pdfrwt beam="1">  1       21 0.45652489E+00 0.49569690E+03</pdfrwt>
<pdfrwt beam="2">  1       21 0.17092584E-01 0.49569690E+03</pdfrwt>
<totfact> 0.84159834E+01</totfact>
</mgrwt>
</event>
<event>
 4    1  0.4758708E-002  0.4067391E+03  0.7818608E-02  0.1041471E+00
         21   -1    0    0  501  502  0.00000000000E+00  0.00000000000E+00  0.11533323367E+04  0.11533323367E+04  0.00000000000E+00 0.  1.
         21   -1    0    0  502  503 -0.00000000000E+00 -0.00000000000E+00 -0.15025949430E+03  0.15025949430E+03  0.00000000000E+00 0.  1.
    9000007    1    1    2  501    0  0.73231366491E+02 -0.85954865947E+01  0.64036903814E+03  0.75862324011E+03  0.40000000000E+03 0.  1.
   -9000007    1    1    2    0  503 -0.73231366491E+02  0.85954865947E+01  0.36270380422E+03  0.54496859086E+03  0.40000000000E+03 0.  1.
<mgrwt>
<rscale>  2 0.40673912E+03</rscale>
<asrwt>0</asrwt>
<pdfrwt beam="1">  1       21 0.17743574E+00 0.40673912E+03</pdfrwt>
<pdfrwt beam="2">  1       21 0.23116846E-01 0.40673912E+03</pdfrwt>
<totfact> 0.29040847E+03</totfact>
</mgrwt>
</event>
<event>
 4    1  0.4758708E-002  0.4383728E+03  0.7818608E-02  0.1031247E+00
         21   -1    0    0  503  502  0.00000000000E+00  0.00000000000E+00  0.94667540890E+03  0.94667540890E+03  0.00000000000E+00 0. -1.
         21   -1    0    0  501  503 -0.00000000000E+00 -0.00000000000E+00 -0.39906039702E+03  0.39906039702E+03  0.00000000000E+00 0. -1.
    9000007    1    1    2  501    0  0.17559840774E+03  0.36550229930E+02 -0.19783242748E+03  0.48094530819E+03  0.40000000000E+03 0. -1.
   -9000007    1    1    2    0  502 -0.17559840774E+03 -0.36550229930E+02  0.74544743936E+03  0.86479049773E+03  0.40000000000E+03 0. -1.
<mgrwt>
<rscale>  2 0.43837281E+03</rscale>
<asrwt>0</asrwt>
<pdfrwt beam="1">  1       21 0.14564237E+00 0.43837281E+03</pdfrwt>
<pdfrwt beam="2">  1       21 0.61393907E-01 0.43837281E+03</pdfrwt>
<totfact> 0.67135083E+02</totfact>
</mgrwt>
</event>
<event>
 4    1  0.4758708E-002  0.5605397E+03  0.7818608E-02  0.9990834E-01
         21   -1    0    0  503  502  0.00000000000E+00  0.00000000000E+00  0.10871538543E+04  0.10871538543E+04  0.00000000000E+00 0.  1.
         21   -1    0    0  501  503 -0.00000000000E+00 -0.00000000000E+00 -0.31454385951E+03  0.31454385951E+03  0.00000000000E+00 0.  1.
    9000007    1    1    2  501    0  0.20310404023E+02  0.39216354929E+03  0.58596529722E+03  0.81090079014E+03  0.40000000000E+03 0.  1.
   -9000007    1    1    2    0  502 -0.20310404023E+02 -0.39216354929E+03  0.18664469758E+03  0.59079692369E+03  0.40000000000E+03 0.  1.
<mgrwt>
<rscale>  2 0.56053971E+03</rscale>
<asrwt>0</asrwt>
<pdfrwt beam="1">  1       21 0.16725444E+00 0.56053971E+03</pdfrwt>
<pdfrwt beam="2">  1       21 0.48391364E-01 0.56053971E+03</pdfrwt>
<totfact> 0.72875675E+02</totfact>
</mgrwt>
</event>
<event>
 4    1  0.4758708E-002  0.5220338E+03  0.7818608E-02  0.1008183E+00
         21   -1    0    0  501  502  0.00000000000E+00  0.00000000000E+00  0.57403383360E+03  0.57403383360E+03  0.00000000000E+00 0.  1.
         21   -1    0    0  502  503 -0.00000000000E+00 -0.00000000000E+00 -0.83000392593E+03  0.83000392593E+03  0.00000000000E+00 0. -1.
    9000007    1    1    2  501    0 -0.30324995740E+03  0.14338336563E+03  0.33129926215E+03  0.61828676786E+03  0.40000000000E+03 0.  1.
   -9000007    1    1    2    0  503  0.30324995740E+03 -0.14338336563E+03 -0.58726935448E+03  0.78575099167E+03  0.40000000000E+03 0. -1.
<mgrwt>
<rscale>  2 0.52203384E+03</rscale>
<asrwt>0</asrwt>
<pdfrwt beam="1">  1       21 0.88312898E-01 0.52203384E+03</pdfrwt>
<pdfrwt beam="2">  1       21 0.12769291E+00 0.52203384E+03</pdfrwt>
<totfact> 0.40033390E+02</totfact>
</mgrwt>
</event>
<event>
 4    1  0.4758708E-002  0.4694419E+03  0.7818608E-02  0.1022078E+00
         21   -1    0    0  503  502  0.00000000000E+00  0.00000000000E+00  0.16869780753E+03  0.16869780753E+03  0.00000000000E+00 0. -1.
         21   -1    0    0  501  503 -0.00000000000E+00 -0.00000000000E+00 -0.13836786877E+04  0.13836786877E+04  0.00000000000E+00 0. -1.
    9000007    1    1    2  501    0  0.74275190914E+02  0.23421977640E+03 -0.79100234789E+03  0.91981542823E+03  0.40000000000E+03 0.  1.
   -9000007    1    1    2    0  502 -0.74275190914E+02 -0.23421977640E+03 -0.42397853228E+03  0.63256106700E+03  0.40000000000E+03 0.  1.
<mgrwt>
<rscale>  2 0.46944191E+03</rscale>
<asrwt>0</asrwt>
<pdfrwt beam="1">  1       21 0.25953509E-01 0.46944191E+03</pdfrwt>
<pdfrwt beam="2">  1       21 0.21287364E+00 0.46944191E+03</pdfrwt>
<totfact> 0.13004928E+03</totfact>
</mgrwt>
</event>
<event>
 4    1  0.4758708E-002  0.4556372E+03  0.7818608E-02  0.1026054E+00
         21   -1    0    0  501  502  0.00000000000E+00  0.00000000000E+00  0.17271278431E+04  0.17271278431E+04  0.00000000000E+00 0.  1.
         21   -1    0    0  502  503 -0.00000000000E+00 -0.00000000000E+00 -0.15332389577E+03  0.15332389577E+03  0.00000000000E+00 0.  1.
    9000007    1    1    2  501    0  0.12501579672E+03 -0.17881923590E+03  0.12239014234E+04  0.13059632317E+04  0.40000000000E+03 0.  1.
   -9000007    1    1    2    0  503 -0.12501579672E+03  0.17881923590E+03  0.34990252401E+03  0.57448850716E+03  0.40000000000E+03 0.  1.
<mgrwt>
<rscale>  2 0.45563721E+03</rscale>
<asrwt>0</asrwt>
<pdfrwt beam="1">  1       21 0.26571196E+00 0.45563721E+03</pdfrwt>
<pdfrwt beam="2">  1       21 0.23588293E-01 0.45563721E+03</pdfrwt>
<totfact> 0.73772265E+02</totfact>
</mgrwt>
</event>
<event>
 4    1  0.4758708E-002  0.4971294E+03  0.7818608E-02  0.1014531E+00
         21   -1    0    0  501  502  0.00000000000E+00  0.00000000000E+00  0.25507604773E+03  0.25507604773E+03  0.00000000000E+00 0.  1.
         21   -1    0    0  502  503 -0.00000000000E+00 -0.00000000000E+00 -0.96895484722E+03  0.96895484722E+03  0.00000000000E+00 0.  1.
    9000007    1    1    2  501    0  0.29207263106E+03 -0.42793244724E+02 -0.36237407182E+03  0.61518505471E+03  0.40000000000E+03 0.  1.
   -9000007    1    1    2    0  503 -0.29207263106E+03  0.42793244724E+02 -0.35150472768E+03  0.60884584025E+03  0.40000000000E+03 0.  1.
<mgrwt>
<rscale>  2 0.49712944E+03</rscale>
<asrwt>0</asrwt>
<pdfrwt beam="1">  1       21 0.39242469E-01 0.49712944E+03</pdfrwt>
<pdfrwt beam="2">  1       21 0.14906998E+00 0.49712944E+03</pdfrwt>
<totfact> 0.15928994E+03</totfact>
</mgrwt>
</event>
<event>
 4    1  0.4758708E-002  0.4469000E+03  0.7818608E-02  0.1028651E+00
         21   -1    0    0  503  502  0.00000000000E+00  0.00000000000E+00  0.12586373528E+04  0.12586373528E+04  0.00000000000E+00 0. -1.
         21   -1    0    0  501  503 -0.00000000000E+00 -0.00000000000E+00 -0.32534124738E+03  0.32534124738E+03  0.00000000000E+00 0. -1.
    9000007    1    1    2  501    0  0.11211045371E+03 -0.16477508981E+03 -0.10020186832E+03  0.45799563149E+03  0.40000000000E+03 0. -1.
   -9000007    1    1    2    0  502 -0.11211045371E+03  0.16477508981E+03  0.10334979738E+04  0.11259829687E+04  0.40000000000E+03 0. -1.
<mgrwt>
<rscale>  2 0.44689997E+03</rscale>
<asrwt>0</asrwt>
<pdfrwt beam="1">  1       21 0.19363651E+00 0.44689997E+03</pdfrwt>
<pdfrwt beam="2">  1       21 0.50052500E-01 0.44689997E+03</pdfrwt>
<totfact> 0.46295237E+02</totfact>
</mgrwt>
</event>
<event>
 4    1  0.4758708E-002  0.4081445E+03  0.7818608E-02  0.1040995E+00
         21   -1    0    0  503  502  0.00000000000E+00  0.00000000000E+00  0.26272625849E+03  0.26272625849E+03  0.00000000000E+00 0.  1.
         21   -1    0    0  501  503 -0.00000000000E+00 -0.00000000000E+00 -0.97268921004E+03  0.97268921004E+03  0.00000000000E+00 0.  1.
    9000007    1    1    2  501    0  0.80676400805E+02 -0.85590326912E+01  0.94901684164E+01  0.40825482481E+03  0.40000000000E+03 0.  1.
   -9000007    1    1    2    0  502 -0.80676400805E+02  0.85590326912E+01 -0.71945311996E+03  0.82716064372E+03  0.40000000000E+03 0.  1.
<mgrwt>
<rscale>  2 0.40814451E+03</rscale>
<asrwt>0</asrwt>
<pdfrwt beam="1">  1       21 0.40419425E-01 0.40814451E+03</pdfrwt>
<pdfrwt beam="2">  1       21 0.14964449E+00 0.40814451E+03</pdfrwt>
<totfact> 0.15379620E+03</totfact>
</mgrwt>
</event>
<event>
 4    1  0.4758708E-002  0.6084787E+03  0.7818608E-02  0.9887970E-01
         21   -1    0    0  503  502  0.00000000000E+00  0.00000000000E+00  0.33540135905E+03  0.33540135905E+03  0.00000000000E+00 0.  1.
         21   -1    0    0  501  503 -0.00000000000E+00 -0.00000000000E+00 -0.12251443244E+04  0.12251443244E+04  0.00000000000E+00 0. -1.
    9000007    1    1    2  501    0 -0.44266174562E+03 -0.11956943256E+03 -0.69034301933E+03  0.92022809921E+03  0.40000000000E+03 0. -1.
   -9000007    1    1    2    0  502  0.44266174562E+03  0.11956943256E+03 -0.19939994604E+03  0.64031758427E+03  0.40000000000E+03 0.  1.
<mgrwt>
<rscale>  2 0.60847865E+03</rscale>
<asrwt>0</asrwt>
<pdfrwt beam="1">  1       21 0.51600209E-01 0.60847865E+03</pdfrwt>
<pdfrwt beam="2">  1       21 0.18848374E+00 0.60847865E+03</pdfrwt>
<totfact> 0.43986352E+02</totfact>
</mgrwt>
</event>
<event>
 4    1  0.4758708E-002  0.5125375E+03  0.7818608E-02  0.1010557E+00
         21   -1    0    0  501  502  0.00000000000E+00  0.00000000000E+00  0.41946706583E+03  0.41946706583E+03  0.00000000000E+00 0. -1.
         21   -1    0    0  502  503 -0.00000000000E+00 -0.00000000000E+00 -0.66412361840E+03  0.66412361840E+03  0.00000000000E+00 0. -1.
    9000007    1    1    2  501    0 -0.11684533026E+03 -0.29839876417E+03  0.70414549012E+01  0.51258583257E+03  0.40000000000E+03 0. -1.
   -9000007    1    1    2    0  503  0.11684533026E+03  0.29839876417E+03 -0.25169800747E+03  0.57100485167E+03  0.40000000000E+03 0. -1.
<mgrwt>
<rscale>  2 0.51253747E+03</rscale>
<asrwt>0</asrwt>
<pdfrwt beam="1">  1       21 0.64533395E-01 0.51253747E+03</pdfrwt>
<pdfrwt beam="2">  1       21 0.10217286E+00 0.51253747E+03</pdfrwt>
<totfact> 0.14463024E+03</totfact>
</mgrwt>
</event>
<event>
 4    1  0.4758708E-002  0.4316419E+03  0.7818608E-02  0.1033343E+00
         21   -1    0    0  501  502  0.00000000000E+00  0.00000000000E+00  0.12213835862E+04  0.12213835862E+04  0.00000000000E+00 0. -1.
         21   -1    0    0  502  503 -0.00000000000E+00 -0.00000000000E+00 -0.26000684743E+03  0.26000684743E+03  0.00000000000E+00 0. -1.
    9000007    1    1    2  501    0  0.84478741800E+02 -0.13848501156E+03  0.95687400299E+03  0.10497250182E+04  0.40000000000E+03 0. -1.
   -9000007    1    1    2    0  503 -0.84478741800E+02  0.13848501156E+03  0.45027357856E+01  0.43166541542E+03  0.40000000000E+03 0. -1.
<mgrwt>
<rscale>  2 0.43164193E+03</rscale>
<asrwt>0</asrwt>
<pdfrwt beam="1">  1       21 0.18790516E+00 0.43164193E+03</pdfrwt>
<pdfrwt beam="2">  1       21 0.40001054E-01 0.43164193E+03</pdfrwt>
<totfact> 0.81573651E+02</totfact>
</mgrwt>
</event>
<event>
 4    1  0.4758708E-002  0.4147619E+03  0.7818608E-02  0.1038785E+00
         21   -1    0    0  503  502  0.00000000000E+00  0.00000000000E+00  0.75550022509E+03  0.75550022509E+03  0.00000000000E+00 0.  1.
         21   -1    0    0  501  503 -0.00000000000E+00 -0.00000000000E+00 -0.41885025425E+03  0.41885025425E+03  0.00000000000E+00 0.  1.
    9000007    1    1    2  501    0 -0.82102095903E+02  0.72709297566E+02 -0.22834175715E+03  0.47346314974E+03  0.40000000000E+03 0.  1.
   -9000007    1    1    2    0  502  0.82102095903E+02 -0.72709297566E+02  0.56499172799E+03  0.70088732960E+03  0.40000000000E+03 0.  1.
<mgrwt>
<rscale>  2 0.41476185E+03</rscale>
<asrwt>0</asrwt>
<pdfrwt beam="1">  1       21 0.11623080E+00 0.41476185E+03</pdfrwt>
<pdfrwt beam="2">  1       21 0.64438501E-01 0.41476185E+03</pdfrwt>
<totfact> 0.10952735E+03</totfact>
</mgrwt>
</event>
<event>
 4    1  0.4758708E-002  0.6885650E+03  0.7818608E-02  0.9736990E-01
         21   -1    0    0  501  502  0.00000000000E+00  0.00000000000E+00  0.23875369673E+04  0.23875369673E+04  0.00000000000E+00 0.  1.
         21   -1    0    0  502  503 -0.00000000000E+00 -0.00000000000E+00 -0.26956546240E+03  0.26956546240E+03  0.00000000000E+00 0.  1.
    9000007    1    1    2  501    0 -0.56042388249E+03  0.68420344813E+01  0.17407354062E+04  0.18719726215E+04  0.40000000000E+03 0.  1.
   -9000007    1    1    2    0  503  0.56042388249E+03 -0.68420344813E+01  0.37723609876E+03  0.78512980819E+03  0.40000000000E+03 0.  1.
<mgrwt>
<rscale>  2 0.68856499E+03</rscale>
<asrwt>0</asrwt>
<pdfrwt beam="1">  1       21 0.36731337E+00 0.68856499E+03</pdfrwt>
<pdfrwt beam="2">  1       21 0.41471611E-01 0.68856499E+03</pdfrwt>
<totfact> 0.50686333E+01</totfact>
</mgrwt>
</event>
<event>
 4    1  0.4758708E-002  0.4345597E+03  0.7818608E-02  0.1032429E+00
         21   -1    0    0  503  502  0.00000000000E+00  0.00000000000E+00  0.22365623835E+03  0.22365623835E+03  0.00000000000E+00 0.  1.
         21   -1    0    0  501  503 -0.00000000000E+00 -0.00000000000E+00 -0.14839325947E+04  0.14839325947E+04  0.00000000000E+00 0. -1.
    9000007    1    1    2  501    0 -0.11103195426E+03  0.12850701900E+03 -0.11906665135E+04  0.12674892091E+04  0.40000000000E+03 0. -1.
   -9000007    1    1    2    0  502  0.11103195426E+03 -0.12850701900E+03 -0.69609842866E+02  0.44009962398E+03  0.40000000000E+03 0.  1.
<mgrwt>
<rscale>  2 0.43455972E+03</rscale>
<asrwt>0</asrwt>
<pdfrwt beam="1">  1       21 0.34408653E-01 0.43455972E+03</pdfrwt>
<pdfrwt beam="2">  1       21 0.22829731E+00 0.43455972E+03</pdfrwt>
<totfact> 0.60189221E+02</totfact>
</mgrwt>
</event>
<event>
 4    1  0.4758708E-002  0.4070513E+03  0.7818608E-02  0.1041365E+00
         21   -1    0    0  501  502  0.00000000000E+00  0.00000000000E+00  0.53539676071E+03  0.53539676071E+03  0.00000000000E+00 0.  1.
         21   -1    0    0  502  503 -0.00000000000E+00 -0.00000000000E+00 -0.44210905895E+03  0.44210905895E+03  0.00000000000E+00 0.  1.
    9000007    1    1    2  501    0  0.46378921306E+01  0.75294255859E+02  0.31434841772E+03  0.51430114012E+03  0.40000000000E+03 0.  1.
   -9000007    1    1    2    0  503 -0.46378921306E+01 -0.75294255859E+02 -0.22106071596E+03  0.46320467954E+03  0.40000000000E+03 0.  1.
<mgrwt>
<rscale>  2 0.40705127E+03</rscale>
<asrwt>0</asrwt>
<pdfrwt beam="1">  1       21 0.82368732E-01 0.40705127E+03</pdfrwt>
<pdfrwt beam="2">  1       21 0.68016778E-01 0.40705127E+03</pdfrwt>
<totfact> 0.22351750E+03</totfact>
</mgrwt>
</event>
<event>
 4    1  0.4758708E-002  0.4201744E+03  0.7818608E-02  0.1037010E+00
         21   -1    0    0  503  502  0.00000000000E+00  0.00000000000E+00  0.88452479711E+03  0.88452479711E+03  0.00000000000E+00 0. -1.
         21   -1    0    0  501  503 -0.00000000000E+00 -0.00000000000E+00 -0.20208170971E+03  0.20208170971E+03  0.00000000000E+00 0. -1.
    9000007    1    1    2  501    0 -0.12764700481E+03  0.15897424879E+02  0.28094960930E+03  0.50544947217E+03  0.40000000000E+03 0.  1.
   -9000007    1    1    2    0  502  0.12764700481E+03 -0.15897424879E+02  0.40149347811E+03  0.58115703465E+03  0.40000000000E+03 0.  1.
<mgrwt>
<rscale>  2 0.42017435E+03</rscale>
<asrwt>0</asrwt>
<pdfrwt beam="1">  1       21 0.13608074E+00 0.42017435E+03</pdfrwt>
<pdfrwt beam="2">  1       21 0.31089494E-01 0.42017435E+03</pdfrwt>
<totfact> 0.33540158E+03</totfact>
</mgrwt>
</event>
<event>
 4    1  0.4758708E-002  0.4417212E+03  0.7818608E-02  0.1030220E+00
         21   -1    0    0  501  502  0.00000000000E+00  0.00000000000E+00  0.80463102916E+02  0.80463102916E+02  0.00000000000E+00 0.  1.
         21   -1    0    0  502  503 -0.00000000000E+00 -0.00000000000E+00 -0.24699655797E+04  0.24699655797E+04  0.00000000000E+00 0.  1.
    9000007    1    1    2  501    0  0.35577355253E+01 -0.18736310217E+03 -0.13669395978E+04  0.14365380098E+04  0.40000000000E+03 0. -1.
   -9000007    1    1    2    0  503 -0.35577355253E+01  0.18736310217E+03 -0.10225628790E+04  0.11138906728E+04  0.40000000000E+03 0. -1.
<mgrwt>
<rscale>  2 0.44172117E+03</rscale>
<asrwt>0</asrwt>
<pdfrwt beam="1">  1       21 0.12378940E-01 0.44172117E+03</pdfrwt>
<pdfrwt beam="2">  1       21 0.37999467E+00 0.44172117E+03</pdfrwt>
<totfact> 0.50267928E+02</totfact>
</mgrwt>
</event>
<event>
 4    1  0.4758708E-002  0.4714563E+03  0.7818608E-02  0.1021510E+00
         21   -1    0    0  503  502  0.00000000000E+00  0.00000000000E+00  0.21342384484E+03  0.21342384484E+03  0.00000000000E+00 0.  1.
         21   -1    0    0  501  503 -0.00000000000E+00 -0.00000000000E+00 -0.11149420903E+04  0.11149420903E+04  0.00000000000E+00 0.  1.
    9000007    1    1    2  501    0 -0.22184363625E+03 -0.11426470192E+03 -0.28024066856E+03  0.54845770426E+03  0.40000000000E+03 0.  1.
   -9000007    1    1    2    0  502  0.22184363625E+03  0.11426470192E+03 -0.62127757692E+03  0.77990823090E+03  0.40000000000E+03 0.  1.
<mgrwt>
<rscale>  2 0.47145628E+03</rscale>
<asrwt>0</asrwt>
<pdfrwt beam="1">  1       21 0.32834438E-01 0.47145628E+03</pdfrwt>
<pdfrwt beam="2">  1       21 0.17152955E+00 0.47145628E+03</pdfrwt>
<totfact> 0.15626345E+03</totfact>
</mgrwt>
</event>
<event>
 4    1  0.4758708E-002  0.4245629E+03  0.7818608E-02  0.1035591E+00
         21   -1    0    0  501  502  0.00000000000E+00  0.00000000000E+00  0.47625422910E+03  0.47625422910E+03  0.00000000000E+00 0.  1.
         21   -1    0    0  502  503 -0.00000000000E+00 -0.00000000000E+00 -0.38748868595E+03  0.38748868595E+03  0.00000000000E+00 0.  1.
    9000007    1    1    2  501    0 -0.14231224806E+03  0.92983154339E+00  0.11022554822E+03  0.43863801935E+03  0.40000000000E+03 0. -1.
   -9000007    1    1    2    0  503  0.14231224806E+03 -0.92983154339E+00 -0.21460005065E+02  0.42510489570E+03  0.40000000000E+03 0. -1.
<mgrwt>
<rscale>  2 0.42456288E+03</rscale>
<asrwt>0</asrwt>
<pdfrwt beam="1">  1       21 0.73269881E-01 0.42456288E+03</pdfrwt>
<pdfrwt beam="2">  1       21 0.59613644E-01 0.42456288E+03</pdfrwt>
<totfact> 0.38863228E+03</totfact>
</mgrwt>
</event>
<event>
 4    1  0.4758708E-002  0.4456542E+03  0.7818608E-02  0.1029026E+00
         21   -1    0    0  501  502  0.00000000000E+00  0.00000000000E+00  0.30150658951E+03  0.30150658951E+03  0.00000000000E+00 0. -1.
         21   -1    0    0  502  503 -0.00000000000E+00 -0.00000000000E+00 -0.11549526148E+04  0.11549526148E+04  0.00000000000E+00 0. -1.
    9000007    1    1    2  501    0  0.10837463200E+03  0.16389813716E+03 -0.90406540081E+03  0.10079394373E+04  0.40000000000E+03 0. -1.
   -9000007    1    1    2    0  503 -0.10837463200E+03 -0.16389813716E+03  0.50619375554E+02  0.44851976702E+03  0.40000000000E+03 0. -1.
<mgrwt>
<rscale>  2 0.44565419E+03</rscale>
<asrwt>0</asrwt>
<pdfrwt beam="1">  1       21 0.46385629E-01 0.44565419E+03</pdfrwt>
<pdfrwt beam="2">  1       21 0.17768502E+00 0.44565419E+03</pdfrwt>
<totfact> 0.70178496E+02</totfact>
</mgrwt>
</event>
<event>
 4    1  0.4758708E-002  0.4582465E+03  0.7818608E-02  0.1025291E+00
         21   -1    0    0  503  502  0.00000000000E+00  0.00000000000E+00  0.30826857351E+03  0.30826857351E+03  0.00000000000E+00 0.  1.
         21   -1    0    0  501  503 -0.00000000000E+00 -0.00000000000E+00 -0.74907323522E+03  0.74907323522E+03  0.00000000000E+00 0.  1.
    9000007    1    1    2  501    0 -0.23961046411E+02  0.22229646486E+03 -0.37955011192E+03  0.59501944295E+03  0.40000000000E+03 0.  1.
   -9000007    1    1    2    0  502  0.23961046411E+02 -0.22229646486E+03 -0.61254549788E+02  0.46232236578E+03  0.40000000000E+03 0.  1.
<mgrwt>
<rscale>  2 0.45824649E+03</rscale>
<asrwt>0</asrwt>
<pdfrwt beam="1">  1       21 0.47425934E-01 0.45824649E+03</pdfrwt>
<pdfrwt beam="2">  1       21 0.11524204E+00 0.45824649E+03</pdfrwt>
<totfact> 0.21320242E+03</totfact>
</mgrwt>
</event>
<event>
 4    1  0.4758708E-002  0.5041250E+03  0.7818608E-02  0.1012708E+00
         21   -1    0    0  501  502  0.00000000000E+00  0.00000000000E+00  0.20586758645E+03  0.20586758645E+03  0.00000000000E+00 0.  1.
         21   -1    0    0  502  503 -0.00000000000E+00 -0.00000000000E+00 -0.12431050662E+04  0.12431050662E+04  0.00000000000E+00 0.  1.
    9000007    1    1    2  501    0  0.30681608400E+03  0.24361359545E+01 -0.57892134944E+03  0.76765355011E+03  0.40000000000E+03 0. -1.
   -9000007    1    1    2    0  503 -0.30681608400E+03 -0.24361359545E+01 -0.45831613027E+03  0.68131910249E+03  0.40000000000E+03 0. -1.
<mgrwt>
<rscale>  2 0.50412503E+03</rscale>
<asrwt>0</asrwt>
<pdfrwt beam="1">  1       21 0.31671937E-01 0.50412503E+03</pdfrwt>
<pdfrwt beam="2">  1       21 0.19124693E+00 0.50412503E+03</pdfrwt>
<totfact> 0.12043460E+03</totfact>
</mgrwt>
</event>
<event>
 4    1  0.4758708E-002  0.4052628E+03  0.7818608E-02  0.1041972E+00
         21   -1    0    0  501  502  0.00000000000E+00  0.00000000000E+00  0.74258400583E+03  0.74258400583E+03  0.00000000000E+00 0. -1.
         21   -1    0    0  502  503 -0.00000000000E+00 -0.00000000000E+00 -0.33875788741E+03  0.33875788741E+03  0.00000000000E+00 0. -1.
    9000007    1    1    2  501    0  0.20459722242E+02 -0.61801093316E+02  0.52045597488E+03  0.65963050048E+03  0.40000000000E+03 0. -1.
   -9000007    1    1    2    0  503 -0.20459722242E+02  0.61801093316E+02 -0.11662985646E+03  0.42171139276E+03  0.40000000000E+03 0. -1.
<mgrwt>
<rscale>  2 0.40526285E+03</rscale>
<asrwt>0</asrwt>
<pdfrwt beam="1">  1       21 0.11424369E+00 0.40526285E+03</pdfrwt>
<pdfrwt beam="2">  1       21 0.52116598E-01 0.40526285E+03</pdfrwt>
<totfact> 0.18215074E+03</totfact>
</mgrwt>
</event>
<event>
 4    1  0.4758708E-002  0.4464820E+03  0.7818608E-02  0.1028776E+00
         21   -1    0    0  501  502  0.00000000000E+00  0.00000000000E+00  0.65750142564E+03  0.65750142564E+03  0.00000000000E+00 0.  1.
         21   -1    0    0  502  503 -0.00000000000E+00 -0.00000000000E+00 -0.32082517622E+03  0.32082517622E+03  0.00000000000E+00 0.  1.
    9000007    1    1    2  501    0  0.36207200226E+02 -0.19502623120E+03  0.53644117197E+02  0.44969309925E+03  0.40000000000E+03 0.  1.
   -9000007    1    1    2    0  503 -0.36207200226E+02  0.19502623120E+03  0.28303213222E+03  0.52863350260E+03  0.40000000000E+03 0.  1.
<mgrwt>
<rscale>  2 0.44648202E+03</rscale>
<asrwt>0</asrwt>
<pdfrwt beam="1">  1       21 0.10115407E+00 0.44648202E+03</pdfrwt>
<pdfrwt beam="2">  1       21 0.49357720E-01 0.44648202E+03</pdfrwt>
<totfact> 0.27166467E+03</totfact>
</mgrwt>
</event>
<event>
 4    1  0.4758708E-002  0.4480193E+03  0.7818608E-02  0.1028314E+00
         21   -1    0    0  501  502  0.00000000000E+00  0.00000000000E+00  0.12559845203E+03  0.12559845203E+03  0.00000000000E+00 0.  1.
         21   -1    0    0  502  503 -0.00000000000E+00 -0.00000000000E+00 -0.18087466201E+04  0.18087466201E+04  0.00000000000E+00 0. -1.
    9000007    1    1    2  501    0 -0.20138441285E+03  0.12869464506E+02 -0.51152959556E+03  0.67998811165E+03  0.40000000000E+03 0.  1.
   -9000007    1    1    2    0  503  0.20138441285E+03 -0.12869464506E+02 -0.11716185725E+04  0.12543569605E+04  0.40000000000E+03 0. -1.
<mgrwt>
<rscale>  2 0.44801931E+03</rscale>
<asrwt>0</asrwt>
<pdfrwt beam="1">  1       21 0.19322840E-01 0.44801931E+03</pdfrwt>
<pdfrwt beam="2">  1       21 0.27826870E+00 0.44801931E+03</pdfrwt>
<totfact> 0.91118722E+02</totfact>
</mgrwt>
</event>
<event>
 4    1  0.4758708E-002  0.4161832E+03  0.7818608E-02  0.1038316E+00
         21   -1    0    0  503  502  0.00000000000E+00  0.00000000000E+00  0.10756067368E+04  0.10756067368E+04  0.00000000000E+00 0.  1.
         21   -1    0    0  501  503 -0.00000000000E+00 -0.00000000000E+00 -0.19760064443E+03  0.19760064443E+03  0.00000000000E+00 0.  1.
    9000007    1    1    2  501    0 -0.10392327830E+03 -0.49075571618E+02  0.16514725999E+03  0.44775224956E+03  0.40000000000E+03 0.  1.
   -9000007    1    1    2    0  502  0.10392327830E+03  0.49075571618E+02  0.71285883242E+03  0.82545513170E+03  0.40000000000E+03 0.  1.
<mgrwt>
<rscale>  2 0.41618320E+03</rscale>
<asrwt>0</asrwt>
<pdfrwt beam="1">  1       21 0.16547796E+00 0.41618320E+03</pdfrwt>
<pdfrwt beam="2">  1       21 0.30400100E-01 0.41618320E+03</pdfrwt>
<totfact> 0.20652373E+03</totfact>
</mgrwt>
</event>
<event>
 4    1  0.4758708E-002  0.4136780E+03  0.7818608E-02  0.1039144E+00
         21   -1    0    0  501  502  0.00000000000E+00  0.00000000000E+00  0.74426805291E+03  0.74426805291E+03  0.00000000000E+00 0. -1.
         21   -1    0    0  502  503 -0.00000000000E+00 -0.00000000000E+00 -0.28169157909E+03  0.28169157909E+03  0.00000000000E+00 0.  1.
    9000007    1    1    2  501    0  0.30434042006E+02 -0.10101112709E+03  0.11392138030E+02  0.41383482154E+03  0.40000000000E+03 0.  1.
   -9000007    1    1    2    0  503 -0.30434042006E+02  0.10101112709E+03  0.45118433579E+03  0.61212481045E+03  0.40000000000E+03 0. -1.
<mgrwt>
<rscale>  2 0.41367799E+03</rscale>
<asrwt>0</asrwt>
<pdfrwt beam="1">  1       21 0.11450278E+00 0.41367799E+03</pdfrwt>
<pdfrwt beam="2">  1       21 0.43337166E-01 0.41367799E+03</pdfrwt>
<totfact> 0.26624255E+03</totfact>
</mgrwt>
</event>
<event>
 4    1  0.4758708E-002  0.4738863E+03  0.7818608E-02  0.1020829E+00
         21   -1    0    0  501  502  0.00000000000E+00  0.00000000000E+00  0.29080998739E+03  0.29080998739E+03  0.00000000000E+00 0. -1.
         21   -1    0    0  502  503 -0.00000000000E+00 -0.00000000000E+00 -0.88111501129E+03  0.88111501129E+03  0.00000000000E+00 0.  1.
    9000007    1    1    2  501    0  0.18855858179E+03  0.17033453439E+03 -0.50115147328E+03  0.68972530151E+03  0.40000000000E+03 0.  1.
   -9000007    1    1    2    0  503 -0.18855858179E+03 -0.17033453439E+03 -0.89153550620E+02  0.48219969718E+03  0.40000000000E+03 0. -1.
<mgrwt>
<rscale>  2 0.47388627E+03</rscale>
<asrwt>0</asrwt>
<pdfrwt beam="1">  1       21 0.44739999E-01 0.47388627E+03</pdfrwt>
<pdfrwt beam="2">  1       21 0.13555615E+00 0.47388627E+03</pdfrwt>
<totfact> 0.15785184E+03</totfact>
</mgrwt>
</event>
<event>
 4    1  0.4758708E-002  0.5848708E+03  0.7818608E-02  0.9937301E-01
         21   -1    0    0  503  502  0.00000000000E+00  0.00000000000E+00  0.22843453552E+03  0.22843453552E+03  0.00000000000E+00 0. -1.
         21   -1    0    0  501  503 -0.00000000000E+00 -0.00000000000E+00 -0.21305287663E+04  0.21305287663E+04  0.00000000000E+00 0. -1.
    9000007    1    1    2  501    0  0.14877408981E+03  0.39992510744E+03 -0.15939858116E+04  0.16979000527E+04  0.40000000000E+03 0. -1.
   -9000007    1    1    2    0  502 -0.14877408981E+03 -0.39992510744E+03 -0.30810841917E+03  0.66106324911E+03  0.40000000000E+03 0. -1.
<mgrwt>
<rscale>  2 0.58487077E+03</rscale>
<asrwt>0</asrwt>
<pdfrwt beam="1">  1       21 0.35143773E-01 0.58487077E+03</pdfrwt>
<pdfrwt beam="2">  1       21 0.32777367E+00 0.58487077E+03</pdfrwt>
<totfact> 0.13171541E+02</totfact>
</mgrwt>
</event>
<event>
 4    1  0.4758708E-002  0.5366729E+03  0.7818608E-02  0.1004627E+00
         21   -1    0    0  501  502  0.00000000000E+00  0.00000000000E+00  0.11733099470E+04  0.11733099470E+04  0.00000000000E+00 0.  1.
         21   -1    0    0  502  503 -0.00000000000E+00 -0.00000000000E+00 -0.27531351945E+03  0.27531351945E+03  0.00000000000E+00 0.  1.
    9000007    1    1    2  501    0 -0.19130930674E+03  0.30235497832E+03  0.68745151289E+03  0.87212806762E+03  0.40000000000E+03 0.  1.
   -9000007    1    1    2    0  503  0.19130930674E+03 -0.30235497832E+03  0.21054491463E+03  0.57649539880E+03  0.40000000000E+03 0.  1.
<mgrwt>
<rscale>  2 0.53667288E+03</rscale>
<asrwt>0</asrwt>
<pdfrwt beam="1">  1       21 0.18050922E+00 0.53667288E+03</pdfrwt>
<pdfrwt beam="2">  1       21 0.42355927E-01 0.53667288E+03</pdfrwt>
<totfact> 0.78024412E+02</totfact>
</mgrwt>
</event>
<event>
 4    1  0.4758708E-002  0.4365055E+03  0.7818608E-02  0.1031824E+00
         21   -1    0    0  501  502  0.00000000000E+00  0.00000000000E+00  0.73320031526E+03  0.73320031526E+03  0.00000000000E+00 0.  1.
         21   -1    0    0  502  503 -0.00000000000E+00 -0.00000000000E+00 -0.27330990832E+03  0.27330990832E+03  0.00000000000E+00 0. -1.
    9000007    1    1    2  501    0  0.11496386214E+03 -0.13160696778E+03  0.11834842437E+03  0.45226478209E+03  0.40000000000E+03 0. -1.
   -9000007    1    1    2    0  503 -0.11496386214E+03  0.13160696778E+03  0.34154198257E+03  0.55424544150E+03  0.40000000000E+03 0.  1.
<mgrwt>
<rscale>  2 0.43650554E+03</rscale>
<asrwt>0</asrwt>
<pdfrwt beam="1">  1       21 0.11280005E+00 0.43650554E+03</pdfrwt>
<pdfrwt beam="2">  1       21 0.42047678E-01 0.43650554E+03</pdfrwt>
<totfact> 0.29168304E+03</totfact>
</mgrwt>
</event>
<event>
 4    1  0.4758708E-002  0.5288201E+03  0.7818608E-02  0.1006519E+00
         21   -1    0    0  501  502  0.00000000000E+00  0.00000000000E+00  0.81993738650E+03  0.81993738650E+03  0.00000000000E+00 0. -1.
         21   -1    0    0  502  503 -0.00000000000E+00 -0.00000000000E+00 -0.55531403204E+03  0.55531403204E+03  0.00000000000E+00 0.  1.
    9000007    1    1    2  501    0 -0.23324898203E+03 -0.25543216976E+03  0.55942564915E+03  0.76981019602E+03  0.40000000000E+03 0.  1.
   -9000007    1    1    2    0  503  0.23324898203E+03  0.25543216976E+03 -0.29480229469E+03  0.60544122252E+03  0.40000000000E+03 0.  1.
<mgrwt>
<rscale>  2 0.52882008E+03</rscale>
<asrwt>0</asrwt>
<pdfrwt beam="1">  1       21 0.12614421E+00 0.52882008E+03</pdfrwt>
<pdfrwt beam="2">  1       21 0.85432928E-01 0.52882008E+03</pdfrwt>
<totfact> 0.44564530E+02</totfact>
</mgrwt>
</event>
<event>
 4    1  0.4758708E-002  0.4519132E+03  0.7818608E-02  0.1027153E+00
         21   -1    0    0  503  502  0.00000000000E+00  0.00000000000E+00  0.17296165313E+03  0.17296165313E+03  0.00000000000E+00 0.  1.
         21   -1    0    0  501  503 -0.00000000000E+00 -0.00000000000E+00 -0.15441851159E+04  0.15441851159E+04  0.00000000000E+00 0.  1.
    9000007    1    1    2  501    0  0.18229502495E+03  0.10485246826E+03 -0.11021333780E+04  0.11911857534E+04  0.40000000000E+03 0. -1.
   -9000007    1    1    2    0  502 -0.18229502495E+03 -0.10485246826E+03 -0.26909008474E+03  0.52596101560E+03  0.40000000000E+03 0. -1.
<mgrwt>
<rscale>  2 0.45191317E+03</rscale>
<asrwt>0</asrwt>
<pdfrwt beam="1">  1       21 0.26609485E-01 0.45191317E+03</pdfrwt>
<pdfrwt beam="2">  1       21 0.23756694E+00 0.45191317E+03</pdfrwt>
<totfact> 0.87017207E+02</totfact>
</mgrwt>
</event>
<event>
 4    1  0.4758708E-002  0.5012378E+03  0.7818608E-02  0.1013456E+00
         21   -1    0    0  503  502  0.00000000000E+00  0.00000000000E+00  0.19645036556E+03  0.19645036556E+03  0.00000000000E+00 0. -1.
         21   -1    0    0  501  503 -0.00000000000E+00 -0.00000000000E+00 -0.15960821028E+04  0.15960821028E+04  0.00000000000E+00 0.  1.
    9000007    1    1    2  501    0  0.14854666450E+03  0.26300808982E+03 -0.10993623063E+04  0.12082370824E+04  0.40000000000E+03 0.  1.
   -9000007    1    1    2    0  502 -0.14854666450E+03 -0.26300808982E+03 -0.30026943092E+03  0.58429538591E+03  0.40000000000E+03 0. -1.
<mgrwt>
<rscale>  2 0.50123783E+03</rscale>
<asrwt>0</asrwt>
<pdfrwt beam="1">  1       21 0.30223132E-01 0.50123783E+03</pdfrwt>
<pdfrwt beam="2">  1       21 0.24555110E+00 0.50123783E+03</pdfrwt>
<totfact> 0.58943486E+02</totfact>
</mgrwt>
</event>
<event>
 4    1  0.4758708E-002  0.4168538E+03  0.7818608E-02  0.1038095E+00
         21   -1    0    0  501  502  0.00000000000E+00  0.00000000000E+00  0.18454257882E+04  0.18454257882E+04  0.00000000000E+00 0. -1.
         21   -1    0    0  502  503 -0.00000000000E+00 -0.00000000000E+00 -0.94172200714E+02  0.94172200714E+02  0.00000000000E+00 0. -1.
    9000007    1    1    2  501    0 -0.89387933692E+02 -0.76005933506E+02  0.88621176956E+03  0.97935611762E+03  0.40000000000E+03 0.  1.
   -9000007    1    1    2    0  503  0.89387933692E+02  0.76005933506E+02  0.86504181791E+03  0.96024187128E+03  0.40000000000E+03 0.  1.
<mgrwt>
<rscale>  2 0.41685382E+03</rscale>
<asrwt>0</asrwt>
<pdfrwt beam="1">  1       21 0.28391163E+00 0.41685382E+03</pdfrwt>
<pdfrwt beam="2">  1       21 0.14488032E-01 0.41685382E+03</pdfrwt>
<totfact> 0.14685511E+03</totfact>
</mgrwt>
</event>
<event>
 4    1  0.4758708E-002  0.4695544E+03  0.7818608E-02  0.1022046E+00
         21   -1    0    0  503  502  0.00000000000E+00  0.00000000000E+00  0.16451109853E+04  0.16451109853E+04  0.00000000000E+00 0.  1.
         21   -1    0    0  501  503 -0.00000000000E+00 -0.00000000000E+00 -0.14473679190E+03  0.14473679190E+03  0.00000000000E+00 0.  1.
    9000007    1    1    2  501    0  0.17638537648E+03  0.17137555382E+03  0.50669515381E+03  0.69081210208E+03  0.40000000000E+03 0.  1.
   -9000007    1    1    2    0  502 -0.17638537648E+03 -0.17137555382E+03  0.99367903959E+03  0.10990356751E+04  0.40000000000E+03 0.  1.
<mgrwt>
<rscale>  2 0.46955445E+03</rscale>
<asrwt>0</asrwt>
<pdfrwt beam="1">  1       21 0.25309398E+00 0.46955445E+03</pdfrwt>
<pdfrwt beam="2">  1       21 0.22267200E-01 0.46955445E+03</pdfrwt>
<totfact> 0.97756629E+02</totfact>
</mgrwt>
</event>
<event>
 4    1  0.4758708E-002  0.4743116E+03  0.7818608E-02  0.1020710E+00
         21   -1    0    0  501  502  0.00000000000E+00  0.00000000000E+00  0.15790458908E+03  0.15790458908E+03  0.00000000000E+00 0.  1.
         21   -1    0    0  502  503 -0.00000000000E+00 -0.00000000000E+00 -0.14807340474E+04  0.14807340474E+04  0.00000000000E+00 0.  1.
    9000007    1    1    2  501    0 -0.24768159944E+03 -0.60210899870E+02 -0.50207599004E+03  0.69068938528E+03  0.40000000000E+03 0.  1.
   -9000007    1    1    2    0  503  0.24768159944E+03  0.60210899870E+02 -0.82075346832E+03  0.94794925123E+03  0.40000000000E+03 0.  1.
<mgrwt>
<rscale>  2 0.47431164E+03</rscale>
<asrwt>0</asrwt>
<pdfrwt beam="1">  1       21 0.24293013E-01 0.47431164E+03</pdfrwt>
<pdfrwt beam="2">  1       21 0.22780524E+00 0.47431164E+03</pdfrwt>
<totfact> 0.11842964E+03</totfact>
</mgrwt>
</event>
<event>
 4    1  0.4758708E-002  0.4940948E+03  0.7818608E-02  0.1015332E+00
         21   -1    0    0  501  502  0.00000000000E+00  0.00000000000E+00  0.47755940630E+03  0.47755940630E+03  0.00000000000E+00 0. -1.
         21   -1    0    0  502  503 -0.00000000000E+00 -0.00000000000E+00 -0.81747342502E+03  0.81747342502E+03  0.00000000000E+00 0. -1.
    9000007    1    1    2  501    0  0.28596338989E+03  0.48523837310E+02  0.22638194231E+03  0.54348726475E+03  0.40000000000E+03 0. -1.
   -9000007    1    1    2    0  503 -0.28596338989E+03 -0.48523837310E+02 -0.56629596103E+03  0.75154556657E+03  0.40000000000E+03 0. -1.
<mgrwt>
<rscale>  2 0.49409475E+03</rscale>
<asrwt>0</asrwt>
<pdfrwt beam="1">  1       21 0.73470678E-01 0.49409475E+03</pdfrwt>
<pdfrwt beam="2">  1       21 0.12576514E+00 0.49409475E+03</pdfrwt>
<totfact> 0.64532770E+02</totfact>
</mgrwt>
</event>
<event>
 4    1  0.4758708E-002  0.4096474E+03  0.7818608E-02  0.1040489E+00
         21   -1    0    0  503  502  0.00000000000E+00  0.00000000000E+00  0.50654467074E+03  0.50654467074E+03  0.00000000000E+00 0. -1.
         21   -1    0    0  501  503 -0.00000000000E+00 -0.00000000000E+00 -0.36348146000E+03  0.36348146000E+03  0.00000000000E+00 0.  1.
    9000007    1    1    2  501    0 -0.70550913282E+02 -0.53231130202E+02 -0.57935903752E+02  0.41372400647E+03  0.40000000000E+03 0.  1.
   -9000007    1    1    2    0  502  0.70550913282E+02  0.53231130202E+02  0.20099911449E+03  0.45630212427E+03  0.40000000000E+03 0. -1.
<mgrwt>
<rscale>  2 0.40964739E+03</rscale>
<asrwt>0</asrwt>
<pdfrwt beam="1">  1       21 0.77929949E-01 0.40964739E+03</pdfrwt>
<pdfrwt beam="2">  1       21 0.55920225E-01 0.40964739E+03</pdfrwt>
<totfact> 0.39013464E+03</totfact>
</mgrwt>
</event>
<event>
 4    1  0.4758708E-002  0.4768637E+03  0.7818608E-02  0.1020001E+00
         21   -1    0    0  503  502  0.00000000000E+00  0.00000000000E+00  0.22655998952E+04  0.22655998952E+04  0.00000000000E+00 0.  1.
         21   -1    0    0  501  503 -0.00000000000E+00 -0.00000000000E+00 -0.11156364657E+03  0.11156364657E+03  0.00000000000E+00 0.  1.
    9000007    1    1    2  501    0 -0.36684939342E+02  0.25700810670E+03  0.70053319164E+03  0.84743477878E+03  0.40000000000E+03 0.  1.
   -9000007    1    1    2    0  502  0.36684939342E+02 -0.25700810670E+03  0.14535030570E+04  0.15297287630E+04  0.40000000000E+03 0.  1.
<mgrwt>
<rscale>  2 0.47686366E+03</rscale>
<asrwt>0</asrwt>
<pdfrwt beam="1">  1       21 0.34855380E+00 0.47686366E+03</pdfrwt>
<pdfrwt beam="2">  1       21 0.17163640E-01 0.47686366E+03</pdfrwt>
<totfact> 0.42119916E+02</totfact>
</mgrwt>
</event>
<event>
 4    1  0.4758708E-002  0.6010276E+03  0.7818608E-02  0.9903276E-01
         21   -1    0    0  503  502  0.00000000000E+00  0.00000000000E+00  0.73253626174E+03  0.73253626174E+03  0.00000000000E+00 0. -1.
         21   -1    0    0  501  503 -0.00000000000E+00 -0.00000000000E+00 -0.59157519966E+03  0.59157519966E+03  0.00000000000E+00 0. -1.
    9000007    1    1    2  501    0  0.44324325412E+03  0.69062043101E+02 -0.19959872822E+03  0.63330387684E+03  0.40000000000E+03 0. -1.
   -9000007    1    1    2    0  502 -0.44324325412E+03 -0.69062043101E+02  0.34055979029E+03  0.69080758456E+03  0.40000000000E+03 0. -1.
<mgrwt>
<rscale>  2 0.60102758E+03</rscale>
<asrwt>0</asrwt>
<pdfrwt beam="1">  1       21 0.11269789E+00 0.60102758E+03</pdfrwt>
<pdfrwt beam="2">  1       21 0.91011569E-01 0.60102758E+03</pdfrwt>
<totfact> 0.49825624E+02</totfact>
</mgrwt>
</event>
<event>
 4    1  0.4758708E-002  0.4777207E+03  0.7818608E-02  0.1019763E+00
         21   -1    0    0  503  502  0.00000000000E+00  0.00000000000E+00  0.25441214817E+03  0.25441214817E+03  0.00000000000E+00 0. -1.
         21   -1    0    0  501  503 -0.00000000000E+00 -0.00000000000E+00 -0.12460171735E+04  0.12460171735E+04  0.00000000000E+00 0.  1.
    9000007    1    1    2  501    0 -0.24003243396E+03 -0.10296340645E+03 -0.89283322245E+03  0.10126046591E+04  0.40000000000E+03 0.  1.
   -9000007    1    1    2    0  502  0.24003243396E+03  0.10296340645E+03 -0.98771802875E+02  0.48782466262E+03  0.40000000000E+03 0. -1.
<mgrwt>
<rscale>  2 0.47772066E+03</rscale>
<asrwt>0</asrwt>
<pdfrwt beam="1">  1       21 0.39140331E-01 0.47772066E+03</pdfrwt>
<pdfrwt beam="2">  1       21 0.19169495E+00 0.47772066E+03</pdfrwt>
<totfact> 0.78680446E+02</totfact>
</mgrwt>
</event>
<event>
 4    1  0.4758708E-002  0.4814937E+03  0.7818608E-02  0.1018725E+00
         21   -1    0    0  501  502  0.00000000000E+00  0.00000000000E+00  0.47633191057E+03  0.47633191057E+03  0.00000000000E+00 0. -1.
         21   -1    0    0  502  503 -0.00000000000E+00 -0.00000000000E+00 -0.63310032663E+03  0.63310032663E+03  0.00000000000E+00 0. -1.
    9000007    1    1    2  501    0 -0.21078892524E+03  0.16554227638E+03  0.18835600220E+03  0.51702437064E+03  0.40000000000E+03 0. -1.
   -9000007    1    1    2    0  503  0.21078892524E+03 -0.16554227638E+03 -0.34512441826E+03  0.59240786656E+03  0.40000000000E+03 0. -1.
<mgrwt>
<rscale>  2 0.48149373E+03</rscale>
<asrwt>0</asrwt>
<pdfrwt beam="1">  1       21 0.73281833E-01 0.48149373E+03</pdfrwt>
<pdfrwt beam="2">  1       21 0.97400050E-01 0.48149373E+03</pdfrwt>
<totfact> 0.12343565E+03</totfact>
</mgrwt>
</event>
<event>
 4    1  0.4758708E-002  0.7260120E+03  0.7818608E-02  0.9673754E-01
         21   -1    0    0  501  502  0.00000000000E+00  0.00000000000E+00  0.47738043050E+03  0.47738043050E+03  0.00000000000E+00 0.  1.
         21   -1    0    0  502  503 -0.00000000000E+00 -0.00000000000E+00 -0.17564348371E+04  0.17564348371E+04  0.00000000000E+00 0.  1.
    9000007    1    1    2  501    0 -0.60328007608E+03  0.56093703769E+02  0.41123405078E+02  0.72717569283E+03  0.40000000000E+03 0.  1.
   -9000007    1    1    2    0  503  0.60328007608E+03 -0.56093703769E+02 -0.13201778116E+04  0.15066395747E+04  0.40000000000E+03 0.  1.
<mgrwt>
<rscale>  2 0.72601195E+03</rscale>
<asrwt>0</asrwt>
<pdfrwt beam="1">  1       21 0.73443143E-01 0.72601195E+03</pdfrwt>
<pdfrwt beam="2">  1       21 0.27022075E+00 0.72601195E+03</pdfrwt>
<totfact> 0.57005214E+01</totfact>
</mgrwt>
</event>
<event>
 4    1  0.4758708E-002  0.8033080E+03  0.7818608E-02  0.9555241E-01
         21   -1    0    0  503  502  0.00000000000E+00  0.00000000000E+00  0.17286664188E+04  0.17286664188E+04  0.00000000000E+00 0.  1.
         21   -1    0    0  501  503 -0.00000000000E+00 -0.00000000000E+00 -0.62943548767E+03  0.62943548767E+03  0.00000000000E+00 0. -1.
    9000007    1    1    2  501    0  0.67486395138E+03  0.17280733633E+03 -0.20251899988E+03  0.82844292119E+03  0.40000000000E+03 0. -1.
   -9000007    1    1    2    0  502 -0.67486395138E+03 -0.17280733633E+03  0.13017499310E+04  0.15296589853E+04  0.40000000000E+03 0.  1.
<mgrwt>
<rscale>  2 0.80330799E+03</rscale>
<asrwt>0</asrwt>
<pdfrwt beam="1">  1       21 0.26594868E+00 0.80330799E+03</pdfrwt>
<pdfrwt beam="2">  1       21 0.96836230E-01 0.80330799E+03</pdfrwt>
<totfact> 0.30616567E+01</totfact>
</mgrwt>
</event>
<event>
 4    1  0.4758708E-002  0.4044626E+03  0.7818608E-02  0.1042245E+00
         21   -1    0    0  501  502  0.00000000000E+00  0.00000000000E+00  0.39285372657E+03  0.39285372657E+03  0.00000000000E+00 0.  1.
         21   -1    0    0  502  503 -0.00000000000E+00 -0.00000000000E+00 -0.78206630448E+03  0.78206630448E+03  0.00000000000E+00 0.  1.
    9000007    1    1    2  501    0 -0.39016579309E+02 -0.45472021344E+02  0.20708311005E+03  0.45439345578E+03  0.40000000000E+03 0.  1.
   -9000007    1    1    2    0  503  0.39016579309E+02  0.45472021344E+02 -0.59629568796E+03  0.72052657527E+03  0.40000000000E+03 0.  1.
<mgrwt>
<rscale>  2 0.40446260E+03</rscale>
<asrwt>0</asrwt>
<pdfrwt beam="1">  1       21 0.60439035E-01 0.40446260E+03</pdfrwt>
<pdfrwt beam="2">  1       21 0.12031789E+00 0.40446260E+03</pdfrwt>
<totfact> 0.11615012E+03</totfact>
</mgrwt>
</event>
<event>
 4    1  0.4758708E-002  0.4125774E+03  0.7818608E-02  0.1039510E+00
         21   -1    0    0  503  502  0.00000000000E+00  0.00000000000E+00  0.23558546826E+03  0.23558546826E+03  0.00000000000E+00 0. -1.
         21   -1    0    0  501  503 -0.00000000000E+00 -0.00000000000E+00 -0.10105431139E+04  0.10105431139E+04  0.00000000000E+00 0. -1.
    9000007    1    1    2  501    0  0.10109314712E+03  0.50919129628E+00 -0.72010277516E+03  0.82992053262E+03  0.40000000000E+03 0. -1.
   -9000007    1    1    2    0  502 -0.10109314712E+03 -0.50919129628E+00 -0.54854870465E+02  0.41620804952E+03  0.40000000000E+03 0. -1.
<mgrwt>
<rscale>  2 0.41257737E+03</rscale>
<asrwt>0</asrwt>
<pdfrwt beam="1">  1       21 0.36243919E-01 0.41257737E+03</pdfrwt>
<pdfrwt beam="2">  1       21 0.15546817E+00 0.41257737E+03</pdfrwt>
<totfact> 0.17287361E+03</totfact>
</mgrwt>
</event>
<event>
 4    1  0.4758708E-002  0.4316162E+03  0.7818608E-02  0.1033351E+00
         21   -1    0    0  503  502  0.00000000000E+00  0.00000000000E+00  0.24162062342E+04  0.24162062342E+04  0.00000000000E+00 0. -1.
         21   -1    0    0  501  503 -0.00000000000E+00 -0.00000000000E+00 -0.80070814495E+02  0.80070814495E+02  0.00000000000E+00 0.  1.
    9000007    1    1    2  501    0 -0.15880958450E+03  0.32742270324E+02  0.92770258425E+03  0.10231933469E+04  0.40000000000E+03 0.  1.
   -9000007    1    1    2    0  502  0.15880958450E+03 -0.32742270324E+02  0.14084328355E+04  0.14730837018E+04  0.40000000000E+03 0.  1.
<mgrwt>
<rscale>  2 0.43161620E+03</rscale>
<asrwt>0</asrwt>
<pdfrwt beam="1">  1       21 0.37172398E+00 0.43161620E+03</pdfrwt>
<pdfrwt beam="2">  1       21 0.12318589E-01 0.43161620E+03</pdfrwt>
<totfact> 0.57506704E+02</totfact>
</mgrwt>
</event>
<event>
 4    1  0.4758708E-002  0.5816848E+03  0.7818608E-02  0.9944150E-01
         21   -1    0    0  501  502  0.00000000000E+00  0.00000000000E+00  0.68709581075E+03  0.68709581075E+03  0.00000000000E+00 0. -1.
         21   -1    0    0  502  503 -0.00000000000E+00 -0.00000000000E+00 -0.72062950772E+03  0.72062950772E+03  0.00000000000E+00 0.  1.
    9000007    1    1    2  501    0  0.28554978009E+03 -0.31115669512E+03  0.37930557887E+03  0.69442774137E+03  0.40000000000E+03 0. -1.
   -9000007    1    1    2    0  503 -0.28554978009E+03  0.31115669512E+03 -0.41283927583E+03  0.71329757710E+03  0.40000000000E+03 0.  1.
<mgrwt>
<rscale>  2 0.58168476E+03</rscale>
<asrwt>0</asrwt>
<pdfrwt beam="1">  1       21 0.10570705E+00 0.58168476E+03</pdfrwt>
<pdfrwt beam="2">  1       21 0.11086608E+00 0.58168476E+03</pdfrwt>
<totfact> 0.36295998E+02</totfact>
</mgrwt>
</event>
<event>
 4    1  0.4758708E-002  0.5179501E+03  0.7818608E-02  0.1009197E+00
         21   -1    0    0  501  502  0.00000000000E+00  0.00000000000E+00  0.22225825871E+03  0.22225825871E+03  0.00000000000E+00 0.  1.
         21   -1    0    0  502  503 -0.00000000000E+00 -0.00000000000E+00 -0.12222824033E+04  0.12222824033E+04  0.00000000000E+00 0. -1.
    9000007    1    1    2  501    0  0.11550748500E+03  0.30810772084E+03 -0.41932840095E+03  0.66641477668E+03  0.40000000000E+03 0.  1.
   -9000007    1    1    2    0  503 -0.11550748500E+03 -0.30810772084E+03 -0.58069574360E+03  0.77812588530E+03  0.40000000000E+03 0. -1.
<mgrwt>
<rscale>  2 0.51795014E+03</rscale>
<asrwt>0</asrwt>
<pdfrwt beam="1">  1       21 0.34193579E-01 0.51795014E+03</pdfrwt>
<pdfrwt beam="2">  1       21 0.18804344E+00 0.51795014E+03</pdfrwt>
<totfact> 0.10801135E+03</totfact>
</mgrwt>
</event>
<event>
 4    1  0.4758708E-002  0.4663601E+03  0.7818608E-02  0.1022953E+00
         21   -1    0    0  501  502  0.00000000000E+00  0.00000000000E+00  0.23167090165E+03  0.23167090165E+03  0.00000000000E+00 0. -1.
         21   -1    0    0  502  503 -0.00000000000E+00 -0.00000000000E+00 -0.12146242124E+04  0.12146242124E+04  0.00000000000E+00 0.  1.
    9000007    1    1    2  501    0  0.23402693009E+03 -0.52184088191E+02 -0.14686888167E+03  0.48893992624E+03  0.40000000000E+03 0. -1.
   -9000007    1    1    2    0  503 -0.23402693009E+03  0.52184088191E+02 -0.83608442905E+03  0.95735518778E+03  0.40000000000E+03 0.  1.
<mgrwt>
<rscale>  2 0.46636014E+03</rscale>
<asrwt>0</asrwt>
<pdfrwt beam="1">  1       21 0.35641677E-01 0.46636014E+03</pdfrwt>
<pdfrwt beam="2">  1       21 0.18686526E+00 0.46636014E+03</pdfrwt>
<totfact> 0.10333182E+03</totfact>
</mgrwt>
</event>
<event>
 4    1  0.4758708E-002  0.4152015E+03  0.7818608E-02  0.1038639E+00
         21   -1    0    0  503  502  0.00000000000E+00  0.00000000000E+00  0.42095778435E+03  0.42095778435E+03  0.00000000000E+00 0. -1.
         21   -1    0    0  501  503 -0.00000000000E+00 -0.00000000000E+00 -0.62184428798E+03  0.62184428798E+03  0.00000000000E+00 0. -1.
    9000007    1    1    2  501    0 -0.13638587233E+02 -0.11048193904E+03 -0.40511130935E+03  0.58009261578E+03  0.40000000000E+03 0. -1.
   -9000007    1    1    2    0  502  0.13638587233E+02  0.11048193904E+03  0.20422480571E+03  0.46270945655E+03  0.40000000000E+03 0. -1.
<mgrwt>
<rscale>  2 0.41520148E+03</rscale>
<asrwt>0</asrwt>
<pdfrwt beam="1">  1       21 0.64762736E-01 0.41520148E+03</pdfrwt>
<pdfrwt beam="2">  1       21 0.95668352E-01 0.41520148E+03</pdfrwt>
<totfact> 0.17460326E+03</totfact>
</mgrwt>
</event>
<event>
 4    1  0.4758708E-002  0.4629950E+03  0.7818608E-02  0.1023916E+00
         21   -1    0    0  501  502  0.00000000000E+00  0.00000000000E+00  0.85406466102E+03  0.85406466102E+03  0.00000000000E+00 0. -1.
         21   -1    0    0  502  503 -0.00000000000E+00 -0.00000000000E+00 -0.63723848779E+03  0.63723848779E+03  0.00000000000E+00 0.  1.
    9000007    1    1    2  501    0 -0.15159327555E+03  0.17715482847E+03  0.68893227805E+03  0.83005544284E+03  0.40000000000E+03 0. -1.
   -9000007    1    1    2    0  503  0.15159327555E+03 -0.17715482847E+03 -0.47210610482E+03  0.66124770597E+03  0.40000000000E+03 0.  1.
<mgrwt>
<rscale>  2 0.46299498E+03</rscale>
<asrwt>0</asrwt>
<pdfrwt beam="1">  1       21 0.13139456E+00 0.46299498E+03</pdfrwt>
<pdfrwt beam="2">  1       21 0.98036690E-01 0.46299498E+03</pdfrwt>
<totfact> 0.29701530E+02</totfact>
</mgrwt>
</event>
<event>
 4    1  0.4758708E-002  0.4523197E+03  0.7818608E-02  0.1027033E+00
         21   -1    0    0  503  502  0.00000000000E+00  0.00000000000E+00  0.11324763385E+03  0.11324763385E+03  0.00000000000E+00 0. -1.
         21   -1    0    0  501  503 -0.00000000000E+00 -0.00000000000E+00 -0.31121290028E+04  0.31121290028E+04  0.00000000000E+00 0. -1.
    9000007    1    1    2  501    0 -0.20706747355E+03  0.41426214821E+02 -0.25439565996E+04  0.25838553076E+04  0.40000000000E+03 0. -1.
   -9000007    1    1    2    0  502  0.20706747355E+03 -0.41426214821E+02 -0.45492476931E+03  0.64152132904E+03  0.40000000000E+03 0. -1.
<mgrwt>
<rscale>  2 0.45231965E+03</rscale>
<asrwt>0</asrwt>
<pdfrwt beam="1">  1       21 0.17422712E-01 0.45231965E+03</pdfrwt>
<pdfrwt beam="2">  1       21 0.47878909E+00 0.45231965E+03</pdfrwt>
<totfact> 0.58740372E+01</totfact>
</mgrwt>
</event>
<event>
 4    1  0.4758708E-002  0.4035540E+03  0.7818608E-02  0.1042556E+00
         21   -1    0    0  503  502  0.00000000000E+00  0.00000000000E+00  0.18420419070E+04  0.18420419070E+04  0.00000000000E+00 0.  1.
         21   -1    0    0  501  503 -0.00000000000E+00 -0.00000000000E+00 -0.99321529463E+02  0.99321529463E+02  0.00000000000E+00 0.  1.
    9000007    1    1    2  501    0  0.40690191368E+02  0.34642889596E+02  0.54963261762E+03  0.68187376825E+03  0.40000000000E+03 0.  1.
   -9000007    1    1    2    0  502 -0.40690191368E+02 -0.34642889596E+02  0.11930877599E+04  0.12594896682E+04  0.40000000000E+03 0.  1.
<mgrwt>
<rscale>  2 0.40355399E+03</rscale>
<asrwt>0</asrwt>
<pdfrwt beam="1">  1       21 0.28339104E+00 0.40355399E+03</pdfrwt>
<pdfrwt beam="2">  1       21 0.15280237E-01 0.40355399E+03</pdfrwt>
<totfact> 0.13504758E+03</totfact>
</mgrwt>
</event>
<event>
 4    1  0.4758708E-002  0.5071777E+03  0.7818608E-02  0.1011922E+00
         21   -1    0    0  501  502  0.00000000000E+00  0.00000000000E+00  0.47367812982E+03  0.47367812982E+03  0.00000000000E+00 0.  1.
         21   -1    0    0  502  503 -0.00000000000E+00 -0.00000000000E+00 -0.10559383609E+04  0.10559383609E+04  0.00000000000E+00 0. -1.
    9000007    1    1    2  501    0 -0.30012730045E+03 -0.84574244099E+02  0.24189322545E+03  0.56190882869E+03  0.40000000000E+03 0. -1.
   -9000007    1    1    2    0  503  0.30012730045E+03  0.84574244099E+02 -0.82415345653E+03  0.96770766203E+03  0.40000000000E+03 0. -1.
<mgrwt>
<rscale>  2 0.50717768E+03</rscale>
<asrwt>0</asrwt>
<pdfrwt beam="1">  1       21 0.72873560E-01 0.50717768E+03</pdfrwt>
<pdfrwt beam="2">  1       21 0.16245205E+00 0.50717768E+03</pdfrwt>
<totfact> 0.32868493E+02</totfact>
</mgrwt>
</event>
<event>
 4    1  0.4758708E-002  0.4723158E+03  0.7818608E-02  0.1021269E+00
         21   -1    0    0  501  502  0.00000000000E+00  0.00000000000E+00  0.15090130781E+03  0.15090130781E+03  0.00000000000E+00 0.  1.
         21   -1    0    0  502  503 -0.00000000000E+00 -0.00000000000E+00 -0.20944030033E+04  0.20944030033E+04  0.00000000000E+00 0. -1.
    9000007    1    1    2  501    0 -0.21644134470E+02 -0.25022733217E+03 -0.36287243072E+03  0.59561614090E+03  0.40000000000E+03 0.  1.
   -9000007    1    1    2    0  503  0.21644134470E+02  0.25022733217E+03 -0.15806292648E+04  0.16496881702E+04  0.40000000000E+03 0. -1.
<mgrwt>
<rscale>  2 0.47231577E+03</rscale>
<asrwt>0</asrwt>
<pdfrwt beam="1">  1       21 0.23215587E-01 0.47231577E+03</pdfrwt>
<pdfrwt beam="2">  1       21 0.32221583E+00 0.47231577E+03</pdfrwt>
<totfact> 0.34377448E+02</totfact>
</mgrwt>
</event>
<event>
 4    1  0.4758708E-002  0.4025240E+03  0.7818608E-02  0.1042909E+00
         21   -1    0    0  503  502  0.00000000000E+00  0.00000000000E+00  0.27687667835E+03  0.27687667835E+03  0.00000000000E+00 0.  1.
         21   -1    0    0  501  503 -0.00000000000E+00 -0.00000000000E+00 -0.59369049028E+03  0.59369049028E+03  0.00000000000E+00 0.  1.
    9000007    1    1    2  501    0  0.48351043982E+01  0.44746126934E+02 -0.10632316493E+03  0.41632944829E+03  0.40000000000E+03 0.  1.
   -9000007    1    1    2    0  502 -0.48351043982E+01 -0.44746126934E+02 -0.21049064700E+03  0.45423772035E+03  0.40000000000E+03 0.  1.
<mgrwt>
<rscale>  2 0.40252403E+03</rscale>
<asrwt>0</asrwt>
<pdfrwt beam="1">  1       21 0.42596412E-01 0.40252403E+03</pdfrwt>
<pdfrwt beam="2">  1       21 0.91336998E-01 0.40252403E+03</pdfrwt>
<totfact> 0.48058153E+03</totfact>
</mgrwt>
</event>
<event>
 4    1  0.4758708E-002  0.5298087E+03  0.7818608E-02  0.1006279E+00
         21   -1    0    0  501  502  0.00000000000E+00  0.00000000000E+00  0.74021802997E+03  0.74021802997E+03  0.00000000000E+00 0. -1.
         21   -1    0    0  502  503 -0.00000000000E+00 -0.00000000000E+00 -0.41250348676E+03  0.41250348676E+03  0.00000000000E+00 0.  1.
    9000007    1    1    2  501    0  0.30050134885E+03  0.17434496880E+03  0.11239332360E+00  0.52980868381E+03  0.40000000000E+03 0.  1.
   -9000007    1    1    2    0  503 -0.30050134885E+03 -0.17434496880E+03  0.32760214988E+03  0.62291283292E+03  0.40000000000E+03 0. -1.
<mgrwt>
<rscale>  2 0.52980867E+03</rscale>
<asrwt>0</asrwt>
<pdfrwt beam="1">  1       21 0.11387970E+00 0.52980867E+03</pdfrwt>
<pdfrwt beam="2">  1       21 0.63462075E-01 0.52980867E+03</pdfrwt>
<totfact> 0.11400191E+03</totfact>
</mgrwt>
</event>
<event>
 4    1  0.4758708E-002  0.4189042E+03  0.7818608E-02  0.1037424E+00
         21   -1    0    0  501  502  0.00000000000E+00  0.00000000000E+00  0.11176485961E+04  0.11176485961E+04  0.00000000000E+00 0.  1.
         21   -1    0    0  502  503 -0.00000000000E+00 -0.00000000000E+00 -0.44000349500E+03  0.44000349500E+03  0.00000000000E+00 0.  1.
    9000007    1    1    2  501    0  0.12280473162E+03  0.19993578468E+02  0.96342185415E+03  0.10505533848E+04  0.40000000000E+03 0.  1.
   -9000007    1    1    2    0  503 -0.12280473162E+03 -0.19993578468E+02 -0.28577675308E+03  0.50709870626E+03  0.40000000000E+03 0.  1.
<mgrwt>
<rscale>  2 0.41890422E+03</rscale>
<asrwt>0</asrwt>
<pdfrwt beam="1">  1       21 0.17194594E+00 0.41890422E+03</pdfrwt>
<pdfrwt beam="2">  1       21 0.67692846E-01 0.41890422E+03</pdfrwt>
<totfact> 0.34474627E+02</totfact>
</mgrwt>
</event>
<event>
 4    1  0.4758708E-002  0.4313556E+03  0.7818608E-02  0.1033433E+00
         21   -1    0    0  501  502  0.00000000000E+00  0.00000000000E+00  0.91100309846E+03  0.91100309846E+03  0.00000000000E+00 0.  1.
         21   -1    0    0  502  503 -0.00000000000E+00 -0.00000000000E+00 -0.32605378004E+03  0.32605378004E+03  0.00000000000E+00 0.  1.
    9000007    1    1    2  501    0  0.74896458243E+02  0.14303200909E+03  0.67052943361E+03  0.79729377046E+03  0.40000000000E+03 0.  1.
   -9000007    1    1    2    0  503 -0.74896458243E+02 -0.14303200909E+03 -0.85580115186E+02  0.43976310804E+03  0.40000000000E+03 0.  1.
<mgrwt>
<rscale>  2 0.43135558E+03</rscale>
<asrwt>0</asrwt>
<pdfrwt beam="1">  1       21 0.14015432E+00 0.43135558E+03</pdfrwt>
<pdfrwt beam="2">  1       21 0.50162120E-01 0.43135558E+03</pdfrwt>
<totfact> 0.11550102E+03</totfact>
</mgrwt>
</event>
<event>
 4    1  0.4758708E-002  0.4076680E+03  0.7818608E-02  0.1041156E+00
         21   -1    0    0  501  502  0.00000000000E+00  0.00000000000E+00  0.16160771809E+04  0.16160771809E+04  0.00000000000E+00 0. -1.
         21   -1    0    0  502  503 -0.00000000000E+00 -0.00000000000E+00 -0.12909325343E+03  0.12909325343E+03  0.00000000000E+00 0. -1.
    9000007    1    1    2  501    0  0.51969625640E+02  0.59096269912E+02  0.11370139172E+04  0.12078881815E+04  0.40000000000E+03 0. -1.
   -9000007    1    1    2    0  503 -0.51969625640E+02 -0.59096269912E+02  0.34997001027E+03  0.53728225282E+03  0.40000000000E+03 0. -1.
<mgrwt>
<rscale>  2 0.40766802E+03</rscale>
<asrwt>0</asrwt>
<pdfrwt beam="1">  1       21 0.24862724E+00 0.40766802E+03</pdfrwt>
<pdfrwt beam="2">  1       21 0.19860502E-01 0.40766802E+03</pdfrwt>
<totfact> 0.13368081E+03</totfact>
</mgrwt>
</event>
<event>
 4    1  0.4758708E-002  0.4823227E+03  0.7818608E-02  0.1018499E+00
         21   -1    0    0  501  502  0.00000000000E+00  0.00000000000E+00  0.71914894724E+03  0.71914894724E+03  0.00000000000E+00 0. -1.
         21   -1    0    0  502  503 -0.00000000000E+00 -0.00000000000E+00 -0.42607521392E+03  0.42607521392E+03  0.00000000000E+00 0.  1.
    9000007    1    1    2  501    0  0.33455645886E+01 -0.26948837462E+03  0.42751115001E+03  0.64451606670E+03  0.40000000000E+03 0. -1.
   -9000007    1    1    2    0  503 -0.33455645886E+01  0.26948837462E+03 -0.13443741669E+03  0.50070809446E+03  0.40000000000E+03 0.  1.
<mgrwt>
<rscale>  2 0.48232269E+03</rscale>
<asrwt>0</asrwt>
<pdfrwt beam="1">  1       21 0.11063830E+00 0.48232269E+03</pdfrwt>
<pdfrwt beam="2">  1       21 0.65550033E-01 0.48232269E+03</pdfrwt>
<totfact> 0.11597156E+03</totfact>
</mgrwt>
</event>
<event>
 4    1  0.4758708E-002  0.4353806E+03  0.7818608E-02  0.1032174E+00
         21   -1    0    0  501  502  0.00000000000E+00  0.00000000000E+00  0.10065868757E+04  0.10065868757E+04  0.00000000000E+00 0. -1.
         21   -1    0    0  502  503 -0.00000000000E+00 -0.00000000000E+00 -0.24741208548E+03  0.24741208548E+03  0.00000000000E+00 0. -1.
    9000007    1    1    2  501    0  0.16335792186E+03  0.53576979404E+02  0.73153721731E+02  0.44148360146E+03  0.40000000000E+03 0. -1.
   -9000007    1    1    2    0  503 -0.16335792186E+03 -0.53576979404E+02  0.68602106847E+03  0.81251535969E+03  0.40000000000E+03 0. -1.
<mgrwt>
<rscale>  2 0.43538064E+03</rscale>
<asrwt>0</asrwt>
<pdfrwt beam="1">  1       21 0.15485952E+00 0.43538064E+03</pdfrwt>
<pdfrwt beam="2">  1       21 0.38063398E-01 0.43538064E+03</pdfrwt>
<totfact> 0.15660931E+03</totfact>
</mgrwt>
</event>
<event>
 4    1  0.4758708E-002  0.4222850E+03  0.7818608E-02  0.1036325E+00
         21   -1    0    0  501  502  0.00000000000E+00  0.00000000000E+00  0.74378486488E+02  0.74378486488E+02  0.00000000000E+00 0.  1.
         21   -1    0    0  502  503 -0.00000000000E+00 -0.00000000000E+00 -0.31209341581E+04  0.31209341581E+04  0.00000000000E+00 0.  1.
    9000007    1    1    2  501    0 -0.13394130477E+03 -0.19604857496E+02 -0.75409129370E+03  0.86427906534E+03  0.40000000000E+03 0.  1.
   -9000007    1    1    2    0  503  0.13394130477E+03  0.19604857496E+02 -0.22924643779E+04  0.23310335793E+04  0.40000000000E+03 0.  1.
<mgrwt>
<rscale>  2 0.42228500E+03</rscale>
<asrwt>0</asrwt>
<pdfrwt beam="1">  1       21 0.11442843E-01 0.42228500E+03</pdfrwt>
<pdfrwt beam="2">  1       21 0.48014375E+00 0.42228500E+03</pdfrwt>
<totfact> 0.12763168E+02</totfact>
</mgrwt>
</event>
<event>
 4    1  0.4758708E-002  0.5491085E+03  0.7818608E-02  0.1001700E+00
         21   -1    0    0  501  502  0.00000000000E+00  0.00000000000E+00  0.10595296422E+04  0.10595296422E+04  0.00000000000E+00 0. -1.
         21   -1    0    0  502  503 -0.00000000000E+00 -0.00000000000E+00 -0.43037954603E+03  0.43037954603E+03  0.00000000000E+00 0. -1.
    9000007    1    1    2  501    0  0.32614549409E+03  0.18748149205E+03  0.74816891909E+03  0.92805006582E+03  0.40000000000E+03 0. -1.
   -9000007    1    1    2    0  503 -0.32614549409E+03 -0.18748149205E+03 -0.11901882295E+03  0.56185912237E+03  0.40000000000E+03 0. -1.
<mgrwt>
<rscale>  2 0.54910854E+03</rscale>
<asrwt>0</asrwt>
<pdfrwt beam="1">  1       21 0.16300456E+00 0.54910854E+03</pdfrwt>
<pdfrwt beam="2">  1       21 0.66212238E-01 0.54910854E+03</pdfrwt>
<totfact> 0.39737075E+02</totfact>
</mgrwt>
</event>
<event>
 4    1  0.4758708E-002  0.4452355E+03  0.7818608E-02  0.1029152E+00
         21   -1    0    0  501  502  0.00000000000E+00  0.00000000000E+00  0.41063473103E+03  0.41063473103E+03  0.00000000000E+00 0.  1.
         21   -1    0    0  502  503 -0.00000000000E+00 -0.00000000000E+00 -0.10326800556E+04  0.10326800556E+04  0.00000000000E+00 0. -1.
    9000007    1    1    2  501    0 -0.19537296990E+03 -0.80008645166E+01  0.21560204467E+03  0.49469066381E+03  0.40000000000E+03 0.  1.
   -9000007    1    1    2    0  503  0.19537296990E+03  0.80008645166E+01 -0.83764736922E+03  0.94862412280E+03  0.40000000000E+03 0. -1.
<mgrwt>
<rscale>  2 0.44523546E+03</rscale>
<asrwt>0</asrwt>
<pdfrwt beam="1">  1       21 0.63174574E-01 0.44523546E+03</pdfrwt>
<pdfrwt beam="2">  1       21 0.15887385E+00 0.44523546E+03</pdfrwt>
<totfact> 0.49557346E+02</totfact>
</mgrwt>
</event>
<event>
 4    1  0.4758708E-002  0.4123072E+03  0.7818608E-02  0.1039600E+00
         21   -1    0    0  503  502  0.00000000000E+00  0.00000000000E+00  0.10458537303E+03  0.10458537303E+03  0.00000000000E+00 0. -1.
         21   -1    0    0  501  503 -0.00000000000E+00 -0.00000000000E+00 -0.19764161086E+04  0.19764161086E+04  0.00000000000E+00 0. -1.
    9000007    1    1    2  501    0 -0.64437344484E+02  0.76452703489E+02 -0.13743878493E+04  0.14349003964E+04  0.40000000000E+03 0. -1.
   -9000007    1    1    2    0  502  0.64437344484E+02 -0.76452703489E+02 -0.49744288620E+03  0.64610108518E+03  0.40000000000E+03 0. -1.
<mgrwt>
<rscale>  2 0.41230715E+03</rscale>
<asrwt>0</asrwt>
<pdfrwt beam="1">  1       21 0.16090058E-01 0.41230715E+03</pdfrwt>
<pdfrwt beam="2">  1       21 0.30406400E+00 0.41230715E+03</pdfrwt>
<totfact> 0.91782365E+02</totfact>
</mgrwt>
</event>
<event>
 4    1  0.4758708E-002  0.1074842E+04  0.7818608E-02  0.9230065E-01
         21   -1    0    0  503  502  0.00000000000E+00  0.00000000000E+00  0.75949383188E+03  0.75949383188E+03  0.00000000000E+00 0.  1.
         21   -1    0    0  501  503 -0.00000000000E+00 -0.00000000000E+00 -0.18511291493E+04  0.18511291493E+04  0.00000000000E+00 0. -1.
    9000007    1    1    2  501    0 -0.68900104546E+03 -0.72150099225E+03 -0.10969483248E+04  0.15357674790E+04  0.40000000000E+03 0. -1.
   -9000007    1    1    2    0  502  0.68900104546E+03  0.72150099225E+03  0.53130073398E+01  0.10748555021E+04  0.40000000000E+03 0.  1.
<mgrwt>
<rscale>  2 0.10748424E+04</rscale>
<asrwt>0</asrwt>
<pdfrwt beam="1">  1       21 0.11684521E+00 0.10748424E+04</pdfrwt>
<pdfrwt beam="2">  1       21 0.28478910E+00 0.10748424E+04</pdfrwt>
<totfact> 0.13384465E+01</totfact>
</mgrwt>
</event>
<event>
 4    1  0.4758708E-002  0.4054576E+03  0.7818608E-02  0.1041906E+00
         21   -1    0    0  503  502  0.00000000000E+00  0.00000000000E+00  0.11578428008E+04  0.11578428008E+04  0.00000000000E+00 0.  1.
         21   -1    0    0  501  503 -0.00000000000E+00 -0.00000000000E+00 -0.25538386932E+03  0.25538386932E+03  0.00000000000E+00 0.  1.
    9000007    1    1    2  501    0 -0.52552773689E+02  0.40423820142E+02 -0.19628771492E+02  0.40593246720E+03  0.40000000000E+03 0.  1.
   -9000007    1    1    2    0  502  0.52552773689E+02 -0.40423820142E+02  0.92208770295E+03  0.10072942029E+04  0.40000000000E+03 0.  1.
<mgrwt>
<rscale>  2 0.40545762E+03</rscale>
<asrwt>0</asrwt>
<pdfrwt beam="1">  1       21 0.17812966E+00 0.40545762E+03</pdfrwt>
<pdfrwt beam="2">  1       21 0.39289827E-01 0.40545762E+03</pdfrwt>
<totfact> 0.10026991E+03</totfact>
</mgrwt>
</event>
<event>
 4    1  0.4758708E-002  0.4746742E+03  0.7818608E-02  0.1020609E+00
         21   -1    0    0  503  502  0.00000000000E+00  0.00000000000E+00  0.23028139391E+03  0.23028139391E+03  0.00000000000E+00 0.  1.
         21   -1    0    0  501  503 -0.00000000000E+00 -0.00000000000E+00 -0.10052538907E+04  0.10052538907E+04  0.00000000000E+00 0.  1.
    9000007    1    1    2  501    0 -0.20726624582E+03  0.14952019107E+03 -0.28658411512E+03  0.55447816840E+03  0.40000000000E+03 0.  1.
   -9000007    1    1    2    0  502  0.20726624582E+03 -0.14952019107E+03 -0.48838838171E+03  0.68105711624E+03  0.40000000000E+03 0.  1.
<mgrwt>
<rscale>  2 0.47467419E+03</rscale>
<asrwt>0</asrwt>
<pdfrwt beam="1">  1       21 0.35427907E-01 0.47467419E+03</pdfrwt>
<pdfrwt beam="2">  1       21 0.15465444E+00 0.47467419E+03</pdfrwt>
<totfact> 0.17904713E+03</totfact>
</mgrwt>
</event>
<event>
 4    1  0.4758708E-002  0.4271870E+03  0.7818608E-02  0.1034752E+00
         21   -1    0    0  503  502  0.00000000000E+00  0.00000000000E+00  0.33375783563E+03  0.33375783563E+03  0.00000000000E+00 0.  1.
         21   -1    0    0  501  503 -0.00000000000E+00 -0.00000000000E+00 -0.17105502458E+04  0.17105502458E+04  0.00000000000E+00 0.  1.
    9000007    1    1    2  501    0  0.92069503411E+02  0.11837221107E+03 -0.15315055857E+04  0.15899679660E+04  0.40000000000E+03 0.  1.
   -9000007    1    1    2    0  502 -0.92069503411E+02 -0.11837221107E+03  0.15471317555E+03  0.45434011544E+03  0.40000000000E+03 0.  1.
<mgrwt>
<rscale>  2 0.42718705E+03</rscale>
<asrwt>0</asrwt>
<pdfrwt beam="1">  1       21 0.51347360E-01 0.42718705E+03</pdfrwt>
<pdfrwt beam="2">  1       21 0.26316157E+00 0.42718705E+03</pdfrwt>
<totfact> 0.16067669E+02</totfact>
</mgrwt>
</event>
<event>
 4    1  0.4758708E-002  0.4563856E+03  0.7818608E-02  0.1025835E+00
         21   -1    0    0  501  502  0.00000000000E+00  0.00000000000E+00  0.62793466663E+03  0.62793466663E+03  0.00000000000E+00 0. -1.
         21   -1    0    0  502  503 -0.00000000000E+00 -0.00000000000E+00 -0.34656817967E+03  0.34656817967E+03  0.00000000000E+00 0.  1.
    9000007    1    1    2  501    0  0.78577238096E+02  0.20521565394E+03  0.24159530035E+03  0.51638758324E+03  0.40000000000E+03 0. -1.
   -9000007    1    1    2    0  503 -0.78577238096E+02 -0.20521565394E+03  0.39771186601E+02  0.45811526307E+03  0.40000000000E+03 0.  1.
<mgrwt>
<rscale>  2 0.45638563E+03</rscale>
<asrwt>0</asrwt>
<pdfrwt beam="1">  1       21 0.96605333E-01 0.45638563E+03</pdfrwt>
<pdfrwt beam="2">  1       21 0.53318182E-01 0.45638563E+03</pdfrwt>
<totfact> 0.25661179E+03</totfact>
</mgrwt>
</event>
<event>
 4    1  0.4758708E-002  0.4629963E+03  0.7818608E-02  0.1023916E+00
         21   -1    0    0  503  502  0.00000000000E+00  0.00000000000E+00  0.41312972030E+03  0.41312972030E+03  0.00000000000E+00 0.  1.
         21   -1    0    0  501  503 -0.00000000000E+00 -0.00000000000E+00 -0.62043319885E+03  0.62043319885E+03  0.00000000000E+00 0. -1.
    9000007    1    1    2  501    0  0.22667860435E+03 -0.54610885855E+02  0.10542327202E+03  0.47484692776E+03  0.40000000000E+03 0.  1.
   -9000007    1    1    2    0  502 -0.22667860435E+03  0.54610885855E+02 -0.31272675056E+03  0.55871599139E+03  0.40000000000E+03 0. -1.
<mgrwt>
<rscale>  2 0.46299626E+03</rscale>
<asrwt>0</asrwt>
<pdfrwt beam="1">  1       21 0.63558419E-01 0.46299626E+03</pdfrwt>
<pdfrwt beam="2">  1       21 0.95451261E-01 0.46299626E+03</pdfrwt>
<totfact> 0.17961401E+03</totfact>
</mgrwt>
</event>
<event>
 4    1  0.4758708E-002  0.5119963E+03  0.7818608E-02  0.1010694E+00
         21   -1    0    0  503  502  0.00000000000E+00  0.00000000000E+00  0.13305647030E+04  0.13305647030E+04  0.00000000000E+00 0.  1.
         21   -1    0    0  501  503 -0.00000000000E+00 -0.00000000000E+00 -0.42566763845E+03  0.42566763845E+03  0.00000000000E+00 0. -1.
    9000007    1    1    2  501    0  0.19744085071E+03  0.25131126403E+03 -0.19113578753E+03  0.54650995438E+03  0.40000000000E+03 0.  1.
   -9000007    1    1    2    0  502 -0.19744085071E+03 -0.25131126403E+03  0.10960328521E+04  0.12097223871E+04  0.40000000000E+03 0.  1.
<mgrwt>
<rscale>  2 0.51199633E+03</rscale>
<asrwt>0</asrwt>
<pdfrwt beam="1">  1       21 0.20470226E+00 0.51199633E+03</pdfrwt>
<pdfrwt beam="2">  1       21 0.65487330E-01 0.51199633E+03</pdfrwt>
<totfact> 0.21062939E+02</totfact>
</mgrwt>
</event>
<event>
 4    1  0.4758708E-002  0.4150878E+03  0.7818608E-02  0.1038677E+00
         21   -1    0    0  503  502  0.00000000000E+00  0.00000000000E+00  0.17682553876E+03  0.17682553876E+03  0.00000000000E+00 0.  1.
         21   -1    0    0  501  503 -0.00000000000E+00 -0.00000000000E+00 -0.11712328879E+04  0.11712328879E+04  0.00000000000E+00 0.  1.
    9000007    1    1    2  501    0 -0.87057787919E+02  0.68693803041E+02 -0.77352320824E+03  0.87785878745E+03  0.40000000000E+03 0. -1.
   -9000007    1    1    2    0  502  0.87057787919E+02 -0.68693803041E+02 -0.22088414091E+03  0.47019963922E+03  0.40000000000E+03 0. -1.
<mgrwt>
<rscale>  2 0.41508782E+03</rscale>
<asrwt>0</asrwt>
<pdfrwt beam="1">  1       21 0.27203928E-01 0.41508782E+03</pdfrwt>
<pdfrwt beam="2">  1       21 0.18018968E+00 0.41508782E+03</pdfrwt>
<totfact> 0.20165105E+03</totfact>
</mgrwt>
</event>
<event>
 4    1  0.4758708E-002  0.4103676E+03  0.7818608E-02  0.1040248E+00
         21   -1    0    0  503  502  0.00000000000E+00  0.00000000000E+00  0.71241098738E+02  0.71241098738E+02  0.00000000000E+00 0. -1.
         21   -1    0    0  501  503 -0.00000000000E+00 -0.00000000000E+00 -0.28498270356E+04  0.28498270356E+04  0.00000000000E+00 0. -1.
    9000007    1    1    2  501    0 -0.83867112566E+02  0.36985214353E+02 -0.19924366804E+04  0.20342579787E+04  0.40000000000E+03 0. -1.
   -9000007    1    1    2    0  502  0.83867112566E+02 -0.36985214353E+02 -0.78614925651E+03  0.88681015565E+03  0.40000000000E+03 0. -1.
<mgrwt>
<rscale>  2 0.41036764E+03</rscale>
<asrwt>0</asrwt>
<pdfrwt beam="1">  1       21 0.10960168E-01 0.41036764E+03</pdfrwt>
<pdfrwt beam="2">  1       21 0.43843498E+00 0.41036764E+03</pdfrwt>
<totfact> 0.26814628E+02</totfact>
</mgrwt>
</event>
<event>
 4    1  0.4758708E-002  0.5339631E+03  0.7818608E-02  0.1005276E+00
         21   -1    0    0  503  502  0.00000000000E+00  0.00000000000E+00  0.81777828718E+03  0.81777828718E+03  0.00000000000E+00 0. -1.
         21   -1    0    0  501  503 -0.00000000000E+00 -0.00000000000E+00 -0.47303640416E+03  0.47303640416E+03  0.00000000000E+00 0.  1.
    9000007    1    1    2  501    0 -0.29240849886E+02  0.35250750070E+03 -0.15859019126E+03  0.55701652948E+03  0.40000000000E+03 0.  1.
   -9000007    1    1    2    0  502  0.29240849886E+02 -0.35250750070E+03  0.50333207428E+03  0.73379816186E+03  0.40000000000E+03 0. -1.
<mgrwt>
<rscale>  2 0.53396307E+03</rscale>
<asrwt>0</asrwt>
<pdfrwt beam="1">  1       21 0.12581204E+00 0.53396307E+03</pdfrwt>
<pdfrwt beam="2">  1       21 0.72774831E-01 0.53396307E+03</pdfrwt>
<totfact> 0.64896391E+02</totfact>
</mgrwt>
</event>
<event>
 4    1  0.4758708E-002  0.4577979E+03  0.7818608E-02  0.1025422E+00
         21   -1    0    0  501  502  0.00000000000E+00  0.00000000000E+00  0.22383277079E+03  0.22383277079E+03  0.00000000000E+00 0. -1.
         21   -1    0    0  502  503 -0.00000000000E+00 -0.00000000000E+00 -0.11877761014E+04  0.11877761014E+04  0.00000000000E+00 0. -1.
    9000007    1    1    2  501    0 -0.21840665360E+03  0.43329618258E+02 -0.80672144647E+03  0.92756585445E+03  0.40000000000E+03 0. -1.
   -9000007    1    1    2    0  503  0.21840665360E+03 -0.43329618258E+02 -0.15722188413E+03  0.48404301772E+03  0.40000000000E+03 0. -1.
<mgrwt>
<rscale>  2 0.45779791E+03</rscale>
<asrwt>0</asrwt>
<pdfrwt beam="1">  1       21 0.34435811E-01 0.45779791E+03</pdfrwt>
<pdfrwt beam="2">  1       21 0.18273478E+00 0.45779791E+03</pdfrwt>
<totfact> 0.11880384E+03</totfact>
</mgrwt>
</event>
<event>
 4    1  0.4758708E-002  0.4000327E+03  0.7818608E-02  0.1043768E+00
         21   -1    0    0  501  502  0.00000000000E+00  0.00000000000E+00  0.35480824264E+03  0.35480824264E+03  0.00000000000E+00 0. -1.
         21   -1    0    0  502  503 -0.00000000000E+00 -0.00000000000E+00 -0.51691912825E+03  0.51691912825E+03  0.00000000000E+00 0. -1.
    9000007    1    1    2  501    0  0.43826443760E+01 -0.26417882046E+01 -0.23667848400E+03  0.46480414306E+03  0.40000000000E+03 0. -1.
   -9000007    1    1    2    0  503 -0.43826443760E+01  0.26417882046E+01  0.74567598384E+02  0.40692322783E+03  0.40000000000E+03 0. -1.
<mgrwt>
<rscale>  2 0.40003273E+03</rscale>
<asrwt>0</asrwt>
<pdfrwt beam="1">  1       21 0.54585884E-01 0.40003273E+03</pdfrwt>
<pdfrwt beam="2">  1       21 0.79526020E-01 0.40003273E+03</pdfrwt>
<totfact> 0.39373774E+03</totfact>
</mgrwt>
</event>
<event>
 4    1  0.4758708E-002  0.6905193E+03  0.7818608E-02  0.9733584E-01
         21   -1    0    0  501  502  0.00000000000E+00  0.00000000000E+00  0.12697642316E+04  0.12697642316E+04  0.00000000000E+00 0. -1.
         21   -1    0    0  502  503 -0.00000000000E+00 -0.00000000000E+00 -0.44410954682E+03  0.44410954682E+03  0.00000000000E+00 0. -1.
    9000007    1    1    2  501    0 -0.45767633566E+03 -0.32764207045E+03  0.74960633364E+03  0.10191793807E+04  0.40000000000E+03 0. -1.
   -9000007    1    1    2    0  503  0.45767633566E+03  0.32764207045E+03  0.76048351134E+02  0.69469439775E+03  0.40000000000E+03 0. -1.
<mgrwt>
<rscale>  2 0.69051934E+03</rscale>
<asrwt>0</asrwt>
<pdfrwt beam="1">  1       21 0.19534834E+00 0.69051934E+03</pdfrwt>
<pdfrwt beam="2">  1       21 0.68324546E-01 0.69051934E+03</pdfrwt>
<totfact> 0.20645302E+02</totfact>
</mgrwt>
</event>
<event>
 4    1  0.4758708E-002  0.5451511E+03  0.7818608E-02  0.1002623E+00
         21   -1    0    0  501  502  0.00000000000E+00  0.00000000000E+00  0.51587896283E+03  0.51587896283E+03  0.00000000000E+00 0. -1.
         21   -1    0    0  502  503 -0.00000000000E+00 -0.00000000000E+00 -0.73172040707E+03  0.73172040707E+03  0.00000000000E+00 0. -1.
    9000007    1    1    2  501    0 -0.23621175252E+03 -0.28529592563E+03  0.17977127751E+03  0.57402741174E+03  0.40000000000E+03 0.  1.
   -9000007    1    1    2    0  503  0.23621175252E+03  0.28529592563E+03 -0.39561272174E+03  0.67357195816E+03  0.40000000000E+03 0.  1.
<mgrwt>
<rscale>  2 0.54515113E+03</rscale>
<asrwt>0</asrwt>
<pdfrwt beam="1">  1       21 0.79365994E-01 0.54515113E+03</pdfrwt>
<pdfrwt beam="2">  1       21 0.11257237E+00 0.54515113E+03</pdfrwt>
<totfact> 0.70297772E+02</totfact>
</mgrwt>
</event>
<event>
 4    1  0.4758708E-002  0.4521799E+03  0.7818608E-02  0.1027074E+00
         21   -1    0    0  501  502  0.00000000000E+00  0.00000000000E+00  0.48049118225E+03  0.48049118225E+03  0.00000000000E+00 0.  1.
         21   -1    0    0  502  503 -0.00000000000E+00 -0.00000000000E+00 -0.12072339829E+04  0.12072339829E+04  0.00000000000E+00 0.  1.
    9000007    1    1    2  501    0 -0.11396911284E+03  0.17741963031E+03  0.31566847103E+03  0.55146465662E+03  0.40000000000E+03 0.  1.
   -9000007    1    1    2    0  503  0.11396911284E+03 -0.17741963031E+03 -0.10424112716E+04  0.11362605085E+04  0.40000000000E+03 0.  1.
<mgrwt>
<rscale>  2 0.45217992E+03</rscale>
<asrwt>0</asrwt>
<pdfrwt beam="1">  1       21 0.73921721E-01 0.45217992E+03</pdfrwt>
<pdfrwt beam="2">  1       21 0.18572830E+00 0.45217992E+03</pdfrwt>
<totfact> 0.22197516E+02</totfact>
</mgrwt>
</event>
<event>
 4    1  0.4758708E-002  0.5625693E+03  0.7818608E-02  0.9986258E-01
         21   -1    0    0  503  502  0.00000000000E+00  0.00000000000E+00  0.94677659658E+03  0.94677659658E+03  0.00000000000E+00 0.  1.
         21   -1    0    0  501  503 -0.00000000000E+00 -0.00000000000E+00 -0.36413857117E+03  0.36413857117E+03  0.00000000000E+00 0. -1.
    9000007    1    1    2  501    0 -0.55374071766E+01 -0.39554215670E+03  0.47902502148E+03  0.73888377422E+03  0.40000000000E+03 0.  1.
   -9000007    1    1    2    0  502  0.55374071766E+01  0.39554215670E+03  0.10361300393E+03  0.57203139353E+03  0.40000000000E+03 0. -1.
<mgrwt>
<rscale>  2 0.56256934E+03</rscale>
<asrwt>0</asrwt>
<pdfrwt beam="1">  1       21 0.14565794E+00 0.56256934E+03</pdfrwt>
<pdfrwt beam="2">  1       21 0.56021319E-01 0.56256934E+03</pdfrwt>
<totfact> 0.78056677E+02</totfact>
</mgrwt>
</event>
<event>
 4    1  0.4758708E-002  0.4566974E+03  0.7818608E-02  0.1025743E+00
         21   -1    0    0  501  502  0.00000000000E+00  0.00000000000E+00  0.84420749853E+02  0.84420749853E+02  0.00000000000E+00 0. -1.
         21   -1    0    0  502  503 -0.00000000000E+00 -0.00000000000E+00 -0.25194104122E+04  0.25194104122E+04  0.00000000000E+00 0. -1.
    9000007    1    1    2  501    0  0.14924335498E+03  0.16216933430E+03 -0.13986514739E+04  0.14713253948E+04  0.40000000000E+03 0. -1.
   -9000007    1    1    2    0  503 -0.14924335498E+03 -0.16216933430E+03 -0.10363381885E+04  0.11325057673E+04  0.40000000000E+03 0. -1.
<mgrwt>
<rscale>  2 0.45669735E+03</rscale>
<asrwt>0</asrwt>
<pdfrwt beam="1">  1       21 0.12987808E-01 0.45669735E+03</pdfrwt>
<pdfrwt beam="2">  1       21 0.38760158E+00 0.45669735E+03</pdfrwt>
<totfact> 0.40833094E+02</totfact>
</mgrwt>
</event>
<event>
 4    1  0.4758708E-002  0.4676712E+03  0.7818608E-02  0.1022580E+00
         21   -1    0    0  503  502  0.00000000000E+00  0.00000000000E+00  0.86012369309E+02  0.86012369309E+02  0.00000000000E+00 0.  1.
         21   -1    0    0  501  503 -0.00000000000E+00 -0.00000000000E+00 -0.26364948972E+04  0.26364948972E+04  0.00000000000E+00 0.  1.
    9000007    1    1    2  501    0  0.91993447851E+02 -0.22417301385E+03 -0.10186903659E+04  0.11209131974E+04  0.40000000000E+03 0.  1.
   -9000007    1    1    2    0  502 -0.91993447851E+02  0.22417301385E+03 -0.15317921619E+04  0.16015940690E+04  0.40000000000E+03 0.  1.
<mgrwt>
<rscale>  2 0.46767118E+03</rscale>
<asrwt>0</asrwt>
<pdfrwt beam="1">  1       21 0.13232672E-01 0.46767118E+03</pdfrwt>
<pdfrwt beam="2">  1       21 0.40561460E+00 0.46767118E+03</pdfrwt>
<totfact> 0.30049060E+02</totfact>
</mgrwt>
</event>
<event>
 4    1  0.4758708E-002  0.6806919E+03  0.7818608E-02  0.9750833E-01
         21   -1    0    0  501  502  0.00000000000E+00  0.00000000000E+00  0.33628595142E+03  0.33628595142E+03  0.00000000000E+00 0.  1.
         21   -1    0    0  502  503 -0.00000000000E+00 -0.00000000000E+00 -0.15650124760E+04  0.15650124760E+04  0.00000000000E+00 0.  1.
    9000007    1    1    2  501    0 -0.52934269726E+03 -0.15211097771E+03 -0.28558293507E+03  0.73817278024E+03  0.40000000000E+03 0.  1.
   -9000007    1    1    2    0  503  0.52934269726E+03  0.15211097771E+03 -0.94314358951E+03  0.11631256472E+04  0.40000000000E+03 0.  1.
<mgrwt>
<rscale>  2 0.68069188E+03</rscale>
<asrwt>0</asrwt>
<pdfrwt beam="1">  1       21 0.51736299E-01 0.68069188E+03</pdfrwt>
<pdfrwt beam="2">  1       21 0.24077115E+00 0.68069188E+03</pdfrwt>
<totfact> 0.19296363E+02</totfact>
</mgrwt>
</event>
<event>
 4    1  0.4758708E-002  0.4054162E+03  0.7818608E-02  0.1041920E+00
         21   -1    0    0  503  502  0.00000000000E+00  0.00000000000E+00  0.44919785452E+03  0.44919785452E+03  0.00000000000E+00 0.  1.
         21   -1    0    0  501  503 -0.00000000000E+00 -0.00000000000E+00 -0.37348067600E+03  0.37348067600E+03  0.00000000000E+00 0.  1.
    9000007    1    1    2  501    0  0.53337229264E+02 -0.38953825961E+02  0.96455030360E+02  0.41673232832E+03  0.40000000000E+03 0. -1.
   -9000007    1    1    2    0  502 -0.53337229264E+02  0.38953825961E+02 -0.20737851837E+02  0.40594620220E+03  0.40000000000E+03 0. -1.
<mgrwt>
<rscale>  2 0.40541616E+03</rscale>
<asrwt>0</asrwt>
<pdfrwt beam="1">  1       21 0.69107362E-01 0.40541616E+03</pdfrwt>
<pdfrwt beam="2">  1       21 0.57458566E-01 0.40541616E+03</pdfrwt>
<totfact> 0.48380718E+03</totfact>
</mgrwt>
</event>
<event>
 4    1  0.4758708E-002  0.4046951E+03  0.7818608E-02  0.1042166E+00
         21   -1    0    0  503  502  0.00000000000E+00  0.00000000000E+00  0.50993986243E+03  0.50993986243E+03  0.00000000000E+00 0.  1.
         21   -1    0    0  501  503 -0.00000000000E+00 -0.00000000000E+00 -0.33187365344E+03  0.33187365344E+03  0.00000000000E+00 0.  1.
    9000007    1    1    2  501    0 -0.58885259483E+02 -0.17624674289E+02  0.13447865398E+02  0.40491844612E+03  0.40000000000E+03 0.  1.
   -9000007    1    1    2    0  502  0.58885259483E+02  0.17624674289E+02  0.16461834359E+03  0.43689506975E+03  0.40000000000E+03 0.  1.
<mgrwt>
<rscale>  2 0.40469507E+03</rscale>
<asrwt>0</asrwt>
<pdfrwt beam="1">  1       21 0.78452287E-01 0.40469507E+03</pdfrwt>
<pdfrwt beam="2">  1       21 0.51057485E-01 0.40469507E+03</pdfrwt>
<totfact> 0.46783519E+03</totfact>
</mgrwt>
</event>
<event>
 4    1  0.4758708E-002  0.5213051E+03  0.7818608E-02  0.1008363E+00
         21   -1    0    0  501  502  0.00000000000E+00  0.00000000000E+00  0.80982960371E+03  0.80982960371E+03  0.00000000000E+00 0. -1.
         21   -1    0    0  502  503 -0.00000000000E+00 -0.00000000000E+00 -0.37540206343E+03  0.37540206343E+03  0.00000000000E+00 0. -1.
    9000007    1    1    2  501    0 -0.22709255316E+03  0.24533234656E+03  0.41023774163E+03  0.66336565529E+03  0.40000000000E+03 0. -1.
   -9000007    1    1    2    0  503  0.22709255316E+03 -0.24533234656E+03  0.24189798657E+02  0.52186601185E+03  0.40000000000E+03 0. -1.
<mgrwt>
<rscale>  2 0.52130508E+03</rscale>
<asrwt>0</asrwt>
<pdfrwt beam="1">  1       21 0.12458917E+00 0.52130508E+03</pdfrwt>
<pdfrwt beam="2">  1       21 0.57754164E-01 0.52130508E+03</pdfrwt>
<totfact> 0.11194942E+03</totfact>
</mgrwt>
</event>
<event>
 4    1  0.4758708E-002  0.5021242E+03  0.7818608E-02  0.1013226E+00
         21   -1    0    0  501  502  0.00000000000E+00  0.00000000000E+00  0.24487007104E+04  0.24487007104E+04  0.00000000000E+00 0.  1.
         21   -1    0    0  502  503 -0.00000000000E+00 -0.00000000000E+00 -0.16117025903E+03  0.16117025903E+03  0.00000000000E+00 0.  1.
    9000007    1    1    2  501    0  0.29122724277E+03  0.85530110217E+02  0.19279716333E+04  0.19922859548E+04  0.40000000000E+03 0.  1.
   -9000007    1    1    2    0  503 -0.29122724277E+03 -0.85530110217E+02  0.35955881803E+03  0.61758501464E+03  0.40000000000E+03 0.  1.
<mgrwt>
<rscale>  2 0.50212419E+03</rscale>
<asrwt>0</asrwt>
<pdfrwt beam="1">  1       21 0.37672316E+00 0.50212419E+03</pdfrwt>
<pdfrwt beam="2">  1       21 0.24795426E-01 0.50212419E+03</pdfrwt>
<totfact> 0.13716995E+02</totfact>
</mgrwt>
</event>
<event>
 4    1  0.4758708E-002  0.5078668E+03  0.7818608E-02  0.1011746E+00
         21   -1    0    0  503  502  0.00000000000E+00  0.00000000000E+00  0.18733071674E+04  0.18733071674E+04  0.00000000000E+00 0.  1.
         21   -1    0    0  501  503 -0.00000000000E+00 -0.00000000000E+00 -0.14560508871E+03  0.14560508871E+03  0.00000000000E+00 0.  1.
    9000007    1    1    2  501    0 -0.22191135849E+03 -0.22064453036E+03  0.10992635918E+04  0.12109125089E+04  0.40000000000E+03 0. -1.
   -9000007    1    1    2    0  502  0.22191135849E+03  0.22064453036E+03  0.62843848690E+03  0.80799974729E+03  0.40000000000E+03 0. -1.
<mgrwt>
<rscale>  2 0.50786677E+03</rscale>
<asrwt>0</asrwt>
<pdfrwt beam="1">  1       21 0.28820109E+00 0.50786677E+03</pdfrwt>
<pdfrwt beam="2">  1       21 0.22400784E-01 0.50786677E+03</pdfrwt>
<totfact> 0.58024850E+02</totfact>
</mgrwt>
</event>
<event>
 4    1  0.4758708E-002  0.4516919E+03  0.7818608E-02  0.1027219E+00
         21   -1    0    0  503  502  0.00000000000E+00  0.00000000000E+00  0.29093434801E+03  0.29093434801E+03  0.00000000000E+00 0.  1.
         21   -1    0    0  501  503 -0.00000000000E+00 -0.00000000000E+00 -0.70133082224E+03  0.70133082224E+03  0.00000000000E+00 0.  1.
    9000007    1    1    2  501    0  0.10489233357E+02 -0.20956046405E+03 -0.20085825977E+03  0.49433758974E+03  0.40000000000E+03 0.  1.
   -9000007    1    1    2    0  502 -0.10489233357E+02  0.20956046405E+03 -0.20953821447E+03  0.49792758051E+03  0.40000000000E+03 0.  1.
<mgrwt>
<rscale>  2 0.45169194E+03</rscale>
<asrwt>0</asrwt>
<pdfrwt beam="1">  1       21 0.44759131E-01 0.45169194E+03</pdfrwt>
<pdfrwt beam="2">  1       21 0.10789705E+00 0.45169194E+03</pdfrwt>
<totfact> 0.28434275E+03</totfact>
</mgrwt>
</event>
<event>
 4    1  0.4758708E-002  0.4044447E+03  0.7818608E-02  0.1042251E+00
         21   -1    0    0  501  502  0.00000000000E+00  0.00000000000E+00  0.20796802902E+03  0.20796802902E+03  0.00000000000E+00 0.  1.
         21   -1    0    0  502  503 -0.00000000000E+00 -0.00000000000E+00 -0.80397022472E+03  0.80397022472E+03  0.00000000000E+00 0.  1.
    9000007    1    1    2  501    0 -0.21663482739E+02 -0.55733422927E+02 -0.22350479515E+03  0.46209297157E+03  0.40000000000E+03 0.  1.
   -9000007    1    1    2    0  503  0.21663482739E+02  0.55733422927E+02 -0.37249740054E+03  0.54984528217E+03  0.40000000000E+03 0.  1.
<mgrwt>
<rscale>  2 0.40444471E+03</rscale>
<asrwt>0</asrwt>
<pdfrwt beam="1">  1       21 0.31995082E-01 0.40444471E+03</pdfrwt>
<pdfrwt beam="2">  1       21 0.12368773E+00 0.40444471E+03</pdfrwt>
<totfact> 0.40798030E+03</totfact>
</mgrwt>
</event>
<event>
 4    1  0.4758708E-002  0.4337830E+03  0.7818608E-02  0.1032672E+00
         21   -1    0    0  501  502  0.00000000000E+00  0.00000000000E+00  0.75318578339E+03  0.75318578339E+03  0.00000000000E+00 0.  1.
         21   -1    0    0  502  503 -0.00000000000E+00 -0.00000000000E+00 -0.25195505137E+03  0.25195505137E+03  0.00000000000E+00 0. -1.
    9000007    1    1    2  501    0 -0.13226129008E+03 -0.10331832741E+03  0.20445043901E+03  0.47954948404E+03  0.40000000000E+03 0.  1.
   -9000007    1    1    2    0  503  0.13226129008E+03  0.10331832741E+03  0.29678029301E+03  0.52559135072E+03  0.40000000000E+03 0. -1.
<mgrwt>
<rscale>  2 0.43378304E+03</rscale>
<asrwt>0</asrwt>
<pdfrwt beam="1">  1       21 0.11587473E+00 0.43378304E+03</pdfrwt>
<pdfrwt beam="2">  1       21 0.38762316E-01 0.43378304E+03</pdfrwt>
<totfact> 0.32287981E+03</totfact>
</mgrwt>
</event>
<event>
 4    1  0.4758708E-002  0.4577303E+03  0.7818608E-02  0.1025442E+00
         21   -1    0    0  503  502  0.00000000000E+00  0.00000000000E+00  0.35182514074E+03  0.35182514074E+03  0.00000000000E+00 0. -1.
         21   -1    0    0  501  503 -0.00000000000E+00 -0.00000000000E+00 -0.89103398387E+03  0.89103398387E+03  0.00000000000E+00 0. -1.
    9000007    1    1    2  501    0  0.74836059885E+02  0.20956289208E+03 -0.62748463803E+03  0.77669428514E+03  0.40000000000E+03 0. -1.
   -9000007    1    1    2    0  502 -0.74836059885E+02 -0.20956289208E+03  0.88275794901E+02  0.46616483947E+03  0.40000000000E+03 0. -1.
<mgrwt>
<rscale>  2 0.45773032E+03</rscale>
<asrwt>0</asrwt>
<pdfrwt beam="1">  1       21 0.54126946E-01 0.45773032E+03</pdfrwt>
<pdfrwt beam="2">  1       21 0.13708215E+00 0.45773032E+03</pdfrwt>
<totfact> 0.10293329E+03</totfact>
</mgrwt>
</event>
<event>
 4    1  0.4758708E-002  0.4061480E+03  0.7818608E-02  0.1041671E+00
         21   -1    0    0  503  502  0.00000000000E+00  0.00000000000E+00  0.84462256879E+03  0.84462256879E+03  0.00000000000E+00 0.  1.
         21   -1    0    0  501  503 -0.00000000000E+00 -0.00000000000E+00 -0.26870272784E+03  0.26870272784E+03  0.00000000000E+00 0.  1.
    9000007    1    1    2  501    0  0.80304110338E+01 -0.69940896390E+02 -0.29825613381E+01  0.40615897400E+03  0.40000000000E+03 0.  1.
   -9000007    1    1    2    0  502 -0.80304110338E+01  0.69940896390E+02  0.57890240229E+03  0.70716632263E+03  0.40000000000E+03 0.  1.
<mgrwt>
<rscale>  2 0.40614802E+03</rscale>
<asrwt>0</asrwt>
<pdfrwt beam="1">  1       21 0.12994193E+00 0.40614802E+03</pdfrwt>
<pdfrwt beam="2">  1       21 0.41338881E-01 0.40614802E+03</pdfrwt>
<totfact> 0.21348517E+03</totfact>
</mgrwt>
</event>
<event>
 4    1  0.4758708E-002  0.4417060E+03  0.7818608E-02  0.1030225E+00
         21   -1    0    0  501  502  0.00000000000E+00  0.00000000000E+00  0.20784568399E+03  0.20784568399E+03  0.00000000000E+00 0.  1.
         21   -1    0    0  502  503 -0.00000000000E+00 -0.00000000000E+00 -0.11302223888E+04  0.11302223888E+04  0.00000000000E+00 0.  1.
    9000007    1    1    2  501    0  0.12202493140E+03 -0.14217623052E+03 -0.18577867672E+03  0.47918460027E+03  0.40000000000E+03 0.  1.
   -9000007    1    1    2    0  503 -0.12202493140E+03  0.14217623052E+03 -0.73659802810E+03  0.85888347255E+03  0.40000000000E+03 0.  1.
<mgrwt>
<rscale>  2 0.44170597E+03</rscale>
<asrwt>0</asrwt>
<pdfrwt beam="1">  1       21 0.31976258E-01 0.44170597E+03</pdfrwt>
<pdfrwt beam="2">  1       21 0.17388037E+00 0.44170597E+03</pdfrwt>
<totfact> 0.16044981E+03</totfact>
</mgrwt>
</event>
<event>
 4    1  0.4758708E-002  0.4191630E+03  0.7818608E-02  0.1037339E+00
         21   -1    0    0  503  502  0.00000000000E+00  0.00000000000E+00  0.18967882525E+04  0.18967882525E+04  0.00000000000E+00 0. -1.
         21   -1    0    0  501  503 -0.00000000000E+00 -0.00000000000E+00 -0.11602724098E+03  0.11602724098E+03  0.00000000000E+00 0. -1.
    9000007    1    1    2  501    0  0.12163908940E+03 -0.30025570302E+02  0.43843551820E+03  0.60656681954E+03  0.40000000000E+03 0.  1.
   -9000007    1    1    2    0  502 -0.12163908940E+03  0.30025570302E+02  0.13423254933E+04  0.14062486740E+04  0.40000000000E+03 0.  1.
<mgrwt>
<rscale>  2 0.41916298E+03</rscale>
<asrwt>0</asrwt>
<pdfrwt beam="1">  1       21 0.29181355E+00 0.41916298E+03</pdfrwt>
<pdfrwt beam="2">  1       21 0.17850346E-01 0.41916298E+03</pdfrwt>
<totfact> 0.89138304E+02</totfact>
</mgrwt>
</event>
<event>
 4    1  0.4758708E-002  0.5085966E+03  0.7818608E-02  0.1011559E+00
         21   -1    0    0  501  502  0.00000000000E+00  0.00000000000E+00  0.67493784910E+03  0.67493784910E+03  0.00000000000E+00 0. -1.
         21   -1    0    0  502  503 -0.00000000000E+00 -0.00000000000E+00 -0.55434004349E+03  0.55434004349E+03  0.00000000000E+00 0. -1.
    9000007    1    1    2  501    0 -0.22931607482E+03  0.21467338607E+03  0.40176154841E+03  0.64813799968E+03  0.40000000000E+03 0. -1.
   -9000007    1    1    2    0  503  0.22931607482E+03 -0.21467338607E+03 -0.28116374281E+03  0.58113989290E+03  0.40000000000E+03 0. -1.
<mgrwt>
<rscale>  2 0.50859662E+03</rscale>
<asrwt>0</asrwt>
<pdfrwt beam="1">  1       21 0.10383659E+00 0.50859662E+03</pdfrwt>
<pdfrwt beam="2">  1       21 0.85283083E-01 0.50859662E+03</pdfrwt>
<totfact> 0.73621627E+02</totfact>
</mgrwt>
</event>
<event>
 4    1  0.4758708E-002  0.5421205E+03  0.7818608E-02  0.1003334E+00
         21   -1    0    0  501  502  0.00000000000E+00  0.00000000000E+00  0.12258123017E+04  0.12258123017E+04  0.00000000000E+00 0.  1.
         21   -1    0    0  502  503 -0.00000000000E+00 -0.00000000000E+00 -0.12738653970E+04  0.12738653970E+04  0.00000000000E+00 0.  1.
    9000007    1    1    2  501    0 -0.36126054747E+03  0.58184535436E+02  0.11020701962E+04  0.12281910848E+04  0.40000000000E+03 0.  1.
   -9000007    1    1    2    0  503  0.36126054747E+03 -0.58184535436E+02 -0.11501232916E+04  0.12714866138E+04  0.40000000000E+03 0.  1.
<mgrwt>
<rscale>  2 0.54212049E+03</rscale>
<asrwt>0</asrwt>
<pdfrwt beam="1">  1       21 0.18858651E+00 0.54212049E+03</pdfrwt>
<pdfrwt beam="2">  1       21 0.19597929E+00 0.54212049E+03</pdfrwt>
<totfact> 0.16224325E+01</totfact>
</mgrwt>
</event>
<event>
 4    1  0.4758708E-002  0.4334119E+03  0.7818608E-02  0.1032788E+00
         21   -1    0    0  501  502  0.00000000000E+00  0.00000000000E+00  0.11540304038E+04  0.11540304038E+04  0.00000000000E+00 0. -1.
         21   -1    0    0  502  503 -0.00000000000E+00 -0.00000000000E+00 -0.18239633061E+03  0.18239633061E+03  0.00000000000E+00 0.  1.
    9000007    1    1    2  501    0 -0.15648640236E+03  0.57947578366E+02  0.70498879945E+03  0.82755974002E+03  0.40000000000E+03 0. -1.
   -9000007    1    1    2    0  503  0.15648640236E+03 -0.57947578366E+02  0.26664527373E+03  0.50886699437E+03  0.40000000000E+03 0.  1.
<mgrwt>
<rscale>  2 0.43341195E+03</rscale>
<asrwt>0</asrwt>
<pdfrwt beam="1">  1       21 0.17754313E+00 0.43341195E+03</pdfrwt>
<pdfrwt beam="2">  1       21 0.28060975E-01 0.43341195E+03</pdfrwt>
<totfact> 0.19648780E+03</totfact>
</mgrwt>
</event>
<event>
 4    1  0.4758708E-002  0.4393822E+03  0.7818608E-02  0.1030937E+00
         21   -1    0    0  501  502  0.00000000000E+00  0.00000000000E+00  0.83922856233E+03  0.83922856233E+03  0.00000000000E+00 0. -1.
         21   -1    0    0  502  503 -0.00000000000E+00 -0.00000000000E+00 -0.24608225637E+03  0.24608225637E+03  0.00000000000E+00 0. -1.
    9000007    1    1    2  501    0 -0.11185934169E+03  0.14333234838E+03  0.43512364370E+03  0.61837630915E+03  0.40000000000E+03 0. -1.
   -9000007    1    1    2    0  503  0.11185934169E+03 -0.14333234838E+03  0.15802266226E+03  0.46693450954E+03  0.40000000000E+03 0. -1.
<mgrwt>
<rscale>  2 0.43938215E+03</rscale>
<asrwt>0</asrwt>
<pdfrwt beam="1">  1       21 0.12911209E+00 0.43938215E+03</pdfrwt>
<pdfrwt beam="2">  1       21 0.37858809E-01 0.43938215E+03</pdfrwt>
<totfact> 0.25656147E+03</totfact>
</mgrwt>
</event>
<event>
 4    1  0.4758708E-002  0.7388274E+03  0.7818608E-02  0.9653043E-01
         21   -1    0    0  501  502  0.00000000000E+00  0.00000000000E+00  0.22936513845E+04  0.22936513845E+04  0.00000000000E+00 0.  1.
         21   -1    0    0  502  503 -0.00000000000E+00 -0.00000000000E+00 -0.25120923107E+03  0.25120923107E+03  0.00000000000E+00 0.  1.
    9000007    1    1    2  501    0 -0.54244057077E+03  0.30269470390E+03  0.72932987937E+03  0.10381656561E+04  0.40000000000E+03 0.  1.
   -9000007    1    1    2    0  503  0.54244057077E+03 -0.30269470390E+03  0.13131122740E+04  0.15066949594E+04  0.40000000000E+03 0.  1.
<mgrwt>
<rscale>  2 0.73882735E+03</rscale>
<asrwt>0</asrwt>
<pdfrwt beam="1">  1       21 0.35286943E+00 0.73882735E+03</pdfrwt>
<pdfrwt beam="2">  1       21 0.38647576E-01 0.73882735E+03</pdfrwt>
<totfact> 0.70829309E+01</totfact>
</mgrwt>
</event>
<event>
 4    1  0.4758708E-002  0.4009916E+03  0.7818608E-02  0.1043437E+00
         21   -1    0    0  503  502  0.00000000000E+00  0.00000000000E+00  0.52231364926E+03  0.52231364926E+03  0.00000000000E+00 0. -1.
         21   -1    0    0  501  503 -0.00000000000E+00 -0.00000000000E+00 -0.98877019443E+03  0.98877019443E+03  0.00000000000E+00 0. -1.
    9000007    1    1    2  501    0 -0.21665311694E+02  0.18025241551E+02 -0.86021589479E+03  0.94908676142E+03  0.40000000000E+03 0. -1.
   -9000007    1    1    2    0  502  0.21665311694E+02 -0.18025241551E+02  0.39375934962E+03  0.56199708227E+03  0.40000000000E+03 0. -1.
<mgrwt>
<rscale>  2 0.40099164E+03</rscale>
<asrwt>0</asrwt>
<pdfrwt beam="1">  1       21 0.80355946E-01 0.40099164E+03</pdfrwt>
<pdfrwt beam="2">  1       21 0.15211849E+00 0.40099164E+03</pdfrwt>
<totfact> 0.33186439E+02</totfact>
</mgrwt>
</event>
<event>
 4    1  0.4758708E-002  0.4190905E+03  0.7818608E-02  0.1037363E+00
         21   -1    0    0  503  502  0.00000000000E+00  0.00000000000E+00  0.13066194421E+04  0.13066194421E+04  0.00000000000E+00 0. -1.
         21   -1    0    0  501  503 -0.00000000000E+00 -0.00000000000E+00 -0.16137782561E+03  0.16137782561E+03  0.00000000000E+00 0. -1.
    9000007    1    1    2  501    0 -0.10340024980E+03  0.70322184280E+02  0.27262902079E+03  0.49996340290E+03  0.40000000000E+03 0. -1.
   -9000007    1    1    2    0  502  0.10340024980E+03 -0.70322184280E+02  0.87261259571E+03  0.96803386483E+03  0.40000000000E+03 0. -1.
<mgrwt>
<rscale>  2 0.41909047E+03</rscale>
<asrwt>0</asrwt>
<pdfrwt beam="1">  1       21 0.20101837E+00 0.41909047E+03</pdfrwt>
<pdfrwt beam="2">  1       21 0.24827359E-01 0.41909047E+03</pdfrwt>
<totfact> 0.17348763E+03</totfact>
</mgrwt>
</event>
<event>
 4    1  0.4758708E-002  0.4711840E+03  0.7818608E-02  0.1021587E+00
         21   -1    0    0  501  502  0.00000000000E+00  0.00000000000E+00  0.68280358271E+03  0.68280358271E+03  0.00000000000E+00 0. -1.
         21   -1    0    0  502  503 -0.00000000000E+00 -0.00000000000E+00 -0.76088840805E+03  0.76088840805E+03  0.00000000000E+00 0. -1.
    9000007    1    1    2  501    0  0.20409520041E+03 -0.14268674023E+03  0.50721384553E+03  0.69230068739E+03  0.40000000000E+03 0. -1.
   -9000007    1    1    2    0  503 -0.20409520041E+03  0.14268674023E+03 -0.58529867087E+03  0.75139130337E+03  0.40000000000E+03 0. -1.
<mgrwt>
<rscale>  2 0.47118399E+03</rscale>
<asrwt>0</asrwt>
<pdfrwt beam="1">  1       21 0.10504671E+00 0.47118399E+03</pdfrwt>
<pdfrwt beam="2">  1       21 0.11705975E+00 0.47118399E+03</pdfrwt>
<totfact> 0.33624198E+02</totfact>
</mgrwt>
</event>
<event>
 4    1  0.4758708E-002  0.5088249E+03  0.7818608E-02  0.1011501E+00
         21   -1    0    0  501  502  0.00000000000E+00  0.00000000000E+00  0.74208801548E+03  0.74208801548E+03  0.00000000000E+00 0. -1.
         21   -1    0    0  502  503 -0.00000000000E+00 -0.00000000000E+00 -0.35523183332E+03  0.35523183332E+03  0.00000000000E+00 0.  1.
    9000007    1    1    2  501    0 -0.22251907021E+03  0.22223420859E+03  0.26677019758E+03  0.57451642134E+03  0.40000000000E+03 0. -1.
   -9000007    1    1    2    0  503  0.22251907021E+03 -0.22223420859E+03  0.12008598458E+03  0.52280342746E+03  0.40000000000E+03 0.  1.
<mgrwt>
<rscale>  2 0.50882490E+03</rscale>
<asrwt>0</asrwt>
<pdfrwt beam="1">  1       21 0.11416739E+00 0.50882490E+03</pdfrwt>
<pdfrwt beam="2">  1       21 0.54651052E-01 0.50882490E+03</pdfrwt>
<totfact> 0.15832102E+03</totfact>
</mgrwt>
</event>
<event>
 4    1  0.4758708E-002  0.4564780E+03  0.7818608E-02  0.1025808E+00
         21   -1    0    0  501  502  0.00000000000E+00  0.00000000000E+00  0.16092754882E+03  0.16092754882E+03  0.00000000000E+00 0. -1.
         21   -1    0    0  502  503 -0.00000000000E+00 -0.00000000000E+00 -0.13061228600E+04  0.13061228600E+04  0.00000000000E+00 0.  1.
    9000007    1    1    2  501    0 -0.14686559191E+03 -0.16371507506E+03 -0.50435956683E+03  0.68025781917E+03  0.40000000000E+03 0. -1.
   -9000007    1    1    2    0  503  0.14686559191E+03  0.16371507506E+03 -0.64083574433E+03  0.78679258964E+03  0.40000000000E+03 0.  1.
<mgrwt>
<rscale>  2 0.45647796E+03</rscale>
<asrwt>0</asrwt>
<pdfrwt beam="1">  1       21 0.24758085E-01 0.45647796E+03</pdfrwt>
<pdfrwt beam="2">  1       21 0.20094198E+00 0.45647796E+03</pdfrwt>
<totfact> 0.17174850E+03</totfact>
</mgrwt>
</event>
<event>
 4    1  0.4758708E-002  0.4447195E+03  0.7818608E-02  0.1029309E+00
         21   -1    0    0  503  502  0.00000000000E+00  0.00000000000E+00  0.84693118254E+02  0.84693118254E+02  0.00000000000E+00 0. -1.
         21   -1    0    0  501  503 -0.00000000000E+00 -0.00000000000E+00 -0.24115870613E+04  0.24115870613E+04  0.00000000000E+00 0.  1.
    9000007    1    1    2  501    0 -0.16741083872E+03  0.98737133812E+02 -0.13855837110E+04  0.14552036389E+04  0.40000000000E+03 0.  1.
   -9000007    1    1    2    0  502  0.16741083872E+03 -0.98737133812E+02 -0.94131023200E+03  0.10410765406E+04  0.40000000000E+03 0. -1.
<mgrwt>
<rscale>  2 0.44471947E+03</rscale>
<asrwt>0</asrwt>
<pdfrwt beam="1">  1       21 0.13029710E-01 0.44471947E+03</pdfrwt>
<pdfrwt beam="2">  1       21 0.37101341E+00 0.44471947E+03</pdfrwt>
<totfact> 0.52000538E+02</totfact>
</mgrwt>
</event>
<event>
 4    1  0.4758708E-002  0.8859937E+03  0.7818608E-02  0.9443261E-01
         21   -1    0    0  501  502  0.00000000000E+00  0.00000000000E+00  0.11369443929E+04  0.11369443929E+04  0.00000000000E+00 0.  1.
         21   -1    0    0  502  503 -0.00000000000E+00 -0.00000000000E+00 -0.69335938316E+03  0.69335938316E+03  0.00000000000E+00 0.  1.
    9000007    1    1    2  501    0  0.78184148786E+03 -0.11708392529E+03  0.28123888597E+03  0.92955907219E+03  0.40000000000E+03 0.  1.
   -9000007    1    1    2    0  503 -0.78184148786E+03  0.11708392529E+03  0.16234612379E+03  0.90074470390E+03  0.40000000000E+03 0.  1.
<mgrwt>
<rscale>  2 0.88599366E+03</rscale>
<asrwt>0</asrwt>
<pdfrwt beam="1">  1       21 0.17491452E+00 0.88599366E+03</pdfrwt>
<pdfrwt beam="2">  1       21 0.10667067E+00 0.88599366E+03</pdfrwt>
<totfact> 0.94273617E+01</totfact>
</mgrwt>
</event>
<event>
 4    1  0.4758708E-002  0.4408838E+03  0.7818608E-02  0.1030476E+00
         21   -1    0    0  503  502  0.00000000000E+00  0.00000000000E+00  0.71137885565E+03  0.71137885565E+03  0.00000000000E+00 0. -1.
         21   -1    0    0  501  503 -0.00000000000E+00 -0.00000000000E+00 -0.27607979660E+03  0.27607979660E+03  0.00000000000E+00 0. -1.
    9000007    1    1    2  501    0  0.89130611126E+02  0.16258609846E+03  0.16759188381E+03  0.47166253272E+03  0.40000000000E+03 0. -1.
   -9000007    1    1    2    0  502 -0.89130611126E+02 -0.16258609846E+03  0.26770717524E+03  0.51579611953E+03  0.40000000000E+03 0. -1.
<mgrwt>
<rscale>  2 0.44088378E+03</rscale>
<asrwt>0</asrwt>
<pdfrwt beam="1">  1       21 0.10944290E+00 0.44088378E+03</pdfrwt>
<pdfrwt beam="2">  1       21 0.42473815E-01 0.44088378E+03</pdfrwt>
<totfact> 0.30740701E+03</totfact>
</mgrwt>
</event>
<event>
 4    1  0.4758708E-002  0.4142494E+03  0.7818608E-02  0.1038954E+00
         21   -1    0    0  501  502  0.00000000000E+00  0.00000000000E+00  0.95505650112E+03  0.95505650112E+03  0.00000000000E+00 0. -1.
         21   -1    0    0  502  503 -0.00000000000E+00 -0.00000000000E+00 -0.34729627512E+03  0.34729627512E+03  0.00000000000E+00 0. -1.
    9000007    1    1    2  501    0  0.42252897127E+01  0.10763232316E+03  0.75626632829E+03  0.86228842586E+03  0.40000000000E+03 0. -1.
   -9000007    1    1    2    0  503 -0.42252897127E+01 -0.10763232316E+03 -0.14850610229E+03  0.44006435039E+03  0.40000000000E+03 0. -1.
<mgrwt>
<rscale>  2 0.41424941E+03</rscale>
<asrwt>0</asrwt>
<pdfrwt beam="1">  1       21 0.14693177E+00 0.41424941E+03</pdfrwt>
<pdfrwt beam="2">  1       21 0.53430197E-01 0.41424941E+03</pdfrwt>
<totfact> 0.89645105E+02</totfact>
</mgrwt>
</event>
<event>
 4    1  0.4758708E-002  0.5960984E+03  0.7818608E-02  0.9913534E-01
         21   -1    0    0  501  502  0.00000000000E+00  0.00000000000E+00  0.42469481199E+03  0.42469481199E+03  0.00000000000E+00 0.  1.
         21   -1    0    0  502  503 -0.00000000000E+00 -0.00000000000E+00 -0.14970431816E+04  0.14970431816E+04  0.00000000000E+00 0. -1.
    9000007    1    1    2  501    0 -0.33956065186E+03 -0.28289912633E+03  0.10199918470E+03  0.60476209012E+03  0.40000000000E+03 0.  1.
   -9000007    1    1    2    0  503  0.33956065186E+03  0.28289912633E+03 -0.11743475543E+04  0.13169759035E+04  0.40000000000E+03 0. -1.
<mgrwt>
<rscale>  2 0.59609844E+03</rscale>
<asrwt>0</asrwt>
<pdfrwt beam="1">  1       21 0.65337664E-01 0.59609844E+03</pdfrwt>
<pdfrwt beam="2">  1       21 0.23031433E+00 0.59609844E+03</pdfrwt>
<totfact> 0.13909927E+02</totfact>
</mgrwt>
</event>
<event>
 4    1  0.4758708E-002  0.4033550E+03  0.7818608E-02  0.1042624E+00
         21   -1    0    0  501  502  0.00000000000E+00  0.00000000000E+00  0.32520305439E+03  0.32520305439E+03  0.00000000000E+00 0.  1.
         21   -1    0    0  502  503 -0.00000000000E+00 -0.00000000000E+00 -0.52481464895E+03  0.52481464895E+03  0.00000000000E+00 0. -1.
    9000007    1    1    2  501    0 -0.30997184661E+02  0.41646399745E+02 -0.79276117841E+01  0.40343288797E+03  0.40000000000E+03 0.  1.
   -9000007    1    1    2    0  503  0.30997184661E+02 -0.41646399745E+02 -0.19168398277E+03  0.44658481537E+03  0.40000000000E+03 0. -1.
<mgrwt>
<rscale>  2 0.40335499E+03</rscale>
<asrwt>0</asrwt>
<pdfrwt beam="1">  1       21 0.50031240E-01 0.40335499E+03</pdfrwt>
<pdfrwt beam="2">  1       21 0.80740714E-01 0.40335499E+03</pdfrwt>
<totfact> 0.45741900E+03</totfact>
</mgrwt>
</event>
<event>
 4    1  0.4758708E-002  0.7630560E+03  0.7818608E-02  0.9615087E-01
         21   -1    0    0  503  502  0.00000000000E+00  0.00000000000E+00  0.43442105286E+03  0.43442105286E+03  0.00000000000E+00 0. -1.
         21   -1    0    0  501  503 -0.00000000000E+00 -0.00000000000E+00 -0.15444286026E+04  0.15444286026E+04  0.00000000000E+00 0.  1.
    9000007    1    1    2  501    0 -0.27240028652E+03 -0.58995981589E+03 -0.91471244604E+03  0.11911982872E+04  0.40000000000E+03 0.  1.
   -9000007    1    1    2    0  502  0.27240028652E+03  0.58995981589E+03 -0.19529510375E+03  0.78765136831E+03  0.40000000000E+03 0. -1.
<mgrwt>
<rscale>  2 0.76305603E+03</rscale>
<asrwt>0</asrwt>
<pdfrwt beam="1">  1       21 0.66834007E-01 0.76305603E+03</pdfrwt>
<pdfrwt beam="2">  1       21 0.23760440E+00 0.76305603E+03</pdfrwt>
<totfact> 0.11165268E+02</totfact>
</mgrwt>
</event>
<event>
 4    1  0.4758708E-002  0.4320801E+03  0.7818608E-02  0.1033205E+00
         21   -1    0    0  501  502  0.00000000000E+00  0.00000000000E+00  0.24226514225E+03  0.24226514225E+03  0.00000000000E+00 0.  1.
         21   -1    0    0  502  503 -0.00000000000E+00 -0.00000000000E+00 -0.90208338079E+03  0.90208338079E+03  0.00000000000E+00 0. -1.
    9000007    1    1    2  501    0  0.71180231209E+01  0.16322540276E+03 -0.11147759225E+03  0.44622914734E+03  0.40000000000E+03 0.  1.
   -9000007    1    1    2    0  503 -0.71180231209E+01 -0.16322540276E+03 -0.54834064629E+03  0.69811937571E+03  0.40000000000E+03 0. -1.
<mgrwt>
<rscale>  2 0.43208008E+03</rscale>
<asrwt>0</asrwt>
<pdfrwt beam="1">  1       21 0.37271561E-01 0.43208008E+03</pdfrwt>
<pdfrwt beam="2">  1       21 0.13878206E+00 0.43208008E+03</pdfrwt>
<totfact> 0.21993926E+03</totfact>
</mgrwt>
</event>
<event>
 4    1  0.4758708E-002  0.4028287E+03  0.7818608E-02  0.1042805E+00
         21   -1    0    0  503  502  0.00000000000E+00  0.00000000000E+00  0.90187383676E+03  0.90187383676E+03  0.00000000000E+00 0. -1.
         21   -1    0    0  501  503 -0.00000000000E+00 -0.00000000000E+00 -0.18591456626E+03  0.18591456626E+03  0.00000000000E+00 0. -1.
    9000007    1    1    2  501    0 -0.10536165915E+02  0.46475165990E+02  0.26036766678E+03  0.47964807281E+03  0.40000000000E+03 0. -1.
   -9000007    1    1    2    0  502  0.10536165915E+02 -0.46475165990E+02  0.45559160372E+03  0.60814033021E+03  0.40000000000E+03 0. -1.
<mgrwt>
<rscale>  2 0.40282869E+03</rscale>
<asrwt>0</asrwt>
<pdfrwt beam="1">  1       21 0.13874982E+00 0.40282869E+03</pdfrwt>
<pdfrwt beam="2">  1       21 0.28602241E-01 0.40282869E+03</pdfrwt>
<totfact> 0.37853523E+03</totfact>
</mgrwt>
</event>
<event>
 4    1  0.4758708E-002  0.4046805E+03  0.7818608E-02  0.1042171E+00
         21   -1    0    0  501  502  0.00000000000E+00  0.00000000000E+00  0.80224952806E+03  0.80224952806E+03  0.00000000000E+00 0.  1.
         21   -1    0    0  502  503 -0.00000000000E+00 -0.00000000000E+00 -0.24926021493E+03  0.24926021493E+03  0.00000000000E+00 0.  1.
    9000007    1    1    2  501    0 -0.53455421691E+02 -0.30146846610E+02  0.52791650223E+02  0.40810938828E+03  0.40000000000E+03 0.  1.
   -9000007    1    1    2    0  503  0.53455421691E+02  0.30146846610E+02  0.50019766290E+03  0.64340035471E+03  0.40000000000E+03 0.  1.
<mgrwt>
<rscale>  2 0.40468051E+03</rscale>
<asrwt>0</asrwt>
<pdfrwt beam="1">  1       21 0.12342300E+00 0.40468051E+03</pdfrwt>
<pdfrwt beam="2">  1       21 0.38347726E-01 0.40468051E+03</pdfrwt>
<totfact> 0.28452629E+03</totfact>
</mgrwt>
</event>
<event>
 4    1  0.4758708E-002  0.5796686E+03  0.7818608E-02  0.9948509E-01
         21   -1    0    0  501  502  0.00000000000E+00  0.00000000000E+00  0.14487060889E+04  0.14487060889E+04  0.00000000000E+00 0.  1.
         21   -1    0    0  502  503 -0.00000000000E+00 -0.00000000000E+00 -0.33279849563E+03  0.33279849563E+03  0.00000000000E+00 0.  1.
    9000007    1    1    2  501    0 -0.41943949657E+03  0.92868024630E+01  0.10483174650E+04  0.11979086958E+04  0.40000000000E+03 0.  1.
   -9000007    1    1    2    0  503  0.41943949657E+03 -0.92868024630E+01  0.67590128310E+02  0.58359588880E+03  0.40000000000E+03 0.  1.
<mgrwt>
<rscale>  2 0.57966864E+03</rscale>
<asrwt>0</asrwt>
<pdfrwt beam="1">  1       21 0.22287786E+00 0.57966864E+03</pdfrwt>
<pdfrwt beam="2">  1       21 0.51199769E-01 0.57966864E+03</pdfrwt>
<totfact> 0.26664698E+02</totfact>
</mgrwt>
</event>
<event>
 4    1  0.4758708E-002  0.4144902E+03  0.7818608E-02  0.1038875E+00
         21   -1    0    0  501  502  0.00000000000E+00  0.00000000000E+00  0.80669634363E+03  0.80669634363E+03  0.00000000000E+00 0. -1.
         21   -1    0    0  502  503 -0.00000000000E+00 -0.00000000000E+00 -0.24997238664E+03  0.24997238664E+03  0.00000000000E+00 0. -1.
    9000007    1    1    2  501    0  0.32505996462E+02  0.10366041450E+03  0.75089911910E+02  0.42123700717E+03  0.40000000000E+03 0. -1.
   -9000007    1    1    2    0  503 -0.32505996462E+02 -0.10366041450E+03  0.48163404508E+03  0.63543172310E+03  0.40000000000E+03 0. -1.
<mgrwt>
<rscale>  2 0.41449019E+03</rscale>
<asrwt>0</asrwt>
<pdfrwt beam="1">  1       21 0.12410713E+00 0.41449019E+03</pdfrwt>
<pdfrwt beam="2">  1       21 0.38457291E-01 0.41449019E+03</pdfrwt>
<totfact> 0.27778493E+03</totfact>
</mgrwt>
</event>
<event>
 4    1  0.4758708E-002  0.5016409E+03  0.7818608E-02  0.1013352E+00
         21   -1    0    0  503  502  0.00000000000E+00  0.00000000000E+00  0.18619461725E+03  0.18619461725E+03  0.00000000000E+00 0.  1.
         21   -1    0    0  501  503 -0.00000000000E+00 -0.00000000000E+00 -0.16276483194E+04  0.16276483194E+04  0.00000000000E+00 0. -1.
    9000007    1    1    2  501    0  0.13265936970E+02  0.30243607539E+03 -0.10942814570E+04  0.12037838144E+04  0.40000000000E+03 0. -1.
   -9000007    1    1    2    0  502 -0.13265936970E+02 -0.30243607539E+03 -0.34717224512E+03  0.61005912219E+03  0.40000000000E+03 0. -1.
<mgrwt>
<rscale>  2 0.50164087E+03</rscale>
<asrwt>0</asrwt>
<pdfrwt beam="1">  1       21 0.28645327E-01 0.50164087E+03</pdfrwt>
<pdfrwt beam="2">  1       21 0.25040743E+00 0.50164087E+03</pdfrwt>
<totfact> 0.61176316E+02</totfact>
</mgrwt>
</event>
<event>
 4    1  0.4758708E-002  0.4350275E+03  0.7818608E-02  0.1032283E+00
         21   -1    0    0  503  502  0.00000000000E+00  0.00000000000E+00  0.60215753613E+03  0.60215753613E+03  0.00000000000E+00 0.  1.
         21   -1    0    0  501  503 -0.00000000000E+00 -0.00000000000E+00 -0.36579370870E+03  0.36579370870E+03  0.00000000000E+00 0.  1.
    9000007    1    1    2  501    0 -0.94795297183E+02  0.14234738171E+03 -0.63431028015E+02  0.43962759327E+03  0.40000000000E+03 0.  1.
   -9000007    1    1    2    0  502  0.94795297183E+02 -0.14234738171E+03  0.29979485545E+03  0.52832365156E+03  0.40000000000E+03 0.  1.
<mgrwt>
<rscale>  2 0.43502750E+03</rscale>
<asrwt>0</asrwt>
<pdfrwt beam="1">  1       21 0.92639621E-01 0.43502750E+03</pdfrwt>
<pdfrwt beam="2">  1       21 0.56275955E-01 0.43502750E+03</pdfrwt>
<totfact> 0.25450618E+03</totfact>
</mgrwt>
</event>
<event>
 4    1  0.4758708E-002  0.5939371E+03  0.7818608E-02  0.9918065E-01
         21   -1    0    0  501  502  0.00000000000E+00  0.00000000000E+00  0.40716421518E+03  0.40716421518E+03  0.00000000000E+00 0.  1.
         21   -1    0    0  502  503 -0.00000000000E+00 -0.00000000000E+00 -0.87462386722E+03  0.87462386722E+03  0.00000000000E+00 0. -1.
    9000007    1    1    2  501    0 -0.42758909711E+03  0.99643838691E+02 -0.17153046974E+03  0.61821034657E+03  0.40000000000E+03 0. -1.
   -9000007    1    1    2    0  503  0.42758909711E+03 -0.99643838691E+02 -0.29592918230E+03  0.66357773583E+03  0.40000000000E+03 0.  1.
<mgrwt>
<rscale>  2 0.59393714E+03</rscale>
<asrwt>0</asrwt>
<pdfrwt beam="1">  1       21 0.62640649E-01 0.59393714E+03</pdfrwt>
<pdfrwt beam="2">  1       21 0.13455752E+00 0.59393714E+03</pdfrwt>
<totfact> 0.74717233E+02</totfact>
</mgrwt>
</event>
<event>
 4    1  0.4758708E-002  0.4135684E+03  0.7818608E-02  0.1039180E+00
         21   -1    0    0  501  502  0.00000000000E+00  0.00000000000E+00  0.32355677208E+03  0.32355677208E+03  0.00000000000E+00 0.  1.
         21   -1    0    0  502  503 -0.00000000000E+00 -0.00000000000E+00 -0.65949146883E+03  0.65949146883E+03  0.00000000000E+00 0. -1.
    9000007    1    1    2  501    0 -0.10495778284E+03  0.47627368090E+01  0.50990999042E+02  0.41670001419E+03  0.40000000000E+03 0.  1.
   -9000007    1    1    2    0  503  0.10495778284E+03 -0.47627368090E+01 -0.38692569579E+03  0.56634822672E+03  0.40000000000E+03 0. -1.
<mgrwt>
<rscale>  2 0.41356840E+03</rscale>
<asrwt>0</asrwt>
<pdfrwt beam="1">  1       21 0.49777966E-01 0.41356840E+03</pdfrwt>
<pdfrwt beam="2">  1       21 0.10146022E+00 0.41356840E+03</pdfrwt>
<totfact> 0.26818780E+03</totfact>
</mgrwt>
</event>
<event>
 4    1  0.4758708E-002  0.4823578E+03  0.7818608E-02  0.1018489E+00
         21   -1    0    0  503  502  0.00000000000E+00  0.00000000000E+00  0.18577332986E+03  0.18577332986E+03  0.00000000000E+00 0. -1.
         21   -1    0    0  501  503 -0.00000000000E+00 -0.00000000000E+00 -0.14401991732E+04  0.14401991732E+04  0.00000000000E+00 0.  1.
    9000007    1    1    2  501    0 -0.19320509857E+03  0.18799160985E+03 -0.92076020720E+03  0.10394558262E+04  0.40000000000E+03 0.  1.
   -9000007    1    1    2    0  502  0.19320509857E+03 -0.18799160985E+03 -0.33366563617E+03  0.58651667687E+03  0.40000000000E+03 0. -1.
<mgrwt>
<rscale>  2 0.48235781E+03</rscale>
<asrwt>0</asrwt>
<pdfrwt beam="1">  1       21 0.28580513E-01 0.48235781E+03</pdfrwt>
<pdfrwt beam="2">  1       21 0.22156910E+00 0.48235781E+03</pdfrwt>
<totfact> 0.94013558E+02</totfact>
</mgrwt>
</event>
<event>
 4    1  0.4758708E-002  0.4456766E+03  0.7818608E-02  0.1029019E+00
         21   -1    0    0  501  502  0.00000000000E+00  0.00000000000E+00  0.22110373293E+03  0.22110373293E+03  0.00000000000E+00 0.  1.
         21   -1    0    0  502  503 -0.00000000000E+00 -0.00000000000E+00 -0.16808608936E+04  0.16808608936E+04  0.00000000000E+00 0.  1.
    9000007    1    1    2  501    0  0.11700224662E+03 -0.15791805282E+03 -0.81015773849E+02  0.45298034475E+03  0.40000000000E+03 0.  1.
   -9000007    1    1    2    0  503 -0.11700224662E+03  0.15791805282E+03 -0.13787413868E+04  0.14489842817E+04  0.40000000000E+03 0.  1.
<mgrwt>
<rscale>  2 0.44567661E+03</rscale>
<asrwt>0</asrwt>
<pdfrwt beam="1">  1       21 0.34015958E-01 0.44567661E+03</pdfrwt>
<pdfrwt beam="2">  1       21 0.25859399E+00 0.44567661E+03</pdfrwt>
<totfact> 0.39775684E+02</totfact>
</mgrwt>
</event>
<event>
 4    1  0.4758708E-002  0.5931002E+03  0.7818608E-02  0.9919825E-01
         21   -1    0    0  503  502  0.00000000000E+00  0.00000000000E+00  0.12957955524E+04  0.12957955524E+04  0.00000000000E+00 0.  1.
         21   -1    0    0  501  503 -0.00000000000E+00 -0.00000000000E+00 -0.43680310735E+03  0.43680310735E+03  0.00000000000E+00 0.  1.
    9000007    1    1    2  501    0  0.56875523471E+01 -0.43787615337E+03 -0.10347873209E+03  0.60205956677E+03  0.40000000000E+03 0.  1.
   -9000007    1    1    2    0  502 -0.56875523471E+01  0.43787615337E+03  0.96247117711E+03  0.11305390930E+04  0.40000000000E+03 0.  1.
<mgrwt>
<rscale>  2 0.59310022E+03</rscale>
<asrwt>0</asrwt>
<pdfrwt beam="1">  1       21 0.19935316E+00 0.59310022E+03</pdfrwt>
<pdfrwt beam="2">  1       21 0.67200479E-01 0.59310022E+03</pdfrwt>
<totfact> 0.20846867E+02</totfact>
</mgrwt>
</event>
<event>
 4    1  0.4758708E-002  0.5462823E+03  0.7818608E-02  0.1002358E+00
         21   -1    0    0  503  502  0.00000000000E+00  0.00000000000E+00  0.82207421887E+03  0.82207421887E+03  0.00000000000E+00 0. -1.
         21   -1    0    0  501  503 -0.00000000000E+00 -0.00000000000E+00 -0.36386478802E+03  0.36386478802E+03  0.00000000000E+00 0. -1.
    9000007    1    1    2  501    0  0.36023128694E+03  0.93047291862E+02  0.20043024926E+03  0.58189059404E+03  0.40000000000E+03 0. -1.
   -9000007    1    1    2    0  502 -0.36023128694E+03 -0.93047291862E+02  0.25777918160E+03  0.60404841286E+03  0.40000000000E+03 0. -1.
<mgrwt>
<rscale>  2 0.54628233E+03</rscale>
<asrwt>0</asrwt>
<pdfrwt beam="1">  1       21 0.12647296E+00 0.54628233E+03</pdfrwt>
<pdfrwt beam="2">  1       21 0.55979198E-01 0.54628233E+03</pdfrwt>
<totfact> 0.11428454E+03</totfact>
</mgrwt>
</event>
<event>
 4    1  0.4758708E-002  0.4170261E+03  0.7818608E-02  0.1038039E+00
         21   -1    0    0  501  502  0.00000000000E+00  0.00000000000E+00  0.38664176527E+03  0.38664176527E+03  0.00000000000E+00 0. -1.
         21   -1    0    0  502  503 -0.00000000000E+00 -0.00000000000E+00 -0.14183607903E+04  0.14183607903E+04  0.00000000000E+00 0. -1.
    9000007    1    1    2  501    0 -0.40222982667E+02  0.11087308109E+03  0.22993354550E+03  0.47621440948E+03  0.40000000000E+03 0. -1.
   -9000007    1    1    2    0  503  0.40222982667E+02 -0.11087308109E+03 -0.12616525705E+04  0.13287881461E+04  0.40000000000E+03 0. -1.
<mgrwt>
<rscale>  2 0.41702605E+03</rscale>
<asrwt>0</asrwt>
<pdfrwt beam="1">  1       21 0.59483349E-01 0.41702605E+03</pdfrwt>
<pdfrwt beam="2">  1       21 0.21820935E+00 0.41702605E+03</pdfrwt>
<totfact> 0.22357716E+02</totfact>
</mgrwt>
</event>
<event>
 4    1  0.4758708E-002  0.8396922E+03  0.7818608E-02  0.9504277E-01
         21   -1    0    0  503  502  0.00000000000E+00  0.00000000000E+00  0.41719231369E+03  0.41719231369E+03  0.00000000000E+00 0.  1.
         21   -1    0    0  501  503 -0.00000000000E+00 -0.00000000000E+00 -0.21161189055E+04  0.21161189055E+04  0.00000000000E+00 0.  1.
    9000007    1    1    2  501    0 -0.22537916953E+02  0.73795329846E+03 -0.28110828656E+03  0.88549697751E+03  0.40000000000E+03 0.  1.
   -9000007    1    1    2    0  502  0.22537916953E+02 -0.73795329846E+03 -0.14178183053E+04  0.16478142417E+04  0.40000000000E+03 0.  1.
<mgrwt>
<rscale>  2 0.83969222E+03</rscale>
<asrwt>0</asrwt>
<pdfrwt beam="1">  1       21 0.64183432E-01 0.83969222E+03</pdfrwt>
<pdfrwt beam="2">  1       21 0.32555676E+00 0.83969222E+03</pdfrwt>
<totfact> 0.33839814E+01</totfact>
</mgrwt>
</event>
<event>
 4    1  0.4758708E-002  0.4807462E+03  0.7818608E-02  0.1018930E+00
         21   -1    0    0  501  502  0.00000000000E+00  0.00000000000E+00  0.46806780477E+03  0.46806780477E+03  0.00000000000E+00 0. -1.
         21   -1    0    0  502  503 -0.00000000000E+00 -0.00000000000E+00 -0.81102451829E+03  0.81102451829E+03  0.00000000000E+00 0. -1.
    9000007    1    1    2  501    0 -0.16558343857E+03  0.20904303343E+03  0.22852187098E+03  0.53229607407E+03  0.40000000000E+03 0. -1.
   -9000007    1    1    2    0  503  0.16558343857E+03 -0.20904303343E+03 -0.57147858450E+03  0.74679624899E+03  0.40000000000E+03 0. -1.
<mgrwt>
<rscale>  2 0.48074615E+03</rscale>
<asrwt>0</asrwt>
<pdfrwt beam="1">  1       21 0.72010432E-01 0.48074615E+03</pdfrwt>
<pdfrwt beam="2">  1       21 0.12477300E+00 0.48074615E+03</pdfrwt>
<totfact> 0.69315923E+02</totfact>
</mgrwt>
</event>
<event>
 4    1  0.4758708E-002  0.4066546E+03  0.7818608E-02  0.1041499E+00
         21   -1    0    0  503  502  0.00000000000E+00  0.00000000000E+00  0.27300229489E+04  0.27300229489E+04  0.00000000000E+00 0. -1.
         21   -1    0    0  501  503 -0.00000000000E+00 -0.00000000000E+00 -0.92690474234E+02  0.92690474234E+02  0.00000000000E+00 0. -1.
    9000007    1    1    2  501    0  0.72801431939E+02 -0.82398621667E+01  0.48788950130E+03  0.63514101529E+03  0.40000000000E+03 0. -1.
   -9000007    1    1    2    0  502 -0.72801431939E+02  0.82398621667E+01  0.21494429734E+04  0.21875724078E+04  0.40000000000E+03 0. -1.
<mgrwt>
<rscale>  2 0.40665458E+03</rscale>
<asrwt>0</asrwt>
<pdfrwt beam="1">  1       21 0.42000347E+00 0.40665458E+03</pdfrwt>
<pdfrwt beam="2">  1       21 0.14260075E-01 0.40665458E+03</pdfrwt>
<totfact> 0.22013316E+02</totfact>
</mgrwt>
</event>
<event>
 4    1  0.4758708E-002  0.5267158E+03  0.7818608E-02  0.1007032E+00
         21   -1    0    0  501  502  0.00000000000E+00  0.00000000000E+00  0.23114592229E+03  0.23114592229E+03  0.00000000000E+00 0. -1.
         21   -1    0    0  502  503 -0.00000000000E+00 -0.00000000000E+00 -0.12705509995E+04  0.12705509995E+04  0.00000000000E+00 0. -1.
    9000007    1    1    2  501    0 -0.31799009829E+03 -0.12771779024E+03 -0.34306547173E+03  0.62858846191E+03  0.40000000000E+03 0. -1.
   -9000007    1    1    2    0  503  0.31799009829E+03  0.12771779024E+03 -0.69633960548E+03  0.87310845988E+03  0.40000000000E+03 0. -1.
<mgrwt>
<rscale>  2 0.52671580E+03</rscale>
<asrwt>0</asrwt>
<pdfrwt beam="1">  1       21 0.35560912E-01 0.52671580E+03</pdfrwt>
<pdfrwt beam="2">  1       21 0.19546938E+00 0.52671580E+03</pdfrwt>
<totfact> 0.88425684E+02</totfact>
</mgrwt>
</event>
<event>
 4    1  0.4758708E-002  0.4438466E+03  0.7818608E-02  0.1029573E+00
         21   -1    0    0  503  502  0.00000000000E+00  0.00000000000E+00  0.96280934609E+03  0.96280934609E+03  0.00000000000E+00 0. -1.
         21   -1    0    0  501  503 -0.00000000000E+00 -0.00000000000E+00 -0.40962987394E+03  0.40962987394E+03  0.00000000000E+00 0. -1.
    9000007    1    1    2  501    0 -0.57457241321E+02 -0.18357138081E+03 -0.20888428215E+03  0.49054299481E+03  0.40000000000E+03 0. -1.
   -9000007    1    1    2    0  502  0.57457241321E+02  0.18357138081E+03  0.76206375430E+03  0.88189622521E+03  0.40000000000E+03 0. -1.
<mgrwt>
<rscale>  2 0.44384658E+03</rscale>
<asrwt>0</asrwt>
<pdfrwt beam="1">  1       21 0.14812451E+00 0.44384658E+03</pdfrwt>
<pdfrwt beam="2">  1       21 0.63019981E-01 0.44384658E+03</pdfrwt>
<totfact> 0.60400549E+02</totfact>
</mgrwt>
</event>
<event>
 4    1  0.4758708E-002  0.4046455E+03  0.7818608E-02  0.1042183E+00
         21   -1    0    0  503  502  0.00000000000E+00  0.00000000000E+00  0.39355563181E+03  0.39355563181E+03  0.00000000000E+00 0. -1.
         21   -1    0    0  501  503 -0.00000000000E+00 -0.00000000000E+00 -0.44930196881E+03  0.44930196881E+03  0.00000000000E+00 0. -1.
    9000007    1    1    2  501    0 -0.59733587051E+02 -0.13035236039E+02 -0.14252395479E+03  0.42901176731E+03  0.40000000000E+03 0. -1.
   -9000007    1    1    2    0  502  0.59733587051E+02  0.13035236039E+02  0.86777617793E+02  0.41384583331E+03  0.40000000000E+03 0. -1.
<mgrwt>
<rscale>  2 0.40464555E+03</rscale>
<asrwt>0</asrwt>
<pdfrwt beam="1">  1       21 0.60547020E-01 0.40464555E+03</pdfrwt>
<pdfrwt beam="2">  1       21 0.69123380E-01 0.40464555E+03</pdfrwt>
<totfact> 0.43151311E+03</totfact>
</mgrwt>
</event>
<event>
 4    1  0.4758708E-002  0.4666015E+03  0.7818608E-02  0.1022884E+00
         21   -1    0    0  503  502  0.00000000000E+00  0.00000000000E+00  0.69507117166E+03  0.69507117166E+03  0.00000000000E+00 0.  1.
         21   -1    0    0  501  503 -0.00000000000E+00 -0.00000000000E+00 -0.33515899676E+03  0.33515899676E+03  0.00000000000E+00 0. -1.
    9000007    1    1    2  501    0  0.50662215328E+02  0.23484110052E+03  0.31171809726E+03  0.56114630420E+03  0.40000000000E+03 0.  1.
   -9000007    1    1    2    0  502 -0.50662215328E+02 -0.23484110052E+03  0.48194077647E+02  0.46908386422E+03  0.40000000000E+03 0. -1.
<mgrwt>
<rscale>  2 0.46660155E+03</rscale>
<asrwt>0</asrwt>
<pdfrwt beam="1">  1       21 0.10693403E+00 0.46660155E+03</pdfrwt>
<pdfrwt beam="2">  1       21 0.51562923E-01 0.46660155E+03</pdfrwt>
<totfact> 0.21433618E+03</totfact>
</mgrwt>
</event>
<event>
 4    1  0.4758708E-002  0.4450947E+03  0.7818608E-02  0.1029195E+00
         21   -1    0    0  503  502  0.00000000000E+00  0.00000000000E+00  0.66951588066E+03  0.66951588066E+03  0.00000000000E+00 0.  1.
         21   -1    0    0  501  503 -0.00000000000E+00 -0.00000000000E+00 -0.58086840114E+03  0.58086840114E+03  0.00000000000E+00 0.  1.
    9000007    1    1    2  501    0  0.16300576270E+03  0.10741704281E+03 -0.39357480141E+03  0.59414680346E+03  0.40000000000E+03 0.  1.
   -9000007    1    1    2    0  502 -0.16300576270E+03 -0.10741704281E+03  0.48222228093E+03  0.65623747835E+03  0.40000000000E+03 0.  1.
<mgrwt>
<rscale>  2 0.44509471E+03</rscale>
<asrwt>0</asrwt>
<pdfrwt beam="1">  1       21 0.10300244E+00 0.44509471E+03</pdfrwt>
<pdfrwt beam="2">  1       21 0.89364370E-01 0.44509471E+03</pdfrwt>
<totfact> 0.69025662E+02</totfact>
</mgrwt>
</event>
<event>
 4    1  0.4758708E-002  0.4243940E+03  0.7818608E-02  0.1035646E+00
         21   -1    0    0  503  502  0.00000000000E+00  0.00000000000E+00  0.18656623128E+03  0.18656623128E+03  0.00000000000E+00 0.  1.
         21   -1    0    0  501  503 -0.00000000000E+00 -0.00000000000E+00 -0.16239743332E+04  0.16239743332E+04  0.00000000000E+00 0.  1.
    9000007    1    1    2  501    0 -0.10880098349E+03  0.90953940545E+02 -0.12951949269E+04  0.13629527402E+04  0.40000000000E+03 0.  1.
   -9000007    1    1    2    0  502  0.10880098349E+03 -0.90953940545E+02 -0.14221317502E+03  0.44758782430E+03  0.40000000000E+03 0.  1.
<mgrwt>
<rscale>  2 0.42439401E+03</rscale>
<asrwt>0</asrwt>
<pdfrwt beam="1">  1       21 0.28702497E-01 0.42439401E+03</pdfrwt>
<pdfrwt beam="2">  1       21 0.24984220E+00 0.42439401E+03</pdfrwt>
<totfact> 0.63875443E+02</totfact>
</mgrwt>
</event>
<event>
 4    1  0.4758708E-002  0.4533695E+03  0.7818608E-02  0.1026722E+00
         21   -1    0    0  503  502  0.00000000000E+00  0.00000000000E+00  0.67671315288E+03  0.67671315288E+03  0.00000000000E+00 0. -1.
         21   -1    0    0  501  503 -0.00000000000E+00 -0.00000000000E+00 -0.38624509205E+03  0.38624509205E+03  0.00000000000E+00 0. -1.
    9000007    1    1    2  501    0  0.13420419693E+03 -0.16593108839E+03 -0.10040582577E+03  0.46435463002E+03  0.40000000000E+03 0. -1.
   -9000007    1    1    2    0  502 -0.13420419693E+03  0.16593108839E+03  0.39087388660E+03  0.59860361492E+03  0.40000000000E+03 0. -1.
<mgrwt>
<rscale>  2 0.45336949E+03</rscale>
<asrwt>0</asrwt>
<pdfrwt beam="1">  1       21 0.10410972E+00 0.45336949E+03</pdfrwt>
<pdfrwt beam="2">  1       21 0.59422322E-01 0.45336949E+03</pdfrwt>
<totfact> 0.16929528E+03</totfact>
</mgrwt>
</event>
<event>
 4    1  0.4758708E-002  0.4374138E+03  0.7818608E-02  0.1031543E+00
         21   -1    0    0  501  502  0.00000000000E+00  0.00000000000E+00  0.79183346242E+03  0.79183346242E+03  0.00000000000E+00 0.  1.
         21   -1    0    0  502  503 -0.00000000000E+00 -0.00000000000E+00 -0.54935853142E+03  0.54935853142E+03  0.00000000000E+00 0.  1.
    9000007    1    1    2  501    0 -0.56869463168E+01  0.17691386377E+03  0.62313698501E+03  0.76133472181E+03  0.40000000000E+03 0.  1.
   -9000007    1    1    2    0  503  0.56869463168E+01 -0.17691386377E+03 -0.38066205402E+03  0.57985727203E+03  0.40000000000E+03 0.  1.
<mgrwt>
<rscale>  2 0.43741383E+03</rscale>
<asrwt>0</asrwt>
<pdfrwt beam="1">  1       21 0.12182053E+00 0.43741383E+03</pdfrwt>
<pdfrwt beam="2">  1       21 0.84516697E-01 0.43741383E+03</pdfrwt>
<totfact> 0.51971712E+02</totfact>
</mgrwt>
</event>
<event>
 4    1  0.4758708E-002  0.4026342E+03  0.7818608E-02  0.1042871E+00
         21   -1    0    0  503  502  0.00000000000E+00  0.00000000000E+00  0.45812961764E+03  0.45812961764E+03  0.00000000000E+00 0.  1.
         21   -1    0    0  501  503 -0.00000000000E+00 -0.00000000000E+00 -0.47360471909E+03  0.47360471909E+03  0.00000000000E+00 0.  1.
    9000007    1    1    2  501    0  0.32232655989E+02  0.32792499461E+02 -0.24198783109E+03  0.46975781263E+03  0.40000000000E+03 0.  1.
   -9000007    1    1    2    0  502 -0.32232655989E+02 -0.32792499461E+02  0.22651272964E+03  0.46197652410E+03  0.40000000000E+03 0.  1.
<mgrwt>
<rscale>  2 0.40263419E+03</rscale>
<asrwt>0</asrwt>
<pdfrwt beam="1">  1       21 0.70481480E-01 0.40263419E+03</pdfrwt>
<pdfrwt beam="2">  1       21 0.72862264E-01 0.40263419E+03</pdfrwt>
<totfact> 0.27378513E+03</totfact>
</mgrwt>
</event>
<event>
 4    1  0.4758708E-002  0.5003361E+03  0.7818608E-02  0.1013691E+00
         21   -1    0    0  503  502  0.00000000000E+00  0.00000000000E+00  0.80468647241E+03  0.80468647241E+03  0.00000000000E+00 0. -1.
         21   -1    0    0  501  503 -0.00000000000E+00 -0.00000000000E+00 -0.50547855621E+03  0.50547855621E+03  0.00000000000E+00 0.  1.
    9000007    1    1    2  501    0 -0.27370785943E+03  0.12417830926E+03 -0.25662529883E+03  0.56231022470E+03  0.40000000000E+03 0.  1.
   -9000007    1    1    2    0  502  0.27370785943E+03 -0.12417830926E+03  0.55583321504E+03  0.74785480392E+03  0.40000000000E+03 0. -1.
<mgrwt>
<rscale>  2 0.50033613E+03</rscale>
<asrwt>0</asrwt>
<pdfrwt beam="1">  1       21 0.12379792E+00 0.50033613E+03</pdfrwt>
<pdfrwt beam="2">  1       21 0.77765932E-01 0.50033613E+03</pdfrwt>
<totfact> 0.58865970E+02</totfact>
</mgrwt>
</event>
<event>
 4    1  0.4758708E-002  0.4789780E+03  0.7818608E-02  0.1019416E+00
         21   -1    0    0  501  502  0.00000000000E+00  0.00000000000E+00  0.12175454902E+04  0.12175454902E+04  0.00000000000E+00 0.  1.
         21   -1    0    0  502  503 -0.00000000000E+00 -0.00000000000E+00 -0.20258623343E+03  0.20258623343E+03  0.00000000000E+00 0.  1.
    9000007    1    1    2  501    0  0.11967657752E+01 -0.26347396915E+03  0.31976661340E+03  0.57590854457E+03  0.40000000000E+03 0.  1.
   -9000007    1    1    2    0  503 -0.11967657752E+01  0.26347396915E+03  0.69519264333E+03  0.84422317903E+03  0.40000000000E+03 0.  1.
<mgrwt>
<rscale>  2 0.47897804E+03</rscale>
<asrwt>0</asrwt>
<pdfrwt beam="1">  1       21 0.18731469E+00 0.47897804E+03</pdfrwt>
<pdfrwt beam="2">  1       21 0.31167114E-01 0.47897804E+03</pdfrwt>
<totfact> 0.13370159E+03</totfact>
</mgrwt>
</event>
<event>
 4    1  0.4758708E-002  0.5224112E+03  0.7818608E-02  0.1008089E+00
         21   -1    0    0  501  502  0.00000000000E+00  0.00000000000E+00  0.10691860057E+04  0.10691860057E+04  0.00000000000E+00 0. -1.
         21   -1    0    0  502  503 -0.00000000000E+00 -0.00000000000E+00 -0.36590098343E+03  0.36590098343E+03  0.00000000000E+00 0. -1.
    9000007    1    1    2  501    0  0.25944826067E+03  0.21354182670E+03  0.74622439047E+03  0.91091402045E+03  0.40000000000E+03 0. -1.
   -9000007    1    1    2    0  503 -0.25944826067E+03 -0.21354182670E+03 -0.42939368233E+02  0.52417296865E+03  0.40000000000E+03 0. -1.
<mgrwt>
<rscale>  2 0.52241125E+03</rscale>
<asrwt>0</asrwt>
<pdfrwt beam="1">  1       21 0.16449015E+00 0.52241125E+03</pdfrwt>
<pdfrwt beam="2">  1       21 0.56292459E-01 0.52241125E+03</pdfrwt>
<totfact> 0.55994306E+02</totfact>
</mgrwt>
</event>
<event>
 4    1  0.4758708E-002  0.4131174E+03  0.7818608E-02  0.1039330E+00
         21   -1    0    0  501  502  0.00000000000E+00  0.00000000000E+00  0.51906213187E+03  0.51906213187E+03  0.00000000000E+00 0. -1.
         21   -1    0    0  502  503 -0.00000000000E+00 -0.00000000000E+00 -0.39656310066E+03  0.39656310066E+03  0.00000000000E+00 0. -1.
    9000007    1    1    2  501    0  0.45393007861E+02  0.92765777299E+02  0.25050052611E+03  0.48313199871E+03  0.40000000000E+03 0. -1.
   -9000007    1    1    2    0  503 -0.45393007861E+02 -0.92765777299E+02 -0.12800149490E+03  0.43249323382E+03  0.40000000000E+03 0. -1.
<mgrwt>
<rscale>  2 0.41311743E+03</rscale>
<asrwt>0</asrwt>
<pdfrwt beam="1">  1       21 0.79855713E-01 0.41311743E+03</pdfrwt>
<pdfrwt beam="2">  1       21 0.61009708E-01 0.41311743E+03</pdfrwt>
<totfact> 0.30472724E+03</totfact>
</mgrwt>
</event>
<event>
 4    1  0.4758708E-002  0.4057036E+03  0.7818608E-02  0.1041822E+00
         21   -1    0    0  503  502  0.00000000000E+00  0.00000000000E+00  0.29796936137E+03  0.29796936137E+03  0.00000000000E+00 0.  1.
         21   -1    0    0  501  503 -0.00000000000E+00 -0.00000000000E+00 -0.13329736296E+04  0.13329736296E+04  0.00000000000E+00 0.  1.
    9000007    1    1    2  501    0  0.63850174101E+02 -0.22772457403E+02 -0.11415351973E+04  0.12114858795E+04  0.40000000000E+03 0.  1.
   -9000007    1    1    2    0  502 -0.63850174101E+02  0.22772457403E+02  0.10653092903E+03  0.41945711150E+03  0.40000000000E+03 0.  1.
<mgrwt>
<rscale>  2 0.40570362E+03</rscale>
<asrwt>0</asrwt>
<pdfrwt beam="1">  1       21 0.45841440E-01 0.40570362E+03</pdfrwt>
<pdfrwt beam="2">  1       21 0.20507287E+00 0.40570362E+03</pdfrwt>
<totfact> 0.47775130E+02</totfact>
</mgrwt>
</event>
<event>
 4    1  0.4758708E-002  0.5301002E+03  0.7818608E-02  0.1006208E+00
         21   -1    0    0  503  502  0.00000000000E+00  0.00000000000E+00  0.42708704452E+03  0.42708704452E+03  0.00000000000E+00 0. -1.
         21   -1    0    0  501  503 -0.00000000000E+00 -0.00000000000E+00 -0.65824834951E+03  0.65824834951E+03  0.00000000000E+00 0. -1.
    9000007    1    1    2  501    0 -0.14219693979E+03  0.31746845663E+03 -0.12693862365E+03  0.54508678650E+03  0.40000000000E+03 0. -1.
   -9000007    1    1    2    0  502  0.14219693979E+03 -0.31746845663E+03 -0.10422268134E+03  0.54024860754E+03  0.40000000000E+03 0. -1.
<mgrwt>
<rscale>  2 0.53010017E+03</rscale>
<asrwt>0</asrwt>
<pdfrwt beam="1">  1       21 0.65705699E-01 0.53010017E+03</pdfrwt>
<pdfrwt beam="2">  1       21 0.10126898E+00 0.53010017E+03</pdfrwt>
<totfact> 0.14117091E+03</totfact>
</mgrwt>
</event>
<event>
 4    1  0.4758708E-002  0.5215578E+03  0.7818608E-02  0.1008300E+00
         21   -1    0    0  501  502  0.00000000000E+00  0.00000000000E+00  0.54493437813E+03  0.54493437813E+03  0.00000000000E+00 0. -1.
         21   -1    0    0  502  503 -0.00000000000E+00 -0.00000000000E+00 -0.60785970844E+03  0.60785970844E+03  0.00000000000E+00 0.  1.
    9000007    1    1    2  501    0  0.31883489576E+03 -0.10181785110E+03  0.21225451699E+03  0.56309372714E+03  0.40000000000E+03 0. -1.
   -9000007    1    1    2    0  503 -0.31883489576E+03  0.10181785110E+03 -0.27517984730E+03  0.58970035944E+03  0.40000000000E+03 0.  1.
<mgrwt>
<rscale>  2 0.52155783E+03</rscale>
<asrwt>0</asrwt>
<pdfrwt beam="1">  1       21 0.83836059E-01 0.52155783E+03</pdfrwt>
<pdfrwt beam="2">  1       21 0.93516878E-01 0.52155783E+03</pdfrwt>
<totfact> 0.98368018E+02</totfact>
</mgrwt>
</event>
<event>
 4    1  0.4758708E-002  0.4029526E+03  0.7818608E-02  0.1042762E+00
         21   -1    0    0  503  502  0.00000000000E+00  0.00000000000E+00  0.11450795197E+03  0.11450795197E+03  0.00000000000E+00 0.  1.
         21   -1    0    0  501  503 -0.00000000000E+00 -0.00000000000E+00 -0.14765382222E+04  0.14765382222E+04  0.00000000000E+00 0.  1.
    9000007    1    1    2  501    0  0.23193457982E+02  0.42811861220E+02 -0.83943085390E+03  0.93113637585E+03  0.40000000000E+03 0.  1.
   -9000007    1    1    2    0  502 -0.23193457982E+02 -0.42811861220E+02 -0.52259941632E+03  0.65990979830E+03  0.40000000000E+03 0.  1.
<mgrwt>
<rscale>  2 0.40295259E+03</rscale>
<asrwt>0</asrwt>
<pdfrwt beam="1">  1       21 0.17616608E-01 0.40295259E+03</pdfrwt>
<pdfrwt beam="2">  1       21 0.22715973E+00 0.40295259E+03</pdfrwt>
<totfact> 0.22828313E+03</totfact>
</mgrwt>
</event>
<event>
 4    1  0.4758708E-002  0.5349396E+03  0.7818608E-02  0.1005041E+00
         21   -1    0    0  501  502  0.00000000000E+00  0.00000000000E+00  0.17505147987E+03  0.17505147987E+03  0.00000000000E+00 0. -1.
         21   -1    0    0  502  503 -0.00000000000E+00 -0.00000000000E+00 -0.20199797893E+04  0.20199797893E+04  0.00000000000E+00 0.  1.
    9000007    1    1    2  501    0 -0.46196233450E+02 -0.35217371386E+03 -0.44315778247E+03  0.69465764005E+03  0.40000000000E+03 0. -1.
   -9000007    1    1    2    0  503  0.46196233450E+02  0.35217371386E+03 -0.14017705269E+04  0.15003736291E+04  0.40000000000E+03 0.  1.
<mgrwt>
<rscale>  2 0.53493964E+03</rscale>
<asrwt>0</asrwt>
<pdfrwt beam="1">  1       21 0.26930997E-01 0.53493964E+03</pdfrwt>
<pdfrwt beam="2">  1       21 0.31076612E+00 0.53493964E+03</pdfrwt>
<totfact> 0.29204122E+02</totfact>
</mgrwt>
</event>
<event>
 4    1  0.4758708E-002  0.5083017E+03  0.7818608E-02  0.1011634E+00
         21   -1    0    0  503  502  0.00000000000E+00  0.00000000000E+00  0.11119996382E+04  0.11119996382E+04  0.00000000000E+00 0. -1.
         21   -1    0    0  501  503 -0.00000000000E+00 -0.00000000000E+00 -0.33217514765E+03  0.33217514765E+03  0.00000000000E+00 0.  1.
    9000007    1    1    2  501    0 -0.30438795319E+03  0.75621125007E+02 -0.59381969069E+01  0.50833634808E+03  0.40000000000E+03 0.  1.
   -9000007    1    1    2    0  502  0.30438795319E+03 -0.75621125007E+02  0.78576268744E+03  0.93583843775E+03  0.40000000000E+03 0. -1.
<mgrwt>
<rscale>  2 0.50830166E+03</rscale>
<asrwt>0</asrwt>
<pdfrwt beam="1">  1       21 0.17107687E+00 0.50830166E+03</pdfrwt>
<pdfrwt beam="2">  1       21 0.51103870E-01 0.50830166E+03</pdfrwt>
<totfact> 0.62029548E+02</totfact>
</mgrwt>
</event>
<event>
 4    1  0.4758708E-002  0.4940975E+03  0.7818608E-02  0.1015331E+00
         21   -1    0    0  503  502  0.00000000000E+00  0.00000000000E+00  0.29805204945E+03  0.29805204945E+03  0.00000000000E+00 0. -1.
         21   -1    0    0  501  503 -0.00000000000E+00 -0.00000000000E+00 -0.82967733543E+03  0.82967733543E+03  0.00000000000E+00 0.  1.
    9000007    1    1    2  501    0 -0.84684178462E+02  0.27741837828E+03 -0.32949963742E+03  0.59388751270E+03  0.40000000000E+03 0.  1.
   -9000007    1    1    2    0  502  0.84684178462E+02 -0.27741837828E+03 -0.20212564856E+03  0.53384187218E+03  0.40000000000E+03 0. -1.
<mgrwt>
<rscale>  2 0.49409753E+03</rscale>
<asrwt>0</asrwt>
<pdfrwt beam="1">  1       21 0.45854162E-01 0.49409753E+03</pdfrwt>
<pdfrwt beam="2">  1       21 0.12764266E+00 0.49409753E+03</pdfrwt>
<totfact> 0.17404944E+03</totfact>
</mgrwt>
</event>
<event>
 4    1  0.4758708E-002  0.5433806E+03  0.7818608E-02  0.1003038E+00
         21   -1    0    0  503  502  0.00000000000E+00  0.00000000000E+00  0.43045172651E+03  0.43045172651E+03  0.00000000000E+00 0. -1.
         21   -1    0    0  501  503 -0.00000000000E+00 -0.00000000000E+00 -0.78581882845E+03  0.78581882845E+03  0.00000000000E+00 0.  1.
    9000007    1    1    2  501    0  0.12305972652E+03 -0.34658150445E+03 -0.39449583910E+03  0.67148298756E+03  0.40000000000E+03 0.  1.
   -9000007    1    1    2    0  502 -0.12305972652E+03  0.34658150445E+03  0.39128737158E+02  0.54478756739E+03  0.40000000000E+03 0.  1.
<mgrwt>
<rscale>  2 0.54338056E+03</rscale>
<asrwt>0</asrwt>
<pdfrwt beam="1">  1       21 0.66223344E-01 0.54338056E+03</pdfrwt>
<pdfrwt beam="2">  1       21 0.12089520E+00 0.54338056E+03</pdfrwt>
<totfact> 0.88695033E+02</totfact>
</mgrwt>
</event>
<event>
 4    1  0.4758708E-002  0.4800529E+03  0.7818608E-02  0.1019121E+00
         21   -1    0    0  503  502  0.00000000000E+00  0.00000000000E+00  0.31499608534E+03  0.31499608534E+03  0.00000000000E+00 0.  1.
         21   -1    0    0  501  503 -0.00000000000E+00 -0.00000000000E+00 -0.74116337259E+03  0.74116337259E+03  0.00000000000E+00 0.  1.
    9000007    1    1    2  501    0  0.14765488587E+03 -0.22056487242E+03 -0.15309483395E+03  0.50387384974E+03  0.40000000000E+03 0.  1.
   -9000007    1    1    2    0  502 -0.14765488587E+03  0.22056487242E+03 -0.27307245330E+03  0.55228560819E+03  0.40000000000E+03 0.  1.
<mgrwt>
<rscale>  2 0.48005294E+03</rscale>
<asrwt>0</asrwt>
<pdfrwt beam="1">  1       21 0.48460937E-01 0.48005294E+03</pdfrwt>
<pdfrwt beam="2">  1       21 0.11402513E+00 0.48005294E+03</pdfrwt>
<totfact> 0.20750690E+03</totfact>
</mgrwt>
</event>
<event>
 4    1  0.4758708E-002  0.5174863E+03  0.7818608E-02  0.1009313E+00
         21   -1    0    0  503  502  0.00000000000E+00  0.00000000000E+00  0.38921875037E+03  0.38921875037E+03  0.00000000000E+00 0.  1.
         21   -1    0    0  501  503 -0.00000000000E+00 -0.00000000000E+00 -0.69804361929E+03  0.69804361929E+03  0.00000000000E+00 0.  1.
    9000007    1    1    2  501    0  0.10269951359E+03  0.31184112926E+03 -0.89283284287E+02  0.52513196898E+03  0.40000000000E+03 0.  1.
   -9000007    1    1    2    0  502 -0.10269951359E+03 -0.31184112926E+03 -0.21954158464E+03  0.56213040069E+03  0.40000000000E+03 0.  1.
<mgrwt>
<rscale>  2 0.51748631E+03</rscale>
<asrwt>0</asrwt>
<pdfrwt beam="1">  1       21 0.59879809E-01 0.51748631E+03</pdfrwt>
<pdfrwt beam="2">  1       21 0.10739132E+00 0.51748631E+03</pdfrwt>
<totfact> 0.15066717E+03</totfact>
</mgrwt>
</event>
<event>
 4    1  0.4758708E-002  0.5289405E+03  0.7818608E-02  0.1006489E+00
         21   -1    0    0  503  502  0.00000000000E+00  0.00000000000E+00  0.11576329867E+04  0.11576329867E+04  0.00000000000E+00 0.  1.
         21   -1    0    0  501  503 -0.00000000000E+00 -0.00000000000E+00 -0.32649676032E+03  0.32649676032E+03  0.00000000000E+00 0.  1.
    9000007    1    1    2  501    0  0.34091088390E+03 -0.59647180040E+02  0.37351629421E+02  0.53025763650E+03  0.40000000000E+03 0.  1.
   -9000007    1    1    2    0  502 -0.34091088390E+03  0.59647180040E+02  0.79378459695E+03  0.95387211051E+03  0.40000000000E+03 0.  1.
<mgrwt>
<rscale>  2 0.52894047E+03</rscale>
<asrwt>0</asrwt>
<pdfrwt beam="1">  1       21 0.17809738E+00 0.52894047E+03</pdfrwt>
<pdfrwt beam="2">  1       21 0.50230271E-01 0.52894047E+03</pdfrwt>
<totfact> 0.56810459E+02</totfact>
</mgrwt>
</event>
<event>
 4    1  0.4758708E-002  0.4684396E+03  0.7818608E-02  0.1022362E+00
         21   -1    0    0  503  502  0.00000000000E+00  0.00000000000E+00  0.71764322376E+03  0.71764322376E+03  0.00000000000E+00 0. -1.
         21   -1    0    0  501  503 -0.00000000000E+00 -0.00000000000E+00 -0.69355703780E+03  0.69355703780E+03  0.00000000000E+00 0. -1.
    9000007    1    1    2  501    0 -0.20213112131E+03  0.13630347783E+03 -0.51556658601E+03  0.69659495612E+03  0.40000000000E+03 0. -1.
   -9000007    1    1    2    0  502  0.20213112131E+03 -0.13630347783E+03  0.53965277197E+03  0.71460530544E+03  0.40000000000E+03 0. -1.
<mgrwt>
<rscale>  2 0.46843957E+03</rscale>
<asrwt>0</asrwt>
<pdfrwt beam="1">  1       21 0.11040665E+00 0.46843957E+03</pdfrwt>
<pdfrwt beam="2">  1       21 0.10670108E+00 0.46843957E+03</pdfrwt>
<totfact> 0.37492889E+02</totfact>
</mgrwt>
</event>
<event>
 4    1  0.4758708E-002  0.5236344E+03  0.7818608E-02  0.1007788E+00
         21   -1    0    0  501  502  0.00000000000E+00  0.00000000000E+00  0.31379843447E+03  0.31379843447E+03  0.00000000000E+00 0. -1.
         21   -1    0    0  502  503 -0.00000000000E+00 -0.00000000000E+00 -0.11164260543E+04  0.11164260543E+04  0.00000000000E+00 0.  1.
    9000007    1    1    2  501    0  0.30761788991E+03 -0.13987205894E+03 -0.73469391619E+03  0.90220181199E+03  0.40000000000E+03 0. -1.
   -9000007    1    1    2    0  503 -0.30761788991E+03  0.13987205894E+03 -0.67933703590E+02  0.52802267674E+03  0.40000000000E+03 0. -1.
<mgrwt>
<rscale>  2 0.52363438E+03</rscale>
<asrwt>0</asrwt>
<pdfrwt beam="1">  1       21 0.48276682E-01 0.52363438E+03</pdfrwt>
<pdfrwt beam="2">  1       21 0.17175786E+00 0.52363438E+03</pdfrwt>
<totfact> 0.68819018E+02</totfact>
</mgrwt>
</event>
<event>
 4    1  0.4758708E-002  0.4517390E+03  0.7818608E-02  0.1027205E+00
         21   -1    0    0  503  502  0.00000000000E+00  0.00000000000E+00  0.14440995986E+04  0.14440995986E+04  0.00000000000E+00 0.  1.
         21   -1    0    0  501  503 -0.00000000000E+00 -0.00000000000E+00 -0.18691912994E+03  0.18691912994E+03  0.00000000000E+00 0.  1.
    9000007    1    1    2  501    0  0.20978708107E+03 -0.75838838246E+01  0.22576191844E+03  0.50501146373E+03  0.40000000000E+03 0.  1.
   -9000007    1    1    2    0  502 -0.20978708107E+03  0.75838838246E+01  0.10314185502E+04  0.11260072648E+04  0.40000000000E+03 0.  1.
<mgrwt>
<rscale>  2 0.45173901E+03</rscale>
<asrwt>0</asrwt>
<pdfrwt beam="1">  1       21 0.22216916E+00 0.45173901E+03</pdfrwt>
<pdfrwt beam="2">  1       21 0.28756790E-01 0.45173901E+03</pdfrwt>
<totfact> 0.93378092E+02</totfact>
</mgrwt>
</event>
<event>
 4    1  0.4758708E-002  0.5093960E+03  0.7818608E-02  0.1011355E+00
         21   -1    0    0  501  502  0.00000000000E+00  0.00000000000E+00  0.30300617963E+03  0.30300617963E+03  0.00000000000E+00 0.  1.
         21   -1    0    0  502  503 -0.00000000000E+00 -0.00000000000E+00 -0.14055872845E+04  0.14055872845E+04  0.00000000000E+00 0.  1.
    9000007    1    1    2  501    0  0.31273247299E+03 -0.41019956268E+02 -0.17275554632E+02  0.50968880826E+03  0.40000000000E+03 0.  1.
   -9000007    1    1    2    0  503 -0.31273247299E+03  0.41019956268E+02 -0.10853055503E+04  0.11989046559E+04  0.40000000000E+03 0.  1.
<mgrwt>
<rscale>  2 0.50939595E+03</rscale>
<asrwt>0</asrwt>
<pdfrwt beam="1">  1       21 0.46616335E-01 0.50939595E+03</pdfrwt>
<pdfrwt beam="2">  1       21 0.21624420E+00 0.50939595E+03</pdfrwt>
<totfact> 0.37028988E+02</totfact>
</mgrwt>
</event>
<event>
 4    1  0.4758708E-002  0.5344459E+03  0.7818608E-02  0.1005160E+00
         21   -1    0    0  503  502  0.00000000000E+00  0.00000000000E+00  0.23262333126E+04  0.23262333126E+04  0.00000000000E+00 0. -1.
         21   -1    0    0  501  503 -0.00000000000E+00 -0.00000000000E+00 -0.16781575560E+03  0.16781575560E+03  0.00000000000E+00 0.  1.
    9000007    1    1    2  501    0  0.35240002403E+03 -0.38034818181E+02  0.17251620264E+04  0.18060499554E+04  0.40000000000E+03 0.  1.
   -9000007    1    1    2    0  502 -0.35240002403E+03  0.38034818181E+02  0.43325553066E+03  0.68799911277E+03  0.40000000000E+03 0. -1.
<mgrwt>
<rscale>  2 0.53444590E+03</rscale>
<asrwt>0</asrwt>
<pdfrwt beam="1">  1       21 0.35788203E+00 0.53444590E+03</pdfrwt>
<pdfrwt beam="2">  1       21 0.25817810E-01 0.53444590E+03</pdfrwt>
<totfact> 0.16327224E+02</totfact>
</mgrwt>
</event>
<event>
 4    1  0.4758708E-002  0.5521117E+03  0.7818608E-02  0.1001006E+00
         21   -1    0    0  503  502  0.00000000000E+00  0.00000000000E+00  0.29949599963E+03  0.29949599963E+03  0.00000000000E+00 0. -1.
         21   -1    0    0  501  503 -0.00000000000E+00 -0.00000000000E+00 -0.22801680787E+04  0.22801680787E+04  0.00000000000E+00 0.  1.
    9000007    1    1    2  501    0 -0.36509975211E+03  0.10737556460E+03 -0.19500516354E+04  0.20267039058E+04  0.40000000000E+03 0.  1.
   -9000007    1    1    2    0  502  0.36509975211E+03 -0.10737556460E+03 -0.30620443654E+02  0.55296017256E+03  0.40000000000E+03 0. -1.
<mgrwt>
<rscale>  2 0.55211171E+03</rscale>
<asrwt>0</asrwt>
<pdfrwt beam="1">  1       21 0.46076307E-01 0.55211171E+03</pdfrwt>
<pdfrwt beam="2">  1       21 0.35079510E+00 0.55211171E+03</pdfrwt>
<totfact> 0.55176631E+01</totfact>
</mgrwt>
</event>
<event>
 4    1  0.4758708E-002  0.4222496E+03  0.7818608E-02  0.1036337E+00
         21   -1    0    0  501  502  0.00000000000E+00  0.00000000000E+00  0.56733311877E+03  0.56733311877E+03  0.00000000000E+00 0.  1.
         21   -1    0    0  502  503 -0.00000000000E+00 -0.00000000000E+00 -0.50983713800E+03  0.50983713800E+03  0.00000000000E+00 0.  1.
    9000007    1    1    2  501    0  0.62855658925E+02  0.11976583503E+03  0.36231930552E+03  0.55639012235E+03  0.40000000000E+03 0.  1.
   -9000007    1    1    2    0  503 -0.62855658925E+02 -0.11976583503E+03 -0.30482332475E+03  0.52078013442E+03  0.40000000000E+03 0.  1.
<mgrwt>
<rscale>  2 0.42224956E+03</rscale>
<asrwt>0</asrwt>
<pdfrwt beam="1">  1       21 0.87282018E-01 0.42224956E+03</pdfrwt>
<pdfrwt beam="2">  1       21 0.78436483E-01 0.42224956E+03</pdfrwt>
<totfact> 0.14047487E+03</totfact>
</mgrwt>
</event>
<event>
 4    1  0.4758708E-002  0.6061437E+03  0.7818608E-02  0.9892741E-01
         21   -1    0    0  503  502  0.00000000000E+00  0.00000000000E+00  0.42928408039E+03  0.42928408039E+03  0.00000000000E+00 0. -1.
         21   -1    0    0  501  503 -0.00000000000E+00 -0.00000000000E+00 -0.14004298062E+04  0.14004298062E+04  0.00000000000E+00 0. -1.
    9000007    1    1    2  501    0 -0.31511003711E+03 -0.32880977908E+03 -0.10560606931E+04  0.12176511791E+04  0.40000000000E+03 0. -1.
   -9000007    1    1    2    0  502  0.31511003711E+03  0.32880977908E+03  0.84914967286E+02  0.61206270755E+03  0.40000000000E+03 0. -1.
<mgrwt>
<rscale>  2 0.60614372E+03</rscale>
<asrwt>0</asrwt>
<pdfrwt beam="1">  1       21 0.66043706E-01 0.60614372E+03</pdfrwt>
<pdfrwt beam="2">  1       21 0.21545073E+00 0.60614372E+03</pdfrwt>
<totfact> 0.16861602E+02</totfact>
</mgrwt>
</event>
<event>
 4    1  0.4758708E-002  0.4201452E+03  0.7818608E-02  0.1037019E+00
         21   -1    0    0  503  502  0.00000000000E+00  0.00000000000E+00  0.26886824056E+04  0.26886824056E+04  0.00000000000E+00 0.  1.
         21   -1    0    0  501  503 -0.00000000000E+00 -0.00000000000E+00 -0.69998083951E+02  0.69998083951E+02  0.00000000000E+00 0. -1.
    9000007    1    1    2  501    0  0.39253204048E+02 -0.12239767753E+03  0.16529723918E+04  0.17055320969E+04  0.40000000000E+03 0. -1.
   -9000007    1    1    2    0  502 -0.39253204048E+02  0.12239767753E+03  0.96571192982E+03  0.10531483926E+04  0.40000000000E+03 0.  1.
<mgrwt>
<rscale>  2 0.42014522E+03</rscale>
<asrwt>0</asrwt>
<pdfrwt beam="1">  1       21 0.41364337E+00 0.42014522E+03</pdfrwt>
<pdfrwt beam="2">  1       21 0.10768938E-01 0.42014522E+03</pdfrwt>
<totfact> 0.40029269E+02</totfact>
</mgrwt>
</event>
<event>
 4    1  0.4758708E-002  0.6079942E+03  0.7818608E-02  0.9888958E-01
         21   -1    0    0  501  502  0.00000000000E+00  0.00000000000E+00  0.11869096950E+04  0.11869096950E+04  0.00000000000E+00 0. -1.
         21   -1    0    0  502  503 -0.00000000000E+00 -0.00000000000E+00 -0.53508628245E+03  0.53508628245E+03  0.00000000000E+00 0.  1.
    9000007    1    1    2  501    0  0.17380166184E+03 -0.42361535202E+03 -0.23071789966E+03  0.65029818803E+03  0.40000000000E+03 0.  1.
   -9000007    1    1    2    0  503 -0.17380166184E+03  0.42361535202E+03  0.88254131225E+03  0.10716977895E+04  0.40000000000E+03 0. -1.
<mgrwt>
<rscale>  2 0.60799423E+03</rscale>
<asrwt>0</asrwt>
<pdfrwt beam="1">  1       21 0.18260149E+00 0.60799423E+03</pdfrwt>
<pdfrwt beam="2">  1       21 0.82320967E-01 0.60799423E+03</pdfrwt>
<totfact> 0.16986304E+02</totfact>
</mgrwt>
</event>
<event>
 4    1  0.4758708E-002  0.4714238E+03  0.7818608E-02  0.1021519E+00
         21   -1    0    0  503  502  0.00000000000E+00  0.00000000000E+00  0.58519683830E+03  0.58519683830E+03  0.00000000000E+00 0.  1.
         21   -1    0    0  501  503 -0.00000000000E+00 -0.00000000000E+00 -0.57009761729E+03  0.57009761729E+03  0.00000000000E+00 0.  1.
    9000007    1    1    2  501    0 -0.11690427510E+03 -0.22039454617E+03 -0.32621375775E+03  0.57328507853E+03  0.40000000000E+03 0.  1.
   -9000007    1    1    2    0  502  0.11690427510E+03  0.22039454617E+03  0.34131297875E+03  0.58200937706E+03  0.40000000000E+03 0.  1.
<mgrwt>
<rscale>  2 0.47142376E+03</rscale>
<asrwt>0</asrwt>
<pdfrwt beam="1">  1       21 0.90030283E-01 0.47142376E+03</pdfrwt>
<pdfrwt beam="2">  1       21 0.87707325E-01 0.47142376E+03</pdfrwt>
<totfact> 0.98677177E+02</totfact>
</mgrwt>
</event>
<event>
 4    1  0.4758708E-002  0.4411085E+03  0.7818608E-02  0.1030407E+00
         21   -1    0    0  501  502  0.00000000000E+00  0.00000000000E+00  0.55026110628E+03  0.55026110628E+03  0.00000000000E+00 0.  1.
         21   -1    0    0  502  503 -0.00000000000E+00 -0.00000000000E+00 -0.61960404943E+03  0.61960404943E+03  0.00000000000E+00 0.  1.
    9000007    1    1    2  501    0  0.11116060574E+03  0.14906391130E+03  0.34858215992E+03  0.56221548550E+03  0.40000000000E+03 0.  1.
   -9000007    1    1    2    0  503 -0.11116060574E+03 -0.14906391130E+03 -0.41792510307E+03  0.60764967020E+03  0.40000000000E+03 0.  1.
<mgrwt>
<rscale>  2 0.44110852E+03</rscale>
<asrwt>0</asrwt>
<pdfrwt beam="1">  1       21 0.84655555E-01 0.44110852E+03</pdfrwt>
<pdfrwt beam="2">  1       21 0.95323700E-01 0.44110852E+03</pdfrwt>
<totfact> 0.94743525E+02</totfact>
</mgrwt>
</event>
<event>
 4    1  0.4758708E-002  0.1025081E+04  0.7818608E-02  0.9281457E-01
         21   -1    0    0  501  502  0.00000000000E+00  0.00000000000E+00  0.13772975776E+04  0.13772975776E+04  0.00000000000E+00 0.  1.
         21   -1    0    0  502  503 -0.00000000000E+00 -0.00000000000E+00 -0.91451385115E+03  0.91451385115E+03  0.00000000000E+00 0. -1.
    9000007    1    1    2  501    0 -0.41133877447E+03  0.84946486218E+03  0.69791304818E+03  0.12401099799E+04  0.40000000000E+03 0.  1.
   -9000007    1    1    2    0  503  0.41133877447E+03 -0.84946486218E+03 -0.23512932176E+03  0.10517014488E+04  0.40000000000E+03 0. -1.
<mgrwt>
<rscale>  2 0.10250806E+04</rscale>
<asrwt>0</asrwt>
<pdfrwt beam="1">  1       21 0.21189193E+00 0.10250806E+04</pdfrwt>
<pdfrwt beam="2">  1       21 0.14069444E+00 0.10250806E+04</pdfrwt>
<totfact> 0.24314890E+01</totfact>
</mgrwt>
</event>
<event>
 4    1  0.4758708E-002  0.5583284E+03  0.7818608E-02  0.9995844E-01
         21   -1    0    0  503  502  0.00000000000E+00  0.00000000000E+00  0.90291318306E+03  0.90291318306E+03  0.00000000000E+00 0. -1.
         21   -1    0    0  501  503 -0.00000000000E+00 -0.00000000000E+00 -0.42112753104E+03  0.42112753104E+03  0.00000000000E+00 0.  1.
    9000007    1    1    2  501    0 -0.70070967528E+02 -0.38317179622E+03  0.52190283570E+03  0.76427294589E+03  0.40000000000E+03 0. -1.
   -9000007    1    1    2    0  502  0.70070967528E+02  0.38317179622E+03 -0.40117183683E+02  0.55976776822E+03  0.40000000000E+03 0.  1.
<mgrwt>
<rscale>  2 0.55832837E+03</rscale>
<asrwt>0</asrwt>
<pdfrwt beam="1">  1       21 0.13890972E+00 0.55832837E+03</pdfrwt>
<pdfrwt beam="2">  1       21 0.64788851E-01 0.55832837E+03</pdfrwt>
<totfact> 0.64471496E+02</totfact>
</mgrwt>
</event>
<event>
 4    1  0.4758708E-002  0.4428513E+03  0.7818608E-02  0.1029876E+00
         21   -1    0    0  503  502  0.00000000000E+00  0.00000000000E+00  0.53715697303E+03  0.53715697303E+03  0.00000000000E+00 0.  1.
         21   -1    0    0  501  503 -0.00000000000E+00 -0.00000000000E+00 -0.36579251472E+03  0.36579251472E+03  0.00000000000E+00 0.  1.
    9000007    1    1    2  501    0  0.13834579284E+03 -0.13029865971E+03  0.66072245404E+02  0.44775310242E+03  0.40000000000E+03 0.  1.
   -9000007    1    1    2    0  502 -0.13834579284E+03  0.13029865971E+03  0.10529221290E+03  0.45519638533E+03  0.40000000000E+03 0.  1.
<mgrwt>
<rscale>  2 0.44285133E+03</rscale>
<asrwt>0</asrwt>
<pdfrwt beam="1">  1       21 0.82639534E-01 0.44285133E+03</pdfrwt>
<pdfrwt beam="2">  1       21 0.56275772E-01 0.44285133E+03</pdfrwt>
<totfact> 0.33203812E+03</totfact>
</mgrwt>
</event>
<event>
 4    1  0.4758708E-002  0.4199756E+03  0.7818608E-02  0.1037074E+00
         21   -1    0    0  501  502  0.00000000000E+00  0.00000000000E+00  0.39117175385E+03  0.39117175385E+03  0.00000000000E+00 0.  1.
         21   -1    0    0  502  503 -0.00000000000E+00 -0.00000000000E+00 -0.45090318600E+03  0.45090318600E+03  0.00000000000E+00 0.  1.
    9000007    1    1    2  501    0  0.10539214508E+03 -0.72608825950E+02 -0.28841256898E+02  0.42096480132E+03  0.40000000000E+03 0.  1.
   -9000007    1    1    2    0  503 -0.10539214508E+03  0.72608825950E+02 -0.30890175247E+02  0.42111013853E+03  0.40000000000E+03 0.  1.
<mgrwt>
<rscale>  2 0.41997565E+03</rscale>
<asrwt>0</asrwt>
<pdfrwt beam="1">  1       21 0.60180270E-01 0.41997565E+03</pdfrwt>
<pdfrwt beam="2">  1       21 0.69369721E-01 0.41997565E+03</pdfrwt>
<totfact> 0.43138238E+03</totfact>
</mgrwt>
</event>
<event>
 4    1  0.4758708E-002  0.5141730E+03  0.7818608E-02  0.1010144E+00
         21   -1    0    0  503  502  0.00000000000E+00  0.00000000000E+00  0.83766609569E+03  0.83766609569E+03  0.00000000000E+00 0.  1.
         21   -1    0    0  501  503 -0.00000000000E+00 -0.00000000000E+00 -0.31578375670E+03  0.31578375670E+03  0.00000000000E+00 0. -1.
    9000007    1    1    2  501    0  0.10575859109E+03 -0.30526870194E+03  0.24732312902E+03  0.57056339711E+03  0.40000000000E+03 0. -1.
   -9000007    1    1    2    0  502 -0.10575859109E+03  0.30526870194E+03  0.27455920997E+03  0.58288645528E+03  0.40000000000E+03 0.  1.
<mgrwt>
<rscale>  2 0.51417299E+03</rscale>
<asrwt>0</asrwt>
<pdfrwt beam="1">  1       21 0.12887171E+00 0.51417299E+03</pdfrwt>
<pdfrwt beam="2">  1       21 0.48582117E-01 0.51417299E+03</pdfrwt>
<totfact> 0.14920374E+03</totfact>
</mgrwt>
</event>
<event>
 4    1  0.4758708E-002  0.4753446E+03  0.7818608E-02  0.1020422E+00
         21   -1    0    0  503  502  0.00000000000E+00  0.00000000000E+00  0.35675721083E+03  0.35675721083E+03  0.00000000000E+00 0. -1.
         21   -1    0    0  501  503 -0.00000000000E+00 -0.00000000000E+00 -0.67729212650E+03  0.67729212650E+03  0.00000000000E+00 0. -1.
    9000007    1    1    2  501    0 -0.17232164483E+03 -0.19041477174E+03 -0.29195929845E+03  0.55784654389E+03  0.40000000000E+03 0. -1.
   -9000007    1    1    2    0  502  0.17232164483E+03  0.19041477174E+03 -0.28575617220E+02  0.47620279344E+03  0.40000000000E+03 0. -1.
<mgrwt>
<rscale>  2 0.47534465E+03</rscale>
<asrwt>0</asrwt>
<pdfrwt beam="1">  1       21 0.54885725E-01 0.47534465E+03</pdfrwt>
<pdfrwt beam="2">  1       21 0.10419879E+00 0.47534465E+03</pdfrwt>
<totfact> 0.19914783E+03</totfact>
</mgrwt>
</event>
<event>
 4    1  0.4758708E-002  0.4084258E+03  0.7818608E-02  0.1040901E+00
         21   -1    0    0  503  502  0.00000000000E+00  0.00000000000E+00  0.51423437455E+03  0.51423437455E+03  0.00000000000E+00 0. -1.
         21   -1    0    0  501  503 -0.00000000000E+00 -0.00000000000E+00 -0.41645120529E+03  0.41645120529E+03  0.00000000000E+00 0. -1.
    9000007    1    1    2  501    0  0.31939186213E+02  0.76102161524E+02 -0.16990125272E+03  0.44235515853E+03  0.40000000000E+03 0. -1.
   -9000007    1    1    2    0  502 -0.31939186213E+02 -0.76102161524E+02  0.26768442198E+03  0.48833042131E+03  0.40000000000E+03 0. -1.
<mgrwt>
<rscale>  2 0.40842582E+03</rscale>
<asrwt>0</asrwt>
<pdfrwt beam="1">  1       21 0.79112980E-01 0.40842582E+03</pdfrwt>
<pdfrwt beam="2">  1       21 0.64069416E-01 0.40842582E+03</pdfrwt>
<totfact> 0.28005011E+03</totfact>
</mgrwt>
</event>
<event>
 4    1  0.4758708E-002  0.4049804E+03  0.7818608E-02  0.1042069E+00
         21   -1    0    0  503  502  0.00000000000E+00  0.00000000000E+00  0.56762497350E+03  0.56762497350E+03  0.00000000000E+00 0. -1.
         21   -1    0    0  501  503 -0.00000000000E+00 -0.00000000000E+00 -0.31763214399E+03  0.31763214399E+03  0.00000000000E+00 0. -1.
    9000007    1    1    2  501    0  0.42773659106E+02  0.46685663551E+02 -0.80381048666E+01  0.40506017852E+03  0.40000000000E+03 0. -1.
   -9000007    1    1    2    0  502 -0.42773659106E+02 -0.46685663551E+02  0.25803093438E+03  0.48019693896E+03  0.40000000000E+03 0. -1.
<mgrwt>
<rscale>  2 0.40498042E+03</rscale>
<asrwt>0</asrwt>
<pdfrwt beam="1">  1       21 0.87326919E-01 0.40498042E+03</pdfrwt>
<pdfrwt beam="2">  1       21 0.48866484E-01 0.40498042E+03</pdfrwt>
<totfact> 0.40035950E+03</totfact>
</mgrwt>
</event>
<event>
 4    1  0.4758708E-002  0.5279322E+03  0.7818608E-02  0.1006735E+00
         21   -1    0    0  501  502  0.00000000000E+00  0.00000000000E+00  0.12301811753E+04  0.12301811753E+04  0.00000000000E+00 0.  1.
         21   -1    0    0  502  503 -0.00000000000E+00 -0.00000000000E+00 -0.24120068208E+03  0.24120068208E+03  0.00000000000E+00 0. -1.
    9000007    1    1    2  501    0 -0.20035982455E+03  0.28030036779E+03  0.67573128663E+03  0.85751100704E+03  0.40000000000E+03 0.  1.
   -9000007    1    1    2    0  503  0.20035982455E+03 -0.28030036779E+03  0.31324920663E+03  0.61387085037E+03  0.40000000000E+03 0. -1.
<mgrwt>
<rscale>  2 0.52793215E+03</rscale>
<asrwt>0</asrwt>
<pdfrwt beam="1">  1       21 0.18925864E+00 0.52793215E+03</pdfrwt>
<pdfrwt beam="2">  1       21 0.37107798E-01 0.52793215E+03</pdfrwt>
<totfact> 0.89363207E+02</totfact>
</mgrwt>
</event>
<event>
 4    1  0.4758708E-002  0.5057713E+03  0.7818608E-02  0.1012283E+00
         21   -1    0    0  501  502  0.00000000000E+00  0.00000000000E+00  0.38661121825E+03  0.38661121825E+03  0.00000000000E+00 0. -1.
         21   -1    0    0  502  503 -0.00000000000E+00 -0.00000000000E+00 -0.73440361663E+03  0.73440361663E+03  0.00000000000E+00 0. -1.
    9000007    1    1    2  501    0 -0.30952313746E+03  0.64488835012E-01  0.25108975895E+01  0.50577750186E+03  0.40000000000E+03 0. -1.
   -9000007    1    1    2    0  503  0.30952313746E+03 -0.64488835012E-01 -0.35030329597E+03  0.61523733303E+03  0.40000000000E+03 0. -1.
<mgrwt>
<rscale>  2 0.50577127E+03</rscale>
<asrwt>0</asrwt>
<pdfrwt beam="1">  1       21 0.59478650E-01 0.50577127E+03</pdfrwt>
<pdfrwt beam="2">  1       21 0.11298517E+00 0.50577127E+03</pdfrwt>
<totfact> 0.13528272E+03</totfact>
</mgrwt>
</event>
<event>
 4    1  0.4758708E-002  0.4075938E+03  0.7818608E-02  0.1041181E+00
         21   -1    0    0  503  502  0.00000000000E+00  0.00000000000E+00  0.42189217311E+03  0.42189217311E+03  0.00000000000E+00 0.  1.
         21   -1    0    0  501  503 -0.00000000000E+00 -0.00000000000E+00 -0.40515944297E+03  0.40515944297E+03  0.00000000000E+00 0.  1.
    9000007    1    1    2  501    0  0.55196853209E+02 -0.55551901765E+02 -0.60936285557E+02  0.41212369174E+03  0.40000000000E+03 0.  1.
   -9000007    1    1    2    0  502 -0.55196853209E+02  0.55551901765E+02  0.77669015700E+02  0.41492792434E+03  0.40000000000E+03 0.  1.
<mgrwt>
<rscale>  2 0.40759380E+03</rscale>
<asrwt>0</asrwt>
<pdfrwt beam="1">  1       21 0.64906488E-01 0.40759380E+03</pdfrwt>
<pdfrwt beam="2">  1       21 0.62332222E-01 0.40759380E+03</pdfrwt>
<totfact> 0.46530168E+03</totfact>
</mgrwt>
</event>
<event>
 4    1  0.4758708E-002  0.4043320E+03  0.7818608E-02  0.1042290E+00
         21   -1    0    0  501  502  0.00000000000E+00  0.00000000000E+00  0.18555742889E+03  0.18555742889E+03  0.00000000000E+00 0. -1.
         21   -1    0    0  502  503 -0.00000000000E+00 -0.00000000000E+00 -0.20505461504E+04  0.20505461504E+04  0.00000000000E+00 0. -1.
    9000007    1    1    2  501    0  0.47297247320E+02 -0.35318173164E+02 -0.88134624195E+02  0.41382618929E+03  0.40000000000E+03 0. -1.
   -9000007    1    1    2    0  503 -0.47297247320E+02  0.35318173164E+02 -0.17768540973E+04  0.18222773900E+04  0.40000000000E+03 0. -1.
<mgrwt>
<rscale>  2 0.40433205E+03</rscale>
<asrwt>0</asrwt>
<pdfrwt beam="1">  1       21 0.28547297E-01 0.40433205E+03</pdfrwt>
<pdfrwt beam="2">  1       21 0.31546863E+00 0.40433205E+03</pdfrwt>
<totfact> 0.26313767E+02</totfact>
</mgrwt>
</event>
<event>
 4    1  0.4758708E-002  0.4077472E+03  0.7818608E-02  0.1041130E+00
         21   -1    0    0  503  502  0.00000000000E+00  0.00000000000E+00  0.21211393194E+03  0.21211393194E+03  0.00000000000E+00 0.  1.
         21   -1    0    0  501  503 -0.00000000000E+00 -0.00000000000E+00 -0.12765571636E+04  0.12765571636E+04  0.00000000000E+00 0.  1.
    9000007    1    1    2  501    0 -0.53606438978E+01  0.78924488386E+02 -0.99466551179E+03  0.10749964147E+04  0.40000000000E+03 0.  1.
   -9000007    1    1    2    0  502  0.53606438978E+01 -0.78924488386E+02 -0.69777719918E+02  0.41367468084E+03  0.40000000000E+03 0.  1.
<mgrwt>
<rscale>  2 0.40774724E+03</rscale>
<asrwt>0</asrwt>
<pdfrwt beam="1">  1       21 0.32632912E-01 0.40774724E+03</pdfrwt>
<pdfrwt beam="2">  1       21 0.19639341E+00 0.40774724E+03</pdfrwt>
<totfact> 0.10925246E+03</totfact>
</mgrwt>
</event>
<event>
 4    1  0.4758708E-002  0.5296861E+03  0.7818608E-02  0.1006308E+00
         21   -1    0    0  503  502  0.00000000000E+00  0.00000000000E+00  0.45925045468E+03  0.45925045468E+03  0.00000000000E+00 0.  1.
         21   -1    0    0  501  503 -0.00000000000E+00 -0.00000000000E+00 -0.14131740558E+04  0.14131740558E+04  0.00000000000E+00 0.  1.
    9000007    1    1    2  501    0 -0.33329730134E+03  0.97366884977E+02 -0.11823549034E+04  0.12955811511E+04  0.40000000000E+03 0.  1.
   -9000007    1    1    2    0  502  0.33329730134E+03 -0.97366884977E+02  0.22843130233E+03  0.57684335937E+03  0.40000000000E+03 0.  1.
<mgrwt>
<rscale>  2 0.52968613E+03</rscale>
<asrwt>0</asrwt>
<pdfrwt beam="1">  1       21 0.70653917E-01 0.52968613E+03</pdfrwt>
<pdfrwt beam="2">  1       21 0.21741139E+00 0.52968613E+03</pdfrwt>
<totfact> 0.14540904E+02</totfact>
</mgrwt>
</event>
<event>
 4    1  0.4758708E-002  0.4259347E+03  0.7818608E-02  0.1035152E+00
         21   -1    0    0  501  502  0.00000000000E+00  0.00000000000E+00  0.52303237521E+03  0.52303237521E+03  0.00000000000E+00 0.  1.
         21   -1    0    0  502  503 -0.00000000000E+00 -0.00000000000E+00 -0.51457975366E+03  0.51457975366E+03  0.00000000000E+00 0.  1.
    9000007    1    1    2  501    0  0.95992902453E+02  0.11047937723E+03  0.30041436312E+03  0.52121887886E+03  0.40000000000E+03 0.  1.
   -9000007    1    1    2    0  503 -0.95992902453E+02 -0.11047937723E+03 -0.29196174157E+03  0.51639325001E+03  0.40000000000E+03 0.  1.
<mgrwt>
<rscale>  2 0.42593465E+03</rscale>
<asrwt>0</asrwt>
<pdfrwt beam="1">  1       21 0.80466520E-01 0.42593465E+03</pdfrwt>
<pdfrwt beam="2">  1       21 0.79166115E-01 0.42593465E+03</pdfrwt>
<totfact> 0.16593687E+03</totfact>
</mgrwt>
</event>
<event>
 4    1  0.4758708E-002  0.5050426E+03  0.7818608E-02  0.1012471E+00
         21   -1    0    0  503  502  0.00000000000E+00  0.00000000000E+00  0.25938805666E+03  0.25938805666E+03  0.00000000000E+00 0.  1.
         21   -1    0    0  501  503 -0.00000000000E+00 -0.00000000000E+00 -0.11619841173E+04  0.11619841173E+04  0.00000000000E+00 0.  1.
    9000007    1    1    2  501    0 -0.27623488234E+03  0.13697548843E+03 -0.17264370823E+03  0.53373574421E+03  0.40000000000E+03 0.  1.
   -9000007    1    1    2    0  502  0.27623488234E+03 -0.13697548843E+03 -0.72995235240E+03  0.88763642976E+03  0.40000000000E+03 0.  1.
<mgrwt>
<rscale>  2 0.50504257E+03</rscale>
<asrwt>0</asrwt>
<pdfrwt beam="1">  1       21 0.39905855E-01 0.50504257E+03</pdfrwt>
<pdfrwt beam="2">  1       21 0.17876679E+00 0.50504257E+03</pdfrwt>
<totfact> 0.91954003E+02</totfact>
</mgrwt>
</event>
<event>
 4    1  0.4758708E-002  0.4188953E+03  0.7818608E-02  0.1037426E+00
         21   -1    0    0  501  502  0.00000000000E+00  0.00000000000E+00  0.17901745197E+04  0.17901745197E+04  0.00000000000E+00 0.  1.
         21   -1    0    0  502  503 -0.00000000000E+00 -0.00000000000E+00 -0.11580710951E+03  0.11580710951E+03  0.00000000000E+00 0.  1.
    9000007    1    1    2  501    0 -0.11531114446E+03  0.46653947373E+02  0.46370018414E+03  0.62489288011E+03  0.40000000000E+03 0.  1.
   -9000007    1    1    2    0  503  0.11531114446E+03 -0.46653947373E+02  0.12106672260E+04  0.12810887491E+04  0.40000000000E+03 0.  1.
<mgrwt>
<rscale>  2 0.41889527E+03</rscale>
<asrwt>0</asrwt>
<pdfrwt beam="1">  1       21 0.27541145E+00 0.41889527E+03</pdfrwt>
<pdfrwt beam="2">  1       21 0.17816480E-01 0.41889527E+03</pdfrwt>
<totfact> 0.11224027E+03</totfact>
</mgrwt>
</event>
<event>
 4    1  0.4758708E-002  0.4791800E+03  0.7818608E-02  0.1019361E+00
         21   -1    0    0  503  502  0.00000000000E+00  0.00000000000E+00  0.15111185648E+04  0.15111185648E+04  0.00000000000E+00 0. -1.
         21   -1    0    0  501  503 -0.00000000000E+00 -0.00000000000E+00 -0.16031065754E+03  0.16031065754E+03  0.00000000000E+00 0. -1.
    9000007    1    1    2  501    0  0.13513519075E+03  0.22660970985E+03  0.48454437814E+03  0.68146660576E+03  0.40000000000E+03 0. -1.
   -9000007    1    1    2    0  502 -0.13513519075E+03 -0.22660970985E+03  0.86626352914E+03  0.98996261662E+03  0.40000000000E+03 0. -1.
<mgrwt>
<rscale>  2 0.47918001E+03</rscale>
<asrwt>0</asrwt>
<pdfrwt beam="1">  1       21 0.23247977E+00 0.47918001E+03</pdfrwt>
<pdfrwt beam="2">  1       21 0.24663179E-01 0.47918001E+03</pdfrwt>
<totfact> 0.10721017E+03</totfact>
</mgrwt>
</event>
<event>
 4    1  0.4758708E-002  0.6024815E+03  0.7818608E-02  0.9900271E-01
         21   -1    0    0  501  502  0.00000000000E+00  0.00000000000E+00  0.33343308861E+03  0.33343308861E+03  0.00000000000E+00 0.  1.
         21   -1    0    0  502  503 -0.00000000000E+00 -0.00000000000E+00 -0.22606116782E+04  0.22606116782E+04  0.00000000000E+00 0. -1.
    9000007    1    1    2  501    0  0.39607869956E+03  0.21472216808E+03 -0.29699497254E+02  0.60321306836E+03  0.40000000000E+03 0. -1.
   -9000007    1    1    2    0  503 -0.39607869956E+03 -0.21472216808E+03 -0.18974790923E+04  0.19908316984E+04  0.40000000000E+03 0.  1.
<mgrwt>
<rscale>  2 0.60248149E+03</rscale>
<asrwt>0</asrwt>
<pdfrwt beam="1">  1       21 0.51297399E-01 0.60248149E+03</pdfrwt>
<pdfrwt beam="2">  1       21 0.34778640E+00 0.60248149E+03</pdfrwt>
<totfact> 0.44584899E+01</totfact>
</mgrwt>
</event>
<event>
 4    1  0.4758708E-002  0.4118557E+03  0.7818608E-02  0.1039750E+00
         21   -1    0    0  501  502  0.00000000000E+00  0.00000000000E+00  0.30132892116E+03  0.30132892116E+03  0.00000000000E+00 0.  1.
         21   -1    0    0  502  503 -0.00000000000E+00 -0.00000000000E+00 -0.57039149288E+03  0.57039149288E+03  0.00000000000E+00 0.  1.
    9000007    1    1    2  501    0  0.76023913111E+02 -0.62011684196E+02 -0.18440447572E+03  0.45125391412E+03  0.40000000000E+03 0. -1.
   -9000007    1    1    2    0  503 -0.76023913111E+02  0.62011684196E+02 -0.84658095994E+02  0.42046649992E+03  0.40000000000E+03 0. -1.
<mgrwt>
<rscale>  2 0.41185566E+03</rscale>
<asrwt>0</asrwt>
<pdfrwt beam="1">  1       21 0.46358296E-01 0.41185566E+03</pdfrwt>
<pdfrwt beam="2">  1       21 0.87752536E-01 0.41185566E+03</pdfrwt>
<totfact> 0.44115105E+03</totfact>
</mgrwt>
</event>
<event>
 4    1  0.4758708E-002  0.5282214E+03  0.7818608E-02  0.1006664E+00
         21   -1    0    0  503  502  0.00000000000E+00  0.00000000000E+00  0.35092942688E+03  0.35092942688E+03  0.00000000000E+00 0.  1.
         21   -1    0    0  501  503 -0.00000000000E+00 -0.00000000000E+00 -0.81015605501E+03  0.81015605501E+03  0.00000000000E+00 0. -1.
    9000007    1    1    2  501    0  0.31401879842E+03  0.14286376337E+03 -0.15042572812E+03  0.54922286945E+03  0.40000000000E+03 0. -1.
   -9000007    1    1    2    0  502 -0.31401879842E+03 -0.14286376337E+03 -0.30880090001E+03  0.61186261244E+03  0.40000000000E+03 0. -1.
<mgrwt>
<rscale>  2 0.52822141E+03</rscale>
<asrwt>0</asrwt>
<pdfrwt beam="1">  1       21 0.53989142E-01 0.52822141E+03</pdfrwt>
<pdfrwt beam="2">  1       21 0.12463939E+00 0.52822141E+03</pdfrwt>
<totfact> 0.12915466E+03</totfact>
</mgrwt>
</event>
<event>
 4    1  0.4758708E-002  0.5044303E+03  0.7818608E-02  0.1012629E+00
         21   -1    0    0  503  502  0.00000000000E+00  0.00000000000E+00  0.79293584192E+03  0.79293584192E+03  0.00000000000E+00 0. -1.
         21   -1    0    0  501  503 -0.00000000000E+00 -0.00000000000E+00 -0.36069323280E+03  0.36069323280E+03  0.00000000000E+00 0.  1.
    9000007    1    1    2  501    0 -0.21010335958E+03  0.22429113340E+03  0.24522110837E+02  0.50502600740E+03  0.40000000000E+03 0.  1.
   -9000007    1    1    2    0  502  0.21010335958E+03 -0.22429113340E+03  0.40772049828E+03  0.64860306733E+03  0.40000000000E+03 0. -1.
<mgrwt>
<rscale>  2 0.50443031E+03</rscale>
<asrwt>0</asrwt>
<pdfrwt beam="1">  1       21 0.12199013E+00 0.50443031E+03</pdfrwt>
<pdfrwt beam="2">  1       21 0.55491267E-01 0.50443031E+03</pdfrwt>
<totfact> 0.12969581E+03</totfact>
</mgrwt>
</event>
<event>
 4    1  0.4758708E-002  0.4615285E+03  0.7818608E-02  0.1024339E+00
         21   -1    0    0  503  502  0.00000000000E+00  0.00000000000E+00  0.24489054145E+03  0.24489054145E+03  0.00000000000E+00 0. -1.
         21   -1    0    0  501  503 -0.00000000000E+00 -0.00000000000E+00 -0.92692270198E+03  0.92692270198E+03  0.00000000000E+00 0. -1.
    9000007    1    1    2  501    0 -0.19646728279E+03  0.12003802936E+03 -0.48645098660E+03  0.67055431105E+03  0.40000000000E+03 0. -1.
   -9000007    1    1    2    0  502  0.19646728279E+03 -0.12003802936E+03 -0.19558117393E+03  0.50125893238E+03  0.40000000000E+03 0. -1.
<mgrwt>
<rscale>  2 0.46152846E+03</rscale>
<asrwt>0</asrwt>
<pdfrwt beam="1">  1       21 0.37675468E-01 0.46152846E+03</pdfrwt>
<pdfrwt beam="2">  1       21 0.14260349E+00 0.46152846E+03</pdfrwt>
<totfact> 0.19782685E+03</totfact>
</mgrwt>
</event>
<event>
 4    1  0.4758708E-002  0.5586208E+03  0.7818608E-02  0.9995180E-01
         21   -1    0    0  503  502  0.00000000000E+00  0.00000000000E+00  0.21267698996E+04  0.21267698996E+04  0.00000000000E+00 0.  1.
         21   -1    0    0  501  503 -0.00000000000E+00 -0.00000000000E+00 -0.15105280789E+03  0.15105280789E+03  0.00000000000E+00 0.  1.
    9000007    1    1    2  501    0 -0.38861829274E+03 -0.32139979287E+02  0.79515130790E+03  0.97176270672E+03  0.40000000000E+03 0.  1.
   -9000007    1    1    2    0  502  0.38861829274E+03  0.32139979287E+02  0.11805657838E+04  0.13060600008E+04  0.40000000000E+03 0.  1.
<mgrwt>
<rscale>  2 0.55862076E+03</rscale>
<asrwt>0</asrwt>
<pdfrwt beam="1">  1       21 0.32719535E+00 0.55862076E+03</pdfrwt>
<pdfrwt beam="2">  1       21 0.23238895E-01 0.55862076E+03</pdfrwt>
<totfact> 0.30586534E+02</totfact>
</mgrwt>
</event>
<event>
 4    1  0.4758708E-002  0.5246829E+03  0.7818608E-02  0.1007530E+00
         21   -1    0    0  503  502  0.00000000000E+00  0.00000000000E+00  0.62650735627E+03  0.62650735627E+03  0.00000000000E+00 0.  1.
         21   -1    0    0  501  503 -0.00000000000E+00 -0.00000000000E+00 -0.58021566066E+03  0.58021566066E+03  0.00000000000E+00 0. -1.
    9000007    1    1    2  501    0  0.20350681273E+03  0.27180349855E+03 -0.27408676668E+03  0.59195922184E+03  0.40000000000E+03 0. -1.
   -9000007    1    1    2    0  502 -0.20350681273E+03 -0.27180349855E+03  0.32037846230E+03  0.61476379509E+03  0.40000000000E+03 0.  1.
<mgrwt>
<rscale>  2 0.52468292E+03</rscale>
<asrwt>0</asrwt>
<pdfrwt beam="1">  1       21 0.96385748E-01 0.52468292E+03</pdfrwt>
<pdfrwt beam="2">  1       21 0.89263947E-01 0.52468292E+03</pdfrwt>
<totfact> 0.78808459E+02</totfact>
</mgrwt>
</event>
<event>
 4    1  0.4758708E-002  0.4771698E+03  0.7818608E-02  0.1019916E+00
         21   -1    0    0  501  502  0.00000000000E+00  0.00000000000E+00  0.50096732316E+03  0.50096732316E+03  0.00000000000E+00 0. -1.
         21   -1    0    0  502  503 -0.00000000000E+00 -0.00000000000E+00 -0.49727886252E+03  0.49727886252E+03  0.00000000000E+00 0. -1.
    9000007    1    1    2  501    0  0.18881880382E+03 -0.17899282731E+03  0.14823337025E+03  0.49966399206E+03  0.40000000000E+03 0. -1.
   -9000007    1    1    2    0  503 -0.18881880382E+03  0.17899282731E+03 -0.14454490961E+03  0.49858219362E+03  0.40000000000E+03 0. -1.
<mgrwt>
<rscale>  2 0.47716975E+03</rscale>
<asrwt>0</asrwt>
<pdfrwt beam="1">  1       21 0.77071896E-01 0.47716975E+03</pdfrwt>
<pdfrwt beam="2">  1       21 0.76504440E-01 0.47716975E+03</pdfrwt>
<totfact> 0.19441636E+03</totfact>
</mgrwt>
</event>
<event>
 4    1  0.4758708E-002  0.4804837E+03  0.7818608E-02  0.1019002E+00
         21   -1    0    0  503  502  0.00000000000E+00  0.00000000000E+00  0.60497437101E+03  0.60497437101E+03  0.00000000000E+00 0.  1.
         21   -1    0    0  501  503 -0.00000000000E+00 -0.00000000000E+00 -0.38780941995E+03  0.38780941995E+03  0.00000000000E+00 0. -1.
    9000007    1    1    2  501    0  0.11571500306E+03 -0.23973872281E+03  0.17134073885E+03  0.51011985448E+03  0.40000000000E+03 0.  1.
   -9000007    1    1    2    0  502 -0.11571500306E+03  0.23973872281E+03  0.45824212201E+02  0.48266393647E+03  0.40000000000E+03 0. -1.
<mgrwt>
<rscale>  2 0.48048373E+03</rscale>
<asrwt>0</asrwt>
<pdfrwt beam="1">  1       21 0.93072981E-01 0.48048373E+03</pdfrwt>
<pdfrwt beam="2">  1       21 0.59662987E-01 0.48048373E+03</pdfrwt>
<totfact> 0.21796547E+03</totfact>
</mgrwt>
</event>
<event>
 4    1  0.4758708E-002  0.4012425E+03  0.7818608E-02  0.1043350E+00
         21   -1    0    0  501  502  0.00000000000E+00  0.00000000000E+00  0.21318210150E+03  0.21318210150E+03  0.00000000000E+00 0.  1.
         21   -1    0    0  502  503 -0.00000000000E+00 -0.00000000000E+00 -0.92305724070E+03  0.92305724070E+03  0.00000000000E+00 0.  1.
    9000007    1    1    2  501    0  0.29259007853E+02  0.11807988173E+02 -0.11267118811E+03  0.41676170020E+03  0.40000000000E+03 0.  1.
   -9000007    1    1    2    0  503 -0.29259007853E+02 -0.11807988173E+02 -0.59720395109E+03  0.71947764199E+03  0.40000000000E+03 0.  1.
<mgrwt>
<rscale>  2 0.40124247E+03</rscale>
<asrwt>0</asrwt>
<pdfrwt beam="1">  1       21 0.32797247E-01 0.40124247E+03</pdfrwt>
<pdfrwt beam="2">  1       21 0.14200881E+00 0.40124247E+03</pdfrwt>
<totfact> 0.27134795E+03</totfact>
</mgrwt>
</event>
<event>
 4    1  0.4758708E-002  0.4767012E+03  0.7818608E-02  0.1020046E+00
         21   -1    0    0  503  502  0.00000000000E+00  0.00000000000E+00  0.16433003111E+04  0.16433003111E+04  0.00000000000E+00 0.  1.
         21   -1    0    0  501  503 -0.00000000000E+00 -0.00000000000E+00 -0.14405655179E+03  0.14405655179E+03  0.00000000000E+00 0.  1.
    9000007    1    1    2  501    0  0.80621231413E+02  0.24646346788E+03  0.57074444300E+03  0.74363515461E+03  0.40000000000E+03 0.  1.
   -9000007    1    1    2    0  502 -0.80621231413E+02 -0.24646346788E+03  0.92849931628E+03  0.10437217083E+04  0.40000000000E+03 0.  1.
<mgrwt>
<rscale>  2 0.47670119E+03</rscale>
<asrwt>0</asrwt>
<pdfrwt beam="1">  1       21 0.25281542E+00 0.47670119E+03</pdfrwt>
<pdfrwt beam="2">  1       21 0.22162548E-01 0.47670119E+03</pdfrwt>
<totfact> 0.98696843E+02</totfact>
</mgrwt>
</event>
<event>
 4    1  0.4758708E-002  0.4647713E+03  0.7818608E-02  0.1023406E+00
         21   -1    0    0  503  502  0.00000000000E+00  0.00000000000E+00  0.88540784581E+03  0.88540784581E+03  0.00000000000E+00 0.  1.
         21   -1    0    0  501  503 -0.00000000000E+00 -0.00000000000E+00 -0.25621371307E+03  0.25621371307E+03  0.00000000000E+00 0. -1.
    9000007    1    1    2  501    0 -0.22810408371E+03  0.63094151111E+02  0.18981283293E+03  0.50203710665E+03  0.40000000000E+03 0. -1.
   -9000007    1    1    2    0  502  0.22810408371E+03 -0.63094151111E+02  0.43938129981E+03  0.63958445223E+03  0.40000000000E+03 0. -1.
<mgrwt>
<rscale>  2 0.46477128E+03</rscale>
<asrwt>0</asrwt>
<pdfrwt beam="1">  1       21 0.13621659E+00 0.46477128E+03</pdfrwt>
<pdfrwt beam="2">  1       21 0.39417495E-01 0.46477128E+03</pdfrwt>
<totfact> 0.20344114E+03</totfact>
</mgrwt>
</event>
<event>
 4    1  0.4758708E-002  0.4513369E+03  0.7818608E-02  0.1027324E+00
         21   -1    0    0  503  502  0.00000000000E+00  0.00000000000E+00  0.54858876205E+03  0.54858876205E+03  0.00000000000E+00 0.  1.
         21   -1    0    0  501  503 -0.00000000000E+00 -0.00000000000E+00 -0.37553707694E+03  0.37553707694E+03  0.00000000000E+00 0.  1.
    9000007    1    1    2  501    0 -0.18235349202E+03  0.10223599010E+03  0.37593351537E+02  0.45289982756E+03  0.40000000000E+03 0.  1.
   -9000007    1    1    2    0  502  0.18235349202E+03 -0.10223599010E+03  0.13545833357E+03  0.47122601144E+03  0.40000000000E+03 0.  1.
<mgrwt>
<rscale>  2 0.45133690E+03</rscale>
<asrwt>0</asrwt>
<pdfrwt beam="1">  1       21 0.84398271E-01 0.45133690E+03</pdfrwt>
<pdfrwt beam="2">  1       21 0.57774935E-01 0.45133690E+03</pdfrwt>
<totfact> 0.29769257E+03</totfact>
</mgrwt>
</event>
<event>
 4    1  0.4758708E-002  0.4635912E+03  0.7818608E-02  0.1023745E+00
         21   -1    0    0  503  502  0.00000000000E+00  0.00000000000E+00  0.45937593971E+03  0.45937593971E+03  0.00000000000E+00 0.  1.
         21   -1    0    0  501  503 -0.00000000000E+00 -0.00000000000E+00 -0.51386247776E+03  0.51386247776E+03  0.00000000000E+00 0.  1.
    9000007    1    1    2  501    0 -0.50704857383E+02  0.22879199244E+03 -0.17286526382E+03  0.49477182398E+03  0.40000000000E+03 0.  1.
   -9000007    1    1    2    0  502  0.50704857383E+02 -0.22879199244E+03  0.11837872576E+03  0.47846659349E+03  0.40000000000E+03 0.  1.
<mgrwt>
<rscale>  2 0.46359115E+03</rscale>
<asrwt>0</asrwt>
<pdfrwt beam="1">  1       21 0.70673222E-01 0.46359115E+03</pdfrwt>
<pdfrwt beam="2">  1       21 0.79055765E-01 0.46359115E+03</pdfrwt>
<totfact> 0.22068706E+03</totfact>
</mgrwt>
</event>
<event>
 4    1  0.4758708E-002  0.5280537E+03  0.7818608E-02  0.1006705E+00
         21   -1    0    0  503  502  0.00000000000E+00  0.00000000000E+00  0.40113095728E+03  0.40113095728E+03  0.00000000000E+00 0. -1.
         21   -1    0    0  501  503 -0.00000000000E+00 -0.00000000000E+00 -0.11071388251E+04  0.11071388251E+04  0.00000000000E+00 0.  1.
    9000007    1    1    2  501    0  0.57941336396E+02 -0.33982871000E+03 -0.81304632563E+03  0.96947670329E+03  0.40000000000E+03 0.  1.
   -9000007    1    1    2    0  502 -0.57941336396E+02  0.33982871000E+03  0.10703845783E+03  0.53879307907E+03  0.40000000000E+03 0. -1.
<mgrwt>
<rscale>  2 0.52805374E+03</rscale>
<asrwt>0</asrwt>
<pdfrwt beam="1">  1       21 0.61712455E-01 0.52805374E+03</pdfrwt>
<pdfrwt beam="2">  1       21 0.17032905E+00 0.52805374E+03</pdfrwt>
<totfact> 0.41353613E+02</totfact>
</mgrwt>
</event>
<event>
 4    1  0.4758708E-002  0.4420045E+03  0.7818608E-02  0.1030134E+00
         21   -1    0    0  503  502  0.00000000000E+00  0.00000000000E+00  0.11611449530E+04  0.11611449530E+04  0.00000000000E+00 0.  1.
         21   -1    0    0  501  503 -0.00000000000E+00 -0.00000000000E+00 -0.25068287998E+03  0.25068287998E+03  0.00000000000E+00 0. -1.
    9000007    1    1    2  501    0 -0.18127332831E+03 -0.50079212369E+02  0.50443065122E+02  0.44487352122E+03  0.40000000000E+03 0. -1.
   -9000007    1    1    2    0  502  0.18127332831E+03  0.50079212369E+02  0.86001900790E+03  0.96695431175E+03  0.40000000000E+03 0.  1.
<mgrwt>
<rscale>  2 0.44200446E+03</rscale>
<asrwt>0</asrwt>
<pdfrwt beam="1">  1       21 0.17863768E+00 0.44200446E+03</pdfrwt>
<pdfrwt beam="2">  1       21 0.38566598E-01 0.44200446E+03</pdfrwt>
<totfact> 0.10153493E+03</totfact>
</mgrwt>
</event>
<event>
 4    1  0.4758708E-002  0.4500517E+03  0.7818608E-02  0.1027707E+00
         21   -1    0    0  501  502  0.00000000000E+00  0.00000000000E+00  0.90817701004E+03  0.90817701004E+03  0.00000000000E+00 0.  1.
         21   -1    0    0  502  503 -0.00000000000E+00 -0.00000000000E+00 -0.36928652273E+03  0.36928652273E+03  0.00000000000E+00 0.  1.
    9000007    1    1    2  501    0 -0.15367297789E+03  0.13759035491E+03  0.67142235174E+03  0.80830344817E+03  0.40000000000E+03 0.  1.
   -9000007    1    1    2    0  503  0.15367297789E+03 -0.13759035491E+03 -0.13253186444E+03  0.46916008461E+03  0.40000000000E+03 0.  1.
<mgrwt>
<rscale>  2 0.45005165E+03</rscale>
<asrwt>0</asrwt>
<pdfrwt beam="1">  1       21 0.13971954E+00 0.45005165E+03</pdfrwt>
<pdfrwt beam="2">  1       21 0.56813311E-01 0.45005165E+03</pdfrwt>
<totfact> 0.88414154E+02</totfact>
</mgrwt>
</event>
<event>
 4    1  0.4758708E-002  0.5203702E+03  0.7818608E-02  0.1008595E+00
         21   -1    0    0  503  502  0.00000000000E+00  0.00000000000E+00  0.27438024126E+03  0.27438024126E+03  0.00000000000E+00 0. -1.
         21   -1    0    0  501  503 -0.00000000000E+00 -0.00000000000E+00 -0.10042137941E+04  0.10042137941E+04  0.00000000000E+00 0.  1.
    9000007    1    1    2  501    0  0.31415112876E+03  0.10997388777E+03 -0.44886595383E+03  0.68721600113E+03  0.40000000000E+03 0.  1.
   -9000007    1    1    2    0  502 -0.31415112876E+03 -0.10997388777E+03 -0.28096759902E+03  0.59137803425E+03  0.40000000000E+03 0.  1.
<mgrwt>
<rscale>  2 0.52037024E+03</rscale>
<asrwt>0</asrwt>
<pdfrwt beam="1">  1       21 0.42212345E-01 0.52037024E+03</pdfrwt>
<pdfrwt beam="2">  1       21 0.15449443E+00 0.52037024E+03</pdfrwt>
<totfact> 0.12316429E+03</totfact>
</mgrwt>
</event>
<event>
 4    1  0.4758708E-002  0.4441284E+03  0.7818608E-02  0.1029488E+00
         21   -1    0    0  501  502  0.00000000000E+00  0.00000000000E+00  0.18205661166E+03  0.18205661166E+03  0.00000000000E+00 0.  1.
         21   -1    0    0  502  503 -0.00000000000E+00 -0.00000000000E+00 -0.12160944603E+04  0.12160944603E+04  0.00000000000E+00 0.  1.
    9000007    1    1    2  501    0  0.14627409255E+03  0.12591229845E+03 -0.28614335281E+03  0.52832569066E+03  0.40000000000E+03 0. -1.
   -9000007    1    1    2    0  503 -0.14627409255E+03 -0.12591229845E+03 -0.74789449583E+03  0.86982538129E+03  0.40000000000E+03 0. -1.
<mgrwt>
<rscale>  2 0.44412838E+03</rscale>
<asrwt>0</asrwt>
<pdfrwt beam="1">  1       21 0.28008709E-01 0.44412838E+03</pdfrwt>
<pdfrwt beam="2">  1       21 0.18709146E+00 0.44412838E+03</pdfrwt>
<totfact> 0.16833096E+03</totfact>
</mgrwt>
</event>
<event>
 4    1  0.4758708E-002  0.4544423E+03  0.7818608E-02  0.1026406E+00
         21   -1    0    0  503  502  0.00000000000E+00  0.00000000000E+00  0.39916727034E+03  0.39916727034E+03  0.00000000000E+00 0.  1.
         21   -1    0    0  501  503 -0.00000000000E+00 -0.00000000000E+00 -0.51761429918E+03  0.51761429918E+03  0.00000000000E+00 0.  1.
    9000007    1    1    2  501    0  0.21419475426E+03 -0.25266296947E+02 -0.49296104661E+02  0.45710817587E+03  0.40000000000E+03 0.  1.
   -9000007    1    1    2    0  502 -0.21419475426E+03  0.25266296947E+02 -0.69150924179E+02  0.45967339365E+03  0.40000000000E+03 0.  1.
<mgrwt>
<rscale>  2 0.45444227E+03</rscale>
<asrwt>0</asrwt>
<pdfrwt beam="1">  1       21 0.61410349E-01 0.45444227E+03</pdfrwt>
<pdfrwt beam="2">  1       21 0.79632969E-01 0.45444227E+03</pdfrwt>
<totfact> 0.29777071E+03</totfact>
</mgrwt>
</event>
<event>
 4    1  0.4758708E-002  0.4774620E+03  0.7818608E-02  0.1019835E+00
         21   -1    0    0  503  502  0.00000000000E+00  0.00000000000E+00  0.18575976631E+04  0.18575976631E+04  0.00000000000E+00 0.  1.
         21   -1    0    0  501  503 -0.00000000000E+00 -0.00000000000E+00 -0.12386650037E+03  0.12386650037E+03  0.00000000000E+00 0.  1.
    9000007    1    1    2  501    0  0.31561397044E+02  0.25879311542E+03  0.77167514422E+03  0.90744285031E+03  0.40000000000E+03 0.  1.
   -9000007    1    1    2    0  502 -0.31561397044E+02 -0.25879311542E+03  0.96205601849E+03  0.10740213131E+04  0.40000000000E+03 0.  1.
<mgrwt>
<rscale>  2 0.47746204E+03</rscale>
<asrwt>0</asrwt>
<pdfrwt beam="1">  1       21 0.28578424E+00 0.47746204E+03</pdfrwt>
<pdfrwt beam="2">  1       21 0.19056386E-01 0.47746204E+03</pdfrwt>
<totfact> 0.83002090E+02</totfact>
</mgrwt>
</event>
<event>
 4    1  0.4758708E-002  0.4653383E+03  0.7818608E-02  0.1023244E+00
         21   -1    0    0  503  502  0.00000000000E+00  0.00000000000E+00  0.63519756547E+03  0.63519756547E+03  0.00000000000E+00 0.  1.
         21   -1    0    0  501  503 -0.00000000000E+00 -0.00000000000E+00 -0.37261842259E+03  0.37261842259E+03  0.00000000000E+00 0.  1.
    9000007    1    1    2  501    0  0.13998039190E+03 -0.19221151742E+03 -0.15726522761E+02  0.46560401745E+03  0.40000000000E+03 0.  1.
   -9000007    1    1    2    0  502 -0.13998039190E+03  0.19221151742E+03  0.27830566565E+03  0.54221197061E+03  0.40000000000E+03 0.  1.
<mgrwt>
<rscale>  2 0.46533835E+03</rscale>
<asrwt>0</asrwt>
<pdfrwt beam="1">  1       21 0.97722702E-01 0.46533835E+03</pdfrwt>
<pdfrwt beam="2">  1       21 0.57325911E-01 0.46533835E+03</pdfrwt>
<totfact> 0.21271140E+03</totfact>
</mgrwt>
</event>
<event>
 4    1  0.4758708E-002  0.4069855E+03  0.7818608E-02  0.1041387E+00
         21   -1    0    0  503  502  0.00000000000E+00  0.00000000000E+00  0.57057449440E+03  0.57057449440E+03  0.00000000000E+00 0.  1.
         21   -1    0    0  501  503 -0.00000000000E+00 -0.00000000000E+00 -0.33691840082E+03  0.33691840082E+03  0.00000000000E+00 0.  1.
    9000007    1    1    2  501    0  0.48821003099E+02  0.57041413161E+02 -0.51957070924E+02  0.41028861839E+03  0.40000000000E+03 0.  1.
   -9000007    1    1    2    0  502 -0.48821003099E+02 -0.57041413161E+02  0.28561316451E+03  0.49720427683E+03  0.40000000000E+03 0.  1.
<mgrwt>
<rscale>  2 0.40698552E+03</rscale>
<asrwt>0</asrwt>
<pdfrwt beam="1">  1       21 0.87780691E-01 0.40698552E+03</pdfrwt>
<pdfrwt beam="2">  1       21 0.51833600E-01 0.40698552E+03</pdfrwt>
<totfact> 0.34868665E+03</totfact>
</mgrwt>
</event>
<event>
 4    1  0.4758708E-002  0.4946500E+03  0.7818608E-02  0.1015185E+00
         21   -1    0    0  503  502  0.00000000000E+00  0.00000000000E+00  0.10533486892E+04  0.10533486892E+04  0.00000000000E+00 0. -1.
         21   -1    0    0  501  503 -0.00000000000E+00 -0.00000000000E+00 -0.46190028411E+03  0.46190028411E+03  0.00000000000E+00 0. -1.
    9000007    1    1    2  501    0  0.22947637105E+03  0.17893914117E+03 -0.23844509096E+03  0.54912173743E+03  0.40000000000E+03 0. -1.
   -9000007    1    1    2    0  502 -0.22947637105E+03 -0.17893914117E+03  0.82989349605E+03  0.96612723588E+03  0.40000000000E+03 0. -1.
<mgrwt>
<rscale>  2 0.49465000E+03</rscale>
<asrwt>0</asrwt>
<pdfrwt beam="1">  1       21 0.16205364E+00 0.49465000E+03</pdfrwt>
<pdfrwt beam="2">  1       21 0.71061583E-01 0.49465000E+03</pdfrwt>
<totfact> 0.35230688E+02</totfact>
</mgrwt>
</event>
<event>
 4    1  0.4758708E-002  0.8934865E+03  0.7818608E-02  0.9433760E-01
         21   -1    0    0  501  502  0.00000000000E+00  0.00000000000E+00  0.30228376195E+03  0.30228376195E+03  0.00000000000E+00 0.  1.
         21   -1    0    0  502  503 -0.00000000000E+00 -0.00000000000E+00 -0.28073376017E+04  0.28073376017E+04  0.00000000000E+00 0. -1.
    9000007    1    1    2  501    0  0.59213741230E+03 -0.53636868635E+03 -0.87401201696E+03  0.12498860302E+04  0.40000000000E+03 0.  1.
   -9000007    1    1    2    0  503 -0.59213741230E+03  0.53636868635E+03 -0.16310418228E+04  0.18597353334E+04  0.40000000000E+03 0. -1.
<mgrwt>
<rscale>  2 0.89348648E+03</rscale>
<asrwt>0</asrwt>
<pdfrwt beam="1">  1       21 0.46505192E-01 0.89348648E+03</pdfrwt>
<pdfrwt beam="2">  1       21 0.43189812E+00 0.89348648E+03</pdfrwt>
<totfact> 0.13891861E+01</totfact>
</mgrwt>
</event>
<event>
 4    1  0.4758708E-002  0.5910881E+03  0.7818608E-02  0.9924070E-01
         21   -1    0    0  501  502  0.00000000000E+00  0.00000000000E+00  0.39765568553E+03  0.39765568553E+03  0.00000000000E+00 0.  1.
         21   -1    0    0  502  503 -0.00000000000E+00 -0.00000000000E+00 -0.89551178932E+03  0.89551178932E+03  0.00000000000E+00 0. -1.
    9000007    1    1    2  501    0  0.37980421718E+03  0.21244742981E+03 -0.33775129901E+03  0.68077976895E+03  0.40000000000E+03 0. -1.
   -9000007    1    1    2    0  503 -0.37980421718E+03 -0.21244742981E+03 -0.16010480478E+03  0.61238770590E+03  0.40000000000E+03 0. -1.
<mgrwt>
<rscale>  2 0.59108811E+03</rscale>
<asrwt>0</asrwt>
<pdfrwt beam="1">  1       21 0.61177798E-01 0.59108811E+03</pdfrwt>
<pdfrwt beam="2">  1       21 0.13777104E+00 0.59108811E+03</pdfrwt>
<totfact> 0.74028658E+02</totfact>
</mgrwt>
</event>
<event>
 4    1  0.4758708E-002  0.5816542E+03  0.7818608E-02  0.9944216E-01
         21   -1    0    0  501  502  0.00000000000E+00  0.00000000000E+00  0.60586416943E+03  0.60586416943E+03  0.00000000000E+00 0.  1.
         21   -1    0    0  502  503 -0.00000000000E+00 -0.00000000000E+00 -0.57188021122E+03  0.57188021122E+03  0.00000000000E+00 0. -1.
    9000007    1    1    2  501    0 -0.21110963962E+03  0.36572445510E+03  0.10736272698E+03  0.59147984931E+03  0.40000000000E+03 0.  1.
   -9000007    1    1    2    0  503  0.21110963962E+03 -0.36572445510E+03 -0.73378768772E+02  0.58626453134E+03  0.40000000000E+03 0.  1.
<mgrwt>
<rscale>  2 0.58165424E+03</rscale>
<asrwt>0</asrwt>
<pdfrwt beam="1">  1       21 0.93209872E-01 0.58165424E+03</pdfrwt>
<pdfrwt beam="2">  1       21 0.87981571E-01 0.58165424E+03</pdfrwt>
<totfact> 0.86724345E+02</totfact>
</mgrwt>
</event>
<event>
 4    1  0.4758708E-002  0.5177011E+03  0.7818608E-02  0.1009259E+00
         21   -1    0    0  501  502  0.00000000000E+00  0.00000000000E+00  0.38399804538E+03  0.38399804538E+03  0.00000000000E+00 0. -1.
         21   -1    0    0  502  503 -0.00000000000E+00 -0.00000000000E+00 -0.85992819894E+03  0.85992819894E+03  0.00000000000E+00 0. -1.
    9000007    1    1    2  501    0  0.21346191802E+03  0.24989681869E+03  0.31965098818E+02  0.51868697495E+03  0.40000000000E+03 0. -1.
   -9000007    1    1    2    0  503 -0.21346191802E+03 -0.24989681869E+03 -0.50789525238E+03  0.72523926937E+03  0.40000000000E+03 0. -1.
<mgrwt>
<rscale>  2 0.51770108E+03</rscale>
<asrwt>0</asrwt>
<pdfrwt beam="1">  1       21 0.59076623E-01 0.51770108E+03</pdfrwt>
<pdfrwt beam="2">  1       21 0.13229665E+00 0.51770108E+03</pdfrwt>
<totfact> 0.91267857E+02</totfact>
</mgrwt>
</event>
<event>
 4    1  0.4758708E-002  0.4098601E+03  0.7818608E-02  0.1040418E+00
         21   -1    0    0  503  502  0.00000000000E+00  0.00000000000E+00  0.34145054693E+03  0.34145054693E+03  0.00000000000E+00 0. -1.
         21   -1    0    0  501  503 -0.00000000000E+00 -0.00000000000E+00 -0.99283488066E+03  0.99283488066E+03  0.00000000000E+00 0. -1.
    9000007    1    1    2  501    0 -0.86841674814E+02  0.21067505224E+02 -0.79953915433E+03  0.89846990799E+03  0.40000000000E+03 0. -1.
   -9000007    1    1    2    0  502  0.86841674814E+02 -0.21067505224E+02  0.14815482059E+03  0.43581551960E+03  0.40000000000E+03 0. -1.
<mgrwt>
<rscale>  2 0.40986012E+03</rscale>
<asrwt>0</asrwt>
<pdfrwt beam="1">  1       21 0.52530854E-01 0.40986012E+03</pdfrwt>
<pdfrwt beam="2">  1       21 0.15274382E+00 0.40986012E+03</pdfrwt>
<totfact> 0.83874238E+02</totfact>
</mgrwt>
</event>
<event>
 4    1  0.4758708E-002  0.5215816E+03  0.7818608E-02  0.1008294E+00
         21   -1    0    0  501  502  0.00000000000E+00  0.00000000000E+00  0.49281726393E+03  0.49281726393E+03  0.00000000000E+00 0. -1.
         21   -1    0    0  502  503 -0.00000000000E+00 -0.00000000000E+00 -0.56872511693E+03  0.56872511693E+03  0.00000000000E+00 0.  1.
    9000007    1    1    2  501    0  0.61153458315E+02  0.32910119598E+03  0.52999429628E+02  0.52426737663E+03  0.40000000000E+03 0. -1.
   -9000007    1    1    2    0  503 -0.61153458315E+02 -0.32910119598E+03 -0.12890728263E+03  0.53727500423E+03  0.40000000000E+03 0. -1.
<mgrwt>
<rscale>  2 0.52158158E+03</rscale>
<asrwt>0</asrwt>
<pdfrwt beam="1">  1       21 0.75818041E-01 0.52158158E+03</pdfrwt>
<pdfrwt beam="2">  1       21 0.87496171E-01 0.52158158E+03</pdfrwt>
<totfact> 0.14547608E+03</totfact>
</mgrwt>
</event>
<event>
 4    1  0.4758708E-002  0.6907963E+03  0.7818608E-02  0.9733102E-01
         21   -1    0    0  501  502  0.00000000000E+00  0.00000000000E+00  0.75230670478E+03  0.75230670478E+03  0.00000000000E+00 0.  1.
         21   -1    0    0  502  503 -0.00000000000E+00 -0.00000000000E+00 -0.89985131607E+03  0.89985131607E+03  0.00000000000E+00 0. -1.
    9000007    1    1    2  501    0  0.29859371274E+03  0.47753678907E+03  0.37497101291E+03  0.78600435796E+03  0.40000000000E+03 0.  1.
   -9000007    1    1    2    0  503 -0.29859371274E+03 -0.47753678907E+03 -0.52251562420E+03  0.86615366289E+03  0.40000000000E+03 0. -1.
<mgrwt>
<rscale>  2 0.69079634E+03</rscale>
<asrwt>0</asrwt>
<pdfrwt beam="1">  1       21 0.11573949E+00 0.69079634E+03</pdfrwt>
<pdfrwt beam="2">  1       21 0.13843866E+00 0.69079634E+03</pdfrwt>
<totfact> 0.15683821E+02</totfact>
</mgrwt>
</event>
<event>
 4    1  0.4758708E-002  0.4503327E+03  0.7818608E-02  0.1027623E+00
         21   -1    0    0  503  502  0.00000000000E+00  0.00000000000E+00  0.16816097174E+03  0.16816097174E+03  0.00000000000E+00 0.  1.
         21   -1    0    0  501  503 -0.00000000000E+00 -0.00000000000E+00 -0.18461137452E+04  0.18461137452E+04  0.00000000000E+00 0. -1.
    9000007    1    1    2  501    0 -0.19212988140E+03  0.76718208895E+02 -0.14320289845E+04  0.15011684074E+04  0.40000000000E+03 0. -1.
   -9000007    1    1    2    0  502  0.19212988140E+03 -0.76718208895E+02 -0.24592378894E+03  0.51310630952E+03  0.40000000000E+03 0.  1.
<mgrwt>
<rscale>  2 0.45033274E+03</rscale>
<asrwt>0</asrwt>
<pdfrwt beam="1">  1       21 0.25870918E-01 0.45033274E+03</pdfrwt>
<pdfrwt beam="2">  1       21 0.28401751E+00 0.45033274E+03</pdfrwt>
<totfact> 0.47923135E+02</totfact>
</mgrwt>
</event>
<event>
 4    1  0.4758708E-002  0.4268743E+03  0.7818608E-02  0.1034852E+00
         21   -1    0    0  503  502  0.00000000000E+00  0.00000000000E+00  0.42515951794E+03  0.42515951794E+03  0.00000000000E+00 0.  1.
         21   -1    0    0  501  503 -0.00000000000E+00 -0.00000000000E+00 -0.47524927969E+03  0.47524927969E+03  0.00000000000E+00 0.  1.
    9000007    1    1    2  501    0 -0.12004967985E+03  0.88372845849E+02 -0.16610034255E+03  0.45805131733E+03  0.40000000000E+03 0.  1.
   -9000007    1    1    2    0  502  0.12004967985E+03 -0.88372845849E+02  0.11601058080E+03  0.44235748030E+03  0.40000000000E+03 0.  1.
<mgrwt>
<rscale>  2 0.42687432E+03</rscale>
<asrwt>0</asrwt>
<pdfrwt beam="1">  1       21 0.65409157E-01 0.42687432E+03</pdfrwt>
<pdfrwt beam="2">  1       21 0.73115274E-01 0.42687432E+03</pdfrwt>
<totfact> 0.31801155E+03</totfact>
</mgrwt>
</event>
<event>
 4    1  0.4758708E-002  0.5175225E+03  0.7818608E-02  0.1009304E+00
         21   -1    0    0  503  502  0.00000000000E+00  0.00000000000E+00  0.12568033670E+04  0.12568033670E+04  0.00000000000E+00 0.  1.
         21   -1    0    0  501  503 -0.00000000000E+00 -0.00000000000E+00 -0.21718124033E+03  0.21718124033E+03  0.00000000000E+00 0.  1.
    9000007    1    1    2  501    0  0.17993185887E+03 -0.27468908303E+03  0.62079351494E+03  0.80821665064E+03  0.40000000000E+03 0.  1.
   -9000007    1    1    2    0  502 -0.17993185887E+03  0.27468908303E+03  0.41882861177E+03  0.66576795673E+03  0.40000000000E+03 0.  1.
<mgrwt>
<rscale>  2 0.51752253E+03</rscale>
<asrwt>0</asrwt>
<pdfrwt beam="1">  1       21 0.19335436E+00 0.51752253E+03</pdfrwt>
<pdfrwt beam="2">  1       21 0.33412499E-01 0.51752253E+03</pdfrwt>
<totfact> 0.10407895E+03</totfact>
</mgrwt>
</event>
<event>
 4    1  0.4758708E-002  0.4048877E+03  0.7818608E-02  0.1042100E+00
         21   -1    0    0  503  502  0.00000000000E+00  0.00000000000E+00  0.18192044573E+04  0.18192044573E+04  0.00000000000E+00 0. -1.
         21   -1    0    0  501  503 -0.00000000000E+00 -0.00000000000E+00 -0.15692354921E+03  0.15692354921E+03  0.00000000000E+00 0. -1.
    9000007    1    1    2  501    0 -0.62533403081E+02 -0.48591516113E+01  0.18643192097E+03  0.44574757320E+03  0.40000000000E+03 0. -1.
   -9000007    1    1    2    0  502  0.62533403081E+02  0.48591516113E+01  0.14758489871E+04  0.15303804333E+04  0.40000000000E+03 0. -1.
<mgrwt>
<rscale>  2 0.40488769E+03</rscale>
<asrwt>0</asrwt>
<pdfrwt beam="1">  1       21 0.27987759E+00 0.40488769E+03</pdfrwt>
<pdfrwt beam="2">  1       21 0.24142086E-01 0.40488769E+03</pdfrwt>
<totfact> 0.59601269E+02</totfact>
</mgrwt>
</event>
<event>
 4    1  0.4758708E-002  0.4664741E+03  0.7818608E-02  0.1022920E+00
         21   -1    0    0  501  502  0.00000000000E+00  0.00000000000E+00  0.16521890484E+04  0.16521890484E+04  0.00000000000E+00 0. -1.
         21   -1    0    0  502  503 -0.00000000000E+00 -0.00000000000E+00 -0.13179134280E+03  0.13179134280E+03  0.00000000000E+00 0. -1.
    9000007    1    1    2  501    0  0.46735994008E+02  0.23540145377E+03  0.73709229949E+03  0.87229763014E+03  0.40000000000E+03 0. -1.
   -9000007    1    1    2    0  503 -0.46735994008E+02 -0.23540145377E+03  0.78330540609E+03  0.91168276105E+03  0.40000000000E+03 0. -1.
<mgrwt>
<rscale>  2 0.46647411E+03</rscale>
<asrwt>0</asrwt>
<pdfrwt beam="1">  1       21 0.25418292E+00 0.46647411E+03</pdfrwt>
<pdfrwt beam="2">  1       21 0.20275592E-01 0.46647411E+03</pdfrwt>
<totfact> 0.11536729E+03</totfact>
</mgrwt>
</event>
<event>
 4    1  0.4758708E-002  0.4289854E+03  0.7818608E-02  0.1034181E+00
         21   -1    0    0  503  502  0.00000000000E+00  0.00000000000E+00  0.10153206475E+04  0.10153206475E+04  0.00000000000E+00 0. -1.
         21   -1    0    0  501  503 -0.00000000000E+00 -0.00000000000E+00 -0.24196793119E+03  0.24196793119E+03  0.00000000000E+00 0. -1.
    9000007    1    1    2  501    0 -0.13531561546E+03  0.75618460376E+02  0.70158089390E+03  0.82234069461E+03  0.40000000000E+03 0. -1.
   -9000007    1    1    2    0  502  0.13531561546E+03 -0.75618460376E+02  0.71771822365E+02  0.43494788403E+03  0.40000000000E+03 0. -1.
<mgrwt>
<rscale>  2 0.42898539E+03</rscale>
<asrwt>0</asrwt>
<pdfrwt beam="1">  1       21 0.15620317E+00 0.42898539E+03</pdfrwt>
<pdfrwt beam="2">  1       21 0.37225836E-01 0.42898539E+03</pdfrwt>
<totfact> 0.16046840E+03</totfact>
</mgrwt>
</event>
<event>
 4    1  0.4758708E-002  0.4401256E+03  0.7818608E-02  0.1030708E+00
         21   -1    0    0  501  502  0.00000000000E+00  0.00000000000E+00  0.12995897403E+03  0.12995897403E+03  0.00000000000E+00 0. -1.
         21   -1    0    0  502  503 -0.00000000000E+00 -0.00000000000E+00 -0.14963676547E+04  0.14963676547E+04  0.00000000000E+00 0. -1.
    9000007    1    1    2  501    0 -0.15278571142E+03  0.10181868390E+03 -0.63250714027E+03  0.77056849177E+03  0.40000000000E+03 0. -1.
   -9000007    1    1    2    0  503  0.15278571142E+03 -0.10181868390E+03 -0.73390154043E+03  0.85575813700E+03  0.40000000000E+03 0. -1.
<mgrwt>
<rscale>  2 0.44012557E+03</rscale>
<asrwt>0</asrwt>
<pdfrwt beam="1">  1       21 0.19993688E-01 0.44012557E+03</pdfrwt>
<pdfrwt beam="2">  1       21 0.23021042E+00 0.44012557E+03</pdfrwt>
<totfact> 0.16892567E+03</totfact>
</mgrwt>
</event>
<event>
 4    1  0.4758708E-002  0.4983409E+03  0.7818608E-02  0.1014213E+00
         21   -1    0    0  501  502  0.00000000000E+00  0.00000000000E+00  0.45042284710E+03  0.45042284710E+03  0.00000000000E+00 0.  1.
         21   -1    0    0  502  503 -0.00000000000E+00 -0.00000000000E+00 -0.94670838846E+03  0.94670838846E+03  0.00000000000E+00 0. -1.
    9000007    1    1    2  501    0  0.29282836410E+03 -0.50943355929E+02  0.20328769648E+03  0.53820959103E+03  0.40000000000E+03 0.  1.
   -9000007    1    1    2    0  503 -0.29282836410E+03  0.50943355929E+02 -0.69957323784E+03  0.85892164453E+03  0.40000000000E+03 0. -1.
<mgrwt>
<rscale>  2 0.49834092E+03</rscale>
<asrwt>0</asrwt>
<pdfrwt beam="1">  1       21 0.69295823E-01 0.49834092E+03</pdfrwt>
<pdfrwt beam="2">  1       21 0.14564744E+00 0.49834092E+03</pdfrwt>
<totfact> 0.49942312E+02</totfact>
</mgrwt>
</event>
<event>
 4    1  0.4758708E-002  0.8408608E+03  0.7818608E-02  0.9502686E-01
         21   -1    0    0  501  502  0.00000000000E+00  0.00000000000E+00  0.11625703048E+04  0.11625703048E+04  0.00000000000E+00 0.  1.
         21   -1    0    0  502  503 -0.00000000000E+00 -0.00000000000E+00 -0.61833631044E+03  0.61833631044E+03  0.00000000000E+00 0.  1.
    9000007    1    1    2  501    0  0.80513702806E+01  0.73958238760E+03  0.38626283462E+03  0.92533556618E+03  0.40000000000E+03 0.  1.
   -9000007    1    1    2    0  503 -0.80513702806E+01 -0.73958238760E+03  0.15797115969E+03  0.85557104902E+03  0.40000000000E+03 0.  1.
<mgrwt>
<rscale>  2 0.84086083E+03</rscale>
<asrwt>0</asrwt>
<pdfrwt beam="1">  1       21 0.17885697E+00 0.84086083E+03</pdfrwt>
<pdfrwt beam="2">  1       21 0.95128663E-01 0.84086083E+03</pdfrwt>
<totfact> 0.11860652E+02</totfact>
</mgrwt>
</event>
<event>
 4    1  0.4758708E-002  0.4152745E+03  0.7818608E-02  0.1038615E+00
         21   -1    0    0  503  502  0.00000000000E+00  0.00000000000E+00  0.11086226058E+04  0.11086226058E+04  0.00000000000E+00 0. -1.
         21   -1    0    0  501  503 -0.00000000000E+00 -0.00000000000E+00 -0.25155359537E+03  0.25155359537E+03  0.00000000000E+00 0. -1.
    9000007    1    1    2  501    0 -0.10894637053E+03 -0.24158042066E+02  0.84080412643E+01  0.41535962467E+03  0.40000000000E+03 0. -1.
   -9000007    1    1    2    0  502  0.10894637053E+03  0.24158042066E+02  0.84866096921E+03  0.94481657654E+03  0.40000000000E+03 0. -1.
<mgrwt>
<rscale>  2 0.41527451E+03</rscale>
<asrwt>0</asrwt>
<pdfrwt beam="1">  1       21 0.17055732E+00 0.41527451E+03</pdfrwt>
<pdfrwt beam="2">  1       21 0.38700554E-01 0.41527451E+03</pdfrwt>
<totfact> 0.11660131E+03</totfact>
</mgrwt>
</event>
<event>
 4    1  0.4758708E-002  0.5858702E+03  0.7818608E-02  0.9935162E-01
         21   -1    0    0  503  502  0.00000000000E+00  0.00000000000E+00  0.22426317574E+03  0.22426317574E+03  0.00000000000E+00 0.  1.
         21   -1    0    0  501  503 -0.00000000000E+00 -0.00000000000E+00 -0.19310106127E+04  0.19310106127E+04  0.00000000000E+00 0. -1.
    9000007    1    1    2  501    0  0.15673168171E+03  0.39834538105E+03 -0.13441292479E+04  0.14662630384E+04  0.40000000000E+03 0.  1.
   -9000007    1    1    2    0  502 -0.15673168171E+03 -0.39834538105E+03 -0.36261818907E+03  0.68901075006E+03  0.40000000000E+03 0.  1.
<mgrwt>
<rscale>  2 0.58587018E+03</rscale>
<asrwt>0</asrwt>
<pdfrwt beam="1">  1       21 0.34502027E-01 0.58587018E+03</pdfrwt>
<pdfrwt beam="2">  1       21 0.29707856E+00 0.58587018E+03</pdfrwt>
<totfact> 0.21029720E+02</totfact>
</mgrwt>
</event>
<event>
 4    1  0.4758708E-002  0.4358253E+03  0.7818608E-02  0.1032035E+00
         21   -1    0    0  501  502  0.00000000000E+00  0.00000000000E+00  0.15170802328E+04  0.15170802328E+04  0.00000000000E+00 0.  1.
         21   -1    0    0  502  503 -0.00000000000E+00 -0.00000000000E+00 -0.13915613498E+03  0.13915613498E+03  0.00000000000E+00 0.  1.
    9000007    1    1    2  501    0  0.15995388141E+03 -0.66018412349E+02  0.95118462460E+03  0.10462771454E+04  0.40000000000E+03 0.  1.
   -9000007    1    1    2    0  503 -0.15995388141E+03  0.66018412349E+02  0.42673947326E+03  0.60995922239E+03  0.40000000000E+03 0.  1.
<mgrwt>
<rscale>  2 0.43582528E+03</rscale>
<asrwt>0</asrwt>
<pdfrwt beam="1">  1       21 0.23339695E+00 0.43582528E+03</pdfrwt>
<pdfrwt beam="2">  1       21 0.21408637E-01 0.43582528E+03</pdfrwt>
<totfact> 0.14187834E+03</totfact>
</mgrwt>
</event>
<event>
 4    1  0.4758708E-002  0.4315538E+03  0.7818608E-02  0.1033370E+00
         21   -1    0    0  503  502  0.00000000000E+00  0.00000000000E+00  0.65794793783E+03  0.65794793783E+03  0.00000000000E+00 0.  1.
         21   -1    0    0  501  503 -0.00000000000E+00 -0.00000000000E+00 -0.28334978366E+03  0.28334978366E+03  0.00000000000E+00 0.  1.
    9000007    1    1    2  501    0 -0.97336646560E+02 -0.12947671458E+03  0.20235430721E+03  0.47664022913E+03  0.40000000000E+03 0. -1.
   -9000007    1    1    2    0  502  0.97336646560E+02  0.12947671458E+03  0.17224384696E+03  0.46465749235E+03  0.40000000000E+03 0. -1.
<mgrwt>
<rscale>  2 0.43155375E+03</rscale>
<asrwt>0</asrwt>
<pdfrwt beam="1">  1       21 0.10122276E+00 0.43155375E+03</pdfrwt>
<pdfrwt beam="2">  1       21 0.43592275E-01 0.43155375E+03</pdfrwt>
<totfact> 0.35409692E+03</totfact>
</mgrwt>
</event>
<event>
 4    1  0.4758708E-002  0.4221688E+03  0.7818608E-02  0.1036363E+00
         21   -1    0    0  501  502  0.00000000000E+00  0.00000000000E+00  0.11754456435E+04  0.11754456435E+04  0.00000000000E+00 0.  1.
         21   -1    0    0  502  503 -0.00000000000E+00 -0.00000000000E+00 -0.18916439464E+03  0.18916439464E+03  0.00000000000E+00 0.  1.
    9000007    1    1    2  501    0 -0.13494074953E+03 -0.41770501914E+01  0.79709256636E+03  0.90198836632E+03  0.40000000000E+03 0.  1.
   -9000007    1    1    2    0  503  0.13494074953E+03  0.41770501914E+01  0.18918868247E+03  0.46262167179E+03  0.40000000000E+03 0.  1.
<mgrwt>
<rscale>  2 0.42216875E+03</rscale>
<asrwt>0</asrwt>
<pdfrwt beam="1">  1       21 0.18083779E+00 0.42216875E+03</pdfrwt>
<pdfrwt beam="2">  1       21 0.29102215E-01 0.42216875E+03</pdfrwt>
<totfact> 0.17417418E+03</totfact>
</mgrwt>
</event>
<event>
 4    1  0.4758708E-002  0.5064174E+03  0.7818608E-02  0.1012117E+00
         21   -1    0    0  501  502  0.00000000000E+00  0.00000000000E+00  0.46477524179E+03  0.46477524179E+03  0.00000000000E+00 0.  1.
         21   -1    0    0  502  503 -0.00000000000E+00 -0.00000000000E+00 -0.59780537296E+03  0.59780537296E+03  0.00000000000E+00 0. -1.
    9000007    1    1    2  501    0  0.17064782641E+03 -0.25949554774E+03  0.80885965630E+02  0.51283638657E+03  0.40000000000E+03 0. -1.
   -9000007    1    1    2    0  503 -0.17064782641E+03  0.25949554774E+03 -0.21391609680E+03  0.54974422819E+03  0.40000000000E+03 0.  1.
<mgrwt>
<rscale>  2 0.50641744E+03</rscale>
<asrwt>0</asrwt>
<pdfrwt beam="1">  1       21 0.71503884E-01 0.50641744E+03</pdfrwt>
<pdfrwt beam="2">  1       21 0.91970057E-01 0.50641744E+03</pdfrwt>
<totfact> 0.14845341E+03</totfact>
</mgrwt>
</event>
<event>
 4    1  0.4758708E-002  0.4043062E+03  0.7818608E-02  0.1042299E+00
         21   -1    0    0  501  502  0.00000000000E+00  0.00000000000E+00  0.74104381363E+03  0.74104381363E+03  0.00000000000E+00 0.  1.
         21   -1    0    0  502  503 -0.00000000000E+00 -0.00000000000E+00 -0.28147225686E+03  0.28147225686E+03  0.00000000000E+00 0.  1.
    9000007    1    1    2  501    0 -0.56242496151E+02  0.17329661641E+02 -0.79988060662E+01  0.40438535637E+03  0.40000000000E+03 0.  1.
   -9000007    1    1    2    0  503  0.56242496151E+02 -0.17329661641E+02  0.46757036284E+03  0.61813071413E+03  0.40000000000E+03 0.  1.
<mgrwt>
<rscale>  2 0.40430624E+03</rscale>
<asrwt>0</asrwt>
<pdfrwt beam="1">  1       21 0.11400674E+00 0.40430624E+03</pdfrwt>
<pdfrwt beam="2">  1       21 0.43303424E-01 0.40430624E+03</pdfrwt>
<totfact> 0.27060722E+03</totfact>
</mgrwt>
</event>
<event>
 4    1  0.4758708E-002  0.5649272E+03  0.7818608E-02  0.9980967E-01
         21   -1    0    0  503  502  0.00000000000E+00  0.00000000000E+00  0.12992181743E+04  0.12992181743E+04  0.00000000000E+00 0. -1.
         21   -1    0    0  501  503 -0.00000000000E+00 -0.00000000000E+00 -0.33361740563E+03  0.33361740563E+03  0.00000000000E+00 0. -1.
    9000007    1    1    2  501    0  0.39506027168E+03 -0.55408892868E+02  0.63554948153E+02  0.56849098067E+03  0.40000000000E+03 0. -1.
   -9000007    1    1    2    0  502 -0.39506027168E+03  0.55408892868E+02  0.90204582049E+03  0.10643445992E+04  0.40000000000E+03 0. -1.
<mgrwt>
<rscale>  2 0.56492722E+03</rscale>
<asrwt>0</asrwt>
<pdfrwt beam="1">  1       21 0.19987972E+00 0.56492722E+03</pdfrwt>
<pdfrwt beam="2">  1       21 0.51325755E-01 0.56492722E+03</pdfrwt>
<totfact> 0.37792883E+02</totfact>
</mgrwt>
</event>
<event>
 4    1  0.4758708E-002  0.4719043E+03  0.7818608E-02  0.1021384E+00
         21   -1    0    0  501  502  0.00000000000E+00  0.00000000000E+00  0.16443262590E+04  0.16443262590E+04  0.00000000000E+00 0. -1.
         21   -1    0    0  502  503 -0.00000000000E+00 -0.00000000000E+00 -0.14988045277E+03  0.14988045277E+03  0.00000000000E+00 0.  1.
    9000007    1    1    2  501    0  0.18419570607E+03 -0.16960426335E+03  0.10257627439E+04  0.11291071123E+04  0.40000000000E+03 0. -1.
   -9000007    1    1    2    0  503 -0.18419570607E+03  0.16960426335E+03  0.46868306233E+03  0.66509959945E+03  0.40000000000E+03 0.  1.
<mgrwt>
<rscale>  2 0.47190430E+03</rscale>
<asrwt>0</asrwt>
<pdfrwt beam="1">  1       21 0.25297326E+00 0.47190430E+03</pdfrwt>
<pdfrwt beam="2">  1       21 0.23058532E-01 0.47190430E+03</pdfrwt>
<totfact> 0.91442335E+02</totfact>
</mgrwt>
</event>
<event>
 4    1  0.4758708E-002  0.4222450E+03  0.7818608E-02  0.1036338E+00
         21   -1    0    0  501  502  0.00000000000E+00  0.00000000000E+00  0.62528659124E+03  0.62528659124E+03  0.00000000000E+00 0.  1.
         21   -1    0    0  502  503 -0.00000000000E+00 -0.00000000000E+00 -0.45895475528E+03  0.45895475528E+03  0.00000000000E+00 0.  1.
    9000007    1    1    2  501    0 -0.92812973826E+02  0.98369508313E+02  0.41679289958E+03  0.59330188725E+03  0.40000000000E+03 0.  1.
   -9000007    1    1    2    0  503  0.92812973826E+02 -0.98369508313E+02 -0.25046106362E+03  0.49093945927E+03  0.40000000000E+03 0.  1.
<mgrwt>
<rscale>  2 0.42224496E+03</rscale>
<asrwt>0</asrwt>
<pdfrwt beam="1">  1       21 0.96197937E-01 0.42224496E+03</pdfrwt>
<pdfrwt beam="2">  1       21 0.70608424E-01 0.42224496E+03</pdfrwt>
<totfact> 0.14163656E+03</totfact>
</mgrwt>
</event>
<event>
 4    1  0.4758708E-002  0.4546775E+03  0.7818608E-02  0.1026336E+00
         21   -1    0    0  501  502  0.00000000000E+00  0.00000000000E+00  0.47869177525E+03  0.47869177525E+03  0.00000000000E+00 0. -1.
         21   -1    0    0  502  503 -0.00000000000E+00 -0.00000000000E+00 -0.45232061056E+03  0.45232061056E+03  0.00000000000E+00 0.  1.
    9000007    1    1    2  501    0 -0.21080270930E+03  0.47894154747E+02 -0.85801210644E+02  0.46270236660E+03  0.40000000000E+03 0.  1.
   -9000007    1    1    2    0  503  0.21080270930E+03 -0.47894154747E+02  0.11217237533E+03  0.46831001921E+03  0.40000000000E+03 0. -1.
<mgrwt>
<rscale>  2 0.45467750E+03</rscale>
<asrwt>0</asrwt>
<pdfrwt beam="1">  1       21 0.73644889E-01 0.45467750E+03</pdfrwt>
<pdfrwt beam="2">  1       21 0.69587786E-01 0.45467750E+03</pdfrwt>
<totfact> 0.26966181E+03</totfact>
</mgrwt>
</event>
<event>
 4    1  0.4758708E-002  0.5024624E+03  0.7818608E-02  0.1013138E+00
         21   -1    0    0  503  502  0.00000000000E+00  0.00000000000E+00  0.14500072320E+03  0.14500072320E+03  0.00000000000E+00 0.  1.
         21   -1    0    0  501  503 -0.00000000000E+00 -0.00000000000E+00 -0.17454601320E+04  0.17454601320E+04  0.00000000000E+00 0. -1.
    9000007    1    1    2  501    0  0.15099110066E+03 -0.26395104352E+03 -0.84718334694E+03  0.98498126337E+03  0.40000000000E+03 0. -1.
   -9000007    1    1    2    0  502 -0.15099110066E+03  0.26395104352E+03 -0.75327606182E+03  0.90547959180E+03  0.40000000000E+03 0.  1.
<mgrwt>
<rscale>  2 0.50246240E+03</rscale>
<asrwt>0</asrwt>
<pdfrwt beam="1">  1       21 0.22307805E-01 0.50246240E+03</pdfrwt>
<pdfrwt beam="2">  1       21 0.26853231E+00 0.50246240E+03</pdfrwt>
<totfact> 0.77179064E+02</totfact>
</mgrwt>
</event>
<event>
 4    1  0.4758708E-002  0.9685182E+03  0.7818608E-02  0.9343764E-01
         21   -1    0    0  503  502  0.00000000000E+00  0.00000000000E+00  0.23458598021E+04  0.23458598021E+04  0.00000000000E+00 0. -1.
         21   -1    0    0  501  503 -0.00000000000E+00 -0.00000000000E+00 -0.40203332955E+03  0.40203332955E+03  0.00000000000E+00 0.  1.
    9000007    1    1    2  501    0 -0.78332299582E+03 -0.40550298953E+03  0.10728120514E+04  0.14453211712E+04  0.40000000000E+03 0.  1.
   -9000007    1    1    2    0  502  0.78332299582E+03  0.40550298953E+03  0.87101442121E+03  0.13025719605E+04  0.40000000000E+03 0. -1.
<mgrwt>
<rscale>  2 0.96851824E+03</rscale>
<asrwt>0</asrwt>
<pdfrwt beam="1">  1       21 0.36090150E+00 0.96851824E+03</pdfrwt>
<pdfrwt beam="2">  1       21 0.61851283E-01 0.96851824E+03</pdfrwt>
<totfact> 0.21136226E+01</totfact>
</mgrwt>
</event>
<event>
 4    1  0.4758708E-002  0.4745293E+03  0.7818608E-02  0.1020650E+00
         21   -1    0    0  503  502  0.00000000000E+00  0.00000000000E+00  0.10299219981E+04  0.10299219981E+04  0.00000000000E+00 0.  1.
         21   -1    0    0  501  503 -0.00000000000E+00 -0.00000000000E+00 -0.57779333089E+03  0.57779333089E+03  0.00000000000E+00 0. -1.
    9000007    1    1    2  501    0  0.20627936152E+03  0.15042243932E+03 -0.40771084671E+03  0.62562466365E+03  0.40000000000E+03 0. -1.
   -9000007    1    1    2    0  502 -0.20627936152E+03 -0.15042243932E+03  0.85983951393E+03  0.98209066534E+03  0.40000000000E+03 0.  1.
<mgrwt>
<rscale>  2 0.47452933E+03</rscale>
<asrwt>0</asrwt>
<pdfrwt beam="1">  1       21 0.15844954E+00 0.47452933E+03</pdfrwt>
<pdfrwt beam="2">  1       21 0.88891282E-01 0.47452933E+03</pdfrwt>
<totfact> 0.22567134E+02</totfact>
</mgrwt>
</event>
<event>
 4    1  0.4758708E-002  0.4581161E+03  0.7818608E-02  0.1025329E+00
         21   -1    0    0  501  502  0.00000000000E+00  0.00000000000E+00  0.19658911445E+03  0.19658911445E+03  0.00000000000E+00 0. -1.
         21   -1    0    0  502  503 -0.00000000000E+00 -0.00000000000E+00 -0.10776791555E+04  0.10776791555E+04  0.00000000000E+00 0. -1.
    9000007    1    1    2  501    0  0.14120037602E+03  0.17301114300E+03 -0.50228807202E+03  0.67982623448E+03  0.40000000000E+03 0. -1.
   -9000007    1    1    2    0  503 -0.14120037602E+03 -0.17301114300E+03 -0.37880196901E+03  0.59444203545E+03  0.40000000000E+03 0. -1.
<mgrwt>
<rscale>  2 0.45811614E+03</rscale>
<asrwt>0</asrwt>
<pdfrwt beam="1">  1       21 0.30244479E-01 0.45811614E+03</pdfrwt>
<pdfrwt beam="2">  1       21 0.16579679E+00 0.45811614E+03</pdfrwt>
<totfact> 0.20393333E+03</totfact>
</mgrwt>
</event>
<event>
 4    1  0.4758708E-002  0.4299662E+03  0.7818608E-02  0.1033871E+00
         21   -1    0    0  503  502  0.00000000000E+00  0.00000000000E+00  0.81060235819E+03  0.81060235819E+03  0.00000000000E+00 0. -1.
         21   -1    0    0  501  503 -0.00000000000E+00 -0.00000000000E+00 -0.23589648966E+03  0.23589648966E+03  0.00000000000E+00 0. -1.
    9000007    1    1    2  501    0 -0.10265250501E+03  0.11972229338E+03  0.38268481013E+03  0.57560283897E+03  0.40000000000E+03 0.  1.
   -9000007    1    1    2    0  502  0.10265250501E+03 -0.11972229338E+03  0.19202105840E+03  0.47089600889E+03  0.40000000000E+03 0.  1.
<mgrwt>
<rscale>  2 0.42996624E+03</rscale>
<asrwt>0</asrwt>
<pdfrwt beam="1">  1       21 0.12470805E+00 0.42996624E+03</pdfrwt>
<pdfrwt beam="2">  1       21 0.36291768E-01 0.42996624E+03</pdfrwt>
<totfact> 0.30690314E+03</totfact>
</mgrwt>
</event>
<event>
 4    1  0.4758708E-002  0.5499125E+03  0.7818608E-02  0.1001514E+00
         21   -1    0    0  501  502  0.00000000000E+00  0.00000000000E+00  0.15147540619E+03  0.15147540619E+03  0.00000000000E+00 0.  1.
         21   -1    0    0  502  503 -0.00000000000E+00 -0.00000000000E+00 -0.24864510034E+04  0.24864510034E+04  0.00000000000E+00 0. -1.
    9000007    1    1    2  501    0 -0.32685175792E+03  0.18860458954E+03 -0.58193177487E+03  0.80065495281E+03  0.40000000000E+03 0.  1.
   -9000007    1    1    2    0  503  0.32685175792E+03 -0.18860458954E+03 -0.17530438224E+04  0.18372714568E+04  0.40000000000E+03 0. -1.
<mgrwt>
<rscale>  2 0.54991250E+03</rscale>
<asrwt>0</asrwt>
<pdfrwt beam="1">  1       21 0.23303909E-01 0.54991250E+03</pdfrwt>
<pdfrwt beam="2">  1       21 0.38253091E+00 0.54991250E+03</pdfrwt>
<totfact> 0.13842253E+02</totfact>
</mgrwt>
</event>
<event>
 4    1  0.4758708E-002  0.4422787E+03  0.7818608E-02  0.1030050E+00
         21   -1    0    0  503  502  0.00000000000E+00  0.00000000000E+00  0.25420267131E+03  0.25420267131E+03  0.00000000000E+00 0. -1.
         21   -1    0    0  501  503 -0.00000000000E+00 -0.00000000000E+00 -0.77853177771E+03  0.77853177771E+03  0.00000000000E+00 0. -1.
    9000007    1    1    2  501    0  0.11598771346E+03  0.14885317484E+03 -0.31776378853E+03  0.54459548532E+03  0.40000000000E+03 0. -1.
   -9000007    1    1    2    0  502 -0.11598771346E+03 -0.14885317484E+03 -0.20656531787E+03  0.48813896370E+03  0.40000000000E+03 0. -1.
<mgrwt>
<rscale>  2 0.44227866E+03</rscale>
<asrwt>0</asrwt>
<pdfrwt beam="1">  1       21 0.39108103E-01 0.44227866E+03</pdfrwt>
<pdfrwt beam="2">  1       21 0.11977412E+00 0.44227866E+03</pdfrwt>
<totfact> 0.29076796E+03</totfact>
</mgrwt>
</event>
<event>
 4    1  0.4758708E-002  0.4174084E+03  0.7818608E-02  0.1037913E+00
         21   -1    0    0  503  502  0.00000000000E+00  0.00000000000E+00  0.48668872906E+03  0.48668872906E+03  0.00000000000E+00 0.  1.
         21   -1    0    0  501  503 -0.00000000000E+00 -0.00000000000E+00 -0.56545114088E+03  0.56545114088E+03  0.00000000000E+00 0.  1.
    9000007    1    1    2  501    0  0.99082674156E+02  0.66425835854E+02 -0.35803138786E+03  0.54992385171E+03  0.40000000000E+03 0.  1.
   -9000007    1    1    2    0  502 -0.99082674156E+02 -0.66425835854E+02  0.27926897604E+03  0.50221601823E+03  0.40000000000E+03 0.  1.
<mgrwt>
<rscale>  2 0.41740839E+03</rscale>
<asrwt>0</asrwt>
<pdfrwt beam="1">  1       21 0.74875190E-01 0.41740839E+03</pdfrwt>
<pdfrwt beam="2">  1       21 0.86992483E-01 0.41740839E+03</pdfrwt>
<totfact> 0.15776662E+03</totfact>
</mgrwt>
</event>
<event>
 4    1  0.4758708E-002  0.5967413E+03  0.7818608E-02  0.9912190E-01
         21   -1    0    0  501  502  0.00000000000E+00  0.00000000000E+00  0.10524086522E+04  0.10524086522E+04  0.00000000000E+00 0.  1.
         21   -1    0    0  502  503 -0.00000000000E+00 -0.00000000000E+00 -0.49402743012E+03  0.49402743012E+03  0.00000000000E+00 0.  1.
    9000007    1    1    2  501    0 -0.35316341392E+03  0.26716249369E+03  0.71321664146E+03  0.92993449910E+03  0.40000000000E+03 0.  1.
   -9000007    1    1    2    0  503  0.35316341392E+03 -0.26716249369E+03 -0.15483541941E+03  0.61650158319E+03  0.40000000000E+03 0.  1.
<mgrwt>
<rscale>  2 0.59674131E+03</rscale>
<asrwt>0</asrwt>
<pdfrwt beam="1">  1       21 0.16190902E+00 0.59674131E+03</pdfrwt>
<pdfrwt beam="2">  1       21 0.76004220E-01 0.59674131E+03</pdfrwt>
<totfact> 0.29082925E+02</totfact>
</mgrwt>
</event>
<event>
 4    1  0.4758708E-002  0.4911192E+03  0.7818608E-02  0.1016123E+00
         21   -1    0    0  503  502  0.00000000000E+00  0.00000000000E+00  0.80699921163E+03  0.80699921163E+03  0.00000000000E+00 0.  1.
         21   -1    0    0  501  503 -0.00000000000E+00 -0.00000000000E+00 -0.47080472074E+03  0.47080472074E+03  0.00000000000E+00 0. -1.
    9000007    1    1    2  501    0 -0.13112968810E+03  0.25298834117E+03 -0.21798478216E+03  0.53732249266E+03  0.40000000000E+03 0. -1.
   -9000007    1    1    2    0  502  0.13112968810E+03 -0.25298834117E+03  0.55417927305E+03  0.74048143971E+03  0.40000000000E+03 0.  1.
<mgrwt>
<rscale>  2 0.49111923E+03</rscale>
<asrwt>0</asrwt>
<pdfrwt beam="1">  1       21 0.12415372E+00 0.49111923E+03</pdfrwt>
<pdfrwt beam="2">  1       21 0.72431496E-01 0.49111923E+03</pdfrwt>
<totfact> 0.68994441E+02</totfact>
</mgrwt>
</event>
<event>
 4    1  0.4758708E-002  0.4149452E+03  0.7818608E-02  0.1038724E+00
         21   -1    0    0  503  502  0.00000000000E+00  0.00000000000E+00  0.25273605072E+03  0.25273605072E+03  0.00000000000E+00 0. -1.
         21   -1    0    0  501  503 -0.00000000000E+00 -0.00000000000E+00 -0.77330161518E+03  0.77330161518E+03  0.00000000000E+00 0. -1.
    9000007    1    1    2  501    0 -0.24512571329E+01 -0.11033356276E+03 -0.43727163229E+03  0.60281504969E+03  0.40000000000E+03 0.  1.
   -9000007    1    1    2    0  502  0.24512571329E+01  0.11033356276E+03 -0.83293932168E+02  0.42322261621E+03  0.40000000000E+03 0.  1.
<mgrwt>
<rscale>  2 0.41494518E+03</rscale>
<asrwt>0</asrwt>
<pdfrwt beam="1">  1       21 0.38882470E-01 0.41494518E+03</pdfrwt>
<pdfrwt beam="2">  1       21 0.11896948E+00 0.41494518E+03</pdfrwt>
<totfact> 0.30245568E+03</totfact>
</mgrwt>
</event>
<event>
 4    1  0.4758708E-002  0.4325192E+03  0.7818608E-02  0.1033067E+00
         21   -1    0    0  503  502  0.00000000000E+00  0.00000000000E+00  0.12997686016E+03  0.12997686016E+03  0.00000000000E+00 0. -1.
         21   -1    0    0  501  503 -0.00000000000E+00 -0.00000000000E+00 -0.16816866220E+04  0.16816866220E+04  0.00000000000E+00 0.  1.
    9000007    1    1    2  501    0  0.67015423500E+02  0.15027225962E+03 -0.11197683175E+04  0.12003973941E+04  0.40000000000E+03 0.  1.
   -9000007    1    1    2    0  502 -0.67015423500E+02 -0.15027225962E+03 -0.43194144431E+03  0.61126608797E+03  0.40000000000E+03 0. -1.
<mgrwt>
<rscale>  2 0.43251915E+03</rscale>
<asrwt>0</asrwt>
<pdfrwt beam="1">  1       21 0.19996439E-01 0.43251915E+03</pdfrwt>
<pdfrwt beam="2">  1       21 0.25872103E+00 0.43251915E+03</pdfrwt>
<totfact> 0.11302664E+03</totfact>
</mgrwt>
</event>
<event>
 4    1  0.4758708E-002  0.4137439E+03  0.7818608E-02  0.1039122E+00
         21   -1    0    0  501  502  0.00000000000E+00  0.00000000000E+00  0.73043479976E+03  0.73043479976E+03  0.00000000000E+00 0.  1.
         21   -1    0    0  502  503 -0.00000000000E+00 -0.00000000000E+00 -0.24056638780E+03  0.24056638780E+03  0.00000000000E+00 0.  1.
    9000007    1    1    2  501    0  0.10522818112E+03  0.10536702327E+02  0.32292181960E+03  0.52484520935E+03  0.40000000000E+03 0. -1.
   -9000007    1    1    2    0  503 -0.10522818112E+03 -0.10536702327E+02  0.16694659235E+03  0.44615597821E+03  0.40000000000E+03 0. -1.
<mgrwt>
<rscale>  2 0.41374387E+03</rscale>
<asrwt>0</asrwt>
<pdfrwt beam="1">  1       21 0.11237458E+00 0.41374387E+03</pdfrwt>
<pdfrwt beam="2">  1       21 0.37010214E-01 0.41374387E+03</pdfrwt>
<totfact> 0.38594259E+03</totfact>
</mgrwt>
</event>
<event>
 4    1  0.4758708E-002  0.5660068E+03  0.7818608E-02  0.9978554E-01
         21   -1    0    0  503  502  0.00000000000E+00  0.00000000000E+00  0.38967892053E+03  0.38967892053E+03  0.00000000000E+00 0.  1.
         21   -1    0    0  501  503 -0.00000000000E+00 -0.00000000000E+00 -0.95713883401E+03  0.95713883401E+03  0.00000000000E+00 0. -1.
    9000007    1    1    2  501    0 -0.28472746713E+02  0.39944083308E+03 -0.53665106076E+03  0.77997310047E+03  0.40000000000E+03 0.  1.
   -9000007    1    1    2    0  502  0.28472746713E+02 -0.39944083308E+03 -0.30808852708E+02  0.56684465407E+03  0.40000000000E+03 0. -1.
<mgrwt>
<rscale>  2 0.56600678E+03</rscale>
<asrwt>0</asrwt>
<pdfrwt beam="1">  1       21 0.59950603E-01 0.56600678E+03</pdfrwt>
<pdfrwt beam="2">  1       21 0.14725213E+00 0.56600678E+03</pdfrwt>
<totfact> 0.65251343E+02</totfact>
</mgrwt>
</event>
<event>
 4    1  0.4758708E-002  0.4354838E+03  0.7818608E-02  0.1032142E+00
         21   -1    0    0  503  502  0.00000000000E+00  0.00000000000E+00  0.22723090156E+03  0.22723090156E+03  0.00000000000E+00 0.  1.
         21   -1    0    0  501  503 -0.00000000000E+00 -0.00000000000E+00 -0.14732393311E+04  0.14732393311E+04  0.00000000000E+00 0. -1.
    9000007    1    1    2  501    0  0.12402301067E+03 -0.11943385015E+03 -0.11828022268E+04  0.12604234445E+04  0.40000000000E+03 0. -1.
   -9000007    1    1    2    0  502 -0.12402301067E+03  0.11943385015E+03 -0.63206202786E+02  0.44004678820E+03  0.40000000000E+03 0.  1.
<mgrwt>
<rscale>  2 0.43548381E+03</rscale>
<asrwt>0</asrwt>
<pdfrwt beam="1">  1       21 0.34958600E-01 0.43548381E+03</pdfrwt>
<pdfrwt beam="2">  1       21 0.22665221E+00 0.43548381E+03</pdfrwt>
<totfact> 0.59671152E+02</totfact>
</mgrwt>
</event>
<event>
 4    1  0.4758708E-002  0.4505159E+03  0.7818608E-02  0.1027568E+00
         21   -1    0    0  503  502  0.00000000000E+00  0.00000000000E+00  0.70317531249E+03  0.70317531249E+03  0.00000000000E+00 0. -1.
         21   -1    0    0  501  503 -0.00000000000E+00 -0.00000000000E+00 -0.41695779809E+03  0.41695779809E+03  0.00000000000E+00 0.  1.
    9000007    1    1    2  501    0 -0.18451865383E+03 -0.94432103776E+02 -0.16758816946E+03  0.48067697093E+03  0.40000000000E+03 0.  1.
   -9000007    1    1    2    0  502  0.18451865383E+03  0.94432103776E+02  0.45380568387E+03  0.63945613966E+03  0.40000000000E+03 0. -1.
<mgrwt>
<rscale>  2 0.45051588E+03</rscale>
<asrwt>0</asrwt>
<pdfrwt beam="1">  1       21 0.10818082E+00 0.45051588E+03</pdfrwt>
<pdfrwt beam="2">  1       21 0.64147354E-01 0.45051588E+03</pdfrwt>
<totfact> 0.13027201E+03</totfact>
</mgrwt>
</event>
<event>
 4    1  0.4758708E-002  0.5061890E+03  0.7818608E-02  0.1012176E+00
         21   -1    0    0  501  502  0.00000000000E+00  0.00000000000E+00  0.65904011520E+03  0.65904011520E+03  0.00000000000E+00 0. -1.
         21   -1    0    0  502  503 -0.00000000000E+00 -0.00000000000E+00 -0.46553937917E+03  0.46553937917E+03  0.00000000000E+00 0.  1.
    9000007    1    1    2  501    0 -0.28276669699E+03 -0.12755500096E+03  0.32505953631E+03  0.60157375719E+03  0.40000000000E+03 0.  1.
   -9000007    1    1    2    0  503  0.28276669699E+03  0.12755500096E+03 -0.13155880028E+03  0.52300573718E+03  0.40000000000E+03 0.  1.
<mgrwt>
<rscale>  2 0.50618898E+03</rscale>
<asrwt>0</asrwt>
<pdfrwt beam="1">  1       21 0.10139079E+00 0.50618898E+03</pdfrwt>
<pdfrwt beam="2">  1       21 0.71621443E-01 0.50618898E+03</pdfrwt>
<totfact> 0.11687652E+03</totfact>
</mgrwt>
</event>
<event>
 4    1  0.4758708E-002  0.5238309E+03  0.7818608E-02  0.1007739E+00
         21   -1    0    0  503  502  0.00000000000E+00  0.00000000000E+00  0.70296020706E+03  0.70296020706E+03  0.00000000000E+00 0. -1.
         21   -1    0    0  501  503 -0.00000000000E+00 -0.00000000000E+00 -0.45303032961E+03  0.45303032961E+03  0.00000000000E+00 0.  1.
    9000007    1    1    2  501    0  0.15915928165E+03 -0.29844119173E+03  0.33996304413E+03  0.62447873721E+03  0.40000000000E+03 0. -1.
   -9000007    1    1    2    0  502 -0.15915928165E+03  0.29844119173E+03 -0.90033166686E+02  0.53151179946E+03  0.40000000000E+03 0.  1.
<mgrwt>
<rscale>  2 0.52383091E+03</rscale>
<asrwt>0</asrwt>
<pdfrwt beam="1">  1       21 0.10814773E+00 0.52383091E+03</pdfrwt>
<pdfrwt beam="2">  1       21 0.69696973E-01 0.52383091E+03</pdfrwt>
<totfact> 0.10535323E+03</totfact>
</mgrwt>
</event>
<event>
 4    1  0.4758708E-002  0.4047806E+03  0.7818608E-02  0.1042137E+00
         21   -1    0    0  501  502  0.00000000000E+00  0.00000000000E+00  0.32283927365E+03  0.32283927365E+03  0.00000000000E+00 0.  1.
         21   -1    0    0  502  503 -0.00000000000E+00 -0.00000000000E+00 -0.73755277537E+03  0.73755277537E+03  0.00000000000E+00 0.  1.
    9000007    1    1    2  501    0  0.12155030667E+02  0.60824018866E+02  0.88740936891E+02  0.41439384639E+03  0.40000000000E+03 0.  1.
   -9000007    1    1    2    0  503 -0.12155030667E+02 -0.60824018866E+02 -0.50345443862E+03  0.64599820263E+03  0.40000000000E+03 0.  1.
<mgrwt>
<rscale>  2 0.40478057E+03</rscale>
<asrwt>0</asrwt>
<pdfrwt beam="1">  1       21 0.49667581E-01 0.40478057E+03</pdfrwt>
<pdfrwt beam="2">  1       21 0.11346966E+00 0.40478057E+03</pdfrwt>
<totfact> 0.20528200E+03</totfact>
</mgrwt>
</event>
<event>
 4    1  0.4758708E-002  0.4826590E+03  0.7818608E-02  0.1018407E+00
         21   -1    0    0  503  502  0.00000000000E+00  0.00000000000E+00  0.16969563023E+04  0.16969563023E+04  0.00000000000E+00 0.  1.
         21   -1    0    0  501  503 -0.00000000000E+00 -0.00000000000E+00 -0.14029048473E+03  0.14029048473E+03  0.00000000000E+00 0.  1.
    9000007    1    1    2  501    0 -0.23165667037E+03  0.13890605094E+03  0.64378528796E+03  0.80462363929E+03  0.40000000000E+03 0. -1.
   -9000007    1    1    2    0  502  0.23165667037E+03 -0.13890605094E+03  0.91288052958E+03  0.10326231477E+04  0.40000000000E+03 0. -1.
<mgrwt>
<rscale>  2 0.48265899E+03</rscale>
<asrwt>0</asrwt>
<pdfrwt beam="1">  1       21 0.26107019E+00 0.48265899E+03</pdfrwt>
<pdfrwt beam="2">  1       21 0.21583153E-01 0.48265899E+03</pdfrwt>
<totfact> 0.92179210E+02</totfact>
</mgrwt>
</event>
<event>
 4    1  0.4758708E-002  0.6969460E+03  0.7818608E-02  0.9722469E-01
         21   -1    0    0  501  502  0.00000000000E+00  0.00000000000E+00  0.10720576719E+04  0.10720576719E+04  0.00000000000E+00 0. -1.
         21   -1    0    0  502  503 -0.00000000000E+00 -0.00000000000E+00 -0.53059571633E+03  0.53059571633E+03  0.00000000000E+00 0. -1.
    9000007    1    1    2  501    0  0.54640407527E+03 -0.16485233900E+03  0.57700306760E+03  0.90480177230E+03  0.40000000000E+03 0. -1.
   -9000007    1    1    2    0  503 -0.54640407527E+03  0.16485233900E+03 -0.35541112066E+02  0.69785161588E+03  0.40000000000E+03 0. -1.
<mgrwt>
<rscale>  2 0.69694599E+03</rscale>
<asrwt>0</asrwt>
<pdfrwt beam="1">  1       21 0.16493195E+00 0.69694599E+03</pdfrwt>
<pdfrwt beam="2">  1       21 0.81630111E-01 0.69694599E+03</pdfrwt>
<totfact> 0.22597306E+02</totfact>
</mgrwt>
</event>
<event>
 4    1  0.4758708E-002  0.5163096E+03  0.7818608E-02  0.1009607E+00
         21   -1    0    0  501  502  0.00000000000E+00  0.00000000000E+00  0.64676720771E+03  0.64676720771E+03  0.00000000000E+00 0.  1.
         21   -1    0    0  502  503 -0.00000000000E+00 -0.00000000000E+00 -0.74353293762E+03  0.74353293762E+03  0.00000000000E+00 0.  1.
    9000007    1    1    2  501    0 -0.30942670350E+03 -0.10407054095E+03  0.41568654581E+03  0.66285056136E+03  0.40000000000E+03 0.  1.
   -9000007    1    1    2    0  503  0.30942670350E+03  0.10407054095E+03 -0.51245227572E+03  0.72744958397E+03  0.40000000000E+03 0.  1.
<mgrwt>
<rscale>  2 0.51630956E+03</rscale>
<asrwt>0</asrwt>
<pdfrwt beam="1">  1       21 0.99502647E-01 0.51630956E+03</pdfrwt>
<pdfrwt beam="2">  1       21 0.11438968E+00 0.51630956E+03</pdfrwt>
<totfact> 0.39922151E+02</totfact>
</mgrwt>
</event>
<event>
 4    1  0.4758708E-002  0.5730126E+03  0.7818608E-02  0.9963034E-01
         21   -1    0    0  503  502  0.00000000000E+00  0.00000000000E+00  0.12561617789E+04  0.12561617789E+04  0.00000000000E+00 0.  1.
         21   -1    0    0  501  503 -0.00000000000E+00 -0.00000000000E+00 -0.29640570734E+03  0.29640570734E+03  0.00000000000E+00 0.  1.
    9000007    1    1    2  501    0 -0.22097702192E+03  0.34570597900E+03  0.21304987488E+03  0.61133764593E+03  0.40000000000E+03 0.  1.
   -9000007    1    1    2    0  502  0.22097702192E+03 -0.34570597900E+03  0.74670619669E+03  0.94122984032E+03  0.40000000000E+03 0.  1.
<mgrwt>
<rscale>  2 0.57301262E+03</rscale>
<asrwt>0</asrwt>
<pdfrwt beam="1">  1       21 0.19325566E+00 0.57301262E+03</pdfrwt>
<pdfrwt beam="2">  1       21 0.45600879E-01 0.57301262E+03</pdfrwt>
<totfact> 0.53746083E+02</totfact>
</mgrwt>
</event>
<event>
 4    1  0.4758708E-002  0.4331258E+03  0.7818608E-02  0.1032877E+00
         21   -1    0    0  503  502  0.00000000000E+00  0.00000000000E+00  0.33020586102E+03  0.33020586102E+03  0.00000000000E+00 0. -1.
         21   -1    0    0  501  503 -0.00000000000E+00 -0.00000000000E+00 -0.61617366421E+03  0.61617366421E+03  0.00000000000E+00 0. -1.
    9000007    1    1    2  501    0  0.16364935050E+03 -0.28579963917E+02 -0.27512206699E+03  0.51311799423E+03  0.40000000000E+03 0. -1.
   -9000007    1    1    2    0  502 -0.16364935050E+03  0.28579963917E+02 -0.10845736208E+02  0.43326153101E+03  0.40000000000E+03 0. -1.
<mgrwt>
<rscale>  2 0.43312576E+03</rscale>
<asrwt>0</asrwt>
<pdfrwt beam="1">  1       21 0.50800902E-01 0.43312576E+03</pdfrwt>
<pdfrwt beam="2">  1       21 0.94795948E-01 0.43312576E+03</pdfrwt>
<totfact> 0.30033817E+03</totfact>
</mgrwt>
</event>
<event>
 4    1  0.4758708E-002  0.4452100E+03  0.7818608E-02  0.1029160E+00
         21   -1    0    0  501  502  0.00000000000E+00  0.00000000000E+00  0.61572999987E+03  0.61572999987E+03  0.00000000000E+00 0.  1.
         21   -1    0    0  502  503 -0.00000000000E+00 -0.00000000000E+00 -0.32291289241E+03  0.32291289241E+03  0.00000000000E+00 0.  1.
    9000007    1    1    2  501    0 -0.11661275867E+01  0.19547522500E+03  0.12030185702E+03  0.46117725469E+03  0.40000000000E+03 0.  1.
   -9000007    1    1    2    0  503  0.11661275867E+01 -0.19547522500E+03  0.17251525044E+03  0.47746563759E+03  0.40000000000E+03 0.  1.
<mgrwt>
<rscale>  2 0.44520998E+03</rscale>
<asrwt>0</asrwt>
<pdfrwt beam="1">  1       21 0.94727692E-01 0.44520998E+03</pdfrwt>
<pdfrwt beam="2">  1       21 0.49678907E-01 0.44520998E+03</pdfrwt>
<totfact> 0.31411333E+03</totfact>
</mgrwt>
</event>
<event>
 4    1  0.4758708E-002  0.4727057E+03  0.7818608E-02  0.1021159E+00
         21   -1    0    0  503  502  0.00000000000E+00  0.00000000000E+00  0.32999821050E+04  0.32999821050E+04  0.00000000000E+00 0. -1.
         21   -1    0    0  501  503 -0.00000000000E+00 -0.00000000000E+00 -0.10793630909E+03  0.10793630909E+03  0.00000000000E+00 0. -1.
    9000007    1    1    2  501    0  0.96660069631E+02  0.23261029530E+03  0.55582518053E+03  0.72965221157E+03  0.40000000000E+03 0. -1.
   -9000007    1    1    2    0  502 -0.96660069631E+02 -0.23261029530E+03  0.26362206154E+04  0.26782662025E+04  0.40000000000E+03 0. -1.
<mgrwt>
<rscale>  2 0.47270574E+03</rscale>
<asrwt>0</asrwt>
<pdfrwt beam="1">  1       21 0.50768948E+00 0.47270574E+03</pdfrwt>
<pdfrwt beam="2">  1       21 0.16605589E-01 0.47270574E+03</pdfrwt>
<totfact> 0.39513963E+01</totfact>
</mgrwt>
</event>
<event>
 4    1  0.4758708E-002  0.4757662E+03  0.7818608E-02  0.1020305E+00
         21   -1    0    0  501  502  0.00000000000E+00  0.00000000000E+00  0.24045260474E+03  0.24045260474E+03  0.00000000000E+00 0. -1.
         21   -1    0    0  502  503 -0.00000000000E+00 -0.00000000000E+00 -0.94428353905E+03  0.94428353905E+03  0.00000000000E+00 0.  1.
    9000007    1    1    2  501    0  0.16548866324E+03 -0.19740064017E+03 -0.31897942509E+03  0.57280134779E+03  0.40000000000E+03 0.  1.
   -9000007    1    1    2    0  503 -0.16548866324E+03  0.19740064017E+03 -0.38485150923E+03  0.61193479600E+03  0.40000000000E+03 0. -1.
<mgrwt>
<rscale>  2 0.47576624E+03</rscale>
<asrwt>0</asrwt>
<pdfrwt beam="1">  1       21 0.36992708E-01 0.47576624E+03</pdfrwt>
<pdfrwt beam="2">  1       21 0.14527439E+00 0.47576624E+03</pdfrwt>
<totfact> 0.19431228E+03</totfact>
</mgrwt>
</event>
<event>
 4    1  0.4758708E-002  0.5174041E+03  0.7818608E-02  0.1009333E+00
         21   -1    0    0  503  502  0.00000000000E+00  0.00000000000E+00  0.46963688989E+03  0.46963688989E+03  0.00000000000E+00 0. -1.
         21   -1    0    0  501  503 -0.00000000000E+00 -0.00000000000E+00 -0.73888602851E+03  0.73888602851E+03  0.00000000000E+00 0.  1.
    9000007    1    1    2  501    0 -0.31768874982E+03  0.82345741398E+02 -0.42348953538E+03  0.66861823896E+03  0.40000000000E+03 0.  1.
   -9000007    1    1    2    0  502  0.31768874982E+03 -0.82345741398E+02  0.15424039676E+03  0.53990467944E+03  0.40000000000E+03 0. -1.
<mgrwt>
<rscale>  2 0.51740406E+03</rscale>
<asrwt>0</asrwt>
<pdfrwt beam="1">  1       21 0.72251829E-01 0.51740406E+03</pdfrwt>
<pdfrwt beam="2">  1       21 0.11367477E+00 0.51740406E+03</pdfrwt>
<totfact> 0.85943857E+02</totfact>
</mgrwt>
</event>
<event>
 4    1  0.4758708E-002  0.4577285E+03  0.7818608E-02  0.1025442E+00
         21   -1    0    0  503  502  0.00000000000E+00  0.00000000000E+00  0.94504373542E+03  0.94504373542E+03  0.00000000000E+00 0. -1.
         21   -1    0    0  501  503 -0.00000000000E+00 -0.00000000000E+00 -0.22201608467E+03  0.22201608467E+03  0.00000000000E+00 0.  1.
    9000007    1    1    2  501    0  0.14930501427E+03 -0.16499516108E+03  0.33946641898E+03  0.56987089773E+03  0.40000000000E+03 0. -1.
   -9000007    1    1    2    0  502 -0.14930501427E+03  0.16499516108E+03  0.38356123177E+03  0.59718892235E+03  0.40000000000E+03 0.  1.
<mgrwt>
<rscale>  2 0.45772851E+03</rscale>
<asrwt>0</asrwt>
<pdfrwt beam="1">  1       21 0.14539134E+00 0.45772851E+03</pdfrwt>
<pdfrwt beam="2">  1       21 0.34156321E-01 0.45772851E+03</pdfrwt>
<totfact> 0.22952482E+03</totfact>
</mgrwt>
</event>
<event>
 4    1  0.4758708E-002  0.5301828E+03  0.7818608E-02  0.1006188E+00
         21   -1    0    0  501  502  0.00000000000E+00  0.00000000000E+00  0.11331323194E+04  0.11331323194E+04  0.00000000000E+00 0.  1.
         21   -1    0    0  502  503 -0.00000000000E+00 -0.00000000000E+00 -0.25595741822E+03  0.25595741822E+03  0.00000000000E+00 0.  1.
    9000007    1    1    2  501    0 -0.17195104228E+03 -0.30253376245E+03  0.56052561730E+03  0.77154572516E+03  0.40000000000E+03 0.  1.
   -9000007    1    1    2    0  503  0.17195104228E+03  0.30253376245E+03  0.31664928393E+03  0.61754401250E+03  0.40000000000E+03 0.  1.
<mgrwt>
<rscale>  2 0.53018283E+03</rscale>
<asrwt>0</asrwt>
<pdfrwt beam="1">  1       21 0.17432805E+00 0.53018283E+03</pdfrwt>
<pdfrwt beam="2">  1       21 0.39378065E-01 0.53018283E+03</pdfrwt>
<totfact> 0.10073832E+03</totfact>
</mgrwt>
</event>
<event>
 4    1  0.4758708E-002  0.5003056E+03  0.7818608E-02  0.1013699E+00
         21   -1    0    0  501  502  0.00000000000E+00  0.00000000000E+00  0.16224444127E+03  0.16224444127E+03  0.00000000000E+00 0.  1.
         21   -1    0    0  502  503 -0.00000000000E+00 -0.00000000000E+00 -0.21011091231E+04  0.21011091231E+04  0.00000000000E+00 0.  1.
    9000007    1    1    2  501    0 -0.21175619314E+03 -0.21322520109E+03 -0.38605766178E+03  0.63193843840E+03  0.40000000000E+03 0.  1.
   -9000007    1    1    2    0  503  0.21175619314E+03  0.21322520109E+03 -0.15528070200E+04  0.16314151259E+04  0.40000000000E+03 0.  1.
<mgrwt>
<rscale>  2 0.50030558E+03</rscale>
<asrwt>0</asrwt>
<pdfrwt beam="1">  1       21 0.24960684E-01 0.50030558E+03</pdfrwt>
<pdfrwt beam="2">  1       21 0.32324755E+00 0.50030558E+03</pdfrwt>
<totfact> 0.28976356E+02</totfact>
</mgrwt>
</event>
<event>
 4    1  0.4758708E-002  0.4478472E+03  0.7818608E-02  0.1028366E+00
         21   -1    0    0  501  502  0.00000000000E+00  0.00000000000E+00  0.80449678364E+03  0.80449678364E+03  0.00000000000E+00 0. -1.
         21   -1    0    0  502  503 -0.00000000000E+00 -0.00000000000E+00 -0.82012655779E+03  0.82012655779E+03  0.00000000000E+00 0. -1.
    9000007    1    1    2  501    0 -0.91322214838E+02 -0.17951982922E+03  0.66987572755E+03  0.80579191257E+03  0.40000000000E+03 0. -1.
   -9000007    1    1    2    0  503  0.91322214838E+02  0.17951982922E+03 -0.68550550171E+03  0.81883142885E+03  0.40000000000E+03 0. -1.
<mgrwt>
<rscale>  2 0.44784720E+03</rscale>
<asrwt>0</asrwt>
<pdfrwt beam="1">  1       21 0.12376874E+00 0.44784720E+03</pdfrwt>
<pdfrwt beam="2">  1       21 0.12617332E+00 0.44784720E+03</pdfrwt>
<totfact> 0.18616712E+02</totfact>
</mgrwt>
</event>
<event>
 4    1  0.4758708E-002  0.8909488E+03  0.7818608E-02  0.9436967E-01
         21   -1    0    0  503  502  0.00000000000E+00  0.00000000000E+00  0.50200475273E+03  0.50200475273E+03  0.00000000000E+00 0.  1.
         21   -1    0    0  501  503 -0.00000000000E+00 -0.00000000000E+00 -0.16008209043E+04  0.16008209043E+04  0.00000000000E+00 0. -1.
    9000007    1    1    2  501    0 -0.79166669196E+03  0.83985984114E+02 -0.66569279694E+03  0.11121765582E+04  0.40000000000E+03 0. -1.
   -9000007    1    1    2    0  502  0.79166669196E+03 -0.83985984114E+02 -0.43312335460E+03  0.99064909882E+03  0.40000000000E+03 0. -1.
<mgrwt>
<rscale>  2 0.89094882E+03</rscale>
<asrwt>0</asrwt>
<pdfrwt beam="1">  1       21 0.77231501E-01 0.89094882E+03</pdfrwt>
<pdfrwt beam="2">  1       21 0.24628014E+00 0.89094882E+03</pdfrwt>
<totfact> 0.67829131E+01</totfact>
</mgrwt>
</event>
<event>
 4    1  0.4758708E-002  0.4427242E+03  0.7818608E-02  0.1029914E+00
         21   -1    0    0  503  502  0.00000000000E+00  0.00000000000E+00  0.10522164128E+03  0.10522164128E+03  0.00000000000E+00 0. -1.
         21   -1    0    0  501  503 -0.00000000000E+00 -0.00000000000E+00 -0.21214167286E+04  0.21214167286E+04  0.00000000000E+00 0. -1.
    9000007    1    1    2  501    0 -0.18440828112E+03  0.44702771536E+02 -0.61936407513E+03  0.76132556078E+03  0.40000000000E+03 0. -1.
   -9000007    1    1    2    0  502  0.18440828112E+03 -0.44702771536E+02 -0.13968310122E+04  0.14653128091E+04  0.40000000000E+03 0. -1.
<mgrwt>
<rscale>  2 0.44272424E+03</rscale>
<asrwt>0</asrwt>
<pdfrwt beam="1">  1       21 0.16187945E-01 0.44272424E+03</pdfrwt>
<pdfrwt beam="2">  1       21 0.32637179E+00 0.44272424E+03</pdfrwt>
<totfact> 0.65451221E+02</totfact>
</mgrwt>
</event>
<event>
 4    1  0.4758708E-002  0.4739875E+03  0.7818608E-02  0.1020801E+00
         21   -1    0    0  503  502  0.00000000000E+00  0.00000000000E+00  0.11158696572E+04  0.11158696572E+04  0.00000000000E+00 0. -1.
         21   -1    0    0  501  503 -0.00000000000E+00 -0.00000000000E+00 -0.35081137689E+03  0.35081137689E+03  0.00000000000E+00 0. -1.
    9000007    1    1    2  501    0  0.23244862157E+03 -0.10311037890E+03 -0.96161001323E+02  0.48364351549E+03  0.40000000000E+03 0. -1.
   -9000007    1    1    2    0  502 -0.23244862157E+03  0.10311037890E+03  0.86121928158E+03  0.98303751855E+03  0.40000000000E+03 0. -1.
<mgrwt>
<rscale>  2 0.47398746E+03</rscale>
<asrwt>0</asrwt>
<pdfrwt beam="1">  1       21 0.17167225E+00 0.47398746E+03</pdfrwt>
<pdfrwt beam="2">  1       21 0.53970981E-01 0.47398746E+03</pdfrwt>
<totfact> 0.55425977E+02</totfact>
</mgrwt>
</event>
<event>
 4    1  0.4758708E-002  0.5065529E+03  0.7818608E-02  0.1012083E+00
         21   -1    0    0  503  502  0.00000000000E+00  0.00000000000E+00  0.90105236898E+03  0.90105236898E+03  0.00000000000E+00 0. -1.
         21   -1    0    0  501  503 -0.00000000000E+00 -0.00000000000E+00 -0.39228715518E+03  0.39228715518E+03  0.00000000000E+00 0. -1.
    9000007    1    1    2  501    0  0.14288041223E+03 -0.27600911628E+03  0.59292441261E+03  0.77984306340E+03  0.40000000000E+03 0. -1.
   -9000007    1    1    2    0  502 -0.14288041223E+03  0.27600911628E+03 -0.84159198796E+02  0.51349646076E+03  0.40000000000E+03 0. -1.
<mgrwt>
<rscale>  2 0.50655290E+03</rscale>
<asrwt>0</asrwt>
<pdfrwt beam="1">  1       21 0.13862344E+00 0.50655290E+03</pdfrwt>
<pdfrwt beam="2">  1       21 0.60351870E-01 0.50655290E+03</pdfrwt>
<totfact> 0.77315047E+02</totfact>
</mgrwt>
</event>
<event>
 4    1  0.4758708E-002  0.5389781E+03  0.7818608E-02  0.1004078E+00
         21   -1    0    0  501  502  0.00000000000E+00  0.00000000000E+00  0.21577239765E+03  0.21577239765E+03  0.00000000000E+00 0. -1.
         21   -1    0    0  502  503 -0.00000000000E+00 -0.00000000000E+00 -0.24798711970E+04  0.24798711970E+04  0.00000000000E+00 0.  1.
    9000007    1    1    2  501    0  0.24028274451E+03 -0.26974351029E+03 -0.22079493483E+03  0.58244979346E+03  0.40000000000E+03 0. -1.
   -9000007    1    1    2    0  503 -0.24028274451E+03  0.26974351029E+03 -0.20433038645E+04  0.21131938012E+04  0.40000000000E+03 0.  1.
<mgrwt>
<rscale>  2 0.53897807E+03</rscale>
<asrwt>0</asrwt>
<pdfrwt beam="1">  1       21 0.33195752E-01 0.53897807E+03</pdfrwt>
<pdfrwt beam="2">  1       21 0.38151866E+00 0.53897807E+03</pdfrwt>
<totfact> 0.70212635E+01</totfact>
</mgrwt>
</event>
<event>
 4    1  0.4758708E-002  0.4167865E+03  0.7818608E-02  0.1038117E+00
         21   -1    0    0  503  502  0.00000000000E+00  0.00000000000E+00  0.43958351220E+03  0.43958351220E+03  0.00000000000E+00 0. -1.
         21   -1    0    0  501  503 -0.00000000000E+00 -0.00000000000E+00 -0.14413065227E+04  0.14413065227E+04  0.00000000000E+00 0. -1.
    9000007    1    1    2  501    0 -0.77115191266E+02  0.88114861018E+02 -0.13020764748E+04  0.13671554877E+04  0.40000000000E+03 0. -1.
   -9000007    1    1    2    0  502  0.77115191266E+02 -0.88114861018E+02  0.30035346428E+03  0.51373454718E+03  0.40000000000E+03 0. -1.
<mgrwt>
<rscale>  2 0.41678649E+03</rscale>
<asrwt>0</asrwt>
<pdfrwt beam="1">  1       21 0.67628234E-01 0.41678649E+03</pdfrwt>
<pdfrwt beam="2">  1       21 0.22173946E+00 0.41678649E+03</pdfrwt>
<totfact> 0.15990742E+02</totfact>
</mgrwt>
</event>
<event>
 4    1  0.4758708E-002  0.4448556E+03  0.7818608E-02  0.1029267E+00
         21   -1    0    0  501  502  0.00000000000E+00  0.00000000000E+00  0.14738620671E+03  0.14738620671E+03  0.00000000000E+00 0.  1.
         21   -1    0    0  502  503 -0.00000000000E+00 -0.00000000000E+00 -0.16294204685E+04  0.16294204685E+04  0.00000000000E+00 0.  1.
    9000007    1    1    2  501    0  0.19455017896E+03  0.68360661354E+01 -0.11136812508E+04  0.11992424410E+04  0.40000000000E+03 0.  1.
   -9000007    1    1    2    0  503 -0.19455017896E+03 -0.68360661354E+01 -0.36835301100E+03  0.57756423422E+03  0.40000000000E+03 0.  1.
<mgrwt>
<rscale>  2 0.44485560E+03</rscale>
<asrwt>0</asrwt>
<pdfrwt beam="1">  1       21 0.22674803E-01 0.44485560E+03</pdfrwt>
<pdfrwt beam="2">  1       21 0.25068005E+00 0.44485560E+03</pdfrwt>
<totfact> 0.98876200E+02</totfact>
</mgrwt>
</event>
<event>
 4    1  0.4758708E-002  0.8240893E+03  0.7818608E-02  0.9525789E-01
         21   -1    0    0  503  502  0.00000000000E+00  0.00000000000E+00  0.28587542646E+04  0.28587542646E+04  0.00000000000E+00 0. -1.
         21   -1    0    0  501  503 -0.00000000000E+00 -0.00000000000E+00 -0.44032685049E+03  0.44032685049E+03  0.00000000000E+00 0.  1.
    9000007    1    1    2  501    0  0.55392527521E+03  0.46074935930E+03  0.89840724210E+02  0.82897197681E+03  0.40000000000E+03 0.  1.
   -9000007    1    1    2    0  502 -0.55392527521E+03 -0.46074935930E+03  0.23285866899E+04  0.24701091383E+04  0.40000000000E+03 0. -1.
<mgrwt>
<rscale>  2 0.82408931E+03</rscale>
<asrwt>0</asrwt>
<pdfrwt beam="1">  1       21 0.43980834E+00 0.82408931E+03</pdfrwt>
<pdfrwt beam="2">  1       21 0.67742594E-01 0.82408931E+03</pdfrwt>
<totfact> 0.55223321E+00</totfact>
</mgrwt>
</event>
<event>
 4    1  0.4758708E-002  0.7034355E+03  0.7818608E-02  0.9711375E-01
         21   -1    0    0  501  502  0.00000000000E+00  0.00000000000E+00  0.40512084882E+03  0.40512084882E+03  0.00000000000E+00 0. -1.
         21   -1    0    0  502  503 -0.00000000000E+00 -0.00000000000E+00 -0.17648561495E+04  0.17648561495E+04  0.00000000000E+00 0.  1.
    9000007    1    1    2  501    0 -0.17886982476E+03  0.55029732049E+03 -0.77799190243E+02  0.70772471283E+03  0.40000000000E+03 0. -1.
   -9000007    1    1    2    0  503  0.17886982476E+03 -0.55029732049E+03 -0.12819361104E+04  0.14622522854E+04  0.40000000000E+03 0.  1.
<mgrwt>
<rscale>  2 0.70343554E+03</rscale>
<asrwt>0</asrwt>
<pdfrwt beam="1">  1       21 0.62326284E-01 0.70343554E+03</pdfrwt>
<pdfrwt beam="2">  1       21 0.27151633E+00 0.70343554E+03</pdfrwt>
<totfact> 0.81829253E+01</totfact>
</mgrwt>
</event>
<event>
 4    1  0.4758708E-002  0.4832483E+03  0.7818608E-02  0.1018246E+00
         21   -1    0    0  503  502  0.00000000000E+00  0.00000000000E+00  0.34684505994E+03  0.34684505994E+03  0.00000000000E+00 0. -1.
         21   -1    0    0  501  503 -0.00000000000E+00 -0.00000000000E+00 -0.71716385518E+03  0.71716385518E+03  0.00000000000E+00 0.  1.
    9000007    1    1    2  501    0  0.16814623881E+03  0.21273400818E+03 -0.31673824048E+03  0.57779929806E+03  0.40000000000E+03 0.  1.
   -9000007    1    1    2    0  502 -0.16814623881E+03 -0.21273400818E+03 -0.53580554763E+02  0.48620961705E+03  0.40000000000E+03 0.  1.
<mgrwt>
<rscale>  2 0.48324830E+03</rscale>
<asrwt>0</asrwt>
<pdfrwt beam="1">  1       21 0.53360779E-01 0.48324830E+03</pdfrwt>
<pdfrwt beam="2">  1       21 0.11033290E+00 0.48324830E+03</pdfrwt>
<totfact> 0.18316763E+03</totfact>
</mgrwt>
</event>
<event>
 4    1  0.4758708E-002  0.5262931E+03  0.7818608E-02  0.1007135E+00
         21   -1    0    0  501  502  0.00000000000E+00  0.00000000000E+00  0.74017385641E+03  0.74017385641E+03  0.00000000000E+00 0.  1.
         21   -1    0    0  502  503 -0.00000000000E+00 -0.00000000000E+00 -0.71106098589E+03  0.71106098589E+03  0.00000000000E+00 0. -1.
    9000007    1    1    2  501    0  0.29456652942E+03  0.17382469118E+03  0.51398076938E+03  0.73563625170E+03  0.40000000000E+03 0.  1.
   -9000007    1    1    2    0  503 -0.29456652942E+03 -0.17382469118E+03 -0.48486789886E+03  0.71559859060E+03  0.40000000000E+03 0. -1.
<mgrwt>
<rscale>  2 0.52629313E+03</rscale>
<asrwt>0</asrwt>
<pdfrwt beam="1">  1       21 0.11387290E+00 0.52629313E+03</pdfrwt>
<pdfrwt beam="2">  1       21 0.10939400E+00 0.52629313E+03</pdfrwt>
<totfact> 0.31833601E+02</totfact>
</mgrwt>
</event>
<event>
 4    1  0.4758708E-002  0.4805592E+03  0.7818608E-02  0.1018982E+00
         21   -1    0    0  501  502  0.00000000000E+00  0.00000000000E+00  0.32989605810E+03  0.32989605810E+03  0.00000000000E+00 0.  1.
         21   -1    0    0  502  503 -0.00000000000E+00 -0.00000000000E+00 -0.70054816373E+03  0.70054816373E+03  0.00000000000E+00 0. -1.
    9000007    1    1    2  501    0  0.25228046555E+03 -0.85391464639E+02 -0.17131368374E+03  0.51018184382E+03  0.40000000000E+03 0.  1.
   -9000007    1    1    2    0  503 -0.25228046555E+03  0.85391464639E+02 -0.19933842188E+03  0.52026237801E+03  0.40000000000E+03 0. -1.
<mgrwt>
<rscale>  2 0.48055919E+03</rscale>
<asrwt>0</asrwt>
<pdfrwt beam="1">  1       21 0.50753240E-01 0.48055919E+03</pdfrwt>
<pdfrwt beam="2">  1       21 0.10777664E+00 0.48055919E+03</pdfrwt>
<totfact> 0.21635922E+03</totfact>
</mgrwt>
</event>
<event>
 4    1  0.4758708E-002  0.5735797E+03  0.7818608E-02  0.9961788E-01
         21   -1    0    0  503  502  0.00000000000E+00  0.00000000000E+00  0.48704529598E+03  0.48704529598E+03  0.00000000000E+00 0.  1.
         21   -1    0    0  501  503 -0.00000000000E+00 -0.00000000000E+00 -0.12413094188E+04  0.12413094188E+04  0.00000000000E+00 0.  1.
    9000007    1    1    2  501    0 -0.40708349541E+03 -0.57242862161E+02 -0.96058009872E+03  0.11187974989E+04  0.40000000000E+03 0.  1.
   -9000007    1    1    2    0  502  0.40708349541E+03  0.57242862161E+02  0.20631597590E+03  0.60955721587E+03  0.40000000000E+03 0.  1.
<mgrwt>
<rscale>  2 0.57357974E+03</rscale>
<asrwt>0</asrwt>
<pdfrwt beam="1">  1       21 0.74930047E-01 0.57357974E+03</pdfrwt>
<pdfrwt beam="2">  1       21 0.19097068E+00 0.57357974E+03</pdfrwt>
<totfact> 0.18721047E+02</totfact>
</mgrwt>
</event>
<event>
 4    1  0.4758708E-002  0.6593883E+03  0.7818608E-02  0.9789320E-01
         21   -1    0    0  503  502  0.00000000000E+00  0.00000000000E+00  0.84321688315E+03  0.84321688315E+03  0.00000000000E+00 0.  1.
         21   -1    0    0  501  503 -0.00000000000E+00 -0.00000000000E+00 -0.56577174555E+03  0.56577174555E+03  0.00000000000E+00 0. -1.
    9000007    1    1    2  501    0  0.24804907729E+03 -0.46180579349E+03  0.34843821618E+03  0.74578959911E+03  0.40000000000E+03 0.  1.
   -9000007    1    1    2    0  502 -0.24804907729E+03  0.46180579349E+03 -0.70993078579E+02  0.66319902959E+03  0.40000000000E+03 0.  1.
<mgrwt>
<rscale>  2 0.65938830E+03</rscale>
<asrwt>0</asrwt>
<pdfrwt beam="1">  1       21 0.12972567E+00 0.65938830E+03</pdfrwt>
<pdfrwt beam="2">  1       21 0.87041807E-01 0.65938830E+03</pdfrwt>
<totfact> 0.37894183E+02</totfact>
</mgrwt>
</event>
<event>
 4    1  0.4758708E-002  0.4504800E+03  0.7818608E-02  0.1027579E+00
         21   -1    0    0  503  502  0.00000000000E+00  0.00000000000E+00  0.67608973215E+03  0.67608973215E+03  0.00000000000E+00 0.  1.
         21   -1    0    0  501  503 -0.00000000000E+00 -0.00000000000E+00 -0.33640193247E+03  0.33640193247E+03  0.00000000000E+00 0.  1.
    9000007    1    1    2  501    0 -0.48705320723E+02  0.20139510891E+03  0.36697157276E+01  0.45049491115E+03  0.40000000000E+03 0.  1.
   -9000007    1    1    2    0  502  0.48705320723E+02 -0.20139510891E+03  0.33601808395E+03  0.56199675346E+03  0.40000000000E+03 0.  1.
<mgrwt>
<rscale>  2 0.45047996E+03</rscale>
<asrwt>0</asrwt>
<pdfrwt beam="1">  1       21 0.10401380E+00 0.45047996E+03</pdfrwt>
<pdfrwt beam="2">  1       21 0.51754144E-01 0.45047996E+03</pdfrwt>
<totfact> 0.22901587E+03</totfact>
</mgrwt>
</event>
<event>
 4    1  0.4758708E-002  0.4488236E+03  0.7818608E-02  0.1028073E+00
         21   -1    0    0  501  502  0.00000000000E+00  0.00000000000E+00  0.11148390942E+04  0.11148390942E+04  0.00000000000E+00 0.  1.
         21   -1    0    0  502  503 -0.00000000000E+00 -0.00000000000E+00 -0.19000486971E+03  0.19000486971E+03  0.00000000000E+00 0.  1.
    9000007    1    1    2  501    0  0.43576518250E-01  0.20357467312E+03  0.60685627921E+03  0.75479612681E+03  0.40000000000E+03 0. -1.
   -9000007    1    1    2    0  503 -0.43576518250E-01 -0.20357467312E+03  0.31797794531E+03  0.55004783714E+03  0.40000000000E+03 0. -1.
<mgrwt>
<rscale>  2 0.44882363E+03</rscale>
<asrwt>0</asrwt>
<pdfrwt beam="1">  1       21 0.17151370E+00 0.44882363E+03</pdfrwt>
<pdfrwt beam="2">  1       21 0.29231519E-01 0.44882363E+03</pdfrwt>
<totfact> 0.19892520E+03</totfact>
</mgrwt>
</event>
<event>
 4    1  0.4758708E-002  0.4055066E+03  0.7818608E-02  0.1041889E+00
         21   -1    0    0  503  502  0.00000000000E+00  0.00000000000E+00  0.15449196768E+04  0.15449196768E+04  0.00000000000E+00 0. -1.
         21   -1    0    0  501  503 -0.00000000000E+00 -0.00000000000E+00 -0.11068347414E+03  0.11068347414E+03  0.00000000000E+00 0. -1.
    9000007    1    1    2  501    0  0.54439659487E+02 -0.38365528075E+02  0.55496209651E+03  0.68732708286E+03  0.40000000000E+03 0.  1.
   -9000007    1    1    2    0  502 -0.54439659487E+02  0.38365528075E+02  0.87927410611E+03  0.96827606805E+03  0.40000000000E+03 0.  1.
<mgrwt>
<rscale>  2 0.40550658E+03</rscale>
<asrwt>0</asrwt>
<pdfrwt beam="1">  1       21 0.23767994E+00 0.40550658E+03</pdfrwt>
<pdfrwt beam="2">  1       21 0.17028228E-01 0.40550658E+03</pdfrwt>
<totfact> 0.20886594E+03</totfact>
</mgrwt>
</event>
<event>
 4    1  0.4758708E-002  0.6696558E+03  0.7818608E-02  0.9770580E-01
         21   -1    0    0  503  502  0.00000000000E+00  0.00000000000E+00  0.12033256330E+04  0.12033256330E+04  0.00000000000E+00 0.  1.
         21   -1    0    0  501  503 -0.00000000000E+00 -0.00000000000E+00 -0.37653161795E+03  0.37653161795E+03  0.00000000000E+00 0.  1.
    9000007    1    1    2  501    0 -0.11197028913E+03  0.52526334574E+03  0.33336218982E+03  0.74804363350E+03  0.40000000000E+03 0.  1.
   -9000007    1    1    2    0  502  0.11197028913E+03 -0.52526334574E+03  0.49343182524E+03  0.83181361745E+03  0.40000000000E+03 0.  1.
<mgrwt>
<rscale>  2 0.66965583E+03</rscale>
<asrwt>0</asrwt>
<pdfrwt beam="1">  1       21 0.18512702E+00 0.66965583E+03</pdfrwt>
<pdfrwt beam="2">  1       21 0.57927942E-01 0.66965583E+03</pdfrwt>
<totfact> 0.35375866E+02</totfact>
</mgrwt>
</event>
<event>
 4    1  0.4758708E-002  0.4595962E+03  0.7818608E-02  0.1024898E+00
         21   -1    0    0  501  502  0.00000000000E+00  0.00000000000E+00  0.10784505885E+04  0.10784505885E+04  0.00000000000E+00 0. -1.
         21   -1    0    0  502  503 -0.00000000000E+00 -0.00000000000E+00 -0.19600804035E+03  0.19600804035E+03  0.00000000000E+00 0. -1.
    9000007    1    1    2  501    0  0.18367039805E+03 -0.13226448264E+03  0.45854764337E+03  0.64922619304E+03  0.40000000000E+03 0. -1.
   -9000007    1    1    2    0  503 -0.18367039805E+03  0.13226448264E+03  0.42389490479E+03  0.62523243581E+03  0.40000000000E+03 0. -1.
<mgrwt>
<rscale>  2 0.45959625E+03</rscale>
<asrwt>0</asrwt>
<pdfrwt beam="1">  1       21 0.16591547E+00 0.45959625E+03</pdfrwt>
<pdfrwt beam="2">  1       21 0.30155084E-01 0.45959625E+03</pdfrwt>
<totfact> 0.20460335E+03</totfact>
</mgrwt>
</event>
<event>
 4    1  0.4758708E-002  0.4024274E+03  0.7818608E-02  0.1042942E+00
         21   -1    0    0  503  502  0.00000000000E+00  0.00000000000E+00  0.22211699749E+03  0.22211699749E+03  0.00000000000E+00 0.  1.
         21   -1    0    0  501  503 -0.00000000000E+00 -0.00000000000E+00 -0.99483223214E+03  0.99483223214E+03  0.00000000000E+00 0.  1.
    9000007    1    1    2  501    0  0.34498707081E+00  0.44132502364E+02 -0.70082906425E+03  0.80815170239E+03  0.40000000000E+03 0.  1.
   -9000007    1    1    2    0  502 -0.34498707081E+00 -0.44132502364E+02 -0.71886170403E+02  0.40879752724E+03  0.40000000000E+03 0.  1.
<mgrwt>
<rscale>  2 0.40242738E+03</rscale>
<asrwt>0</asrwt>
<pdfrwt beam="1">  1       21 0.34171846E-01 0.40242738E+03</pdfrwt>
<pdfrwt beam="2">  1       21 0.15305111E+00 0.40242738E+03</pdfrwt>
<totfact> 0.20415749E+03</totfact>
</mgrwt>
</event>
<event>
 4    1  0.4758708E-002  0.5122940E+03  0.7818608E-02  0.1010619E+00
         21   -1    0    0  503  502  0.00000000000E+00  0.00000000000E+00  0.24097355645E+03  0.24097355645E+03  0.00000000000E+00 0.  1.
         21   -1    0    0  501  503 -0.00000000000E+00 -0.00000000000E+00 -0.12052109048E+04  0.12052109048E+04  0.00000000000E+00 0.  1.
    9000007    1    1    2  501    0  0.31745094693E+03 -0.40866435277E+02 -0.25768297903E+03  0.57345068395E+03  0.40000000000E+03 0.  1.
   -9000007    1    1    2    0  502 -0.31745094693E+03  0.40866435277E+02 -0.70655436927E+03  0.87273377727E+03  0.40000000000E+03 0.  1.
<mgrwt>
<rscale>  2 0.51229403E+03</rscale>
<asrwt>0</asrwt>
<pdfrwt beam="1">  1       21 0.37072855E-01 0.51229403E+03</pdfrwt>
<pdfrwt beam="2">  1       21 0.18541706E+00 0.51229403E+03</pdfrwt>
<totfact> 0.95769089E+02</totfact>
</mgrwt>
</event>
<event>
 4    1  0.4758708E-002  0.4907473E+03  0.7818608E-02  0.1016223E+00
         21   -1    0    0  503  502  0.00000000000E+00  0.00000000000E+00  0.35396908921E+03  0.35396908921E+03  0.00000000000E+00 0. -1.
         21   -1    0    0  501  503 -0.00000000000E+00 -0.00000000000E+00 -0.76865280097E+03  0.76865280097E+03  0.00000000000E+00 0. -1.
    9000007    1    1    2  501    0  0.20994392039E+03  0.19171973649E+03 -0.17121976973E+02  0.49104589313E+03  0.40000000000E+03 0. -1.
   -9000007    1    1    2    0  502 -0.20994392039E+03 -0.19171973649E+03 -0.39756173479E+03  0.63157599704E+03  0.40000000000E+03 0. -1.
<mgrwt>
<rscale>  2 0.49074729E+03</rscale>
<asrwt>0</asrwt>
<pdfrwt beam="1">  1       21 0.54456784E-01 0.49074729E+03</pdfrwt>
<pdfrwt beam="2">  1       21 0.11825428E+00 0.49074729E+03</pdfrwt>
<totfact> 0.14697425E+03</totfact>
</mgrwt>
</event>
<event>
 4    1  0.4758708E-002  0.7809223E+03  0.7818608E-02  0.9588049E-01
         21   -1    0    0  503  502  0.00000000000E+00  0.00000000000E+00  0.64359134026E+03  0.64359134026E+03  0.00000000000E+00 0. -1.
         21   -1    0    0  501  503 -0.00000000000E+00 -0.00000000000E+00 -0.15606558457E+04  0.15606558457E+04  0.00000000000E+00 0. -1.
    9000007    1    1    2  501    0  0.55877918936E+03 -0.37095202319E+03 -0.11493156936E+04  0.13895201149E+04  0.40000000000E+03 0. -1.
   -9000007    1    1    2    0  502 -0.55877918936E+03  0.37095202319E+03  0.23225118819E+03  0.81472707110E+03  0.40000000000E+03 0. -1.
<mgrwt>
<rscale>  2 0.78092227E+03</rscale>
<asrwt>0</asrwt>
<pdfrwt beam="1">  1       21 0.99014054E-01 0.78092227E+03</pdfrwt>
<pdfrwt beam="2">  1       21 0.24010090E+00 0.78092227E+03</pdfrwt>
<totfact> 0.42472032E+01</totfact>
</mgrwt>
</event>
<event>
 4    1  0.4758708E-002  0.4132390E+03  0.7818608E-02  0.1039290E+00
         21   -1    0    0  501  502  0.00000000000E+00  0.00000000000E+00  0.74507858398E+03  0.74507858398E+03  0.00000000000E+00 0.  1.
         21   -1    0    0  502  503 -0.00000000000E+00 -0.00000000000E+00 -0.25073343098E+03  0.25073343098E+03  0.00000000000E+00 0.  1.
    9000007    1    1    2  501    0  0.36113330468E+02  0.97274414358E+02  0.10123314362E+03  0.42545814564E+03  0.40000000000E+03 0.  1.
   -9000007    1    1    2    0  503 -0.36113330468E+02 -0.97274414358E+02  0.39311200938E+03  0.57035386932E+03  0.40000000000E+03 0.  1.
<mgrwt>
<rscale>  2 0.41323902E+03</rscale>
<asrwt>0</asrwt>
<pdfrwt beam="1">  1       21 0.11462747E+00 0.41323902E+03</pdfrwt>
<pdfrwt beam="2">  1       21 0.38574374E-01 0.41323902E+03</pdfrwt>
<totfact> 0.33766029E+03</totfact>
</mgrwt>
</event>
<event>
 4    1  0.4758708E-002  0.4135217E+03  0.7818608E-02  0.1039196E+00
         21   -1    0    0  503  502  0.00000000000E+00  0.00000000000E+00  0.45416129032E+03  0.45416129032E+03  0.00000000000E+00 0. -1.
         21   -1    0    0  501  503 -0.00000000000E+00 -0.00000000000E+00 -0.94067694156E+03  0.94067694156E+03  0.00000000000E+00 0. -1.
    9000007    1    1    2  501    0 -0.88543257658E+02  0.56216411571E+02 -0.78335771412E+03  0.88580443761E+03  0.40000000000E+03 0. -1.
   -9000007    1    1    2    0  502  0.88543257658E+02 -0.56216411571E+02  0.29684206289E+03  0.50903379427E+03  0.40000000000E+03 0. -1.
<mgrwt>
<rscale>  2 0.41352170E+03</rscale>
<asrwt>0</asrwt>
<pdfrwt beam="1">  1       21 0.69870969E-01 0.41352170E+03</pdfrwt>
<pdfrwt beam="2">  1       21 0.14471953E+00 0.41352170E+03</pdfrwt>
<totfact> 0.51840071E+02</totfact>
</mgrwt>
</event>
<event>
 4    1  0.4758708E-002  0.4175897E+03  0.7818608E-02  0.1037854E+00
         21   -1    0    0  501  502  0.00000000000E+00  0.00000000000E+00  0.39914578047E+03  0.39914578047E+03  0.00000000000E+00 0.  1.
         21   -1    0    0  502  503 -0.00000000000E+00 -0.00000000000E+00 -0.44016971087E+03  0.44016971087E+03  0.00000000000E+00 0.  1.
    9000007    1    1    2  501    0  0.40559252095E+02 -0.11285439246E+03 -0.56759100452E+02  0.42142942744E+03  0.40000000000E+03 0.  1.
   -9000007    1    1    2    0  503 -0.40559252095E+02  0.11285439246E+03  0.15735170053E+02  0.41788606390E+03  0.40000000000E+03 0.  1.
<mgrwt>
<rscale>  2 0.41758971E+03</rscale>
<asrwt>0</asrwt>
<pdfrwt beam="1">  1       21 0.61407043E-01 0.41758971E+03</pdfrwt>
<pdfrwt beam="2">  1       21 0.67718417E-01 0.41758971E+03</pdfrwt>
<totfact> 0.43595964E+03</totfact>
</mgrwt>
</event>
<event>
 4    1  0.4758708E-002  0.4035400E+03  0.7818608E-02  0.1042561E+00
         21   -1    0    0  501  502  0.00000000000E+00  0.00000000000E+00  0.30468786053E+03  0.30468786053E+03  0.00000000000E+00 0. -1.
         21   -1    0    0  502  503 -0.00000000000E+00 -0.00000000000E+00 -0.58368539755E+03  0.58368539755E+03  0.00000000000E+00 0. -1.
    9000007    1    1    2  501    0 -0.46809279045E+02  0.25561811642E+02 -0.10508896241E+02  0.40367679116E+03  0.40000000000E+03 0. -1.
   -9000007    1    1    2    0  503  0.46809279045E+02 -0.25561811642E+02 -0.26848864079E+03  0.48469646693E+03  0.40000000000E+03 0. -1.
<mgrwt>
<rscale>  2 0.40353998E+03</rscale>
<asrwt>0</asrwt>
<pdfrwt beam="1">  1       21 0.46875056E-01 0.40353998E+03</pdfrwt>
<pdfrwt beam="2">  1       21 0.89797752E-01 0.40353998E+03</pdfrwt>
<totfact> 0.40951481E+03</totfact>
</mgrwt>
</event>
<event>
 4    1  0.4758708E-002  0.5353169E+03  0.7818608E-02  0.1004951E+00
         21   -1    0    0  503  502  0.00000000000E+00  0.00000000000E+00  0.69068167125E+03  0.69068167125E+03  0.00000000000E+00 0. -1.
         21   -1    0    0  501  503 -0.00000000000E+00 -0.00000000000E+00 -0.48718435329E+03  0.48718435329E+03  0.00000000000E+00 0. -1.
    9000007    1    1    2  501    0  0.82639878895E+02  0.34602714618E+03 -0.12510199442E+03  0.54974052469E+03  0.40000000000E+03 0. -1.
   -9000007    1    1    2    0  502 -0.82639878895E+02 -0.34602714618E+03  0.32859931238E+03  0.62812549986E+03  0.40000000000E+03 0. -1.
<mgrwt>
<rscale>  2 0.53531686E+03</rscale>
<asrwt>0</asrwt>
<pdfrwt beam="1">  1       21 0.10625872E+00 0.53531686E+03</pdfrwt>
<pdfrwt beam="2">  1       21 0.74951439E-01 0.53531686E+03</pdfrwt>
<totfact> 0.92924933E+02</totfact>
</mgrwt>
</event>
<event>
 4    1  0.4758708E-002  0.4308692E+03  0.7818608E-02  0.1033586E+00
         21   -1    0    0  501  502  0.00000000000E+00  0.00000000000E+00  0.16911077447E+03  0.16911077447E+03  0.00000000000E+00 0.  1.
         21   -1    0    0  502  503 -0.00000000000E+00 -0.00000000000E+00 -0.13373319179E+04  0.13373319179E+04  0.00000000000E+00 0.  1.
    9000007    1    1    2  501    0 -0.77330246979E+02  0.14024375350E+03 -0.26532921416E+03  0.50601172850E+03  0.40000000000E+03 0.  1.
   -9000007    1    1    2    0  503  0.77330246979E+02 -0.14024375350E+03 -0.90289192923E+03  0.10004309638E+04  0.40000000000E+03 0.  1.
<mgrwt>
<rscale>  2 0.43086921E+03</rscale>
<asrwt>0</asrwt>
<pdfrwt beam="1">  1       21 0.26017042E-01 0.43086921E+03</pdfrwt>
<pdfrwt beam="2">  1       21 0.20574337E+00 0.43086921E+03</pdfrwt>
<totfact> 0.14660432E+03</totfact>
</mgrwt>
</event>
<event>
 4    1  0.4758708E-002  0.4039403E+03  0.7818608E-02  0.1042424E+00
         21   -1    0    0  503  502  0.00000000000E+00  0.00000000000E+00  0.96011563015E+03  0.96011563015E+03  0.00000000000E+00 0. -1.
         21   -1    0    0  501  503 -0.00000000000E+00 -0.00000000000E+00 -0.33436351340E+03  0.33436351340E+03  0.00000000000E+00 0. -1.
    9000007    1    1    2  501    0  0.51746284639E+00  0.56280322659E+02 -0.14099214017E+03  0.42783936948E+03  0.40000000000E+03 0. -1.
   -9000007    1    1    2    0  502 -0.51746284639E+00 -0.56280322659E+02  0.76674425692E+03  0.86663977407E+03  0.40000000000E+03 0. -1.
<mgrwt>
<rscale>  2 0.40394027E+03</rscale>
<asrwt>0</asrwt>
<pdfrwt beam="1">  1       21 0.14771010E+00 0.40394027E+03</pdfrwt>
<pdfrwt beam="2">  1       21 0.51440541E-01 0.40394027E+03</pdfrwt>
<totfact> 0.96324812E+02</totfact>
</mgrwt>
</event>
<event>
 4    1  0.4758708E-002  0.4550283E+03  0.7818608E-02  0.1026233E+00
         21   -1    0    0  501  502  0.00000000000E+00  0.00000000000E+00  0.69996241970E+03  0.69996241970E+03  0.00000000000E+00 0. -1.
         21   -1    0    0  502  503 -0.00000000000E+00 -0.00000000000E+00 -0.36618234155E+03  0.36618234155E+03  0.00000000000E+00 0.  1.
    9000007    1    1    2  501    0  0.12662702927E+03  0.17611461926E+03  0.40059129816E+03  0.60623770241E+03  0.40000000000E+03 0. -1.
   -9000007    1    1    2    0  503 -0.12662702927E+03 -0.17611461926E+03 -0.66811220003E+02  0.45990705884E+03  0.40000000000E+03 0.  1.
<mgrwt>
<rscale>  2 0.45502831E+03</rscale>
<asrwt>0</asrwt>
<pdfrwt beam="1">  1       21 0.10768653E+00 0.45502831E+03</pdfrwt>
<pdfrwt beam="2">  1       21 0.56335745E-01 0.45502831E+03</pdfrwt>
<totfact> 0.17484970E+03</totfact>
</mgrwt>
</event>
<event>
 4    1  0.4758708E-002  0.4618287E+03  0.7818608E-02  0.1024252E+00
         21   -1    0    0  503  502  0.00000000000E+00  0.00000000000E+00  0.19902426530E+03  0.19902426530E+03  0.00000000000E+00 0.  1.
         21   -1    0    0  501  503 -0.00000000000E+00 -0.00000000000E+00 -0.11666324543E+04  0.11666324543E+04  0.00000000000E+00 0.  1.
    9000007    1    1    2  501    0 -0.19087615728E+03  0.12981530930E+03 -0.67863170409E+03  0.82086948520E+03  0.40000000000E+03 0.  1.
   -9000007    1    1    2    0  502  0.19087615728E+03 -0.12981530930E+03 -0.28897648495E+03  0.54478723443E+03  0.40000000000E+03 0.  1.
<mgrwt>
<rscale>  2 0.46182867E+03</rscale>
<asrwt>0</asrwt>
<pdfrwt beam="1">  1       21 0.30619118E-01 0.46182867E+03</pdfrwt>
<pdfrwt beam="2">  1       21 0.17948192E+00 0.46182867E+03</pdfrwt>
<totfact> 0.15824327E+03</totfact>
</mgrwt>
</event>
<event>
 4    1  0.4758708E-002  0.4531965E+03  0.7818608E-02  0.1026773E+00
         21   -1    0    0  503  502  0.00000000000E+00  0.00000000000E+00  0.53001384901E+03  0.53001384901E+03  0.00000000000E+00 0.  1.
         21   -1    0    0  501  503 -0.00000000000E+00 -0.00000000000E+00 -0.52218528125E+03  0.52218528125E+03  0.00000000000E+00 0.  1.
    9000007    1    1    2  501    0  0.21281548887E+03  0.98289631374E+01 -0.26326045571E+03  0.52411173270E+03  0.40000000000E+03 0.  1.
   -9000007    1    1    2    0  502 -0.21281548887E+03 -0.98289631374E+01  0.27108902346E+03  0.52808739756E+03  0.40000000000E+03 0.  1.
<mgrwt>
<rscale>  2 0.45319647E+03</rscale>
<asrwt>0</asrwt>
<pdfrwt beam="1">  1       21 0.81540592E-01 0.45319647E+03</pdfrwt>
<pdfrwt beam="2">  1       21 0.80336197E-01 0.45319647E+03</pdfrwt>
<totfact> 0.15389653E+03</totfact>
</mgrwt>
</event>
<event>
 4    1  0.4758708E-002  0.4052939E+03  0.7818608E-02  0.1041962E+00
         21   -1    0    0  501  502  0.00000000000E+00  0.00000000000E+00  0.57094628436E+03  0.57094628436E+03  0.00000000000E+00 0. -1.
         21   -1    0    0  502  503 -0.00000000000E+00 -0.00000000000E+00 -0.80179135278E+03  0.80179135278E+03  0.00000000000E+00 0. -1.
    9000007    1    1    2  501    0 -0.63927025097E+02 -0.13286038546E+02  0.43417601497E+03  0.59394612158E+03  0.40000000000E+03 0. -1.
   -9000007    1    1    2    0  503  0.63927025097E+02  0.13286038546E+02 -0.66502108339E+03  0.77879151556E+03  0.40000000000E+03 0. -1.
<mgrwt>
<rscale>  2 0.40529395E+03</rscale>
<asrwt>0</asrwt>
<pdfrwt beam="1">  1       21 0.87837890E-01 0.40529395E+03</pdfrwt>
<pdfrwt beam="2">  1       21 0.12335252E+00 0.40529395E+03</pdfrwt>
<totfact> 0.46716380E+02</totfact>
</mgrwt>
</event>
<event>
 4    1  0.4758708E-002  0.4086333E+03  0.7818608E-02  0.1040831E+00
         21   -1    0    0  501  502  0.00000000000E+00  0.00000000000E+00  0.19266220980E+03  0.19266220980E+03  0.00000000000E+00 0. -1.
         21   -1    0    0  502  503 -0.00000000000E+00 -0.00000000000E+00 -0.99334329794E+03  0.99334329794E+03  0.00000000000E+00 0. -1.
    9000007    1    1    2  501    0 -0.54955929111E+02  0.62936332629E+02 -0.61207474932E+03  0.73594608149E+03  0.40000000000E+03 0. -1.
   -9000007    1    1    2    0  503  0.54955929111E+02 -0.62936332629E+02 -0.18860633883E+03  0.45005942625E+03  0.40000000000E+03 0. -1.
<mgrwt>
<rscale>  2 0.40863325E+03</rscale>
<asrwt>0</asrwt>
<pdfrwt beam="1">  1       21 0.29640341E-01 0.40863325E+03</pdfrwt>
<pdfrwt beam="2">  1       21 0.15282204E+00 0.40863325E+03</pdfrwt>
<totfact> 0.27157335E+03</totfact>
</mgrwt>
</event>
<event>
 4    1  0.4758708E-002  0.4090530E+03  0.7818608E-02  0.1040689E+00
         21   -1    0    0  501  502  0.00000000000E+00  0.00000000000E+00  0.76566369399E+03  0.76566369399E+03  0.00000000000E+00 0.  1.
         21   -1    0    0  502  503 -0.00000000000E+00 -0.00000000000E+00 -0.22535117435E+03  0.22535117435E+03  0.00000000000E+00 0.  1.
    9000007    1    1    2  501    0 -0.84878640469E+02 -0.10953873028E+02  0.18397987028E+03  0.44852309150E+03  0.40000000000E+03 0.  1.
   -9000007    1    1    2    0  503  0.84878640469E+02  0.10953873028E+02  0.35633264936E+03  0.54249177684E+03  0.40000000000E+03 0.  1.
<mgrwt>
<rscale>  2 0.40905302E+03</rscale>
<asrwt>0</asrwt>
<pdfrwt beam="1">  1       21 0.11779441E+00 0.40905302E+03</pdfrwt>
<pdfrwt beam="2">  1       21 0.34669412E-01 0.40905302E+03</pdfrwt>
<totfact> 0.39241175E+03</totfact>
</mgrwt>
</event>
<event>
 4    1  0.4758708E-002  0.4420899E+03  0.7818608E-02  0.1030108E+00
         21   -1    0    0  501  502  0.00000000000E+00  0.00000000000E+00  0.24090574546E+03  0.24090574546E+03  0.00000000000E+00 0.  1.
         21   -1    0    0  502  503 -0.00000000000E+00 -0.00000000000E+00 -0.81783317793E+03  0.81783317793E+03  0.00000000000E+00 0.  1.
    9000007    1    1    2  501    0  0.16335288428E+03  0.93591052426E+02 -0.33582841651E+03  0.55517940815E+03  0.40000000000E+03 0.  1.
   -9000007    1    1    2    0  503 -0.16335288428E+03 -0.93591052426E+02 -0.24109901596E+03  0.50355951524E+03  0.40000000000E+03 0.  1.
<mgrwt>
<rscale>  2 0.44208987E+03</rscale>
<asrwt>0</asrwt>
<pdfrwt beam="1">  1       21 0.37062423E-01 0.44208987E+03</pdfrwt>
<pdfrwt beam="2">  1       21 0.12582049E+00 0.44208987E+03</pdfrwt>
<totfact> 0.28611105E+03</totfact>
</mgrwt>
</event>
<event>
 4    1  0.4758708E-002  0.4329785E+03  0.7818608E-02  0.1032923E+00
         21   -1    0    0  503  502  0.00000000000E+00  0.00000000000E+00  0.13812161401E+03  0.13812161401E+03  0.00000000000E+00 0.  1.
         21   -1    0    0  501  503 -0.00000000000E+00 -0.00000000000E+00 -0.15804981787E+04  0.15804981787E+04  0.00000000000E+00 0.  1.
    9000007    1    1    2  501    0 -0.15875306080E+03  0.47621893386E+02 -0.10441215902E+04  0.11303363544E+04  0.40000000000E+03 0.  1.
   -9000007    1    1    2    0  502  0.15875306080E+03 -0.47621893386E+02 -0.39825497448E+03  0.58828343827E+03  0.40000000000E+03 0.  1.
<mgrwt>
<rscale>  2 0.43297850E+03</rscale>
<asrwt>0</asrwt>
<pdfrwt beam="1">  1       21 0.21249478E-01 0.43297850E+03</pdfrwt>
<pdfrwt beam="2">  1       21 0.24315358E+00 0.43297850E+03</pdfrwt>
<totfact> 0.12534725E+03</totfact>
</mgrwt>
</event>
<event>
 4    1  0.4758708E-002  0.4418934E+03  0.7818608E-02  0.1030167E+00
         21   -1    0    0  501  502  0.00000000000E+00  0.00000000000E+00  0.36155109385E+03  0.36155109385E+03  0.00000000000E+00 0.  1.
         21   -1    0    0  502  503 -0.00000000000E+00 -0.00000000000E+00 -0.83986821963E+03  0.83986821963E+03  0.00000000000E+00 0. -1.
    9000007    1    1    2  501    0 -0.11772201686E+03  0.14632591370E+03  0.11973018882E+03  0.45782645663E+03  0.40000000000E+03 0.  1.
   -9000007    1    1    2    0  503  0.11772201686E+03 -0.14632591370E+03 -0.59804731460E+03  0.74359285686E+03  0.40000000000E+03 0. -1.
<mgrwt>
<rscale>  2 0.44189337E+03</rscale>
<asrwt>0</asrwt>
<pdfrwt beam="1">  1       21 0.55623246E-01 0.44189337E+03</pdfrwt>
<pdfrwt beam="2">  1       21 0.12921049E+00 0.44189337E+03</pdfrwt>
<totfact> 0.11399920E+03</totfact>
</mgrwt>
</event>
<event>
 4    1  0.4758708E-002  0.5392440E+03  0.7818608E-02  0.1004015E+00
         21   -1    0    0  501  502  0.00000000000E+00  0.00000000000E+00  0.17685553797E+03  0.17685553797E+03  0.00000000000E+00 0. -1.
         21   -1    0    0  502  503 -0.00000000000E+00 -0.00000000000E+00 -0.17559179039E+04  0.17559179039E+04  0.00000000000E+00 0. -1.
    9000007    1    1    2  501    0 -0.14830462639E+03 -0.32983308309E+03 -0.54576162011E+03  0.76722869530E+03  0.40000000000E+03 0. -1.
   -9000007    1    1    2    0  503  0.14830462639E+03  0.32983308309E+03 -0.10333007458E+04  0.11655447465E+04  0.40000000000E+03 0. -1.
<mgrwt>
<rscale>  2 0.53924403E+03</rscale>
<asrwt>0</asrwt>
<pdfrwt beam="1">  1       21 0.27208544E-01 0.53924403E+03</pdfrwt>
<pdfrwt beam="2">  1       21 0.27014122E+00 0.53924403E+03</pdfrwt>
<totfact> 0.50397026E+02</totfact>
</mgrwt>
</event>
<event>
 4    1  0.4758708E-002  0.4137423E+03  0.7818608E-02  0.1039122E+00
         21   -1    0    0  503  502  0.00000000000E+00  0.00000000000E+00  0.16882047179E+03  0.16882047179E+03  0.00000000000E+00 0. -1.
         21   -1    0    0  501  503 -0.00000000000E+00 -0.00000000000E+00 -0.10743706225E+04  0.10743706225E+04  0.00000000000E+00 0. -1.
    9000007    1    1    2  501    0 -0.52910562879E+02 -0.91559408059E+02 -0.30541783718E+03  0.51425937827E+03  0.40000000000E+03 0. -1.
   -9000007    1    1    2    0  502  0.52910562879E+02  0.91559408059E+02 -0.60013231350E+03  0.72893171599E+03  0.40000000000E+03 0. -1.
<mgrwt>
<rscale>  2 0.41374225E+03</rscale>
<asrwt>0</asrwt>
<pdfrwt beam="1">  1       21 0.25972380E-01 0.41374225E+03</pdfrwt>
<pdfrwt beam="2">  1       21 0.16528779E+00 0.41374225E+03</pdfrwt>
<totfact> 0.28274901E+03</totfact>
</mgrwt>
</event>
<event>
 4    1  0.4758708E-002  0.4959910E+03  0.7818608E-02  0.1014831E+00
         21   -1    0    0  503  502  0.00000000000E+00  0.00000000000E+00  0.66724418629E+03  0.66724418629E+03  0.00000000000E+00 0.  1.
         21   -1    0    0  501  503 -0.00000000000E+00 -0.00000000000E+00 -0.56806602007E+03  0.56806602007E+03  0.00000000000E+00 0. -1.
    9000007    1    1    2  501    0 -0.23269514801E+03  0.17849387018E+03 -0.31632719255E+03  0.58827713397E+03  0.40000000000E+03 0. -1.
   -9000007    1    1    2    0  502  0.23269514801E+03 -0.17849387018E+03  0.41550535877E+03  0.64703307239E+03  0.40000000000E+03 0.  1.
<mgrwt>
<rscale>  2 0.49599102E+03</rscale>
<asrwt>0</asrwt>
<pdfrwt beam="1">  1       21 0.10265295E+00 0.49599102E+03</pdfrwt>
<pdfrwt beam="2">  1       21 0.87394772E-01 0.49599102E+03</pdfrwt>
<totfact> 0.71831387E+02</totfact>
</mgrwt>
</event>
<event>
 4    1  0.4758708E-002  0.5484771E+03  0.7818608E-02  0.1001847E+00
         21   -1    0    0  501  502  0.00000000000E+00  0.00000000000E+00  0.87743132355E+03  0.87743132355E+03  0.00000000000E+00 0. -1.
         21   -1    0    0  502  503 -0.00000000000E+00 -0.00000000000E+00 -0.56990405600E+03  0.56990405600E+03  0.00000000000E+00 0.  1.
    9000007    1    1    2  501    0  0.36249613070E+03  0.97075444526E+02  0.61053955838E+03  0.82072263223E+03  0.40000000000E+03 0. -1.
   -9000007    1    1    2    0  503 -0.36249613070E+03 -0.97075444526E+02 -0.30301229084E+03  0.62661274732E+03  0.40000000000E+03 0.  1.
<mgrwt>
<rscale>  2 0.54847706E+03</rscale>
<asrwt>0</asrwt>
<pdfrwt beam="1">  1       21 0.13498943E+00 0.54847706E+03</pdfrwt>
<pdfrwt beam="2">  1       21 0.87677547E-01 0.54847706E+03</pdfrwt>
<totfact> 0.34856277E+02</totfact>
</mgrwt>
</event>
<event>
 4    1  0.4758708E-002  0.4095692E+03  0.7818608E-02  0.1040516E+00
         21   -1    0    0  501  502  0.00000000000E+00  0.00000000000E+00  0.87198299299E+03  0.87198299299E+03  0.00000000000E+00 0.  1.
         21   -1    0    0  502  503 -0.00000000000E+00 -0.00000000000E+00 -0.42067051533E+03  0.42067051533E+03  0.00000000000E+00 0.  1.
    9000007    1    1    2  501    0 -0.70309043959E+02 -0.52948918982E+02  0.70179181901E+03  0.81256304796E+03  0.40000000000E+03 0.  1.
   -9000007    1    1    2    0  503  0.70309043959E+02  0.52948918982E+02 -0.25047934135E+03  0.48009046036E+03  0.40000000000E+03 0.  1.
<mgrwt>
<rscale>  2 0.40956922E+03</rscale>
<asrwt>0</asrwt>
<pdfrwt beam="1">  1       21 0.13415123E+00 0.40956922E+03</pdfrwt>
<pdfrwt beam="2">  1       21 0.64718541E-01 0.40956922E+03</pdfrwt>
<totfact> 0.75316227E+02</totfact>
</mgrwt>
</event>
<event>
 4    1  0.4758708E-002  0.4727472E+03  0.7818608E-02  0.1021148E+00
         21   -1    0    0  501  502  0.00000000000E+00  0.00000000000E+00  0.19426703264E+03  0.19426703264E+03  0.00000000000E+00 0. -1.
         21   -1    0    0  502  503 -0.00000000000E+00 -0.00000000000E+00 -0.11602715663E+04  0.11602715663E+04  0.00000000000E+00 0. -1.
    9000007    1    1    2  501    0  0.24883657813E+03 -0.39626718807E+02 -0.42061535413E+03  0.63277736653E+03  0.40000000000E+03 0. -1.
   -9000007    1    1    2    0  503 -0.24883657813E+03  0.39626718807E+02 -0.54538917949E+03  0.72176123238E+03  0.40000000000E+03 0. -1.
<mgrwt>
<rscale>  2 0.47274720E+03</rscale>
<asrwt>0</asrwt>
<pdfrwt beam="1">  1       21 0.29887235E-01 0.47274720E+03</pdfrwt>
<pdfrwt beam="2">  1       21 0.17850332E+00 0.47274720E+03</pdfrwt>
<totfact> 0.16797069E+03</totfact>
</mgrwt>
</event>
<event>
 4    1  0.4758708E-002  0.4289642E+03  0.7818608E-02  0.1034188E+00
         21   -1    0    0  501  502  0.00000000000E+00  0.00000000000E+00  0.36738838962E+04  0.36738838962E+04  0.00000000000E+00 0. -1.
         21   -1    0    0  502  503 -0.00000000000E+00 -0.00000000000E+00 -0.63505501769E+02  0.63505501769E+02  0.00000000000E+00 0. -1.
    9000007    1    1    2  501    0 -0.13263716685E+03 -0.80110369970E+02  0.26642032221E+04  0.26985160918E+04  0.40000000000E+03 0. -1.
   -9000007    1    1    2    0  503  0.13263716685E+03  0.80110369970E+02  0.94617517236E+03  0.10388733061E+04  0.40000000000E+03 0. -1.
<mgrwt>
<rscale>  2 0.42896421E+03</rscale>
<asrwt>0</asrwt>
<pdfrwt beam="1">  1       21 0.56521274E+00 0.42896421E+03</pdfrwt>
<pdfrwt beam="2">  1       21 0.97700801E-02 0.42896421E+03</pdfrwt>
<totfact> 0.40464917E+01</totfact>
</mgrwt>
</event>
<event>
 4    1  0.4758708E-002  0.6364177E+03  0.7818608E-02  0.9832605E-01
         21   -1    0    0  503  502  0.00000000000E+00  0.00000000000E+00  0.19297175631E+04  0.19297175631E+04  0.00000000000E+00 0. -1.
         21   -1    0    0  501  503 -0.00000000000E+00 -0.00000000000E+00 -0.21116366649E+03  0.21116366649E+03  0.00000000000E+00 0. -1.
    9000007    1    1    2  501    0 -0.31111557028E+03  0.38501247402E+03  0.77612704190E+03  0.10036935231E+04  0.40000000000E+03 0. -1.
   -9000007    1    1    2    0  502  0.31111557028E+03 -0.38501247402E+03  0.94242685471E+03  0.11371877065E+04  0.40000000000E+03 0. -1.
<mgrwt>
<rscale>  2 0.63641771E+03</rscale>
<asrwt>0</asrwt>
<pdfrwt beam="1">  1       21 0.29687961E+00 0.63641771E+03</pdfrwt>
<pdfrwt beam="2">  1       21 0.32486719E-01 0.63641771E+03</pdfrwt>
<totfact> 0.23314567E+02</totfact>
</mgrwt>
</event>
<event>
 4    1  0.4758708E-002  0.6658434E+03  0.7818608E-02  0.9777496E-01
         21   -1    0    0  501  502  0.00000000000E+00  0.00000000000E+00  0.92011863707E+03  0.92011863707E+03  0.00000000000E+00 0.  1.
         21   -1    0    0  502  503 -0.00000000000E+00 -0.00000000000E+00 -0.81834036052E+03  0.81834036052E+03  0.00000000000E+00 0.  1.
    9000007    1    1    2  501    0 -0.26987820605E+03 -0.45881715384E+03  0.60828278895E+03  0.90186217245E+03  0.40000000000E+03 0.  1.
   -9000007    1    1    2    0  503  0.26987820605E+03  0.45881715384E+03 -0.50650451240E+03  0.83659682514E+03  0.40000000000E+03 0.  1.
<mgrwt>
<rscale>  2 0.66584340E+03</rscale>
<asrwt>0</asrwt>
<pdfrwt beam="1">  1       21 0.14155671E+00 0.66584340E+03</pdfrwt>
<pdfrwt beam="2">  1       21 0.12589852E+00 0.66584340E+03</pdfrwt>
<totfact> 0.11994902E+02</totfact>
</mgrwt>
</event>
<event>
 4    1  0.4758708E-002  0.4154337E+03  0.7818608E-02  0.1038563E+00
         21   -1    0    0  503  502  0.00000000000E+00  0.00000000000E+00  0.50406669679E+03  0.50406669679E+03  0.00000000000E+00 0. -1.
         21   -1    0    0  501  503 -0.00000000000E+00 -0.00000000000E+00 -0.34973886534E+03  0.34973886534E+03  0.00000000000E+00 0. -1.
    9000007    1    1    2  501    0  0.67416753617E+02  0.89667023966E+02  0.13906471408E+03  0.43809152988E+03  0.40000000000E+03 0. -1.
   -9000007    1    1    2    0  502 -0.67416753617E+02 -0.89667023966E+02  0.15263117375E+02  0.41571403225E+03  0.40000000000E+03 0. -1.
<mgrwt>
<rscale>  2 0.41543374E+03</rscale>
<asrwt>0</asrwt>
<pdfrwt beam="1">  1       21 0.77548723E-01 0.41543374E+03</pdfrwt>
<pdfrwt beam="2">  1       21 0.53805979E-01 0.41543374E+03</pdfrwt>
<totfact> 0.42778116E+03</totfact>
</mgrwt>
</event>
<event>
 4    1  0.4758708E-002  0.4927332E+03  0.7818608E-02  0.1015693E+00
         21   -1    0    0  503  502  0.00000000000E+00  0.00000000000E+00  0.20581766509E+04  0.20581766509E+04  0.00000000000E+00 0. -1.
         21   -1    0    0  501  503 -0.00000000000E+00 -0.00000000000E+00 -0.20520254272E+03  0.20520254272E+03  0.00000000000E+00 0.  1.
    9000007    1    1    2  501    0 -0.27581824865E+03  0.81916562216E+02  0.18858984936E+03  0.52759090282E+03  0.40000000000E+03 0.  1.
   -9000007    1    1    2    0  502  0.27581824865E+03 -0.81916562216E+02  0.16643842588E+04  0.17357882908E+04  0.40000000000E+03 0. -1.
<mgrwt>
<rscale>  2 0.49273322E+03</rscale>
<asrwt>0</asrwt>
<pdfrwt beam="1">  1       21 0.31664255E+00 0.49273322E+03</pdfrwt>
<pdfrwt beam="2">  1       21 0.31569623E-01 0.49273322E+03</pdfrwt>
<totfact> 0.20059828E+02</totfact>
</mgrwt>
</event>
<event>
 4    1  0.4758708E-002  0.4097466E+03  0.7818608E-02  0.1040456E+00
         21   -1    0    0  503  502  0.00000000000E+00  0.00000000000E+00  0.80694843150E+03  0.80694843150E+03  0.00000000000E+00 0.  1.
         21   -1    0    0  501  503 -0.00000000000E+00 -0.00000000000E+00 -0.24323066229E+03  0.24323066229E+03  0.00000000000E+00 0.  1.
    9000007    1    1    2  501    0  0.55435530143E+02  0.69420154771E+02  0.82183071238E+02  0.41790706274E+03  0.40000000000E+03 0.  1.
   -9000007    1    1    2    0  502 -0.55435530143E+02 -0.69420154771E+02  0.48153469798E+03  0.63227203105E+03  0.40000000000E+03 0.  1.
<mgrwt>
<rscale>  2 0.40974658E+03</rscale>
<asrwt>0</asrwt>
<pdfrwt beam="1">  1       21 0.12414591E+00 0.40974658E+03</pdfrwt>
<pdfrwt beam="2">  1       21 0.37420102E-01 0.40974658E+03</pdfrwt>
<totfact> 0.29404485E+03</totfact>
</mgrwt>
</event>
<event>
 4    1  0.4758708E-002  0.4676508E+03  0.7818608E-02  0.1022585E+00
         21   -1    0    0  503  502  0.00000000000E+00  0.00000000000E+00  0.31559089447E+03  0.31559089447E+03  0.00000000000E+00 0.  1.
         21   -1    0    0  501  503 -0.00000000000E+00 -0.00000000000E+00 -0.71443048100E+03  0.71443048100E+03  0.00000000000E+00 0. -1.
    9000007    1    1    2  501    0  0.19349735840E+03 -0.14579462850E+03 -0.28866458697E+03  0.54956759837E+03  0.40000000000E+03 0.  1.
   -9000007    1    1    2    0  502 -0.19349735840E+03  0.14579462850E+03 -0.11017499956E+03  0.48045377711E+03  0.40000000000E+03 0. -1.
<mgrwt>
<rscale>  2 0.46765083E+03</rscale>
<asrwt>0</asrwt>
<pdfrwt beam="1">  1       21 0.48552446E-01 0.46765083E+03</pdfrwt>
<pdfrwt beam="2">  1       21 0.10991238E+00 0.46765083E+03</pdfrwt>
<totfact> 0.22750847E+03</totfact>
</mgrwt>
</event>
<event>
 4    1  0.4758708E-002  0.5735054E+03  0.7818608E-02  0.9961952E-01
         21   -1    0    0  503  502  0.00000000000E+00  0.00000000000E+00  0.17155846631E+04  0.17155846631E+04  0.00000000000E+00 0.  1.
         21   -1    0    0  501  503 -0.00000000000E+00 -0.00000000000E+00 -0.19852019130E+03  0.19852019130E+03  0.00000000000E+00 0.  1.
    9000007    1    1    2  501    0  0.26961556011E+03 -0.31018688392E+03  0.58137538908E+03  0.81664300416E+03  0.40000000000E+03 0.  1.
   -9000007    1    1    2    0  502 -0.26961556011E+03  0.31018688392E+03  0.93568908273E+03  0.10974618502E+04  0.40000000000E+03 0.  1.
<mgrwt>
<rscale>  2 0.57350541E+03</rscale>
<asrwt>0</asrwt>
<pdfrwt beam="1">  1       21 0.26393609E+00 0.57350541E+03</pdfrwt>
<pdfrwt beam="2">  1       21 0.30541569E-01 0.57350541E+03</pdfrwt>
<totfact> 0.43074738E+02</totfact>
</mgrwt>
</event>
<event>
 4    1  0.4758708E-002  0.4419932E+03  0.7818608E-02  0.1030137E+00
         21   -1    0    0  503  502  0.00000000000E+00  0.00000000000E+00  0.29990930935E+03  0.29990930935E+03  0.00000000000E+00 0. -1.
         21   -1    0    0  501  503 -0.00000000000E+00 -0.00000000000E+00 -0.16674385635E+04  0.16674385635E+04  0.00000000000E+00 0. -1.
    9000007    1    1    2  501    0  0.18393232027E+03  0.39074902646E+02 -0.14516271324E+04  0.15174252133E+04  0.40000000000E+03 0. -1.
   -9000007    1    1    2    0  502 -0.18393232027E+03 -0.39074902646E+02  0.84097878241E+02  0.44992265956E+03  0.40000000000E+03 0. -1.
<mgrwt>
<rscale>  2 0.44199315E+03</rscale>
<asrwt>0</asrwt>
<pdfrwt beam="1">  1       21 0.46139894E-01 0.44199315E+03</pdfrwt>
<pdfrwt beam="2">  1       21 0.25652901E+00 0.44199315E+03</pdfrwt>
<totfact> 0.21914455E+02</totfact>
</mgrwt>
</event>
<event>
 4    1  0.4758708E-002  0.4432846E+03  0.7818608E-02  0.1029744E+00
         21   -1    0    0  501  502  0.00000000000E+00  0.00000000000E+00  0.29384693666E+03  0.29384693666E+03  0.00000000000E+00 0.  1.
         21   -1    0    0  502  503 -0.00000000000E+00 -0.00000000000E+00 -0.10442468291E+04  0.10442468291E+04  0.00000000000E+00 0.  1.
    9000007    1    1    2  501    0 -0.90288985456E+02 -0.16837198117E+03  0.26013655717E+02  0.44404722184E+03  0.40000000000E+03 0.  1.
   -9000007    1    1    2    0  503  0.90288985456E+02  0.16837198117E+03 -0.77641354817E+03  0.89404654393E+03  0.40000000000E+03 0.  1.
<mgrwt>
<rscale>  2 0.44328459E+03</rscale>
<asrwt>0</asrwt>
<pdfrwt beam="1">  1       21 0.45207220E-01 0.44328459E+03</pdfrwt>
<pdfrwt beam="2">  1       21 0.16065336E+00 0.44328459E+03</pdfrwt>
<totfact> 0.98748190E+02</totfact>
</mgrwt>
</event>
<event>
 4    1  0.4758708E-002  0.4118381E+03  0.7818608E-02  0.1039756E+00
         21   -1    0    0  501  502  0.00000000000E+00  0.00000000000E+00  0.92070178859E+03  0.92070178859E+03  0.00000000000E+00 0.  1.
         21   -1    0    0  502  503 -0.00000000000E+00 -0.00000000000E+00 -0.18441633402E+03  0.18441633402E+03  0.00000000000E+00 0.  1.
    9000007    1    1    2  501    0  0.92122777231E+01 -0.97600032775E+02  0.38622427952E+03  0.56460590375E+03  0.40000000000E+03 0.  1.
   -9000007    1    1    2    0  503 -0.92122777231E+01  0.97600032775E+02  0.35006117505E+03  0.54051221886E+03  0.40000000000E+03 0.  1.
<mgrwt>
<rscale>  2 0.41183811E+03</rscale>
<asrwt>0</asrwt>
<pdfrwt beam="1">  1       21 0.14164643E+00 0.41183811E+03</pdfrwt>
<pdfrwt beam="2">  1       21 0.28371744E-01 0.41183811E+03</pdfrwt>
<totfact> 0.36276129E+03</totfact>
</mgrwt>
</event>
<event>
 4    1  0.4758708E-002  0.4904621E+03  0.7818608E-02  0.1016299E+00
         21   -1    0    0  501  502  0.00000000000E+00  0.00000000000E+00  0.55573449002E+03  0.55573449002E+03  0.00000000000E+00 0.  1.
         21   -1    0    0  502  503 -0.00000000000E+00 -0.00000000000E+00 -0.54839073225E+03  0.54839073225E+03  0.00000000000E+00 0.  1.
    9000007    1    1    2  501    0  0.17205324470E+03  0.22572274228E+03  0.25706763467E+03  0.55374799701E+03  0.40000000000E+03 0.  1.
   -9000007    1    1    2    0  503 -0.17205324470E+03 -0.22572274228E+03 -0.24972387690E+03  0.55037722526E+03  0.40000000000E+03 0.  1.
<mgrwt>
<rscale>  2 0.49046210E+03</rscale>
<asrwt>0</asrwt>
<pdfrwt beam="1">  1       21 0.85497614E-01 0.49046210E+03</pdfrwt>
<pdfrwt beam="2">  1       21 0.84367805E-01 0.49046210E+03</pdfrwt>
<totfact> 0.12122744E+03</totfact>
</mgrwt>
</event>
<event>
 4    1  0.4758708E-002  0.6247091E+03  0.7818608E-02  0.9855428E-01
         21   -1    0    0  503  502  0.00000000000E+00  0.00000000000E+00  0.13649355560E+04  0.13649355560E+04  0.00000000000E+00 0.  1.
         21   -1    0    0  501  503 -0.00000000000E+00 -0.00000000000E+00 -0.42910727218E+03  0.42910727218E+03  0.00000000000E+00 0. -1.
    9000007    1    1    2  501    0 -0.42142914884E+03  0.22947526205E+03  0.98608518260E+03  0.11673154718E+04  0.40000000000E+03 0.  1.
   -9000007    1    1    2    0  502  0.42142914884E+03 -0.22947526205E+03 -0.50256898750E+02  0.62672735640E+03  0.40000000000E+03 0. -1.
<mgrwt>
<rscale>  2 0.62470907E+03</rscale>
<asrwt>0</asrwt>
<pdfrwt beam="1">  1       21 0.20999008E+00 0.62470907E+03</pdfrwt>
<pdfrwt beam="2">  1       21 0.66016504E-01 0.62470907E+03</pdfrwt>
<totfact> 0.18201139E+02</totfact>
</mgrwt>
</event>
<event>
 4    1  0.4758708E-002  0.4162121E+03  0.7818608E-02  0.1038306E+00
         21   -1    0    0  501  502  0.00000000000E+00  0.00000000000E+00  0.14240384470E+03  0.14240384470E+03  0.00000000000E+00 0.  1.
         21   -1    0    0  502  503 -0.00000000000E+00 -0.00000000000E+00 -0.14119518543E+04  0.14119518543E+04  0.00000000000E+00 0.  1.
    9000007    1    1    2  501    0 -0.10631602550E+03 -0.43925168087E+02 -0.34561009136E+03  0.54099801563E+03  0.40000000000E+03 0.  1.
   -9000007    1    1    2    0  503  0.10631602550E+03  0.43925168087E+02 -0.92393791824E+03  0.10133576834E+04  0.40000000000E+03 0.  1.
<mgrwt>
<rscale>  2 0.41621211E+03</rscale>
<asrwt>0</asrwt>
<pdfrwt beam="1">  1       21 0.21908284E-01 0.41621211E+03</pdfrwt>
<pdfrwt beam="2">  1       21 0.21722336E+00 0.41621211E+03</pdfrwt>
<totfact> 0.17341781E+03</totfact>
</mgrwt>
</event>
<event>
 4    1  0.4758708E-002  0.4004751E+03  0.7818608E-02  0.1043615E+00
         21   -1    0    0  503  502  0.00000000000E+00  0.00000000000E+00  0.60437537736E+03  0.60437537736E+03  0.00000000000E+00 0. -1.
         21   -1    0    0  501  503 -0.00000000000E+00 -0.00000000000E+00 -0.54907656566E+03  0.54907656566E+03  0.00000000000E+00 0. -1.
    9000007    1    1    2  501    0 -0.13978575207E+01  0.19452084175E+02 -0.38691426276E+03  0.55685095341E+03  0.40000000000E+03 0. -1.
   -9000007    1    1    2    0  502  0.13978575207E+01 -0.19452084175E+02  0.44221307446E+03  0.59660098961E+03  0.40000000000E+03 0. -1.
<mgrwt>
<rscale>  2 0.40047514E+03</rscale>
<asrwt>0</asrwt>
<pdfrwt beam="1">  1       21 0.92980828E-01 0.40047514E+03</pdfrwt>
<pdfrwt beam="2">  1       21 0.84473317E-01 0.40047514E+03</pdfrwt>
<totfact> 0.10288870E+03</totfact>
</mgrwt>
</event>
<event>
 4    1  0.4758708E-002  0.4579876E+03  0.7818608E-02  0.1025366E+00
         21   -1    0    0  501  502  0.00000000000E+00  0.00000000000E+00  0.32203463206E+03  0.32203463206E+03  0.00000000000E+00 0.  1.
         21   -1    0    0  502  503 -0.00000000000E+00 -0.00000000000E+00 -0.76167885566E+03  0.76167885566E+03  0.00000000000E+00 0.  1.
    9000007    1    1    2  501    0  0.64527839546E+02  0.21351540642E+03 -0.13582956695E+02  0.45818900856E+03  0.40000000000E+03 0.  1.
   -9000007    1    1    2    0  503 -0.64527839546E+02 -0.21351540642E+03 -0.42606126690E+03  0.62552447915E+03  0.40000000000E+03 0.  1.
<mgrwt>
<rscale>  2 0.45798763E+03</rscale>
<asrwt>0</asrwt>
<pdfrwt beam="1">  1       21 0.49543790E-01 0.45798763E+03</pdfrwt>
<pdfrwt beam="2">  1       21 0.11718136E+00 0.45798763E+03</pdfrwt>
<totfact> 0.18641164E+03</totfact>
</mgrwt>
</event>
<event>
 4    1  0.4758708E-002  0.4210253E+03  0.7818608E-02  0.1036733E+00
         21   -1    0    0  501  502  0.00000000000E+00  0.00000000000E+00  0.60855122884E+03  0.60855122884E+03  0.00000000000E+00 0. -1.
         21   -1    0    0  502  503 -0.00000000000E+00 -0.00000000000E+00 -0.98351266653E+03  0.98351266653E+03  0.00000000000E+00 0. -1.
    9000007    1    1    2  501    0  0.62532835507E+02 -0.11555048901E+03  0.48034751506E+03  0.63874565067E+03  0.40000000000E+03 0. -1.
   -9000007    1    1    2    0  503 -0.62532835507E+02  0.11555048901E+03 -0.85530895275E+03  0.95331824470E+03  0.40000000000E+03 0. -1.
<mgrwt>
<rscale>  2 0.42102526E+03</rscale>
<asrwt>0</asrwt>
<pdfrwt beam="1">  1       21 0.93623266E-01 0.42102526E+03</pdfrwt>
<pdfrwt beam="2">  1       21 0.15130964E+00 0.42102526E+03</pdfrwt>
<totfact> 0.23274067E+02</totfact>
</mgrwt>
</event>
<event>
 4    1  0.4758708E-002  0.6065469E+03  0.7818608E-02  0.9891916E-01
         21   -1    0    0  503  502  0.00000000000E+00  0.00000000000E+00  0.52178261849E+03  0.52178261849E+03  0.00000000000E+00 0. -1.
         21   -1    0    0  501  503 -0.00000000000E+00 -0.00000000000E+00 -0.10584406173E+04  0.10584406173E+04  0.00000000000E+00 0. -1.
    9000007    1    1    2  501    0  0.43081519050E+03  0.14932318955E+03  0.18819488148E+03  0.63507200908E+03  0.40000000000E+03 0. -1.
   -9000007    1    1    2    0  502 -0.43081519050E+03 -0.14932318955E+03 -0.72485288032E+03  0.94515122674E+03  0.40000000000E+03 0. -1.
<mgrwt>
<rscale>  2 0.60654690E+03</rscale>
<asrwt>0</asrwt>
<pdfrwt beam="1">  1       21 0.80274250E-01 0.60654690E+03</pdfrwt>
<pdfrwt beam="2">  1       21 0.16283702E+00 0.60654690E+03</pdfrwt>
<totfact> 0.25126667E+02</totfact>
</mgrwt>
</event>
<event>
 4    1  0.4758708E-002  0.4439961E+03  0.7818608E-02  0.1029528E+00
         21   -1    0    0  503  502  0.00000000000E+00  0.00000000000E+00  0.35047996995E+03  0.35047996995E+03  0.00000000000E+00 0. -1.
         21   -1    0    0  501  503 -0.00000000000E+00 -0.00000000000E+00 -0.70981542633E+03  0.70981542633E+03  0.00000000000E+00 0. -1.
    9000007    1    1    2  501    0  0.41168731627E+02 -0.18824896802E+03 -0.42121415066E+03  0.61200808748E+03  0.40000000000E+03 0. -1.
   -9000007    1    1    2    0  502 -0.41168731627E+02  0.18824896802E+03  0.61878694279E+02  0.44828730880E+03  0.40000000000E+03 0. -1.
<mgrwt>
<rscale>  2 0.44399610E+03</rscale>
<asrwt>0</asrwt>
<pdfrwt beam="1">  1       21 0.53919996E-01 0.44399610E+03</pdfrwt>
<pdfrwt beam="2">  1       21 0.10920237E+00 0.44399610E+03</pdfrwt>
<totfact> 0.18646041E+03</totfact>
</mgrwt>
</event>
<event>
 4    1  0.4758708E-002  0.5135404E+03  0.7818608E-02  0.1010304E+00
         21   -1    0    0  503  502  0.00000000000E+00  0.00000000000E+00  0.12739512836E+03  0.12739512836E+03  0.00000000000E+00 0. -1.
         21   -1    0    0  501  503 -0.00000000000E+00 -0.00000000000E+00 -0.23609273397E+04  0.23609273397E+04  0.00000000000E+00 0. -1.
    9000007    1    1    2  501    0  0.32046613897E+03  0.32018384049E+02 -0.15534176378E+04  0.16361020997E+04  0.40000000000E+03 0. -1.
   -9000007    1    1    2    0  502 -0.32046613897E+03 -0.32018384049E+02 -0.68011457350E+03  0.85222036835E+03  0.40000000000E+03 0. -1.
<mgrwt>
<rscale>  2 0.51354038E+03</rscale>
<asrwt>0</asrwt>
<pdfrwt beam="1">  1       21 0.19599252E-01 0.51354038E+03</pdfrwt>
<pdfrwt beam="2">  1       21 0.36321956E+00 0.51354038E+03</pdfrwt>
<totfact> 0.26048439E+02</totfact>
</mgrwt>
</event>
<event>
 4    1  0.4758708E-002  0.5562709E+03  0.7818608E-02  0.1000053E+00
         21   -1    0    0  501  502  0.00000000000E+00  0.00000000000E+00  0.27773615556E+03  0.27773615556E+03  0.00000000000E+00 0. -1.
         21   -1    0    0  502  503 -0.00000000000E+00 -0.00000000000E+00 -0.11160939247E+04  0.11160939247E+04  0.00000000000E+00 0. -1.
    9000007    1    1    2  501    0 -0.21909343326E+03 -0.31848928342E+03 -0.44832797105E+03  0.71444756685E+03  0.40000000000E+03 0. -1.
   -9000007    1    1    2    0  503  0.21909343326E+03  0.31848928342E+03 -0.39002979813E+03  0.67938251345E+03  0.40000000000E+03 0. -1.
<mgrwt>
<rscale>  2 0.55627094E+03</rscale>
<asrwt>0</asrwt>
<pdfrwt beam="1">  1       21 0.42728638E-01 0.55627094E+03</pdfrwt>
<pdfrwt beam="2">  1       21 0.17170676E+00 0.55627094E+03</pdfrwt>
<totfact> 0.87996991E+02</totfact>
</mgrwt>
</event>
<event>
 4    1  0.4758708E-002  0.6051353E+03  0.7818608E-02  0.9894809E-01
         21   -1    0    0  503  502  0.00000000000E+00  0.00000000000E+00  0.19872899667E+04  0.19872899667E+04  0.00000000000E+00 0. -1.
         21   -1    0    0  501  503 -0.00000000000E+00 -0.00000000000E+00 -0.19003592832E+03  0.19003592832E+03  0.00000000000E+00 0.  1.
    9000007    1    1    2  501    0 -0.43222675209E+03 -0.13917167555E+03  0.70891951494E+03  0.93207059774E+03  0.40000000000E+03 0. -1.
   -9000007    1    1    2    0  502  0.43222675209E+03  0.13917167555E+03  0.10883345234E+04  0.12452552973E+04  0.40000000000E+03 0. -1.
<mgrwt>
<rscale>  2 0.60513529E+03</rscale>
<asrwt>0</asrwt>
<pdfrwt beam="1">  1       21 0.30573690E+00 0.60513529E+03</pdfrwt>
<pdfrwt beam="2">  1       21 0.29236298E-01 0.60513529E+03</pdfrwt>
<totfact> 0.25769377E+02</totfact>
</mgrwt>
</event>
<event>
 4    1  0.4758708E-002  0.5367263E+03  0.7818608E-02  0.1004614E+00
         21   -1    0    0  503  502  0.00000000000E+00  0.00000000000E+00  0.67244519087E+03  0.67244519087E+03  0.00000000000E+00 0.  1.
         21   -1    0    0  501  503 -0.00000000000E+00 -0.00000000000E+00 -0.57095056123E+03  0.57095056123E+03  0.00000000000E+00 0.  1.
    9000007    1    1    2  501    0 -0.33096623287E+03  0.13614877095E+03  0.36139310223E+03  0.64705495089E+03  0.40000000000E+03 0. -1.
   -9000007    1    1    2    0  502  0.33096623287E+03 -0.13614877095E+03 -0.25989847259E+03  0.59634080121E+03  0.40000000000E+03 0. -1.
<mgrwt>
<rscale>  2 0.53672631E+03</rscale>
<asrwt>0</asrwt>
<pdfrwt beam="1">  1       21 0.10345311E+00 0.53672631E+03</pdfrwt>
<pdfrwt beam="2">  1       21 0.87838547E-01 0.53672631E+03</pdfrwt>
<totfact> 0.68593312E+02</totfact>
</mgrwt>
</event>
<event>
 4    1  0.4758708E-002  0.4064990E+03  0.7818608E-02  0.1041552E+00
         21   -1    0    0  503  502  0.00000000000E+00  0.00000000000E+00  0.10855195835E+04  0.10855195835E+04  0.00000000000E+00 0. -1.
         21   -1    0    0  501  503 -0.00000000000E+00 -0.00000000000E+00 -0.15224411577E+03  0.15224411577E+03  0.00000000000E+00 0. -1.
    9000007    1    1    2  501    0  0.38025174120E+01 -0.72297998335E+02  0.45941501163E+03  0.61343590750E+03  0.40000000000E+03 0. -1.
   -9000007    1    1    2    0  502 -0.38025174120E+01  0.72297998335E+02  0.47386045609E+03  0.62432779175E+03  0.40000000000E+03 0. -1.
<mgrwt>
<rscale>  2 0.40649903E+03</rscale>
<asrwt>0</asrwt>
<pdfrwt beam="1">  1       21 0.16700301E+00 0.40649903E+03</pdfrwt>
<pdfrwt beam="2">  1       21 0.23422172E-01 0.40649903E+03</pdfrwt>
<totfact> 0.33664510E+03</totfact>
</mgrwt>
</event>
<event>
 4    1  0.4758708E-002  0.4189037E+03  0.7818608E-02  0.1037424E+00
         21   -1    0    0  501  502  0.00000000000E+00  0.00000000000E+00  0.13351893924E+03  0.13351893924E+03  0.00000000000E+00 0.  1.
         21   -1    0    0  502  503 -0.00000000000E+00 -0.00000000000E+00 -0.13197745712E+04  0.13197745712E+04  0.00000000000E+00 0.  1.
    9000007    1    1    2  501    0 -0.12415559431E+03  0.81045601010E+01 -0.54621094374E+03  0.68835070317E+03  0.40000000000E+03 0.  1.
   -9000007    1    1    2    0  503  0.12415559431E+03 -0.81045601010E+01 -0.64004468825E+03  0.76494280731E+03  0.40000000000E+03 0.  1.
<mgrwt>
<rscale>  2 0.41890368E+03</rscale>
<asrwt>0</asrwt>
<pdfrwt beam="1">  1       21 0.20541375E-01 0.41890368E+03</pdfrwt>
<pdfrwt beam="2">  1       21 0.20304224E+00 0.41890368E+03</pdfrwt>
<totfact> 0.24221367E+03</totfact>
</mgrwt>
</event>
<event>
 4    1  0.4758708E-002  0.5528843E+03  0.7818608E-02  0.1000829E+00
         21   -1    0    0  501  502  0.00000000000E+00  0.00000000000E+00  0.11321518970E+04  0.11321518970E+04  0.00000000000E+00 0.  1.
         21   -1    0    0  502  503 -0.00000000000E+00 -0.00000000000E+00 -0.35791629900E+03  0.35791629900E+03  0.00000000000E+00 0. -1.
    9000007    1    1    2  501    0  0.34341068513E+03 -0.16658381485E+03  0.75636736433E+03  0.93689522139E+03  0.40000000000E+03 0. -1.
   -9000007    1    1    2    0  503 -0.34341068513E+03  0.16658381485E+03  0.17868233628E+02  0.55317297458E+03  0.40000000000E+03 0. -1.
<mgrwt>
<rscale>  2 0.55288432E+03</rscale>
<asrwt>0</asrwt>
<pdfrwt beam="1">  1       21 0.17417721E+00 0.55288432E+03</pdfrwt>
<pdfrwt beam="2">  1       21 0.55064046E-01 0.55288432E+03</pdfrwt>
<totfact> 0.49284662E+02</totfact>
</mgrwt>
</event>
<event>
 4    1  0.4758708E-002  0.4757254E+03  0.7818608E-02  0.1020317E+00
         21   -1    0    0  503  502  0.00000000000E+00  0.00000000000E+00  0.16072759263E+03  0.16072759263E+03  0.00000000000E+00 0.  1.
         21   -1    0    0  501  503 -0.00000000000E+00 -0.00000000000E+00 -0.14524060147E+04  0.14524060147E+04  0.00000000000E+00 0.  1.
    9000007    1    1    2  501    0  0.17070949096E+03  0.19280289582E+03 -0.50490852696E+03  0.69371990568E+03  0.40000000000E+03 0.  1.
   -9000007    1    1    2    0  502 -0.17070949096E+03 -0.19280289582E+03 -0.78676989516E+03  0.91941370170E+03  0.40000000000E+03 0.  1.
<mgrwt>
<rscale>  2 0.47572543E+03</rscale>
<asrwt>0</asrwt>
<pdfrwt beam="1">  1       21 0.24727323E-01 0.47572543E+03</pdfrwt>
<pdfrwt beam="2">  1       21 0.22344707E+00 0.47572543E+03</pdfrwt>
<totfact> 0.12186470E+03</totfact>
</mgrwt>
</event>
<event>
 4    1  0.4758708E-002  0.8240838E+03  0.7818608E-02  0.9525796E-01
         21   -1    0    0  503  502  0.00000000000E+00  0.00000000000E+00  0.71036252061E+03  0.71036252061E+03  0.00000000000E+00 0. -1.
         21   -1    0    0  501  503 -0.00000000000E+00 -0.00000000000E+00 -0.12526369042E+04  0.12526369042E+04  0.00000000000E+00 0.  1.
    9000007    1    1    2  501    0  0.49799671606E+03 -0.52068549662E+03 -0.74875706535E+03  0.11134411787E+04  0.40000000000E+03 0.  1.
   -9000007    1    1    2    0  502 -0.49799671606E+03  0.52068549662E+03  0.20648268176E+03  0.84955824607E+03  0.40000000000E+03 0. -1.
<mgrwt>
<rscale>  2 0.82408380E+03</rscale>
<asrwt>0</asrwt>
<pdfrwt beam="1">  1       21 0.10928654E+00 0.82408380E+03</pdfrwt>
<pdfrwt beam="2">  1       21 0.19271337E+00 0.82408380E+03</pdfrwt>
<totfact> 0.67389319E+01</totfact>
</mgrwt>
</event>
<event>
 4    1  0.4758708E-002  0.4442020E+03  0.7818608E-02  0.1029465E+00
         21   -1    0    0  503  502  0.00000000000E+00  0.00000000000E+00  0.11231820075E+04  0.11231820075E+04  0.00000000000E+00 0. -1.
         21   -1    0    0  501  503 -0.00000000000E+00 -0.00000000000E+00 -0.52317017588E+03  0.52317017588E+03  0.00000000000E+00 0. -1.
    9000007    1    1    2  501    0  0.34785575672E+02  0.19001409741E+03 -0.37087498723E+03  0.57867404438E+03  0.40000000000E+03 0. -1.
   -9000007    1    1    2    0  502 -0.34785575672E+02 -0.19001409741E+03  0.97088681887E+03  0.10676781390E+04  0.40000000000E+03 0. -1.
<mgrwt>
<rscale>  2 0.44420197E+03</rscale>
<asrwt>0</asrwt>
<pdfrwt beam="1">  1       21 0.17279723E+00 0.44420197E+03</pdfrwt>
<pdfrwt beam="2">  1       21 0.80487720E-01 0.44420197E+03</pdfrwt>
<totfact> 0.22633286E+02</totfact>
</mgrwt>
</event>
<event>
 4    1  0.4758708E-002  0.4317832E+03  0.7818608E-02  0.1033298E+00
         21   -1    0    0  501  502  0.00000000000E+00  0.00000000000E+00  0.11843669557E+04  0.11843669557E+04  0.00000000000E+00 0. -1.
         21   -1    0    0  502  503 -0.00000000000E+00 -0.00000000000E+00 -0.15984950397E+03  0.15984950397E+03  0.00000000000E+00 0.  1.
    9000007    1    1    2  501    0  0.13945047958E+03  0.83607886978E+02  0.59520934556E+03  0.73533045637E+03  0.40000000000E+03 0.  1.
   -9000007    1    1    2    0  503 -0.13945047958E+03 -0.83607886978E+02  0.42930810621E+03  0.60888600335E+03  0.40000000000E+03 0.  1.
<mgrwt>
<rscale>  2 0.43178318E+03</rscale>
<asrwt>0</asrwt>
<pdfrwt beam="1">  1       21 0.18221030E+00 0.43178318E+03</pdfrwt>
<pdfrwt beam="2">  1       21 0.24592232E-01 0.43178318E+03</pdfrwt>
<totfact> 0.23593237E+03</totfact>
</mgrwt>
</event>
<event>
 4    1  0.4758708E-002  0.4810077E+03  0.7818608E-02  0.1018859E+00
         21   -1    0    0  503  502  0.00000000000E+00  0.00000000000E+00  0.99214358468E+03  0.99214358468E+03  0.00000000000E+00 0.  1.
         21   -1    0    0  501  503 -0.00000000000E+00 -0.00000000000E+00 -0.44957819124E+03  0.44957819124E+03  0.00000000000E+00 0. -1.
    9000007    1    1    2  501    0 -0.10596510403E+03  0.24523416100E+03 -0.22881524686E+03  0.53265825272E+03  0.40000000000E+03 0. -1.
   -9000007    1    1    2    0  502  0.10596510403E+03 -0.24523416100E+03  0.77138064030E+03  0.90906352321E+03  0.40000000000E+03 0.  1.
<mgrwt>
<rscale>  2 0.48100769E+03</rscale>
<asrwt>0</asrwt>
<pdfrwt beam="1">  1       21 0.15263747E+00 0.48100769E+03</pdfrwt>
<pdfrwt beam="2">  1       21 0.69165876E-01 0.48100769E+03</pdfrwt>
<totfact> 0.44483141E+02</totfact>
</mgrwt>
</event>
<event>
 4    1  0.4758708E-002  0.4717673E+03  0.7818608E-02  0.1021423E+00
         21   -1    0    0  501  502  0.00000000000E+00  0.00000000000E+00  0.97001272614E+03  0.97001272614E+03  0.00000000000E+00 0. -1.
         21   -1    0    0  502  503 -0.00000000000E+00 -0.00000000000E+00 -0.22975616631E+03  0.22975616631E+03  0.00000000000E+00 0.  1.
    9000007    1    1    2  501    0  0.11873627220E+03  0.22015020330E+03  0.39221047351E+03  0.61350914409E+03  0.40000000000E+03 0.  1.
   -9000007    1    1    2    0  503 -0.11873627220E+03 -0.22015020330E+03  0.34804608633E+03  0.58625974837E+03  0.40000000000E+03 0. -1.
<mgrwt>
<rscale>  2 0.47176733E+03</rscale>
<asrwt>0</asrwt>
<pdfrwt beam="1">  1       21 0.14923272E+00 0.47176733E+03</pdfrwt>
<pdfrwt beam="2">  1       21 0.35347103E-01 0.47176733E+03</pdfrwt>
<totfact> 0.19850639E+03</totfact>
</mgrwt>
</event>
<event>
 4    1  0.4758708E-002  0.5308350E+03  0.7818608E-02  0.1006030E+00
         21   -1    0    0  501  502  0.00000000000E+00  0.00000000000E+00  0.37909651048E+03  0.37909651048E+03  0.00000000000E+00 0.  1.
         21   -1    0    0  502  503 -0.00000000000E+00 -0.00000000000E+00 -0.97565878563E+03  0.97565878563E+03  0.00000000000E+00 0. -1.
    9000007    1    1    2  501    0  0.23304451112E+03  0.25976143584E+03  0.32281121277E+02  0.53181558693E+03  0.40000000000E+03 0.  1.
   -9000007    1    1    2    0  503 -0.23304451112E+03 -0.25976143584E+03 -0.62884339643E+03  0.82293970918E+03  0.40000000000E+03 0. -1.
<mgrwt>
<rscale>  2 0.53083495E+03</rscale>
<asrwt>0</asrwt>
<pdfrwt beam="1">  1       21 0.58322541E-01 0.53083495E+03</pdfrwt>
<pdfrwt beam="2">  1       21 0.15010135E+00 0.53083495E+03</pdfrwt>
<totfact> 0.66634954E+02</totfact>
</mgrwt>
</event>
<event>
 4    1  0.4758708E-002  0.5536562E+03  0.7818608E-02  0.1000651E+00
         21   -1    0    0  501  502  0.00000000000E+00  0.00000000000E+00  0.50924938305E+03  0.50924938305E+03  0.00000000000E+00 0.  1.
         21   -1    0    0  502  503 -0.00000000000E+00 -0.00000000000E+00 -0.60199486304E+03  0.60199486304E+03  0.00000000000E+00 0. -1.
    9000007    1    1    2  501    0  0.83172161503E+02 -0.37365430486E+03 -0.51902442232E+02  0.55608363715E+03  0.40000000000E+03 0. -1.
   -9000007    1    1    2    0  503 -0.83172161503E+02  0.37365430486E+03 -0.40843037751E+02  0.55516060894E+03  0.40000000000E+03 0.  1.
<mgrwt>
<rscale>  2 0.55365616E+03</rscale>
<asrwt>0</asrwt>
<pdfrwt beam="1">  1       21 0.78346059E-01 0.55365616E+03</pdfrwt>
<pdfrwt beam="2">  1       21 0.92614594E-01 0.55365616E+03</pdfrwt>
<totfact> 0.11659582E+03</totfact>
</mgrwt>
</event>
<event>
 4    1  0.4758708E-002  0.4031066E+03  0.7818608E-02  0.1042709E+00
         21   -1    0    0  503  502  0.00000000000E+00  0.00000000000E+00  0.21025667982E+04  0.21025667982E+04  0.00000000000E+00 0. -1.
         21   -1    0    0  501  503 -0.00000000000E+00 -0.00000000000E+00 -0.19112200256E+03  0.19112200256E+03  0.00000000000E+00 0. -1.
    9000007    1    1    2  501    0  0.29246938532E+02  0.40491091986E+02  0.70621743813E+02  0.40924606613E+03  0.40000000000E+03 0. -1.
   -9000007    1    1    2    0  502 -0.29246938532E+02 -0.40491091986E+02  0.18408230518E+04  0.18844427346E+04  0.40000000000E+03 0. -1.
<mgrwt>
<rscale>  2 0.40310658E+03</rscale>
<asrwt>0</asrwt>
<pdfrwt beam="1">  1       21 0.32347180E+00 0.40310658E+03</pdfrwt>
<pdfrwt beam="2">  1       21 0.29403387E-01 0.40310658E+03</pdfrwt>
<totfact> 0.22241151E+02</totfact>
</mgrwt>
</event>
<event>
 4    1  0.4758708E-002  0.4750189E+03  0.7818608E-02  0.1020513E+00
         21   -1    0    0  503  502  0.00000000000E+00  0.00000000000E+00  0.88263581511E+03  0.88263581511E+03  0.00000000000E+00 0. -1.
         21   -1    0    0  501  503 -0.00000000000E+00 -0.00000000000E+00 -0.26916298840E+03  0.26916298840E+03  0.00000000000E+00 0.  1.
    9000007    1    1    2  501    0 -0.28816498166E+02  0.25458311988E+03  0.43578916831E+03  0.64463567595E+03  0.40000000000E+03 0. -1.
   -9000007    1    1    2    0  502  0.28816498166E+02 -0.25458311988E+03  0.17768365840E+03  0.50716312756E+03  0.40000000000E+03 0.  1.
<mgrwt>
<rscale>  2 0.47501890E+03</rscale>
<asrwt>0</asrwt>
<pdfrwt beam="1">  1       21 0.13579012E+00 0.47501890E+03</pdfrwt>
<pdfrwt beam="2">  1       21 0.41409691E-01 0.47501890E+03</pdfrwt>
<totfact> 0.18454906E+03</totfact>
</mgrwt>
</event>
<event>
 4    1  0.4758708E-002  0.4678524E+03  0.7818608E-02  0.1022528E+00
         21   -1    0    0  503  502  0.00000000000E+00  0.00000000000E+00  0.65373236013E+03  0.65373236013E+03  0.00000000000E+00 0.  1.
         21   -1    0    0  501  503 -0.00000000000E+00 -0.00000000000E+00 -0.11066099738E+04  0.11066099738E+04  0.00000000000E+00 0. -1.
    9000007    1    1    2  501    0  0.84773774864E+02 -0.22737480025E+03 -0.96149074365E+03  0.10692756159E+04  0.40000000000E+03 0. -1.
   -9000007    1    1    2    0  502 -0.84773774864E+02  0.22737480025E+03  0.50861312999E+03  0.69106671798E+03  0.40000000000E+03 0.  1.
<mgrwt>
<rscale>  2 0.46785243E+03</rscale>
<asrwt>0</asrwt>
<pdfrwt beam="1">  1       21 0.10057421E+00 0.46785243E+03</pdfrwt>
<pdfrwt beam="2">  1       21 0.17024769E+00 0.46785243E+03</pdfrwt>
<totfact> 0.13755556E+02</totfact>
</mgrwt>
</event>
<event>
 4    1  0.4758708E-002  0.5074868E+03  0.7818608E-02  0.1011843E+00
         21   -1    0    0  501  502  0.00000000000E+00  0.00000000000E+00  0.62017017271E+03  0.62017017271E+03  0.00000000000E+00 0. -1.
         21   -1    0    0  502  503 -0.00000000000E+00 -0.00000000000E+00 -0.42435468690E+03  0.42435468690E+03  0.00000000000E+00 0.  1.
    9000007    1    1    2  501    0 -0.25521629206E+03  0.18002071431E+03  0.17429066698E+03  0.53658182033E+03  0.40000000000E+03 0. -1.
   -9000007    1    1    2    0  503  0.25521629206E+03 -0.18002071431E+03  0.21524818830E+02  0.50794303927E+03  0.40000000000E+03 0. -1.
<mgrwt>
<rscale>  2 0.50748676E+03</rscale>
<asrwt>0</asrwt>
<pdfrwt beam="1">  1       21 0.95410795E-01 0.50748676E+03</pdfrwt>
<pdfrwt beam="2">  1       21 0.65285337E-01 0.50748676E+03</pdfrwt>
<totfact> 0.16674083E+03</totfact>
</mgrwt>
</event>
<event>
 4    1  0.4758708E-002  0.4780889E+03  0.7818608E-02  0.1019662E+00
         21   -1    0    0  503  502  0.00000000000E+00  0.00000000000E+00  0.12275850632E+04  0.12275850632E+04  0.00000000000E+00 0.  1.
         21   -1    0    0  501  503 -0.00000000000E+00 -0.00000000000E+00 -0.28800570647E+03  0.28800570647E+03  0.00000000000E+00 0.  1.
    9000007    1    1    2  501    0 -0.15067756749E+02 -0.26142295295E+03  0.19232176061E+02  0.47847557327E+03  0.40000000000E+03 0.  1.
   -9000007    1    1    2    0  502  0.15067756749E+02  0.26142295295E+03  0.92034718068E+03  0.10371151964E+04  0.40000000000E+03 0.  1.
<mgrwt>
<rscale>  2 0.47808890E+03</rscale>
<asrwt>0</asrwt>
<pdfrwt beam="1">  1       21 0.18885924E+00 0.47808890E+03</pdfrwt>
<pdfrwt beam="2">  1       21 0.44308571E-01 0.47808890E+03</pdfrwt>
<totfact> 0.63598815E+02</totfact>
</mgrwt>
</event>
<event>
 4    1  0.4758708E-002  0.4241892E+03  0.7818608E-02  0.1035711E+00
         21   -1    0    0  501  502  0.00000000000E+00  0.00000000000E+00  0.87312950270E+03  0.87312950270E+03  0.00000000000E+00 0.  1.
         21   -1    0    0  502  503 -0.00000000000E+00 -0.00000000000E+00 -0.39359786516E+03  0.39359786516E+03  0.00000000000E+00 0.  1.
    9000007    1    1    2  501    0 -0.92464058789E+01 -0.14089359039E+03  0.67693093565E+03  0.79885667768E+03  0.40000000000E+03 0.  1.
   -9000007    1    1    2    0  503  0.92464058789E+01  0.14089359039E+03 -0.19739929812E+03  0.46787069018E+03  0.40000000000E+03 0.  1.
<mgrwt>
<rscale>  2 0.42418923E+03</rscale>
<asrwt>0</asrwt>
<pdfrwt beam="1">  1       21 0.13432762E+00 0.42418923E+03</pdfrwt>
<pdfrwt beam="2">  1       21 0.60553518E-01 0.42418923E+03</pdfrwt>
<totfact> 0.86321555E+02</totfact>
</mgrwt>
</event>
<event>
 4    1  0.4758708E-002  0.4061143E+03  0.7818608E-02  0.1041683E+00
         21   -1    0    0  503  502  0.00000000000E+00  0.00000000000E+00  0.37160024079E+03  0.37160024079E+03  0.00000000000E+00 0. -1.
         21   -1    0    0  501  503 -0.00000000000E+00 -0.00000000000E+00 -0.51397867557E+03  0.51397867557E+03  0.00000000000E+00 0. -1.
    9000007    1    1    2  501    0  0.93908827761E+01 -0.69574482112E+02 -0.23476623205E+03  0.46908845749E+03  0.40000000000E+03 0.  1.
   -9000007    1    1    2    0  502 -0.93908827761E+01  0.69574482112E+02  0.92387797271E+02  0.41649045886E+03  0.40000000000E+03 0.  1.
<mgrwt>
<rscale>  2 0.40611427E+03</rscale>
<asrwt>0</asrwt>
<pdfrwt beam="1">  1       21 0.57169268E-01 0.40611427E+03</pdfrwt>
<pdfrwt beam="2">  1       21 0.79073642E-01 0.40611427E+03</pdfrwt>
<totfact> 0.36018146E+03</totfact>
</mgrwt>
</event>
<event>
 4    1  0.4758708E-002  0.5439455E+03  0.7818608E-02  0.1002905E+00
         21   -1    0    0  503  502  0.00000000000E+00  0.00000000000E+00  0.59729532163E+03  0.59729532163E+03  0.00000000000E+00 0.  1.
         21   -1    0    0  501  503 -0.00000000000E+00 -0.00000000000E+00 -0.66054182304E+03  0.66054182304E+03  0.00000000000E+00 0.  1.
    9000007    1    1    2  501    0  0.32009012464E+03  0.18280867330E+03 -0.34612590281E+03  0.64473237822E+03  0.40000000000E+03 0.  1.
   -9000007    1    1    2    0  502 -0.32009012464E+03 -0.18280867330E+03  0.28287940139E+03  0.61310476646E+03  0.40000000000E+03 0.  1.
<mgrwt>
<rscale>  2 0.54394549E+03</rscale>
<asrwt>0</asrwt>
<pdfrwt beam="1">  1       21 0.91891588E-01 0.54394549E+03</pdfrwt>
<pdfrwt beam="2">  1       21 0.10162182E+00 0.54394549E+03</pdfrwt>
<totfact> 0.64218707E+02</totfact>
</mgrwt>
</event>
<event>
 4    1  0.4758708E-002  0.4095300E+03  0.7818608E-02  0.1040529E+00
         21   -1    0    0  501  502  0.00000000000E+00  0.00000000000E+00  0.77564129901E+03  0.77564129901E+03  0.00000000000E+00 0.  1.
         21   -1    0    0  502  503 -0.00000000000E+00 -0.00000000000E+00 -0.22566536099E+03  0.22566536099E+03  0.00000000000E+00 0.  1.
    9000007    1    1    2  501    0  0.33888400610E+02  0.81033139829E+02  0.17260046638E+03  0.44441615007E+03  0.40000000000E+03 0.  1.
   -9000007    1    1    2    0  503 -0.33888400610E+02 -0.81033139829E+02  0.37737547164E+03  0.55689050992E+03  0.40000000000E+03 0.  1.
<mgrwt>
<rscale>  2 0.40952997E+03</rscale>
<asrwt>0</asrwt>
<pdfrwt beam="1">  1       21 0.11932943E+00 0.40952997E+03</pdfrwt>
<pdfrwt beam="2">  1       21 0.34717748E-01 0.40952997E+03</pdfrwt>
<totfact> 0.37865710E+03</totfact>
</mgrwt>
</event>
<event>
 4    1  0.4758708E-002  0.6095729E+03  0.7818608E-02  0.9885742E-01
         21   -1    0    0  501  502  0.00000000000E+00  0.00000000000E+00  0.15055974997E+04  0.15055974997E+04  0.00000000000E+00 0.  1.
         21   -1    0    0  502  503 -0.00000000000E+00 -0.00000000000E+00 -0.25033053617E+03  0.25033053617E+03  0.00000000000E+00 0. -1.
    9000007    1    1    2  501    0 -0.14793898507E+03 -0.43553778165E+03  0.73192200979E+03  0.95251715521E+03  0.40000000000E+03 0. -1.
   -9000007    1    1    2    0  503  0.14793898507E+03  0.43553778165E+03  0.52334495372E+03  0.80341088064E+03  0.40000000000E+03 0.  1.
<mgrwt>
<rscale>  2 0.60957289E+03</rscale>
<asrwt>0</asrwt>
<pdfrwt beam="1">  1       21 0.23163038E+00 0.60957289E+03</pdfrwt>
<pdfrwt beam="2">  1       21 0.38512391E-01 0.60957289E+03</pdfrwt>
<totfact> 0.42172716E+02</totfact>
</mgrwt>
</event>
<event>
 4    1  0.4758708E-002  0.7210974E+03  0.7818608E-02  0.9681818E-01
         21   -1    0    0  503  502  0.00000000000E+00  0.00000000000E+00  0.54282870171E+03  0.54282870171E+03  0.00000000000E+00 0.  1.
         21   -1    0    0  501  503 -0.00000000000E+00 -0.00000000000E+00 -0.98695557124E+03  0.98695557124E+03  0.00000000000E+00 0. -1.
    9000007    1    1    2  501    0 -0.50127316626E+03 -0.32970693801E+03 -0.35327910456E+03  0.80298666110E+03  0.40000000000E+03 0.  1.
   -9000007    1    1    2    0  502  0.50127316626E+03  0.32970693801E+03 -0.90847764979E+02  0.72679761185E+03  0.40000000000E+03 0.  1.
<mgrwt>
<rscale>  2 0.72109739E+03</rscale>
<asrwt>0</asrwt>
<pdfrwt beam="1">  1       21 0.83512109E-01 0.72109739E+03</pdfrwt>
<pdfrwt beam="2">  1       21 0.15183932E+00 0.72109739E+03</pdfrwt>
<totfact> 0.26834775E+02</totfact>
</mgrwt>
</event>
<event>
 4    1  0.4758708E-002  0.4168174E+03  0.7818608E-02  0.1038107E+00
         21   -1    0    0  501  502  0.00000000000E+00  0.00000000000E+00  0.60912592008E+03  0.60912592008E+03  0.00000000000E+00 0.  1.
         21   -1    0    0  502  503 -0.00000000000E+00 -0.00000000000E+00 -0.46690097809E+03  0.46690097809E+03  0.00000000000E+00 0. -1.
    9000007    1    1    2  501    0 -0.98764856959E+02  0.63105025450E+02  0.40672011742E+03  0.58237272869E+03  0.40000000000E+03 0.  1.
   -9000007    1    1    2    0  503  0.98764856959E+02 -0.63105025450E+02 -0.26449517544E+03  0.49365416947E+03  0.40000000000E+03 0. -1.
<mgrwt>
<rscale>  2 0.41681740E+03</rscale>
<asrwt>0</asrwt>
<pdfrwt beam="1">  1       21 0.93711680E-01 0.41681740E+03</pdfrwt>
<pdfrwt beam="2">  1       21 0.71830920E-01 0.41681740E+03</pdfrwt>
<totfact> 0.14539756E+03</totfact>
</mgrwt>
</event>
<event>
 4    1  0.4758708E-002  0.5403440E+03  0.7818608E-02  0.1003754E+00
         21   -1    0    0  501  502  0.00000000000E+00  0.00000000000E+00  0.66348606416E+03  0.66348606416E+03  0.00000000000E+00 0.  1.
         21   -1    0    0  502  503 -0.00000000000E+00 -0.00000000000E+00 -0.44007747322E+03  0.44007747322E+03  0.00000000000E+00 0. -1.
    9000007    1    1    2  501    0 -0.33755766774E+03  0.13426282255E+03  0.10794043359E+03  0.55101980162E+03  0.40000000000E+03 0.  1.
   -9000007    1    1    2    0  503  0.33755766774E+03 -0.13426282255E+03  0.11546815734E+03  0.55254373576E+03  0.40000000000E+03 0. -1.
<mgrwt>
<rscale>  2 0.54034404E+03</rscale>
<asrwt>0</asrwt>
<pdfrwt beam="1">  1       21 0.10207478E+00 0.54034404E+03</pdfrwt>
<pdfrwt beam="2">  1       21 0.67704226E-01 0.54034404E+03</pdfrwt>
<totfact> 0.12902168E+03</totfact>
</mgrwt>
</event>
<event>
 4    1  0.4758708E-002  0.5105544E+03  0.7818608E-02  0.1011060E+00
         21   -1    0    0  503  502  0.00000000000E+00  0.00000000000E+00  0.26860563803E+03  0.26860563803E+03  0.00000000000E+00 0.  1.
         21   -1    0    0  501  503 -0.00000000000E+00 -0.00000000000E+00 -0.97971657231E+03  0.97971657231E+03  0.00000000000E+00 0.  1.
    9000007    1    1    2  501    0  0.31716089490E+03 -0.86489708547E+01 -0.29482252368E+03  0.58956438022E+03  0.40000000000E+03 0.  1.
   -9000007    1    1    2    0  502 -0.31716089490E+03  0.86489708547E+01 -0.41628841060E+03  0.65875783012E+03  0.40000000000E+03 0.  1.
<mgrwt>
<rscale>  2 0.51055444E+03</rscale>
<asrwt>0</asrwt>
<pdfrwt beam="1">  1       21 0.41323944E-01 0.51055444E+03</pdfrwt>
<pdfrwt beam="2">  1       21 0.15072563E+00 0.51055444E+03</pdfrwt>
<totfact> 0.13823592E+03</totfact>
</mgrwt>
</event>
<event>
 4    1  0.4758708E-002  0.4406092E+03  0.7818608E-02  0.1030560E+00
         21   -1    0    0  503  502  0.00000000000E+00  0.00000000000E+00  0.11545921149E+03  0.11545921149E+03  0.00000000000E+00 0. -1.
         21   -1    0    0  501  503 -0.00000000000E+00 -0.00000000000E+00 -0.32563476226E+04  0.32563476226E+04  0.00000000000E+00 0. -1.
    9000007    1    1    2  501    0  0.80857749108E+02 -0.16612802673E+03 -0.27428996118E+04  0.27780631342E+04  0.40000000000E+03 0. -1.
   -9000007    1    1    2    0  502 -0.80857749108E+02  0.16612802673E+03 -0.39798879934E+03  0.59374369997E+03  0.40000000000E+03 0. -1.
<mgrwt>
<rscale>  2 0.44060923E+03</rscale>
<asrwt>0</asrwt>
<pdfrwt beam="1">  1       21 0.17762956E-01 0.44060923E+03</pdfrwt>
<pdfrwt beam="2">  1       21 0.50097656E+00 0.44060923E+03</pdfrwt>
<totfact> 0.39835531E+01</totfact>
</mgrwt>
</event>
<event>
 4    1  0.4758708E-002  0.4151113E+03  0.7818608E-02  0.1038669E+00
         21   -1    0    0  501  502  0.00000000000E+00  0.00000000000E+00  0.51582388319E+03  0.51582388319E+03  0.00000000000E+00 0.  1.
         21   -1    0    0  502  503 -0.00000000000E+00 -0.00000000000E+00 -0.50683182181E+03  0.50683182181E+03  0.00000000000E+00 0.  1.
    9000007    1    1    2  501    0  0.14327040190E+02  0.11005512204E+03  0.30303489776E+03  0.51395286090E+03  0.40000000000E+03 0.  1.
   -9000007    1    1    2    0  503 -0.14327040190E+02 -0.11005512204E+03 -0.29404283638E+03  0.50870284410E+03  0.40000000000E+03 0.  1.
<mgrwt>
<rscale>  2 0.41511130E+03</rscale>
<asrwt>0</asrwt>
<pdfrwt beam="1">  1       21 0.79357521E-01 0.41511130E+03</pdfrwt>
<pdfrwt beam="2">  1       21 0.77974126E-01 0.41511130E+03</pdfrwt>
<totfact> 0.17819716E+03</totfact>
</mgrwt>
</event>
<event>
 4    1  0.4758708E-002  0.4340711E+03  0.7818608E-02  0.1032582E+00
         21   -1    0    0  501  502  0.00000000000E+00  0.00000000000E+00  0.45069477099E+03  0.45069477099E+03  0.00000000000E+00 0.  1.
         21   -1    0    0  502  503 -0.00000000000E+00 -0.00000000000E+00 -0.42151888792E+03  0.42151888792E+03  0.00000000000E+00 0.  1.
    9000007    1    1    2  501    0 -0.96341417261E+02  0.13833304630E+03  0.54089894158E+02  0.43742818500E+03  0.40000000000E+03 0.  1.
   -9000007    1    1    2    0  503  0.96341417261E+02 -0.13833304630E+03 -0.24914011086E+02  0.43478547391E+03  0.40000000000E+03 0.  1.
<mgrwt>
<rscale>  2 0.43407108E+03</rscale>
<asrwt>0</asrwt>
<pdfrwt beam="1">  1       21 0.69337657E-01 0.43407108E+03</pdfrwt>
<pdfrwt beam="2">  1       21 0.64849060E-01 0.43407108E+03</pdfrwt>
<totfact> 0.36441580E+03</totfact>
</mgrwt>
</event>
<event>
 4    1  0.4758708E-002  0.4311247E+03  0.7818608E-02  0.1033505E+00
         21   -1    0    0  503  502  0.00000000000E+00  0.00000000000E+00  0.22058436137E+04  0.22058436137E+04  0.00000000000E+00 0. -1.
         21   -1    0    0  501  503 -0.00000000000E+00 -0.00000000000E+00 -0.21480387205E+03  0.21480387205E+03  0.00000000000E+00 0. -1.
    9000007    1    1    2  501    0  0.13227370173E+03  0.91499774038E+02  0.51990096053E+02  0.43424821347E+03  0.40000000000E+03 0. -1.
   -9000007    1    1    2    0  502 -0.13227370173E+03 -0.91499774038E+02  0.19390496456E+04  0.19863992723E+04  0.40000000000E+03 0. -1.
<mgrwt>
<rscale>  2 0.43112474E+03</rscale>
<asrwt>0</asrwt>
<pdfrwt beam="1">  1       21 0.33936054E+00 0.43112474E+03</pdfrwt>
<pdfrwt beam="2">  1       21 0.33046751E-01 0.43112474E+03</pdfrwt>
<totfact> 0.13853617E+02</totfact>
</mgrwt>
</event>
<event>
 4    1  0.4758708E-002  0.4040015E+03  0.7818608E-02  0.1042403E+00
         21   -1    0    0  501  502  0.00000000000E+00  0.00000000000E+00  0.15902270293E+04  0.15902270293E+04  0.00000000000E+00 0.  1.
         21   -1    0    0  502  503 -0.00000000000E+00 -0.00000000000E+00 -0.14374206048E+03  0.14374206048E+03  0.00000000000E+00 0.  1.
    9000007    1    1    2  501    0  0.24250597978E+02 -0.51275030604E+02  0.11868638608E+04  0.12537396238E+04  0.40000000000E+03 0.  1.
   -9000007    1    1    2    0  503 -0.24250597978E+02  0.51275030604E+02  0.25962110805E+03  0.48022946600E+03  0.40000000000E+03 0.  1.
<mgrwt>
<rscale>  2 0.40400151E+03</rscale>
<asrwt>0</asrwt>
<pdfrwt beam="1">  1       21 0.24465030E+00 0.40400151E+03</pdfrwt>
<pdfrwt beam="2">  1       21 0.22114164E-01 0.40400151E+03</pdfrwt>
<totfact> 0.11541879E+03</totfact>
</mgrwt>
</event>
<event>
 4    1  0.4758708E-002  0.5118039E+03  0.7818608E-02  0.1010743E+00
         21   -1    0    0  501  502  0.00000000000E+00  0.00000000000E+00  0.26476515955E+04  0.26476515955E+04  0.00000000000E+00 0.  1.
         21   -1    0    0  502  503 -0.00000000000E+00 -0.00000000000E+00 -0.54590933322E+03  0.54590933322E+03  0.00000000000E+00 0.  1.
    9000007    1    1    2  501    0 -0.11087658615E+03 -0.29941549822E+03  0.24957340272E+04  0.25476717984E+04  0.40000000000E+03 0.  1.
   -9000007    1    1    2    0  503  0.11087658615E+03  0.29941549822E+03 -0.39399176486E+03  0.64588913035E+03  0.40000000000E+03 0.  1.
<mgrwt>
<rscale>  2 0.51180393E+03</rscale>
<asrwt>0</asrwt>
<pdfrwt beam="1">  1       21 0.40733101E+00 0.51180393E+03</pdfrwt>
<pdfrwt beam="2">  1       21 0.83986053E-01 0.51180393E+03</pdfrwt>
<totfact> 0.65621827E+00</totfact>
</mgrwt>
</event>
<event>
 4    1  0.4758708E-002  0.4106464E+03  0.7818608E-02  0.1040154E+00
         21   -1    0    0  503  502  0.00000000000E+00  0.00000000000E+00  0.12302472447E+04  0.12302472447E+04  0.00000000000E+00 0.  1.
         21   -1    0    0  501  503 -0.00000000000E+00 -0.00000000000E+00 -0.14015018751E+03  0.14015018751E+03  0.00000000000E+00 0.  1.
    9000007    1    1    2  501    0 -0.82059817605E+02  0.43550959645E+02  0.44347534738E+03  0.60440126033E+03  0.40000000000E+03 0.  1.
   -9000007    1    1    2    0  502  0.82059817605E+02 -0.43550959645E+02  0.64662170983E+03  0.76599617191E+03  0.40000000000E+03 0.  1.
<mgrwt>
<rscale>  2 0.41064644E+03</rscale>
<asrwt>0</asrwt>
<pdfrwt beam="1">  1       21 0.18926880E+00 0.41064644E+03</pdfrwt>
<pdfrwt beam="2">  1       21 0.21561568E-01 0.41064644E+03</pdfrwt>
<totfact> 0.27420337E+03</totfact>
</mgrwt>
</event>
<event>
 4    1  0.4758708E-002  0.4306235E+03  0.7818608E-02  0.1033663E+00
         21   -1    0    0  503  502  0.00000000000E+00  0.00000000000E+00  0.51228187815E+03  0.51228187815E+03  0.00000000000E+00 0. -1.
         21   -1    0    0  501  503 -0.00000000000E+00 -0.00000000000E+00 -0.36251960286E+03  0.36251960286E+03  0.00000000000E+00 0. -1.
    9000007    1    1    2  501    0 -0.59311051913E+01  0.15937827819E+03  0.58030888587E+02  0.43451604987E+03  0.40000000000E+03 0. -1.
   -9000007    1    1    2    0  502  0.59311051913E+01 -0.15937827819E+03  0.91731386708E+02  0.44028543114E+03  0.40000000000E+03 0. -1.
<mgrwt>
<rscale>  2 0.43062352E+03</rscale>
<asrwt>0</asrwt>
<pdfrwt beam="1">  1       21 0.78812597E-01 0.43062352E+03</pdfrwt>
<pdfrwt beam="2">  1       21 0.55772246E-01 0.43062352E+03</pdfrwt>
<totfact> 0.37944109E+03</totfact>
</mgrwt>
</event>
<event>
 4    1  0.4758708E-002  0.5518571E+03  0.7818608E-02  0.1001065E+00
         21   -1    0    0  501  502  0.00000000000E+00  0.00000000000E+00  0.27503537366E+03  0.27503537366E+03  0.00000000000E+00 0. -1.
         21   -1    0    0  502  503 -0.00000000000E+00 -0.00000000000E+00 -0.18992503218E+04  0.18992503218E+04  0.00000000000E+00 0.  1.
    9000007    1    1    2  501    0 -0.37498581165E+03 -0.62705096273E+02 -0.11009495258E+03  0.56273189586E+03  0.40000000000E+03 0. -1.
   -9000007    1    1    2    0  503  0.37498581165E+03  0.62705096273E+02 -0.15141199955E+04  0.16115537996E+04  0.40000000000E+03 0.  1.
<mgrwt>
<rscale>  2 0.55185713E+03</rscale>
<asrwt>0</asrwt>
<pdfrwt beam="1">  1       21 0.42313133E-01 0.55185713E+03</pdfrwt>
<pdfrwt beam="2">  1       21 0.29219236E+00 0.55185713E+03</pdfrwt>
<totfact> 0.15039661E+02</totfact>
</mgrwt>
</event>
<event>
 4    1  0.4758708E-002  0.5782644E+03  0.7818608E-02  0.9951556E-01
         21   -1    0    0  501  502  0.00000000000E+00  0.00000000000E+00  0.16132643978E+04  0.16132643978E+04  0.00000000000E+00 0.  1.
         21   -1    0    0  502  503 -0.00000000000E+00 -0.00000000000E+00 -0.63163699538E+03  0.63163699538E+03  0.00000000000E+00 0.  1.
    9000007    1    1    2  501    0  0.35282869812E+03 -0.22338681650E+03  0.14108429082E+04  0.15247516098E+04  0.40000000000E+03 0.  1.
   -9000007    1    1    2    0  503 -0.35282869812E+03  0.22338681650E+03 -0.42921550581E+03  0.72014978333E+03  0.40000000000E+03 0.  1.
<mgrwt>
<rscale>  2 0.57826444E+03</rscale>
<asrwt>0</asrwt>
<pdfrwt beam="1">  1       21 0.24819452E+00 0.57826444E+03</pdfrwt>
<pdfrwt beam="2">  1       21 0.97174923E-01 0.57826444E+03</pdfrwt>
<totfact> 0.42998472E+01</totfact>
</mgrwt>
</event>
<event>
 4    1  0.4758708E-002  0.4364016E+03  0.7818608E-02  0.1031857E+00
         21   -1    0    0  501  502  0.00000000000E+00  0.00000000000E+00  0.39314037145E+03  0.39314037145E+03  0.00000000000E+00 0.  1.
         21   -1    0    0  502  503 -0.00000000000E+00 -0.00000000000E+00 -0.51287266868E+03  0.51287266868E+03  0.00000000000E+00 0. -1.
    9000007    1    1    2  501    0  0.15069621338E+03  0.87960080314E+02 -0.16655931546E+03  0.46710633695E+03  0.40000000000E+03 0. -1.
   -9000007    1    1    2    0  503 -0.15069621338E+03 -0.87960080314E+02  0.46827018218E+02  0.43890670318E+03  0.40000000000E+03 0.  1.
<mgrwt>
<rscale>  2 0.43640156E+03</rscale>
<asrwt>0</asrwt>
<pdfrwt beam="1">  1       21 0.60483134E-01 0.43640156E+03</pdfrwt>
<pdfrwt beam="2">  1       21 0.78903487E-01 0.43640156E+03</pdfrwt>
<totfact> 0.31652325E+03</totfact>
</mgrwt>
</event>
<event>
 4    1  0.4758708E-002  0.4091081E+03  0.7818608E-02  0.1040671E+00
         21   -1    0    0  503  502  0.00000000000E+00  0.00000000000E+00  0.14921903454E+03  0.14921903454E+03  0.00000000000E+00 0. -1.
         21   -1    0    0  501  503 -0.00000000000E+00 -0.00000000000E+00 -0.11916125601E+04  0.11916125601E+04  0.00000000000E+00 0. -1.
    9000007    1    1    2  501    0 -0.61864290946E+02  0.59516448323E+02 -0.35873397904E+03  0.54411346779E+03  0.40000000000E+03 0. -1.
   -9000007    1    1    2    0  502  0.61864290946E+02 -0.59516448323E+02 -0.68365954656E+03  0.79671812690E+03  0.40000000000E+03 0. -1.
<mgrwt>
<rscale>  2 0.40910805E+03</rscale>
<asrwt>0</asrwt>
<pdfrwt beam="1">  1       21 0.22956774E-01 0.40910805E+03</pdfrwt>
<pdfrwt beam="2">  1       21 0.18332501E+00 0.40910805E+03</pdfrwt>
<totfact> 0.26732133E+03</totfact>
</mgrwt>
</event>
<event>
 4    1  0.4758708E-002  0.4409055E+03  0.7818608E-02  0.1030469E+00
         21   -1    0    0  501  502  0.00000000000E+00  0.00000000000E+00  0.20554738699E+04  0.20554738699E+04  0.00000000000E+00 0.  1.
         21   -1    0    0  502  503 -0.00000000000E+00 -0.00000000000E+00 -0.19626005808E+03  0.19626005808E+03  0.00000000000E+00 0.  1.
    9000007    1    1    2  501    0  0.15250396962E+03  0.10554705966E+03  0.17400050483E+04  0.17949972732E+04  0.40000000000E+03 0.  1.
   -9000007    1    1    2    0  503 -0.15250396962E+03 -0.10554705966E+03  0.11920876350E+03  0.45673665481E+03  0.40000000000E+03 0.  1.
<mgrwt>
<rscale>  2 0.44090548E+03</rscale>
<asrwt>0</asrwt>
<pdfrwt beam="1">  1       21 0.31622673E+00 0.44090548E+03</pdfrwt>
<pdfrwt beam="2">  1       21 0.30193857E-01 0.44090548E+03</pdfrwt>
<totfact> 0.22753171E+02</totfact>
</mgrwt>
</event>
<event>
 4    1  0.4758708E-002  0.4002044E+03  0.7818608E-02  0.1043709E+00
         21   -1    0    0  501  502  0.00000000000E+00  0.00000000000E+00  0.35863366693E+03  0.35863366693E+03  0.00000000000E+00 0.  1.
         21   -1    0    0  502  503 -0.00000000000E+00 -0.00000000000E+00 -0.13774726131E+04  0.13774726131E+04  0.00000000000E+00 0.  1.
    9000007    1    1    2  501    0 -0.11650400453E+02  0.52765203860E+01  0.20417486894E+03  0.44927825521E+03  0.40000000000E+03 0.  1.
   -9000007    1    1    2    0  503  0.11650400453E+02 -0.52765203860E+01 -0.12230138151E+04  0.12868280248E+04  0.40000000000E+03 0.  1.
<mgrwt>
<rscale>  2 0.40020441E+03</rscale>
<asrwt>0</asrwt>
<pdfrwt beam="1">  1       21 0.55174410E-01 0.40020441E+03</pdfrwt>
<pdfrwt beam="2">  1       21 0.21191887E+00 0.40020441E+03</pdfrwt>
<totfact> 0.29180905E+02</totfact>
</mgrwt>
</event>
<event>
 4    1  0.4758708E-002  0.5382804E+03  0.7818608E-02  0.1004244E+00
         21   -1    0    0  501  502  0.00000000000E+00  0.00000000000E+00  0.13678861935E+04  0.13678861935E+04  0.00000000000E+00 0.  1.
         21   -1    0    0  502  503 -0.00000000000E+00 -0.00000000000E+00 -0.23575789803E+03  0.23575789803E+03  0.00000000000E+00 0. -1.
    9000007    1    1    2  501    0  0.27971826138E+02  0.35911472360E+03  0.82156176290E+03  0.98219628284E+03  0.40000000000E+03 0.  1.
   -9000007    1    1    2    0  503 -0.27971826138E+02 -0.35911472360E+03  0.31056653256E+03  0.62144780868E+03  0.40000000000E+03 0. -1.
<mgrwt>
<rscale>  2 0.53828042E+03</rscale>
<asrwt>0</asrwt>
<pdfrwt beam="1">  1       21 0.21044402E+00 0.53828042E+03</pdfrwt>
<pdfrwt beam="2">  1       21 0.36270447E-01 0.53828042E+03</pdfrwt>
<totfact> 0.67180899E+02</totfact>
</mgrwt>
</event>
<event>
 4    1  0.4758708E-002  0.4177672E+03  0.7818608E-02  0.1037795E+00
         21   -1    0    0  501  502  0.00000000000E+00  0.00000000000E+00  0.14402109974E+04  0.14402109974E+04  0.00000000000E+00 0.  1.
         21   -1    0    0  502  503 -0.00000000000E+00 -0.00000000000E+00 -0.19030241368E+03  0.19030241368E+03  0.00000000000E+00 0. -1.
    9000007    1    1    2  501    0  0.11973072342E+03 -0.13927001758E+02  0.11162823430E+04  0.11918958331E+04  0.40000000000E+03 0.  1.
   -9000007    1    1    2    0  503 -0.11973072342E+03  0.13927001758E+02  0.13362624063E+03  0.43861757796E+03  0.40000000000E+03 0. -1.
<mgrwt>
<rscale>  2 0.41776717E+03</rscale>
<asrwt>0</asrwt>
<pdfrwt beam="1">  1       21 0.22157092E+00 0.41776717E+03</pdfrwt>
<pdfrwt beam="2">  1       21 0.29277295E-01 0.41776717E+03</pdfrwt>
<totfact> 0.92455233E+02</totfact>
</mgrwt>
</event>
<event>
 4    1  0.4758708E-002  0.4819087E+03  0.7818608E-02  0.1018612E+00
         21   -1    0    0  503  502  0.00000000000E+00  0.00000000000E+00  0.31509811218E+03  0.31509811218E+03  0.00000000000E+00 0. -1.
         21   -1    0    0  501  503 -0.00000000000E+00 -0.00000000000E+00 -0.75601121779E+03  0.75601121779E+03  0.00000000000E+00 0.  1.
    9000007    1    1    2  501    0 -0.23910152221E+03 -0.12274565377E+03 -0.30532146357E+03  0.57048858846E+03  0.40000000000E+03 0.  1.
   -9000007    1    1    2    0  502  0.23910152221E+03  0.12274565377E+03 -0.13559164204E+03  0.50062074152E+03  0.40000000000E+03 0. -1.
<mgrwt>
<rscale>  2 0.48190874E+03</rscale>
<asrwt>0</asrwt>
<pdfrwt beam="1">  1       21 0.48476633E-01 0.48190874E+03</pdfrwt>
<pdfrwt beam="2">  1       21 0.11630942E+00 0.48190874E+03</pdfrwt>
<totfact> 0.19717689E+03</totfact>
</mgrwt>
</event>
<event>
 4    1  0.4758708E-002  0.4589462E+03  0.7818608E-02  0.1025087E+00
         21   -1    0    0  503  502  0.00000000000E+00  0.00000000000E+00  0.31199199660E+03  0.31199199660E+03  0.00000000000E+00 0. -1.
         21   -1    0    0  501  503 -0.00000000000E+00 -0.00000000000E+00 -0.67544232762E+03  0.67544232762E+03  0.00000000000E+00 0. -1.
    9000007    1    1    2  501    0  0.13907094896E+03 -0.17689234026E+03 -0.17091800142E+03  0.48973931034E+03  0.40000000000E+03 0. -1.
   -9000007    1    1    2    0  502 -0.13907094896E+03  0.17689234026E+03 -0.19253232961E+03  0.49769501387E+03  0.40000000000E+03 0. -1.
<mgrwt>
<rscale>  2 0.45894622E+03</rscale>
<asrwt>0</asrwt>
<pdfrwt beam="1">  1       21 0.47998769E-01 0.45894622E+03</pdfrwt>
<pdfrwt beam="2">  1       21 0.10391420E+00 0.45894622E+03</pdfrwt>
<totfact> 0.26861079E+03</totfact>
</mgrwt>
</event>
<event>
 4    1  0.4758708E-002  0.4592036E+03  0.7818608E-02  0.1025012E+00
         21   -1    0    0  503  502  0.00000000000E+00  0.00000000000E+00  0.16776234250E+04  0.16776234250E+04  0.00000000000E+00 0.  1.
         21   -1    0    0  501  503 -0.00000000000E+00 -0.00000000000E+00 -0.14158349944E+03  0.14158349944E+03  0.00000000000E+00 0.  1.
    9000007    1    1    2  501    0 -0.42328512059E+02  0.22153155023E+03  0.46330419382E+03  0.65231794908E+03  0.40000000000E+03 0.  1.
   -9000007    1    1    2    0  502  0.42328512059E+02 -0.22153155023E+03  0.10727357317E+04  0.11668889754E+04  0.40000000000E+03 0.  1.
<mgrwt>
<rscale>  2 0.45920358E+03</rscale>
<asrwt>0</asrwt>
<pdfrwt beam="1">  1       21 0.25809590E+00 0.45920358E+03</pdfrwt>
<pdfrwt beam="2">  1       21 0.21782078E-01 0.45920358E+03</pdfrwt>
<totfact> 0.95527272E+02</totfact>
</mgrwt>
</event>
<event>
 4    1  0.4758708E-002  0.4304920E+03  0.7818608E-02  0.1033705E+00
         21   -1    0    0  503  502  0.00000000000E+00  0.00000000000E+00  0.14143953661E+04  0.14143953661E+04  0.00000000000E+00 0. -1.
         21   -1    0    0  501  503 -0.00000000000E+00 -0.00000000000E+00 -0.15949324001E+03  0.15949324001E+03  0.00000000000E+00 0.  1.
    9000007    1    1    2  501    0 -0.88596059215E+02 -0.13218972350E+03  0.29498974050E+03  0.52186428476E+03  0.40000000000E+03 0.  1.
   -9000007    1    1    2    0  502  0.88596059215E+02  0.13218972350E+03  0.95991238561E+03  0.10520243214E+04  0.40000000000E+03 0. -1.
<mgrwt>
<rscale>  2 0.43049203E+03</rscale>
<asrwt>0</asrwt>
<pdfrwt beam="1">  1       21 0.21759928E+00 0.43049203E+03</pdfrwt>
<pdfrwt beam="2">  1       21 0.24537422E-01 0.43049203E+03</pdfrwt>
<totfact> 0.13765748E+03</totfact>
</mgrwt>
</event>
<event>
 4    1  0.4758708E-002  0.4462324E+03  0.7818608E-02  0.1028852E+00
         21   -1    0    0  503  502  0.00000000000E+00  0.00000000000E+00  0.78092279869E+02  0.78092279869E+02  0.00000000000E+00 0.  1.
         21   -1    0    0  501  503 -0.00000000000E+00 -0.00000000000E+00 -0.26073677650E+04  0.26073677650E+04  0.00000000000E+00 0.  1.
    9000007    1    1    2  501    0  0.30273683114E+02  0.19546570959E+03 -0.14640726330E+04  0.15305659130E+04  0.40000000000E+03 0.  1.
   -9000007    1    1    2    0  502 -0.30273683114E+02 -0.19546570959E+03 -0.10652028522E+04  0.11548941319E+04  0.40000000000E+03 0.  1.
<mgrwt>
<rscale>  2 0.44623238E+03</rscale>
<asrwt>0</asrwt>
<pdfrwt beam="1">  1       21 0.12014196E-01 0.44623238E+03</pdfrwt>
<pdfrwt beam="2">  1       21 0.40113354E+00 0.44623238E+03</pdfrwt>
<totfact> 0.38853960E+02</totfact>
</mgrwt>
</event>
<event>
 4    1  0.4758708E-002  0.5636134E+03  0.7818608E-02  0.9983912E-01
         21   -1    0    0  501  502  0.00000000000E+00  0.00000000000E+00  0.69174365724E+03  0.69174365724E+03  0.00000000000E+00 0.  1.
         21   -1    0    0  502  503 -0.00000000000E+00 -0.00000000000E+00 -0.63124566252E+03  0.63124566252E+03  0.00000000000E+00 0. -1.
    9000007    1    1    2  501    0 -0.20279568675E+03  0.34137066794E+03  0.37557423423E+03  0.67728578083E+03  0.40000000000E+03 0.  1.
   -9000007    1    1    2    0  503  0.20279568675E+03 -0.34137066794E+03 -0.31507623951E+03  0.64570353893E+03  0.40000000000E+03 0. -1.
<mgrwt>
<rscale>  2 0.56361336E+03</rscale>
<asrwt>0</asrwt>
<pdfrwt beam="1">  1       21 0.10642210E+00 0.56361336E+03</pdfrwt>
<pdfrwt beam="2">  1       21 0.97114717E-01 0.56361336E+03</pdfrwt>
<totfact> 0.49811325E+02</totfact>
</mgrwt>
</event>
<event>
 4    1  0.4758708E-002  0.5689021E+03  0.7818608E-02  0.9972111E-01
         21   -1    0    0  503  502  0.00000000000E+00  0.00000000000E+00  0.49525217872E+03  0.49525217872E+03  0.00000000000E+00 0. -1.
         21   -1    0    0  501  503 -0.00000000000E+00 -0.00000000000E+00 -0.65404526786E+03  0.65404526786E+03  0.00000000000E+00 0.  1.
    9000007    1    1    2  501    0 -0.20476267780E+03  0.34888662867E+03 -0.62876255428E+02  0.57236619168E+03  0.40000000000E+03 0.  1.
   -9000007    1    1    2    0  502  0.20476267780E+03 -0.34888662867E+03 -0.95916833719E+02  0.57693125490E+03  0.40000000000E+03 0. -1.
<mgrwt>
<rscale>  2 0.56890213E+03</rscale>
<asrwt>0</asrwt>
<pdfrwt beam="1">  1       21 0.76192643E-01 0.56890213E+03</pdfrwt>
<pdfrwt beam="2">  1       21 0.10062235E+00 0.56890213E+03</pdfrwt>
<totfact> 0.10122642E+03</totfact>
</mgrwt>
</event>
<event>
 4    1  0.4758708E-002  0.5675384E+03  0.7818608E-02  0.9975141E-01
         21   -1    0    0  503  502  0.00000000000E+00  0.00000000000E+00  0.18031610105E+04  0.18031610105E+04  0.00000000000E+00 0.  1.
         21   -1    0    0  501  503 -0.00000000000E+00 -0.00000000000E+00 -0.28231519605E+03  0.28231519605E+03  0.00000000000E+00 0. -1.
    9000007    1    1    2  501    0  0.31495796109E+03 -0.25080125161E+03  0.12849843304E+03  0.58190345621E+03  0.40000000000E+03 0. -1.
   -9000007    1    1    2    0  502 -0.31495796109E+03  0.25080125161E+03  0.13923473814E+04  0.15035727504E+04  0.40000000000E+03 0.  1.
<mgrwt>
<rscale>  2 0.56753836E+03</rscale>
<asrwt>0</asrwt>
<pdfrwt beam="1">  1       21 0.27740938E+00 0.56753836E+03</pdfrwt>
<pdfrwt beam="2">  1       21 0.43433108E-01 0.56753836E+03</pdfrwt>
<totfact> 0.17383424E+02</totfact>
</mgrwt>
</event>
<event>
 4    1  0.4758708E-002  0.4141109E+03  0.7818608E-02  0.1039000E+00
         21   -1    0    0  501  502  0.00000000000E+00  0.00000000000E+00  0.21815579177E+03  0.21815579177E+03  0.00000000000E+00 0. -1.
         21   -1    0    0  502  503 -0.00000000000E+00 -0.00000000000E+00 -0.13194591229E+04  0.13194591229E+04  0.00000000000E+00 0.  1.
    9000007    1    1    2  501    0 -0.10697689968E+03 -0.66183267355E+01 -0.61844337076E+02  0.41870345275E+03  0.40000000000E+03 0. -1.
   -9000007    1    1    2    0  503  0.10697689968E+03  0.66183267355E+01 -0.10394589941E+04  0.11189114620E+04  0.40000000000E+03 0.  1.
<mgrwt>
<rscale>  2 0.41411093E+03</rscale>
<asrwt>0</asrwt>
<pdfrwt beam="1">  1       21 0.33562429E-01 0.41411093E+03</pdfrwt>
<pdfrwt beam="2">  1       21 0.20299371E+00 0.41411093E+03</pdfrwt>
<totfact> 0.93039513E+02</totfact>
</mgrwt>
</event>
<event>
 4    1  0.4758708E-002  0.4344556E+03  0.7818608E-02  0.1032462E+00
         21   -1    0    0  503  502  0.00000000000E+00  0.00000000000E+00  0.16359258299E+04  0.16359258299E+04  0.00000000000E+00 0. -1.
         21   -1    0    0  501  503 -0.00000000000E+00 -0.00000000000E+00 -0.11757937198E+03  0.11757937198E+03  0.00000000000E+00 0.  1.
    9000007    1    1    2  501    0 -0.66376377434E+02  0.15603160014E+03  0.87910869857E+03  0.98060378728E+03  0.40000000000E+03 0. -1.
   -9000007    1    1    2    0  502  0.66376377434E+02 -0.15603160014E+03  0.63923775937E+03  0.77290141463E+03  0.40000000000E+03 0. -1.
<mgrwt>
<rscale>  2 0.43445562E+03</rscale>
<asrwt>0</asrwt>
<pdfrwt beam="1">  1       21 0.25168088E+00 0.43445562E+03</pdfrwt>
<pdfrwt beam="2">  1       21 0.18089135E-01 0.43445562E+03</pdfrwt>
<totfact> 0.15070541E+03</totfact>
</mgrwt>
</event>
<event>
 4    1  0.4758708E-002  0.5214727E+03  0.7818608E-02  0.1008321E+00
         21   -1    0    0  503  502  0.00000000000E+00  0.00000000000E+00  0.73536812632E+03  0.73536812632E+03  0.00000000000E+00 0.  1.
         21   -1    0    0  501  503 -0.00000000000E+00 -0.00000000000E+00 -0.37749974148E+03  0.37749974148E+03  0.00000000000E+00 0.  1.
    9000007    1    1    2  501    0 -0.33032390032E+03  0.53102432455E+02  0.99428212314E+02  0.53086694836E+03  0.40000000000E+03 0.  1.
   -9000007    1    1    2    0  502  0.33032390032E+03 -0.53102432455E+02  0.25844017253E+03  0.58200091944E+03  0.40000000000E+03 0.  1.
<mgrwt>
<rscale>  2 0.52147267E+03</rscale>
<asrwt>0</asrwt>
<pdfrwt beam="1">  1       21 0.11313356E+00 0.52147267E+03</pdfrwt>
<pdfrwt beam="2">  1       21 0.58076883E-01 0.52147267E+03</pdfrwt>
<totfact> 0.14130876E+03</totfact>
</mgrwt>
</event>
<event>
 4    1  0.4758708E-002  0.4284810E+03  0.7818608E-02  0.1034341E+00
         21   -1    0    0  501  502  0.00000000000E+00  0.00000000000E+00  0.14442129174E+03  0.14442129174E+03  0.00000000000E+00 0.  1.
         21   -1    0    0  502  503 -0.00000000000E+00 -0.00000000000E+00 -0.12856125313E+04  0.12856125313E+04  0.00000000000E+00 0.  1.
    9000007    1    1    2  501    0  0.82573516547E+02  0.12952833159E+03 -0.49502828116E+03  0.65471289392E+03  0.40000000000E+03 0.  1.
   -9000007    1    1    2    0  503 -0.82573516547E+02 -0.12952833159E+03 -0.64616295840E+03  0.77532092912E+03  0.40000000000E+03 0.  1.
<mgrwt>
<rscale>  2 0.42848101E+03</rscale>
<asrwt>0</asrwt>
<pdfrwt beam="1">  1       21 0.22218660E-01 0.42848101E+03</pdfrwt>
<pdfrwt beam="2">  1       21 0.19778655E+00 0.42848101E+03</pdfrwt>
<totfact> 0.22494315E+03</totfact>
</mgrwt>
</event>
<event>
 4    1  0.4758708E-002  0.5093488E+03  0.7818608E-02  0.1011367E+00
         21   -1    0    0  503  502  0.00000000000E+00  0.00000000000E+00  0.49000516405E+03  0.49000516405E+03  0.00000000000E+00 0. -1.
         21   -1    0    0  501  503 -0.00000000000E+00 -0.00000000000E+00 -0.53523224609E+03  0.53523224609E+03  0.00000000000E+00 0. -1.
    9000007    1    1    2  501    0 -0.91379784969E+02 -0.30180445642E+03  0.30639517481E+02  0.51026951217E+03  0.40000000000E+03 0. -1.
   -9000007    1    1    2    0  502  0.91379784969E+02  0.30180445642E+03 -0.75866599527E+02  0.51496789797E+03  0.40000000000E+03 0. -1.
<mgrwt>
<rscale>  2 0.50934880E+03</rscale>
<asrwt>0</asrwt>
<pdfrwt beam="1">  1       21 0.75385410E-01 0.50934880E+03</pdfrwt>
<pdfrwt beam="2">  1       21 0.82343422E-01 0.50934880E+03</pdfrwt>
<totfact> 0.17065501E+03</totfact>
</mgrwt>
</event>
<event>
 4    1  0.4758708E-002  0.4961790E+03  0.7818608E-02  0.1014781E+00
         21   -1    0    0  501  502  0.00000000000E+00  0.00000000000E+00  0.18171994811E+04  0.18171994811E+04  0.00000000000E+00 0. -1.
         21   -1    0    0  502  503 -0.00000000000E+00 -0.00000000000E+00 -0.18465837115E+03  0.18465837115E+03  0.00000000000E+00 0. -1.
    9000007    1    1    2  501    0 -0.29144431667E+03 -0.35408692389E+02  0.13328145509E+04  0.14221772717E+04  0.40000000000E+03 0. -1.
   -9000007    1    1    2    0  503  0.29144431667E+03  0.35408692389E+02  0.29972655910E+03  0.57968058053E+03  0.40000000000E+03 0. -1.
<mgrwt>
<rscale>  2 0.49617896E+03</rscale>
<asrwt>0</asrwt>
<pdfrwt beam="1">  1       21 0.27956914E+00 0.49617896E+03</pdfrwt>
<pdfrwt beam="2">  1       21 0.28408981E-01 0.49617896E+03</pdfrwt>
<totfact> 0.41381896E+02</totfact>
</mgrwt>
</event>
<event>
 4    1  0.4758708E-002  0.5488398E+03  0.7818608E-02  0.1001763E+00
         21   -1    0    0  501  502  0.00000000000E+00  0.00000000000E+00  0.12249739260E+04  0.12249739260E+04  0.00000000000E+00 0.  1.
         21   -1    0    0  502  503 -0.00000000000E+00 -0.00000000000E+00 -0.24592245531E+03  0.24592245531E+03  0.00000000000E+00 0.  1.
    9000007    1    1    2  501    0  0.75183483621E+02 -0.36820179751E+03  0.49601803447E+03  0.73976956575E+03  0.40000000000E+03 0.  1.
   -9000007    1    1    2    0  503 -0.75183483621E+02  0.36820179751E+03  0.48303343619E+03  0.73112681553E+03  0.40000000000E+03 0.  1.
<mgrwt>
<rscale>  2 0.54883979E+03</rscale>
<asrwt>0</asrwt>
<pdfrwt beam="1">  1       21 0.18845752E+00 0.54883979E+03</pdfrwt>
<pdfrwt beam="2">  1       21 0.37834225E-01 0.54883979E+03</pdfrwt>
<totfact> 0.86303334E+02</totfact>
</mgrwt>
</event>
<event>
 4    1  0.4758708E-002  0.4369891E+03  0.7818608E-02  0.1031675E+00
         21   -1    0    0  503  502  0.00000000000E+00  0.00000000000E+00  0.37141483785E+03  0.37141483785E+03  0.00000000000E+00 0. -1.
         21   -1    0    0  501  503 -0.00000000000E+00 -0.00000000000E+00 -0.57597235028E+03  0.57597235028E+03  0.00000000000E+00 0. -1.
    9000007    1    1    2  501    0 -0.11835649455E+03  0.13019692308E+03 -0.25748242454E+03  0.50720478855E+03  0.40000000000E+03 0. -1.
   -9000007    1    1    2    0  502  0.11835649455E+03 -0.13019692308E+03  0.52924912110E+02  0.44018239958E+03  0.40000000000E+03 0. -1.
<mgrwt>
<rscale>  2 0.43698913E+03</rscale>
<asrwt>0</asrwt>
<pdfrwt beam="1">  1       21 0.57140745E-01 0.43698913E+03</pdfrwt>
<pdfrwt beam="2">  1       21 0.88611130E-01 0.43698913E+03</pdfrwt>
<totfact> 0.27339188E+03</totfact>
</mgrwt>
</event>
<event>
 4    1  0.4758708E-002  0.6113435E+03  0.7818608E-02  0.9882147E-01
         21   -1    0    0  503  502  0.00000000000E+00  0.00000000000E+00  0.18800927213E+04  0.18800927213E+04  0.00000000000E+00 0.  1.
         21   -1    0    0  501  503 -0.00000000000E+00 -0.00000000000E+00 -0.20423906407E+03  0.20423906407E+03  0.00000000000E+00 0.  1.
    9000007    1    1    2  501    0  0.29081793993E+03 -0.35939645023E+03  0.66767700278E+03  0.90528087501E+03  0.40000000000E+03 0.  1.
   -9000007    1    1    2    0  502 -0.29081793993E+03  0.35939645023E+03  0.10081766544E+04  0.11790509103E+04  0.40000000000E+03 0.  1.
<mgrwt>
<rscale>  2 0.61134351E+03</rscale>
<asrwt>0</asrwt>
<pdfrwt beam="1">  1       21 0.28924502E+00 0.61134351E+03</pdfrwt>
<pdfrwt beam="2">  1       21 0.31421396E-01 0.61134351E+03</pdfrwt>
<totfact> 0.28043276E+02</totfact>
</mgrwt>
</event>
<event>
 4    1  0.4758708E-002  0.4580862E+03  0.7818608E-02  0.1025338E+00
         21   -1    0    0  501  502  0.00000000000E+00  0.00000000000E+00  0.40337733569E+03  0.40337733569E+03  0.00000000000E+00 0.  1.
         21   -1    0    0  502  503 -0.00000000000E+00 -0.00000000000E+00 -0.76971541475E+03  0.76971541475E+03  0.00000000000E+00 0. -1.
    9000007    1    1    2  501    0  0.28881578464E+02  0.22137927589E+03  0.15077440585E+03  0.48226118528E+03  0.40000000000E+03 0.  1.
   -9000007    1    1    2    0  503 -0.28881578464E+02 -0.22137927589E+03 -0.51711248491E+03  0.69083156516E+03  0.40000000000E+03 0. -1.
<mgrwt>
<rscale>  2 0.45808616E+03</rscale>
<asrwt>0</asrwt>
<pdfrwt beam="1">  1       21 0.62058051E-01 0.45808616E+03</pdfrwt>
<pdfrwt beam="2">  1       21 0.11841776E+00 0.45808616E+03</pdfrwt>
<totfact> 0.11152205E+03</totfact>
</mgrwt>
</event>
<event>
 4    1  0.4758708E-002  0.4716164E+03  0.7818608E-02  0.1021465E+00
         21   -1    0    0  501  502  0.00000000000E+00  0.00000000000E+00  0.43555714528E+03  0.43555714528E+03  0.00000000000E+00 0. -1.
         21   -1    0    0  502  503 -0.00000000000E+00 -0.00000000000E+00 -0.55217502392E+03  0.55217502392E+03  0.00000000000E+00 0. -1.
    9000007    1    1    2  501    0  0.24842765455E+02 -0.24860581172E+03 -0.19372452621E+03  0.50985410136E+03  0.40000000000E+03 0. -1.
   -9000007    1    1    2    0  503 -0.24842765455E+02  0.24860581172E+03  0.77106647575E+02  0.47787806783E+03  0.40000000000E+03 0. -1.
<mgrwt>
<rscale>  2 0.47161638E+03</rscale>
<asrwt>0</asrwt>
<pdfrwt beam="1">  1       21 0.67008792E-01 0.47161638E+03</pdfrwt>
<pdfrwt beam="2">  1       21 0.84950003E-01 0.47161638E+03</pdfrwt>
<totfact> 0.20984907E+03</totfact>
</mgrwt>
</event>
<event>
 4    1  0.4758708E-002  0.5961343E+03  0.7818608E-02  0.9913459E-01
         21   -1    0    0  501  502  0.00000000000E+00  0.00000000000E+00  0.11889458188E+04  0.11889458188E+04  0.00000000000E+00 0. -1.
         21   -1    0    0  502  503 -0.00000000000E+00 -0.00000000000E+00 -0.29980565605E+03  0.29980565605E+03  0.00000000000E+00 0. -1.
    9000007    1    1    2  501    0  0.16225857096E+03 -0.41115474189E+03  0.48547933851E+03  0.76880833356E+03  0.40000000000E+03 0. -1.
   -9000007    1    1    2    0  503 -0.16225857096E+03  0.41115474189E+03  0.40366082420E+03  0.71994314124E+03  0.40000000000E+03 0. -1.
<mgrwt>
<rscale>  2 0.59613427E+03</rscale>
<asrwt>0</asrwt>
<pdfrwt beam="1">  1       21 0.18291474E+00 0.59613427E+03</pdfrwt>
<pdfrwt beam="2">  1       21 0.46123948E-01 0.59613427E+03</pdfrwt>
<totfact> 0.61387574E+02</totfact>
</mgrwt>
</event>
<event>
 4    1  0.4758708E-002  0.5394640E+03  0.7818608E-02  0.1003962E+00
         21   -1    0    0  503  502  0.00000000000E+00  0.00000000000E+00  0.54919982177E+03  0.54919982177E+03  0.00000000000E+00 0.  1.
         21   -1    0    0  501  503 -0.00000000000E+00 -0.00000000000E+00 -0.10174511926E+04  0.10174511926E+04  0.00000000000E+00 0. -1.
    9000007    1    1    2  501    0  0.19222214305E+03 -0.30671175802E+03 -0.77637024952E+03  0.94539527136E+03  0.40000000000E+03 0. -1.
   -9000007    1    1    2    0  502 -0.19222214305E+03  0.30671175802E+03  0.30811887870E+03  0.62125574299E+03  0.40000000000E+03 0.  1.
<mgrwt>
<rscale>  2 0.53946404E+03</rscale>
<asrwt>0</asrwt>
<pdfrwt beam="1">  1       21 0.84492280E-01 0.53946404E+03</pdfrwt>
<pdfrwt beam="2">  1       21 0.15653095E+00 0.53946404E+03</pdfrwt>
<totfact> 0.25564153E+02</totfact>
</mgrwt>
</event>
<event>
 4    1  0.4758708E-002  0.4051874E+03  0.7818608E-02  0.1041998E+00
         21   -1    0    0  503  502  0.00000000000E+00  0.00000000000E+00  0.11396778265E+04  0.11396778265E+04  0.00000000000E+00 0. -1.
         21   -1    0    0  501  503 -0.00000000000E+00 -0.00000000000E+00 -0.14943522218E+03  0.14943522218E+03  0.00000000000E+00 0. -1.
    9000007    1    1    2  501    0 -0.55740419478E+02 -0.32708940089E+02  0.61741782016E+03  0.73849958279E+03  0.40000000000E+03 0. -1.
   -9000007    1    1    2    0  502  0.55740419478E+02  0.32708940089E+02  0.37282478414E+03  0.55061346586E+03  0.40000000000E+03 0. -1.
<mgrwt>
<rscale>  2 0.40518745E+03</rscale>
<asrwt>0</asrwt>
<pdfrwt beam="1">  1       21 0.17533504E+00 0.40518745E+03</pdfrwt>
<pdfrwt beam="2">  1       21 0.22990035E-01 0.40518745E+03</pdfrwt>
<totfact> 0.30397991E+03</totfact>
</mgrwt>
</event>
<event>
 4    1  0.4758708E-002  0.4421889E+03  0.7818608E-02  0.1030077E+00
         21   -1    0    0  503  502  0.00000000000E+00  0.00000000000E+00  0.45492132706E+03  0.45492132706E+03  0.00000000000E+00 0.  1.
         21   -1    0    0  501  503 -0.00000000000E+00 -0.00000000000E+00 -0.56017543962E+03  0.56017543962E+03  0.00000000000E+00 0.  1.
    9000007    1    1    2  501    0 -0.18804394400E+03  0.13058701219E+02  0.19221827332E+03  0.48216067773E+03  0.40000000000E+03 0.  1.
   -9000007    1    1    2    0  502  0.18804394400E+03 -0.13058701219E+02 -0.29747238587E+03  0.53293608895E+03  0.40000000000E+03 0.  1.
<mgrwt>
<rscale>  2 0.44218894E+03</rscale>
<asrwt>0</asrwt>
<pdfrwt beam="1">  1       21 0.69987896E-01 0.44218894E+03</pdfrwt>
<pdfrwt beam="2">  1       21 0.86180837E-01 0.44218894E+03</pdfrwt>
<totfact> 0.18604340E+03</totfact>
</mgrwt>
</event>
<event>
 4    1  0.4758708E-002  0.4831549E+03  0.7818608E-02  0.1018272E+00
         21   -1    0    0  501  502  0.00000000000E+00  0.00000000000E+00  0.10981555901E+03  0.10981555901E+03  0.00000000000E+00 0. -1.
         21   -1    0    0  502  503 -0.00000000000E+00 -0.00000000000E+00 -0.22082941519E+04  0.22082941519E+04  0.00000000000E+00 0. -1.
    9000007    1    1    2  501    0 -0.23898106039E+02  0.26993992500E+03 -0.82512972235E+03  0.95617871828E+03  0.40000000000E+03 0. -1.
   -9000007    1    1    2    0  503  0.23898106039E+02 -0.26993992500E+03 -0.12733488705E+04  0.13619309926E+04  0.40000000000E+03 0. -1.
<mgrwt>
<rscale>  2 0.48315493E+03</rscale>
<asrwt>0</asrwt>
<pdfrwt beam="1">  1       21 0.16894703E-01 0.48315493E+03</pdfrwt>
<pdfrwt beam="2">  1       21 0.33973754E+00 0.48315493E+03</pdfrwt>
<totfact> 0.48958472E+02</totfact>
</mgrwt>
</event>
<event>
 4    1  0.4758708E-002  0.4615967E+03  0.7818608E-02  0.1024319E+00
         21   -1    0    0  501  502  0.00000000000E+00  0.00000000000E+00  0.30153136243E+03  0.30153136243E+03  0.00000000000E+00 0. -1.
         21   -1    0    0  502  503 -0.00000000000E+00 -0.00000000000E+00 -0.70835335112E+03  0.70835335112E+03  0.00000000000E+00 0. -1.
    9000007    1    1    2  501    0 -0.11219131069E+03  0.20120784000E+03 -0.17851408079E+03  0.49491288336E+03  0.40000000000E+03 0. -1.
   -9000007    1    1    2    0  503  0.11219131069E+03 -0.20120784000E+03 -0.22830790790E+03  0.51497183018E+03  0.40000000000E+03 0. -1.
<mgrwt>
<rscale>  2 0.46159667E+03</rscale>
<asrwt>0</asrwt>
<pdfrwt beam="1">  1       21 0.46389441E-01 0.46159667E+03</pdfrwt>
<pdfrwt beam="2">  1       21 0.10897744E+00 0.46159667E+03</pdfrwt>
<totfact> 0.25642454E+03</totfact>
</mgrwt>
</event>
<event>
 4    1  0.4758708E-002  0.4756262E+03  0.7818608E-02  0.1020344E+00
         21   -1    0    0  501  502  0.00000000000E+00  0.00000000000E+00  0.71400362237E+03  0.71400362237E+03  0.00000000000E+00 0. -1.
         21   -1    0    0  502  503 -0.00000000000E+00 -0.00000000000E+00 -0.98994488076E+03  0.98994488076E+03  0.00000000000E+00 0. -1.
    9000007    1    1    2  501    0 -0.25305034550E+03 -0.46752261573E+02  0.56455866188E+03  0.73820507586E+03  0.40000000000E+03 0. -1.
   -9000007    1    1    2    0  503  0.25305034550E+03  0.46752261573E+02 -0.84049992027E+03  0.96574342726E+03  0.40000000000E+03 0. -1.
<mgrwt>
<rscale>  2 0.47562617E+03</rscale>
<asrwt>0</asrwt>
<pdfrwt beam="1">  1       21 0.10984671E+00 0.47562617E+03</pdfrwt>
<pdfrwt beam="2">  1       21 0.15229921E+00 0.47562617E+03</pdfrwt>
<totfact> 0.15052893E+02</totfact>
</mgrwt>
</event>
<event>
 4    1  0.4758708E-002  0.4320834E+03  0.7818608E-02  0.1033204E+00
         21   -1    0    0  501  502  0.00000000000E+00  0.00000000000E+00  0.48687210530E+03  0.48687210530E+03  0.00000000000E+00 0. -1.
         21   -1    0    0  502  503 -0.00000000000E+00 -0.00000000000E+00 -0.43659972806E+03  0.43659972806E+03  0.00000000000E+00 0. -1.
    9000007    1    1    2  501    0  0.78000560123E+02  0.14356885684E+03  0.18622320190E+03  0.47050524435E+03  0.40000000000E+03 0.  1.
   -9000007    1    1    2    0  503 -0.78000560123E+02 -0.14356885684E+03 -0.13595082466E+03  0.45296658901E+03  0.40000000000E+03 0.  1.
<mgrwt>
<rscale>  2 0.43208345E+03</rscale>
<asrwt>0</asrwt>
<pdfrwt beam="1">  1       21 0.74903401E-01 0.43208345E+03</pdfrwt>
<pdfrwt beam="2">  1       21 0.67169189E-01 0.43208345E+03</pdfrwt>
<totfact> 0.28318426E+03</totfact>
</mgrwt>
</event>
<event>
 4    1  0.4758708E-002  0.5584844E+03  0.7818608E-02  0.9995490E-01
         21   -1    0    0  503  502  0.00000000000E+00  0.00000000000E+00  0.10904487445E+04  0.10904487445E+04  0.00000000000E+00 0.  1.
         21   -1    0    0  501  503 -0.00000000000E+00 -0.00000000000E+00 -0.28765846437E+03  0.28765846437E+03  0.00000000000E+00 0.  1.
    9000007    1    1    2  501    0 -0.26276536772E+03  0.28785272043E+03  0.34960563956E+03  0.65888461080E+03  0.40000000000E+03 0.  1.
   -9000007    1    1    2    0  502  0.26276536772E+03 -0.28785272043E+03  0.45318464055E+03  0.71922259806E+03  0.40000000000E+03 0.  1.
<mgrwt>
<rscale>  2 0.55848440E+03</rscale>
<asrwt>0</asrwt>
<pdfrwt beam="1">  1       21 0.16776134E+00 0.55848440E+03</pdfrwt>
<pdfrwt beam="2">  1       21 0.44255149E-01 0.55848440E+03</pdfrwt>
<totfact> 0.87326462E+02</totfact>
</mgrwt>
</event>
<event>
 4    1  0.4758708E-002  0.4021108E+03  0.7818608E-02  0.1043051E+00
         21   -1    0    0  503  502  0.00000000000E+00  0.00000000000E+00  0.20460402513E+04  0.20460402513E+04  0.00000000000E+00 0. -1.
         21   -1    0    0  501  503 -0.00000000000E+00 -0.00000000000E+00 -0.79167896965E+02  0.79167896965E+02  0.00000000000E+00 0. -1.
    9000007    1    1    2  501    0  0.32740872421E+02 -0.24922130934E+02  0.93865925319E+03  0.10211631951E+04  0.40000000000E+03 0. -1.
   -9000007    1    1    2    0  502 -0.32740872421E+02  0.24922130934E+02  0.10282131011E+04  0.11040449532E+04  0.40000000000E+03 0. -1.
<mgrwt>
<rscale>  2 0.40211078E+03</rscale>
<asrwt>0</asrwt>
<pdfrwt beam="1">  1       21 0.31477538E+00 0.40211078E+03</pdfrwt>
<pdfrwt beam="2">  1       21 0.12179678E-01 0.40211078E+03</pdfrwt>
<totfact> 0.13301884E+03</totfact>
</mgrwt>
</event>
<event>
 4    1  0.4758708E-002  0.4019016E+03  0.7818608E-02  0.1043123E+00
         21   -1    0    0  501  502  0.00000000000E+00  0.00000000000E+00  0.69358576682E+02  0.69358576682E+02  0.00000000000E+00 0. -1.
         21   -1    0    0  502  503 -0.00000000000E+00 -0.00000000000E+00 -0.30640589785E+04  0.30640589785E+04  0.00000000000E+00 0. -1.
    9000007    1    1    2  501    0 -0.24234507539E+02 -0.30620591159E+02 -0.72990304907E+03  0.83323669686E+03  0.40000000000E+03 0. -1.
   -9000007    1    1    2    0  503  0.24234507539E+02  0.30620591159E+02 -0.22647973527E+04  0.23001808583E+04  0.40000000000E+03 0. -1.
<mgrwt>
<rscale>  2 0.40190164E+03</rscale>
<asrwt>0</asrwt>
<pdfrwt beam="1">  1       21 0.10670552E-01 0.40190164E+03</pdfrwt>
<pdfrwt beam="2">  1       21 0.47139363E+00 0.40190164E+03</pdfrwt>
<totfact> 0.16920785E+02</totfact>
</mgrwt>
</event>
<event>
 4    1  0.4758708E-002  0.4540374E+03  0.7818608E-02  0.1026525E+00
         21   -1    0    0  503  502  0.00000000000E+00  0.00000000000E+00  0.36708638838E+03  0.36708638838E+03  0.00000000000E+00 0. -1.
         21   -1    0    0  501  503 -0.00000000000E+00 -0.00000000000E+00 -0.69957474964E+03  0.69957474964E+03  0.00000000000E+00 0. -1.
    9000007    1    1    2  501    0 -0.16756588682E+03 -0.13443077605E+03 -0.40311081910E+03  0.60716413963E+03  0.40000000000E+03 0. -1.
   -9000007    1    1    2    0  502  0.16756588682E+03  0.13443077605E+03  0.70622457844E+02  0.45949699839E+03  0.40000000000E+03 0. -1.
<mgrwt>
<rscale>  2 0.45403740E+03</rscale>
<asrwt>0</asrwt>
<pdfrwt beam="1">  1       21 0.56474830E-01 0.45403740E+03</pdfrwt>
<pdfrwt beam="2">  1       21 0.10762688E+00 0.45403740E+03</pdfrwt>
<totfact> 0.17422205E+03</totfact>
</mgrwt>
</event>
<event>
 4    1  0.4758708E-002  0.4711384E+03  0.7818608E-02  0.1021599E+00
         21   -1    0    0  501  502  0.00000000000E+00  0.00000000000E+00  0.73371044897E+03  0.73371044897E+03  0.00000000000E+00 0. -1.
         21   -1    0    0  502  503 -0.00000000000E+00 -0.00000000000E+00 -0.58408522574E+03  0.58408522574E+03  0.00000000000E+00 0. -1.
    9000007    1    1    2  501    0 -0.23336465560E+03 -0.86673903350E+02  0.53227949380E+03  0.71083956526E+03  0.40000000000E+03 0. -1.
   -9000007    1    1    2    0  503  0.23336465560E+03  0.86673903350E+02 -0.38265427058E+03  0.60695610945E+03  0.40000000000E+03 0. -1.
<mgrwt>
<rscale>  2 0.47113844E+03</rscale>
<asrwt>0</asrwt>
<pdfrwt beam="1">  1       21 0.11287853E+00 0.47113844E+03</pdfrwt>
<pdfrwt beam="2">  1       21 0.89859266E-01 0.47113844E+03</pdfrwt>
<totfact> 0.53709028E+02</totfact>
</mgrwt>
</event>
<event>
 4    1  0.4758708E-002  0.4276054E+03  0.7818608E-02  0.1034619E+00
         21   -1    0    0  501  502  0.00000000000E+00  0.00000000000E+00  0.46008954790E+03  0.46008954790E+03  0.00000000000E+00 0. -1.
         21   -1    0    0  502  503 -0.00000000000E+00 -0.00000000000E+00 -0.47438401384E+03  0.47438401384E+03  0.00000000000E+00 0. -1.
    9000007    1    1    2  501    0 -0.13478443781E+02  0.15054793259E+03  0.18105761889E+03  0.46435784672E+03  0.40000000000E+03 0. -1.
   -9000007    1    1    2    0  503  0.13478443781E+02 -0.15054793259E+03 -0.19535208483E+03  0.47011571501E+03  0.40000000000E+03 0. -1.
<mgrwt>
<rscale>  2 0.42760537E+03</rscale>
<asrwt>0</asrwt>
<pdfrwt beam="1">  1       21 0.70783007E-01 0.42760537E+03</pdfrwt>
<pdfrwt beam="2">  1       21 0.72982156E-01 0.42760537E+03</pdfrwt>
<totfact> 0.26753724E+03</totfact>
</mgrwt>
</event>
<event>
 4    1  0.4758708E-002  0.6346282E+03  0.7818608E-02  0.9836059E-01
         21   -1    0    0  503  502  0.00000000000E+00  0.00000000000E+00  0.13468926410E+04  0.13468926410E+04  0.00000000000E+00 0. -1.
         21   -1    0    0  501  503 -0.00000000000E+00 -0.00000000000E+00 -0.37892259127E+03  0.37892259127E+03  0.00000000000E+00 0. -1.
    9000007    1    1    2  501    0 -0.26563441189E+03  0.41495936776E+03  0.87744186142E+02  0.64066524790E+03  0.40000000000E+03 0. -1.
   -9000007    1    1    2    0  502  0.26563441189E+03 -0.41495936776E+03  0.88022586363E+03  0.10851499844E+04  0.40000000000E+03 0. -1.
<mgrwt>
<rscale>  2 0.63462817E+03</rscale>
<asrwt>0</asrwt>
<pdfrwt beam="1">  1       21 0.20721425E+00 0.63462817E+03</pdfrwt>
<pdfrwt beam="2">  1       21 0.58295784E-01 0.63462817E+03</pdfrwt>
<totfact> 0.24937799E+02</totfact>
</mgrwt>
</event>
<event>
 4    1  0.4758708E-002  0.5960566E+03  0.7818608E-02  0.9913621E-01
         21   -1    0    0  501  502  0.00000000000E+00  0.00000000000E+00  0.93104881190E+03  0.93104881190E+03  0.00000000000E+00 0. -1.
         21   -1    0    0  502  503 -0.00000000000E+00 -0.00000000000E+00 -0.41576208202E+03  0.41576208202E+03  0.00000000000E+00 0. -1.
    9000007    1    1    2  501    0  0.19779462331E+03 -0.39517177826E+03  0.45068855155E+03  0.74726408842E+03  0.40000000000E+03 0. -1.
   -9000007    1    1    2    0  503 -0.19779462331E+03  0.39517177826E+03  0.64598178333E+02  0.59954680550E+03  0.40000000000E+03 0. -1.
<mgrwt>
<rscale>  2 0.59605658E+03</rscale>
<asrwt>0</asrwt>
<pdfrwt beam="1">  1       21 0.14323828E+00 0.59605658E+03</pdfrwt>
<pdfrwt beam="2">  1       21 0.63963398E-01 0.59605658E+03</pdfrwt>
<totfact> 0.60295810E+02</totfact>
</mgrwt>
</event>
<event>
 4    1  0.4758708E-002  0.4244138E+03  0.7818608E-02  0.1035639E+00
         21   -1    0    0  501  502  0.00000000000E+00  0.00000000000E+00  0.66413837353E+03  0.66413837353E+03  0.00000000000E+00 0. -1.
         21   -1    0    0  502  503 -0.00000000000E+00 -0.00000000000E+00 -0.29788329777E+03  0.29788329777E+03  0.00000000000E+00 0. -1.
    9000007    1    1    2  501    0  0.19443748565E+02  0.14053126023E+03  0.32703888293E+03  0.53579989306E+03  0.40000000000E+03 0. -1.
   -9000007    1    1    2    0  503 -0.19443748565E+02 -0.14053126023E+03  0.39216192838E+02  0.42622177823E+03  0.40000000000E+03 0. -1.
<mgrwt>
<rscale>  2 0.42441382E+03</rscale>
<asrwt>0</asrwt>
<pdfrwt beam="1">  1       21 0.10217513E+00 0.42441382E+03</pdfrwt>
<pdfrwt beam="2">  1       21 0.45828200E-01 0.42441382E+03</pdfrwt>
<totfact> 0.31255405E+03</totfact>
</mgrwt>
</event>
<event>
 4    1  0.4758708E-002  0.5620139E+03  0.7818608E-02  0.9987508E-01
         21   -1    0    0  503  502  0.00000000000E+00  0.00000000000E+00  0.22756145684E+04  0.22756145684E+04  0.00000000000E+00 0. -1.
         21   -1    0    0  501  503 -0.00000000000E+00 -0.00000000000E+00 -0.39058146158E+03  0.39058146158E+03  0.00000000000E+00 0.  1.
    9000007    1    1    2  501    0 -0.38689743497E+03  0.78549459708E+02 -0.12781048999E+03  0.57636374292E+03  0.40000000000E+03 0.  1.
   -9000007    1    1    2    0  502  0.38689743497E+03 -0.78549459708E+02  0.20128435968E+04  0.20898322870E+04  0.40000000000E+03 0. -1.
<mgrwt>
<rscale>  2 0.56201392E+03</rscale>
<asrwt>0</asrwt>
<pdfrwt beam="1">  1       21 0.35009454E+00 0.56201392E+03</pdfrwt>
<pdfrwt beam="2">  1       21 0.60089457E-01 0.56201392E+03</pdfrwt>
<totfact> 0.31270236E+01</totfact>
</mgrwt>
</event>
<event>
 4    1  0.4758708E-002  0.8377290E+03  0.7818608E-02  0.9506956E-01
         21   -1    0    0  503  502  0.00000000000E+00  0.00000000000E+00  0.71150463087E+03  0.71150463087E+03  0.00000000000E+00 0. -1.
         21   -1    0    0  501  503 -0.00000000000E+00 -0.00000000000E+00 -0.11605228811E+04  0.11605228811E+04  0.00000000000E+00 0.  1.
    9000007    1    1    2  501    0 -0.35481791281E+03  0.64489848803E+03  0.13810984439E+03  0.84903718425E+03  0.40000000000E+03 0. -1.
   -9000007    1    1    2    0  502  0.35481791281E+03 -0.64489848803E+03 -0.58712809460E+03  0.10229903277E+04  0.40000000000E+03 0.  1.
<mgrwt>
<rscale>  2 0.83772896E+03</rscale>
<asrwt>0</asrwt>
<pdfrwt beam="1">  1       21 0.10946225E+00 0.83772896E+03</pdfrwt>
<pdfrwt beam="2">  1       21 0.17854198E+00 0.83772896E+03</pdfrwt>
<totfact> 0.84242923E+01</totfact>
</mgrwt>
</event>
<event>
 4    1  0.4758708E-002  0.4499307E+03  0.7818608E-02  0.1027743E+00
         21   -1    0    0  503  502  0.00000000000E+00  0.00000000000E+00  0.52072026983E+03  0.52072026983E+03  0.00000000000E+00 0.  1.
         21   -1    0    0  501  503 -0.00000000000E+00 -0.00000000000E+00 -0.39258892493E+03  0.39258892493E+03  0.00000000000E+00 0.  1.
    9000007    1    1    2  501    0  0.20566986926E+03 -0.11726675451E+02  0.18994804859E+02  0.45033144755E+03  0.40000000000E+03 0.  1.
   -9000007    1    1    2    0  502 -0.20566986926E+03  0.11726675451E+02  0.10913654005E+03  0.46297774721E+03  0.40000000000E+03 0.  1.
<mgrwt>
<rscale>  2 0.44993067E+03</rscale>
<asrwt>0</asrwt>
<pdfrwt beam="1">  1       21 0.80110811E-01 0.44993067E+03</pdfrwt>
<pdfrwt beam="2">  1       21 0.60398296E-01 0.44993067E+03</pdfrwt>
<totfact> 0.30509240E+03</totfact>
</mgrwt>
</event>
<event>
 4    1  0.4758708E-002  0.4984645E+03  0.7818608E-02  0.1014180E+00
         21   -1    0    0  503  502  0.00000000000E+00  0.00000000000E+00  0.78423085310E+03  0.78423085310E+03  0.00000000000E+00 0. -1.
         21   -1    0    0  501  503 -0.00000000000E+00 -0.00000000000E+00 -0.31818998321E+03  0.31818998321E+03  0.00000000000E+00 0.  1.
    9000007    1    1    2  501    0 -0.41652590798E+02  0.29450286591E+03  0.19696743906E+03  0.53596926068E+03  0.40000000000E+03 0. -1.
   -9000007    1    1    2    0  502  0.41652590798E+02 -0.29450286591E+03  0.26907343084E+03  0.56645157563E+03  0.40000000000E+03 0. -1.
<mgrwt>
<rscale>  2 0.49846452E+03</rscale>
<asrwt>0</asrwt>
<pdfrwt beam="1">  1       21 0.12065090E+00 0.49846452E+03</pdfrwt>
<pdfrwt beam="2">  1       21 0.48952305E-01 0.49846452E+03</pdfrwt>
<totfact> 0.17496945E+03</totfact>
</mgrwt>
</event>
<event>
 4    1  0.4758708E-002  0.5462163E+03  0.7818608E-02  0.1002374E+00
         21   -1    0    0  503  502  0.00000000000E+00  0.00000000000E+00  0.60166451451E+03  0.60166451451E+03  0.00000000000E+00 0.  1.
         21   -1    0    0  501  503 -0.00000000000E+00 -0.00000000000E+00 -0.54477077143E+03  0.54477077143E+03  0.00000000000E+00 0. -1.
    9000007    1    1    2  501    0  0.36773796558E+03 -0.55866640467E+02 -0.14327842049E+03  0.56469549195E+03  0.40000000000E+03 0. -1.
   -9000007    1    1    2    0  502 -0.36773796558E+03  0.55866640467E+02  0.20017216357E+03  0.58173979399E+03  0.40000000000E+03 0.  1.
<mgrwt>
<rscale>  2 0.54621634E+03</rscale>
<asrwt>0</asrwt>
<pdfrwt beam="1">  1       21 0.92563771E-01 0.54621634E+03</pdfrwt>
<pdfrwt beam="2">  1       21 0.83810888E-01 0.54621634E+03</pdfrwt>
<totfact> 0.10003692E+03</totfact>
</mgrwt>
</event>
<event>
 4    1  0.4758708E-002  0.4228476E+03  0.7818608E-02  0.1036143E+00
         21   -1    0    0  501  502  0.00000000000E+00  0.00000000000E+00  0.10018370933E+04  0.10018370933E+04  0.00000000000E+00 0.  1.
         21   -1    0    0  502  503 -0.00000000000E+00 -0.00000000000E+00 -0.22140373554E+03  0.22140373554E+03  0.00000000000E+00 0.  1.
    9000007    1    1    2  501    0  0.74376754637E+02  0.11518780481E+03  0.65954213192E+03  0.78345131041E+03  0.40000000000E+03 0.  1.
   -9000007    1    1    2    0  503 -0.74376754637E+02 -0.11518780481E+03  0.12089122579E+03  0.43978951838E+03  0.40000000000E+03 0.  1.
<mgrwt>
<rscale>  2 0.42284765E+03</rscale>
<asrwt>0</asrwt>
<pdfrwt beam="1">  1       21 0.15412878E+00 0.42284765E+03</pdfrwt>
<pdfrwt beam="2">  1       21 0.34062114E-01 0.42284765E+03</pdfrwt>
<totfact> 0.19980414E+03</totfact>
</mgrwt>
</event>
<event>
 4    1  0.4758708E-002  0.4205956E+03  0.7818608E-02  0.1036873E+00
         21   -1    0    0  503  502  0.00000000000E+00  0.00000000000E+00  0.16552473202E+03  0.16552473202E+03  0.00000000000E+00 0.  1.
         21   -1    0    0  501  503 -0.00000000000E+00 -0.00000000000E+00 -0.17534751729E+04  0.17534751729E+04  0.00000000000E+00 0. -1.
    9000007    1    1    2  501    0  0.10272108458E+03 -0.79681016391E+02 -0.13935739610E+04  0.14556610424E+04  0.40000000000E+03 0. -1.
   -9000007    1    1    2    0  502 -0.10272108458E+03  0.79681016391E+02 -0.19437647990E+03  0.46333886253E+03  0.40000000000E+03 0.  1.
<mgrwt>
<rscale>  2 0.42059563E+03</rscale>
<asrwt>0</asrwt>
<pdfrwt beam="1">  1       21 0.25465343E-01 0.42059563E+03</pdfrwt>
<pdfrwt beam="2">  1       21 0.26976541E+00 0.42059563E+03</pdfrwt>
<totfact> 0.61245939E+02</totfact>
</mgrwt>
</event>
<event>
 4    1  0.4758708E-002  0.5881333E+03  0.7818608E-02  0.9930336E-01
         21   -1    0    0  501  502  0.00000000000E+00  0.00000000000E+00  0.36521127041E+03  0.36521127041E+03  0.00000000000E+00 0. -1.
         21   -1    0    0  502  503 -0.00000000000E+00 -0.00000000000E+00 -0.94712792311E+03  0.94712792311E+03  0.00000000000E+00 0.  1.
    9000007    1    1    2  501    0  0.43112837772E+03  0.53998596879E+01 -0.29204889043E+03  0.65665317403E+03  0.40000000000E+03 0.  1.
   -9000007    1    1    2    0  503 -0.43112837772E+03 -0.53998596879E+01 -0.28986776227E+03  0.65568601950E+03  0.40000000000E+03 0. -1.
<mgrwt>
<rscale>  2 0.58813335E+03</rscale>
<asrwt>0</asrwt>
<pdfrwt beam="1">  1       21 0.56186350E-01 0.58813335E+03</pdfrwt>
<pdfrwt beam="2">  1       21 0.14571199E+00 0.58813335E+03</pdfrwt>
<totfact> 0.76809929E+02</totfact>
</mgrwt>
</event>
<event>
 4    1  0.4758708E-002  0.4054591E+03  0.7818608E-02  0.1041906E+00
         21   -1    0    0  503  502  0.00000000000E+00  0.00000000000E+00  0.80772385428E+03  0.80772385428E+03  0.00000000000E+00 0. -1.
         21   -1    0    0  501  503 -0.00000000000E+00 -0.00000000000E+00 -0.26738652094E+03  0.26738652094E+03  0.00000000000E+00 0.  1.
    9000007    1    1    2  501    0 -0.30286928804E+02  0.58989379795E+02  0.74737426508E+01  0.40552792976E+03  0.40000000000E+03 0.  1.
   -9000007    1    1    2    0  502  0.30286928804E+02 -0.58989379795E+02  0.53286359069E+03  0.66958244546E+03  0.40000000000E+03 0. -1.
<mgrwt>
<rscale>  2 0.40545905E+03</rscale>
<asrwt>0</asrwt>
<pdfrwt beam="1">  1       21 0.12426521E+00 0.40545905E+03</pdfrwt>
<pdfrwt beam="2">  1       21 0.41136388E-01 0.40545905E+03</pdfrwt>
<totfact> 0.24200274E+03</totfact>
</mgrwt>
</event>
<event>
 4    1  0.4758708E-002  0.4453228E+03  0.7818608E-02  0.1029126E+00
         21   -1    0    0  503  502  0.00000000000E+00  0.00000000000E+00  0.15733986465E+03  0.15733986465E+03  0.00000000000E+00 0.  1.
         21   -1    0    0  501  503 -0.00000000000E+00 -0.00000000000E+00 -0.12664497893E+04  0.12664497893E+04  0.00000000000E+00 0.  1.
    9000007    1    1    2  501    0  0.13279159012E+03 -0.14380119690E+03 -0.50538359490E+03  0.67359109898E+03  0.40000000000E+03 0.  1.
   -9000007    1    1    2    0  502 -0.13279159012E+03  0.14380119690E+03 -0.60372632971E+03  0.75019855494E+03  0.40000000000E+03 0.  1.
<mgrwt>
<rscale>  2 0.44532279E+03</rscale>
<asrwt>0</asrwt>
<pdfrwt beam="1">  1       21 0.24206132E-01 0.44532279E+03</pdfrwt>
<pdfrwt beam="2">  1       21 0.19483844E+00 0.44532279E+03</pdfrwt>
<totfact> 0.19812056E+03</totfact>
</mgrwt>
</event>
<event>
 4    1  0.4758708E-002  0.4115268E+03  0.7818608E-02  0.1039860E+00
         21   -1    0    0  501  502  0.00000000000E+00  0.00000000000E+00  0.10647420100E+04  0.10647420100E+04  0.00000000000E+00 0. -1.
         21   -1    0    0  502  503 -0.00000000000E+00 -0.00000000000E+00 -0.17264339880E+03  0.17264339880E+03  0.00000000000E+00 0. -1.
    9000007    1    1    2  501    0 -0.46554459226E+01  0.96605483817E+02  0.61961258497E+03  0.74382393625E+03  0.40000000000E+03 0. -1.
   -9000007    1    1    2    0  503  0.46554459226E+01 -0.96605483817E+02  0.27248602620E+03  0.49356147252E+03  0.40000000000E+03 0. -1.
<mgrwt>
<rscale>  2 0.41152678E+03</rscale>
<asrwt>0</asrwt>
<pdfrwt beam="1">  1       21 0.16380646E+00 0.41152678E+03</pdfrwt>
<pdfrwt beam="2">  1       21 0.26560524E-01 0.41152678E+03</pdfrwt>
<totfact> 0.27783407E+03</totfact>
</mgrwt>
</event>
<event>
 4    1  0.4758708E-002  0.5101999E+03  0.7818608E-02  0.1011150E+00
         21   -1    0    0  503  502  0.00000000000E+00  0.00000000000E+00  0.71453095026E+03  0.71453095026E+03  0.00000000000E+00 0. -1.
         21   -1    0    0  501  503 -0.00000000000E+00 -0.00000000000E+00 -0.18383311064E+04  0.18383311064E+04  0.00000000000E+00 0. -1.
    9000007    1    1    2  501    0 -0.31461053559E+03  0.36389528231E+02 -0.17048803500E+04  0.17795845006E+04  0.40000000000E+03 0. -1.
   -9000007    1    1    2    0  502  0.31461053559E+03 -0.36389528231E+02  0.58108019392E+03  0.77327755602E+03  0.40000000000E+03 0. -1.
<mgrwt>
<rscale>  2 0.51019995E+03</rscale>
<asrwt>0</asrwt>
<pdfrwt beam="1">  1       21 0.10992784E+00 0.51019995E+03</pdfrwt>
<pdfrwt beam="2">  1       21 0.28282017E+00 0.51019995E+03</pdfrwt>
<totfact> 0.20222451E+01</totfact>
</mgrwt>
</event>
<event>
 4    1  0.4758708E-002  0.5755887E+03  0.7818608E-02  0.9957387E-01
         21   -1    0    0  503  502  0.00000000000E+00  0.00000000000E+00  0.43529280839E+03  0.43529280839E+03  0.00000000000E+00 0.  1.
         21   -1    0    0  501  503 -0.00000000000E+00 -0.00000000000E+00 -0.79183555407E+03  0.79183555407E+03  0.00000000000E+00 0.  1.
    9000007    1    1    2  501    0 -0.28141958337E+03  0.30348875681E+03 -0.57393734999E+02  0.57844312446E+03  0.40000000000E+03 0.  1.
   -9000007    1    1    2    0  502  0.28141958337E+03 -0.30348875681E+03 -0.29914901068E+03  0.64868523801E+03  0.40000000000E+03 0.  1.
<mgrwt>
<rscale>  2 0.57558875E+03</rscale>
<asrwt>0</asrwt>
<pdfrwt beam="1">  1       21 0.66968125E-01 0.57558875E+03</pdfrwt>
<pdfrwt beam="2">  1       21 0.12182085E+00 0.57558875E+03</pdfrwt>
<totfact> 0.83902372E+02</totfact>
</mgrwt>
</event>
<event>
 4    1  0.4758708E-002  0.5286917E+03  0.7818608E-02  0.1006550E+00
         21   -1    0    0  501  502  0.00000000000E+00  0.00000000000E+00  0.13027861632E+04  0.13027861632E+04  0.00000000000E+00 0.  1.
         21   -1    0    0  502  503 -0.00000000000E+00 -0.00000000000E+00 -0.27737050508E+03  0.27737050508E+03  0.00000000000E+00 0. -1.
    9000007    1    1    2  501    0 -0.34432964266E+03  0.30854033629E+02  0.13671016553E+03  0.54608107783E+03  0.40000000000E+03 0.  1.
   -9000007    1    1    2    0  503  0.34432964266E+03 -0.30854033629E+02  0.88870549262E+03  0.10340755905E+04  0.40000000000E+03 0.  1.
<mgrwt>
<rscale>  2 0.52869166E+03</rscale>
<asrwt>0</asrwt>
<pdfrwt beam="1">  1       21 0.20042864E+00 0.52869166E+03</pdfrwt>
<pdfrwt beam="2">  1       21 0.42672386E-01 0.52869166E+03</pdfrwt>
<totfact> 0.56194091E+02</totfact>
</mgrwt>
</event>
<event>
 4    1  0.4758708E-002  0.4986522E+03  0.7818608E-02  0.1014131E+00
         21   -1    0    0  501  502  0.00000000000E+00  0.00000000000E+00  0.34744544137E+03  0.34744544137E+03  0.00000000000E+00 0. -1.
         21   -1    0    0  502  503 -0.00000000000E+00 -0.00000000000E+00 -0.71567455562E+03  0.71567455562E+03  0.00000000000E+00 0. -1.
    9000007    1    1    2  501    0 -0.27175508676E+03 -0.12166833079E+03 -0.18202241139E+03  0.53083534937E+03  0.40000000000E+03 0. -1.
   -9000007    1    1    2    0  503  0.27175508676E+03  0.12166833079E+03 -0.18620670286E+03  0.53228464761E+03  0.40000000000E+03 0. -1.
<mgrwt>
<rscale>  2 0.49865219E+03</rscale>
<asrwt>0</asrwt>
<pdfrwt beam="1">  1       21 0.53453145E-01 0.49865219E+03</pdfrwt>
<pdfrwt beam="2">  1       21 0.11010378E+00 0.49865219E+03</pdfrwt>
<totfact> 0.18244118E+03</totfact>
</mgrwt>
</event>
<event>
 4    1  0.4758708E-002  0.5607048E+03  0.7818608E-02  0.9990461E-01
         21   -1    0    0  501  502  0.00000000000E+00  0.00000000000E+00  0.98021079704E+03  0.98021079704E+03  0.00000000000E+00 0.  1.
         21   -1    0    0  502  503 -0.00000000000E+00 -0.00000000000E+00 -0.37906000717E+03  0.37906000717E+03  0.00000000000E+00 0.  1.
    9000007    1    1    2  501    0 -0.11050681932E+03  0.37706510708E+03  0.56716427710E+03  0.79753693915E+03  0.40000000000E+03 0.  1.
   -9000007    1    1    2    0  503  0.11050681932E+03 -0.37706510708E+03  0.33986512775E+02  0.56173386505E+03  0.40000000000E+03 0.  1.
<mgrwt>
<rscale>  2 0.56070478E+03</rscale>
<asrwt>0</asrwt>
<pdfrwt beam="1">  1       21 0.15080166E+00 0.56070478E+03</pdfrwt>
<pdfrwt beam="2">  1       21 0.58316925E-01 0.56070478E+03</pdfrwt>
<totfact> 0.65092421E+02</totfact>
</mgrwt>
</event>
<event>
 4    1  0.4758708E-002  0.4329354E+03  0.7818608E-02  0.1032937E+00
         21   -1    0    0  501  502  0.00000000000E+00  0.00000000000E+00  0.17120296202E+04  0.17120296202E+04  0.00000000000E+00 0.  1.
         21   -1    0    0  502  503 -0.00000000000E+00 -0.00000000000E+00 -0.12318938609E+03  0.12318938609E+03  0.00000000000E+00 0.  1.
    9000007    1    1    2  501    0 -0.48508671222E+02  0.15836663308E+03  0.48830869740E+03  0.65259364509E+03  0.40000000000E+03 0.  1.
   -9000007    1    1    2    0  503  0.48508671222E+02 -0.15836663308E+03  0.11005315367E+04  0.11826253612E+04  0.40000000000E+03 0.  1.
<mgrwt>
<rscale>  2 0.43293542E+03</rscale>
<asrwt>0</asrwt>
<pdfrwt beam="1">  1       21 0.26338915E+00 0.43293542E+03</pdfrwt>
<pdfrwt beam="2">  1       21 0.18952215E-01 0.43293542E+03</pdfrwt>
<totfact> 0.11720128E+03</totfact>
</mgrwt>
</event>
<event>
 4    1  0.4758708E-002  0.4953479E+03  0.7818608E-02  0.1015000E+00
         21   -1    0    0  501  502  0.00000000000E+00  0.00000000000E+00  0.22934826556E+03  0.22934826556E+03  0.00000000000E+00 0. -1.
         21   -1    0    0  502  503 -0.00000000000E+00 -0.00000000000E+00 -0.11920629122E+04  0.11920629122E+04  0.00000000000E+00 0. -1.
    9000007    1    1    2  501    0  0.28714678207E+03  0.54002118150E+02 -0.25380099524E+03  0.55658283158E+03  0.40000000000E+03 0. -1.
   -9000007    1    1    2    0  503 -0.28714678207E+03 -0.54002118150E+02 -0.70891365136E+03  0.86482834615E+03  0.40000000000E+03 0. -1.
<mgrwt>
<rscale>  2 0.49534786E+03</rscale>
<asrwt>0</asrwt>
<pdfrwt beam="1">  1       21 0.35284349E-01 0.49534786E+03</pdfrwt>
<pdfrwt beam="2">  1       21 0.18339429E+00 0.49534786E+03</pdfrwt>
<totfact> 0.11014414E+03</totfact>
</mgrwt>
</event>
<event>
 4    1  0.4758708E-002  0.4914454E+03  0.7818608E-02  0.1016036E+00
         21   -1    0    0  501  502  0.00000000000E+00  0.00000000000E+00  0.65931250634E+03  0.65931250634E+03  0.00000000000E+00 0. -1.
         21   -1    0    0  502  503 -0.00000000000E+00 -0.00000000000E+00 -0.75279432965E+03  0.75279432965E+03  0.00000000000E+00 0. -1.
    9000007    1    1    2  501    0 -0.76234120506E+01  0.28541287452E+03  0.45915403381E+03  0.67256304694E+03  0.40000000000E+03 0. -1.
   -9000007    1    1    2    0  503  0.76234120506E+01 -0.28541287452E+03 -0.55263585711E+03  0.73954378905E+03  0.40000000000E+03 0. -1.
<mgrwt>
<rscale>  2 0.49144544E+03</rscale>
<asrwt>0</asrwt>
<pdfrwt beam="1">  1       21 0.10143269E+00 0.49144544E+03</pdfrwt>
<pdfrwt beam="2">  1       21 0.11581451E+00 0.49144544E+03</pdfrwt>
<totfact> 0.37304502E+02</totfact>
</mgrwt>
</event>
<event>
 4    1  0.4758708E-002  0.4022523E+03  0.7818608E-02  0.1043003E+00
         21   -1    0    0  501  502  0.00000000000E+00  0.00000000000E+00  0.58334748290E+03  0.58334748290E+03  0.00000000000E+00 0.  1.
         21   -1    0    0  502  503 -0.00000000000E+00 -0.00000000000E+00 -0.35702721631E+03  0.35702721631E+03  0.00000000000E+00 0.  1.
    9000007    1    1    2  501    0 -0.40164924618E+02 -0.13915953611E+02  0.33524305349E+03  0.52363611396E+03  0.40000000000E+03 0. -1.
   -9000007    1    1    2    0  503  0.40164924618E+02  0.13915953611E+02 -0.10892278689E+03  0.41673858525E+03  0.40000000000E+03 0. -1.
<mgrwt>
<rscale>  2 0.40225225E+03</rscale>
<asrwt>0</asrwt>
<pdfrwt beam="1">  1       21 0.89745766E-01 0.40225225E+03</pdfrwt>
<pdfrwt beam="2">  1       21 0.54927264E-01 0.40225225E+03</pdfrwt>
<totfact> 0.29285210E+03</totfact>
</mgrwt>
</event>
<event>
 4    1  0.4758708E-002  0.4291909E+03  0.7818608E-02  0.1034116E+00
         21   -1    0    0  503  502  0.00000000000E+00  0.00000000000E+00  0.15473579208E+03  0.15473579208E+03  0.00000000000E+00 0. -1.
         21   -1    0    0  501  503 -0.00000000000E+00 -0.00000000000E+00 -0.13318217435E+04  0.13318217435E+04  0.00000000000E+00 0. -1.
    9000007    1    1    2  501    0  0.69386642881E+01 -0.15542432144E+03 -0.83070918659E+03  0.93503081096E+03  0.40000000000E+03 0. -1.
   -9000007    1    1    2    0  502 -0.69386642881E+01  0.15542432144E+03 -0.34637676480E+03  0.55152672460E+03  0.40000000000E+03 0. -1.
<mgrwt>
<rscale>  2 0.42919094E+03</rscale>
<asrwt>0</asrwt>
<pdfrwt beam="1">  1       21 0.23805506E-01 0.42919094E+03</pdfrwt>
<pdfrwt beam="2">  1       21 0.20489566E+00 0.42919094E+03</pdfrwt>
<totfact> 0.17661081E+03</totfact>
</mgrwt>
</event>
<event>
 4    1  0.4758708E-002  0.4336660E+03  0.7818608E-02  0.1032708E+00
         21   -1    0    0  501  502  0.00000000000E+00  0.00000000000E+00  0.49432950133E+03  0.49432950133E+03  0.00000000000E+00 0.  1.
         21   -1    0    0  502  503 -0.00000000000E+00 -0.00000000000E+00 -0.52120842322E+03  0.52120842322E+03  0.00000000000E+00 0.  1.
    9000007    1    1    2  501    0 -0.71120820701E+02 -0.15168400992E+03  0.25043791446E+03  0.50078474318E+03  0.40000000000E+03 0.  1.
   -9000007    1    1    2    0  503  0.71120820701E+02  0.15168400992E+03 -0.27731683635E+03  0.51475318137E+03  0.40000000000E+03 0.  1.
<mgrwt>
<rscale>  2 0.43366601E+03</rscale>
<asrwt>0</asrwt>
<pdfrwt beam="1">  1       21 0.76050693E-01 0.43366601E+03</pdfrwt>
<pdfrwt beam="2">  1       21 0.80185911E-01 0.43366601E+03</pdfrwt>
<totfact> 0.18285256E+03</totfact>
</mgrwt>
</event>
<event>
 4    1  0.4758708E-002  0.4148929E+03  0.7818608E-02  0.1038741E+00
         21   -1    0    0  501  502  0.00000000000E+00  0.00000000000E+00  0.97326151917E+03  0.97326151917E+03  0.00000000000E+00 0.  1.
         21   -1    0    0  502  503 -0.00000000000E+00 -0.00000000000E+00 -0.23369799518E+03  0.23369799518E+03  0.00000000000E+00 0.  1.
    9000007    1    1    2  501    0  0.46867678706E+02  0.99697042302E+02  0.66738302872E+03  0.78583470691E+03  0.40000000000E+03 0.  1.
   -9000007    1    1    2    0  503 -0.46867678706E+02 -0.99697042302E+02  0.72180495265E+02  0.42112480745E+03  0.40000000000E+03 0.  1.
<mgrwt>
<rscale>  2 0.41489285E+03</rscale>
<asrwt>0</asrwt>
<pdfrwt beam="1">  1       21 0.14973254E+00 0.41489285E+03</pdfrwt>
<pdfrwt beam="2">  1       21 0.35953538E-01 0.41489285E+03</pdfrwt>
<totfact> 0.19445369E+03</totfact>
</mgrwt>
</event>
<event>
 4    1  0.4758708E-002  0.4403140E+03  0.7818608E-02  0.1030651E+00
         21   -1    0    0  503  502  0.00000000000E+00  0.00000000000E+00  0.37507288853E+03  0.37507288853E+03  0.00000000000E+00 0. -1.
         21   -1    0    0  501  503 -0.00000000000E+00 -0.00000000000E+00 -0.51961674528E+03  0.51961674528E+03  0.00000000000E+00 0. -1.
    9000007    1    1    2  501    0  0.93976957419E+02 -0.15825529198E+03 -0.10459875327E+03  0.45256745923E+03  0.40000000000E+03 0. -1.
   -9000007    1    1    2    0  502 -0.93976957419E+02  0.15825529198E+03 -0.39945103480E+02  0.44212217458E+03  0.40000000000E+03 0. -1.
<mgrwt>
<rscale>  2 0.44031399E+03</rscale>
<asrwt>0</asrwt>
<pdfrwt beam="1">  1       21 0.57703521E-01 0.44031399E+03</pdfrwt>
<pdfrwt beam="2">  1       21 0.79941038E-01 0.44031399E+03</pdfrwt>
<totfact> 0.33990581E+03</totfact>
</mgrwt>
</event>
<event>
 4    1  0.4758708E-002  0.5095105E+03  0.7818608E-02  0.1011326E+00
         21   -1    0    0  503  502  0.00000000000E+00  0.00000000000E+00  0.46810214931E+03  0.46810214931E+03  0.00000000000E+00 0. -1.
         21   -1    0    0  501  503 -0.00000000000E+00 -0.00000000000E+00 -0.82289765932E+03  0.82289765932E+03  0.00000000000E+00 0.  1.
    9000007    1    1    2  501    0 -0.67675834229E+02 -0.30825466165E+03 -0.54599017649E+03  0.74679731373E+03  0.40000000000E+03 0.  1.
   -9000007    1    1    2    0  502  0.67675834229E+02  0.30825466165E+03  0.19119466649E+03  0.54420249490E+03  0.40000000000E+03 0. -1.
<mgrwt>
<rscale>  2 0.50951051E+03</rscale>
<asrwt>0</asrwt>
<pdfrwt beam="1">  1       21 0.72015716E-01 0.50951051E+03</pdfrwt>
<pdfrwt beam="2">  1       21 0.12659964E+00 0.50951051E+03</pdfrwt>
<totfact> 0.65995984E+02</totfact>
</mgrwt>
</event>
<event>
 4    1  0.4758708E-002  0.4578185E+03  0.7818608E-02  0.1025416E+00
         21   -1    0    0  501  502  0.00000000000E+00  0.00000000000E+00  0.89700906931E+03  0.89700906931E+03  0.00000000000E+00 0.  1.
         21   -1    0    0  502  503 -0.00000000000E+00 -0.00000000000E+00 -0.37661230625E+03  0.37661230625E+03  0.00000000000E+00 0.  1.
    9000007    1    1    2  501    0  0.13459495590E+03 -0.17743170457E+03  0.65253075631E+03  0.79711617715E+03  0.40000000000E+03 0.  1.
   -9000007    1    1    2    0  503 -0.13459495590E+03  0.17743170457E+03 -0.13213399325E+03  0.47650519841E+03  0.40000000000E+03 0.  1.
<mgrwt>
<rscale>  2 0.45781854E+03</rscale>
<asrwt>0</asrwt>
<pdfrwt beam="1">  1       21 0.13800140E+00 0.45781854E+03</pdfrwt>
<pdfrwt beam="2">  1       21 0.57940355E-01 0.45781854E+03</pdfrwt>
<totfact> 0.87256776E+02</totfact>
</mgrwt>
</event>
<event>
 4    1  0.4758708E-002  0.4795160E+03  0.7818608E-02  0.1019268E+00
         21   -1    0    0  501  502  0.00000000000E+00  0.00000000000E+00  0.71915671611E+03  0.71915671611E+03  0.00000000000E+00 0. -1.
         21   -1    0    0  502  503 -0.00000000000E+00 -0.00000000000E+00 -0.40809132376E+03  0.40809132376E+03  0.00000000000E+00 0. -1.
    9000007    1    1    2  501    0  0.99954043981E+02  0.24483618267E+03  0.41779949705E+03  0.63599684511E+03  0.40000000000E+03 0. -1.
   -9000007    1    1    2    0  503 -0.99954043981E+02 -0.24483618267E+03 -0.10673410471E+03  0.49125119477E+03  0.40000000000E+03 0. -1.
<mgrwt>
<rscale>  2 0.47951597E+03</rscale>
<asrwt>0</asrwt>
<pdfrwt beam="1">  1       21 0.11063949E+00 0.47951597E+03</pdfrwt>
<pdfrwt beam="2">  1       21 0.62783280E-01 0.47951597E+03</pdfrwt>
<totfact> 0.12775927E+03</totfact>
</mgrwt>
</event>
<event>
 4    1  0.4758708E-002  0.4224048E+03  0.7818608E-02  0.1036286E+00
         21   -1    0    0  501  502  0.00000000000E+00  0.00000000000E+00  0.62888092329E+03  0.62888092329E+03  0.00000000000E+00 0.  1.
         21   -1    0    0  502  503 -0.00000000000E+00 -0.00000000000E+00 -0.38717273558E+03  0.38717273558E+03  0.00000000000E+00 0. -1.
    9000007    1    1    2  501    0  0.11558514337E+03  0.71175003475E+02  0.38346104605E+03  0.57049818608E+03  0.40000000000E+03 0.  1.
   -9000007    1    1    2    0  503 -0.11558514337E+03 -0.71175003475E+02 -0.14175285834E+03  0.44555547279E+03  0.40000000000E+03 0. -1.
<mgrwt>
<rscale>  2 0.42240479E+03</rscale>
<asrwt>0</asrwt>
<pdfrwt beam="1">  1       21 0.96750911E-01 0.42240479E+03</pdfrwt>
<pdfrwt beam="2">  1       21 0.59565036E-01 0.42240479E+03</pdfrwt>
<totfact> 0.20372137E+03</totfact>
</mgrwt>
</event>
<event>
 4    1  0.4758708E-002  0.4488855E+03  0.7818608E-02  0.1028055E+00
         21   -1    0    0  503  502  0.00000000000E+00  0.00000000000E+00  0.33631032655E+03  0.33631032655E+03  0.00000000000E+00 0. -1.
         21   -1    0    0  501  503 -0.00000000000E+00 -0.00000000000E+00 -0.79454445344E+03  0.79454445344E+03  0.00000000000E+00 0. -1.
    9000007    1    1    2  501    0  0.10194026220E+03  0.17636987647E+03 -0.50951903796E+03  0.67904918851E+03  0.40000000000E+03 0. -1.
   -9000007    1    1    2    0  502 -0.10194026220E+03 -0.17636987647E+03  0.51284911061E+02  0.45180559147E+03  0.40000000000E+03 0. -1.
<mgrwt>
<rscale>  2 0.44888545E+03</rscale>
<asrwt>0</asrwt>
<pdfrwt beam="1">  1       21 0.51740051E-01 0.44888545E+03</pdfrwt>
<pdfrwt beam="2">  1       21 0.12223761E+00 0.44888545E+03</pdfrwt>
<totfact> 0.15319413E+03</totfact>
</mgrwt>
</event>
<event>
 4    1  0.4758708E-002  0.6989460E+03  0.7818608E-02  0.9719036E-01
         21   -1    0    0  503  502  0.00000000000E+00  0.00000000000E+00  0.12390784563E+04  0.12390784563E+04  0.00000000000E+00 0.  1.
         21   -1    0    0  501  503 -0.00000000000E+00 -0.00000000000E+00 -0.55313681376E+03  0.55313681376E+03  0.00000000000E+00 0.  1.
    9000007    1    1    2  501    0  0.55828992797E+03  0.12976092740E+03 -0.13727878776E+03  0.71229980171E+03  0.40000000000E+03 0.  1.
   -9000007    1    1    2    0  502 -0.55828992797E+03 -0.12976092740E+03  0.82322043034E+03  0.10799154684E+04  0.40000000000E+03 0.  1.
<mgrwt>
<rscale>  2 0.69894602E+03</rscale>
<asrwt>0</asrwt>
<pdfrwt beam="1">  1       21 0.19062745E+00 0.69894602E+03</pdfrwt>
<pdfrwt beam="2">  1       21 0.85097972E-01 0.69894602E+03</pdfrwt>
<totfact> 0.13357381E+02</totfact>
</mgrwt>
</event>
<event>
 4    1  0.4758708E-002  0.5116578E+03  0.7818608E-02  0.1010780E+00
         21   -1    0    0  503  502  0.00000000000E+00  0.00000000000E+00  0.18435502777E+04  0.18435502777E+04  0.00000000000E+00 0. -1.
         21   -1    0    0  501  503 -0.00000000000E+00 -0.00000000000E+00 -0.14312286755E+03  0.14312286755E+03  0.00000000000E+00 0. -1.
    9000007    1    1    2  501    0  0.11573429299E+03  0.29732024098E+03  0.93799367988E+03  0.10684689494E+04  0.40000000000E+03 0. -1.
   -9000007    1    1    2    0  502 -0.11573429299E+03 -0.29732024098E+03  0.76243373028E+03  0.91820419588E+03  0.40000000000E+03 0. -1.
<mgrwt>
<rscale>  2 0.51165785E+03</rscale>
<asrwt>0</asrwt>
<pdfrwt beam="1">  1       21 0.28362310E+00 0.51165785E+03</pdfrwt>
<pdfrwt beam="2">  1       21 0.22018904E-01 0.51165785E+03</pdfrwt>
<totfact> 0.63820656E+02</totfact>
</mgrwt>
</event>
<event>
 4    1  0.4758708E-002  0.5141034E+03  0.7818608E-02  0.1010162E+00
         21   -1    0    0  503  502  0.00000000000E+00  0.00000000000E+00  0.24269535249E+03  0.24269535249E+03  0.00000000000E+00 0. -1.
         21   -1    0    0  501  503 -0.00000000000E+00 -0.00000000000E+00 -0.14240522709E+04  0.14240522709E+04  0.00000000000E+00 0.  1.
    9000007    1    1    2  501    0 -0.32192338945E+03  0.25838707224E+02 -0.99489519387E+03  0.11198744368E+04  0.40000000000E+03 0.  1.
   -9000007    1    1    2    0  502  0.32192338945E+03 -0.25838707224E+02 -0.18646172452E+03  0.54687318656E+03  0.40000000000E+03 0. -1.
<mgrwt>
<rscale>  2 0.51410340E+03</rscale>
<asrwt>0</asrwt>
<pdfrwt beam="1">  1       21 0.37337746E-01 0.51410340E+03</pdfrwt>
<pdfrwt beam="2">  1       21 0.21908497E+00 0.51410340E+03</pdfrwt>
<totfact> 0.56185204E+02</totfact>
</mgrwt>
</event>
<event>
 4    1  0.4758708E-002  0.5329293E+03  0.7818608E-02  0.1005524E+00
         21   -1    0    0  503  502  0.00000000000E+00  0.00000000000E+00  0.17770549270E+04  0.17770549270E+04  0.00000000000E+00 0. -1.
         21   -1    0    0  501  503 -0.00000000000E+00 -0.00000000000E+00 -0.22437735392E+03  0.22437735392E+03  0.00000000000E+00 0.  1.
    9000007    1    1    2  501    0  0.15393640574E+03  0.31672894289E+03  0.23957239408E+03  0.58430178186E+03  0.40000000000E+03 0.  1.
   -9000007    1    1    2    0  502 -0.15393640574E+03 -0.31672894289E+03  0.13131051790E+04  0.14171304990E+04  0.40000000000E+03 0. -1.
<mgrwt>
<rscale>  2 0.53292930E+03</rscale>
<asrwt>0</asrwt>
<pdfrwt beam="1">  1       21 0.27339306E+00 0.53292930E+03</pdfrwt>
<pdfrwt beam="2">  1       21 0.34519594E-01 0.53292930E+03</pdfrwt>
<totfact> 0.30003742E+02</totfact>
</mgrwt>
</event>
<event>
 4    1  0.4758708E-002  0.4244686E+03  0.7818608E-02  0.1035622E+00
         21   -1    0    0  503  502  0.00000000000E+00  0.00000000000E+00  0.57955274876E+03  0.57955274876E+03  0.00000000000E+00 0. -1.
         21   -1    0    0  501  503 -0.00000000000E+00 -0.00000000000E+00 -0.50845790343E+03  0.50845790343E+03  0.00000000000E+00 0. -1.
    9000007    1    1    2  501    0 -0.80315231941E+02  0.11714547589E+03 -0.30356257045E+03  0.52184656095E+03  0.40000000000E+03 0. -1.
   -9000007    1    1    2    0  502  0.80315231941E+02 -0.11714547589E+03  0.37465741578E+03  0.56616409123E+03  0.40000000000E+03 0. -1.
<mgrwt>
<rscale>  2 0.42446861E+03</rscale>
<asrwt>0</asrwt>
<pdfrwt beam="1">  1       21 0.89161961E-01 0.42446861E+03</pdfrwt>
<pdfrwt beam="2">  1       21 0.78224293E-01 0.42446861E+03</pdfrwt>
<totfact> 0.13430903E+03</totfact>
</mgrwt>
</event>
<event>
 4    1  0.4758708E-002  0.5020594E+03  0.7818608E-02  0.1013243E+00
         21   -1    0    0  501  502  0.00000000000E+00  0.00000000000E+00  0.16109066639E+03  0.16109066639E+03  0.00000000000E+00 0. -1.
         21   -1    0    0  502  503 -0.00000000000E+00 -0.00000000000E+00 -0.15693584505E+04  0.15693584505E+04  0.00000000000E+00 0.  1.
    9000007    1    1    2  501    0  0.13429797921E+03 -0.27208025177E+03 -0.75111505549E+03  0.90345859740E+03  0.40000000000E+03 0.  1.
   -9000007    1    1    2    0  503 -0.13429797921E+03  0.27208025177E+03 -0.65715272865E+03  0.82699051953E+03  0.40000000000E+03 0.  1.
<mgrwt>
<rscale>  2 0.50205937E+03</rscale>
<asrwt>0</asrwt>
<pdfrwt beam="1">  1       21 0.24783178E-01 0.50205937E+03</pdfrwt>
<pdfrwt beam="2">  1       21 0.24143977E+00 0.50205937E+03</pdfrwt>
<totfact> 0.92389784E+02</totfact>
</mgrwt>
</event>
<event>
 4    1  0.4758708E-002  0.4432934E+03  0.7818608E-02  0.1029741E+00
         21   -1    0    0  503  502  0.00000000000E+00  0.00000000000E+00  0.41280873382E+03  0.41280873382E+03  0.00000000000E+00 0. -1.
         21   -1    0    0  501  503 -0.00000000000E+00 -0.00000000000E+00 -0.56960158508E+03  0.56960158508E+03  0.00000000000E+00 0. -1.
    9000007    1    1    2  501    0  0.10896062883E+03  0.15696051042E+03 -0.27748719436E+03  0.52298007945E+03  0.40000000000E+03 0. -1.
   -9000007    1    1    2    0  502 -0.10896062883E+03 -0.15696051042E+03  0.12069434310E+03  0.45943023945E+03  0.40000000000E+03 0. -1.
<mgrwt>
<rscale>  2 0.44329338E+03</rscale>
<asrwt>0</asrwt>
<pdfrwt beam="1">  1       21 0.63509036E-01 0.44329338E+03</pdfrwt>
<pdfrwt beam="2">  1       21 0.87631013E-01 0.44329338E+03</pdfrwt>
<totfact> 0.22209700E+03</totfact>
</mgrwt>
</event>
<event>
 4    1  0.4758708E-002  0.4350151E+03  0.7818608E-02  0.1032287E+00
         21   -1    0    0  501  502  0.00000000000E+00  0.00000000000E+00  0.60016514343E+03  0.60016514343E+03  0.00000000000E+00 0. -1.
         21   -1    0    0  502  503 -0.00000000000E+00 -0.00000000000E+00 -0.37755226804E+03  0.37755226804E+03  0.00000000000E+00 0. -1.
    9000007    1    1    2  501    0 -0.10803253145E+02 -0.17065010257E+03  0.30979567190E+03  0.53405198821E+03  0.40000000000E+03 0. -1.
   -9000007    1    1    2    0  503  0.10803253145E+02  0.17065010257E+03 -0.87182796513E+02  0.44366542325E+03  0.40000000000E+03 0. -1.
<mgrwt>
<rscale>  2 0.43501514E+03</rscale>
<asrwt>0</asrwt>
<pdfrwt beam="1">  1       21 0.92333099E-01 0.43501514E+03</pdfrwt>
<pdfrwt beam="2">  1       21 0.58084964E-01 0.43501514E+03</pdfrwt>
<totfact> 0.23949019E+03</totfact>
</mgrwt>
</event>
<event>
 4    1  0.4758708E-002  0.4862463E+03  0.7818608E-02  0.1017432E+00
         21   -1    0    0  503  502  0.00000000000E+00  0.00000000000E+00  0.24752109065E+03  0.24752109065E+03  0.00000000000E+00 0. -1.
         21   -1    0    0  501  503 -0.00000000000E+00 -0.00000000000E+00 -0.10270647913E+04  0.10270647913E+04  0.00000000000E+00 0. -1.
    9000007    1    1    2  501    0 -0.18198902082E+03  0.20812371287E+03 -0.55833301441E+03  0.74038587138E+03  0.40000000000E+03 0. -1.
   -9000007    1    1    2    0  502  0.18198902082E+03 -0.20812371287E+03 -0.22121068621E+03  0.53420001053E+03  0.40000000000E+03 0. -1.
<mgrwt>
<rscale>  2 0.48624632E+03</rscale>
<asrwt>0</asrwt>
<pdfrwt beam="1">  1       21 0.38080168E-01 0.48624632E+03</pdfrwt>
<pdfrwt beam="2">  1       21 0.15800997E+00 0.48624632E+03</pdfrwt>
<totfact> 0.14497309E+03</totfact>
</mgrwt>
</event>
<event>
 4    1  0.4758708E-002  0.4053295E+03  0.7818608E-02  0.1041950E+00
         21   -1    0    0  503  502  0.00000000000E+00  0.00000000000E+00  0.10784727719E+04  0.10784727719E+04  0.00000000000E+00 0.  1.
         21   -1    0    0  501  503 -0.00000000000E+00 -0.00000000000E+00 -0.26163283090E+03  0.26163283090E+03  0.00000000000E+00 0.  1.
    9000007    1    1    2  501    0 -0.61417874189E+02  0.22800992644E+02 -0.24655267901E+02  0.40607871499E+03  0.40000000000E+03 0.  1.
   -9000007    1    1    2    0  502  0.61417874189E+02 -0.22800992644E+02  0.84149520886E+03  0.93402688777E+03  0.40000000000E+03 0.  1.
<mgrwt>
<rscale>  2 0.40532955E+03</rscale>
<asrwt>0</asrwt>
<pdfrwt beam="1">  1       21 0.16591889E+00 0.40532955E+03</pdfrwt>
<pdfrwt beam="2">  1       21 0.40251205E-01 0.40532955E+03</pdfrwt>
<totfact> 0.11684060E+03</totfact>
</mgrwt>
</event>
<event>
 4    1  0.4758708E-002  0.4050960E+03  0.7818608E-02  0.1042029E+00
         21   -1    0    0  503  502  0.00000000000E+00  0.00000000000E+00  0.12115472552E+04  0.12115472552E+04  0.00000000000E+00 0.  1.
         21   -1    0    0  501  503 -0.00000000000E+00 -0.00000000000E+00 -0.26711694730E+03  0.26711694730E+03  0.00000000000E+00 0.  1.
    9000007    1    1    2  501    0  0.25129657307E+02 -0.58917443344E+02 -0.46858527794E+02  0.40779711430E+03  0.40000000000E+03 0.  1.
   -9000007    1    1    2    0  502 -0.25129657307E+02  0.58917443344E+02  0.99128883571E+03  0.10708670882E+04  0.40000000000E+03 0.  1.
<mgrwt>
<rscale>  2 0.40509599E+03</rscale>
<asrwt>0</asrwt>
<pdfrwt beam="1">  1       21 0.18639188E+00 0.40509599E+03</pdfrwt>
<pdfrwt beam="2">  1       21 0.41094916E-01 0.40509599E+03</pdfrwt>
<totfact> 0.80077802E+02</totfact>
</mgrwt>
</event>
<event>
 4    1  0.4758708E-002  0.4000627E+03  0.7818608E-02  0.1043758E+00
         21   -1    0    0  501  502  0.00000000000E+00  0.00000000000E+00  0.20924541372E+03  0.20924541372E+03  0.00000000000E+00 0.  1.
         21   -1    0    0  502  503 -0.00000000000E+00 -0.00000000000E+00 -0.79435230314E+03  0.79435230314E+03  0.00000000000E+00 0.  1.
    9000007    1    1    2  501    0 -0.56507396957E+01 -0.42662506292E+01 -0.19591674471E+03  0.44545875523E+03  0.40000000000E+03 0.  1.
   -9000007    1    1    2    0  503  0.56507396957E+01  0.42662506292E+01 -0.38919014471E+03  0.55813896163E+03  0.40000000000E+03 0.  1.
<mgrwt>
<rscale>  2 0.40006266E+03</rscale>
<asrwt>0</asrwt>
<pdfrwt beam="1">  1       21 0.32191603E-01 0.40006266E+03</pdfrwt>
<pdfrwt beam="2">  1       21 0.12220804E+00 0.40006266E+03</pdfrwt>
<totfact> 0.41632648E+03</totfact>
</mgrwt>
</event>
<event>
 4    1  0.4758708E-002  0.4764282E+03  0.7818608E-02  0.1020121E+00
         21   -1    0    0  503  502  0.00000000000E+00  0.00000000000E+00  0.43520106620E+03  0.43520106620E+03  0.00000000000E+00 0. -1.
         21   -1    0    0  501  503 -0.00000000000E+00 -0.00000000000E+00 -0.60549636560E+03  0.60549636560E+03  0.00000000000E+00 0. -1.
    9000007    1    1    2  501    0  0.15226478023E+03  0.20928283260E+03 -0.27888413821E+03  0.55205093050E+03  0.40000000000E+03 0. -1.
   -9000007    1    1    2    0  502 -0.15226478023E+03 -0.20928283260E+03  0.10858883880E+03  0.48864650130E+03  0.40000000000E+03 0. -1.
<mgrwt>
<rscale>  2 0.47642824E+03</rscale>
<asrwt>0</asrwt>
<pdfrwt beam="1">  1       21 0.66954010E-01 0.47642824E+03</pdfrwt>
<pdfrwt beam="2">  1       21 0.93153287E-01 0.47642824E+03</pdfrwt>
<totfact> 0.16874508E+03</totfact>
</mgrwt>
</event>
<event>
 4    1  0.4758708E-002  0.4119408E+03  0.7818608E-02  0.1039722E+00
         21   -1    0    0  503  502  0.00000000000E+00  0.00000000000E+00  0.11501286764E+04  0.11501286764E+04  0.00000000000E+00 0. -1.
         21   -1    0    0  501  503 -0.00000000000E+00 -0.00000000000E+00 -0.25112587041E+03  0.25112587041E+03  0.00000000000E+00 0. -1.
    9000007    1    1    2  501    0  0.57365347622E+02  0.80027769543E+02 -0.46699813276E+00  0.41194106993E+03  0.40000000000E+03 0. -1.
   -9000007    1    1    2    0  502 -0.57365347622E+02 -0.80027769543E+02  0.89946980416E+03  0.98931347691E+03  0.40000000000E+03 0. -1.
<mgrwt>
<rscale>  2 0.41194081E+03</rscale>
<asrwt>0</asrwt>
<pdfrwt beam="1">  1       21 0.17694287E+00 0.41194081E+03</pdfrwt>
<pdfrwt beam="2">  1       21 0.38634750E-01 0.41194081E+03</pdfrwt>
<totfact> 0.10547097E+03</totfact>
</mgrwt>
</event>
<event>
 4    1  0.4758708E-002  0.6494989E+03  0.7818608E-02  0.9807720E-01
         21   -1    0    0  501  502  0.00000000000E+00  0.00000000000E+00  0.87680115459E+03  0.87680115459E+03  0.00000000000E+00 0. -1.
         21   -1    0    0  502  503 -0.00000000000E+00 -0.00000000000E+00 -0.54905255401E+03  0.54905255401E+03  0.00000000000E+00 0.  1.
    9000007    1    1    2  501    0 -0.26303891026E+03 -0.43892978978E+03  0.41464036132E+03  0.77056826946E+03  0.40000000000E+03 0.  1.
   -9000007    1    1    2    0  503  0.26303891026E+03  0.43892978978E+03 -0.86891760737E+02  0.65528543914E+03  0.40000000000E+03 0. -1.
<mgrwt>
<rscale>  2 0.64949891E+03</rscale>
<asrwt>0</asrwt>
<pdfrwt beam="1">  1       21 0.13489249E+00 0.64949891E+03</pdfrwt>
<pdfrwt beam="2">  1       21 0.84469624E-01 0.64949891E+03</pdfrwt>
<totfact> 0.36817385E+02</totfact>
</mgrwt>
</event>
<event>
 4    1  0.4758708E-002  0.6260832E+03  0.7818608E-02  0.9852722E-01
         21   -1    0    0  501  502  0.00000000000E+00  0.00000000000E+00  0.21939706344E+04  0.21939706344E+04  0.00000000000E+00 0. -1.
         21   -1    0    0  502  503 -0.00000000000E+00 -0.00000000000E+00 -0.61758010181E+03  0.61758010181E+03  0.00000000000E+00 0.  1.
    9000007    1    1    2  501    0  0.40558799478E+03 -0.25976635650E+03  0.19733111058E+04  0.20702504442E+04  0.40000000000E+03 0. -1.
   -9000007    1    1    2    0  503 -0.40558799478E+03  0.25976635650E+03 -0.39692057320E+03  0.74130029200E+03  0.40000000000E+03 0.  1.
<mgrwt>
<rscale>  2 0.62608321E+03</rscale>
<asrwt>0</asrwt>
<pdfrwt beam="1">  1       21 0.33753394E+00 0.62608321E+03</pdfrwt>
<pdfrwt beam="2">  1       21 0.95012325E-01 0.62608321E+03</pdfrwt>
<totfact> 0.12563518E+01</totfact>
</mgrwt>
</event>
<event>
 4    1  0.4758708E-002  0.5192341E+03  0.7818608E-02  0.1008877E+00
         21   -1    0    0  501  502  0.00000000000E+00  0.00000000000E+00  0.58330248517E+03  0.58330248517E+03  0.00000000000E+00 0.  1.
         21   -1    0    0  502  503 -0.00000000000E+00 -0.00000000000E+00 -0.46286556456E+03  0.46286556456E+03  0.00000000000E+00 0.  1.
    9000007    1    1    2  501    0 -0.26267668222E+03 -0.20150675156E+03  0.40424103291E+02  0.52080525961E+03  0.40000000000E+03 0.  1.
   -9000007    1    1    2    0  503  0.26267668222E+03  0.20150675156E+03  0.80012817316E+02  0.52536279012E+03  0.40000000000E+03 0.  1.
<mgrwt>
<rscale>  2 0.51923406E+03</rscale>
<asrwt>0</asrwt>
<pdfrwt beam="1">  1       21 0.89738844E-01 0.51923406E+03</pdfrwt>
<pdfrwt beam="2">  1       21 0.71210087E-01 0.51923406E+03</pdfrwt>
<totfact> 0.15818896E+03</totfact>
</mgrwt>
</event>
<event>
 4    1  0.4758708E-002  0.5104100E+03  0.7818608E-02  0.1011097E+00
         21   -1    0    0  501  502  0.00000000000E+00  0.00000000000E+00  0.22145707552E+04  0.22145707552E+04  0.00000000000E+00 0. -1.
         21   -1    0    0  502  503 -0.00000000000E+00 -0.00000000000E+00 -0.44740667820E+03  0.44740667820E+03  0.00000000000E+00 0.  1.
    9000007    1    1    2  501    0 -0.31339993796E+03  0.47946502682E+02  0.20262699479E+04  0.20895665316E+04  0.40000000000E+03 0. -1.
   -9000007    1    1    2    0  503  0.31339993796E+03 -0.47946502682E+02 -0.25910587086E+03  0.57241090184E+03  0.40000000000E+03 0.  1.
<mgrwt>
<rscale>  2 0.51041002E+03</rscale>
<asrwt>0</asrwt>
<pdfrwt beam="1">  1       21 0.34070319E+00 0.51041002E+03</pdfrwt>
<pdfrwt beam="2">  1       21 0.68831798E-01 0.51041002E+03</pdfrwt>
<totfact> 0.27233649E+01</totfact>
</mgrwt>
</event>
<event>
 4    1  0.4758708E-002  0.4391014E+03  0.7818608E-02  0.1031023E+00
         21   -1    0    0  501  502  0.00000000000E+00  0.00000000000E+00  0.13494691813E+04  0.13494691813E+04  0.00000000000E+00 0.  1.
         21   -1    0    0  502  503 -0.00000000000E+00 -0.00000000000E+00 -0.46276834770E+03  0.46276834770E+03  0.00000000000E+00 0. -1.
    9000007    1    1    2  501    0 -0.16605084942E+03 -0.72368088578E+02  0.11967121969E+04  0.12747274638E+04  0.40000000000E+03 0.  1.
   -9000007    1    1    2    0  503  0.16605084942E+03  0.72368088578E+02 -0.31001136327E+03  0.53751006520E+03  0.40000000000E+03 0. -1.
<mgrwt>
<rscale>  2 0.43910138E+03</rscale>
<asrwt>0</asrwt>
<pdfrwt beam="1">  1       21 0.20761064E+00 0.43910138E+03</pdfrwt>
<pdfrwt beam="2">  1       21 0.71195131E-01 0.43910138E+03</pdfrwt>
<totfact> 0.17345772E+02</totfact>
</mgrwt>
</event>
<event>
 4    1  0.4758708E-002  0.4824551E+03  0.7818608E-02  0.1018463E+00
         21   -1    0    0  503  502  0.00000000000E+00  0.00000000000E+00  0.80879062379E+03  0.80879062379E+03  0.00000000000E+00 0. -1.
         21   -1    0    0  501  503 -0.00000000000E+00 -0.00000000000E+00 -0.50636714198E+03  0.50636714198E+03  0.00000000000E+00 0.  1.
    9000007    1    1    2  501    0  0.97656662653E+02 -0.25144805425E+03 -0.28082046970E+03  0.55823210580E+03  0.40000000000E+03 0.  1.
   -9000007    1    1    2    0  502 -0.97656662653E+02  0.25144805425E+03  0.58324395151E+03  0.75692565997E+03  0.40000000000E+03 0. -1.
<mgrwt>
<rscale>  2 0.48245513E+03</rscale>
<asrwt>0</asrwt>
<pdfrwt beam="1">  1       21 0.12442933E+00 0.48245513E+03</pdfrwt>
<pdfrwt beam="2">  1       21 0.77902637E-01 0.48245513E+03</pdfrwt>
<totfact> 0.58288545E+02</totfact>
</mgrwt>
</event>
<event>
 4    1  0.4758708E-002  0.4789359E+03  0.7818608E-02  0.1019428E+00
         21   -1    0    0  501  502  0.00000000000E+00  0.00000000000E+00  0.19525302398E+03  0.19525302398E+03  0.00000000000E+00 0. -1.
         21   -1    0    0  502  503 -0.00000000000E+00 -0.00000000000E+00 -0.13625713689E+04  0.13625713689E+04  0.00000000000E+00 0. -1.
    9000007    1    1    2  501    0  0.86941583876E+02  0.24863775436E+03 -0.29449441613E+03  0.56223352180E+03  0.40000000000E+03 0. -1.
   -9000007    1    1    2    0  503 -0.86941583876E+02 -0.24863775436E+03 -0.87282392884E+03  0.99559087112E+03  0.40000000000E+03 0. -1.
<mgrwt>
<rscale>  2 0.47893587E+03</rscale>
<asrwt>0</asrwt>
<pdfrwt beam="1">  1       21 0.30038926E-01 0.47893587E+03</pdfrwt>
<pdfrwt beam="2">  1       21 0.20962637E+00 0.47893587E+03</pdfrwt>
<totfact> 0.10191404E+03</totfact>
</mgrwt>
</event>
<event>
 4    1  0.4758708E-002  0.4639497E+03  0.7818608E-02  0.1023642E+00
         21   -1    0    0  501  502  0.00000000000E+00  0.00000000000E+00  0.11832729942E+04  0.11832729942E+04  0.00000000000E+00 0.  1.
         21   -1    0    0  502  503 -0.00000000000E+00 -0.00000000000E+00 -0.18733932617E+03  0.18733932617E+03  0.00000000000E+00 0. -1.
    9000007    1    1    2  501    0 -0.17589663757E+03 -0.15591562532E+03  0.61463143626E+03  0.77007863999E+03  0.40000000000E+03 0.  1.
   -9000007    1    1    2    0  503  0.17589663757E+03  0.15591562532E+03  0.38130223179E+03  0.60053368040E+03  0.40000000000E+03 0. -1.
<mgrwt>
<rscale>  2 0.46394968E+03</rscale>
<asrwt>0</asrwt>
<pdfrwt beam="1">  1       21 0.18204199E+00 0.46394968E+03</pdfrwt>
<pdfrwt beam="2">  1       21 0.28821436E-01 0.46394968E+03</pdfrwt>
<totfact> 0.17104154E+03</totfact>
</mgrwt>
</event>
<event>
 4    1  0.4758708E-002  0.4150400E+03  0.7818608E-02  0.1038693E+00
         21   -1    0    0  501  502  0.00000000000E+00  0.00000000000E+00  0.22755897335E+03  0.22755897335E+03  0.00000000000E+00 0.  1.
         21   -1    0    0  502  503 -0.00000000000E+00 -0.00000000000E+00 -0.23520786524E+04  0.23520786524E+04  0.00000000000E+00 0.  1.
    9000007    1    1    2  501    0  0.22142387843E+02 -0.10848018944E+03 -0.84595681148E-01  0.41504005107E+03  0.40000000000E+03 0.  1.
   -9000007    1    1    2    0  503 -0.22142387843E+02  0.10848018944E+03 -0.21244350834E+04  0.21645975747E+04  0.40000000000E+03 0.  1.
<mgrwt>
<rscale>  2 0.41504004E+03</rscale>
<asrwt>0</asrwt>
<pdfrwt beam="1">  1       21 0.35009072E-01 0.41504004E+03</pdfrwt>
<pdfrwt beam="2">  1       21 0.36185826E+00 0.41504004E+03</pdfrwt>
<totfact> 0.90834032E+01</totfact>
</mgrwt>
</event>
<event>
 4    1  0.4758708E-002  0.4840008E+03  0.7818608E-02  0.1018041E+00
         21   -1    0    0  503  502  0.00000000000E+00  0.00000000000E+00  0.24122458292E+03  0.24122458292E+03  0.00000000000E+00 0. -1.
         21   -1    0    0  501  503 -0.00000000000E+00 -0.00000000000E+00 -0.11059587992E+04  0.11059587992E+04  0.00000000000E+00 0.  1.
    9000007    1    1    2  501    0 -0.27174819610E+03  0.20240398500E+02 -0.66757024234E+03  0.82456460285E+03  0.40000000000E+03 0.  1.
   -9000007    1    1    2    0  502  0.27174819610E+03 -0.20240398500E+02 -0.19716397392E+03  0.52261877925E+03  0.40000000000E+03 0. -1.
<mgrwt>
<rscale>  2 0.48400078E+03</rscale>
<asrwt>0</asrwt>
<pdfrwt beam="1">  1       21 0.37111474E-01 0.48400078E+03</pdfrwt>
<pdfrwt beam="2">  1       21 0.17014751E+00 0.48400078E+03</pdfrwt>
<totfact> 0.12415883E+03</totfact>
</mgrwt>
</event>
<event>
 4    1  0.4758708E-002  0.7085088E+03  0.7818608E-02  0.9702791E-01
         21   -1    0    0  501  502  0.00000000000E+00  0.00000000000E+00  0.85143680785E+03  0.85143680785E+03  0.00000000000E+00 0.  1.
         21   -1    0    0  502  503 -0.00000000000E+00 -0.00000000000E+00 -0.59251040938E+03  0.59251040938E+03  0.00000000000E+00 0.  1.
    9000007    1    1    2  501    0  0.48970663101E+03 -0.31964374719E+03  0.78634704354E+02  0.71285912093E+03  0.40000000000E+03 0.  1.
   -9000007    1    1    2    0  503 -0.48970663101E+03  0.31964374719E+03  0.18029169412E+03  0.73108809629E+03  0.40000000000E+03 0.  1.
<mgrwt>
<rscale>  2 0.70850879E+03</rscale>
<asrwt>0</asrwt>
<pdfrwt beam="1">  1       21 0.13099028E+00 0.70850879E+03</pdfrwt>
<pdfrwt beam="2">  1       21 0.91155448E-01 0.70850879E+03</pdfrwt>
<totfact> 0.32595378E+02</totfact>
</mgrwt>
</event>
<event>
 4    1  0.4758708E-002  0.4729825E+03  0.7818608E-02  0.1021082E+00
         21   -1    0    0  501  502  0.00000000000E+00  0.00000000000E+00  0.20976681905E+04  0.20976681905E+04  0.00000000000E+00 0. -1.
         21   -1    0    0  502  503 -0.00000000000E+00 -0.00000000000E+00 -0.13210923570E+03  0.13210923570E+03  0.00000000000E+00 0. -1.
    9000007    1    1    2  501    0  0.21057318369E+02  0.25153329963E+03  0.49333495681E+03  0.68344113944E+03  0.40000000000E+03 0. -1.
   -9000007    1    1    2    0  503 -0.21057318369E+02 -0.25153329963E+03  0.14722239980E+04  0.15463362868E+04  0.40000000000E+03 0. -1.
<mgrwt>
<rscale>  2 0.47298246E+03</rscale>
<asrwt>0</asrwt>
<pdfrwt beam="1">  1       21 0.32271816E+00 0.47298246E+03</pdfrwt>
<pdfrwt beam="2">  1       21 0.20324499E-01 0.47298246E+03</pdfrwt>
<totfact> 0.44055532E+02</totfact>
</mgrwt>
</event>
<event>
 4    1  0.4758708E-002  0.4007956E+03  0.7818608E-02  0.1043505E+00
         21   -1    0    0  503  502  0.00000000000E+00  0.00000000000E+00  0.10352958153E+04  0.10352958153E+04  0.00000000000E+00 0.  1.
         21   -1    0    0  501  503 -0.00000000000E+00 -0.00000000000E+00 -0.41407704227E+03  0.41407704227E+03  0.00000000000E+00 0.  1.
    9000007    1    1    2  501    0  0.22529493263E+02  0.11381813267E+02 -0.26243645381E+03  0.47907203636E+03  0.40000000000E+03 0.  1.
   -9000007    1    1    2    0  502 -0.22529493263E+02 -0.11381813267E+02  0.88365522686E+03  0.97030082124E+03  0.40000000000E+03 0.  1.
<mgrwt>
<rscale>  2 0.40079561E+03</rscale>
<asrwt>0</asrwt>
<pdfrwt beam="1">  1       21 0.15927628E+00 0.40079561E+03</pdfrwt>
<pdfrwt beam="2">  1       21 0.63704161E-01 0.40079561E+03</pdfrwt>
<totfact> 0.49397154E+02</totfact>
</mgrwt>
</event>
<event>
 4    1  0.4758708E-002  0.4013340E+03  0.7818608E-02  0.1043319E+00
         21   -1    0    0  501  502  0.00000000000E+00  0.00000000000E+00  0.13318371446E+04  0.13318371446E+04  0.00000000000E+00 0.  1.
         21   -1    0    0  502  503 -0.00000000000E+00 -0.00000000000E+00 -0.12256426492E+03  0.12256426492E+03  0.00000000000E+00 0.  1.
    9000007    1    1    2  501    0 -0.31902932412E+02  0.71536720313E+01  0.68841695605E+03  0.79686063869E+03  0.40000000000E+03 0.  1.
   -9000007    1    1    2    0  503  0.31902932412E+02 -0.71536720313E+01  0.52085592367E+03  0.65754077086E+03  0.40000000000E+03 0.  1.
<mgrwt>
<rscale>  2 0.40133399E+03</rscale>
<asrwt>0</asrwt>
<pdfrwt beam="1">  1       21 0.20489801E+00 0.40133399E+03</pdfrwt>
<pdfrwt beam="2">  1       21 0.18856042E-01 0.40133399E+03</pdfrwt>
<totfact> 0.27928770E+03</totfact>
</mgrwt>
</event>
<event>
 4    1  0.4758708E-002  0.1030674E+04  0.7818608E-02  0.9275527E-01
         21   -1    0    0  503  502  0.00000000000E+00  0.00000000000E+00  0.14930801185E+04  0.14930801185E+04  0.00000000000E+00 0.  1.
         21   -1    0    0  501  503 -0.00000000000E+00 -0.00000000000E+00 -0.21516740070E+04  0.21516740070E+04  0.00000000000E+00 0. -1.
    9000007    1    1    2  501    0  0.84454359768E+03 -0.43478197291E+03 -0.18202406634E+04  0.20917852005E+04  0.40000000000E+03 0. -1.
   -9000007    1    1    2    0  502 -0.84454359768E+03  0.43478197291E+03  0.11616467749E+04  0.15529689250E+04  0.40000000000E+03 0.  1.
<mgrwt>
<rscale>  2 0.10306742E+04</rscale>
<asrwt>0</asrwt>
<pdfrwt beam="1">  1       21 0.22970464E+00 0.10306742E+04</pdfrwt>
<pdfrwt beam="2">  1       21 0.33102677E+00 0.10306742E+04</pdfrwt>
<totfact> 0.96447576E-01</totfact>
</mgrwt>
</event>
<event>
 4    1  0.4758708E-002  0.5650324E+03  0.7818608E-02  0.9980732E-01
         21   -1    0    0  503  502  0.00000000000E+00  0.00000000000E+00  0.55347375687E+03  0.55347375687E+03  0.00000000000E+00 0. -1.
         21   -1    0    0  501  503 -0.00000000000E+00 -0.00000000000E+00 -0.11323443855E+04  0.11323443855E+04  0.00000000000E+00 0.  1.
    9000007    1    1    2  501    0  0.25857310212E+03 -0.30397628448E+03 -0.87982417409E+03  0.10456348349E+04  0.40000000000E+03 0.  1.
   -9000007    1    1    2    0  502 -0.25857310212E+03  0.30397628448E+03  0.30095354544E+03  0.64018330748E+03  0.40000000000E+03 0. -1.
<mgrwt>
<rscale>  2 0.56503242E+03</rscale>
<asrwt>0</asrwt>
<pdfrwt beam="1">  1       21 0.85149809E-01 0.56503242E+03</pdfrwt>
<pdfrwt beam="2">  1       21 0.17420683E+00 0.56503242E+03</pdfrwt>
<totfact> 0.18332443E+02</totfact>
</mgrwt>
</event>
<event>
 4    1  0.4758708E-002  0.4410222E+03  0.7818608E-02  0.1030434E+00
         21   -1    0    0  501  502  0.00000000000E+00  0.00000000000E+00  0.51683965819E+03  0.51683965819E+03  0.00000000000E+00 0.  1.
         21   -1    0    0  502  503 -0.00000000000E+00 -0.00000000000E+00 -0.37886089171E+03  0.37886089171E+03  0.00000000000E+00 0.  1.
    9000007    1    1    2  501    0  0.16612684520E+03  0.83081139438E+02  0.10561676039E+03  0.45349256278E+03  0.40000000000E+03 0.  1.
   -9000007    1    1    2    0  503 -0.16612684520E+03 -0.83081139438E+02  0.32362006099E+02  0.44220798711E+03  0.40000000000E+03 0.  1.
<mgrwt>
<rscale>  2 0.44102223E+03</rscale>
<asrwt>0</asrwt>
<pdfrwt beam="1">  1       21 0.79513794E-01 0.44102223E+03</pdfrwt>
<pdfrwt beam="2">  1       21 0.58286291E-01 0.44102223E+03</pdfrwt>
<totfact> 0.33659885E+03</totfact>
</mgrwt>
</event>
<event>
 4    1  0.4758708E-002  0.7642623E+03  0.7818608E-02  0.9613237E-01
         21   -1    0    0  503  502  0.00000000000E+00  0.00000000000E+00  0.83805139960E+03  0.83805139960E+03  0.00000000000E+00 0. -1.
         21   -1    0    0  501  503 -0.00000000000E+00 -0.00000000000E+00 -0.12914030490E+04  0.12914030490E+04  0.00000000000E+00 0.  1.
    9000007    1    1    2  501    0  0.65094175584E+03 -0.19280763945E+02 -0.94904437007E+03  0.12185163658E+04  0.40000000000E+03 0.  1.
   -9000007    1    1    2    0  502 -0.65094175584E+03  0.19280763945E+02  0.49569272067E+03  0.91093808279E+03  0.40000000000E+03 0. -1.
<mgrwt>
<rscale>  2 0.76426234E+03</rscale>
<asrwt>0</asrwt>
<pdfrwt beam="1">  1       21 0.12893098E+00 0.76426234E+03</pdfrwt>
<pdfrwt beam="2">  1       21 0.19867739E+00 0.76426234E+03</pdfrwt>
<totfact> 0.40859234E+01</totfact>
</mgrwt>
</event>
<event>
 4    1  0.4758708E-002  0.5041664E+03  0.7818608E-02  0.1012697E+00
         21   -1    0    0  503  502  0.00000000000E+00  0.00000000000E+00  0.15441961779E+04  0.15441961779E+04  0.00000000000E+00 0. -1.
         21   -1    0    0  501  503 -0.00000000000E+00 -0.00000000000E+00 -0.17036525280E+03  0.17036525280E+03  0.00000000000E+00 0.  1.
    9000007    1    1    2  501    0 -0.25752438207E+03 -0.16692794425E+03  0.52929204300E+03  0.73098140381E+03  0.40000000000E+03 0. -1.
   -9000007    1    1    2    0  502  0.25752438207E+03  0.16692794425E+03  0.84453888213E+03  0.98358002692E+03  0.40000000000E+03 0. -1.
<mgrwt>
<rscale>  2 0.50416639E+03</rscale>
<asrwt>0</asrwt>
<pdfrwt beam="1">  1       21 0.23756863E+00 0.50416639E+03</pdfrwt>
<pdfrwt beam="2">  1       21 0.26210040E-01 0.50416639E+03</pdfrwt>
<totfact> 0.87476343E+02</totfact>
</mgrwt>
</event>
<event>
 4    1  0.4758708E-002  0.4847062E+03  0.7818608E-02  0.1017850E+00
         21   -1    0    0  501  502  0.00000000000E+00  0.00000000000E+00  0.10200441580E+04  0.10200441580E+04  0.00000000000E+00 0.  1.
         21   -1    0    0  502  503 -0.00000000000E+00 -0.00000000000E+00 -0.23045922673E+03  0.23045922673E+03  0.00000000000E+00 0.  1.
    9000007    1    1    2  501    0 -0.25835911453E+03 -0.90502574694E+02  0.37961920832E+03  0.61567109029E+03  0.40000000000E+03 0.  1.
   -9000007    1    1    2    0  503  0.25835911453E+03  0.90502574694E+02  0.40996572296E+03  0.63483229446E+03  0.40000000000E+03 0.  1.
<mgrwt>
<rscale>  2 0.48470625E+03</rscale>
<asrwt>0</asrwt>
<pdfrwt beam="1">  1       21 0.15692987E+00 0.48470625E+03</pdfrwt>
<pdfrwt beam="2">  1       21 0.35455266E-01 0.48470625E+03</pdfrwt>
<totfact> 0.17103359E+03</totfact>
</mgrwt>
</event>
<event>
 4    1  0.4758708E-002  0.5012169E+03  0.7818608E-02  0.1013462E+00
         21   -1    0    0  503  502  0.00000000000E+00  0.00000000000E+00  0.21984814322E+04  0.21984814322E+04  0.00000000000E+00 0.  1.
         21   -1    0    0  501  503 -0.00000000000E+00 -0.00000000000E+00 -0.23601653834E+03  0.23601653834E+03  0.00000000000E+00 0. -1.
    9000007    1    1    2  501    0  0.24360897296E+03  0.17853032799E+03  0.10697731972E+03  0.51250615280E+03  0.40000000000E+03 0. -1.
   -9000007    1    1    2    0  502 -0.24360897296E+03 -0.17853032799E+03  0.18554875742E+04  0.19219918178E+04  0.40000000000E+03 0.  1.
<mgrwt>
<rscale>  2 0.50121693E+03</rscale>
<asrwt>0</asrwt>
<pdfrwt beam="1">  1       21 0.33822790E+00 0.50121693E+03</pdfrwt>
<pdfrwt beam="2">  1       21 0.36310238E-01 0.50121693E+03</pdfrwt>
<totfact> 0.11122824E+02</totfact>
</mgrwt>
</event>
<event>
 4    1  0.4758708E-002  0.6582278E+03  0.7818608E-02  0.9791462E-01
         21   -1    0    0  503  502  0.00000000000E+00  0.00000000000E+00  0.10414336967E+04  0.10414336967E+04  0.00000000000E+00 0. -1.
         21   -1    0    0  501  503 -0.00000000000E+00 -0.00000000000E+00 -0.55165339506E+03  0.55165339506E+03  0.00000000000E+00 0.  1.
    9000007    1    1    2  501    0 -0.43022582045E+03 -0.29693352659E+03  0.63984700416E+03  0.91796947909E+03  0.40000000000E+03 0. -1.
   -9000007    1    1    2    0  502  0.43022582045E+03  0.29693352659E+03 -0.15006670249E+03  0.67511761271E+03  0.40000000000E+03 0.  1.
<mgrwt>
<rscale>  2 0.65822775E+03</rscale>
<asrwt>0</asrwt>
<pdfrwt beam="1">  1       21 0.16022057E+00 0.65822775E+03</pdfrwt>
<pdfrwt beam="2">  1       21 0.84869753E-01 0.65822775E+03</pdfrwt>
<totfact> 0.22676741E+02</totfact>
</mgrwt>
</event>
<event>
 4    1  0.4758708E-002  0.4869183E+03  0.7818608E-02  0.1017251E+00
         21   -1    0    0  503  502  0.00000000000E+00  0.00000000000E+00  0.25041870792E+03  0.25041870792E+03  0.00000000000E+00 0.  1.
         21   -1    0    0  501  503 -0.00000000000E+00 -0.00000000000E+00 -0.20803959645E+04  0.20803959645E+04  0.00000000000E+00 0.  1.
    9000007    1    1    2  501    0  0.26877096803E+03 -0.69653412342E+02 -0.54709774839E+02  0.48998223495E+03  0.40000000000E+03 0.  1.
   -9000007    1    1    2    0  502 -0.26877096803E+03  0.69653412342E+02 -0.17752674817E+04  0.18408324374E+04  0.40000000000E+03 0.  1.
<mgrwt>
<rscale>  2 0.48691830E+03</rscale>
<asrwt>0</asrwt>
<pdfrwt beam="1">  1       21 0.38525955E-01 0.48691830E+03</pdfrwt>
<pdfrwt beam="2">  1       21 0.32006092E+00 0.48691830E+03</pdfrwt>
<totfact> 0.12818920E+02</totfact>
</mgrwt>
</event>
<event>
 4    1  0.4758708E-002  0.4716154E+03  0.7818608E-02  0.1021465E+00
         21   -1    0    0  501  502  0.00000000000E+00  0.00000000000E+00  0.14630938932E+03  0.14630938932E+03  0.00000000000E+00 0.  1.
         21   -1    0    0  502  503 -0.00000000000E+00 -0.00000000000E+00 -0.15764049844E+04  0.15764049844E+04  0.00000000000E+00 0. -1.
    9000007    1    1    2  501    0 -0.45617430159E+02 -0.24564237960E+03 -0.87767555646E+03  0.99636113483E+03  0.40000000000E+03 0. -1.
   -9000007    1    1    2    0  503  0.45617430159E+02  0.24564237960E+03 -0.55242003862E+03  0.72635323890E+03  0.40000000000E+03 0.  1.
<mgrwt>
<rscale>  2 0.47161545E+03</rscale>
<asrwt>0</asrwt>
<pdfrwt beam="1">  1       21 0.22509135E-01 0.47161545E+03</pdfrwt>
<pdfrwt beam="2">  1       21 0.24252386E+00 0.47161545E+03</pdfrwt>
<totfact> 0.11114362E+03</totfact>
</mgrwt>
</event>
<event>
 4    1  0.4758708E-002  0.6405467E+03  0.7818608E-02  0.9824681E-01
         21   -1    0    0  503  502  0.00000000000E+00  0.00000000000E+00  0.41755152875E+03  0.41755152875E+03  0.00000000000E+00 0.  1.
         21   -1    0    0  501  503 -0.00000000000E+00 -0.00000000000E+00 -0.98707405589E+03  0.98707405589E+03  0.00000000000E+00 0.  1.
    9000007    1    1    2  501    0  0.24354378362E+03 -0.43702006194E+03 -0.33186720349E+03  0.72141246859E+03  0.40000000000E+03 0.  1.
   -9000007    1    1    2    0  502 -0.24354378362E+03  0.43702006194E+03 -0.23765532365E+03  0.68321311605E+03  0.40000000000E+03 0.  1.
<mgrwt>
<rscale>  2 0.64054673E+03</rscale>
<asrwt>0</asrwt>
<pdfrwt beam="1">  1       21 0.64238697E-01 0.64054673E+03</pdfrwt>
<pdfrwt beam="2">  1       21 0.15185755E+00 0.64054673E+03</pdfrwt>
<totfact> 0.50194252E+02</totfact>
</mgrwt>
</event>
<event>
 4    1  0.4758708E-002  0.4394990E+03  0.7818608E-02  0.1030901E+00
         21   -1    0    0  503  502  0.00000000000E+00  0.00000000000E+00  0.50177189965E+03  0.50177189965E+03  0.00000000000E+00 0.  1.
         21   -1    0    0  501  503 -0.00000000000E+00 -0.00000000000E+00 -0.39432489396E+03  0.39432489396E+03  0.00000000000E+00 0.  1.
    9000007    1    1    2  501    0 -0.47642930788E+02  0.17575409961E+03 -0.15344465218E+02  0.43976676204E+03  0.40000000000E+03 0.  1.
   -9000007    1    1    2    0  502  0.47642930788E+02 -0.17575409961E+03  0.12279147091E+03  0.45633003157E+03  0.40000000000E+03 0.  1.
<mgrwt>
<rscale>  2 0.43949898E+03</rscale>
<asrwt>0</asrwt>
<pdfrwt beam="1">  1       21 0.77195677E-01 0.43949898E+03</pdfrwt>
<pdfrwt beam="2">  1       21 0.60665368E-01 0.43949898E+03</pdfrwt>
<totfact> 0.33028432E+03</totfact>
</mgrwt>
</event>
<event>
 4    1  0.4758708E-002  0.5090541E+03  0.7818608E-02  0.1011442E+00
         21   -1    0    0  501  502  0.00000000000E+00  0.00000000000E+00  0.13713874901E+04  0.13713874901E+04  0.00000000000E+00 0.  1.
         21   -1    0    0  502  503 -0.00000000000E+00 -0.00000000000E+00 -0.19010558639E+03  0.19010558639E+03  0.00000000000E+00 0.  1.
    9000007    1    1    2  501    0  0.31001412460E+03 -0.55021028648E+02  0.53000818081E+03  0.73487736581E+03  0.40000000000E+03 0.  1.
   -9000007    1    1    2    0  503 -0.31001412460E+03  0.55021028648E+02  0.65127372294E+03  0.82661571074E+03  0.40000000000E+03 0.  1.
<mgrwt>
<rscale>  2 0.50905409E+03</rscale>
<asrwt>0</asrwt>
<pdfrwt beam="1">  1       21 0.21098268E+00 0.50905409E+03</pdfrwt>
<pdfrwt beam="2">  1       21 0.29247014E-01 0.50905409E+03</pdfrwt>
<totfact> 0.10397341E+03</totfact>
</mgrwt>
</event>
<event>
 4    1  0.4758708E-002  0.4569320E+03  0.7818608E-02  0.1025675E+00
         21   -1    0    0  501  502  0.00000000000E+00  0.00000000000E+00  0.46753083610E+03  0.46753083610E+03  0.00000000000E+00 0. -1.
         21   -1    0    0  502  503 -0.00000000000E+00 -0.00000000000E+00 -0.46867253873E+03  0.46867253873E+03  0.00000000000E+00 0. -1.
    9000007    1    1    2  501    0  0.18372436745E+03  0.12260580744E+03 -0.10221755339E+03  0.46822564585E+03  0.40000000000E+03 0.  1.
   -9000007    1    1    2    0  503 -0.18372436745E+03 -0.12260580744E+03  0.10107585076E+03  0.46797772898E+03  0.40000000000E+03 0.  1.
<mgrwt>
<rscale>  2 0.45693197E+03</rscale>
<asrwt>0</asrwt>
<pdfrwt beam="1">  1       21 0.71927821E-01 0.45693197E+03</pdfrwt>
<pdfrwt beam="2">  1       21 0.72103468E-01 0.45693197E+03</pdfrwt>
<totfact> 0.26236138E+03</totfact>
</mgrwt>
</event>
<event>
 4    1  0.4758708E-002  0.4793906E+03  0.7818608E-02  0.1019303E+00
         21   -1    0    0  503  502  0.00000000000E+00  0.00000000000E+00  0.14188233814E+04  0.14188233814E+04  0.00000000000E+00 0. -1.
         21   -1    0    0  501  503 -0.00000000000E+00 -0.00000000000E+00 -0.27589003239E+03  0.27589003239E+03  0.00000000000E+00 0. -1.
    9000007    1    1    2  501    0  0.92974160244E+02  0.24732797269E+03  0.26980446049E+02  0.48014921120E+03  0.40000000000E+03 0. -1.
   -9000007    1    1    2    0  502 -0.92974160244E+02 -0.24732797269E+03  0.11159529029E+04  0.12145642025E+04  0.40000000000E+03 0. -1.
<mgrwt>
<rscale>  2 0.47939057E+03</rscale>
<asrwt>0</asrwt>
<pdfrwt beam="1">  1       21 0.21828052E+00 0.47939057E+03</pdfrwt>
<pdfrwt beam="2">  1       21 0.42444621E-01 0.47939057E+03</pdfrwt>
<totfact> 0.44337703E+02</totfact>
</mgrwt>
</event>
<event>
 4    1  0.4758708E-002  0.4643208E+03  0.7818608E-02  0.1023535E+00
         21   -1    0    0  501  502  0.00000000000E+00  0.00000000000E+00  0.10135656599E+04  0.10135656599E+04  0.00000000000E+00 0.  1.
         21   -1    0    0  502  503 -0.00000000000E+00 -0.00000000000E+00 -0.29778337624E+03  0.29778337624E+03  0.00000000000E+00 0.  1.
    9000007    1    1    2  501    0 -0.17949908896E+03  0.15288526068E+03  0.70835179085E+03  0.84696876299E+03  0.40000000000E+03 0.  1.
   -9000007    1    1    2    0  503  0.17949908896E+03 -0.15288526068E+03  0.74304928103E+01  0.46438027315E+03  0.40000000000E+03 0.  1.
<mgrwt>
<rscale>  2 0.46432082E+03</rscale>
<asrwt>0</asrwt>
<pdfrwt beam="1">  1       21 0.15593318E+00 0.46432082E+03</pdfrwt>
<pdfrwt beam="2">  1       21 0.45812828E-01 0.46432082E+03</pdfrwt>
<totfact> 0.10338035E+03</totfact>
</mgrwt>
</event>
<event>
 4    1  0.4758708E-002  0.5903719E+03  0.7818608E-02  0.9925585E-01
         21   -1    0    0  503  502  0.00000000000E+00  0.00000000000E+00  0.27452660006E+04  0.27452660006E+04  0.00000000000E+00 0. -1.
         21   -1    0    0  501  503 -0.00000000000E+00 -0.00000000000E+00 -0.23923876978E+03  0.23923876978E+03  0.00000000000E+00 0.  1.
    9000007    1    1    2  501    0  0.19198076881E+03 -0.38946426515E+03  0.23072085941E+03  0.63385419805E+03  0.40000000000E+03 0.  1.
   -9000007    1    1    2    0  502 -0.19198076881E+03  0.38946426515E+03  0.22753063714E+04  0.23506505723E+04  0.40000000000E+03 0. -1.
<mgrwt>
<rscale>  2 0.59037194E+03</rscale>
<asrwt>0</asrwt>
<pdfrwt beam="1">  1       21 0.42234859E+00 0.59037194E+03</pdfrwt>
<pdfrwt beam="2">  1       21 0.36805967E-01 0.59037194E+03</pdfrwt>
<totfact> 0.30062119E+01</totfact>
</mgrwt>
</event>
<event>
 4    1  0.4758708E-002  0.4349495E+03  0.7818608E-02  0.1032308E+00
         21   -1    0    0  501  502  0.00000000000E+00  0.00000000000E+00  0.16235124151E+04  0.16235124151E+04  0.00000000000E+00 0.  1.
         21   -1    0    0  502  503 -0.00000000000E+00 -0.00000000000E+00 -0.42083652392E+03  0.42083652392E+03  0.00000000000E+00 0.  1.
    9000007    1    1    2  501    0  0.15252690384E+03 -0.76919538712E+02  0.14705524220E+04  0.15335271427E+04  0.40000000000E+03 0.  1.
   -9000007    1    1    2    0  503 -0.15252690384E+03  0.76919538712E+02 -0.26787653076E+03  0.51082179629E+03  0.40000000000E+03 0.  1.
<mgrwt>
<rscale>  2 0.43494950E+03</rscale>
<asrwt>0</asrwt>
<pdfrwt beam="1">  1       21 0.24977114E+00 0.43494950E+03</pdfrwt>
<pdfrwt beam="2">  1       21 0.64744082E-01 0.43494950E+03</pdfrwt>
<totfact> 0.11655035E+02</totfact>
</mgrwt>
</event>
<event>
 4    1  0.4758708E-002  0.5546488E+03  0.7818608E-02  0.1000424E+00
         21   -1    0    0  503  502  0.00000000000E+00  0.00000000000E+00  0.48763474909E+03  0.48763474909E+03  0.00000000000E+00 0.  1.
         21   -1    0    0  501  503 -0.00000000000E+00 -0.00000000000E+00 -0.10152386326E+04  0.10152386326E+04  0.00000000000E+00 0.  1.
    9000007    1    1    2  501    0 -0.49405779453E+02  0.38104379076E+03 -0.72616267735E+03  0.91375463638E+03  0.40000000000E+03 0.  1.
   -9000007    1    1    2    0  502  0.49405779453E+02 -0.38104379076E+03  0.19855879380E+03  0.58911874535E+03  0.40000000000E+03 0.  1.
<mgrwt>
<rscale>  2 0.55464881E+03</rscale>
<asrwt>0</asrwt>
<pdfrwt beam="1">  1       21 0.75020731E-01 0.55464881E+03</pdfrwt>
<pdfrwt beam="2">  1       21 0.15619056E+00 0.55464881E+03</pdfrwt>
<totfact> 0.33680171E+02</totfact>
</mgrwt>
</event>
<event>
 4    1  0.4758708E-002  0.4975408E+03  0.7818608E-02  0.1014423E+00
         21   -1    0    0  503  502  0.00000000000E+00  0.00000000000E+00  0.89516757465E+03  0.89516757465E+03  0.00000000000E+00 0. -1.
         21   -1    0    0  501  503 -0.00000000000E+00 -0.00000000000E+00 -0.82278915593E+03  0.82278915593E+03  0.00000000000E+00 0.  1.
    9000007    1    1    2  501    0 -0.13150854623E+03  0.26505162537E+03 -0.66370849594E+03  0.82949130762E+03  0.40000000000E+03 0.  1.
   -9000007    1    1    2    0  502  0.13150854623E+03 -0.26505162537E+03  0.73608691467E+03  0.88846542296E+03  0.40000000000E+03 0. -1.
<mgrwt>
<rscale>  2 0.49754081E+03</rscale>
<asrwt>0</asrwt>
<pdfrwt beam="1">  1       21 0.13771809E+00 0.49754081E+03</pdfrwt>
<pdfrwt beam="2">  1       21 0.12658295E+00 0.49754081E+03</pdfrwt>
<totfact> 0.13637685E+02</totfact>
</mgrwt>
</event>
<event>
 4    1  0.4758708E-002  0.4093152E+03  0.7818608E-02  0.1040601E+00
         21   -1    0    0  503  502  0.00000000000E+00  0.00000000000E+00  0.32941193806E+03  0.32941193806E+03  0.00000000000E+00 0.  1.
         21   -1    0    0  501  503 -0.00000000000E+00 -0.00000000000E+00 -0.79702316952E+03  0.79702316952E+03  0.00000000000E+00 0.  1.
    9000007    1    1    2  501    0  0.68708879805E+02 -0.53084852785E+02 -0.57261527328E+03  0.70386587000E+03  0.40000000000E+03 0.  1.
   -9000007    1    1    2    0  502 -0.68708879805E+02  0.53084852785E+02  0.10500404182E+03  0.42256923759E+03  0.40000000000E+03 0.  1.
<mgrwt>
<rscale>  2 0.40931517E+03</rscale>
<asrwt>0</asrwt>
<pdfrwt beam="1">  1       21 0.50678760E-01 0.40931517E+03</pdfrwt>
<pdfrwt beam="2">  1       21 0.12261895E+00 0.40931517E+03</pdfrwt>
<totfact> 0.16147260E+03</totfact>
</mgrwt>
</event>
<event>
 4    1  0.4758708E-002  0.4560998E+03  0.7818608E-02  0.1025918E+00
         21   -1    0    0  501  502  0.00000000000E+00  0.00000000000E+00  0.40636043256E+03  0.40636043256E+03  0.00000000000E+00 0.  1.
         21   -1    0    0  502  503 -0.00000000000E+00 -0.00000000000E+00 -0.60461139663E+03  0.60461139663E+03  0.00000000000E+00 0.  1.
    9000007    1    1    2  501    0  0.65493323470E+02 -0.20913541903E+03 -0.29703810993E+03  0.54429646119E+03  0.40000000000E+03 0.  1.
   -9000007    1    1    2    0  503 -0.65493323470E+02  0.20913541903E+03  0.98787145862E+02  0.46667536800E+03  0.40000000000E+03 0.  1.
<mgrwt>
<rscale>  2 0.45609977E+03</rscale>
<asrwt>0</asrwt>
<pdfrwt beam="1">  1       21 0.62516990E-01 0.45609977E+03</pdfrwt>
<pdfrwt beam="2">  1       21 0.93017137E-01 0.45609977E+03</pdfrwt>
<totfact> 0.19869064E+03</totfact>
</mgrwt>
</event>
<event>
 4    1  0.4758708E-002  0.4230279E+03  0.7818608E-02  0.1036085E+00
         21   -1    0    0  501  502  0.00000000000E+00  0.00000000000E+00  0.34571299404E+03  0.34571299404E+03  0.00000000000E+00 0. -1.
         21   -1    0    0  502  503 -0.00000000000E+00 -0.00000000000E+00 -0.81521861849E+03  0.81521861849E+03  0.00000000000E+00 0. -1.
    9000007    1    1    2  501    0 -0.17386710932E+02  0.13656610221E+03  0.11595485686E+03  0.43863210874E+03  0.40000000000E+03 0. -1.
   -9000007    1    1    2    0  503  0.17386710932E+02 -0.13656610221E+03 -0.58546048131E+03  0.72229950378E+03  0.40000000000E+03 0. -1.
<mgrwt>
<rscale>  2 0.42302789E+03</rscale>
<asrwt>0</asrwt>
<pdfrwt beam="1">  1       21 0.53186614E-01 0.42302789E+03</pdfrwt>
<pdfrwt beam="2">  1       21 0.12541825E+00 0.42302789E+03</pdfrwt>
<totfact> 0.13665703E+03</totfact>
</mgrwt>
</event>
<event>
 4    1  0.4758708E-002  0.5241561E+03  0.7818608E-02  0.1007659E+00
         21   -1    0    0  501  502  0.00000000000E+00  0.00000000000E+00  0.59327253818E+03  0.59327253818E+03  0.00000000000E+00 0. -1.
         21   -1    0    0  502  503 -0.00000000000E+00 -0.00000000000E+00 -0.66695376320E+03  0.66695376320E+03  0.00000000000E+00 0.  1.
    9000007    1    1    2  501    0 -0.21524250280E+03 -0.26155365707E+03  0.31152780500E+03  0.60974521222E+03  0.40000000000E+03 0. -1.
   -9000007    1    1    2    0  503  0.21524250280E+03  0.26155365707E+03 -0.38520903002E+03  0.65048108916E+03  0.40000000000E+03 0.  1.
<mgrwt>
<rscale>  2 0.52415613E+03</rscale>
<asrwt>0</asrwt>
<pdfrwt beam="1">  1       21 0.91272699E-01 0.52415613E+03</pdfrwt>
<pdfrwt beam="2">  1       21 0.10260827E+00 0.52415613E+03</pdfrwt>
<totfact> 0.64189521E+02</totfact>
</mgrwt>
</event>
<event>
 4    1  0.4758708E-002  0.4506908E+03  0.7818608E-02  0.1027516E+00
         21   -1    0    0  501  502  0.00000000000E+00  0.00000000000E+00  0.41200614354E+03  0.41200614354E+03  0.00000000000E+00 0.  1.
         21   -1    0    0  502  503 -0.00000000000E+00 -0.00000000000E+00 -0.13919148544E+04  0.13919148544E+04  0.00000000000E+00 0.  1.
    9000007    1    1    2  501    0 -0.30035948858E+02  0.20547520952E+03  0.23487970159E+03  0.50822307520E+03  0.40000000000E+03 0.  1.
   -9000007    1    1    2    0  503  0.30035948858E+02 -0.20547520952E+03 -0.12147884125E+04  0.12956979228E+04  0.40000000000E+03 0.  1.
<mgrwt>
<rscale>  2 0.45069083E+03</rscale>
<asrwt>0</asrwt>
<pdfrwt beam="1">  1       21 0.63385561E-01 0.45069083E+03</pdfrwt>
<pdfrwt beam="2">  1       21 0.21414075E+00 0.45069083E+03</pdfrwt>
<totfact> 0.20262179E+02</totfact>
</mgrwt>
</event>
<event>
 4    1  0.4758708E-002  0.4165700E+03  0.7818608E-02  0.1038188E+00
         21   -1    0    0  501  502  0.00000000000E+00  0.00000000000E+00  0.69282395505E+03  0.69282395505E+03  0.00000000000E+00 0.  1.
         21   -1    0    0  502  503 -0.00000000000E+00 -0.00000000000E+00 -0.30997704024E+03  0.30997704024E+03  0.00000000000E+00 0.  1.
    9000007    1    1    2  501    0  0.27879511945E+02 -0.11293054672E+03  0.41111313524E+03  0.58527308629E+03  0.40000000000E+03 0.  1.
   -9000007    1    1    2    0  503 -0.27879511945E+02  0.11293054672E+03 -0.28266220440E+02  0.41752790899E+03  0.40000000000E+03 0.  1.
<mgrwt>
<rscale>  2 0.41657001E+03</rscale>
<asrwt>0</asrwt>
<pdfrwt beam="1">  1       21 0.10658830E+00 0.41657001E+03</pdfrwt>
<pdfrwt beam="2">  1       21 0.47688775E-01 0.41657001E+03</pdfrwt>
<totfact> 0.25991340E+03</totfact>
</mgrwt>
</event>
<event>
 4    1  0.4758708E-002  0.5391159E+03  0.7818608E-02  0.1004045E+00
         21   -1    0    0  501  502  0.00000000000E+00  0.00000000000E+00  0.59053914576E+03  0.59053914576E+03  0.00000000000E+00 0.  1.
         21   -1    0    0  502  503 -0.00000000000E+00 -0.00000000000E+00 -0.58766954529E+03  0.58766954529E+03  0.00000000000E+00 0. -1.
    9000007    1    1    2  501    0  0.10720271190E+03 -0.34518617345E+03  0.23891383094E+03  0.58968274046E+03  0.40000000000E+03 0.  1.
   -9000007    1    1    2    0  503 -0.10720271190E+03  0.34518617345E+03 -0.23604423046E+03  0.58852595059E+03  0.40000000000E+03 0. -1.
<mgrwt>
<rscale>  2 0.53911586E+03</rscale>
<asrwt>0</asrwt>
<pdfrwt beam="1">  1       21 0.90852176E-01 0.53911586E+03</pdfrwt>
<pdfrwt beam="2">  1       21 0.90410700E-01 0.53911586E+03</pdfrwt>
<totfact> 0.87658684E+02</totfact>
</mgrwt>
</event>
<event>
 4    1  0.4758708E-002  0.4590003E+03  0.7818608E-02  0.1025072E+00
         21   -1    0    0  501  502  0.00000000000E+00  0.00000000000E+00  0.18557625104E+03  0.18557625104E+03  0.00000000000E+00 0. -1.
         21   -1    0    0  502  503 -0.00000000000E+00 -0.00000000000E+00 -0.12631370037E+04  0.12631370037E+04  0.00000000000E+00 0. -1.
    9000007    1    1    2  501    0  0.20275648581E+03 -0.97832043304E+02 -0.30832503894E+03  0.55294270125E+03  0.40000000000E+03 0. -1.
   -9000007    1    1    2    0  503 -0.20275648581E+03  0.97832043304E+02 -0.76923571372E+03  0.89577055349E+03  0.40000000000E+03 0. -1.
<mgrwt>
<rscale>  2 0.45900033E+03</rscale>
<asrwt>0</asrwt>
<pdfrwt beam="1">  1       21 0.28550191E-01 0.45900033E+03</pdfrwt>
<pdfrwt beam="2">  1       21 0.19432878E+00 0.45900033E+03</pdfrwt>
<totfact> 0.14372718E+03</totfact>
</mgrwt>
</event>
<event>
 4    1  0.4758708E-002  0.5391958E+03  0.7818608E-02  0.1004026E+00
         21   -1    0    0  503  502  0.00000000000E+00  0.00000000000E+00  0.10560457282E+04  0.10560457282E+04  0.00000000000E+00 0.  1.
         21   -1    0    0  501  503 -0.00000000000E+00 -0.00000000000E+00 -0.27619677004E+03  0.27619677004E+03  0.00000000000E+00 0.  1.
    9000007    1    1    2  501    0 -0.33413833223E+03  0.13814376011E+03  0.42782599839E+03  0.68830749554E+03  0.40000000000E+03 0. -1.
   -9000007    1    1    2    0  502  0.33413833223E+03 -0.13814376011E+03  0.35202295980E+03  0.64393500273E+03  0.40000000000E+03 0. -1.
<mgrwt>
<rscale>  2 0.53919581E+03</rscale>
<asrwt>0</asrwt>
<pdfrwt beam="1">  1       21 0.16246857E+00 0.53919581E+03</pdfrwt>
<pdfrwt beam="2">  1       21 0.42491811E-01 0.53919581E+03</pdfrwt>
<totfact> 0.10485076E+03</totfact>
</mgrwt>
</event>
<event>
 4    1  0.4758708E-002  0.4210085E+03  0.7818608E-02  0.1036739E+00
         21   -1    0    0  501  502  0.00000000000E+00  0.00000000000E+00  0.88236162513E+03  0.88236162513E+03  0.00000000000E+00 0.  1.
         21   -1    0    0  502  503 -0.00000000000E+00 -0.00000000000E+00 -0.23335110905E+03  0.23335110905E+03  0.00000000000E+00 0.  1.
    9000007    1    1    2  501    0 -0.43239902537E+02  0.12400996304E+03  0.11640582590E+03  0.43680484934E+03  0.40000000000E+03 0.  1.
   -9000007    1    1    2    0  503  0.43239902537E+02 -0.12400996304E+03  0.53260469018E+03  0.67890788484E+03  0.40000000000E+03 0.  1.
<mgrwt>
<rscale>  2 0.42100850E+03</rscale>
<asrwt>0</asrwt>
<pdfrwt beam="1">  1       21 0.13574794E+00 0.42100850E+03</pdfrwt>
<pdfrwt beam="2">  1       21 0.35900171E-01 0.42100850E+03</pdfrwt>
<totfact> 0.25272169E+03</totfact>
</mgrwt>
</event>
<event>
 4    1  0.4758708E-002  0.5725656E+03  0.7818608E-02  0.9964017E-01
         21   -1    0    0  503  502  0.00000000000E+00  0.00000000000E+00  0.84143914884E+03  0.84143914884E+03  0.00000000000E+00 0. -1.
         21   -1    0    0  501  503 -0.00000000000E+00 -0.00000000000E+00 -0.50461126804E+03  0.50461126804E+03  0.00000000000E+00 0.  1.
    9000007    1    1    2  501    0  0.27813231607E+03 -0.30078859830E+03 -0.15288410219E+03  0.59262544226E+03  0.40000000000E+03 0. -1.
   -9000007    1    1    2    0  502 -0.27813231607E+03  0.30078859830E+03  0.48971198298E+03  0.75342497462E+03  0.40000000000E+03 0. -1.
<mgrwt>
<rscale>  2 0.57256560E+03</rscale>
<asrwt>0</asrwt>
<pdfrwt beam="1">  1       21 0.12945218E+00 0.57256560E+03</pdfrwt>
<pdfrwt beam="2">  1       21 0.77632503E-01 0.57256560E+03</pdfrwt>
<totfact> 0.51244967E+02</totfact>
</mgrwt>
</event>
<event>
 4    1  0.4758708E-002  0.5364130E+03  0.7818608E-02  0.1004689E+00
         21   -1    0    0  503  502  0.00000000000E+00  0.00000000000E+00  0.15588679808E+04  0.15588679808E+04  0.00000000000E+00 0. -1.
         21   -1    0    0  501  503 -0.00000000000E+00 -0.00000000000E+00 -0.19776807798E+03  0.19776807798E+03  0.00000000000E+00 0.  1.
    9000007    1    1    2  501    0 -0.30370002344E+03 -0.18842827709E+03  0.45375569748E+03  0.70259031650E+03  0.40000000000E+03 0.  1.
   -9000007    1    1    2    0  502  0.30370002344E+03  0.18842827709E+03  0.90734420531E+03  0.10540457422E+04  0.40000000000E+03 0.  1.
<mgrwt>
<rscale>  2 0.53641301E+03</rscale>
<asrwt>0</asrwt>
<pdfrwt beam="1">  1       21 0.23982584E+00 0.53641301E+03</pdfrwt>
<pdfrwt beam="2">  1       21 0.30425859E-01 0.53641301E+03</pdfrwt>
<totfact> 0.62177369E+02</totfact>
</mgrwt>
</event>
<event>
 4    1  0.4758708E-002  0.4517646E+03  0.7818608E-02  0.1027197E+00
         21   -1    0    0  503  502  0.00000000000E+00  0.00000000000E+00  0.79842174136E+03  0.79842174136E+03  0.00000000000E+00 0. -1.
         21   -1    0    0  501  503 -0.00000000000E+00 -0.00000000000E+00 -0.52469927859E+03  0.52469927859E+03  0.00000000000E+00 0. -1.
    9000007    1    1    2  501    0 -0.58665411971E+02  0.20161750598E+03 -0.33689594047E+03  0.56355134991E+03  0.40000000000E+03 0. -1.
   -9000007    1    1    2    0  502  0.58665411971E+02 -0.20161750598E+03  0.61061840324E+03  0.75956967005E+03  0.40000000000E+03 0. -1.
<mgrwt>
<rscale>  2 0.45176459E+03</rscale>
<asrwt>0</asrwt>
<pdfrwt beam="1">  1       21 0.12283411E+00 0.45176459E+03</pdfrwt>
<pdfrwt beam="2">  1       21 0.80722966E-01 0.45176459E+03</pdfrwt>
<totfact> 0.56246183E+02</totfact>
</mgrwt>
</event>
<event>
 4    1  0.4758708E-002  0.4321903E+03  0.7818608E-02  0.1033170E+00
         21   -1    0    0  503  502  0.00000000000E+00  0.00000000000E+00  0.17212836773E+03  0.17212836773E+03  0.00000000000E+00 0.  1.
         21   -1    0    0  501  503 -0.00000000000E+00 -0.00000000000E+00 -0.10909780559E+04  0.10909780559E+04  0.00000000000E+00 0.  1.
    9000007    1    1    2  501    0 -0.68080493084E+02  0.14884061103E+03 -0.50550673773E+03  0.66507559189E+03  0.40000000000E+03 0.  1.
   -9000007    1    1    2    0  502  0.68080493084E+02 -0.14884061103E+03 -0.41334295045E+03  0.59803083175E+03  0.40000000000E+03 0.  1.
<mgrwt>
<rscale>  2 0.43219033E+03</rscale>
<asrwt>0</asrwt>
<pdfrwt beam="1">  1       21 0.26481288E-01 0.43219033E+03</pdfrwt>
<pdfrwt beam="2">  1       21 0.16784277E+00 0.43219033E+03</pdfrwt>
<totfact> 0.25872588E+03</totfact>
</mgrwt>
</event>
<event>
 4    1  0.4758708E-002  0.4432712E+03  0.7818608E-02  0.1029748E+00
         21   -1    0    0  503  502  0.00000000000E+00  0.00000000000E+00  0.66178141354E+03  0.66178141354E+03  0.00000000000E+00 0.  1.
         21   -1    0    0  501  503 -0.00000000000E+00 -0.00000000000E+00 -0.51870677999E+03  0.51870677999E+03  0.00000000000E+00 0.  1.
    9000007    1    1    2  501    0  0.13494201871E+03  0.13520361742E+03 -0.31442822597E+03  0.54346524807E+03  0.40000000000E+03 0.  1.
   -9000007    1    1    2    0  502 -0.13494201871E+03 -0.13520361742E+03  0.45750285952E+03  0.63702294546E+03  0.40000000000E+03 0.  1.
<mgrwt>
<rscale>  2 0.44327121E+03</rscale>
<asrwt>0</asrwt>
<pdfrwt beam="1">  1       21 0.10181253E+00 0.44327121E+03</pdfrwt>
<pdfrwt beam="2">  1       21 0.79801043E-01 0.44327121E+03</pdfrwt>
<totfact> 0.92582771E+02</totfact>
</mgrwt>
</event>
<event>
 4    1  0.4758708E-002  0.4342961E+03  0.7818608E-02  0.1032511E+00
         21   -1    0    0  501  502  0.00000000000E+00  0.00000000000E+00  0.15813086400E+04  0.15813086400E+04  0.00000000000E+00 0.  1.
         21   -1    0    0  502  503 -0.00000000000E+00 -0.00000000000E+00 -0.12004314033E+03  0.12004314033E+03  0.00000000000E+00 0.  1.
    9000007    1    1    2  501    0  0.14869820292E+03 -0.80634607552E+02  0.79861053509E+03  0.90906098929E+03  0.40000000000E+03 0.  1.
   -9000007    1    1    2    0  503 -0.14869820292E+03  0.80634607552E+02  0.66265496460E+03  0.79229079106E+03  0.40000000000E+03 0.  1.
<mgrwt>
<rscale>  2 0.43429609E+03</rscale>
<asrwt>0</asrwt>
<pdfrwt beam="1">  1       21 0.24327824E+00 0.43429609E+03</pdfrwt>
<pdfrwt beam="2">  1       21 0.18468177E-01 0.43429609E+03</pdfrwt>
<totfact> 0.16324547E+03</totfact>
</mgrwt>
</event>
<event>
 4    1  0.4758708E-002  0.4199860E+03  0.7818608E-02  0.1037071E+00
         21   -1    0    0  503  502  0.00000000000E+00  0.00000000000E+00  0.77068793602E+03  0.77068793602E+03  0.00000000000E+00 0.  1.
         21   -1    0    0  501  503 -0.00000000000E+00 -0.00000000000E+00 -0.69809585064E+03  0.69809585064E+03  0.00000000000E+00 0.  1.
    9000007    1    1    2  501    0 -0.10968444284E+03 -0.66012156810E+02 -0.56579303688E+03  0.70463468722E+03  0.40000000000E+03 0.  1.
   -9000007    1    1    2    0  502  0.10968444284E+03  0.66012156810E+02  0.63838512226E+03  0.76414909944E+03  0.40000000000E+03 0.  1.
<mgrwt>
<rscale>  2 0.41998605E+03</rscale>
<asrwt>0</asrwt>
<pdfrwt beam="1">  1       21 0.11856737E+00 0.41998605E+03</pdfrwt>
<pdfrwt beam="2">  1       21 0.10739936E+00 0.41998605E+03</pdfrwt>
<totfact> 0.31601901E+02</totfact>
</mgrwt>
</event>
<event>
 4    1  0.4758708E-002  0.4257071E+03  0.7818608E-02  0.1035225E+00
         21   -1    0    0  503  502  0.00000000000E+00  0.00000000000E+00  0.19636113390E+03  0.19636113390E+03  0.00000000000E+00 0.  1.
         21   -1    0    0  501  503 -0.00000000000E+00 -0.00000000000E+00 -0.10985529797E+04  0.10985529797E+04  0.00000000000E+00 0.  1.
    9000007    1    1    2  501    0  0.11447251948E+03  0.90125335886E+02 -0.70997546477E+03  0.82782346817E+03  0.40000000000E+03 0.  1.
   -9000007    1    1    2    0  502 -0.11447251948E+03 -0.90125335886E+02 -0.19221638098E+03  0.46709064538E+03  0.40000000000E+03 0.  1.
<mgrwt>
<rscale>  2 0.42570710E+03</rscale>
<asrwt>0</asrwt>
<pdfrwt beam="1">  1       21 0.30209405E-01 0.42570710E+03</pdfrwt>
<pdfrwt beam="2">  1       21 0.16900815E+00 0.42570710E+03</pdfrwt>
<totfact> 0.19621680E+03</totfact>
</mgrwt>
</event>
<event>
 4    1  0.4758708E-002  0.5475775E+03  0.7818608E-02  0.1002056E+00
         21   -1    0    0  501  502  0.00000000000E+00  0.00000000000E+00  0.25039881342E+03  0.25039881342E+03  0.00000000000E+00 0.  1.
         21   -1    0    0  502  503 -0.00000000000E+00 -0.00000000000E+00 -0.12348058494E+04  0.12348058494E+04  0.00000000000E+00 0. -1.
    9000007    1    1    2  501    0  0.37319935588E+03  0.23735481836E+02 -0.36304847695E+03  0.65699720619E+03  0.40000000000E+03 0.  1.
   -9000007    1    1    2    0  503 -0.37319935588E+03 -0.23735481836E+02 -0.62135855903E+03  0.82820745662E+03  0.40000000000E+03 0. -1.
<mgrwt>
<rscale>  2 0.54757751E+03</rscale>
<asrwt>0</asrwt>
<pdfrwt beam="1">  1       21 0.38522894E-01 0.54757751E+03</pdfrwt>
<pdfrwt beam="2">  1       21 0.18997013E+00 0.54757751E+03</pdfrwt>
<totfact> 0.81225657E+02</totfact>
</mgrwt>
</event>
<event>
 4    1  0.4758708E-002  0.4704596E+03  0.7818608E-02  0.1021791E+00
         21   -1    0    0  501  502  0.00000000000E+00  0.00000000000E+00  0.52085677255E+03  0.52085677255E+03  0.00000000000E+00 0.  1.
         21   -1    0    0  502  503 -0.00000000000E+00 -0.00000000000E+00 -0.44236462132E+03  0.44236462132E+03  0.00000000000E+00 0.  1.
    9000007    1    1    2  501    0 -0.24734580560E+03 -0.12339034864E+02 -0.56342021724E+02  0.47382129832E+03  0.40000000000E+03 0.  1.
   -9000007    1    1    2    0  503  0.24734580560E+03  0.12339034864E+02  0.13483417295E+03  0.48940009555E+03  0.40000000000E+03 0.  1.
<mgrwt>
<rscale>  2 0.47045956E+03</rscale>
<asrwt>0</asrwt>
<pdfrwt beam="1">  1       21 0.80131811E-01 0.47045956E+03</pdfrwt>
<pdfrwt beam="2">  1       21 0.68056095E-01 0.47045956E+03</pdfrwt>
<totfact> 0.23228814E+03</totfact>
</mgrwt>
</event>
<event>
 4    1  0.4758708E-002  0.5191673E+03  0.7818608E-02  0.1008894E+00
         21   -1    0    0  503  502  0.00000000000E+00  0.00000000000E+00  0.16002739327E+04  0.16002739327E+04  0.00000000000E+00 0. -1.
         21   -1    0    0  501  503 -0.00000000000E+00 -0.00000000000E+00 -0.19164160961E+03  0.19164160961E+03  0.00000000000E+00 0. -1.
    9000007    1    1    2  501    0 -0.30560950506E+03 -0.12703352908E+03  0.39250471254E+03  0.65084148336E+03  0.40000000000E+03 0. -1.
   -9000007    1    1    2    0  502  0.30560950506E+03  0.12703352908E+03  0.10161276105E+04  0.11410740589E+04  0.40000000000E+03 0. -1.
<mgrwt>
<rscale>  2 0.51916730E+03</rscale>
<asrwt>0</asrwt>
<pdfrwt beam="1">  1       21 0.24619598E+00 0.51916730E+03</pdfrwt>
<pdfrwt beam="2">  1       21 0.29483326E-01 0.51916730E+03</pdfrwt>
<totfact> 0.60870645E+02</totfact>
</mgrwt>
</event>
<event>
 4    1  0.4758708E-002  0.4436021E+03  0.7818608E-02  0.1029647E+00
         21   -1    0    0  501  502  0.00000000000E+00  0.00000000000E+00  0.18250207285E+04  0.18250207285E+04  0.00000000000E+00 0. -1.
         21   -1    0    0  502  503 -0.00000000000E+00 -0.00000000000E+00 -0.23848290277E+03  0.23848290277E+03  0.00000000000E+00 0. -1.
    9000007    1    1    2  501    0  0.15454275778E+03  0.11357529066E+03  0.15569543406E+04  0.16189161897E+04  0.40000000000E+03 0. -1.
   -9000007    1    1    2    0  503 -0.15454275778E+03 -0.11357529066E+03  0.29583485183E+02  0.44458744160E+03  0.40000000000E+03 0. -1.
<mgrwt>
<rscale>  2 0.44360209E+03</rscale>
<asrwt>0</asrwt>
<pdfrwt beam="1">  1       21 0.28077241E+00 0.44360209E+03</pdfrwt>
<pdfrwt beam="2">  1       21 0.36689678E-01 0.44360209E+03</pdfrwt>
<totfact> 0.25080252E+02</totfact>
</mgrwt>
</event>
<event>
 4    1  0.4758708E-002  0.4063504E+03  0.7818608E-02  0.1041603E+00
         21   -1    0    0  503  502  0.00000000000E+00  0.00000000000E+00  0.74349773332E+03  0.74349773332E+03  0.00000000000E+00 0. -1.
         21   -1    0    0  501  503 -0.00000000000E+00 -0.00000000000E+00 -0.29581255231E+03  0.29581255231E+03  0.00000000000E+00 0.  1.
    9000007    1    1    2  501    0 -0.58560969986E+02  0.41125263002E+02 -0.35586070869E+02  0.40790567893E+03  0.40000000000E+03 0.  1.
   -9000007    1    1    2    0  502  0.58560969986E+02 -0.41125263002E+02  0.48327125188E+03  0.63140460669E+03  0.40000000000E+03 0. -1.
<mgrwt>
<rscale>  2 0.40635043E+03</rscale>
<asrwt>0</asrwt>
<pdfrwt beam="1">  1       21 0.11438427E+00 0.40635043E+03</pdfrwt>
<pdfrwt beam="2">  1       21 0.45509624E-01 0.40635043E+03</pdfrwt>
<totfact> 0.24175337E+03</totfact>
</mgrwt>
</event>
<event>
 4    1  0.4758708E-002  0.4040483E+03  0.7818608E-02  0.1042387E+00
         21   -1    0    0  503  502  0.00000000000E+00  0.00000000000E+00  0.36525460856E+03  0.36525460856E+03  0.00000000000E+00 0. -1.
         21   -1    0    0  501  503 -0.00000000000E+00 -0.00000000000E+00 -0.44975512306E+03  0.44975512306E+03  0.00000000000E+00 0. -1.
    9000007    1    1    2  501    0  0.56470161115E+02 -0.81324284580E+01 -0.74362575027E+02  0.41083428296E+03  0.40000000000E+03 0. -1.
   -9000007    1    1    2    0  502 -0.56470161115E+02  0.81324284580E+01 -0.10137939475E+02  0.40417544867E+03  0.40000000000E+03 0. -1.
<mgrwt>
<rscale>  2 0.40404828E+03</rscale>
<asrwt>0</asrwt>
<pdfrwt beam="1">  1       21 0.56193017E-01 0.40404828E+03</pdfrwt>
<pdfrwt beam="2">  1       21 0.69193096E-01 0.40404828E+03</pdfrwt>
<totfact> 0.50655889E+03</totfact>
</mgrwt>
</event>
<event>
 4    1  0.4758708E-002  0.4212113E+03  0.7818608E-02  0.1036673E+00
         21   -1    0    0  503  502  0.00000000000E+00  0.00000000000E+00  0.50783277337E+03  0.50783277337E+03  0.00000000000E+00 0. -1.
         21   -1    0    0  501  503 -0.00000000000E+00 -0.00000000000E+00 -0.11561136864E+04  0.11561136864E+04  0.00000000000E+00 0. -1.
    9000007    1    1    2  501    0 -0.75902622856E+02  0.10797114268E+03 -0.10191299285E+04  0.11027442074E+04  0.40000000000E+03 0. -1.
   -9000007    1    1    2    0  502  0.75902622856E+02 -0.10797114268E+03  0.37084901545E+03  0.56120225237E+03  0.40000000000E+03 0. -1.
<mgrwt>
<rscale>  2 0.42121132E+03</rscale>
<asrwt>0</asrwt>
<pdfrwt beam="1">  1       21 0.78128120E-01 0.42121132E+03</pdfrwt>
<pdfrwt beam="2">  1       21 0.17786364E+00 0.42121132E+03</pdfrwt>
<totfact> 0.22576636E+02</totfact>
</mgrwt>
</event>
<event>
 4    1  0.4758708E-002  0.4304508E+03  0.7818608E-02  0.1033718E+00
         21   -1    0    0  503  502  0.00000000000E+00  0.00000000000E+00  0.53603324050E+03  0.53603324050E+03  0.00000000000E+00 0. -1.
         21   -1    0    0  501  503 -0.00000000000E+00 -0.00000000000E+00 -0.52100400565E+03  0.52100400565E+03  0.00000000000E+00 0. -1.
    9000007    1    1    2  501    0 -0.68181543191E+02 -0.14366325723E+03 -0.29909036531E+03  0.52415923242E+03  0.40000000000E+03 0.  1.
   -9000007    1    1    2    0  502  0.68181543191E+02  0.14366325723E+03  0.31411960016E+03  0.53287801373E+03  0.40000000000E+03 0.  1.
<mgrwt>
<rscale>  2 0.43045076E+03</rscale>
<asrwt>0</asrwt>
<pdfrwt beam="1">  1       21 0.82466652E-01 0.43045076E+03</pdfrwt>
<pdfrwt beam="2">  1       21 0.80154463E-01 0.43045076E+03</pdfrwt>
<totfact> 0.15206553E+03</totfact>
</mgrwt>
</event>
<event>
 4    1  0.4758708E-002  0.4126371E+03  0.7818608E-02  0.1039490E+00
         21   -1    0    0  501  502  0.00000000000E+00  0.00000000000E+00  0.59020299883E+03  0.59020299883E+03  0.00000000000E+00 0. -1.
         21   -1    0    0  502  503 -0.00000000000E+00 -0.00000000000E+00 -0.44778301790E+03  0.44778301790E+03  0.00000000000E+00 0. -1.
    9000007    1    1    2  501    0  0.10109672394E+03 -0.69894644054E+01  0.38075375199E+03  0.56146488747E+03  0.40000000000E+03 0. -1.
   -9000007    1    1    2    0  503 -0.10109672394E+03  0.69894644054E+01 -0.23833377106E+03  0.47652112926E+03  0.40000000000E+03 0. -1.
<mgrwt>
<rscale>  2 0.41263713E+03</rscale>
<asrwt>0</asrwt>
<pdfrwt beam="1">  1       21 0.90800462E-01 0.41263713E+03</pdfrwt>
<pdfrwt beam="2">  1       21 0.68889695E-01 0.41263713E+03</pdfrwt>
<totfact> 0.17247877E+03</totfact>
</mgrwt>
</event>
<event>
 4    1  0.4758708E-002  0.4547996E+03  0.7818608E-02  0.1026300E+00
         21   -1    0    0  503  502  0.00000000000E+00  0.00000000000E+00  0.12584683542E+04  0.12584683542E+04  0.00000000000E+00 0. -1.
         21   -1    0    0  501  503 -0.00000000000E+00 -0.00000000000E+00 -0.27757454452E+03  0.27757454452E+03  0.00000000000E+00 0. -1.
    9000007    1    1    2  501    0 -0.10057826337E+03 -0.19164203383E+03 -0.46788466785E-01  0.45479958046E+03  0.40000000000E+03 0. -1.
   -9000007    1    1    2    0  502  0.10057826337E+03  0.19164203383E+03  0.98094059813E+03  0.10812433182E+04  0.40000000000E+03 0. -1.
<mgrwt>
<rscale>  2 0.45479958E+03</rscale>
<asrwt>0</asrwt>
<pdfrwt beam="1">  1       21 0.19361051E+00 0.45479958E+03</pdfrwt>
<pdfrwt beam="2">  1       21 0.42703777E-01 0.45479958E+03</pdfrwt>
<totfact> 0.64430101E+02</totfact>
</mgrwt>
</event>
<event>
 4    1  0.4758708E-002  0.4871484E+03  0.7818608E-02  0.1017189E+00
         21   -1    0    0  503  502  0.00000000000E+00  0.00000000000E+00  0.33702907252E+03  0.33702907252E+03  0.00000000000E+00 0.  1.
         21   -1    0    0  501  503 -0.00000000000E+00 -0.00000000000E+00 -0.10308424103E+04  0.10308424103E+04  0.00000000000E+00 0.  1.
    9000007    1    1    2  501    0 -0.92843926484E+02  0.26209460614E+03 -0.73194096951E+03  0.87923327968E+03  0.40000000000E+03 0.  1.
   -9000007    1    1    2    0  502  0.92843926484E+02 -0.26209460614E+03  0.38127631736E+02  0.48863820313E+03  0.40000000000E+03 0.  1.
<mgrwt>
<rscale>  2 0.48714841E+03</rscale>
<asrwt>0</asrwt>
<pdfrwt beam="1">  1       21 0.51850627E-01 0.48714841E+03</pdfrwt>
<pdfrwt beam="2">  1       21 0.15859114E+00 0.48714841E+03</pdfrwt>
<totfact> 0.75133684E+02</totfact>
</mgrwt>
</event>
<event>
 4    1  0.4758708E-002  0.4351489E+03  0.7818608E-02  0.1032246E+00
         21   -1    0    0  503  502  0.00000000000E+00  0.00000000000E+00  0.10415675997E+04  0.10415675997E+04  0.00000000000E+00 0. -1.
         21   -1    0    0  501  503 -0.00000000000E+00 -0.00000000000E+00 -0.19533850608E+03  0.19533850608E+03  0.00000000000E+00 0. -1.
    9000007    1    1    2  501    0  0.16110442545E+03 -0.58308769985E+02  0.26028404329E+03  0.50705259269E+03  0.40000000000E+03 0. -1.
   -9000007    1    1    2    0  502 -0.16110442545E+03  0.58308769985E+02  0.58594505032E+03  0.72985351308E+03  0.40000000000E+03 0. -1.
<mgrwt>
<rscale>  2 0.43514888E+03</rscale>
<asrwt>0</asrwt>
<pdfrwt beam="1">  1       21 0.16024117E+00 0.43514888E+03</pdfrwt>
<pdfrwt beam="2">  1       21 0.30052079E-01 0.43514888E+03</pdfrwt>
<totfact> 0.22936037E+03</totfact>
</mgrwt>
</event>
<event>
 4    1  0.4758708E-002  0.5326140E+03  0.7818608E-02  0.1005600E+00
         21   -1    0    0  501  502  0.00000000000E+00  0.00000000000E+00  0.83231873608E+03  0.83231873608E+03  0.00000000000E+00 0. -1.
         21   -1    0    0  502  503 -0.00000000000E+00 -0.00000000000E+00 -0.75835588606E+03  0.75835588606E+03  0.00000000000E+00 0. -1.
    9000007    1    1    2  501    0  0.22380699784E+03 -0.27127134495E+03  0.62712468799E+03  0.82277766691E+03  0.40000000000E+03 0. -1.
   -9000007    1    1    2    0  503 -0.22380699784E+03  0.27127134495E+03 -0.55316183797E+03  0.76789695523E+03  0.40000000000E+03 0. -1.
<mgrwt>
<rscale>  2 0.53261404E+03</rscale>
<asrwt>0</asrwt>
<pdfrwt beam="1">  1       21 0.12804904E+00 0.53261404E+03</pdfrwt>
<pdfrwt beam="2">  1       21 0.11667014E+00 0.53261404E+03</pdfrwt>
<totfact> 0.20021154E+02</totfact>
</mgrwt>
</event>
<event>
 4    1  0.4758708E-002  0.4573349E+03  0.7818608E-02  0.1025557E+00
         21   -1    0    0  501  502  0.00000000000E+00  0.00000000000E+00  0.14893088470E+04  0.14893088470E+04  0.00000000000E+00 0.  1.
         21   -1    0    0  502  503 -0.00000000000E+00 -0.00000000000E+00 -0.17868929026E+03  0.17868929026E+03  0.00000000000E+00 0.  1.
    9000007    1    1    2  501    0 -0.21343828997E+03  0.59994302544E+02  0.10411794350E+04  0.11371938426E+04  0.40000000000E+03 0.  1.
   -9000007    1    1    2    0  503  0.21343828997E+03 -0.59994302544E+02  0.26944012178E+03  0.53080429462E+03  0.40000000000E+03 0.  1.
<mgrwt>
<rscale>  2 0.45733491E+03</rscale>
<asrwt>0</asrwt>
<pdfrwt beam="1">  1       21 0.22912443E+00 0.45733491E+03</pdfrwt>
<pdfrwt beam="2">  1       21 0.27490661E-01 0.45733491E+03</pdfrwt>
<totfact> 0.91962154E+02</totfact>
</mgrwt>
</event>
<event>
 4    1  0.4758708E-002  0.6023433E+03  0.7818608E-02  0.9900556E-01
         21   -1    0    0  501  502  0.00000000000E+00  0.00000000000E+00  0.49176396762E+03  0.49176396762E+03  0.00000000000E+00 0. -1.
         21   -1    0    0  502  503 -0.00000000000E+00 -0.00000000000E+00 -0.10462297622E+04  0.10462297622E+04  0.00000000000E+00 0.  1.
    9000007    1    1    2  501    0 -0.29477698815E+03  0.34047606140E+03  0.14030683878E+03  0.61846861694E+03  0.40000000000E+03 0.  1.
   -9000007    1    1    2    0  503  0.29477698815E+03 -0.34047606140E+03 -0.69477263332E+03  0.91952511284E+03  0.40000000000E+03 0.  1.
<mgrwt>
<rscale>  2 0.60234328E+03</rscale>
<asrwt>0</asrwt>
<pdfrwt beam="1">  1       21 0.75655995E-01 0.60234328E+03</pdfrwt>
<pdfrwt beam="2">  1       21 0.16095842E+00 0.60234328E+03</pdfrwt>
<totfact> 0.29825169E+02</totfact>
</mgrwt>
</event>
<event>
 4    1  0.4758708E-002  0.4957071E+03  0.7818608E-02  0.1014906E+00
         21   -1    0    0  501  502  0.00000000000E+00  0.00000000000E+00  0.20881739110E+04  0.20881739110E+04  0.00000000000E+00 0. -1.
         21   -1    0    0  502  503 -0.00000000000E+00 -0.00000000000E+00 -0.11985312798E+03  0.11985312798E+03  0.00000000000E+00 0. -1.
    9000007    1    1    2  501    0  0.21788196235E+03  0.19558381506E+03  0.11329953982E+04  0.12366908064E+04  0.40000000000E+03 0. -1.
   -9000007    1    1    2    0  503 -0.21788196235E+03 -0.19558381506E+03  0.83532538479E+03  0.97133623257E+03  0.40000000000E+03 0. -1.
<mgrwt>
<rscale>  2 0.49570715E+03</rscale>
<asrwt>0</asrwt>
<pdfrwt beam="1">  1       21 0.32125750E+00 0.49570715E+03</pdfrwt>
<pdfrwt beam="2">  1       21 0.18438944E-01 0.49570715E+03</pdfrwt>
<totfact> 0.53427061E+02</totfact>
</mgrwt>
</event>
<event>
 4    1  0.4758708E-002  0.5902133E+03  0.7818608E-02  0.9925921E-01
         21   -1    0    0  503  502  0.00000000000E+00  0.00000000000E+00  0.40251381391E+03  0.40251381391E+03  0.00000000000E+00 0. -1.
         21   -1    0    0  501  503 -0.00000000000E+00 -0.00000000000E+00 -0.14740584258E+04  0.14740584258E+04  0.00000000000E+00 0.  1.
    9000007    1    1    2  501    0  0.68735191533E+02  0.42851739694E+03 -0.11386793739E+04  0.12825530798E+04  0.40000000000E+03 0. -1.
   -9000007    1    1    2    0  502 -0.68735191533E+02 -0.42851739694E+03  0.67134762019E+02  0.59401915988E+03  0.40000000000E+03 0. -1.
<mgrwt>
<rscale>  2 0.59021325E+03</rscale>
<asrwt>0</asrwt>
<pdfrwt beam="1">  1       21 0.61925203E-01 0.59021325E+03</pdfrwt>
<pdfrwt beam="2">  1       21 0.22677822E+00 0.59021325E+03</pdfrwt>
<totfact> 0.16553355E+02</totfact>
</mgrwt>
</event>
<event>
 4    1  0.4758708E-002  0.4296685E+03  0.7818608E-02  0.1033965E+00
         21   -1    0    0  501  502  0.00000000000E+00  0.00000000000E+00  0.85056057116E+03  0.85056057116E+03  0.00000000000E+00 0. -1.
         21   -1    0    0  502  503 -0.00000000000E+00 -0.00000000000E+00 -0.24740369453E+03  0.24740369453E+03  0.00000000000E+00 0. -1.
    9000007    1    1    2  501    0 -0.13528659636E+03  0.79451490953E+02  0.49386720471E+03  0.65461425164E+03  0.40000000000E+03 0. -1.
   -9000007    1    1    2    0  503  0.13528659636E+03 -0.79451490953E+02  0.10928967192E+03  0.44335001405E+03  0.40000000000E+03 0. -1.
<mgrwt>
<rscale>  2 0.42966848E+03</rscale>
<asrwt>0</asrwt>
<pdfrwt beam="1">  1       21 0.13085547E+00 0.42966848E+03</pdfrwt>
<pdfrwt beam="2">  1       21 0.38062107E-01 0.42966848E+03</pdfrwt>
<totfact> 0.24602771E+03</totfact>
</mgrwt>
</event>
<event>
 4    1  0.4758708E-002  0.4564783E+03  0.7818608E-02  0.1025808E+00
         21   -1    0    0  501  502  0.00000000000E+00  0.00000000000E+00  0.48733713806E+03  0.48733713806E+03  0.00000000000E+00 0.  1.
         21   -1    0    0  502  503 -0.00000000000E+00 -0.00000000000E+00 -0.77447917145E+03  0.77447917145E+03  0.00000000000E+00 0.  1.
    9000007    1    1    2  501    0 -0.18293963484E+03 -0.12208804075E+03  0.27867642688E+03  0.53482048445E+03  0.40000000000E+03 0.  1.
   -9000007    1    1    2    0  503  0.18293963484E+03  0.12208804075E+03 -0.56581846026E+03  0.72699582507E+03  0.40000000000E+03 0.  1.
<mgrwt>
<rscale>  2 0.45647826E+03</rscale>
<asrwt>0</asrwt>
<pdfrwt beam="1">  1       21 0.74974945E-01 0.45647826E+03</pdfrwt>
<pdfrwt beam="2">  1       21 0.11915064E+00 0.45647826E+03</pdfrwt>
<totfact> 0.71891448E+02</totfact>
</mgrwt>
</event>
<event>
 4    1  0.4758708E-002  0.4694627E+03  0.7818608E-02  0.1022072E+00
         21   -1    0    0  501  502  0.00000000000E+00  0.00000000000E+00  0.36119767266E+03  0.36119767266E+03  0.00000000000E+00 0.  1.
         21   -1    0    0  502  503 -0.00000000000E+00 -0.00000000000E+00 -0.63926967391E+03  0.63926967391E+03  0.00000000000E+00 0.  1.
    9000007    1    1    2  501    0  0.12631392589E+03 -0.21080794186E+03 -0.32325155872E+02  0.47057423636E+03  0.40000000000E+03 0.  1.
   -9000007    1    1    2    0  503 -0.12631392589E+03  0.21080794186E+03 -0.24574684537E+03  0.52989311020E+03  0.40000000000E+03 0.  1.
<mgrwt>
<rscale>  2 0.46946267E+03</rscale>
<asrwt>0</asrwt>
<pdfrwt beam="1">  1       21 0.55568873E-01 0.46946267E+03</pdfrwt>
<pdfrwt beam="2">  1       21 0.98349180E-01 0.46946267E+03</pdfrwt>
<totfact> 0.22375394E+03</totfact>
</mgrwt>
</event>
<event>
 4    1  0.4758708E-002  0.5187998E+03  0.7818608E-02  0.1008985E+00
         21   -1    0    0  503  502  0.00000000000E+00  0.00000000000E+00  0.98108180128E+03  0.98108180128E+03  0.00000000000E+00 0. -1.
         21   -1    0    0  501  503 -0.00000000000E+00 -0.00000000000E+00 -0.38849864967E+03  0.38849864967E+03  0.00000000000E+00 0. -1.
    9000007    1    1    2  501    0  0.19482240080E+03  0.26682861927E+03 -0.74910855400E+02  0.52418023252E+03  0.40000000000E+03 0. -1.
   -9000007    1    1    2    0  502 -0.19482240080E+03 -0.26682861927E+03  0.66749400702E+03  0.84540021843E+03  0.40000000000E+03 0. -1.
<mgrwt>
<rscale>  2 0.51879985E+03</rscale>
<asrwt>0</asrwt>
<pdfrwt beam="1">  1       21 0.15093566E+00 0.51879985E+03</pdfrwt>
<pdfrwt beam="2">  1       21 0.59769023E-01 0.51879985E+03</pdfrwt>
<totfact> 0.62484147E+02</totfact>
</mgrwt>
</event>
<event>
 4    1  0.4758708E-002  0.5088511E+03  0.7818608E-02  0.1011494E+00
         21   -1    0    0  503  502  0.00000000000E+00  0.00000000000E+00  0.38967257640E+03  0.38967257640E+03  0.00000000000E+00 0. -1.
         21   -1    0    0  501  503 -0.00000000000E+00 -0.00000000000E+00 -0.66951263086E+03  0.66951263086E+03  0.00000000000E+00 0.  1.
    9000007    1    1    2  501    0 -0.41578636688E+01  0.31450309320E+03 -0.18583736306E+03  0.54172410780E+03  0.40000000000E+03 0. -1.
   -9000007    1    1    2    0  502  0.41578636688E+01 -0.31450309320E+03 -0.94002691395E+02  0.51746109946E+03  0.40000000000E+03 0.  1.
<mgrwt>
<rscale>  2 0.50885114E+03</rscale>
<asrwt>0</asrwt>
<pdfrwt beam="1">  1       21 0.59949627E-01 0.50885114E+03</pdfrwt>
<pdfrwt beam="2">  1       21 0.10300194E+00 0.50885114E+03</pdfrwt>
<totfact> 0.16708609E+03</totfact>
</mgrwt>
</event>
<event>
 4    1  0.4758708E-002  0.5263780E+03  0.7818608E-02  0.1007114E+00
         21   -1    0    0  501  502  0.00000000000E+00  0.00000000000E+00  0.28874238285E+03  0.28874238285E+03  0.00000000000E+00 0. -1.
         21   -1    0    0  502  503 -0.00000000000E+00 -0.00000000000E+00 -0.11551763557E+04  0.11551763557E+04  0.00000000000E+00 0.  1.
    9000007    1    1    2  501    0 -0.20942481918E+03  0.27058273291E+03 -0.13614620560E+03  0.54369988002E+03  0.40000000000E+03 0. -1.
   -9000007    1    1    2    0  503  0.20942481918E+03 -0.27058273291E+03 -0.73028776722E+03  0.90021885850E+03  0.40000000000E+03 0.  1.
<mgrwt>
<rscale>  2 0.52637797E+03</rscale>
<asrwt>0</asrwt>
<pdfrwt beam="1">  1       21 0.44421905E-01 0.52637797E+03</pdfrwt>
<pdfrwt beam="2">  1       21 0.17771944E+00 0.52637797E+03</pdfrwt>
<totfact> 0.74221869E+02</totfact>
</mgrwt>
</event>
<event>
 4    1  0.4758708E-002  0.5117086E+03  0.7818608E-02  0.1010767E+00
         21   -1    0    0  503  502  0.00000000000E+00  0.00000000000E+00  0.11049098295E+04  0.11049098295E+04  0.00000000000E+00 0.  1.
         21   -1    0    0  501  503 -0.00000000000E+00 -0.00000000000E+00 -0.26244352432E+03  0.26244352432E+03  0.00000000000E+00 0.  1.
    9000007    1    1    2  501    0 -0.11289113744E+03  0.29849833358E+03  0.20829171008E+03  0.55247723985E+03  0.40000000000E+03 0.  1.
   -9000007    1    1    2    0  502  0.11289113744E+03 -0.29849833358E+03  0.63417459514E+03  0.81487611401E+03  0.40000000000E+03 0.  1.
<mgrwt>
<rscale>  2 0.51170857E+03</rscale>
<asrwt>0</asrwt>
<pdfrwt beam="1">  1       21 0.16998612E+00 0.51170857E+03</pdfrwt>
<pdfrwt beam="2">  1       21 0.40375928E-01 0.51170857E+03</pdfrwt>
<totfact> 0.10357361E+03</totfact>
</mgrwt>
</event>
<event>
 4    1  0.4758708E-002  0.4363831E+03  0.7818608E-02  0.1031862E+00
         21   -1    0    0  501  502  0.00000000000E+00  0.00000000000E+00  0.91111493070E+03  0.91111493070E+03  0.00000000000E+00 0.  1.
         21   -1    0    0  502  503 -0.00000000000E+00 -0.00000000000E+00 -0.34177087646E+03  0.34177087646E+03  0.00000000000E+00 0.  1.
    9000007    1    1    2  501    0 -0.13011905363E+03  0.11618606398E+03  0.67511044612E+03  0.80386832506E+03  0.40000000000E+03 0.  1.
   -9000007    1    1    2    0  503  0.13011905363E+03 -0.11618606398E+03 -0.10576639187E+03  0.44901748210E+03  0.40000000000E+03 0.  1.
<mgrwt>
<rscale>  2 0.43638305E+03</rscale>
<asrwt>0</asrwt>
<pdfrwt beam="1">  1       21 0.14017153E+00 0.43638305E+03</pdfrwt>
<pdfrwt beam="2">  1       21 0.52580135E-01 0.43638305E+03</pdfrwt>
<totfact> 0.10419805E+03</totfact>
</mgrwt>
</event>
<event>
 4    1  0.4758708E-002  0.5394844E+03  0.7818608E-02  0.1003958E+00
         21   -1    0    0  501  502  0.00000000000E+00  0.00000000000E+00  0.11963203986E+04  0.11963203986E+04  0.00000000000E+00 0. -1.
         21   -1    0    0  502  503 -0.00000000000E+00 -0.00000000000E+00 -0.24708773347E+03  0.24708773347E+03  0.00000000000E+00 0.  1.
    9000007    1    1    2  501    0  0.19924784125E+02  0.36145049729E+03  0.38505071870E+03  0.66280277231E+03  0.40000000000E+03 0.  1.
   -9000007    1    1    2    0  503 -0.19924784125E+02 -0.36145049729E+03  0.56418194647E+03  0.78060535979E+03  0.40000000000E+03 0. -1.
<mgrwt>
<rscale>  2 0.53948444E+03</rscale>
<asrwt>0</asrwt>
<pdfrwt beam="1">  1       21 0.18404929E+00 0.53948444E+03</pdfrwt>
<pdfrwt beam="2">  1       21 0.38013498E-01 0.53948444E+03</pdfrwt>
<totfact> 0.92048193E+02</totfact>
</mgrwt>
</event>
<event>
 4    1  0.4758708E-002  0.5050344E+03  0.7818608E-02  0.1012473E+00
         21   -1    0    0  501  502  0.00000000000E+00  0.00000000000E+00  0.15690503885E+04  0.15690503885E+04  0.00000000000E+00 0.  1.
         21   -1    0    0  502  503 -0.00000000000E+00 -0.00000000000E+00 -0.27731863431E+03  0.27731863431E+03  0.00000000000E+00 0. -1.
    9000007    1    1    2  501    0  0.30299404157E+03  0.57046986441E+02  0.12397446450E+04  0.13386659527E+04  0.40000000000E+03 0.  1.
   -9000007    1    1    2    0  503 -0.30299404157E+03 -0.57046986441E+02  0.51987109102E+02  0.50770307011E+03  0.40000000000E+03 0. -1.
<mgrwt>
<rscale>  2 0.50503440E+03</rscale>
<asrwt>0</asrwt>
<pdfrwt beam="1">  1       21 0.24139236E+00 0.50503440E+03</pdfrwt>
<pdfrwt beam="2">  1       21 0.42664406E-01 0.50503440E+03</pdfrwt>
<totfact> 0.30946383E+02</totfact>
</mgrwt>
</event>
<event>
 4    1  0.4758708E-002  0.4298385E+03  0.7818608E-02  0.1033911E+00
         21   -1    0    0  501  502  0.00000000000E+00  0.00000000000E+00  0.66882037940E+03  0.66882037940E+03  0.00000000000E+00 0.  1.
         21   -1    0    0  502  503 -0.00000000000E+00 -0.00000000000E+00 -0.36217254572E+03  0.36217254572E+03  0.00000000000E+00 0.  1.
    9000007    1    1    2  501    0 -0.15581629367E+03  0.21964715327E+02  0.40441034964E+03  0.59017700479E+03  0.40000000000E+03 0.  1.
   -9000007    1    1    2    0  503  0.15581629367E+03 -0.21964715327E+02 -0.97762515955E+02  0.44081592033E+03  0.40000000000E+03 0.  1.
<mgrwt>
<rscale>  2 0.42983853E+03</rscale>
<asrwt>0</asrwt>
<pdfrwt beam="1">  1       21 0.10289544E+00 0.42983853E+03</pdfrwt>
<pdfrwt beam="2">  1       21 0.55718853E-01 0.42983853E+03</pdfrwt>
<totfact> 0.20225742E+03</totfact>
</mgrwt>
</event>
<event>
 4    1  0.4758708E-002  0.4706670E+03  0.7818608E-02  0.1021732E+00
         21   -1    0    0  503  502  0.00000000000E+00  0.00000000000E+00  0.64678628237E+03  0.64678628237E+03  0.00000000000E+00 0. -1.
         21   -1    0    0  501  503 -0.00000000000E+00 -0.00000000000E+00 -0.34515231900E+03  0.34515231900E+03  0.00000000000E+00 0. -1.
    9000007    1    1    2  501    0  0.60079705396E+02  0.24066121840E+03  0.10737890172E+03  0.48276041840E+03  0.40000000000E+03 0. -1.
   -9000007    1    1    2    0  502 -0.60079705396E+02 -0.24066121840E+03  0.19425506165E+03  0.50917818297E+03  0.40000000000E+03 0. -1.
<mgrwt>
<rscale>  2 0.47066697E+03</rscale>
<asrwt>0</asrwt>
<pdfrwt beam="1">  1       21 0.99505581E-01 0.47066697E+03</pdfrwt>
<pdfrwt beam="2">  1       21 0.53100357E-01 0.47066697E+03</pdfrwt>
<totfact> 0.23979874E+03</totfact>
</mgrwt>
</event>
<event>
 4    1  0.4758708E-002  0.6449822E+03  0.7818608E-02  0.9816241E-01
         21   -1    0    0  501  502  0.00000000000E+00  0.00000000000E+00  0.19121217046E+04  0.19121217046E+04  0.00000000000E+00 0. -1.
         21   -1    0    0  502  503 -0.00000000000E+00 -0.00000000000E+00 -0.22013531512E+03  0.22013531512E+03  0.00000000000E+00 0.  1.
    9000007    1    1    2  501    0 -0.18993133324E+03 -0.46896488541E+03  0.73068886413E+03  0.97463233645E+03  0.40000000000E+03 0.  1.
   -9000007    1    1    2    0  503  0.18993133324E+03  0.46896488541E+03  0.96129752537E+03  0.11576246833E+04  0.40000000000E+03 0. -1.
<mgrwt>
<rscale>  2 0.64498215E+03</rscale>
<asrwt>0</asrwt>
<pdfrwt beam="1">  1       21 0.29417256E+00 0.64498215E+03</pdfrwt>
<pdfrwt beam="2">  1       21 0.33866973E-01 0.64498215E+03</pdfrwt>
<totfact> 0.22185047E+02</totfact>
</mgrwt>
</event>
<event>
 4    1  0.4758708E-002  0.5610312E+03  0.7818608E-02  0.9989724E-01
         21   -1    0    0  501  502  0.00000000000E+00  0.00000000000E+00  0.11304034111E+04  0.11304034111E+04  0.00000000000E+00 0.  1.
         21   -1    0    0  502  503 -0.00000000000E+00 -0.00000000000E+00 -0.33543643439E+03  0.33543643439E+03  0.00000000000E+00 0. -1.
    9000007    1    1    2  501    0 -0.31884145478E+03  0.23042597791E+03  0.69958536126E+03  0.89675843028E+03  0.40000000000E+03 0.  1.
   -9000007    1    1    2    0  503  0.31884145478E+03 -0.23042597791E+03  0.95381615469E+02  0.56908141523E+03  0.40000000000E+03 0.  1.
<mgrwt>
<rscale>  2 0.56103120E+03</rscale>
<asrwt>0</asrwt>
<pdfrwt beam="1">  1       21 0.17390822E+00 0.56103120E+03</pdfrwt>
<pdfrwt beam="2">  1       21 0.51605606E-01 0.56103120E+03</pdfrwt>
<totfact> 0.56770905E+02</totfact>
</mgrwt>
</event>
<event>
 4    1  0.4758708E-002  0.4271013E+03  0.7818608E-02  0.1034780E+00
         21   -1    0    0  501  502  0.00000000000E+00  0.00000000000E+00  0.72638526342E+03  0.72638526342E+03  0.00000000000E+00 0.  1.
         21   -1    0    0  502  503 -0.00000000000E+00 -0.00000000000E+00 -0.33063367796E+03  0.33063367796E+03  0.00000000000E+00 0.  1.
    9000007    1    1    2  501    0  0.13215298443E+03  0.70364225075E+02  0.45704227869E+03  0.62554230870E+03  0.40000000000E+03 0.  1.
   -9000007    1    1    2    0  503 -0.13215298443E+03 -0.70364225075E+02 -0.61290693234E+02  0.43147663267E+03  0.40000000000E+03 0.  1.
<mgrwt>
<rscale>  2 0.42710132E+03</rscale>
<asrwt>0</asrwt>
<pdfrwt beam="1">  1       21 0.11175158E+00 0.42710132E+03</pdfrwt>
<pdfrwt beam="2">  1       21 0.50866720E-01 0.42710132E+03</pdfrwt>
<totfact> 0.20082110E+03</totfact>
</mgrwt>
</event>
<event>
 4    1  0.4758708E-002  0.4012015E+03  0.7818608E-02  0.1043364E+00
         21   -1    0    0  503  502  0.00000000000E+00  0.00000000000E+00  0.89790865937E+03  0.89790865937E+03  0.00000000000E+00 0.  1.
         21   -1    0    0  501  503 -0.00000000000E+00 -0.00000000000E+00 -0.27779854412E+03  0.27779854412E+03  0.00000000000E+00 0.  1.
    9000007    1    1    2  501    0  0.12288279590E+02  0.28489351308E+02 -0.40050162762E+02  0.40319556110E+03  0.40000000000E+03 0.  1.
   -9000007    1    1    2    0  502 -0.12288279590E+02 -0.28489351308E+02  0.66016027802E+03  0.77251164239E+03  0.40000000000E+03 0.  1.
<mgrwt>
<rscale>  2 0.40120150E+03</rscale>
<asrwt>0</asrwt>
<pdfrwt beam="1">  1       21 0.13813979E+00 0.40120150E+03</pdfrwt>
<pdfrwt beam="2">  1       21 0.42738238E-01 0.40120150E+03</pdfrwt>
<totfact> 0.17026436E+03</totfact>
</mgrwt>
</event>
<event>
 4    1  0.4758708E-002  0.5469885E+03  0.7818608E-02  0.1002193E+00
         21   -1    0    0  503  502  0.00000000000E+00  0.00000000000E+00  0.28953661014E+03  0.28953661014E+03  0.00000000000E+00 0. -1.
         21   -1    0    0  501  503 -0.00000000000E+00 -0.00000000000E+00 -0.10345054757E+04  0.10345054757E+04  0.00000000000E+00 0. -1.
    9000007    1    1    2  501    0  0.19599481145E+03  0.31746246219E+03 -0.39448604501E+03  0.67440019330E+03  0.40000000000E+03 0. -1.
   -9000007    1    1    2    0  502 -0.19599481145E+03 -0.31746246219E+03 -0.35048282051E+03  0.64964189250E+03  0.40000000000E+03 0. -1.
<mgrwt>
<rscale>  2 0.54698847E+03</rscale>
<asrwt>0</asrwt>
<pdfrwt beam="1">  1       21 0.44544093E-01 0.54698847E+03</pdfrwt>
<pdfrwt beam="2">  1       21 0.15915469E+00 0.54698847E+03</pdfrwt>
<totfact> 0.10037975E+03</totfact>
</mgrwt>
</event>
<event>
 4    1  0.4758708E-002  0.6273416E+03  0.7818608E-02  0.9850250E-01
         21   -1    0    0  501  502  0.00000000000E+00  0.00000000000E+00  0.54335269933E+03  0.54335269933E+03  0.00000000000E+00 0. -1.
         21   -1    0    0  502  503 -0.00000000000E+00 -0.00000000000E+00 -0.12770772023E+04  0.12770772023E+04  0.00000000000E+00 0.  1.
    9000007    1    1    2  501    0 -0.48254126053E+03  0.26672538834E+02  0.23197015399E+03  0.66885547376E+03  0.40000000000E+03 0. -1.
   -9000007    1    1    2    0  503  0.48254126053E+03 -0.26672538834E+02 -0.96569465694E+03  0.11515744278E+04  0.40000000000E+03 0.  1.
<mgrwt>
<rscale>  2 0.62734161E+03</rscale>
<asrwt>0</asrwt>
<pdfrwt beam="1">  1       21 0.83592724E-01 0.62734161E+03</pdfrwt>
<pdfrwt beam="2">  1       21 0.19647341E+00 0.62734161E+03</pdfrwt>
<totfact> 0.13032644E+02</totfact>
</mgrwt>
</event>
<event>
 4    1  0.4758708E-002  0.5638139E+03  0.7818608E-02  0.9983462E-01
         21   -1    0    0  501  502  0.00000000000E+00  0.00000000000E+00  0.68909445110E+03  0.68909445110E+03  0.00000000000E+00 0.  1.
         21   -1    0    0  502  503 -0.00000000000E+00 -0.00000000000E+00 -0.11556519133E+04  0.11556519133E+04  0.00000000000E+00 0. -1.
    9000007    1    1    2  501    0 -0.21404930325E+03  0.33476713771E+03  0.48167814337E+03  0.74155240848E+03  0.40000000000E+03 0.  1.
   -9000007    1    1    2    0  503  0.21404930325E+03 -0.33476713771E+03 -0.94823560559E+03  0.11031939559E+04  0.40000000000E+03 0. -1.
<mgrwt>
<rscale>  2 0.56381392E+03</rscale>
<asrwt>0</asrwt>
<pdfrwt beam="1">  1       21 0.10601453E+00 0.56381392E+03</pdfrwt>
<pdfrwt beam="2">  1       21 0.17779260E+00 0.56381392E+03</pdfrwt>
<totfact> 0.10180963E+02</totfact>
</mgrwt>
</event>
<event>
 4    1  0.4758708E-002  0.4076966E+03  0.7818608E-02  0.1041147E+00
         21   -1    0    0  503  502  0.00000000000E+00  0.00000000000E+00  0.74176262999E+03  0.74176262999E+03  0.00000000000E+00 0.  1.
         21   -1    0    0  501  503 -0.00000000000E+00 -0.00000000000E+00 -0.33685813726E+03  0.33685813726E+03  0.00000000000E+00 0.  1.
    9000007    1    1    2  501    0  0.41207155531E+01 -0.78737349988E+02 -0.10959585182E+03  0.42217034633E+03  0.40000000000E+03 0.  1.
   -9000007    1    1    2    0  502 -0.41207155531E+01  0.78737349988E+02  0.51450034456E+03  0.65645042093E+03  0.40000000000E+03 0.  1.
<mgrwt>
<rscale>  2 0.40769664E+03</rscale>
<asrwt>0</asrwt>
<pdfrwt beam="1">  1       21 0.11411733E+00 0.40769664E+03</pdfrwt>
<pdfrwt beam="2">  1       21 0.51824329E-01 0.40769664E+03</pdfrwt>
<totfact> 0.18466326E+03</totfact>
</mgrwt>
</event>
<event>
 4    1  0.4758708E-002  0.4761126E+03  0.7818608E-02  0.1020209E+00
         21   -1    0    0  501  502  0.00000000000E+00  0.00000000000E+00  0.39434791384E+03  0.39434791384E+03  0.00000000000E+00 0. -1.
         21   -1    0    0  502  503 -0.00000000000E+00 -0.00000000000E+00 -0.72686569581E+03  0.72686569581E+03  0.00000000000E+00 0.  1.
    9000007    1    1    2  501    0  0.22009244320E+03 -0.13506498057E+03  0.90132394848E+02  0.48456896426E+03  0.40000000000E+03 0. -1.
   -9000007    1    1    2    0  503 -0.22009244320E+03  0.13506498057E+03 -0.42265017682E+03  0.63664464538E+03  0.40000000000E+03 0.  1.
<mgrwt>
<rscale>  2 0.47611263E+03</rscale>
<asrwt>0</asrwt>
<pdfrwt beam="1">  1       21 0.60668911E-01 0.47611263E+03</pdfrwt>
<pdfrwt beam="2">  1       21 0.11182549E+00 0.47611263E+03</pdfrwt>
<totfact> 0.13434873E+03</totfact>
</mgrwt>
</event>
<event>
 4    1  0.4758708E-002  0.5789612E+03  0.7818608E-02  0.9950042E-01
         21   -1    0    0  503  502  0.00000000000E+00  0.00000000000E+00  0.33912478303E+03  0.33912478303E+03  0.00000000000E+00 0.  1.
         21   -1    0    0  501  503 -0.00000000000E+00 -0.00000000000E+00 -0.10537801041E+04  0.10537801041E+04  0.00000000000E+00 0.  1.
    9000007    1    1    2  501    0  0.99435002994E+02  0.40658183272E+03 -0.18387194134E+03  0.60745781527E+03  0.40000000000E+03 0.  1.
   -9000007    1    1    2    0  502 -0.99435002994E+02 -0.40658183272E+03 -0.53078337976E+03  0.78544707189E+03  0.40000000000E+03 0.  1.
<mgrwt>
<rscale>  2 0.57896123E+03</rscale>
<asrwt>0</asrwt>
<pdfrwt beam="1">  1       21 0.52173044E-01 0.57896123E+03</pdfrwt>
<pdfrwt beam="2">  1       21 0.16212002E+00 0.57896123E+03</pdfrwt>
<totfact> 0.67338076E+02</totfact>
</mgrwt>
</event>
<event>
 4    1  0.4758708E-002  0.4370346E+03  0.7818608E-02  0.1031661E+00
         21   -1    0    0  501  502  0.00000000000E+00  0.00000000000E+00  0.13000011995E+04  0.13000011995E+04  0.00000000000E+00 0. -1.
         21   -1    0    0  502  503 -0.00000000000E+00 -0.00000000000E+00 -0.27856191850E+03  0.27856191850E+03  0.00000000000E+00 0. -1.
    9000007    1    1    2  501    0 -0.21718170618E+02 -0.17472149970E+03  0.10533002198E+04  0.11403686397E+04  0.40000000000E+03 0. -1.
   -9000007    1    1    2    0  503  0.21718170618E+02  0.17472149970E+03 -0.31860938789E+02  0.43819447830E+03  0.40000000000E+03 0. -1.
<mgrwt>
<rscale>  2 0.43703465E+03</rscale>
<asrwt>0</asrwt>
<pdfrwt beam="1">  1       21 0.20000018E+00 0.43703465E+03</pdfrwt>
<pdfrwt beam="2">  1       21 0.42855680E-01 0.43703465E+03</pdfrwt>
<totfact> 0.58432273E+02</totfact>
</mgrwt>
</event>
<event>
 4    1  0.4758708E-002  0.4208372E+03  0.7818608E-02  0.1036794E+00
         21   -1    0    0  503  502  0.00000000000E+00  0.00000000000E+00  0.29889805641E+03  0.29889805641E+03  0.00000000000E+00 0. -1.
         21   -1    0    0  501  503 -0.00000000000E+00 -0.00000000000E+00 -0.87651538117E+03  0.87651538117E+03  0.00000000000E+00 0. -1.
    9000007    1    1    2  501    0 -0.51862901923E+02 -0.12005922452E+03 -0.62333800486E+03  0.75209989116E+03  0.40000000000E+03 0. -1.
   -9000007    1    1    2    0  502  0.51862901923E+02  0.12005922452E+03  0.45720680095E+02  0.42331354641E+03  0.40000000000E+03 0. -1.
<mgrwt>
<rscale>  2 0.42083723E+03</rscale>
<asrwt>0</asrwt>
<pdfrwt beam="1">  1       21 0.45984317E-01 0.42083723E+03</pdfrwt>
<pdfrwt beam="2">  1       21 0.13484852E+00 0.42083723E+03</pdfrwt>
<totfact> 0.15435736E+03</totfact>
</mgrwt>
</event>
<event>
 4    1  0.4758708E-002  0.4580018E+03  0.7818608E-02  0.1025362E+00
         21   -1    0    0  503  502  0.00000000000E+00  0.00000000000E+00  0.17797006689E+04  0.17797006689E+04  0.00000000000E+00 0.  1.
         21   -1    0    0  501  503 -0.00000000000E+00 -0.00000000000E+00 -0.11818574683E+03  0.11818574683E+03  0.00000000000E+00 0.  1.
    9000007    1    1    2  501    0  0.46846519898E+02  0.21810799108E+03  0.78137711660E+03  0.90571291839E+03  0.40000000000E+03 0.  1.
   -9000007    1    1    2    0  502 -0.46846519898E+02 -0.21810799108E+03  0.88013780544E+03  0.99217349731E+03  0.40000000000E+03 0.  1.
<mgrwt>
<rscale>  2 0.45800185E+03</rscale>
<asrwt>0</asrwt>
<pdfrwt beam="1">  1       21 0.27380008E+00 0.45800185E+03</pdfrwt>
<pdfrwt beam="2">  1       21 0.18182424E-01 0.45800185E+03</pdfrwt>
<totfact> 0.10822427E+03</totfact>
</mgrwt>
</event>
<event>
 4    1  0.4758708E-002  0.5200402E+03  0.7818608E-02  0.1008677E+00
         21   -1    0    0  501  502  0.00000000000E+00  0.00000000000E+00  0.34793016658E+03  0.34793016658E+03  0.00000000000E+00 0. -1.
         21   -1    0    0  502  503 -0.00000000000E+00 -0.00000000000E+00 -0.77846612700E+03  0.77846612700E+03  0.00000000000E+00 0. -1.
    9000007    1    1    2  501    0 -0.21927712597E+03 -0.24971852327E+03 -0.19335436962E+03  0.55482223377E+03  0.40000000000E+03 0. -1.
   -9000007    1    1    2    0  503  0.21927712597E+03  0.24971852327E+03 -0.23718159080E+03  0.57157405982E+03  0.40000000000E+03 0. -1.
<mgrwt>
<rscale>  2 0.52004019E+03</rscale>
<asrwt>0</asrwt>
<pdfrwt beam="1">  1       21 0.53527718E-01 0.52004019E+03</pdfrwt>
<pdfrwt beam="2">  1       21 0.11976402E+00 0.52004019E+03</pdfrwt>
<totfact> 0.14618120E+03</totfact>
</mgrwt>
</event>
<event>
 4    1  0.4758708E-002  0.4852304E+03  0.7818608E-02  0.1017708E+00
         21   -1    0    0  501  502  0.00000000000E+00  0.00000000000E+00  0.85866378917E+03  0.85866378917E+03  0.00000000000E+00 0.  1.
         21   -1    0    0  502  503 -0.00000000000E+00 -0.00000000000E+00 -0.74740227292E+03  0.74740227292E+03  0.00000000000E+00 0. -1.
    9000007    1    1    2  501    0 -0.15887695859E+03 -0.22406849166E+03  0.69459716815E+03  0.84729794224E+03  0.40000000000E+03 0.  1.
   -9000007    1    1    2    0  503  0.15887695859E+03  0.22406849166E+03 -0.58333565189E+03  0.75876811985E+03  0.40000000000E+03 0. -1.
<mgrwt>
<rscale>  2 0.48523044E+03</rscale>
<asrwt>0</asrwt>
<pdfrwt beam="1">  1       21 0.13210212E+00 0.48523044E+03</pdfrwt>
<pdfrwt beam="2">  1       21 0.11498497E+00 0.48523044E+03</pdfrwt>
<totfact> 0.19554568E+02</totfact>
</mgrwt>
</event>
<event>
 4    1  0.4758708E-002  0.4025524E+03  0.7818608E-02  0.1042899E+00
         21   -1    0    0  503  502  0.00000000000E+00  0.00000000000E+00  0.38194786519E+03  0.38194786519E+03  0.00000000000E+00 0. -1.
         21   -1    0    0  501  503 -0.00000000000E+00 -0.00000000000E+00 -0.65429534662E+03  0.65429534662E+03  0.00000000000E+00 0. -1.
    9000007    1    1    2  501    0  0.36511148574E+02  0.26746449179E+02 -0.44338284217E+03  0.59886290689E+03  0.40000000000E+03 0. -1.
   -9000007    1    1    2    0  502 -0.36511148574E+02 -0.26746449179E+02  0.17103536074E+03  0.43738030492E+03  0.40000000000E+03 0. -1.
<mgrwt>
<rscale>  2 0.40255240E+03</rscale>
<asrwt>0</asrwt>
<pdfrwt beam="1">  1       21 0.58761211E-01 0.40255240E+03</pdfrwt>
<pdfrwt beam="2">  1       21 0.10066082E+00 0.40255240E+03</pdfrwt>
<totfact> 0.19228733E+03</totfact>
</mgrwt>
</event>
<event>
 4    1  0.4758708E-002  0.4321127E+03  0.7818608E-02  0.1033195E+00
         21   -1    0    0  503  502  0.00000000000E+00  0.00000000000E+00  0.87208839211E+03  0.87208839211E+03  0.00000000000E+00 0.  1.
         21   -1    0    0  501  503 -0.00000000000E+00 -0.00000000000E+00 -0.10332352828E+04  0.10332352828E+04  0.00000000000E+00 0.  1.
    9000007    1    1    2  501    0 -0.10086171718E+02 -0.16315524152E+03 -0.92880567530E+03  0.10244029218E+04  0.40000000000E+03 0.  1.
   -9000007    1    1    2    0  502  0.10086171718E+02  0.16315524152E+03  0.76765878460E+03  0.88092075312E+03  0.40000000000E+03 0.  1.
<mgrwt>
<rscale>  2 0.43211267E+03</rscale>
<asrwt>0</asrwt>
<pdfrwt beam="1">  1       21 0.13416745E+00 0.43211267E+03</pdfrwt>
<pdfrwt beam="2">  1       21 0.15895927E+00 0.43211267E+03</pdfrwt>
<totfact> 0.82320127E+01</totfact>
</mgrwt>
</event>
<event>
 4    1  0.4758708E-002  0.5477028E+03  0.7818608E-02  0.1002027E+00
         21   -1    0    0  501  502  0.00000000000E+00  0.00000000000E+00  0.66083897551E+03  0.66083897551E+03  0.00000000000E+00 0.  1.
         21   -1    0    0  502  503 -0.00000000000E+00 -0.00000000000E+00 -0.58042202563E+03  0.58042202563E+03  0.00000000000E+00 0. -1.
    9000007    1    1    2  501    0  0.14663754532E+03  0.34420318468E+03  0.32993146815E+03  0.63940063787E+03  0.40000000000E+03 0.  1.
   -9000007    1    1    2    0  503 -0.14663754532E+03 -0.34420318468E+03 -0.24951451827E+03  0.60186036326E+03  0.40000000000E+03 0. -1.
<mgrwt>
<rscale>  2 0.54770284E+03</rscale>
<asrwt>0</asrwt>
<pdfrwt beam="1">  1       21 0.10166753E+00 0.54770284E+03</pdfrwt>
<pdfrwt beam="2">  1       21 0.89295697E-01 0.54770284E+03</pdfrwt>
<totfact> 0.68590934E+02</totfact>
</mgrwt>
</event>
<event>
 4    1  0.4758708E-002  0.4034104E+03  0.7818608E-02  0.1042605E+00
         21   -1    0    0  503  502  0.00000000000E+00  0.00000000000E+00  0.38685048040E+03  0.38685048040E+03  0.00000000000E+00 0.  1.
         21   -1    0    0  501  503 -0.00000000000E+00 -0.00000000000E+00 -0.89435604099E+03  0.89435604099E+03  0.00000000000E+00 0.  1.
    9000007    1    1    2  501    0 -0.35351118878E+02 -0.38603572304E+02 -0.71995572680E+03  0.82527340073E+03  0.40000000000E+03 0.  1.
   -9000007    1    1    2    0  502  0.35351118878E+02  0.38603572304E+02  0.21245016620E+03  0.45593312066E+03  0.40000000000E+03 0.  1.
<mgrwt>
<rscale>  2 0.40341038E+03</rscale>
<asrwt>0</asrwt>
<pdfrwt beam="1">  1       21 0.59515459E-01 0.40341038E+03</pdfrwt>
<pdfrwt beam="2">  1       21 0.13759324E+00 0.40341038E+03</pdfrwt>
<totfact> 0.85008198E+02</totfact>
</mgrwt>
</event>
<event>
 4    1  0.4758708E-002  0.4522193E+03  0.7818608E-02  0.1027062E+00
         21   -1    0    0  503  502  0.00000000000E+00  0.00000000000E+00  0.38075679041E+03  0.38075679041E+03  0.00000000000E+00 0.  1.
         21   -1    0    0  501  503 -0.00000000000E+00 -0.00000000000E+00 -0.11913551902E+04  0.11913551902E+04  0.00000000000E+00 0. -1.
    9000007    1    1    2  501    0  0.19300813059E+03 -0.85148068879E+02 -0.98781579832E+03  0.10864080189E+04  0.40000000000E+03 0. -1.
   -9000007    1    1    2    0  502 -0.19300813059E+03  0.85148068879E+02  0.17721739852E+03  0.48570396173E+03  0.40000000000E+03 0.  1.
<mgrwt>
<rscale>  2 0.45221934E+03</rscale>
<asrwt>0</asrwt>
<pdfrwt beam="1">  1       21 0.58577968E-01 0.45221934E+03</pdfrwt>
<pdfrwt beam="2">  1       21 0.18328541E+00 0.45221934E+03</pdfrwt>
<totfact> 0.38759871E+02</totfact>
</mgrwt>
</event>
<event>
 4    1  0.4758708E-002  0.4300604E+03  0.7818608E-02  0.1033841E+00
         21   -1    0    0  503  502  0.00000000000E+00  0.00000000000E+00  0.22676057295E+03  0.22676057295E+03  0.00000000000E+00 0. -1.
         21   -1    0    0  501  503 -0.00000000000E+00 -0.00000000000E+00 -0.81710795754E+03  0.81710795754E+03  0.00000000000E+00 0. -1.
    9000007    1    1    2  501    0  0.15586054228E+03 -0.25678992129E+02 -0.27294933499E+03  0.50936554531E+03  0.40000000000E+03 0.  1.
   -9000007    1    1    2    0  502 -0.15586054228E+03  0.25678992129E+02 -0.31739804960E+03  0.53450298518E+03  0.40000000000E+03 0.  1.
<mgrwt>
<rscale>  2 0.43006037E+03</rscale>
<asrwt>0</asrwt>
<pdfrwt beam="1">  1       21 0.34886242E-01 0.43006037E+03</pdfrwt>
<pdfrwt beam="2">  1       21 0.12570892E+00 0.43006037E+03</pdfrwt>
<totfact> 0.32570114E+03</totfact>
</mgrwt>
</event>
<event>
 4    1  0.4758708E-002  0.4453010E+03  0.7818608E-02  0.1029133E+00
         21   -1    0    0  501  502  0.00000000000E+00  0.00000000000E+00  0.19442787555E+03  0.19442787555E+03  0.00000000000E+00 0.  1.
         21   -1    0    0  502  503 -0.00000000000E+00 -0.00000000000E+00 -0.10259075203E+04  0.10259075203E+04  0.00000000000E+00 0.  1.
    9000007    1    1    2  501    0 -0.98427765642E+02  0.16913001105E+03 -0.36896782186E+03  0.57829943737E+03  0.40000000000E+03 0. -1.
   -9000007    1    1    2    0  503  0.98427765642E+02 -0.16913001105E+03 -0.46251182289E+03  0.64203595849E+03  0.40000000000E+03 0. -1.
<mgrwt>
<rscale>  2 0.44530101E+03</rscale>
<asrwt>0</asrwt>
<pdfrwt beam="1">  1       21 0.29911981E-01 0.44530101E+03</pdfrwt>
<pdfrwt beam="2">  1       21 0.15783193E+00 0.44530101E+03</pdfrwt>
<totfact> 0.24046872E+03</totfact>
</mgrwt>
</event>
<event>
 4    1  0.4758708E-002  0.4494144E+03  0.7818608E-02  0.1027897E+00
         21   -1    0    0  501  502  0.00000000000E+00  0.00000000000E+00  0.28994749382E+03  0.28994749382E+03  0.00000000000E+00 0.  1.
         21   -1    0    0  502  503 -0.00000000000E+00 -0.00000000000E+00 -0.69686671459E+03  0.69686671459E+03  0.00000000000E+00 0.  1.
    9000007    1    1    2  501    0 -0.20409310076E+03 -0.17868656629E+02 -0.21336752792E+03  0.49749269808E+03  0.40000000000E+03 0.  1.
   -9000007    1    1    2    0  503  0.20409310076E+03  0.17868656629E+02 -0.19355169285E+03  0.48932151033E+03  0.40000000000E+03 0.  1.
<mgrwt>
<rscale>  2 0.44941438E+03</rscale>
<asrwt>0</asrwt>
<pdfrwt beam="1">  1       21 0.44607307E-01 0.44941438E+03</pdfrwt>
<pdfrwt beam="2">  1       21 0.10721026E+00 0.44941438E+03</pdfrwt>
<totfact> 0.29116771E+03</totfact>
</mgrwt>
</event>
<event>
 4    1  0.4758708E-002  0.4570434E+03  0.7818608E-02  0.1025642E+00
         21   -1    0    0  503  502  0.00000000000E+00  0.00000000000E+00  0.76332883200E+03  0.76332883200E+03  0.00000000000E+00 0. -1.
         21   -1    0    0  501  503 -0.00000000000E+00 -0.00000000000E+00 -0.27525959464E+03  0.27525959464E+03  0.00000000000E+00 0. -1.
    9000007    1    1    2  501    0 -0.52381982018E+02  0.21481340970E+03  0.20438501645E+03  0.50066147044E+03  0.40000000000E+03 0. -1.
   -9000007    1    1    2    0  502  0.52381982018E+02 -0.21481340970E+03  0.28368422091E+03  0.53792695621E+03  0.40000000000E+03 0. -1.
<mgrwt>
<rscale>  2 0.45704340E+03</rscale>
<asrwt>0</asrwt>
<pdfrwt beam="1">  1       21 0.11743520E+00 0.45704340E+03</pdfrwt>
<pdfrwt beam="2">  1       21 0.42347630E-01 0.45704340E+03</pdfrwt>
<totfact> 0.25791263E+03</totfact>
</mgrwt>
</event>
<event>
 4    1  0.4758708E-002  0.4676338E+03  0.7818608E-02  0.1022590E+00
         21   -1    0    0  501  502  0.00000000000E+00  0.00000000000E+00  0.11552317264E+04  0.11552317264E+04  0.00000000000E+00 0.  1.
         21   -1    0    0  502  503 -0.00000000000E+00 -0.00000000000E+00 -0.26575038301E+03  0.26575038301E+03  0.00000000000E+00 0.  1.
    9000007    1    1    2  501    0 -0.18923630959E+03 -0.15123164879E+03  0.82582515564E+03  0.94903560531E+03  0.40000000000E+03 0.  1.
   -9000007    1    1    2    0  503  0.18923630959E+03  0.15123164879E+03  0.63656187720E+02  0.47194650406E+03  0.40000000000E+03 0.  1.
<mgrwt>
<rscale>  2 0.46763382E+03</rscale>
<asrwt>0</asrwt>
<pdfrwt beam="1">  1       21 0.17772796E+00 0.46763382E+03</pdfrwt>
<pdfrwt beam="2">  1       21 0.40884675E-01 0.46763382E+03</pdfrwt>
<totfact> 0.90355819E+02</totfact>
</mgrwt>
</event>
<event>
 4    1  0.4758708E-002  0.4370780E+03  0.7818608E-02  0.1031647E+00
         21   -1    0    0  501  502  0.00000000000E+00  0.00000000000E+00  0.72098622567E+03  0.72098622567E+03  0.00000000000E+00 0.  1.
         21   -1    0    0  502  503 -0.00000000000E+00 -0.00000000000E+00 -0.57567326829E+03  0.57567326829E+03  0.00000000000E+00 0. -1.
    9000007    1    1    2  501    0  0.16908869563E+03  0.49458722033E+02  0.54895947887E+03  0.70170767533E+03  0.40000000000E+03 0.  1.
   -9000007    1    1    2    0  503 -0.16908869563E+03 -0.49458722033E+02 -0.40364652149E+03  0.59495181862E+03  0.40000000000E+03 0. -1.
<mgrwt>
<rscale>  2 0.43707797E+03</rscale>
<asrwt>0</asrwt>
<pdfrwt beam="1">  1       21 0.11092096E+00 0.43707797E+03</pdfrwt>
<pdfrwt beam="2">  1       21 0.88565118E-01 0.43707797E+03</pdfrwt>
<totfact> 0.58939911E+02</totfact>
</mgrwt>
</event>
<event>
 4    1  0.4758708E-002  0.4346842E+03  0.7818608E-02  0.1032390E+00
         21   -1    0    0  501  502  0.00000000000E+00  0.00000000000E+00  0.39465987163E+03  0.39465987163E+03  0.00000000000E+00 0.  1.
         21   -1    0    0  502  503 -0.00000000000E+00 -0.00000000000E+00 -0.58398317942E+03  0.58398317942E+03  0.00000000000E+00 0.  1.
    9000007    1    1    2  501    0 -0.11885021462E+03 -0.12175782742E+03  0.11303728081E+03  0.44914114586E+03  0.40000000000E+03 0.  1.
   -9000007    1    1    2    0  503  0.11885021462E+03  0.12175782742E+03 -0.30236058860E+03  0.52950190518E+03  0.40000000000E+03 0.  1.
<mgrwt>
<rscale>  2 0.43468419E+03</rscale>
<asrwt>0</asrwt>
<pdfrwt beam="1">  1       21 0.60716904E-01 0.43468419E+03</pdfrwt>
<pdfrwt beam="2">  1       21 0.89843565E-01 0.43468419E+03</pdfrwt>
<totfact> 0.23196714E+03</totfact>
</mgrwt>
</event>
<event>
 4    1  0.4758708E-002  0.4231959E+03  0.7818608E-02  0.1036031E+00
         21   -1    0    0  503  502  0.00000000000E+00  0.00000000000E+00  0.38130369362E+03  0.38130369362E+03  0.00000000000E+00 0. -1.
         21   -1    0    0  501  503 -0.00000000000E+00 -0.00000000000E+00 -0.47513964110E+03  0.47513964110E+03  0.00000000000E+00 0.  1.
    9000007    1    1    2  501    0  0.54009696538E+02 -0.12719176716E+03 -0.92775927296E+02  0.43324607977E+03  0.40000000000E+03 0.  1.
   -9000007    1    1    2    0  502 -0.54009696538E+02  0.12719176716E+03 -0.10600201833E+01  0.42319725495E+03  0.40000000000E+03 0. -1.
<mgrwt>
<rscale>  2 0.42319593E+03</rscale>
<asrwt>0</asrwt>
<pdfrwt beam="1">  1       21 0.58662107E-01 0.42319593E+03</pdfrwt>
<pdfrwt beam="2">  1       21 0.73098405E-01 0.42319593E+03</pdfrwt>
<totfact> 0.40487274E+03</totfact>
</mgrwt>
</event>
<event>
 4    1  0.4758708E-002  0.6456498E+03  0.7818608E-02  0.9814976E-01
         21   -1    0    0  503  502  0.00000000000E+00  0.00000000000E+00  0.48067133330E+03  0.48067133330E+03  0.00000000000E+00 0.  1.
         21   -1    0    0  501  503 -0.00000000000E+00 -0.00000000000E+00 -0.10213540041E+04  0.10213540041E+04  0.00000000000E+00 0. -1.
    9000007    1    1    2  501    0 -0.31431215553E+03  0.39758218287E+03 -0.56205827704E+03  0.85602174624E+03  0.40000000000E+03 0.  1.
   -9000007    1    1    2    0  502  0.31431215553E+03 -0.39758218287E+03  0.21375606236E+02  0.64600359116E+03  0.40000000000E+03 0.  1.
<mgrwt>
<rscale>  2 0.64564985E+03</rscale>
<asrwt>0</asrwt>
<pdfrwt beam="1">  1       21 0.73949437E-01 0.64564985E+03</pdfrwt>
<pdfrwt beam="2">  1       21 0.15713138E+00 0.64564985E+03</pdfrwt>
<totfact> 0.33138909E+02</totfact>
</mgrwt>
</event>
<event>
 4    1  0.4758708E-002  0.5156508E+03  0.7818608E-02  0.1009773E+00
         21   -1    0    0  503  502  0.00000000000E+00  0.00000000000E+00  0.45666487559E+03  0.45666487559E+03  0.00000000000E+00 0.  1.
         21   -1    0    0  501  503 -0.00000000000E+00 -0.00000000000E+00 -0.65123187457E+03  0.65123187457E+03  0.00000000000E+00 0.  1.
    9000007    1    1    2  501    0  0.17442918937E+03  0.27471834428E+03 -0.27756498624E+03  0.58560911228E+03  0.40000000000E+03 0.  1.
   -9000007    1    1    2    0  502 -0.17442918937E+03 -0.27471834428E+03  0.82997987267E+02  0.52228763788E+03  0.40000000000E+03 0.  1.
<mgrwt>
<rscale>  2 0.51565076E+03</rscale>
<asrwt>0</asrwt>
<pdfrwt beam="1">  1       21 0.70256135E-01 0.51565076E+03</pdfrwt>
<pdfrwt beam="2">  1       21 0.10018952E+00 0.51565076E+03</pdfrwt>
<totfact> 0.12528537E+03</totfact>
</mgrwt>
</event>
<event>
 4    1  0.4758708E-002  0.7676788E+03  0.7818608E-02  0.9608016E-01
         21   -1    0    0  501  502  0.00000000000E+00  0.00000000000E+00  0.18574152280E+04  0.18574152280E+04  0.00000000000E+00 0. -1.
         21   -1    0    0  502  503 -0.00000000000E+00 -0.00000000000E+00 -0.69421045046E+03  0.69421045046E+03  0.00000000000E+00 0.  1.
    9000007    1    1    2  501    0  0.65036174601E+03 -0.79751472992E+02  0.15216912494E+04  0.17043693721E+04  0.40000000000E+03 0. -1.
   -9000007    1    1    2    0  503 -0.65036174601E+03  0.79751472992E+02 -0.35848647187E+03  0.84725630634E+03  0.40000000000E+03 0.  1.
<mgrwt>
<rscale>  2 0.76767877E+03</rscale>
<asrwt>0</asrwt>
<pdfrwt beam="1">  1       21 0.28575619E+00 0.76767877E+03</pdfrwt>
<pdfrwt beam="2">  1       21 0.10680161E+00 0.76767877E+03</pdfrwt>
<totfact> 0.18359450E+01</totfact>
</mgrwt>
</event>
<event>
 4    1  0.4758708E-002  0.5910781E+03  0.7818608E-02  0.9924091E-01
         21   -1    0    0  501  502  0.00000000000E+00  0.00000000000E+00  0.28840778421E+04  0.28840778421E+04  0.00000000000E+00 0. -1.
         21   -1    0    0  502  503 -0.00000000000E+00 -0.00000000000E+00 -0.24716600133E+03  0.24716600133E+03  0.00000000000E+00 0.  1.
    9000007    1    1    2  501    0  0.40958958144E+03  0.14700231108E+03  0.24364124769E+04  0.25070857709E+04  0.40000000000E+03 0. -1.
   -9000007    1    1    2    0  503 -0.40958958144E+03 -0.14700231108E+03  0.20049936388E+03  0.62415807261E+03  0.40000000000E+03 0. -1.
<mgrwt>
<rscale>  2 0.59107809E+03</rscale>
<asrwt>0</asrwt>
<pdfrwt beam="1">  1       21 0.44370426E+00 0.59107809E+03</pdfrwt>
<pdfrwt beam="2">  1       21 0.38025541E-01 0.59107809E+03</pdfrwt>
<totfact> 0.20228224E+01</totfact>
</mgrwt>
</event>
<event>
 4    1  0.4758708E-002  0.5548286E+03  0.7818608E-02  0.1000382E+00
         21   -1    0    0  501  502  0.00000000000E+00  0.00000000000E+00  0.16436956335E+03  0.16436956335E+03  0.00000000000E+00 0.  1.
         21   -1    0    0  502  503 -0.00000000000E+00 -0.00000000000E+00 -0.23255090206E+04  0.23255090206E+04  0.00000000000E+00 0. -1.
    9000007    1    1    2  501    0  0.22058554261E+03  0.31492341417E+03 -0.53129609417E+03  0.76818635635E+03  0.40000000000E+03 0.  1.
   -9000007    1    1    2    0  503 -0.22058554261E+03 -0.31492341417E+03 -0.16298433631E+04  0.17216922276E+04  0.40000000000E+03 0. -1.
<mgrwt>
<rscale>  2 0.55482857E+03</rscale>
<asrwt>0</asrwt>
<pdfrwt beam="1">  1       21 0.25287626E-01 0.55482857E+03</pdfrwt>
<pdfrwt beam="2">  1       21 0.35777061E+00 0.55482857E+03</pdfrwt>
<totfact> 0.16847313E+02</totfact>
</mgrwt>
</event>
<event>
 4    1  0.4758708E-002  0.4910385E+03  0.7818608E-02  0.1016145E+00
         21   -1    0    0  503  502  0.00000000000E+00  0.00000000000E+00  0.46138505989E+03  0.46138505989E+03  0.00000000000E+00 0. -1.
         21   -1    0    0  501  503 -0.00000000000E+00 -0.00000000000E+00 -0.52749418372E+03  0.52749418372E+03  0.00000000000E+00 0.  1.
    9000007    1    1    2  501    0 -0.14966021094E+03 -0.24232349821E+03 -0.80690900722E+02  0.49762423372E+03  0.40000000000E+03 0. -1.
   -9000007    1    1    2    0  502  0.14966021094E+03  0.24232349821E+03  0.14581776891E+02  0.49125500989E+03  0.40000000000E+03 0.  1.
<mgrwt>
<rscale>  2 0.49103855E+03</rscale>
<asrwt>0</asrwt>
<pdfrwt beam="1">  1       21 0.70982317E-01 0.49103855E+03</pdfrwt>
<pdfrwt beam="2">  1       21 0.81152952E-01 0.49103855E+03</pdfrwt>
<totfact> 0.20369775E+03</totfact>
</mgrwt>
</event>
<event>
 4    1  0.4758708E-002  0.4772616E+03  0.7818608E-02  0.1019890E+00
         21   -1    0    0  501  502  0.00000000000E+00  0.00000000000E+00  0.34260877772E+03  0.34260877772E+03  0.00000000000E+00 0.  1.
         21   -1    0    0  502  503 -0.00000000000E+00 -0.00000000000E+00 -0.68986357561E+03  0.68986357561E+03  0.00000000000E+00 0. -1.
    9000007    1    1    2  501    0 -0.18863447693E+03  0.17943140074E+03 -0.75299301893E+02  0.48316516671E+03  0.40000000000E+03 0.  1.
   -9000007    1    1    2    0  503  0.18863447693E+03 -0.17943140074E+03 -0.27195549600E+03  0.54930718661E+03  0.40000000000E+03 0.  1.
<mgrwt>
<rscale>  2 0.47726156E+03</rscale>
<asrwt>0</asrwt>
<pdfrwt beam="1">  1       21 0.52709043E-01 0.47726156E+03</pdfrwt>
<pdfrwt beam="2">  1       21 0.10613286E+00 0.47726156E+03</pdfrwt>
<totfact> 0.20750839E+03</totfact>
</mgrwt>
</event>
<event>
 4    1  0.4758708E-002  0.4619692E+03  0.7818608E-02  0.1024212E+00
         21   -1    0    0  503  502  0.00000000000E+00  0.00000000000E+00  0.23743561519E+04  0.23743561519E+04  0.00000000000E+00 0.  1.
         21   -1    0    0  501  503 -0.00000000000E+00 -0.00000000000E+00 -0.10865601861E+03  0.10865601861E+03  0.00000000000E+00 0.  1.
    9000007    1    1    2  501    0 -0.16227212616E+03  0.16457011093E+03  0.61681094111E+03  0.77063045711E+03  0.40000000000E+03 0. -1.
   -9000007    1    1    2    0  502  0.16227212616E+03 -0.16457011093E+03  0.16488891921E+04  0.17123817134E+04  0.40000000000E+03 0. -1.
<mgrwt>
<rscale>  2 0.46196922E+03</rscale>
<asrwt>0</asrwt>
<pdfrwt beam="1">  1       21 0.36528552E+00 0.46196922E+03</pdfrwt>
<pdfrwt beam="2">  1       21 0.16716312E-01 0.46196922E+03</pdfrwt>
<totfact> 0.35196940E+02</totfact>
</mgrwt>
</event>
<event>
 4    1  0.4758708E-002  0.5889967E+03  0.7818608E-02  0.9928501E-01
         21   -1    0    0  501  502  0.00000000000E+00  0.00000000000E+00  0.58859837632E+03  0.58859837632E+03  0.00000000000E+00 0. -1.
         21   -1    0    0  502  503 -0.00000000000E+00 -0.00000000000E+00 -0.68824223153E+03  0.68824223153E+03  0.00000000000E+00 0.  1.
    9000007    1    1    2  501    0  0.40081996546E+03 -0.16205092334E+03  0.19212355412E+03  0.61953902744E+03  0.40000000000E+03 0. -1.
   -9000007    1    1    2    0  503 -0.40081996546E+03  0.16205092334E+03 -0.29176740933E+03  0.65730158042E+03  0.40000000000E+03 0.  1.
<mgrwt>
<rscale>  2 0.58899673E+03</rscale>
<asrwt>0</asrwt>
<pdfrwt beam="1">  1       21 0.90553596E-01 0.58899673E+03</pdfrwt>
<pdfrwt beam="2">  1       21 0.10588342E+00 0.58899673E+03</pdfrwt>
<totfact> 0.59164713E+02</totfact>
</mgrwt>
</event>
<event>
 4    1  0.4758708E-002  0.4276540E+03  0.7818608E-02  0.1034604E+00
         21   -1    0    0  503  502  0.00000000000E+00  0.00000000000E+00  0.64352250302E+03  0.64352250302E+03  0.00000000000E+00 0. -1.
         21   -1    0    0  501  503 -0.00000000000E+00 -0.00000000000E+00 -0.36532977937E+03  0.36532977937E+03  0.00000000000E+00 0.  1.
    9000007    1    1    2  501    0 -0.92713920234E+02  0.11954951711E+03 -0.98614992094E+02  0.43887683319E+03  0.40000000000E+03 0.  1.
   -9000007    1    1    2    0  502  0.92713920234E+02 -0.11954951711E+03  0.37680771574E+03  0.56997544920E+03  0.40000000000E+03 0. -1.
<mgrwt>
<rscale>  2 0.42765402E+03</rscale>
<asrwt>0</asrwt>
<pdfrwt beam="1">  1       21 0.99003462E-01 0.42765402E+03</pdfrwt>
<pdfrwt beam="2">  1       21 0.56204581E-01 0.42765402E+03</pdfrwt>
<totfact> 0.21822726E+03</totfact>
</mgrwt>
</event>
<event>
 4    1  0.4758708E-002  0.5404234E+03  0.7818608E-02  0.1003735E+00
         21   -1    0    0  503  502  0.00000000000E+00  0.00000000000E+00  0.53901727893E+03  0.53901727893E+03  0.00000000000E+00 0. -1.
         21   -1    0    0  501  503 -0.00000000000E+00 -0.00000000000E+00 -0.81856476018E+03  0.81856476018E+03  0.00000000000E+00 0. -1.
    9000007    1    1    2  501    0  0.26125743486E+03  0.25259064881E+03 -0.53444806467E+03  0.76006066664E+03  0.40000000000E+03 0. -1.
   -9000007    1    1    2    0  502 -0.26125743486E+03 -0.25259064881E+03  0.25490058342E+03  0.59752137248E+03  0.40000000000E+03 0. -1.
<mgrwt>
<rscale>  2 0.54042343E+03</rscale>
<asrwt>0</asrwt>
<pdfrwt beam="1">  1       21 0.82925735E-01 0.54042343E+03</pdfrwt>
<pdfrwt beam="2">  1       21 0.12593304E+00 0.54042343E+03</pdfrwt>
<totfact> 0.47785578E+02</totfact>
</mgrwt>
</event>
<event>
 4    1  0.4758708E-002  0.4494662E+03  0.7818608E-02  0.1027881E+00
         21   -1    0    0  503  502  0.00000000000E+00  0.00000000000E+00  0.14062306728E+04  0.14062306728E+04  0.00000000000E+00 0. -1.
         21   -1    0    0  501  503 -0.00000000000E+00 -0.00000000000E+00 -0.19909225305E+03  0.19909225305E+03  0.00000000000E+00 0. -1.
    9000007    1    1    2  501    0  0.17962909399E+03 -0.98758405374E+02  0.18003894687E+03  0.48418370112E+03  0.40000000000E+03 0. -1.
   -9000007    1    1    2    0  502 -0.17962909399E+03  0.98758405374E+02  0.10270994729E+04  0.11211392247E+04  0.40000000000E+03 0. -1.
<mgrwt>
<rscale>  2 0.44946617E+03</rscale>
<asrwt>0</asrwt>
<pdfrwt beam="1">  1       21 0.21634317E+00 0.44946617E+03</pdfrwt>
<pdfrwt beam="2">  1       21 0.30629578E-01 0.44946617E+03</pdfrwt>
<totfact> 0.89877864E+02</totfact>
</mgrwt>
</event>
<event>
 4    1  0.4758708E-002  0.4337596E+03  0.7818608E-02  0.1032679E+00
         21   -1    0    0  501  502  0.00000000000E+00  0.00000000000E+00  0.22851538315E+03  0.22851538315E+03  0.00000000000E+00 0. -1.
         21   -1    0    0  502  503 -0.00000000000E+00 -0.00000000000E+00 -0.91405123802E+03  0.91405123802E+03  0.00000000000E+00 0.  1.
    9000007    1    1    2  501    0 -0.15334172251E+03 -0.68071483550E+02 -0.52272980742E+03  0.67925978999E+03  0.40000000000E+03 0.  1.
   -9000007    1    1    2    0  503  0.15334172251E+03  0.68071483550E+02 -0.16280604745E+03  0.46330683118E+03  0.40000000000E+03 0. -1.
<mgrwt>
<rscale>  2 0.43375962E+03</rscale>
<asrwt>0</asrwt>
<pdfrwt beam="1">  1       21 0.35156213E-01 0.43375962E+03</pdfrwt>
<pdfrwt beam="2">  1       21 0.14062327E+00 0.43375962E+03</pdfrwt>
<totfact> 0.23896234E+03</totfact>
</mgrwt>
</event>
<event>
 4    1  0.4758708E-002  0.5492454E+03  0.7818608E-02  0.1001669E+00
         21   -1    0    0  501  502  0.00000000000E+00  0.00000000000E+00  0.99674512991E+03  0.99674512991E+03  0.00000000000E+00 0.  1.
         21   -1    0    0  502  503 -0.00000000000E+00 -0.00000000000E+00 -0.52921579835E+03  0.52921579835E+03  0.00000000000E+00 0. -1.
    9000007    1    1    2  501    0 -0.22613073101E+03 -0.30089102274E+03  0.73298102316E+03  0.91593214562E+03  0.40000000000E+03 0.  1.
   -9000007    1    1    2    0  503  0.22613073101E+03  0.30089102274E+03 -0.26545169160E+03  0.61002878264E+03  0.40000000000E+03 0.  1.
<mgrwt>
<rscale>  2 0.54924541E+03</rscale>
<asrwt>0</asrwt>
<pdfrwt beam="1">  1       21 0.15334541E+00 0.54924541E+03</pdfrwt>
<pdfrwt beam="2">  1       21 0.81417815E-01 0.54924541E+03</pdfrwt>
<totfact> 0.29394152E+02</totfact>
</mgrwt>
</event>
<event>
 4    1  0.4758708E-002  0.5643223E+03  0.7818608E-02  0.9982322E-01
         21   -1    0    0  501  502  0.00000000000E+00  0.00000000000E+00  0.27961299002E+03  0.27961299002E+03  0.00000000000E+00 0.  1.
         21   -1    0    0  502  503 -0.00000000000E+00 -0.00000000000E+00 -0.11984364560E+04  0.11984364560E+04  0.00000000000E+00 0. -1.
    9000007    1    1    2  501    0  0.23887903357E+03 -0.31842804343E+03 -0.29473446605E+03  0.63665376540E+03  0.40000000000E+03 0. -1.
   -9000007    1    1    2    0  503 -0.23887903357E+03  0.31842804343E+03 -0.62408899991E+03  0.84139568060E+03  0.40000000000E+03 0. -1.
<mgrwt>
<rscale>  2 0.56432226E+03</rscale>
<asrwt>0</asrwt>
<pdfrwt beam="1">  1       21 0.43017383E-01 0.56432226E+03</pdfrwt>
<pdfrwt beam="2">  1       21 0.18437484E+00 0.56432226E+03</pdfrwt>
<totfact> 0.70220015E+02</totfact>
</mgrwt>
</event>
<event>
 4    1  0.4758708E-002  0.4094012E+03  0.7818608E-02  0.1040572E+00
         21   -1    0    0  503  502  0.00000000000E+00  0.00000000000E+00  0.39388936187E+03  0.39388936187E+03  0.00000000000E+00 0. -1.
         21   -1    0    0  501  503 -0.00000000000E+00 -0.00000000000E+00 -0.45246323342E+03  0.45246323342E+03  0.00000000000E+00 0. -1.
    9000007    1    1    2  501    0 -0.63233995108E+02  0.60089798306E+02  0.73970996909E+02  0.41603008351E+03  0.40000000000E+03 0. -1.
   -9000007    1    1    2    0  502  0.63233995108E+02 -0.60089798306E+02 -0.13254486846E+03  0.43032251179E+03  0.40000000000E+03 0. -1.
<mgrwt>
<rscale>  2 0.40940117E+03</rscale>
<asrwt>0</asrwt>
<pdfrwt beam="1">  1       21 0.60598364E-01 0.40940117E+03</pdfrwt>
<pdfrwt beam="2">  1       21 0.69609728E-01 0.40940117E+03</pdfrwt>
<totfact> 0.42322982E+03</totfact>
</mgrwt>
</event>
<event>
 4    1  0.4758708E-002  0.4023699E+03  0.7818608E-02  0.1042962E+00
         21   -1    0    0  503  502  0.00000000000E+00  0.00000000000E+00  0.81069736313E+03  0.81069736313E+03  0.00000000000E+00 0. -1.
         21   -1    0    0  501  503 -0.00000000000E+00 -0.00000000000E+00 -0.23107131817E+03  0.23107131817E+03  0.00000000000E+00 0. -1.
    9000007    1    1    2  501    0 -0.31221358993E+02 -0.30443025497E+02  0.48171944653E+03  0.62765848694E+03  0.40000000000E+03 0. -1.
   -9000007    1    1    2    0  502  0.31221358993E+02  0.30443025497E+02  0.97906598437E+02  0.41411019436E+03  0.40000000000E+03 0. -1.
<mgrwt>
<rscale>  2 0.40236992E+03</rscale>
<asrwt>0</asrwt>
<pdfrwt beam="1">  1       21 0.12472267E+00 0.40236992E+03</pdfrwt>
<pdfrwt beam="2">  1       21 0.35549434E-01 0.40236992E+03</pdfrwt>
<totfact> 0.32343455E+03</totfact>
</mgrwt>
</event>
<event>
 4    1  0.4758708E-002  0.4205893E+03  0.7818608E-02  0.1036875E+00
         21   -1    0    0  503  502  0.00000000000E+00  0.00000000000E+00  0.16198754986E+03  0.16198754986E+03  0.00000000000E+00 0.  1.
         21   -1    0    0  501  503 -0.00000000000E+00 -0.00000000000E+00 -0.12175342604E+04  0.12175342604E+04  0.00000000000E+00 0.  1.
    9000007    1    1    2  501    0 -0.29574064838E+02  0.12657307621E+03 -0.74922866333E+03  0.85920833265E+03  0.40000000000E+03 0.  1.
   -9000007    1    1    2    0  502  0.29574064838E+02 -0.12657307621E+03 -0.30631804719E+03  0.52031347759E+03  0.40000000000E+03 0.  1.
<mgrwt>
<rscale>  2 0.42058931E+03</rscale>
<asrwt>0</asrwt>
<pdfrwt beam="1">  1       21 0.24921160E-01 0.42058931E+03</pdfrwt>
<pdfrwt beam="2">  1       21 0.18731297E+00 0.42058931E+03</pdfrwt>
<totfact> 0.21297312E+03</totfact>
</mgrwt>
</event>
<event>
 4    1  0.4758708E-002  0.4469046E+03  0.7818608E-02  0.1028649E+00
         21   -1    0    0  503  502  0.00000000000E+00  0.00000000000E+00  0.19092694404E+04  0.19092694404E+04  0.00000000000E+00 0. -1.
         21   -1    0    0  501  503 -0.00000000000E+00 -0.00000000000E+00 -0.14433495016E+03  0.14433495016E+03  0.00000000000E+00 0. -1.
    9000007    1    1    2  501    0 -0.14556267354E+03 -0.13614413587E+03  0.34376732456E+03  0.56382594042E+03  0.40000000000E+03 0. -1.
   -9000007    1    1    2    0  502  0.14556267354E+03  0.13614413587E+03  0.14211671657E+04  0.14897784501E+04  0.40000000000E+03 0. -1.
<mgrwt>
<rscale>  2 0.44690460E+03</rscale>
<asrwt>0</asrwt>
<pdfrwt beam="1">  1       21 0.29373374E+00 0.44690460E+03</pdfrwt>
<pdfrwt beam="2">  1       21 0.22205378E-01 0.44690460E+03</pdfrwt>
<totfact> 0.56424999E+02</totfact>
</mgrwt>
</event>
<event>
 4    1  0.4758708E-002  0.4008484E+03  0.7818608E-02  0.1043486E+00
         21   -1    0    0  501  502  0.00000000000E+00  0.00000000000E+00  0.77687968004E+03  0.77687968004E+03  0.00000000000E+00 0. -1.
         21   -1    0    0  502  503 -0.00000000000E+00 -0.00000000000E+00 -0.22510190102E+03  0.22510190102E+03  0.00000000000E+00 0. -1.
    9000007    1    1    2  501    0  0.18547757480E+02 -0.18315050257E+02  0.41863728806E+03  0.57960041350E+03  0.40000000000E+03 0. -1.
   -9000007    1    1    2    0  503 -0.18547757480E+02  0.18315050257E+02  0.13314049096E+03  0.42238116756E+03  0.40000000000E+03 0. -1.
<mgrwt>
<rscale>  2 0.40084843E+03</rscale>
<asrwt>0</asrwt>
<pdfrwt beam="1">  1       21 0.11951995E+00 0.40084843E+03</pdfrwt>
<pdfrwt beam="2">  1       21 0.34631062E-01 0.40084843E+03</pdfrwt>
<totfact> 0.38035255E+03</totfact>
</mgrwt>
</event>
<event>
 4    1  0.4758708E-002  0.5924246E+03  0.7818608E-02  0.9921248E-01
         21   -1    0    0  501  502  0.00000000000E+00  0.00000000000E+00  0.59226288353E+03  0.59226288353E+03  0.00000000000E+00 0. -1.
         21   -1    0    0  502  503 -0.00000000000E+00 -0.00000000000E+00 -0.76939720907E+03  0.76939720907E+03  0.00000000000E+00 0.  1.
    9000007    1    1    2  501    0  0.21441266712E+03 -0.38078097476E+03  0.23780851755E+03  0.63837280141E+03  0.40000000000E+03 0. -1.
   -9000007    1    1    2    0  503 -0.21441266712E+03  0.38078097476E+03 -0.41494284309E+03  0.72328729119E+03  0.40000000000E+03 0.  1.
<mgrwt>
<rscale>  2 0.59242463E+03</rscale>
<asrwt>0</asrwt>
<pdfrwt beam="1">  1       21 0.91117367E-01 0.59242463E+03</pdfrwt>
<pdfrwt beam="2">  1       21 0.11836880E+00 0.59242463E+03</pdfrwt>
<totfact> 0.44026198E+02</totfact>
</mgrwt>
</event>
<event>
 4    1  0.4758708E-002  0.4904838E+03  0.7818608E-02  0.1016293E+00
         21   -1    0    0  503  502  0.00000000000E+00  0.00000000000E+00  0.97714064343E+03  0.97714064343E+03  0.00000000000E+00 0.  1.
         21   -1    0    0  501  503 -0.00000000000E+00 -0.00000000000E+00 -0.46225482487E+03  0.46225482487E+03  0.00000000000E+00 0.  1.
    9000007    1    1    2  501    0  0.18362708782E+03  0.21646131213E+03 -0.23458410158E+03  0.54369486640E+03  0.40000000000E+03 0.  1.
   -9000007    1    1    2    0  502 -0.18362708782E+03 -0.21646131213E+03  0.74946992015E+03  0.89570060190E+03  0.40000000000E+03 0.  1.
<mgrwt>
<rscale>  2 0.49048385E+03</rscale>
<asrwt>0</asrwt>
<pdfrwt beam="1">  1       21 0.15032933E+00 0.49048385E+03</pdfrwt>
<pdfrwt beam="2">  1       21 0.71116127E-01 0.49048385E+03</pdfrwt>
<totfact> 0.43370892E+02</totfact>
</mgrwt>
</event>
<event>
 4    1  0.4758708E-002  0.5349111E+03  0.7818608E-02  0.1005048E+00
         21   -1    0    0  501  502  0.00000000000E+00  0.00000000000E+00  0.41451250497E+03  0.41451250497E+03  0.00000000000E+00 0.  1.
         21   -1    0    0  502  503 -0.00000000000E+00 -0.00000000000E+00 -0.92764988643E+03  0.92764988643E+03  0.00000000000E+00 0. -1.
    9000007    1    1    2  501    0 -0.26394945494E+03  0.23761432568E+03  0.82896628541E+02  0.54129634541E+03  0.40000000000E+03 0.  1.
   -9000007    1    1    2    0  503  0.26394945494E+03 -0.23761432568E+03 -0.59603401000E+03  0.80086604598E+03  0.40000000000E+03 0. -1.
<mgrwt>
<rscale>  2 0.53491110E+03</rscale>
<asrwt>0</asrwt>
<pdfrwt beam="1">  1       21 0.63771155E-01 0.53491110E+03</pdfrwt>
<pdfrwt beam="2">  1       21 0.14271537E+00 0.53491110E+03</pdfrwt>
<totfact> 0.62643281E+02</totfact>
</mgrwt>
</event>
<event>
 4    1  0.4758708E-002  0.4060651E+03  0.7818608E-02  0.1041700E+00
         21   -1    0    0  501  502  0.00000000000E+00  0.00000000000E+00  0.74599605609E+02  0.74599605609E+02  0.00000000000E+00 0. -1.
         21   -1    0    0  502  503 -0.00000000000E+00 -0.00000000000E+00 -0.25132052564E+04  0.25132052564E+04  0.00000000000E+00 0. -1.
    9000007    1    1    2  501    0  0.94947919045E+01  0.69272767975E+02 -0.16684905635E+04  0.17171923677E+04  0.40000000000E+03 0. -1.
   -9000007    1    1    2    0  503 -0.94947919045E+01 -0.69272767975E+02 -0.77011508736E+03  0.87061249431E+03  0.40000000000E+03 0. -1.
<mgrwt>
<rscale>  2 0.40606510E+03</rscale>
<asrwt>0</asrwt>
<pdfrwt beam="1">  1       21 0.11476861E-01 0.40606510E+03</pdfrwt>
<pdfrwt beam="2">  1       21 0.38664701E+00 0.40606510E+03</pdfrwt>
<totfact> 0.53621141E+02</totfact>
</mgrwt>
</event>
<event>
 4    1  0.4758708E-002  0.4491882E+03  0.7818608E-02  0.1027964E+00
         21   -1    0    0  503  502  0.00000000000E+00  0.00000000000E+00  0.19504859387E+03  0.19504859387E+03  0.00000000000E+00 0.  1.
         21   -1    0    0  501  503 -0.00000000000E+00 -0.00000000000E+00 -0.12911618180E+04  0.12911618180E+04  0.00000000000E+00 0.  1.
    9000007    1    1    2  501    0  0.84509229522E+02 -0.18608668601E+03 -0.87939672934E+03  0.98747590966E+03  0.40000000000E+03 0.  1.
   -9000007    1    1    2    0  502 -0.84509229522E+02  0.18608668601E+03 -0.21671649481E+03  0.49873450222E+03  0.40000000000E+03 0.  1.
<mgrwt>
<rscale>  2 0.44918823E+03</rscale>
<asrwt>0</asrwt>
<pdfrwt beam="1">  1       21 0.30007477E-01 0.44918823E+03</pdfrwt>
<pdfrwt beam="2">  1       21 0.19864027E+00 0.44918823E+03</pdfrwt>
<totfact> 0.12232937E+03</totfact>
</mgrwt>
</event>
<event>
 4    1  0.4758708E-002  0.4206271E+03  0.7818608E-02  0.1036862E+00
         21   -1    0    0  501  502  0.00000000000E+00  0.00000000000E+00  0.33088789324E+03  0.33088789324E+03  0.00000000000E+00 0.  1.
         21   -1    0    0  502  503 -0.00000000000E+00 -0.00000000000E+00 -0.97074894016E+03  0.97074894016E+03  0.00000000000E+00 0.  1.
    9000007    1    1    2  501    0 -0.12807981233E+03 -0.22863081047E+02  0.11625563368E+03  0.43639721718E+03  0.40000000000E+03 0.  1.
   -9000007    1    1    2    0  503  0.12807981233E+03  0.22863081047E+02 -0.75611668059E+03  0.86523961622E+03  0.40000000000E+03 0.  1.
<mgrwt>
<rscale>  2 0.42062710E+03</rscale>
<asrwt>0</asrwt>
<pdfrwt beam="1">  1       21 0.50905830E-01 0.42062710E+03</pdfrwt>
<pdfrwt beam="2">  1       21 0.14934599E+00 0.42062710E+03</pdfrwt>
<totfact> 0.94857179E+02</totfact>
</mgrwt>
</event>
<event>
 4    1  0.4758708E-002  0.4335067E+03  0.7818608E-02  0.1032758E+00
         21   -1    0    0  503  502  0.00000000000E+00  0.00000000000E+00  0.45826209800E+03  0.45826209800E+03  0.00000000000E+00 0. -1.
         21   -1    0    0  501  503 -0.00000000000E+00 -0.00000000000E+00 -0.50867902992E+03  0.50867902992E+03  0.00000000000E+00 0. -1.
    9000007    1    1    2  501    0  0.16689394192E+03  0.86284881604E+01 -0.23805452502E+03  0.49456849429E+03  0.40000000000E+03 0. -1.
   -9000007    1    1    2    0  502 -0.16689394192E+03 -0.86284881604E+01  0.18763759310E+03  0.47237263363E+03  0.40000000000E+03 0. -1.
<mgrwt>
<rscale>  2 0.43350668E+03</rscale>
<asrwt>0</asrwt>
<pdfrwt beam="1">  1       21 0.70501861E-01 0.43350668E+03</pdfrwt>
<pdfrwt beam="2">  1       21 0.78258312E-01 0.43350668E+03</pdfrwt>
<totfact> 0.22968098E+03</totfact>
</mgrwt>
</event>
<event>
 4    1  0.4758708E-002  0.4547361E+03  0.7818608E-02  0.1026319E+00
         21   -1    0    0  503  502  0.00000000000E+00  0.00000000000E+00  0.25206830132E+03  0.25206830132E+03  0.00000000000E+00 0. -1.
         21   -1    0    0  501  503 -0.00000000000E+00 -0.00000000000E+00 -0.10368484710E+04  0.10368484710E+04  0.00000000000E+00 0.  1.
    9000007    1    1    2  501    0  0.37958346199E+02 -0.21294140638E+03 -0.97905833954E+02  0.46515635105E+03  0.40000000000E+03 0. -1.
   -9000007    1    1    2    0  502 -0.37958346199E+02  0.21294140638E+03 -0.68687433574E+03  0.82376042130E+03  0.40000000000E+03 0.  1.
<mgrwt>
<rscale>  2 0.45473605E+03</rscale>
<asrwt>0</asrwt>
<pdfrwt beam="1">  1       21 0.38779739E-01 0.45473605E+03</pdfrwt>
<pdfrwt beam="2">  1       21 0.15951515E+00 0.45473605E+03</pdfrwt>
<totfact> 0.13775618E+03</totfact>
</mgrwt>
</event>
<event>
 4    1  0.4758708E-002  0.4630564E+03  0.7818608E-02  0.1023898E+00
         21   -1    0    0  501  502  0.00000000000E+00  0.00000000000E+00  0.13397610578E+04  0.13397610578E+04  0.00000000000E+00 0. -1.
         21   -1    0    0  502  503 -0.00000000000E+00 -0.00000000000E+00 -0.25698803414E+03  0.25698803414E+03  0.00000000000E+00 0. -1.
    9000007    1    1    2  501    0  0.18242609397E+03 -0.14540274993E+03  0.10317407175E+04  0.11308890961E+04  0.40000000000E+03 0. -1.
   -9000007    1    1    2    0  503 -0.18242609397E+03  0.14540274993E+03  0.51032306121E+02  0.46585999583E+03  0.40000000000E+03 0. -1.
<mgrwt>
<rscale>  2 0.46305641E+03</rscale>
<asrwt>0</asrwt>
<pdfrwt beam="1">  1       21 0.20611708E+00 0.46305641E+03</pdfrwt>
<pdfrwt beam="2">  1       21 0.39536621E-01 0.46305641E+03</pdfrwt>
<totfact> 0.62101199E+02</totfact>
</mgrwt>
</event>
<event>
 4    1  0.4758708E-002  0.5091700E+03  0.7818608E-02  0.1011413E+00
         21   -1    0    0  501  502  0.00000000000E+00  0.00000000000E+00  0.41144834224E+03  0.41144834224E+03  0.00000000000E+00 0.  1.
         21   -1    0    0  502  503 -0.00000000000E+00 -0.00000000000E+00 -0.13051488497E+04  0.13051488497E+04  0.00000000000E+00 0. -1.
    9000007    1    1    2  501    0  0.23624729086E+03 -0.20842573173E+03  0.17042037805E+03  0.53693311813E+03  0.40000000000E+03 0.  1.
   -9000007    1    1    2    0  503 -0.23624729086E+03  0.20842573173E+03 -0.10641208855E+04  0.11796640738E+04  0.40000000000E+03 0. -1.
<mgrwt>
<rscale>  2 0.50916998E+03</rscale>
<asrwt>0</asrwt>
<pdfrwt beam="1">  1       21 0.63299747E-01 0.50916998E+03</pdfrwt>
<pdfrwt beam="2">  1       21 0.20079213E+00 0.50916998E+03</pdfrwt>
<totfact> 0.24151861E+02</totfact>
</mgrwt>
</event>
<event>
 4    1  0.4758708E-002  0.8830377E+03  0.7818608E-02  0.9447037E-01
         21   -1    0    0  503  502  0.00000000000E+00  0.00000000000E+00  0.10270098472E+04  0.10270098472E+04  0.00000000000E+00 0.  1.
         21   -1    0    0  501  503 -0.00000000000E+00 -0.00000000000E+00 -0.76363212701E+03  0.76363212701E+03  0.00000000000E+00 0. -1.
    9000007    1    1    2  501    0  0.68118746405E+03  0.39463800352E+03  0.63852628549E+02  0.88534325161E+03  0.40000000000E+03 0. -1.
   -9000007    1    1    2    0  502 -0.68118746405E+03 -0.39463800352E+03  0.19952509169E+03  0.90529872264E+03  0.40000000000E+03 0.  1.
<mgrwt>
<rscale>  2 0.88303766E+03</rscale>
<asrwt>0</asrwt>
<pdfrwt beam="1">  1       21 0.15800151E+00 0.88303766E+03</pdfrwt>
<pdfrwt beam="2">  1       21 0.11748187E+00 0.88303766E+03</pdfrwt>
<totfact> 0.99133379E+01</totfact>
</mgrwt>
</event>
<event>
 4    1  0.4758708E-002  0.6098456E+03  0.7818608E-02  0.9885188E-01
         21   -1    0    0  501  502  0.00000000000E+00  0.00000000000E+00  0.56946542095E+03  0.56946542095E+03  0.00000000000E+00 0. -1.
         21   -1    0    0  502  503 -0.00000000000E+00 -0.00000000000E+00 -0.69165305941E+03  0.69165305941E+03  0.00000000000E+00 0.  1.
    9000007    1    1    2  501    0  0.25791232811E+03  0.38130419279E+03  0.87798597584E+02  0.61613330552E+03  0.40000000000E+03 0. -1.
   -9000007    1    1    2    0  503 -0.25791232811E+03 -0.38130419279E+03 -0.20998623605E+03  0.64498517484E+03  0.40000000000E+03 0.  1.
<mgrwt>
<rscale>  2 0.60984560E+03</rscale>
<asrwt>0</asrwt>
<pdfrwt beam="1">  1       21 0.87610065E-01 0.60984560E+03</pdfrwt>
<pdfrwt beam="2">  1       21 0.10640816E+00 0.60984560E+03</pdfrwt>
<totfact> 0.62802931E+02</totfact>
</mgrwt>
</event>
<event>
 4    1  0.4758708E-002  0.4401047E+03  0.7818608E-02  0.1030715E+00
         21   -1    0    0  503  502  0.00000000000E+00  0.00000000000E+00  0.31815116387E+03  0.31815116387E+03  0.00000000000E+00 0.  1.
         21   -1    0    0  501  503 -0.00000000000E+00 -0.00000000000E+00 -0.62714022153E+03  0.62714022153E+03  0.00000000000E+00 0.  1.
    9000007    1    1    2  501    0  0.11213765967E+03  0.14531777580E+03 -0.23530972972E+03  0.49906189955E+03  0.40000000000E+03 0.  1.
   -9000007    1    1    2    0  502 -0.11213765967E+03 -0.14531777580E+03 -0.73679327948E+02  0.44622948586E+03  0.40000000000E+03 0.  1.
<mgrwt>
<rscale>  2 0.44010466E+03</rscale>
<asrwt>0</asrwt>
<pdfrwt beam="1">  1       21 0.48946333E-01 0.44010466E+03</pdfrwt>
<pdfrwt beam="2">  1       21 0.96483110E-01 0.44010466E+03</pdfrwt>
<totfact> 0.31077381E+03</totfact>
</mgrwt>
</event>
<event>
 4    1  0.4758708E-002  0.6644717E+03  0.7818608E-02  0.9779997E-01
         21   -1    0    0  503  502  0.00000000000E+00  0.00000000000E+00  0.14115206999E+04  0.14115206999E+04  0.00000000000E+00 0. -1.
         21   -1    0    0  501  503 -0.00000000000E+00 -0.00000000000E+00 -0.32965053648E+03  0.32965053648E+03  0.00000000000E+00 0.  1.
    9000007    1    1    2  501    0  0.12574910051E+03  0.51547048045E+03  0.73776938872E+03  0.99288787052E+03  0.40000000000E+03 0.  1.
   -9000007    1    1    2    0  502 -0.12574910051E+03 -0.51547048045E+03  0.34410077471E+03  0.74828336587E+03  0.40000000000E+03 0.  1.
<mgrwt>
<rscale>  2 0.66447171E+03</rscale>
<asrwt>0</asrwt>
<pdfrwt beam="1">  1       21 0.21715703E+00 0.66447171E+03</pdfrwt>
<pdfrwt beam="2">  1       21 0.50715468E-01 0.66447171E+03</pdfrwt>
<totfact> 0.28716797E+02</totfact>
</mgrwt>
</event>
<event>
 4    1  0.4758708E-002  0.4264040E+03  0.7818608E-02  0.1035002E+00
         21   -1    0    0  501  502  0.00000000000E+00  0.00000000000E+00  0.60911368247E+03  0.60911368247E+03  0.00000000000E+00 0.  1.
         21   -1    0    0  502  503 -0.00000000000E+00 -0.00000000000E+00 -0.30108769291E+03  0.30108769291E+03  0.00000000000E+00 0. -1.
    9000007    1    1    2  501    0  0.11808260905E+03 -0.88751515800E+02  0.19620509538E+03  0.46937913628E+03  0.40000000000E+03 0.  1.
   -9000007    1    1    2    0  503 -0.11808260905E+03  0.88751515800E+02  0.11182089417E+03  0.44082223911E+03  0.40000000000E+03 0. -1.
<mgrwt>
<rscale>  2 0.42640396E+03</rscale>
<asrwt>0</asrwt>
<pdfrwt beam="1">  1       21 0.93709797E-01 0.42640396E+03</pdfrwt>
<pdfrwt beam="2">  1       21 0.46321184E-01 0.42640396E+03</pdfrwt>
<totfact> 0.37623639E+03</totfact>
</mgrwt>
</event>
<event>
 4    1  0.4758708E-002  0.4000300E+03  0.7818608E-02  0.1043769E+00
         21   -1    0    0  503  502  0.00000000000E+00  0.00000000000E+00  0.23663848837E+03  0.23663848837E+03  0.00000000000E+00 0.  1.
         21   -1    0    0  501  503 -0.00000000000E+00 -0.00000000000E+00 -0.98140460312E+03  0.98140460312E+03  0.00000000000E+00 0.  1.
    9000007    1    1    2  501    0 -0.35432845833E+01 -0.33840737337E+01 -0.71199027135E+03  0.81667261085E+03  0.40000000000E+03 0.  1.
   -9000007    1    1    2    0  502  0.35432845833E+01  0.33840737337E+01 -0.32775843405E+02  0.40137048064E+03  0.40000000000E+03 0.  1.
<mgrwt>
<rscale>  2 0.40003001E+03</rscale>
<asrwt>0</asrwt>
<pdfrwt beam="1">  1       21 0.36405921E-01 0.40003001E+03</pdfrwt>
<pdfrwt beam="2">  1       21 0.15098532E+00 0.40003001E+03</pdfrwt>
<totfact> 0.18658963E+03</totfact>
</mgrwt>
</event>
<event>
 4    1  0.4758708E-002  0.4017288E+03  0.7818608E-02  0.1043183E+00
         21   -1    0    0  503  502  0.00000000000E+00  0.00000000000E+00  0.13739234277E+03  0.13739234277E+03  0.00000000000E+00 0. -1.
         21   -1    0    0  501  503 -0.00000000000E+00 -0.00000000000E+00 -0.22872764384E+04  0.22872764384E+04  0.00000000000E+00 0. -1.
    9000007    1    1    2  501    0 -0.18064884858E+02  0.32553183776E+02 -0.19204942690E+04  0.19620612343E+04  0.40000000000E+03 0. -1.
   -9000007    1    1    2    0  502  0.18064884858E+02 -0.32553183776E+02 -0.22938982655E+03  0.46260754681E+03  0.40000000000E+03 0. -1.
<mgrwt>
<rscale>  2 0.40172883E+03</rscale>
<asrwt>0</asrwt>
<pdfrwt beam="1">  1       21 0.21137284E-01 0.40172883E+03</pdfrwt>
<pdfrwt beam="2">  1       21 0.35188867E+00 0.40172883E+03</pdfrwt>
<totfact> 0.28425154E+02</totfact>
</mgrwt>
</event>
<event>
 4    1  0.4758708E-002  0.4203656E+03  0.7818608E-02  0.1036947E+00
         21   -1    0    0  503  502  0.00000000000E+00  0.00000000000E+00  0.78205868856E+03  0.78205868856E+03  0.00000000000E+00 0.  1.
         21   -1    0    0  501  503 -0.00000000000E+00 -0.00000000000E+00 -0.22704857933E+03  0.22704857933E+03  0.00000000000E+00 0.  1.
    9000007    1    1    2  501    0  0.34387070892E+02  0.12459839428E+03  0.24243042494E+03  0.48526254898E+03  0.40000000000E+03 0.  1.
   -9000007    1    1    2    0  502 -0.34387070892E+02 -0.12459839428E+03  0.31257968429E+03  0.52384471891E+03  0.40000000000E+03 0.  1.
<mgrwt>
<rscale>  2 0.42036559E+03</rscale>
<asrwt>0</asrwt>
<pdfrwt beam="1">  1       21 0.12031672E+00 0.42036559E+03</pdfrwt>
<pdfrwt beam="2">  1       21 0.34930551E-01 0.42036559E+03</pdfrwt>
<totfact> 0.36475460E+03</totfact>
</mgrwt>
</event>
<event>
 4    1  0.4758708E-002  0.4719041E+03  0.7818608E-02  0.1021384E+00
         21   -1    0    0  501  502  0.00000000000E+00  0.00000000000E+00  0.25251462210E+04  0.25251462210E+04  0.00000000000E+00 0.  1.
         21   -1    0    0  502  503 -0.00000000000E+00 -0.00000000000E+00 -0.11606959345E+03  0.11606959345E+03  0.00000000000E+00 0.  1.
    9000007    1    1    2  501    0  0.38028855086E+02 -0.24748182496E+03  0.55731313325E+03  0.73026801655E+03  0.40000000000E+03 0.  1.
   -9000007    1    1    2    0  503 -0.38028855086E+02  0.24748182496E+03  0.18517634943E+04  0.19109477979E+04  0.40000000000E+03 0.  1.
<mgrwt>
<rscale>  2 0.47190407E+03</rscale>
<asrwt>0</asrwt>
<pdfrwt beam="1">  1       21 0.38848399E+00 0.47190407E+03</pdfrwt>
<pdfrwt beam="2">  1       21 0.17856862E-01 0.47190407E+03</pdfrwt>
<totfact> 0.22090002E+02</totfact>
</mgrwt>
</event>
<event>
 4    1  0.4758708E-002  0.4062586E+03  0.7818608E-02  0.1041634E+00
         21   -1    0    0  501  502  0.00000000000E+00  0.00000000000E+00  0.64797898689E+03  0.64797898689E+03  0.00000000000E+00 0.  1.
         21   -1    0    0  502  503 -0.00000000000E+00 -0.00000000000E+00 -0.27668814046E+03  0.27668814046E+03  0.00000000000E+00 0.  1.
    9000007    1    1    2  501    0  0.13002636196E+02 -0.69835420497E+02  0.31595186559E+03  0.51465681369E+03  0.40000000000E+03 0.  1.
   -9000007    1    1    2    0  503 -0.13002636196E+02  0.69835420497E+02  0.55338980838E+02  0.41001031366E+03  0.40000000000E+03 0.  1.
<mgrwt>
<rscale>  2 0.40625861E+03</rscale>
<asrwt>0</asrwt>
<pdfrwt beam="1">  1       21 0.99689074E-01 0.40625861E+03</pdfrwt>
<pdfrwt beam="2">  1       21 0.42567406E-01 0.40625861E+03</pdfrwt>
<totfact> 0.38978782E+03</totfact>
</mgrwt>
</event>
<event>
 4    1  0.4758708E-002  0.5098418E+03  0.7818608E-02  0.1011242E+00
         21   -1    0    0  503  502  0.00000000000E+00  0.00000000000E+00  0.60552111324E+03  0.60552111324E+03  0.00000000000E+00 0.  1.
         21   -1    0    0  501  503 -0.00000000000E+00 -0.00000000000E+00 -0.46914340799E+03  0.46914340799E+03  0.00000000000E+00 0. -1.
    9000007    1    1    2  501    0 -0.23592390776E+03 -0.21042472833E+03 -0.88440208065E+02  0.51745562800E+03  0.40000000000E+03 0. -1.
   -9000007    1    1    2    0  502  0.23592390776E+03  0.21042472833E+03  0.22481791331E+03  0.55720889323E+03  0.40000000000E+03 0.  1.
<mgrwt>
<rscale>  2 0.50984180E+03</rscale>
<asrwt>0</asrwt>
<pdfrwt beam="1">  1       21 0.93157094E-01 0.50984180E+03</pdfrwt>
<pdfrwt beam="2">  1       21 0.72175909E-01 0.50984180E+03</pdfrwt>
<totfact> 0.14078331E+03</totfact>
</mgrwt>
</event>
<event>
 4    1  0.4758708E-002  0.4259898E+03  0.7818608E-02  0.1035134E+00
         21   -1    0    0  503  502  0.00000000000E+00  0.00000000000E+00  0.70747764449E+03  0.70747764449E+03  0.00000000000E+00 0. -1.
         21   -1    0    0  501  503 -0.00000000000E+00 -0.00000000000E+00 -0.51987387388E+03  0.51987387388E+03  0.00000000000E+00 0. -1.
    9000007    1    1    2  501    0  0.14259086862E+03  0.33691725142E+02 -0.34299261959E+03  0.54691061907E+03  0.40000000000E+03 0. -1.
   -9000007    1    1    2    0  502 -0.14259086862E+03 -0.33691725142E+02  0.53059639019E+03  0.68044089930E+03  0.40000000000E+03 0. -1.
<mgrwt>
<rscale>  2 0.42598977E+03</rscale>
<asrwt>0</asrwt>
<pdfrwt beam="1">  1       21 0.10884271E+00 0.42598977E+03</pdfrwt>
<pdfrwt beam="2">  1       21 0.79980596E-01 0.42598977E+03</pdfrwt>
<totfact> 0.78745899E+02</totfact>
</mgrwt>
</event>
<event>
 4    1  0.4758708E-002  0.4342554E+03  0.7818608E-02  0.1032524E+00
         21   -1    0    0  501  502  0.00000000000E+00  0.00000000000E+00  0.37442856793E+03  0.37442856793E+03  0.00000000000E+00 0. -1.
         21   -1    0    0  502  503 -0.00000000000E+00 -0.00000000000E+00 -0.87810915337E+03  0.87810915337E+03  0.00000000000E+00 0. -1.
    9000007    1    1    2  501    0 -0.34400814329E+02  0.16551242418E+03  0.15713182523E+03  0.46180968925E+03  0.40000000000E+03 0. -1.
   -9000007    1    1    2    0  503  0.34400814329E+02 -0.16551242418E+03 -0.66081241067E+03  0.79072803206E+03  0.40000000000E+03 0. -1.
<mgrwt>
<rscale>  2 0.43425543E+03</rscale>
<asrwt>0</asrwt>
<pdfrwt beam="1">  1       21 0.57604395E-01 0.43425543E+03</pdfrwt>
<pdfrwt beam="2">  1       21 0.13509372E+00 0.43425543E+03</pdfrwt>
<totfact> 0.94420237E+02</totfact>
</mgrwt>
</event>
<event>
 4    1  0.4758708E-002  0.4057944E+03  0.7818608E-02  0.1041792E+00
         21   -1    0    0  501  502  0.00000000000E+00  0.00000000000E+00  0.10535380594E+04  0.10535380594E+04  0.00000000000E+00 0. -1.
         21   -1    0    0  502  503 -0.00000000000E+00 -0.00000000000E+00 -0.19109172757E+03  0.19109172757E+03  0.00000000000E+00 0.  1.
    9000007    1    1    2  501    0 -0.56850980921E+02  0.37908806978E+02  0.69675748209E+03  0.80631265680E+03  0.40000000000E+03 0. -1.
   -9000007    1    1    2    0  503  0.56850980921E+02 -0.37908806978E+02  0.16568884975E+03  0.43831713018E+03  0.40000000000E+03 0.  1.
<mgrwt>
<rscale>  2 0.40579442E+03</rscale>
<asrwt>0</asrwt>
<pdfrwt beam="1">  1       21 0.16208277E+00 0.40579442E+03</pdfrwt>
<pdfrwt beam="2">  1       21 0.29398728E-01 0.40579442E+03</pdfrwt>
<totfact> 0.23496220E+03</totfact>
</mgrwt>
</event>
<event>
 4    1  0.4758708E-002  0.5007950E+03  0.7818608E-02  0.1013572E+00
         21   -1    0    0  503  502  0.00000000000E+00  0.00000000000E+00  0.56823973167E+03  0.56823973167E+03  0.00000000000E+00 0. -1.
         21   -1    0    0  501  503 -0.00000000000E+00 -0.00000000000E+00 -0.44400870483E+03  0.44400870483E+03  0.00000000000E+00 0. -1.
    9000007    1    1    2  501    0 -0.18838465433E+02  0.30073371994E+03  0.22990252051E+02  0.50132246088E+03  0.40000000000E+03 0. -1.
   -9000007    1    1    2    0  502  0.18838465433E+02 -0.30073371994E+03  0.10124077479E+03  0.51092597563E+03  0.40000000000E+03 0. -1.
<mgrwt>
<rscale>  2 0.50079503E+03</rscale>
<asrwt>0</asrwt>
<pdfrwt beam="1">  1       21 0.87421497E-01 0.50079503E+03</pdfrwt>
<pdfrwt beam="2">  1       21 0.68309032E-01 0.50079503E+03</pdfrwt>
<totfact> 0.18599605E+03</totfact>
</mgrwt>
</event>
<event>
 4    1  0.4758708E-002  0.5625520E+03  0.7818608E-02  0.9986297E-01
         21   -1    0    0  501  502  0.00000000000E+00  0.00000000000E+00  0.37336164033E+03  0.37336164033E+03  0.00000000000E+00 0.  1.
         21   -1    0    0  502  503 -0.00000000000E+00 -0.00000000000E+00 -0.10310311277E+04  0.10310311277E+04  0.00000000000E+00 0. -1.
    9000007    1    1    2  501    0  0.31828424137E+03 -0.23486153648E+03 -0.32659874553E+02  0.56349930526E+03  0.40000000000E+03 0. -1.
   -9000007    1    1    2    0  503 -0.31828424137E+03  0.23486153648E+03 -0.62500961283E+03  0.84089346278E+03  0.40000000000E+03 0. -1.
<mgrwt>
<rscale>  2 0.56255204E+03</rscale>
<asrwt>0</asrwt>
<pdfrwt beam="1">  1       21 0.57440253E-01 0.56255204E+03</pdfrwt>
<pdfrwt beam="2">  1       21 0.15862017E+00 0.56255204E+03</pdfrwt>
<totfact> 0.58462618E+02</totfact>
</mgrwt>
</event>
<event>
 4    1  0.4758708E-002  0.4715139E+03  0.7818608E-02  0.1021494E+00
         21   -1    0    0  501  502  0.00000000000E+00  0.00000000000E+00  0.43541873764E+03  0.43541873764E+03  0.00000000000E+00 0. -1.
         21   -1    0    0  502  503 -0.00000000000E+00 -0.00000000000E+00 -0.65095405589E+03  0.65095405589E+03  0.00000000000E+00 0. -1.
    9000007    1    1    2  501    0 -0.18914655604E+03 -0.16293849001E+03  0.14445505631E+03  0.49314565240E+03  0.40000000000E+03 0. -1.
   -9000007    1    1    2    0  503  0.18914655604E+03  0.16293849001E+03 -0.35999037457E+03  0.59322714113E+03  0.40000000000E+03 0. -1.
<mgrwt>
<rscale>  2 0.47151391E+03</rscale>
<asrwt>0</asrwt>
<pdfrwt beam="1">  1       21 0.66987498E-01 0.47151391E+03</pdfrwt>
<pdfrwt beam="2">  1       21 0.10014678E+00 0.47151391E+03</pdfrwt>
<totfact> 0.14183604E+03</totfact>
</mgrwt>
</event>
<event>
 4    1  0.4758708E-002  0.5642796E+03  0.7818608E-02  0.9982417E-01
         21   -1    0    0  501  502  0.00000000000E+00  0.00000000000E+00  0.54420881573E+03  0.54420881573E+03  0.00000000000E+00 0. -1.
         21   -1    0    0  502  503 -0.00000000000E+00 -0.00000000000E+00 -0.82310698682E+03  0.82310698682E+03  0.00000000000E+00 0. -1.
    9000007    1    1    2  501    0  0.27187613572E+03 -0.29067999683E+03 -0.50708173163E+03  0.75864575151E+03  0.40000000000E+03 0. -1.
   -9000007    1    1    2    0  503 -0.27187613572E+03  0.29067999683E+03  0.22818356054E+03  0.60867005104E+03  0.40000000000E+03 0. -1.
<mgrwt>
<rscale>  2 0.56427962E+03</rscale>
<asrwt>0</asrwt>
<pdfrwt beam="1">  1       21 0.83724434E-01 0.56427962E+03</pdfrwt>
<pdfrwt beam="2">  1       21 0.12663184E+00 0.56427962E+03</pdfrwt>
<totfact> 0.45656650E+02</totfact>
</mgrwt>
</event>
<event>
 4    1  0.4758708E-002  0.5174452E+03  0.7818608E-02  0.1009323E+00
         21   -1    0    0  503  502  0.00000000000E+00  0.00000000000E+00  0.40315911367E+03  0.40315911367E+03  0.00000000000E+00 0. -1.
         21   -1    0    0  501  503 -0.00000000000E+00 -0.00000000000E+00 -0.88807480975E+03  0.88807480975E+03  0.00000000000E+00 0.  1.
    9000007    1    1    2  501    0  0.24067483547E+03  0.22321556812E+03 -0.56666444628E+03  0.76737094091E+03  0.40000000000E+03 0.  1.
   -9000007    1    1    2    0  502 -0.24067483547E+03 -0.22321556812E+03  0.81748750198E+02  0.52386298250E+03  0.40000000000E+03 0. -1.
<mgrwt>
<rscale>  2 0.51744523E+03</rscale>
<asrwt>0</asrwt>
<pdfrwt beam="1">  1       21 0.62024480E-01 0.51744523E+03</pdfrwt>
<pdfrwt beam="2">  1       21 0.13662689E+00 0.51744523E+03</pdfrwt>
<totfact> 0.75344963E+02</totfact>
</mgrwt>
</event>
<event>
 4    1  0.4758708E-002  0.5841755E+03  0.7818608E-02  0.9938792E-01
         21   -1    0    0  503  502  0.00000000000E+00  0.00000000000E+00  0.21093474007E+04  0.21093474007E+04  0.00000000000E+00 0.  1.
         21   -1    0    0  501  503 -0.00000000000E+00 -0.00000000000E+00 -0.18241356397E+03  0.18241356397E+03  0.00000000000E+00 0.  1.
    9000007    1    1    2  501    0 -0.21540709975E+03  0.36723392568E+03  0.57812679678E+03  0.82188294054E+03  0.40000000000E+03 0.  1.
   -9000007    1    1    2    0  502  0.21540709975E+03 -0.36723392568E+03  0.13488070399E+04  0.14698780241E+04  0.40000000000E+03 0.  1.
<mgrwt>
<rscale>  2 0.58417547E+03</rscale>
<asrwt>0</asrwt>
<pdfrwt beam="1">  1       21 0.32451497E+00 0.58417547E+03</pdfrwt>
<pdfrwt beam="2">  1       21 0.28063627E-01 0.58417547E+03</pdfrwt>
<totfact> 0.21676061E+02</totfact>
</mgrwt>
</event>
<event>
 4    1  0.4758708E-002  0.5423373E+03  0.7818608E-02  0.1003283E+00
         21   -1    0    0  503  502  0.00000000000E+00  0.00000000000E+00  0.53998342559E+03  0.53998342559E+03  0.00000000000E+00 0.  1.
         21   -1    0    0  501  503 -0.00000000000E+00 -0.00000000000E+00 -0.74683946203E+03  0.74683946203E+03  0.00000000000E+00 0. -1.
    9000007    1    1    2  501    0  0.16929403068E+03 -0.32476034310E+03 -0.43816150286E+03  0.69721965826E+03  0.40000000000E+03 0. -1.
   -9000007    1    1    2    0  502 -0.16929403068E+03  0.32476034310E+03  0.23130546641E+03  0.58960322936E+03  0.40000000000E+03 0.  1.
<mgrwt>
<rscale>  2 0.54233730E+03</rscale>
<asrwt>0</asrwt>
<pdfrwt beam="1">  1       21 0.83074373E-01 0.54233730E+03</pdfrwt>
<pdfrwt beam="2">  1       21 0.11489838E+00 0.54233730E+03</pdfrwt>
<totfact> 0.60107752E+02</totfact>
</mgrwt>
</event>
<event>
 4    1  0.4758708E-002  0.5138544E+03  0.7818608E-02  0.1010225E+00
         21   -1    0    0  501  502  0.00000000000E+00  0.00000000000E+00  0.72924400718E+03  0.72924400718E+03  0.00000000000E+00 0. -1.
         21   -1    0    0  502  503 -0.00000000000E+00 -0.00000000000E+00 -0.49646705238E+03  0.49646705238E+03  0.00000000000E+00 0. -1.
    9000007    1    1    2  501    0  0.85836010429E+02 -0.31093163018E+03  0.43523963434E+03  0.67340911683E+03  0.40000000000E+03 0. -1.
   -9000007    1    1    2    0  503 -0.85836010429E+02  0.31093163018E+03 -0.20246267954E+03  0.55230194273E+03  0.40000000000E+03 0. -1.
<mgrwt>
<rscale>  2 0.51385436E+03</rscale>
<asrwt>0</asrwt>
<pdfrwt beam="1">  1       21 0.11219139E+00 0.51385436E+03</pdfrwt>
<pdfrwt beam="2">  1       21 0.76379546E-01 0.51385436E+03</pdfrwt>
<totfact> 0.78330851E+02</totfact>
</mgrwt>
</event>
<event>
 4    1  0.4758708E-002  0.4130991E+03  0.7818608E-02  0.1039336E+00
         21   -1    0    0  501  502  0.00000000000E+00  0.00000000000E+00  0.64007362386E+03  0.64007362386E+03  0.00000000000E+00 0.  1.
         21   -1    0    0  502  503 -0.00000000000E+00 -0.00000000000E+00 -0.56061989920E+03  0.56061989920E+03  0.00000000000E+00 0.  1.
    9000007    1    1    2  501    0 -0.27147024987E+02  0.99568527193E+02  0.47448522438E+03  0.62911611069E+03  0.40000000000E+03 0.  1.
   -9000007    1    1    2    0  503  0.27147024987E+02 -0.99568527193E+02 -0.39503149971E+03  0.57157741237E+03  0.40000000000E+03 0.  1.
<mgrwt>
<rscale>  2 0.41309908E+03</rscale>
<asrwt>0</asrwt>
<pdfrwt beam="1">  1       21 0.98472865E-01 0.41309908E+03</pdfrwt>
<pdfrwt beam="2">  1       21 0.86249216E-01 0.41309908E+03</pdfrwt>
<totfact> 0.84920688E+02</totfact>
</mgrwt>
</event>
<event>
 4    1  0.4758708E-002  0.4242496E+03  0.7818608E-02  0.1035692E+00
         21   -1    0    0  503  502  0.00000000000E+00  0.00000000000E+00  0.42939449061E+03  0.42939449061E+03  0.00000000000E+00 0.  1.
         21   -1    0    0  501  503 -0.00000000000E+00 -0.00000000000E+00 -0.46229477148E+03  0.46229477148E+03  0.00000000000E+00 0.  1.
    9000007    1    1    2  501    0 -0.89211830953E+02 -0.10967657442E+03 -0.15262786133E+03  0.45086912271E+03  0.40000000000E+03 0. -1.
   -9000007    1    1    2    0  502  0.89211830953E+02  0.10967657442E+03  0.11972758047E+03  0.44082013938E+03  0.40000000000E+03 0. -1.
<mgrwt>
<rscale>  2 0.42424957E+03</rscale>
<asrwt>0</asrwt>
<pdfrwt beam="1">  1       21 0.66060691E-01 0.42424957E+03</pdfrwt>
<pdfrwt beam="2">  1       21 0.71122272E-01 0.42424957E+03</pdfrwt>
<totfact> 0.33146145E+03</totfact>
</mgrwt>
</event>
<event>
 4    1  0.4758708E-002  0.4402781E+03  0.7818608E-02  0.1030662E+00
         21   -1    0    0  503  502  0.00000000000E+00  0.00000000000E+00  0.74556761966E+03  0.74556761966E+03  0.00000000000E+00 0.  1.
         21   -1    0    0  501  503 -0.00000000000E+00 -0.00000000000E+00 -0.26629718736E+03  0.26629718736E+03  0.00000000000E+00 0.  1.
    9000007    1    1    2  501    0 -0.65915866514E+02 -0.17175524785E+03  0.16181137774E+03  0.46907109119E+03  0.40000000000E+03 0.  1.
   -9000007    1    1    2    0  502  0.65915866514E+02  0.17175524785E+03  0.31745905456E+03  0.54279371583E+03  0.40000000000E+03 0.  1.
<mgrwt>
<rscale>  2 0.44027806E+03</rscale>
<asrwt>0</asrwt>
<pdfrwt beam="1">  1       21 0.11470271E+00 0.44027806E+03</pdfrwt>
<pdfrwt beam="2">  1       21 0.40968798E-01 0.44027806E+03</pdfrwt>
<totfact> 0.29481692E+03</totfact>
</mgrwt>
</event>
<event>
 4    1  0.4758708E-002  0.4013870E+03  0.7818608E-02  0.1043300E+00
         21   -1    0    0  501  502  0.00000000000E+00  0.00000000000E+00  0.78460382509E+03  0.78460382509E+03  0.00000000000E+00 0.  1.
         21   -1    0    0  502  503 -0.00000000000E+00 -0.00000000000E+00 -0.29597215210E+03  0.29597215210E+03  0.00000000000E+00 0.  1.
    9000007    1    1    2  501    0  0.26208020387E+02  0.20607228261E+02  0.54329304008E+03  0.67548415643E+03  0.40000000000E+03 0.  1.
   -9000007    1    1    2    0  503 -0.26208020387E+02 -0.20607228261E+02 -0.54661367101E+02  0.40509182075E+03  0.40000000000E+03 0.  1.
<mgrwt>
<rscale>  2 0.40138699E+03</rscale>
<asrwt>0</asrwt>
<pdfrwt beam="1">  1       21 0.12070828E+00 0.40138699E+03</pdfrwt>
<pdfrwt beam="2">  1       21 0.45534177E-01 0.40138699E+03</pdfrwt>
<totfact> 0.21138854E+03</totfact>
</mgrwt>
</event>
<event>
 4    1  0.4758708E-002  0.4485216E+03  0.7818608E-02  0.1028164E+00
         21   -1    0    0  501  502  0.00000000000E+00  0.00000000000E+00  0.12503609692E+03  0.12503609692E+03  0.00000000000E+00 0.  1.
         21   -1    0    0  502  503 -0.00000000000E+00 -0.00000000000E+00 -0.23644315939E+04  0.23644315939E+04  0.00000000000E+00 0. -1.
    9000007    1    1    2  501    0  0.13041063786E+03  0.15544999688E+03 -0.41607965170E+03  0.61179564608E+03  0.40000000000E+03 0.  1.
   -9000007    1    1    2    0  503 -0.13041063786E+03 -0.15544999688E+03 -0.18233158452E+04  0.18776720447E+04  0.40000000000E+03 0. -1.
<mgrwt>
<rscale>  2 0.44852161E+03</rscale>
<asrwt>0</asrwt>
<pdfrwt beam="1">  1       21 0.19236322E-01 0.44852161E+03</pdfrwt>
<pdfrwt beam="2">  1       21 0.36375871E+00 0.44852161E+03</pdfrwt>
<totfact> 0.27846809E+02</totfact>
</mgrwt>
</event>
<event>
 4    1  0.4758708E-002  0.5653766E+03  0.7818608E-02  0.9979962E-01
         21   -1    0    0  501  502  0.00000000000E+00  0.00000000000E+00  0.11232812725E+04  0.11232812725E+04  0.00000000000E+00 0. -1.
         21   -1    0    0  502  503 -0.00000000000E+00 -0.00000000000E+00 -0.40857471281E+03  0.40857471281E+03  0.00000000000E+00 0. -1.
    9000007    1    1    2  501    0 -0.39843418763E+03  0.30015095761E+02  0.77931547838E+03  0.96279973135E+03  0.40000000000E+03 0. -1.
   -9000007    1    1    2    0  503  0.39843418763E+03 -0.30015095761E+02 -0.64608918655E+02  0.56905625400E+03  0.40000000000E+03 0. -1.
<mgrwt>
<rscale>  2 0.56537661E+03</rscale>
<asrwt>0</asrwt>
<pdfrwt beam="1">  1       21 0.17281250E+00 0.56537661E+03</pdfrwt>
<pdfrwt beam="2">  1       21 0.62857649E-01 0.56537661E+03</pdfrwt>
<totfact> 0.37528248E+02</totfact>
</mgrwt>
</event>
<event>
 4    1  0.4758708E-002  0.6135585E+03  0.7818608E-02  0.9877669E-01
         21   -1    0    0  501  502  0.00000000000E+00  0.00000000000E+00  0.10638484767E+04  0.10638484767E+04  0.00000000000E+00 0.  1.
         21   -1    0    0  502  503 -0.00000000000E+00 -0.00000000000E+00 -0.48880155883E+03  0.48880155883E+03  0.00000000000E+00 0.  1.
    9000007    1    1    2  501    0  0.32070687866E+03 -0.33704764340E+03  0.69541927791E+03  0.92739527065E+03  0.40000000000E+03 0.  1.
   -9000007    1    1    2    0  503 -0.32070687866E+03  0.33704764340E+03 -0.12037236003E+03  0.62525476488E+03  0.40000000000E+03 0.  1.
<mgrwt>
<rscale>  2 0.61355849E+03</rscale>
<asrwt>0</asrwt>
<pdfrwt beam="1">  1       21 0.16366900E+00 0.61355849E+03</pdfrwt>
<pdfrwt beam="2">  1       21 0.75200240E-01 0.61355849E+03</pdfrwt>
<totfact> 0.28732666E+02</totfact>
</mgrwt>
</event>
<event>
 4    1  0.4758708E-002  0.4152894E+03  0.7818608E-02  0.1038610E+00
         21   -1    0    0  503  502  0.00000000000E+00  0.00000000000E+00  0.62616305356E+03  0.62616305356E+03  0.00000000000E+00 0. -1.
         21   -1    0    0  501  503 -0.00000000000E+00 -0.00000000000E+00 -0.67034661283E+03  0.67034661283E+03  0.00000000000E+00 0. -1.
    9000007    1    1    2  501    0 -0.55847856664E+02  0.96676213837E+02 -0.51965436545E+03  0.66521119424E+03  0.40000000000E+03 0. -1.
   -9000007    1    1    2    0  502  0.55847856664E+02 -0.96676213837E+02  0.47547080617E+03  0.63129847215E+03  0.40000000000E+03 0. -1.
<mgrwt>
<rscale>  2 0.41528939E+03</rscale>
<asrwt>0</asrwt>
<pdfrwt beam="1">  1       21 0.96332777E-01 0.41528939E+03</pdfrwt>
<pdfrwt beam="2">  1       21 0.10313025E+00 0.41528939E+03</pdfrwt>
<totfact> 0.58338016E+02</totfact>
</mgrwt>
</event>
<event>
 4    1  0.4758708E-002  0.4789107E+03  0.7818608E-02  0.1019435E+00
         21   -1    0    0  503  502  0.00000000000E+00  0.00000000000E+00  0.30789133081E+03  0.30789133081E+03  0.00000000000E+00 0.  1.
         21   -1    0    0  501  503 -0.00000000000E+00 -0.00000000000E+00 -0.93299630309E+03  0.93299630309E+03  0.00000000000E+00 0.  1.
    9000007    1    1    2  501    0 -0.64891110348E+02  0.25523448449E+03 -0.59111678685E+03  0.76077234043E+03  0.40000000000E+03 0.  1.
   -9000007    1    1    2    0  502  0.64891110348E+02 -0.25523448449E+03 -0.33988185429E+02  0.48011529347E+03  0.40000000000E+03 0.  1.
<mgrwt>
<rscale>  2 0.47891074E+03</rscale>
<asrwt>0</asrwt>
<pdfrwt beam="1">  1       21 0.47367897E-01 0.47891074E+03</pdfrwt>
<pdfrwt beam="2">  1       21 0.14353789E+00 0.47891074E+03</pdfrwt>
<totfact> 0.11997911E+03</totfact>
</mgrwt>
</event>
<event>
 4    1  0.4758708E-002  0.4760272E+03  0.7818608E-02  0.1020233E+00
         21   -1    0    0  501  502  0.00000000000E+00  0.00000000000E+00  0.10346483128E+04  0.10346483128E+04  0.00000000000E+00 0.  1.
         21   -1    0    0  502  503 -0.00000000000E+00 -0.00000000000E+00 -0.21901636741E+03  0.21901636741E+03  0.00000000000E+00 0. -1.
    9000007    1    1    2  501    0 -0.23098749635E+03 -0.11509427201E+03  0.40553518494E+03  0.62534846378E+03  0.40000000000E+03 0. -1.
   -9000007    1    1    2    0  503  0.23098749635E+03  0.11509427201E+03  0.41009676046E+03  0.62831621646E+03  0.40000000000E+03 0. -1.
<mgrwt>
<rscale>  2 0.47602722E+03</rscale>
<asrwt>0</asrwt>
<pdfrwt beam="1">  1       21 0.15917666E+00 0.47602722E+03</pdfrwt>
<pdfrwt beam="2">  1       21 0.33694826E-01 0.47602722E+03</pdfrwt>
<totfact> 0.18285526E+03</totfact>
</mgrwt>
</event>
<event>
 4    1  0.4758708E-002  0.4161040E+03  0.7818608E-02  0.1038342E+00
         21   -1    0    0  503  502  0.00000000000E+00  0.00000000000E+00  0.55203903622E+03  0.55203903622E+03  0.00000000000E+00 0. -1.
         21   -1    0    0  501  503 -0.00000000000E+00 -0.00000000000E+00 -0.33965627275E+03  0.33965627275E+03  0.00000000000E+00 0. -1.
    9000007    1    1    2  501    0 -0.10166091644E+03  0.52987023639E+02 -0.17196761896E+02  0.41645923597E+03  0.40000000000E+03 0. -1.
   -9000007    1    1    2    0  502  0.10166091644E+03 -0.52987023639E+02  0.22957952537E+03  0.47523607299E+03  0.40000000000E+03 0. -1.
<mgrwt>
<rscale>  2 0.41610403E+03</rscale>
<asrwt>0</asrwt>
<pdfrwt beam="1">  1       21 0.84929083E-01 0.41610403E+03</pdfrwt>
<pdfrwt beam="2">  1       21 0.52254811E-01 0.41610403E+03</pdfrwt>
<totfact> 0.36899585E+03</totfact>
</mgrwt>
</event>
<event>
 4    1  0.4758708E-002  0.4507907E+03  0.7818608E-02  0.1027487E+00
         21   -1    0    0  501  502  0.00000000000E+00  0.00000000000E+00  0.21830477162E+03  0.21830477162E+03  0.00000000000E+00 0. -1.
         21   -1    0    0  502  503 -0.00000000000E+00 -0.00000000000E+00 -0.11670166654E+04  0.11670166654E+04  0.00000000000E+00 0.  1.
    9000007    1    1    2  501    0  0.15157967652E+03 -0.14225277291E+03 -0.16277016858E+03  0.47927693197E+03  0.40000000000E+03 0. -1.
   -9000007    1    1    2    0  503 -0.15157967652E+03  0.14225277291E+03 -0.78594172523E+03  0.90604450508E+03  0.40000000000E+03 0.  1.
<mgrwt>
<rscale>  2 0.45079069E+03</rscale>
<asrwt>0</asrwt>
<pdfrwt beam="1">  1       21 0.33585349E-01 0.45079069E+03</pdfrwt>
<pdfrwt beam="2">  1       21 0.17954103E+00 0.45079069E+03</pdfrwt>
<totfact> 0.13197735E+03</totfact>
</mgrwt>
</event>
<event>
 4    1  0.4758708E-002  0.4194130E+03  0.7818608E-02  0.1037258E+00
         21   -1    0    0  503  502  0.00000000000E+00  0.00000000000E+00  0.74587299357E+03  0.74587299357E+03  0.00000000000E+00 0.  1.
         21   -1    0    0  501  503 -0.00000000000E+00 -0.00000000000E+00 -0.35807621557E+03  0.35807621557E+03  0.00000000000E+00 0.  1.
    9000007    1    1    2  501    0  0.12365252729E+03 -0.24845781627E+02 -0.12860177614E+03  0.43868630842E+03  0.40000000000E+03 0.  1.
   -9000007    1    1    2    0  502 -0.12365252729E+03  0.24845781627E+02  0.51639855413E+03  0.66526290073E+03  0.40000000000E+03 0.  1.
<mgrwt>
<rscale>  2 0.41941299E+03</rscale>
<asrwt>0</asrwt>
<pdfrwt beam="1">  1       21 0.11474969E+00 0.41941299E+03</pdfrwt>
<pdfrwt beam="2">  1       21 0.55088649E-01 0.41941299E+03</pdfrwt>
<totfact> 0.15898017E+03</totfact>
</mgrwt>
</event>
<event>
 4    1  0.4758708E-002  0.4015041E+03  0.7818608E-02  0.1043260E+00
         21   -1    0    0  503  502  0.00000000000E+00  0.00000000000E+00  0.44722473803E+03  0.44722473803E+03  0.00000000000E+00 0. -1.
         21   -1    0    0  501  503 -0.00000000000E+00 -0.00000000000E+00 -0.54117334139E+03  0.54117334139E+03  0.00000000000E+00 0. -1.
    9000007    1    1    2  501    0  0.34561896304E+02  0.33136638593E+01 -0.33255695737E+03  0.52134406580E+03  0.40000000000E+03 0. -1.
   -9000007    1    1    2    0  502 -0.34561896304E+02 -0.33136638593E+01  0.23860835401E+03  0.46705401363E+03  0.40000000000E+03 0. -1.
<mgrwt>
<rscale>  2 0.40150405E+03</rscale>
<asrwt>0</asrwt>
<pdfrwt beam="1">  1       21 0.68803806E-01 0.40150405E+03</pdfrwt>
<pdfrwt beam="2">  1       21 0.83257437E-01 0.40150405E+03</pdfrwt>
<totfact> 0.21297772E+03</totfact>
</mgrwt>
</event>
<event>
 4    1  0.4758708E-002  0.4242391E+03  0.7818608E-02  0.1035695E+00
         21   -1    0    0  501  502  0.00000000000E+00  0.00000000000E+00  0.17279462232E+04  0.17279462232E+04  0.00000000000E+00 0. -1.
         21   -1    0    0  502  503 -0.00000000000E+00 -0.00000000000E+00 -0.11783690766E+03  0.11783690766E+03  0.00000000000E+00 0. -1.
    9000007    1    1    2  501    0  0.13110520792E+02  0.14073700737E+03  0.11194973607E+04  0.11971855043E+04  0.40000000000E+03 0. -1.
   -9000007    1    1    2    0  503 -0.13110520792E+02 -0.14073700737E+03  0.49061195488E+03  0.64859762663E+03  0.40000000000E+03 0. -1.
<mgrwt>
<rscale>  2 0.42423907E+03</rscale>
<asrwt>0</asrwt>
<pdfrwt beam="1">  1       21 0.26583786E+00 0.42423907E+03</pdfrwt>
<pdfrwt beam="2">  1       21 0.18128756E-01 0.42423907E+03</pdfrwt>
<totfact> 0.12373325E+03</totfact>
</mgrwt>
</event>
<event>
 4    1  0.4758708E-002  0.4796762E+03  0.7818608E-02  0.1019224E+00
         21   -1    0    0  503  502  0.00000000000E+00  0.00000000000E+00  0.33199411622E+03  0.33199411622E+03  0.00000000000E+00 0.  1.
         21   -1    0    0  501  503 -0.00000000000E+00 -0.00000000000E+00 -0.91075447029E+03  0.91075447029E+03  0.00000000000E+00 0.  1.
    9000007    1    1    2  501    0 -0.25524114844E+03 -0.70293584529E+02 -0.59317765752E+03  0.76285579585E+03  0.40000000000E+03 0.  1.
   -9000007    1    1    2    0  502  0.25524114844E+03  0.70293584529E+02  0.14417303449E+02  0.47989279066E+03  0.40000000000E+03 0.  1.
<mgrwt>
<rscale>  2 0.47967617E+03</rscale>
<asrwt>0</asrwt>
<pdfrwt beam="1">  1       21 0.51076019E-01 0.47967617E+03</pdfrwt>
<pdfrwt beam="2">  1       21 0.14011607E+00 0.47967617E+03</pdfrwt>
<totfact> 0.10901176E+03</totfact>
</mgrwt>
</event>
<event>
 4    1  0.4758708E-002  0.4515917E+03  0.7818608E-02  0.1027248E+00
         21   -1    0    0  503  502  0.00000000000E+00  0.00000000000E+00  0.83230256260E+03  0.83230256260E+03  0.00000000000E+00 0.  1.
         21   -1    0    0  501  503 -0.00000000000E+00 -0.00000000000E+00 -0.34431284286E+03  0.34431284286E+03  0.00000000000E+00 0.  1.
    9000007    1    1    2  501    0 -0.20142447322E+03 -0.57993110852E+02 -0.71924136242E+02  0.45728339210E+03  0.40000000000E+03 0.  1.
   -9000007    1    1    2    0  502  0.20142447322E+03  0.57993110852E+02  0.55991385599E+03  0.71933201336E+03  0.40000000000E+03 0.  1.
<mgrwt>
<rscale>  2 0.45159165E+03</rscale>
<asrwt>0</asrwt>
<pdfrwt beam="1">  1       21 0.12804655E+00 0.45159165E+03</pdfrwt>
<pdfrwt beam="2">  1       21 0.52971207E-01 0.45159165E+03</pdfrwt>
<totfact> 0.12912963E+03</totfact>
</mgrwt>
</event>
<event>
 4    1  0.4758708E-002  0.4739239E+03  0.7818608E-02  0.1020819E+00
         21   -1    0    0  501  502  0.00000000000E+00  0.00000000000E+00  0.13970781471E+03  0.13970781471E+03  0.00000000000E+00 0.  1.
         21   -1    0    0  502  503 -0.00000000000E+00 -0.00000000000E+00 -0.25985507653E+04  0.25985507653E+04  0.00000000000E+00 0. -1.
    9000007    1    1    2  501    0  0.75315474434E+01 -0.25406126729E+03 -0.38396766010E+03  0.60994673189E+03  0.40000000000E+03 0.  1.
   -9000007    1    1    2    0  503 -0.75315474434E+01  0.25406126729E+03 -0.20748752905E+04  0.21283118481E+04  0.40000000000E+03 0. -1.
<mgrwt>
<rscale>  2 0.47392389E+03</rscale>
<asrwt>0</asrwt>
<pdfrwt beam="1">  1       21 0.21493511E-01 0.47392389E+03</pdfrwt>
<pdfrwt beam="2">  1       21 0.39977701E+00 0.47392389E+03</pdfrwt>
<totfact> 0.13134127E+02</totfact>
</mgrwt>
</event>
<event>
 4    1  0.4758708E-002  0.4264542E+03  0.7818608E-02  0.1034986E+00
         21   -1    0    0  501  502  0.00000000000E+00  0.00000000000E+00  0.35118537976E+03  0.35118537976E+03  0.00000000000E+00 0.  1.
         21   -1    0    0  502  503 -0.00000000000E+00 -0.00000000000E+00 -0.99336939311E+03  0.99336939311E+03  0.00000000000E+00 0. -1.
    9000007    1    1    2  501    0  0.13371935420E+03  0.63105796094E+02  0.14403849074E+03  0.45012253221E+03  0.40000000000E+03 0.  1.
   -9000007    1    1    2    0  503 -0.13371935420E+03 -0.63105796094E+02 -0.78622250409E+03  0.89443224066E+03  0.40000000000E+03 0. -1.
<mgrwt>
<rscale>  2 0.42645423E+03</rscale>
<asrwt>0</asrwt>
<pdfrwt beam="1">  1       21 0.54028519E-01 0.42645423E+03</pdfrwt>
<pdfrwt beam="2">  1       21 0.15282606E+00 0.42645423E+03</pdfrwt>
<totfact> 0.78236561E+02</totfact>
</mgrwt>
</event>
<event>
 4    1  0.4758708E-002  0.4234798E+03  0.7818608E-02  0.1035940E+00
         21   -1    0    0  503  502  0.00000000000E+00  0.00000000000E+00  0.28101641163E+03  0.28101641163E+03  0.00000000000E+00 0.  1.
         21   -1    0    0  501  503 -0.00000000000E+00 -0.00000000000E+00 -0.70856486438E+03  0.70856486438E+03  0.00000000000E+00 0.  1.
    9000007    1    1    2  501    0 -0.12320383525E+03  0.64466415897E+02 -0.36973474275E+03  0.56217335742E+03  0.40000000000E+03 0.  1.
   -9000007    1    1    2    0  502  0.12320383525E+03 -0.64466415897E+02 -0.57813709996E+02  0.42740791858E+03  0.40000000000E+03 0.  1.
<mgrwt>
<rscale>  2 0.42347976E+03</rscale>
<asrwt>0</asrwt>
<pdfrwt beam="1">  1       21 0.43233295E-01 0.42347976E+03</pdfrwt>
<pdfrwt beam="2">  1       21 0.10900998E+00 0.42347976E+03</pdfrwt>
<totfact> 0.30116320E+03</totfact>
</mgrwt>
</event>
<event>
 4    1  0.4758708E-002  0.4760482E+03  0.7818608E-02  0.1020227E+00
         21   -1    0    0  503  502  0.00000000000E+00  0.00000000000E+00  0.17658931489E+03  0.17658931489E+03  0.00000000000E+00 0. -1.
         21   -1    0    0  501  503 -0.00000000000E+00 -0.00000000000E+00 -0.13781336537E+04  0.13781336537E+04  0.00000000000E+00 0.  1.
    9000007    1    1    2  501    0  0.25439237555E+03  0.43661981416E+02 -0.80466247740E+03  0.93493505223E+03  0.40000000000E+03 0.  1.
   -9000007    1    1    2    0  502 -0.25439237555E+03 -0.43661981416E+02 -0.39688186142E+03  0.61978791638E+03  0.40000000000E+03 0. -1.
<mgrwt>
<rscale>  2 0.47604816E+03</rscale>
<asrwt>0</asrwt>
<pdfrwt beam="1">  1       21 0.27167587E-01 0.47604816E+03</pdfrwt>
<pdfrwt beam="2">  1       21 0.21202056E+00 0.47604816E+03</pdfrwt>
<totfact> 0.12008224E+03</totfact>
</mgrwt>
</event>
<event>
 4    1  0.4758708E-002  0.4166046E+03  0.7818608E-02  0.1038177E+00
         21   -1    0    0  503  502  0.00000000000E+00  0.00000000000E+00  0.10126246850E+04  0.10126246850E+04  0.00000000000E+00 0. -1.
         21   -1    0    0  501  503 -0.00000000000E+00 -0.00000000000E+00 -0.36169868429E+03  0.36169868429E+03  0.00000000000E+00 0. -1.
    9000007    1    1    2  501    0  0.10698851147E+03  0.45965449867E+02 -0.17297189840E+03  0.45108606918E+03  0.40000000000E+03 0. -1.
   -9000007    1    1    2    0  502 -0.10698851147E+03 -0.45965449867E+02  0.82389789908E+03  0.92323730009E+03  0.40000000000E+03 0. -1.
<mgrwt>
<rscale>  2 0.41660457E+03</rscale>
<asrwt>0</asrwt>
<pdfrwt beam="1">  1       21 0.15578841E+00 0.41660457E+03</pdfrwt>
<pdfrwt beam="2">  1       21 0.55645952E-01 0.41660457E+03</pdfrwt>
<totfact> 0.69988629E+02</totfact>
</mgrwt>
</event>
<event>
 4    1  0.4758708E-002  0.4076001E+03  0.7818608E-02  0.1041179E+00
         21   -1    0    0  501  502  0.00000000000E+00  0.00000000000E+00  0.10869284708E+04  0.10869284708E+04  0.00000000000E+00 0.  1.
         21   -1    0    0  502  503 -0.00000000000E+00 -0.00000000000E+00 -0.32793946653E+03  0.32793946653E+03  0.00000000000E+00 0.  1.
    9000007    1    1    2  501    0  0.58881261586E+02 -0.51680485195E+02 -0.13741926179E+03  0.43014175457E+03  0.40000000000E+03 0.  1.
   -9000007    1    1    2    0  503 -0.58881261586E+02  0.51680485195E+02  0.89640826603E+03  0.98472618272E+03  0.40000000000E+03 0.  1.
<mgrwt>
<rscale>  2 0.40760014E+03</rscale>
<asrwt>0</asrwt>
<pdfrwt beam="1">  1       21 0.16721976E+00 0.40760014E+03</pdfrwt>
<pdfrwt beam="2">  1       21 0.50452226E-01 0.40760014E+03</pdfrwt>
<totfact> 0.71190281E+02</totfact>
</mgrwt>
</event>
<event>
 4    1  0.4758708E-002  0.5241153E+03  0.7818608E-02  0.1007669E+00
         21   -1    0    0  501  502  0.00000000000E+00  0.00000000000E+00  0.33974446164E+03  0.33974446164E+03  0.00000000000E+00 0. -1.
         21   -1    0    0  502  503 -0.00000000000E+00 -0.00000000000E+00 -0.86437498721E+03  0.86437498721E+03  0.00000000000E+00 0. -1.
    9000007    1    1    2  501    0 -0.31747136383E+03  0.11793540953E+03 -0.10929691286E+03  0.53539017813E+03  0.40000000000E+03 0. -1.
   -9000007    1    1    2    0  503  0.31747136383E+03 -0.11793540953E+03 -0.41533361271E+03  0.66872927072E+03  0.40000000000E+03 0. -1.
<mgrwt>
<rscale>  2 0.52411528E+03</rscale>
<asrwt>0</asrwt>
<pdfrwt beam="1">  1       21 0.52268380E-01 0.52411528E+03</pdfrwt>
<pdfrwt beam="2">  1       21 0.13298076E+00 0.52411528E+03</pdfrwt>
<totfact> 0.11717925E+03</totfact>
</mgrwt>
</event>
<event>
 4    1  0.4758708E-002  0.4414118E+03  0.7818608E-02  0.1030315E+00
         21   -1    0    0  501  502  0.00000000000E+00  0.00000000000E+00  0.36875732966E+03  0.36875732966E+03  0.00000000000E+00 0.  1.
         21   -1    0    0  502  503 -0.00000000000E+00 -0.00000000000E+00 -0.18195697051E+04  0.18195697051E+04  0.00000000000E+00 0.  1.
    9000007    1    1    2  501    0 -0.16117926059E+03  0.94157441454E+02  0.19630049301E+03  0.48309239425E+03  0.40000000000E+03 0.  1.
   -9000007    1    1    2    0  503  0.16117926059E+03 -0.94157441454E+02 -0.16471128684E+04  0.17052346405E+04  0.40000000000E+03 0.  1.
<mgrwt>
<rscale>  2 0.44141180E+03</rscale>
<asrwt>0</asrwt>
<pdfrwt beam="1">  1       21 0.56731897E-01 0.44141180E+03</pdfrwt>
<pdfrwt beam="2">  1       21 0.27993380E+00 0.44141180E+03</pdfrwt>
<totfact> 0.10176665E+02</totfact>
</mgrwt>
</event>
<event>
 4    1  0.4758708E-002  0.4967044E+03  0.7818608E-02  0.1014643E+00
         21   -1    0    0  503  502  0.00000000000E+00  0.00000000000E+00  0.84216587764E+03  0.84216587764E+03  0.00000000000E+00 0. -1.
         21   -1    0    0  501  503 -0.00000000000E+00 -0.00000000000E+00 -0.31419779038E+03  0.31419779038E+03  0.00000000000E+00 0. -1.
    9000007    1    1    2  501    0  0.27227094217E+03  0.11217755804E+03  0.11364005479E+03  0.50953835236E+03  0.40000000000E+03 0. -1.
   -9000007    1    1    2    0  502 -0.27227094217E+03 -0.11217755804E+03  0.41432803248E+03  0.64682531566E+03  0.40000000000E+03 0. -1.
<mgrwt>
<rscale>  2 0.49670441E+03</rscale>
<asrwt>0</asrwt>
<pdfrwt beam="1">  1       21 0.12956398E+00 0.49670441E+03</pdfrwt>
<pdfrwt beam="2">  1       21 0.48338122E-01 0.49670441E+03</pdfrwt>
<totfact> 0.14963123E+03</totfact>
</mgrwt>
</event>
<event>
 4    1  0.4758708E-002  0.4210038E+03  0.7818608E-02  0.1036740E+00
         21   -1    0    0  503  502  0.00000000000E+00  0.00000000000E+00  0.62198668077E+03  0.62198668077E+03  0.00000000000E+00 0.  1.
         21   -1    0    0  501  503 -0.00000000000E+00 -0.00000000000E+00 -0.45447051630E+03  0.45447051630E+03  0.00000000000E+00 0. -1.
    9000007    1    1    2  501    0 -0.10951113545E+03  0.72467453295E+02 -0.24494688875E+03  0.48707617359E+03  0.40000000000E+03 0. -1.
   -9000007    1    1    2    0  502  0.10951113545E+03 -0.72467453295E+02  0.41246305321E+03  0.58938102348E+03  0.40000000000E+03 0.  1.
<mgrwt>
<rscale>  2 0.42100382E+03</rscale>
<asrwt>0</asrwt>
<pdfrwt beam="1">  1       21 0.95690258E-01 0.42100382E+03</pdfrwt>
<pdfrwt beam="2">  1       21 0.69918541E-01 0.42100382E+03</pdfrwt>
<totfact> 0.14672585E+03</totfact>
</mgrwt>
</event>
<event>
 4    1  0.4758708E-002  0.4444053E+03  0.7818608E-02  0.1029404E+00
         21   -1    0    0  501  502  0.00000000000E+00  0.00000000000E+00  0.16794673677E+03  0.16794673677E+03  0.00000000000E+00 0. -1.
         21   -1    0    0  502  503 -0.00000000000E+00 -0.00000000000E+00 -0.11791473180E+04  0.11791473180E+04  0.00000000000E+00 0.  1.
    9000007    1    1    2  501    0 -0.16258112458E+03 -0.10518306449E+03 -0.54070187441E+03  0.69989614667E+03  0.40000000000E+03 0.  1.
   -9000007    1    1    2    0  503  0.16258112458E+03  0.10518306449E+03 -0.47049870682E+03  0.64719790810E+03  0.40000000000E+03 0.  1.
<mgrwt>
<rscale>  2 0.44440533E+03</rscale>
<asrwt>0</asrwt>
<pdfrwt beam="1">  1       21 0.25837958E-01 0.44440533E+03</pdfrwt>
<pdfrwt beam="2">  1       21 0.18140729E+00 0.44440533E+03</pdfrwt>
<totfact> 0.21594377E+03</totfact>
</mgrwt>
</event>
<event>
 4    1  0.4758708E-002  0.4293285E+03  0.7818608E-02  0.1034072E+00
         21   -1    0    0  501  502  0.00000000000E+00  0.00000000000E+00  0.26029994211E+03  0.26029994211E+03  0.00000000000E+00 0. -1.
         21   -1    0    0  502  503 -0.00000000000E+00 -0.00000000000E+00 -0.14080669010E+04  0.14080669010E+04  0.00000000000E+00 0. -1.
    9000007    1    1    2  501    0 -0.14698581227E+03  0.52135817509E+02  0.14259881604E+02  0.42956526477E+03  0.40000000000E+03 0. -1.
   -9000007    1    1    2    0  503  0.14698581227E+03 -0.52135817509E+02 -0.11620268404E+04  0.12388015783E+04  0.40000000000E+03 0. -1.
<mgrwt>
<rscale>  2 0.42932851E+03</rscale>
<asrwt>0</asrwt>
<pdfrwt beam="1">  1       21 0.40046145E-01 0.42932851E+03</pdfrwt>
<pdfrwt beam="2">  1       21 0.21662568E+00 0.42932851E+03</pdfrwt>
<totfact> 0.52557325E+02</totfact>
</mgrwt>
</event>
<event>
 4    1  0.4758708E-002  0.4950182E+03  0.7818608E-02  0.1015087E+00
         21   -1    0    0  503  502  0.00000000000E+00  0.00000000000E+00  0.56665538444E+03  0.56665538444E+03  0.00000000000E+00 0.  1.
         21   -1    0    0  501  503 -0.00000000000E+00 -0.00000000000E+00 -0.48476379520E+03  0.48476379520E+03  0.00000000000E+00 0.  1.
    9000007    1    1    2  501    0 -0.45071104030E+02 -0.28811733496E+03 -0.13177358061E+03  0.51225704453E+03  0.40000000000E+03 0.  1.
   -9000007    1    1    2    0  502  0.45071104030E+02  0.28811733496E+03  0.21366516984E+03  0.53916213510E+03  0.40000000000E+03 0.  1.
<mgrwt>
<rscale>  2 0.49501818E+03</rscale>
<asrwt>0</asrwt>
<pdfrwt beam="1">  1       21 0.87177751E-01 0.49501818E+03</pdfrwt>
<pdfrwt beam="2">  1       21 0.74579046E-01 0.49501818E+03</pdfrwt>
<totfact> 0.15374978E+03</totfact>
</mgrwt>
</event>
<event>
 4    1  0.4758708E-002  0.4510615E+03  0.7818608E-02  0.1027406E+00
         21   -1    0    0  501  502  0.00000000000E+00  0.00000000000E+00  0.11299912410E+04  0.11299912410E+04  0.00000000000E+00 0.  1.
         21   -1    0    0  502  503 -0.00000000000E+00 -0.00000000000E+00 -0.20838945765E+03  0.20838945765E+03  0.00000000000E+00 0.  1.
    9000007    1    1    2  501    0  0.78703014861E+02 -0.19303450712E+03  0.70757350965E+03  0.83911665283E+03  0.40000000000E+03 0.  1.
   -9000007    1    1    2    0  503 -0.78703014861E+02  0.19303450712E+03  0.21402827366E+03  0.49926404578E+03  0.40000000000E+03 0.  1.
<mgrwt>
<rscale>  2 0.45106151E+03</rscale>
<asrwt>0</asrwt>
<pdfrwt beam="1">  1       21 0.17384480E+00 0.45106151E+03</pdfrwt>
<pdfrwt beam="2">  1       21 0.32059917E-01 0.45106151E+03</pdfrwt>
<totfact> 0.15907506E+03</totfact>
</mgrwt>
</event>
<event>
 4    1  0.4758708E-002  0.4175226E+03  0.7818608E-02  0.1037876E+00
         21   -1    0    0  503  502  0.00000000000E+00  0.00000000000E+00  0.33088214675E+03  0.33088214675E+03  0.00000000000E+00 0.  1.
         21   -1    0    0  501  503 -0.00000000000E+00 -0.00000000000E+00 -0.53915851281E+03  0.53915851281E+03  0.00000000000E+00 0. -1.
    9000007    1    1    2  501    0 -0.39578614797E+00  0.11968683053E+03 -0.38408292881E+02  0.41928545290E+03  0.40000000000E+03 0.  1.
   -9000007    1    1    2    0  502  0.39578614797E+00 -0.11968683053E+03 -0.16986807318E+03  0.45075520666E+03  0.40000000000E+03 0.  1.
<mgrwt>
<rscale>  2 0.41752257E+03</rscale>
<asrwt>0</asrwt>
<pdfrwt beam="1">  1       21 0.50904947E-01 0.41752257E+03</pdfrwt>
<pdfrwt beam="2">  1       21 0.82947462E-01 0.41752257E+03</pdfrwt>
<totfact> 0.41203230E+03</totfact>
</mgrwt>
</event>
<event>
 4    1  0.4758708E-002  0.4418926E+03  0.7818608E-02  0.1030168E+00
         21   -1    0    0  501  502  0.00000000000E+00  0.00000000000E+00  0.13846025759E+04  0.13846025759E+04  0.00000000000E+00 0. -1.
         21   -1    0    0  502  503 -0.00000000000E+00 -0.00000000000E+00 -0.14114151795E+03  0.14114151795E+03  0.00000000000E+00 0.  1.
    9000007    1    1    2  501    0 -0.16645639741E+03 -0.86955767515E+02  0.64327546406E+03  0.78043088125E+03  0.40000000000E+03 0. -1.
   -9000007    1    1    2    0  503  0.16645639741E+03  0.86955767515E+02  0.60018559386E+03  0.74531321257E+03  0.40000000000E+03 0.  1.
<mgrwt>
<rscale>  2 0.44189256E+03</rscale>
<asrwt>0</asrwt>
<pdfrwt beam="1">  1       21 0.21301577E+00 0.44189256E+03</pdfrwt>
<pdfrwt beam="2">  1       21 0.21714081E-01 0.44189256E+03</pdfrwt>
<totfact> 0.18555086E+03</totfact>
</mgrwt>
</event>
<event>
 4    1  0.4758708E-002  0.4408123E+03  0.7818608E-02  0.1030498E+00
         21   -1    0    0  503  502  0.00000000000E+00  0.00000000000E+00  0.77775455126E+03  0.77775455126E+03  0.00000000000E+00 0.  1.
         21   -1    0    0  501  503 -0.00000000000E+00 -0.00000000000E+00 -0.26841428586E+03  0.26841428586E+03  0.00000000000E+00 0. -1.
    9000007    1    1    2  501    0 -0.16518277264E+03 -0.83845864644E+02  0.11707413956E+03  0.45609410383E+03  0.40000000000E+03 0. -1.
   -9000007    1    1    2    0  502  0.16518277264E+03  0.83845864644E+02  0.39226612584E+03  0.59007473330E+03  0.40000000000E+03 0. -1.
<mgrwt>
<rscale>  2 0.44081229E+03</rscale>
<asrwt>0</asrwt>
<pdfrwt beam="1">  1       21 0.11965455E+00 0.44081229E+03</pdfrwt>
<pdfrwt beam="2">  1       21 0.41294506E-01 0.44081229E+03</pdfrwt>
<totfact> 0.26073334E+03</totfact>
</mgrwt>
</event>
<event>
 4    1  0.4758708E-002  0.4434014E+03  0.7818608E-02  0.1029708E+00
         21   -1    0    0  503  502  0.00000000000E+00  0.00000000000E+00  0.16508547739E+04  0.16508547739E+04  0.00000000000E+00 0.  1.
         21   -1    0    0  501  503 -0.00000000000E+00 -0.00000000000E+00 -0.20781513551E+03  0.20781513551E+03  0.00000000000E+00 0. -1.
    9000007    1    1    2  501    0 -0.14231510892E+03 -0.12787178428E+03  0.11429380845E+03  0.45789502956E+03  0.40000000000E+03 0. -1.
   -9000007    1    1    2    0  502  0.14231510892E+03  0.12787178428E+03  0.13287458299E+04  0.14007748798E+04  0.40000000000E+03 0.  1.
<mgrwt>
<rscale>  2 0.44340138E+03</rscale>
<asrwt>0</asrwt>
<pdfrwt beam="1">  1       21 0.25397765E+00 0.44340138E+03</pdfrwt>
<pdfrwt beam="2">  1       21 0.31971560E-01 0.44340138E+03</pdfrwt>
<totfact> 0.48129427E+02</totfact>
</mgrwt>
</event>
<event>
 4    1  0.4758708E-002  0.4194134E+03  0.7818608E-02  0.1037257E+00
         21   -1    0    0  501  502  0.00000000000E+00  0.00000000000E+00  0.52496708708E+03  0.52496708708E+03  0.00000000000E+00 0. -1.
         21   -1    0    0  502  503 -0.00000000000E+00 -0.00000000000E+00 -0.45702024716E+03  0.45702024716E+03  0.00000000000E+00 0.  1.
    9000007    1    1    2  501    0 -0.23211563565E+01  0.12610386244E+03  0.28758920291E+03  0.50854215314E+03  0.40000000000E+03 0. -1.
   -9000007    1    1    2    0  503  0.23211563565E+01 -0.12610386244E+03 -0.21964236299E+03  0.47344518110E+03  0.40000000000E+03 0.  1.
<mgrwt>
<rscale>  2 0.41941337E+03</rscale>
<asrwt>0</asrwt>
<pdfrwt beam="1">  1       21 0.80764167E-01 0.41941337E+03</pdfrwt>
<pdfrwt beam="2">  1       21 0.70310807E-01 0.41941337E+03</pdfrwt>
<totfact> 0.21607974E+03</totfact>
</mgrwt>
</event>
<event>
 4    1  0.4758708E-002  0.7704583E+03  0.7818608E-02  0.9603790E-01
         21   -1    0    0  503  502  0.00000000000E+00  0.00000000000E+00  0.82726940682E+03  0.82726940682E+03  0.00000000000E+00 0.  1.
         21   -1    0    0  501  503 -0.00000000000E+00 -0.00000000000E+00 -0.78696173511E+03  0.78696173511E+03  0.00000000000E+00 0. -1.
    9000007    1    1    2  501    0  0.31018555764E+03 -0.58085361817E+03 -0.21955262693E+03  0.80113005305E+03  0.40000000000E+03 0.  1.
   -9000007    1    1    2    0  502 -0.31018555764E+03  0.58085361817E+03  0.25986029865E+03  0.81310108888E+03  0.40000000000E+03 0.  1.
<mgrwt>
<rscale>  2 0.77045831E+03</rscale>
<asrwt>0</asrwt>
<pdfrwt beam="1">  1       21 0.12727222E+00 0.77045831E+03</pdfrwt>
<pdfrwt beam="2">  1       21 0.12107104E+00 0.77045831E+03</pdfrwt>
<totfact> 0.17041090E+02</totfact>
</mgrwt>
</event>
<event>
 4    1  0.4758708E-002  0.4179867E+03  0.7818608E-02  0.1037724E+00
         21   -1    0    0  503  502  0.00000000000E+00  0.00000000000E+00  0.36393018769E+03  0.36393018769E+03  0.00000000000E+00 0. -1.
         21   -1    0    0  501  503 -0.00000000000E+00 -0.00000000000E+00 -0.48420720545E+03  0.48420720545E+03  0.00000000000E+00 0. -1.
    9000007    1    1    2  501    0 -0.11755323063E+03 -0.29902373490E+02 -0.99325079651E+02  0.42962586679E+03  0.40000000000E+03 0. -1.
   -9000007    1    1    2    0  502  0.11755323063E+03  0.29902373490E+02 -0.20951938105E+02  0.41851152634E+03  0.40000000000E+03 0. -1.
<mgrwt>
<rscale>  2 0.41798674E+03</rscale>
<asrwt>0</asrwt>
<pdfrwt beam="1">  1       21 0.55989260E-01 0.41798674E+03</pdfrwt>
<pdfrwt beam="2">  1       21 0.74493416E-01 0.41798674E+03</pdfrwt>
<totfact> 0.42999003E+03</totfact>
</mgrwt>
</event>
<event>
 4    1  0.4758708E-002  0.5380154E+03  0.7818608E-02  0.1004307E+00
         21   -1    0    0  501  502  0.00000000000E+00  0.00000000000E+00  0.50437657704E+03  0.50437657704E+03  0.00000000000E+00 0.  1.
         21   -1    0    0  502  503 -0.00000000000E+00 -0.00000000000E+00 -0.21475778436E+04  0.21475778436E+04  0.00000000000E+00 0. -1.
    9000007    1    1    2  501    0  0.35742849862E+03  0.41297078559E+02  0.31346200525E+03  0.62267086736E+03  0.40000000000E+03 0.  1.
   -9000007    1    1    2    0  503 -0.35742849862E+03 -0.41297078559E+02 -0.19566632718E+04  0.20292835532E+04  0.40000000000E+03 0. -1.
<mgrwt>
<rscale>  2 0.53801541E+03</rscale>
<asrwt>0</asrwt>
<pdfrwt beam="1">  1       21 0.77596395E-01 0.53801541E+03</pdfrwt>
<pdfrwt beam="2">  1       21 0.33039660E+00 0.53801541E+03</pdfrwt>
<totfact> 0.23561782E+01</totfact>
</mgrwt>
</event>
<event>
 4    1  0.4758708E-002  0.4729811E+03  0.7818608E-02  0.1021082E+00
         21   -1    0    0  503  502  0.00000000000E+00  0.00000000000E+00  0.51053594253E+03  0.51053594253E+03  0.00000000000E+00 0. -1.
         21   -1    0    0  501  503 -0.00000000000E+00 -0.00000000000E+00 -0.59235689829E+03  0.59235689829E+03  0.00000000000E+00 0. -1.
    9000007    1    1    2  501    0 -0.20587482148E+03  0.14603648518E+03  0.24041492575E+03  0.53057556827E+03  0.40000000000E+03 0.  1.
   -9000007    1    1    2    0  502  0.20587482148E+03 -0.14603648518E+03 -0.32223588151E+03  0.57231727255E+03  0.40000000000E+03 0.  1.
<mgrwt>
<rscale>  2 0.47298107E+03</rscale>
<asrwt>0</asrwt>
<pdfrwt beam="1">  1       21 0.78543991E-01 0.47298107E+03</pdfrwt>
<pdfrwt beam="2">  1       21 0.91131831E-01 0.47298107E+03</pdfrwt>
<totfact> 0.12391303E+03</totfact>
</mgrwt>
</event>
<event>
 4    1  0.4758708E-002  0.4876011E+03  0.7818608E-02  0.1017067E+00
         21   -1    0    0  501  502  0.00000000000E+00  0.00000000000E+00  0.53139440670E+03  0.53139440670E+03  0.00000000000E+00 0. -1.
         21   -1    0    0  502  503 -0.00000000000E+00 -0.00000000000E+00 -0.13935982741E+04  0.13935982741E+04  0.00000000000E+00 0. -1.
    9000007    1    1    2  501    0 -0.25973415402E+03  0.10145459218E+03  0.36197893325E+03  0.60727556608E+03  0.40000000000E+03 0. -1.
   -9000007    1    1    2    0  503  0.25973415402E+03 -0.10145459218E+03 -0.12241828007E+04  0.13177171147E+04  0.40000000000E+03 0. -1.
<mgrwt>
<rscale>  2 0.48760113E+03</rscale>
<asrwt>0</asrwt>
<pdfrwt beam="1">  1       21 0.81752987E-01 0.48760113E+03</pdfrwt>
<pdfrwt beam="2">  1       21 0.21439973E+00 0.48760113E+03</pdfrwt>
<totfact> 0.11112462E+02</totfact>
</mgrwt>
</event>
<event>
 4    1  0.4758708E-002  0.4501503E+03  0.7818608E-02  0.1027677E+00
         21   -1    0    0  503  502  0.00000000000E+00  0.00000000000E+00  0.49403809355E+03  0.49403809355E+03  0.00000000000E+00 0. -1.
         21   -1    0    0  501  503 -0.00000000000E+00 -0.00000000000E+00 -0.42062899063E+03  0.42062899063E+03  0.00000000000E+00 0. -1.
    9000007    1    1    2  501    0  0.86140660244E+02 -0.18765678647E+03  0.10885015895E+03  0.46312378470E+03  0.40000000000E+03 0. -1.
   -9000007    1    1    2    0  502 -0.86140660244E+02  0.18765678647E+03 -0.35441056030E+02  0.45154329948E+03  0.40000000000E+03 0. -1.
<mgrwt>
<rscale>  2 0.45015029E+03</rscale>
<asrwt>0</asrwt>
<pdfrwt beam="1">  1       21 0.76005860E-01 0.45015029E+03</pdfrwt>
<pdfrwt beam="2">  1       21 0.64712152E-01 0.45015029E+03</pdfrwt>
<totfact> 0.29565041E+03</totfact>
</mgrwt>
</event>
<event>
 4    1  0.4758708E-002  0.5053808E+03  0.7818608E-02  0.1012384E+00
         21   -1    0    0  501  502  0.00000000000E+00  0.00000000000E+00  0.49431645634E+03  0.49431645634E+03  0.00000000000E+00 0. -1.
         21   -1    0    0  502  503 -0.00000000000E+00 -0.00000000000E+00 -0.58175590039E+03  0.58175590039E+03  0.00000000000E+00 0. -1.
    9000007    1    1    2  501    0  0.28725923021E+03  0.11354254574E+03  0.13621223995E+03  0.52341527428E+03  0.40000000000E+03 0. -1.
   -9000007    1    1    2    0  503 -0.28725923021E+03 -0.11354254574E+03 -0.22365168400E+03  0.55265708246E+03  0.40000000000E+03 0. -1.
<mgrwt>
<rscale>  2 0.50538082E+03</rscale>
<asrwt>0</asrwt>
<pdfrwt beam="1">  1       21 0.76048685E-01 0.50538082E+03</pdfrwt>
<pdfrwt beam="2">  1       21 0.89500908E-01 0.50538082E+03</pdfrwt>
<totfact> 0.13767301E+03</totfact>
</mgrwt>
</event>
<event>
 4    1  0.4758708E-002  0.4523314E+03  0.7818608E-02  0.1027029E+00
         21   -1    0    0  501  502  0.00000000000E+00  0.00000000000E+00  0.64696100458E+03  0.64696100458E+03  0.00000000000E+00 0.  1.
         21   -1    0    0  502  503 -0.00000000000E+00 -0.00000000000E+00 -0.36708421466E+03  0.36708421466E+03  0.00000000000E+00 0.  1.
    9000007    1    1    2  501    0 -0.21038824394E+03 -0.18451444724E+02  0.32861048726E+03  0.55909616466E+03  0.40000000000E+03 0.  1.
   -9000007    1    1    2    0  503  0.21038824394E+03  0.18451444724E+02 -0.48733697344E+02  0.45494905457E+03  0.40000000000E+03 0.  1.
<mgrwt>
<rscale>  2 0.45233137E+03</rscale>
<asrwt>0</asrwt>
<pdfrwt beam="1">  1       21 0.99532462E-01 0.45233137E+03</pdfrwt>
<pdfrwt beam="2">  1       21 0.56474495E-01 0.45233137E+03</pdfrwt>
<totfact> 0.21120617E+03</totfact>
</mgrwt>
</event>
<event>
 4    1  0.4758708E-002  0.4615951E+03  0.7818608E-02  0.1024320E+00
         21   -1    0    0  501  502  0.00000000000E+00  0.00000000000E+00  0.61216925568E+03  0.61216925568E+03  0.00000000000E+00 0.  1.
         21   -1    0    0  502  503 -0.00000000000E+00 -0.00000000000E+00 -0.37389310685E+03  0.37389310685E+03  0.00000000000E+00 0. -1.
    9000007    1    1    2  501    0  0.17237360338E+03  0.15283122032E+03  0.24873980780E+03  0.52434867505E+03  0.40000000000E+03 0.  1.
   -9000007    1    1    2    0  503 -0.17237360338E+03 -0.15283122032E+03 -0.10463658976E+02  0.46171368748E+03  0.40000000000E+03 0. -1.
<mgrwt>
<rscale>  2 0.46159511E+03</rscale>
<asrwt>0</asrwt>
<pdfrwt beam="1">  1       21 0.94179885E-01 0.46159511E+03</pdfrwt>
<pdfrwt beam="2">  1       21 0.57522017E-01 0.46159511E+03</pdfrwt>
<totfact> 0.23104906E+03</totfact>
</mgrwt>
</event>
<event>
 4    1  0.4758708E-002  0.5831906E+03  0.7818608E-02  0.9940907E-01
         21   -1    0    0  503  502  0.00000000000E+00  0.00000000000E+00  0.37335601222E+03  0.37335601222E+03  0.00000000000E+00 0.  1.
         21   -1    0    0  501  503 -0.00000000000E+00 -0.00000000000E+00 -0.17426664132E+04  0.17426664132E+04  0.00000000000E+00 0. -1.
    9000007    1    1    2  501    0 -0.12769978355E+03  0.40472705100E+03 -0.14155737518E+04  0.15309997607E+04  0.40000000000E+03 0. -1.
   -9000007    1    1    2    0  502  0.12769978355E+03 -0.40472705100E+03  0.46263350862E+02  0.58502266466E+03  0.40000000000E+03 0.  1.
<mgrwt>
<rscale>  2 0.58319055E+03</rscale>
<asrwt>0</asrwt>
<pdfrwt beam="1">  1       21 0.57439386E-01 0.58319055E+03</pdfrwt>
<pdfrwt beam="2">  1       21 0.26810253E+00 0.58319055E+03</pdfrwt>
<totfact> 0.10819370E+02</totfact>
</mgrwt>
</event>
<event>
 4    1  0.4758708E-002  0.5871928E+03  0.7818608E-02  0.9932339E-01
         21   -1    0    0  501  502  0.00000000000E+00  0.00000000000E+00  0.96893698139E+03  0.96893698139E+03  0.00000000000E+00 0. -1.
         21   -1    0    0  502  503 -0.00000000000E+00 -0.00000000000E+00 -0.37188844210E+03  0.37188844210E+03  0.00000000000E+00 0. -1.
    9000007    1    1    2  501    0  0.33380041618E+03  0.27087397240E+03  0.43775276874E+03  0.73240897953E+03  0.40000000000E+03 0. -1.
   -9000007    1    1    2    0  503 -0.33380041618E+03 -0.27087397240E+03  0.15929577054E+03  0.60841644395E+03  0.40000000000E+03 0. -1.
<mgrwt>
<rscale>  2 0.58719284E+03</rscale>
<asrwt>0</asrwt>
<pdfrwt beam="1">  1       21 0.14906723E+00 0.58719284E+03</pdfrwt>
<pdfrwt beam="2">  1       21 0.57213607E-01 0.58719284E+03</pdfrwt>
<totfact> 0.69413574E+02</totfact>
</mgrwt>
</event>
<event>
 4    1  0.4758708E-002  0.4541176E+03  0.7818608E-02  0.1026501E+00
         21   -1    0    0  503  502  0.00000000000E+00  0.00000000000E+00  0.14888733932E+04  0.14888733932E+04  0.00000000000E+00 0.  1.
         21   -1    0    0  501  503 -0.00000000000E+00 -0.00000000000E+00 -0.14032783900E+03  0.14032783900E+03  0.00000000000E+00 0.  1.
    9000007    1    1    2  501    0  0.21496190461E+03  0.37630616761E+01  0.58153929577E+03  0.73784194351E+03  0.40000000000E+03 0. -1.
   -9000007    1    1    2    0  502 -0.21496190461E+03 -0.37630616761E+01  0.76700625844E+03  0.89135928870E+03  0.40000000000E+03 0. -1.
<mgrwt>
<rscale>  2 0.45411759E+03</rscale>
<asrwt>0</asrwt>
<pdfrwt beam="1">  1       21 0.22905743E+00 0.45411759E+03</pdfrwt>
<pdfrwt beam="2">  1       21 0.21588899E-01 0.45411759E+03</pdfrwt>
<totfact> 0.14738731E+03</totfact>
</mgrwt>
</event>
<event>
 4    1  0.4758708E-002  0.4635522E+03  0.7818608E-02  0.1023756E+00
         21   -1    0    0  503  502  0.00000000000E+00  0.00000000000E+00  0.13101031296E+04  0.13101031296E+04  0.00000000000E+00 0. -1.
         21   -1    0    0  501  503 -0.00000000000E+00 -0.00000000000E+00 -0.24008365363E+03  0.24008365363E+03  0.00000000000E+00 0. -1.
    9000007    1    1    2  501    0  0.59736284561E+02 -0.22652206483E+03  0.97129109873E+03  0.10762374589E+04  0.40000000000E+03 0. -1.
   -9000007    1    1    2    0  502 -0.59736284561E+02  0.22652206483E+03  0.98728377278E+02  0.47394932433E+03  0.40000000000E+03 0. -1.
<mgrwt>
<rscale>  2 0.46355223E+03</rscale>
<asrwt>0</asrwt>
<pdfrwt beam="1">  1       21 0.20155432E+00 0.46355223E+03</pdfrwt>
<pdfrwt beam="2">  1       21 0.36935947E-01 0.46355223E+03</pdfrwt>
<totfact> 0.76505672E+02</totfact>
</mgrwt>
</event>
<event>
 4    1  0.4758708E-002  0.5182568E+03  0.7818608E-02  0.1009120E+00
         21   -1    0    0  503  502  0.00000000000E+00  0.00000000000E+00  0.22767861883E+03  0.22767861883E+03  0.00000000000E+00 0.  1.
         21   -1    0    0  501  503 -0.00000000000E+00 -0.00000000000E+00 -0.14984260583E+04  0.14984260583E+04  0.00000000000E+00 0. -1.
    9000007    1    1    2  501    0  0.12038580571E+03  0.30675299621E+03 -0.10334215074E+04  0.11560926238E+04  0.40000000000E+03 0. -1.
   -9000007    1    1    2    0  502 -0.12038580571E+03 -0.30675299621E+03 -0.23732593209E+03  0.57001205333E+03  0.40000000000E+03 0.  1.
<mgrwt>
<rscale>  2 0.51825683E+03</rscale>
<asrwt>0</asrwt>
<pdfrwt beam="1">  1       21 0.35027478E-01 0.51825683E+03</pdfrwt>
<pdfrwt beam="2">  1       21 0.23052710E+00 0.51825683E+03</pdfrwt>
<totfact> 0.53996433E+02</totfact>
</mgrwt>
</event>
<event>
 4    1  0.4758708E-002  0.4332491E+03  0.7818608E-02  0.1032838E+00
         21   -1    0    0  501  502  0.00000000000E+00  0.00000000000E+00  0.86307402254E+02  0.86307402254E+02  0.00000000000E+00 0. -1.
         21   -1    0    0  502  503 -0.00000000000E+00 -0.00000000000E+00 -0.22156222536E+04  0.22156222536E+04  0.00000000000E+00 0.  1.
    9000007    1    1    2  501    0 -0.25225977045E+01  0.16642844250E+03 -0.90850459925E+03  0.10065214339E+04  0.40000000000E+03 0. -1.
   -9000007    1    1    2    0  503  0.25225977045E+01 -0.16642844250E+03 -0.12208102521E+04  0.12954082220E+04  0.40000000000E+03 0.  1.
<mgrwt>
<rscale>  2 0.43324911E+03</rscale>
<asrwt>0</asrwt>
<pdfrwt beam="1">  1       21 0.13278064E-01 0.43324911E+03</pdfrwt>
<pdfrwt beam="2">  1       21 0.34086492E+00 0.43324911E+03</pdfrwt>
<totfact> 0.77571751E+02</totfact>
</mgrwt>
</event>
<event>
 4    1  0.4758708E-002  0.4650172E+03  0.7818608E-02  0.1023336E+00
         21   -1    0    0  503  502  0.00000000000E+00  0.00000000000E+00  0.35579897191E+03  0.35579897191E+03  0.00000000000E+00 0. -1.
         21   -1    0    0  501  503 -0.00000000000E+00 -0.00000000000E+00 -0.90523713168E+03  0.90523713168E+03  0.00000000000E+00 0. -1.
    9000007    1    1    2  501    0 -0.15880098809E+03 -0.17613416121E+03 -0.63616379514E+03  0.78800086981E+03  0.40000000000E+03 0. -1.
   -9000007    1    1    2    0  502  0.15880098809E+03  0.17613416121E+03  0.86725635371E+02  0.47303523378E+03  0.40000000000E+03 0. -1.
<mgrwt>
<rscale>  2 0.46501720E+03</rscale>
<asrwt>0</asrwt>
<pdfrwt beam="1">  1       21 0.54738304E-01 0.46501720E+03</pdfrwt>
<pdfrwt beam="2">  1       21 0.13926725E+00 0.46501720E+03</pdfrwt>
<totfact> 0.96049406E+02</totfact>
</mgrwt>
</event>
<event>
 4    1  0.4758708E-002  0.4324116E+03  0.7818608E-02  0.1033101E+00
         21   -1    0    0  501  502  0.00000000000E+00  0.00000000000E+00  0.21171720283E+03  0.21171720283E+03  0.00000000000E+00 0.  1.
         21   -1    0    0  502  503 -0.00000000000E+00 -0.00000000000E+00 -0.90803098486E+03  0.90803098486E+03  0.00000000000E+00 0.  1.
    9000007    1    1    2  501    0  0.24045982050E+02 -0.16248563566E+03 -0.25549483241E+03  0.50225232746E+03  0.40000000000E+03 0.  1.
   -9000007    1    1    2    0  503 -0.24045982050E+02  0.16248563566E+03 -0.44081894962E+03  0.61749586022E+03  0.40000000000E+03 0.  1.
<mgrwt>
<rscale>  2 0.43241160E+03</rscale>
<asrwt>0</asrwt>
<pdfrwt beam="1">  1       21 0.32571878E-01 0.43241160E+03</pdfrwt>
<pdfrwt beam="2">  1       21 0.13969707E+00 0.43241160E+03</pdfrwt>
<totfact> 0.28377175E+03</totfact>
</mgrwt>
</event>
<event>
 4    1  0.4758708E-002  0.4429473E+03  0.7818608E-02  0.1029846E+00
         21   -1    0    0  503  502  0.00000000000E+00  0.00000000000E+00  0.10961499794E+04  0.10961499794E+04  0.00000000000E+00 0.  1.
         21   -1    0    0  501  503 -0.00000000000E+00 -0.00000000000E+00 -0.18367200201E+03  0.18367200201E+03  0.00000000000E+00 0. -1.
    9000007    1    1    2  501    0 -0.18283436860E+03 -0.52667696988E+02  0.35409519458E+03  0.56708526649E+03  0.40000000000E+03 0. -1.
   -9000007    1    1    2    0  502  0.18283436860E+03  0.52667696988E+02  0.55838278277E+03  0.71273671488E+03  0.40000000000E+03 0.  1.
<mgrwt>
<rscale>  2 0.44294728E+03</rscale>
<asrwt>0</asrwt>
<pdfrwt beam="1">  1       21 0.16863845E+00 0.44294728E+03</pdfrwt>
<pdfrwt beam="2">  1       21 0.28257232E-01 0.44294728E+03</pdfrwt>
<totfact> 0.22373435E+03</totfact>
</mgrwt>
</event>
<event>
 4    1  0.4758708E-002  0.4638679E+03  0.7818608E-02  0.1023665E+00
         21   -1    0    0  503  502  0.00000000000E+00  0.00000000000E+00  0.81340578790E+03  0.81340578790E+03  0.00000000000E+00 0.  1.
         21   -1    0    0  501  503 -0.00000000000E+00 -0.00000000000E+00 -0.26453645370E+03  0.26453645370E+03  0.00000000000E+00 0. -1.
    9000007    1    1    2  501    0  0.22104807741E+03  0.79442790941E+02  0.27610755824E+03  0.53982292771E+03  0.40000000000E+03 0.  1.
   -9000007    1    1    2    0  502 -0.22104807741E+03 -0.79442790941E+02  0.27276177596E+03  0.53811931389E+03  0.40000000000E+03 0.  1.
<mgrwt>
<rscale>  2 0.46386788E+03</rscale>
<asrwt>0</asrwt>
<pdfrwt beam="1">  1       21 0.12513935E+00 0.46386788E+03</pdfrwt>
<pdfrwt beam="2">  1       21 0.40697916E-01 0.46386788E+03</pdfrwt>
<totfact> 0.23752942E+03</totfact>
</mgrwt>
</event>
<event>
 4    1  0.4758708E-002  0.5460155E+03  0.7818608E-02  0.1002420E+00
         21   -1    0    0  503  502  0.00000000000E+00  0.00000000000E+00  0.20586044335E+04  0.20586044335E+04  0.00000000000E+00 0.  1.
         21   -1    0    0  501  503 -0.00000000000E+00 -0.00000000000E+00 -0.41115829358E+03  0.41115829358E+03  0.00000000000E+00 0.  1.
    9000007    1    1    2  501    0  0.29043390423E+03 -0.23190750350E+03 -0.17015978531E+03  0.57191546180E+03  0.40000000000E+03 0.  1.
   -9000007    1    1    2    0  502 -0.29043390423E+03  0.23190750350E+03  0.18176059252E+04  0.18978472653E+04  0.40000000000E+03 0.  1.
<mgrwt>
<rscale>  2 0.54601552E+03</rscale>
<asrwt>0</asrwt>
<pdfrwt beam="1">  1       21 0.31670837E+00 0.54601552E+03</pdfrwt>
<pdfrwt beam="2">  1       21 0.63255124E-01 0.54601552E+03</pdfrwt>
<totfact> 0.45121980E+01</totfact>
</mgrwt>
</event>
<event>
 4    1  0.4758708E-002  0.5368731E+03  0.7818608E-02  0.1004579E+00
         21   -1    0    0  501  502  0.00000000000E+00  0.00000000000E+00  0.73524917150E+03  0.73524917150E+03  0.00000000000E+00 0.  1.
         21   -1    0    0  502  503 -0.00000000000E+00 -0.00000000000E+00 -0.72005888168E+03  0.72005888168E+03  0.00000000000E+00 0. -1.
    9000007    1    1    2  501    0 -0.14537371612E+03 -0.32726012584E+03  0.49873287416E+03  0.73278044943E+03  0.40000000000E+03 0.  1.
   -9000007    1    1    2    0  503  0.14537371612E+03  0.32726012584E+03 -0.48354258434E+03  0.72252760374E+03  0.40000000000E+03 0. -1.
<mgrwt>
<rscale>  2 0.53687308E+03</rscale>
<asrwt>0</asrwt>
<pdfrwt beam="1">  1       21 0.11311526E+00 0.53687308E+03</pdfrwt>
<pdfrwt beam="2">  1       21 0.11077829E+00 0.53687308E+03</pdfrwt>
<totfact> 0.31239682E+02</totfact>
</mgrwt>
</event>
<event>
 4    1  0.4758708E-002  0.4954395E+03  0.7818608E-02  0.1014976E+00
         21   -1    0    0  503  502  0.00000000000E+00  0.00000000000E+00  0.89913042271E+03  0.89913042271E+03  0.00000000000E+00 0.  1.
         21   -1    0    0  501  503 -0.00000000000E+00 -0.00000000000E+00 -0.29801264380E+03  0.29801264380E+03  0.00000000000E+00 0. -1.
    9000007    1    1    2  501    0  0.90811467823E+02 -0.27787336496E+03  0.12713836901E+03  0.51149241883E+03  0.40000000000E+03 0. -1.
   -9000007    1    1    2    0  502 -0.90811467823E+02  0.27787336496E+03  0.47397940991E+03  0.68565064768E+03  0.40000000000E+03 0.  1.
<mgrwt>
<rscale>  2 0.49543953E+03</rscale>
<asrwt>0</asrwt>
<pdfrwt beam="1">  1       21 0.13832776E+00 0.49543953E+03</pdfrwt>
<pdfrwt beam="2">  1       21 0.45848099E-01 0.49543953E+03</pdfrwt>
<totfact> 0.14098233E+03</totfact>
</mgrwt>
</event>
<event>
 4    1  0.4758708E-002  0.6091082E+03  0.7818608E-02  0.9886688E-01
         21   -1    0    0  503  502  0.00000000000E+00  0.00000000000E+00  0.19978756911E+03  0.19978756911E+03  0.00000000000E+00 0. -1.
         21   -1    0    0  501  503 -0.00000000000E+00 -0.00000000000E+00 -0.19576057253E+04  0.19576057253E+04  0.00000000000E+00 0. -1.
    9000007    1    1    2  501    0  0.10103787801E+03  0.44811171118E+03 -0.63441417847E+03  0.87948513821E+03  0.40000000000E+03 0. -1.
   -9000007    1    1    2    0  502 -0.10103787801E+03 -0.44811171118E+03 -0.11234039777E+04  0.12779081562E+04  0.40000000000E+03 0. -1.
<mgrwt>
<rscale>  2 0.60910817E+03</rscale>
<asrwt>0</asrwt>
<pdfrwt beam="1">  1       21 0.30736548E-01 0.60910817E+03</pdfrwt>
<pdfrwt beam="2">  1       21 0.30117012E+00 0.60910817E+03</pdfrwt>
<totfact> 0.24817994E+02</totfact>
</mgrwt>
</event>
<event>
 4    1  0.4758708E-002  0.4318373E+03  0.7818608E-02  0.1033281E+00
         21   -1    0    0  503  502  0.00000000000E+00  0.00000000000E+00  0.32212167840E+03  0.32212167840E+03  0.00000000000E+00 0. -1.
         21   -1    0    0  501  503 -0.00000000000E+00 -0.00000000000E+00 -0.12611657010E+04  0.12611657010E+04  0.00000000000E+00 0. -1.
    9000007    1    1    2  501    0 -0.11748178089E+03  0.11261219949E+03 -0.10517771067E+04  0.11369778180E+04  0.40000000000E+03 0. -1.
   -9000007    1    1    2    0  502  0.11748178089E+03 -0.11261219949E+03  0.11273308417E+03  0.44630956138E+03  0.40000000000E+03 0. -1.
<mgrwt>
<rscale>  2 0.43183733E+03</rscale>
<asrwt>0</asrwt>
<pdfrwt beam="1">  1       21 0.49557181E-01 0.43183733E+03</pdfrwt>
<pdfrwt beam="2">  1       21 0.19402549E+00 0.43183733E+03</pdfrwt>
<totfact> 0.47354957E+02</totfact>
</mgrwt>
</event>
<event>
 4    1  0.4758708E-002  0.4097518E+03  0.7818608E-02  0.1040454E+00
         21   -1    0    0  503  502  0.00000000000E+00  0.00000000000E+00  0.13681204758E+04  0.13681204758E+04  0.00000000000E+00 0.  1.
         21   -1    0    0  501  503 -0.00000000000E+00 -0.00000000000E+00 -0.30860948245E+03  0.30860948245E+03  0.00000000000E+00 0.  1.
    9000007    1    1    2  501    0 -0.86367054322E+02 -0.20911092579E+02 -0.12090617367E+03  0.42721756132E+03  0.40000000000E+03 0.  1.
   -9000007    1    1    2    0  502  0.86367054322E+02  0.20911092579E+02  0.11804171670E+04  0.12495123969E+04  0.40000000000E+03 0.  1.
<mgrwt>
<rscale>  2 0.40975181E+03</rscale>
<asrwt>0</asrwt>
<pdfrwt beam="1">  1       21 0.21048007E+00 0.40975181E+03</pdfrwt>
<pdfrwt beam="2">  1       21 0.47478383E-01 0.40975181E+03</pdfrwt>
<totfact> 0.40825447E+02</totfact>
</mgrwt>
</event>
<event>
 4    1  0.4758708E-002  0.5625627E+03  0.7818608E-02  0.9986273E-01
         21   -1    0    0  501  502  0.00000000000E+00  0.00000000000E+00  0.12434075761E+04  0.12434075761E+04  0.00000000000E+00 0. -1.
         21   -1    0    0  502  503 -0.00000000000E+00 -0.00000000000E+00 -0.26963807434E+03  0.26963807434E+03  0.00000000000E+00 0. -1.
    9000007    1    1    2  501    0 -0.18387454635E+03  0.35023839393E+03  0.66599710345E+03  0.87179637713E+03  0.40000000000E+03 0. -1.
   -9000007    1    1    2    0  503  0.18387454635E+03 -0.35023839393E+03  0.30777239836E+03  0.64124927335E+03  0.40000000000E+03 0. -1.
<mgrwt>
<rscale>  2 0.56256269E+03</rscale>
<asrwt>0</asrwt>
<pdfrwt beam="1">  1       21 0.19129347E+00 0.56256269E+03</pdfrwt>
<pdfrwt beam="2">  1       21 0.41482781E-01 0.56256269E+03</pdfrwt>
<totfact> 0.67864157E+02</totfact>
</mgrwt>
</event>
<event>
 4    1  0.4758708E-002  0.4975110E+03  0.7818608E-02  0.1014431E+00
         21   -1    0    0  501  502  0.00000000000E+00  0.00000000000E+00  0.57078118553E+03  0.57078118553E+03  0.00000000000E+00 0. -1.
         21   -1    0    0  502  503 -0.00000000000E+00 -0.00000000000E+00 -0.62794388341E+03  0.62794388341E+03  0.00000000000E+00 0.  1.
    9000007    1    1    2  501    0  0.23765891206E+03 -0.17616883612E+03  0.30481645983E+03  0.58346404472E+03  0.40000000000E+03 0.  1.
   -9000007    1    1    2    0  503 -0.23765891206E+03  0.17616883612E+03 -0.36197915771E+03  0.61526102422E+03  0.40000000000E+03 0.  1.
<mgrwt>
<rscale>  2 0.49751102E+03</rscale>
<asrwt>0</asrwt>
<pdfrwt beam="1">  1       21 0.87812491E-01 0.49751102E+03</pdfrwt>
<pdfrwt beam="2">  1       21 0.96606751E-01 0.49751102E+03</pdfrwt>
<totfact> 0.82290167E+02</totfact>
</mgrwt>
</event>
<event>
 4    1  0.4758708E-002  0.4166207E+03  0.7818608E-02  0.1038172E+00
         21   -1    0    0  501  502  0.00000000000E+00  0.00000000000E+00  0.60590759102E+03  0.60590759102E+03  0.00000000000E+00 0. -1.
         21   -1    0    0  502  503 -0.00000000000E+00 -0.00000000000E+00 -0.67705303060E+03  0.67705303060E+03  0.00000000000E+00 0. -1.
    9000007    1    1    2  501    0 -0.90481149267E+02 -0.73389011547E+02  0.45165288863E+03  0.61446164827E+03  0.40000000000E+03 0. -1.
   -9000007    1    1    2    0  503  0.90481149267E+02  0.73389011547E+02 -0.52279832821E+03  0.66849897335E+03  0.40000000000E+03 0. -1.
<mgrwt>
<rscale>  2 0.41662067E+03</rscale>
<asrwt>0</asrwt>
<pdfrwt beam="1">  1       21 0.93216552E-01 0.41662067E+03</pdfrwt>
<pdfrwt beam="2">  1       21 0.10416200E+00 0.41662067E+03</pdfrwt>
<totfact> 0.61549909E+02</totfact>
</mgrwt>
</event>
<event>
 4    1  0.4758708E-002  0.5002370E+03  0.7818608E-02  0.1013717E+00
         21   -1    0    0  503  502  0.00000000000E+00  0.00000000000E+00  0.50308480960E+03  0.50308480960E+03  0.00000000000E+00 0. -1.
         21   -1    0    0  501  503 -0.00000000000E+00 -0.00000000000E+00 -0.54215404363E+03  0.54215404363E+03  0.00000000000E+00 0. -1.
    9000007    1    1    2  501    0 -0.27223459239E+03 -0.12698569467E+03 -0.16968094830E+03  0.52823163873E+03  0.40000000000E+03 0. -1.
   -9000007    1    1    2    0  502  0.27223459239E+03  0.12698569467E+03  0.13061171427E+03  0.51700721450E+03  0.40000000000E+03 0. -1.
<mgrwt>
<rscale>  2 0.50023698E+03</rscale>
<asrwt>0</asrwt>
<pdfrwt beam="1">  1       21 0.77397663E-01 0.50023698E+03</pdfrwt>
<pdfrwt beam="2">  1       21 0.83408314E-01 0.50023698E+03</pdfrwt>
<totfact> 0.15637471E+03</totfact>
</mgrwt>
</event>
<event>
 4    1  0.4758708E-002  0.4477072E+03  0.7818608E-02  0.1028408E+00
         21   -1    0    0  501  502  0.00000000000E+00  0.00000000000E+00  0.52471252857E+03  0.52471252857E+03  0.00000000000E+00 0. -1.
         21   -1    0    0  502  503 -0.00000000000E+00 -0.00000000000E+00 -0.57319163892E+03  0.57319163892E+03  0.00000000000E+00 0. -1.
    9000007    1    1    2  501    0  0.15143062071E+03  0.13232710001E+03  0.29280164081E+03  0.53495279712E+03  0.40000000000E+03 0. -1.
   -9000007    1    1    2    0  503 -0.15143062071E+03 -0.13232710001E+03 -0.34128075116E+03  0.56295137037E+03  0.40000000000E+03 0. -1.
<mgrwt>
<rscale>  2 0.44770715E+03</rscale>
<asrwt>0</asrwt>
<pdfrwt beam="1">  1       21 0.80725005E-01 0.44770715E+03</pdfrwt>
<pdfrwt beam="2">  1       21 0.88183329E-01 0.44770715E+03</pdfrwt>
<totfact> 0.12699025E+03</totfact>
</mgrwt>
</event>
<event>
 4    1  0.4758708E-002  0.5297586E+03  0.7818608E-02  0.1006291E+00
         21   -1    0    0  503  502  0.00000000000E+00  0.00000000000E+00  0.12124730288E+04  0.12124730288E+04  0.00000000000E+00 0.  1.
         21   -1    0    0  501  503 -0.00000000000E+00 -0.00000000000E+00 -0.23210114193E+03  0.23210114193E+03  0.00000000000E+00 0.  1.
    9000007    1    1    2  501    0 -0.15840244995E+03  0.30911616862E+03  0.45234959160E+03  0.69660914067E+03  0.40000000000E+03 0.  1.
   -9000007    1    1    2    0  502  0.15840244995E+03 -0.30911616862E+03  0.52802229524E+03  0.74796503001E+03  0.40000000000E+03 0.  1.
<mgrwt>
<rscale>  2 0.52975857E+03</rscale>
<asrwt>0</asrwt>
<pdfrwt beam="1">  1       21 0.18653431E+00 0.52975857E+03</pdfrwt>
<pdfrwt beam="2">  1       21 0.35707868E-01 0.52975857E+03</pdfrwt>
<totfact> 0.10087745E+03</totfact>
</mgrwt>
</event>
<event>
 4    1  0.4758708E-002  0.4547275E+03  0.7818608E-02  0.1026322E+00
         21   -1    0    0  503  502  0.00000000000E+00  0.00000000000E+00  0.34597790728E+03  0.34597790728E+03  0.00000000000E+00 0. -1.
         21   -1    0    0  501  503 -0.00000000000E+00 -0.00000000000E+00 -0.68064243156E+03  0.68064243156E+03  0.00000000000E+00 0.  1.
    9000007    1    1    2  501    0 -0.16820217390E+03 -0.13595994076E+03 -0.34656363701E+03  0.57173720475E+03  0.40000000000E+03 0. -1.
   -9000007    1    1    2    0  502  0.16820217390E+03  0.13595994076E+03  0.11899112732E+02  0.45488313409E+03  0.40000000000E+03 0. -1.
<mgrwt>
<rscale>  2 0.45472748E+03</rscale>
<asrwt>0</asrwt>
<pdfrwt beam="1">  1       21 0.53227371E-01 0.45472748E+03</pdfrwt>
<pdfrwt beam="2">  1       21 0.10471422E+00 0.45472748E+03</pdfrwt>
<totfact> 0.21178100E+03</totfact>
</mgrwt>
</event>
<event>
 4    1  0.4758708E-002  0.4548717E+03  0.7818608E-02  0.1026279E+00
         21   -1    0    0  503  502  0.00000000000E+00  0.00000000000E+00  0.50454463215E+03  0.50454463215E+03  0.00000000000E+00 0.  1.
         21   -1    0    0  501  503 -0.00000000000E+00 -0.00000000000E+00 -0.63494425572E+03  0.63494425572E+03  0.00000000000E+00 0.  1.
    9000007    1    1    2  501    0  0.21142468227E+03  0.46988026752E+02 -0.40424976768E+03  0.60854428401E+03  0.40000000000E+03 0.  1.
   -9000007    1    1    2    0  502 -0.21142468227E+03 -0.46988026752E+02  0.27385014412E+03  0.53094460386E+03  0.40000000000E+03 0.  1.
<mgrwt>
<rscale>  2 0.45487171E+03</rscale>
<asrwt>0</asrwt>
<pdfrwt beam="1">  1       21 0.77622251E-01 0.45487171E+03</pdfrwt>
<pdfrwt beam="2">  1       21 0.97683732E-01 0.45487171E+03</pdfrwt>
<totfact> 0.10858929E+03</totfact>
</mgrwt>
</event>
<event>
 4    1  0.4758708E-002  0.4606937E+03  0.7818608E-02  0.1024580E+00
         21   -1    0    0  503  502  0.00000000000E+00  0.00000000000E+00  0.17659035824E+03  0.17659035824E+03  0.00000000000E+00 0. -1.
         21   -1    0    0  501  503 -0.00000000000E+00 -0.00000000000E+00 -0.14414116304E+04  0.14414116304E+04  0.00000000000E+00 0. -1.
    9000007    1    1    2  501    0  0.10623569052E+03 -0.20236753740E+03 -0.30261446806E+03  0.55119339475E+03  0.40000000000E+03 0. -1.
   -9000007    1    1    2    0  502 -0.10623569052E+03  0.20236753740E+03 -0.96220680411E+03  0.10668085939E+04  0.40000000000E+03 0. -1.
<mgrwt>
<rscale>  2 0.46069365E+03</rscale>
<asrwt>0</asrwt>
<pdfrwt beam="1">  1       21 0.27167748E-01 0.46069365E+03</pdfrwt>
<pdfrwt beam="2">  1       21 0.22175563E+00 0.46069365E+03</pdfrwt>
<totfact> 0.10464628E+03</totfact>
</mgrwt>
</event>
<event>
 4    1  0.4758708E-002  0.4743925E+03  0.7818608E-02  0.1020688E+00
         21   -1    0    0  503  502  0.00000000000E+00  0.00000000000E+00  0.61630411600E+03  0.61630411600E+03  0.00000000000E+00 0.  1.
         21   -1    0    0  501  503 -0.00000000000E+00 -0.00000000000E+00 -0.64073886781E+03  0.64073886781E+03  0.00000000000E+00 0.  1.
    9000007    1    1    2  501    0  0.62470899592E+02 -0.24727636153E+03 -0.42441391599E+03  0.63653388312E+03  0.40000000000E+03 0.  1.
   -9000007    1    1    2    0  502 -0.62470899592E+02  0.24727636153E+03  0.39997916418E+03  0.62050910069E+03  0.40000000000E+03 0.  1.
<mgrwt>
<rscale>  2 0.47439247E+03</rscale>
<asrwt>0</asrwt>
<pdfrwt beam="1">  1       21 0.94816018E-01 0.47439247E+03</pdfrwt>
<pdfrwt beam="2">  1       21 0.98575211E-01 0.47439247E+03</pdfrwt>
<totfact> 0.65895520E+02</totfact>
</mgrwt>
</event>
<event>
 4    1  0.4758708E-002  0.4807283E+03  0.7818608E-02  0.1018935E+00
         21   -1    0    0  503  502  0.00000000000E+00  0.00000000000E+00  0.31207988665E+03  0.31207988665E+03  0.00000000000E+00 0.  1.
         21   -1    0    0  501  503 -0.00000000000E+00 -0.00000000000E+00 -0.86649687134E+03  0.86649687134E+03  0.00000000000E+00 0. -1.
    9000007    1    1    2  501    0  0.16231547290E+03  0.21155003299E+03 -0.50190638616E+03  0.69498902845E+03  0.40000000000E+03 0. -1.
   -9000007    1    1    2    0  502 -0.16231547290E+03 -0.21155003299E+03 -0.52510598534E+02  0.48358772954E+03  0.40000000000E+03 0.  1.
<mgrwt>
<rscale>  2 0.48072833E+03</rscale>
<asrwt>0</asrwt>
<pdfrwt beam="1">  1       21 0.48012291E-01 0.48072833E+03</pdfrwt>
<pdfrwt beam="2">  1       21 0.13330721E+00 0.48072833E+03</pdfrwt>
<totfact> 0.14176672E+03</totfact>
</mgrwt>
</event>
<event>
 4    1  0.4758708E-002  0.5277104E+03  0.7818608E-02  0.1006789E+00
         21   -1    0    0  501  502  0.00000000000E+00  0.00000000000E+00  0.22013258313E+04  0.22013258313E+04  0.00000000000E+00 0.  1.
         21   -1    0    0  502  503 -0.00000000000E+00 -0.00000000000E+00 -0.12653735718E+03  0.12653735718E+03  0.00000000000E+00 0. -1.
    9000007    1    1    2  501    0 -0.38101815787E+02 -0.34209146253E+03  0.10560598050E+04  0.11805679264E+04  0.40000000000E+03 0. -1.
   -9000007    1    1    2    0  503  0.38101815787E+02  0.34209146253E+03  0.10187286691E+04  0.11472952621E+04  0.40000000000E+03 0. -1.
<mgrwt>
<rscale>  2 0.52771045E+03</rscale>
<asrwt>0</asrwt>
<pdfrwt beam="1">  1       21 0.33866548E+00 0.52771045E+03</pdfrwt>
<pdfrwt beam="2">  1       21 0.19467287E-01 0.52771045E+03</pdfrwt>
<totfact> 0.37139698E+02</totfact>
</mgrwt>
</event>
<event>
 4    1  0.4758708E-002  0.4724651E+03  0.7818608E-02  0.1021227E+00
         21   -1    0    0  503  502  0.00000000000E+00  0.00000000000E+00  0.10292104079E+04  0.10292104079E+04  0.00000000000E+00 0.  1.
         21   -1    0    0  501  503 -0.00000000000E+00 -0.00000000000E+00 -0.22270484999E+03  0.22270484999E+03  0.00000000000E+00 0.  1.
    9000007    1    1    2  501    0 -0.58839989782E+02 -0.24446092917E+03  0.30208841920E+03  0.56078579093E+03  0.40000000000E+03 0.  1.
   -9000007    1    1    2    0  502  0.58839989782E+02  0.24446092917E+03  0.50441713872E+03  0.69112946698E+03  0.40000000000E+03 0.  1.
<mgrwt>
<rscale>  2 0.47246512E+03</rscale>
<asrwt>0</asrwt>
<pdfrwt beam="1">  1       21 0.15834006E+00 0.47246512E+03</pdfrwt>
<pdfrwt beam="2">  1       21 0.34262285E-01 0.47246512E+03</pdfrwt>
<totfact> 0.17965420E+03</totfact>
</mgrwt>
</event>
<event>
 4    1  0.4758708E-002  0.4207492E+03  0.7818608E-02  0.1036823E+00
         21   -1    0    0  501  502  0.00000000000E+00  0.00000000000E+00  0.25709781304E+03  0.25709781304E+03  0.00000000000E+00 0.  1.
         21   -1    0    0  502  503 -0.00000000000E+00 -0.00000000000E+00 -0.19152230378E+04  0.19152230378E+04  0.00000000000E+00 0.  1.
    9000007    1    1    2  501    0 -0.11423622346E+03 -0.63087173858E+02  0.40188231618E+02  0.42266416954E+03  0.40000000000E+03 0.  1.
   -9000007    1    1    2    0  503  0.11423622346E+03  0.63087173858E+02 -0.16983134563E+04  0.17496566812E+04  0.40000000000E+03 0.  1.
<mgrwt>
<rscale>  2 0.42074922E+03</rscale>
<asrwt>0</asrwt>
<pdfrwt beam="1">  1       21 0.39553510E-01 0.42074922E+03</pdfrwt>
<pdfrwt beam="2">  1       21 0.29464970E+00 0.42074922E+03</pdfrwt>
<totfact> 0.18006101E+02</totfact>
</mgrwt>
</event>
<event>
 4    1  0.4758708E-002  0.4175833E+03  0.7818608E-02  0.1037856E+00
         21   -1    0    0  503  502  0.00000000000E+00  0.00000000000E+00  0.64303878183E+03  0.64303878183E+03  0.00000000000E+00 0. -1.
         21   -1    0    0  501  503 -0.00000000000E+00 -0.00000000000E+00 -0.43194402055E+03  0.43194402055E+03  0.00000000000E+00 0. -1.
    9000007    1    1    2  501    0  0.11908580772E+03  0.13943588516E+02 -0.22236617191E+03  0.47309889840E+03  0.40000000000E+03 0. -1.
   -9000007    1    1    2    0  502 -0.11908580772E+03 -0.13943588516E+02  0.43346093319E+03  0.60188390397E+03  0.40000000000E+03 0. -1.
<mgrwt>
<rscale>  2 0.41758335E+03</rscale>
<asrwt>0</asrwt>
<pdfrwt beam="1">  1       21 0.98929043E-01 0.41758335E+03</pdfrwt>
<pdfrwt beam="2">  1       21 0.66452927E-01 0.41758335E+03</pdfrwt>
<totfact> 0.15196880E+03</totfact>
</mgrwt>
</event>
<event>
 4    1  0.4758708E-002  0.4634478E+03  0.7818608E-02  0.1023786E+00
         21   -1    0    0  503  502  0.00000000000E+00  0.00000000000E+00  0.37725371071E+03  0.37725371071E+03  0.00000000000E+00 0. -1.
         21   -1    0    0  501  503 -0.00000000000E+00 -0.00000000000E+00 -0.76583175100E+03  0.76583175100E+03  0.00000000000E+00 0.  1.
    9000007    1    1    2  501    0  0.13704705282E+03 -0.18974173642E+03 -0.48379629053E+03  0.66995721651E+03  0.40000000000E+03 0.  1.
   -9000007    1    1    2    0  502 -0.13704705282E+03  0.18974173642E+03  0.95218250233E+02  0.47312824520E+03  0.40000000000E+03 0. -1.
<mgrwt>
<rscale>  2 0.46344775E+03</rscale>
<asrwt>0</asrwt>
<pdfrwt beam="1">  1       21 0.58039033E-01 0.46344775E+03</pdfrwt>
<pdfrwt beam="2">  1       21 0.11782027E+00 0.46344775E+03</pdfrwt>
<totfact> 0.13053766E+03</totfact>
</mgrwt>
</event>
<event>
 4    1  0.4758708E-002  0.4199923E+03  0.7818608E-02  0.1037069E+00
         21   -1    0    0  503  502  0.00000000000E+00  0.00000000000E+00  0.11097079423E+04  0.11097079423E+04  0.00000000000E+00 0. -1.
         21   -1    0    0  501  503 -0.00000000000E+00 -0.00000000000E+00 -0.20173925230E+03  0.20173925230E+03  0.00000000000E+00 0. -1.
    9000007    1    1    2  501    0  0.17074269510E+02  0.12689364088E+03  0.15201139871E+03  0.44665533929E+03  0.40000000000E+03 0. -1.
   -9000007    1    1    2    0  502 -0.17074269510E+02 -0.12689364088E+03  0.75595729128E+03  0.86479185531E+03  0.40000000000E+03 0. -1.
<mgrwt>
<rscale>  2 0.41999229E+03</rscale>
<asrwt>0</asrwt>
<pdfrwt beam="1">  1       21 0.17072430E+00 0.41999229E+03</pdfrwt>
<pdfrwt beam="2">  1       21 0.31036809E-01 0.41999229E+03</pdfrwt>
<totfact> 0.18114012E+03</totfact>
</mgrwt>
</event>
<event>
 4    1  0.4758708E-002  0.4208869E+03  0.7818608E-02  0.1036778E+00
         21   -1    0    0  503  502  0.00000000000E+00  0.00000000000E+00  0.56942209856E+03  0.56942209856E+03  0.00000000000E+00 0.  1.
         21   -1    0    0  501  503 -0.00000000000E+00 -0.00000000000E+00 -0.67383049966E+03  0.67383049966E+03  0.00000000000E+00 0.  1.
    9000007    1    1    2  501    0  0.76134802114E+02 -0.10653306080E+03 -0.50829107171E+03  0.65992849212E+03  0.40000000000E+03 0.  1.
   -9000007    1    1    2    0  502 -0.76134802114E+02  0.10653306080E+03  0.40388267061E+03  0.58332410610E+03  0.40000000000E+03 0.  1.
<mgrwt>
<rscale>  2 0.42088692E+03</rscale>
<asrwt>0</asrwt>
<pdfrwt beam="1">  1       21 0.87603399E-01 0.42088692E+03</pdfrwt>
<pdfrwt beam="2">  1       21 0.10366623E+00 0.42088692E+03</pdfrwt>
<totfact> 0.71989290E+02</totfact>
</mgrwt>
</event>
<event>
 4    1  0.4758708E-002  0.4428049E+03  0.7818608E-02  0.1029890E+00
         21   -1    0    0  503  502  0.00000000000E+00  0.00000000000E+00  0.46687820363E+03  0.46687820363E+03  0.00000000000E+00 0.  1.
         21   -1    0    0  501  503 -0.00000000000E+00 -0.00000000000E+00 -0.42056153710E+03  0.42056153710E+03  0.00000000000E+00 0.  1.
    9000007    1    1    2  501    0 -0.10871775412E+03  0.15574544767E+03  0.65579998716E+01  0.44285347677E+03  0.40000000000E+03 0.  1.
   -9000007    1    1    2    0  502  0.10871775412E+03 -0.15574544767E+03  0.39758666659E+02  0.44458626396E+03  0.40000000000E+03 0.  1.
<mgrwt>
<rscale>  2 0.44280492E+03</rscale>
<asrwt>0</asrwt>
<pdfrwt beam="1">  1       21 0.71827416E-01 0.44280492E+03</pdfrwt>
<pdfrwt beam="2">  1       21 0.64701775E-01 0.44280492E+03</pdfrwt>
<totfact> 0.33721892E+03</totfact>
</mgrwt>
</event>
<event>
 4    1  0.4758708E-002  0.4002671E+03  0.7818608E-02  0.1043687E+00
         21   -1    0    0  503  502  0.00000000000E+00  0.00000000000E+00  0.55406370663E+03  0.55406370663E+03  0.00000000000E+00 0. -1.
         21   -1    0    0  501  503 -0.00000000000E+00 -0.00000000000E+00 -0.37198525034E+03  0.37198525034E+03  0.00000000000E+00 0. -1.
    9000007    1    1    2  501    0 -0.38642731404E+01 -0.14098997253E+02 -0.12744464210E+03  0.42006648418E+03  0.40000000000E+03 0. -1.
   -9000007    1    1    2    0  502  0.38642731404E+01  0.14098997253E+02  0.30952309839E+03  0.50598247279E+03  0.40000000000E+03 0. -1.
<mgrwt>
<rscale>  2 0.40026705E+03</rscale>
<asrwt>0</asrwt>
<pdfrwt beam="1">  1       21 0.85240570E-01 0.40026705E+03</pdfrwt>
<pdfrwt beam="2">  1       21 0.57228500E-01 0.40026705E+03</pdfrwt>
<totfact> 0.30269497E+03</totfact>
</mgrwt>
</event>
<event>
 4    1  0.4758708E-002  0.4795410E+03  0.7818608E-02  0.1019261E+00
         21   -1    0    0  503  502  0.00000000000E+00  0.00000000000E+00  0.15106424921E+04  0.15106424921E+04  0.00000000000E+00 0. -1.
         21   -1    0    0  501  503 -0.00000000000E+00 -0.00000000000E+00 -0.15610066968E+03  0.15610066968E+03  0.00000000000E+00 0.  1.
    9000007    1    1    2  501    0 -0.25652326532E+03  0.64461934067E+02  0.54597944965E+03  0.72667261269E+03  0.40000000000E+03 0.  1.
   -9000007    1    1    2    0  502  0.25652326532E+03 -0.64461934067E+02  0.80856237274E+03  0.94007054906E+03  0.40000000000E+03 0. -1.
<mgrwt>
<rscale>  2 0.47954095E+03</rscale>
<asrwt>0</asrwt>
<pdfrwt beam="1">  1       21 0.23240653E+00 0.47954095E+03</pdfrwt>
<pdfrwt beam="2">  1       21 0.24015489E-01 0.47954095E+03</pdfrwt>
<totfact> 0.11300088E+03</totfact>
</mgrwt>
</event>
<event>
 4    1  0.4758708E-002  0.4153327E+03  0.7818608E-02  0.1038596E+00
         21   -1    0    0  503  502  0.00000000000E+00  0.00000000000E+00  0.29558866768E+03  0.29558866768E+03  0.00000000000E+00 0. -1.
         21   -1    0    0  501  503 -0.00000000000E+00 -0.00000000000E+00 -0.73512412866E+03  0.73512412866E+03  0.00000000000E+00 0. -1.
    9000007    1    1    2  501    0  0.23191097287E+02  0.10937727569E+03 -0.45375338282E+03  0.61513685295E+03  0.40000000000E+03 0. -1.
   -9000007    1    1    2    0  502 -0.23191097287E+02 -0.10937727569E+03  0.14217921843E+02  0.41557594340E+03  0.40000000000E+03 0. -1.
<mgrwt>
<rscale>  2 0.41533266E+03</rscale>
<asrwt>0</asrwt>
<pdfrwt beam="1">  1       21 0.45475180E-01 0.41533266E+03</pdfrwt>
<pdfrwt beam="2">  1       21 0.11309602E+00 0.41533266E+03</pdfrwt>
<totfact> 0.24814891E+03</totfact>
</mgrwt>
</event>
<event>
 4    1  0.4758708E-002  0.4172202E+03  0.7818608E-02  0.1037975E+00
         21   -1    0    0  501  502  0.00000000000E+00  0.00000000000E+00  0.13453792118E+03  0.13453792118E+03  0.00000000000E+00 0.  1.
         21   -1    0    0  502  503 -0.00000000000E+00 -0.00000000000E+00 -0.14710946921E+04  0.14710946921E+04  0.00000000000E+00 0.  1.
    9000007    1    1    2  501    0  0.37885324596E+02 -0.11241630761E+03 -0.94693854972E+03  0.10347779187E+04  0.40000000000E+03 0.  1.
   -9000007    1    1    2    0  503 -0.37885324596E+02  0.11241630761E+03 -0.38961822116E+03  0.57085469456E+03  0.40000000000E+03 0.  1.
<mgrwt>
<rscale>  2 0.41722023E+03</rscale>
<asrwt>0</asrwt>
<pdfrwt beam="1">  1       21 0.20698141E-01 0.41722023E+03</pdfrwt>
<pdfrwt beam="2">  1       21 0.22632227E+00 0.41722023E+03</pdfrwt>
<totfact> 0.16914476E+03</totfact>
</mgrwt>
</event>
<event>
 4    1  0.4758708E-002  0.6219154E+03  0.7818608E-02  0.9860953E-01
         21   -1    0    0  501  502  0.00000000000E+00  0.00000000000E+00  0.70284311803E+03  0.70284311803E+03  0.00000000000E+00 0. -1.
         21   -1    0    0  502  503 -0.00000000000E+00 -0.00000000000E+00 -0.62019364237E+03  0.62019364237E+03  0.00000000000E+00 0.  1.
    9000007    1    1    2  501    0 -0.30271386679E+03 -0.36761819707E+03  0.26338880147E+03  0.67539061639E+03  0.40000000000E+03 0. -1.
   -9000007    1    1    2    0  503  0.30271386679E+03  0.36761819707E+03 -0.18073932580E+03  0.64764614401E+03  0.40000000000E+03 0. -1.
<mgrwt>
<rscale>  2 0.62191545E+03</rscale>
<asrwt>0</asrwt>
<pdfrwt beam="1">  1       21 0.10812971E+00 0.62191545E+03</pdfrwt>
<pdfrwt beam="2">  1       21 0.95414406E-01 0.62191545E+03</pdfrwt>
<totfact> 0.48999906E+02</totfact>
</mgrwt>
</event>
<event>
 4    1  0.4758708E-002  0.4613339E+03  0.7818608E-02  0.1024395E+00
         21   -1    0    0  503  502  0.00000000000E+00  0.00000000000E+00  0.49448116879E+03  0.49448116879E+03  0.00000000000E+00 0.  1.
         21   -1    0    0  501  503 -0.00000000000E+00 -0.00000000000E+00 -0.43457409652E+03  0.43457409652E+03  0.00000000000E+00 0.  1.
    9000007    1    1    2  501    0  0.12975985365E+03  0.18971379921E+03  0.75432783791E+02  0.46746021232E+03  0.40000000000E+03 0. -1.
   -9000007    1    1    2    0  502 -0.12975985365E+03 -0.18971379921E+03 -0.15525711517E+02  0.46159505299E+03  0.40000000000E+03 0. -1.
<mgrwt>
<rscale>  2 0.46133388E+03</rscale>
<asrwt>0</asrwt>
<pdfrwt beam="1">  1       21 0.76074026E-01 0.46133388E+03</pdfrwt>
<pdfrwt beam="2">  1       21 0.66857553E-01 0.46133388E+03</pdfrwt>
<totfact> 0.27329008E+03</totfact>
</mgrwt>
</event>
<event>
 4    1  0.4758708E-002  0.4296684E+03  0.7818608E-02  0.1033965E+00
         21   -1    0    0  501  502  0.00000000000E+00  0.00000000000E+00  0.12774091565E+04  0.12774091565E+04  0.00000000000E+00 0. -1.
         21   -1    0    0  502  503 -0.00000000000E+00 -0.00000000000E+00 -0.19298237936E+03  0.19298237936E+03  0.00000000000E+00 0. -1.
    9000007    1    1    2  501    0 -0.79400449585E+02 -0.13531638767E+03  0.91062495791E+03  0.10069025624E+04  0.40000000000E+03 0. -1.
   -9000007    1    1    2    0  503  0.79400449585E+02  0.13531638767E+03  0.17380181923E+03  0.46348897348E+03  0.40000000000E+03 0. -1.
<mgrwt>
<rscale>  2 0.42966843E+03</rscale>
<asrwt>0</asrwt>
<pdfrwt beam="1">  1       21 0.19652448E+00 0.42966843E+03</pdfrwt>
<pdfrwt beam="2">  1       21 0.29689598E-01 0.42966843E+03</pdfrwt>
<totfact> 0.13024840E+03</totfact>
</mgrwt>
</event>
<event>
 4    1  0.4758708E-002  0.4238491E+03  0.7818608E-02  0.1035821E+00
         21   -1    0    0  503  502  0.00000000000E+00  0.00000000000E+00  0.20136363835E+03  0.20136363835E+03  0.00000000000E+00 0.  1.
         21   -1    0    0  501  503 -0.00000000000E+00 -0.00000000000E+00 -0.11541489087E+04  0.11541489087E+04  0.00000000000E+00 0.  1.
    9000007    1    1    2  501    0  0.10268591374E+02 -0.13979489095E+03 -0.79930617112E+03  0.90473112619E+03  0.40000000000E+03 0.  1.
   -9000007    1    1    2    0  502 -0.10268591374E+02  0.13979489095E+03 -0.15347909924E+03  0.45078142088E+03  0.40000000000E+03 0.  1.
<mgrwt>
<rscale>  2 0.42384910E+03</rscale>
<asrwt>0</asrwt>
<pdfrwt beam="1">  1       21 0.30979022E-01 0.42384910E+03</pdfrwt>
<pdfrwt beam="2">  1       21 0.17756137E+00 0.42384910E+03</pdfrwt>
<totfact> 0.16214501E+03</totfact>
</mgrwt>
</event>
<event>
 4    1  0.4758708E-002  0.4093142E+03  0.7818608E-02  0.1040601E+00
         21   -1    0    0  503  502  0.00000000000E+00  0.00000000000E+00  0.60979909182E+03  0.60979909182E+03  0.00000000000E+00 0. -1.
         21   -1    0    0  501  503 -0.00000000000E+00 -0.00000000000E+00 -0.44054518251E+03  0.44054518251E+03  0.00000000000E+00 0. -1.
    9000007    1    1    2  501    0 -0.18317933290E+02 -0.84867979928E+02 -0.23755512403E+03  0.47325527747E+03  0.40000000000E+03 0. -1.
   -9000007    1    1    2    0  502  0.18317933290E+02  0.84867979928E+02  0.40680903334E+03  0.57708899687E+03  0.40000000000E+03 0. -1.
<mgrwt>
<rscale>  2 0.40931421E+03</rscale>
<asrwt>0</asrwt>
<pdfrwt beam="1">  1       21 0.93815245E-01 0.40931421E+03</pdfrwt>
<pdfrwt beam="2">  1       21 0.67776182E-01 0.40931421E+03</pdfrwt>
<totfact> 0.16575648E+03</totfact>
</mgrwt>
</event>
<event>
 4    1  0.4758708E-002  0.4401844E+03  0.7818608E-02  0.1030690E+00
         21   -1    0    0  501  502  0.00000000000E+00  0.00000000000E+00  0.10542627751E+04  0.10542627751E+04  0.00000000000E+00 0.  1.
         21   -1    0    0  502  503 -0.00000000000E+00 -0.00000000000E+00 -0.74862002561E+03  0.74862002561E+03  0.00000000000E+00 0.  1.
    9000007    1    1    2  501    0 -0.12777647534E+03 -0.13204348733E+03  0.93582884002E+03  0.10341846682E+04  0.40000000000E+03 0.  1.
   -9000007    1    1    2    0  503  0.12777647534E+03  0.13204348733E+03 -0.63018609052E+03  0.76869813248E+03  0.40000000000E+03 0.  1.
<mgrwt>
<rscale>  2 0.44018440E+03</rscale>
<asrwt>0</asrwt>
<pdfrwt beam="1">  1       21 0.16219427E+00 0.44018440E+03</pdfrwt>
<pdfrwt beam="2">  1       21 0.11517231E+00 0.44018440E+03</pdfrwt>
<totfact> 0.11453424E+02</totfact>
</mgrwt>
</event>
<event>
 4    1  0.4758708E-002  0.1235379E+04  0.7818608E-02  0.9082441E-01
         21   -1    0    0  501  502  0.00000000000E+00  0.00000000000E+00  0.12817937043E+04  0.12817937043E+04  0.00000000000E+00 0. -1.
         21   -1    0    0  502  503 -0.00000000000E+00 -0.00000000000E+00 -0.11952819026E+04  0.11952819026E+04  0.00000000000E+00 0.  1.
    9000007    1    1    2  501    0  0.11061685319E+04 -0.37756150841E+03  0.12039578791E+03  0.12412319120E+04  0.40000000000E+03 0.  1.
   -9000007    1    1    2    0  503 -0.11061685319E+04  0.37756150841E+03 -0.33883986145E+02  0.12358436949E+04  0.40000000000E+03 0. -1.
<mgrwt>
<rscale>  2 0.12353791E+04</rscale>
<asrwt>0</asrwt>
<pdfrwt beam="1">  1       21 0.19719903E+00 0.12353791E+04</pdfrwt>
<pdfrwt beam="2">  1       21 0.18388952E+00 0.12353791E+04</pdfrwt>
<totfact> 0.13451666E+01</totfact>
</mgrwt>
</event>
<event>
 4    1  0.4758708E-002  0.4901973E+03  0.7818608E-02  0.1016370E+00
         21   -1    0    0  503  502  0.00000000000E+00  0.00000000000E+00  0.72175040060E+03  0.72175040060E+03  0.00000000000E+00 0.  1.
         21   -1    0    0  501  503 -0.00000000000E+00 -0.00000000000E+00 -0.34411756327E+03  0.34411756327E+03  0.00000000000E+00 0.  1.
    9000007    1    1    2  501    0 -0.19330730358E+03  0.20718524903E+03  0.92730732488E+02  0.49889120034E+03  0.40000000000E+03 0.  1.
   -9000007    1    1    2    0  502  0.19330730358E+03 -0.20718524903E+03  0.28490210484E+03  0.56697676352E+03  0.40000000000E+03 0.  1.
<mgrwt>
<rscale>  2 0.49019735E+03</rscale>
<asrwt>0</asrwt>
<pdfrwt beam="1">  1       21 0.11103852E+00 0.49019735E+03</pdfrwt>
<pdfrwt beam="2">  1       21 0.52941164E-01 0.49019735E+03</pdfrwt>
<totfact> 0.18291548E+03</totfact>
</mgrwt>
</event>
<event>
 4    1  0.4758708E-002  0.5049966E+03  0.7818608E-02  0.1012483E+00
         21   -1    0    0  501  502  0.00000000000E+00  0.00000000000E+00  0.66238974559E+03  0.66238974559E+03  0.00000000000E+00 0. -1.
         21   -1    0    0  502  503 -0.00000000000E+00 -0.00000000000E+00 -0.46277426371E+03  0.46277426371E+03  0.00000000000E+00 0.  1.
    9000007    1    1    2  501    0  0.54839002094E+02 -0.30333857739E+03  0.33043605794E+03  0.60349780204E+03  0.40000000000E+03 0. -1.
   -9000007    1    1    2    0  503 -0.54839002094E+02  0.30333857739E+03 -0.13082057606E+03  0.52166620726E+03  0.40000000000E+03 0.  1.
<mgrwt>
<rscale>  2 0.50499664E+03</rscale>
<asrwt>0</asrwt>
<pdfrwt beam="1">  1       21 0.10190612E+00 0.50499664E+03</pdfrwt>
<pdfrwt beam="2">  1       21 0.71196040E-01 0.50499664E+03</pdfrwt>
<totfact> 0.11705032E+03</totfact>
</mgrwt>
</event>
<event>
 4    1  0.4758708E-002  0.4048347E+03  0.7818608E-02  0.1042118E+00
         21   -1    0    0  503  502  0.00000000000E+00  0.00000000000E+00  0.77568560677E+03  0.77568560677E+03  0.00000000000E+00 0.  1.
         21   -1    0    0  501  503 -0.00000000000E+00 -0.00000000000E+00 -0.30287963932E+03  0.30287963932E+03  0.00000000000E+00 0.  1.
    9000007    1    1    2  501    0  0.52008826091E+02  0.34442062621E+02 -0.60158721140E+02  0.40928015515E+03  0.40000000000E+03 0.  1.
   -9000007    1    1    2    0  502 -0.52008826091E+02 -0.34442062621E+02  0.53296468859E+03  0.66928509094E+03  0.40000000000E+03 0.  1.
<mgrwt>
<rscale>  2 0.40483475E+03</rscale>
<asrwt>0</asrwt>
<pdfrwt beam="1">  1       21 0.11933625E+00 0.40483475E+03</pdfrwt>
<pdfrwt beam="2">  1       21 0.46596868E-01 0.40483475E+03</pdfrwt>
<totfact> 0.20702800E+03</totfact>
</mgrwt>
</event>
<event>
 4    1  0.4758708E-002  0.4822887E+03  0.7818608E-02  0.1018508E+00
         21   -1    0    0  501  502  0.00000000000E+00  0.00000000000E+00  0.51519807656E+03  0.51519807656E+03  0.00000000000E+00 0.  1.
         21   -1    0    0  502  503 -0.00000000000E+00 -0.00000000000E+00 -0.52636854169E+03  0.52636854169E+03  0.00000000000E+00 0.  1.
    9000007    1    1    2  501    0  0.26838197447E+03 -0.23948348212E+02  0.19084819321E+03  0.51867662416E+03  0.40000000000E+03 0.  1.
   -9000007    1    1    2    0  503 -0.26838197447E+03  0.23948348212E+02 -0.20201865833E+03  0.52288999409E+03  0.40000000000E+03 0.  1.
<mgrwt>
<rscale>  2 0.48228872E+03</rscale>
<asrwt>0</asrwt>
<pdfrwt beam="1">  1       21 0.79261243E-01 0.48228872E+03</pdfrwt>
<pdfrwt beam="2">  1       21 0.80979775E-01 0.48228872E+03</pdfrwt>
<totfact> 0.15957883E+03</totfact>
</mgrwt>
</event>
<event>
 4    1  0.4758708E-002  0.4311620E+03  0.7818608E-02  0.1033494E+00
         21   -1    0    0  501  502  0.00000000000E+00  0.00000000000E+00  0.82560352690E+03  0.82560352690E+03  0.00000000000E+00 0. -1.
         21   -1    0    0  502  503 -0.00000000000E+00 -0.00000000000E+00 -0.23991468599E+03  0.23991468599E+03  0.00000000000E+00 0. -1.
    9000007    1    1    2  501    0  0.10791422397E+03 -0.11939500663E+03  0.16076683322E+03  0.46015934415E+03  0.40000000000E+03 0.  1.
   -9000007    1    1    2    0  503 -0.10791422397E+03  0.11939500663E+03  0.42492200770E+03  0.60535886874E+03  0.40000000000E+03 0.  1.
<mgrwt>
<rscale>  2 0.43116197E+03</rscale>
<asrwt>0</asrwt>
<pdfrwt beam="1">  1       21 0.12701593E+00 0.43116197E+03</pdfrwt>
<pdfrwt beam="2">  1       21 0.36909952E-01 0.43116197E+03</pdfrwt>
<totfact> 0.28275047E+03</totfact>
</mgrwt>
</event>
<event>
 4    1  0.4758708E-002  0.4388066E+03  0.7818608E-02  0.1031114E+00
         21   -1    0    0  501  502  0.00000000000E+00  0.00000000000E+00  0.38715568665E+03  0.38715568665E+03  0.00000000000E+00 0.  1.
         21   -1    0    0  502  503 -0.00000000000E+00 -0.00000000000E+00 -0.58763571246E+03  0.58763571246E+03  0.00000000000E+00 0.  1.
    9000007    1    1    2  501    0  0.42904907738E+02  0.17524373758E+03 -0.29128751083E+03  0.52668739556E+03  0.40000000000E+03 0. -1.
   -9000007    1    1    2    0  503 -0.42904907738E+02 -0.17524373758E+03  0.90807485021E+02  0.44810400356E+03  0.40000000000E+03 0. -1.
<mgrwt>
<rscale>  2 0.43880656E+03</rscale>
<asrwt>0</asrwt>
<pdfrwt beam="1">  1       21 0.59562414E-01 0.43880656E+03</pdfrwt>
<pdfrwt beam="2">  1       21 0.90405493E-01 0.43880656E+03</pdfrwt>
<totfact> 0.23801678E+03</totfact>
</mgrwt>
</event>
<event>
 4    1  0.4758708E-002  0.4483426E+03  0.7818608E-02  0.1028217E+00
         21   -1    0    0  503  502  0.00000000000E+00  0.00000000000E+00  0.38284567577E+03  0.38284567577E+03  0.00000000000E+00 0. -1.
         21   -1    0    0  501  503 -0.00000000000E+00 -0.00000000000E+00 -0.52757216271E+03  0.52757216271E+03  0.00000000000E+00 0. -1.
    9000007    1    1    2  501    0 -0.56279218348E+02 -0.19453455426E+03 -0.10387142748E+03  0.46021768400E+03  0.40000000000E+03 0. -1.
   -9000007    1    1    2    0  502  0.56279218348E+02  0.19453455426E+03 -0.40855059458E+02  0.45020015449E+03  0.40000000000E+03 0. -1.
<mgrwt>
<rscale>  2 0.44834255E+03</rscale>
<asrwt>0</asrwt>
<pdfrwt beam="1">  1       21 0.58899335E-01 0.44834255E+03</pdfrwt>
<pdfrwt beam="2">  1       21 0.81164948E-01 0.44834255E+03</pdfrwt>
<totfact> 0.31292254E+03</totfact>
</mgrwt>
</event>
<event>
 4    1  0.4758708E-002  0.4160333E+03  0.7818608E-02  0.1038365E+00
         21   -1    0    0  501  502  0.00000000000E+00  0.00000000000E+00  0.14747153556E+03  0.14747153556E+03  0.00000000000E+00 0.  1.
         21   -1    0    0  502  503 -0.00000000000E+00 -0.00000000000E+00 -0.13084093255E+04  0.13084093255E+04  0.00000000000E+00 0.  1.
    9000007    1    1    2  501    0 -0.24957792840E+02 -0.11162799884E+03 -0.34687438165E+03  0.54166921474E+03  0.40000000000E+03 0.  1.
   -9000007    1    1    2    0  503  0.24957792840E+02  0.11162799884E+03 -0.81406340830E+03  0.91421164633E+03  0.40000000000E+03 0.  1.
<mgrwt>
<rscale>  2 0.41603329E+03</rscale>
<asrwt>0</asrwt>
<pdfrwt beam="1">  1       21 0.22687929E-01 0.41603329E+03</pdfrwt>
<pdfrwt beam="2">  1       21 0.20129374E+00 0.41603329E+03</pdfrwt>
<totfact> 0.20591353E+03</totfact>
</mgrwt>
</event>
<event>
 4    1  0.4758708E-002  0.7618983E+03  0.7818608E-02  0.9616866E-01
         21   -1    0    0  501  502  0.00000000000E+00  0.00000000000E+00  0.11117965931E+04  0.11117965931E+04  0.00000000000E+00 0.  1.
         21   -1    0    0  502  503 -0.00000000000E+00 -0.00000000000E+00 -0.60435642696E+03  0.60435642696E+03  0.00000000000E+00 0.  1.
    9000007    1    1    2  501    0  0.35495873432E+02 -0.64747905758E+03  0.57025138466E+03  0.95166996840E+03  0.40000000000E+03 0.  1.
   -9000007    1    1    2    0  503 -0.35495873432E+02  0.64747905758E+03 -0.62811218566E+02  0.76448305162E+03  0.40000000000E+03 0.  1.
<mgrwt>
<rscale>  2 0.76189834E+03</rscale>
<asrwt>0</asrwt>
<pdfrwt beam="1">  1       21 0.17104563E+00 0.76189834E+03</pdfrwt>
<pdfrwt beam="2">  1       21 0.92977912E-01 0.76189834E+03</pdfrwt>
<totfact> 0.14630923E+02</totfact>
</mgrwt>
</event>
<event>
 4    1  0.4758708E-002  0.4235658E+03  0.7818608E-02  0.1035912E+00
         21   -1    0    0  501  502  0.00000000000E+00  0.00000000000E+00  0.13864754780E+03  0.13864754780E+03  0.00000000000E+00 0.  1.
         21   -1    0    0  502  503 -0.00000000000E+00 -0.00000000000E+00 -0.13094175935E+04  0.13094175935E+04  0.00000000000E+00 0.  1.
    9000007    1    1    2  501    0 -0.50883127439E+01  0.13921960649E+03 -0.50678475942E+03  0.66048374858E+03  0.40000000000E+03 0. -1.
   -9000007    1    1    2    0  503  0.50883127439E+01 -0.13921960649E+03 -0.66398528624E+03  0.78758139268E+03  0.40000000000E+03 0. -1.
<mgrwt>
<rscale>  2 0.42356580E+03</rscale>
<asrwt>0</asrwt>
<pdfrwt beam="1">  1       21 0.21330391E-01 0.42356580E+03</pdfrwt>
<pdfrwt beam="2">  1       21 0.20144887E+00 0.42356580E+03</pdfrwt>
<totfact> 0.23045253E+03</totfact>
</mgrwt>
</event>
<event>
 4    1  0.4758708E-002  0.4061155E+03  0.7818608E-02  0.1041682E+00
         21   -1    0    0  503  502  0.00000000000E+00  0.00000000000E+00  0.17675545692E+03  0.17675545692E+03  0.00000000000E+00 0.  1.
         21   -1    0    0  501  503 -0.00000000000E+00 -0.00000000000E+00 -0.94593119481E+03  0.94593119481E+03  0.00000000000E+00 0.  1.
    9000007    1    1    2  501    0 -0.48609818670E+02  0.50664661459E+02 -0.31919975361E+03  0.51654458190E+03  0.40000000000E+03 0. -1.
   -9000007    1    1    2    0  502  0.48609818670E+02 -0.50664661459E+02 -0.44997598428E+03  0.60614206983E+03  0.40000000000E+03 0. -1.
<mgrwt>
<rscale>  2 0.40611553E+03</rscale>
<asrwt>0</asrwt>
<pdfrwt beam="1">  1       21 0.27193147E-01 0.40611553E+03</pdfrwt>
<pdfrwt beam="2">  1       21 0.14552788E+00 0.40611553E+03</pdfrwt>
<totfact> 0.36768038E+03</totfact>
</mgrwt>
</event>
<event>
 4    1  0.4758708E-002  0.4351553E+03  0.7818608E-02  0.1032244E+00
         21   -1    0    0  501  502  0.00000000000E+00  0.00000000000E+00  0.28982527126E+03  0.28982527126E+03  0.00000000000E+00 0. -1.
         21   -1    0    0  502  503 -0.00000000000E+00 -0.00000000000E+00 -0.70982949214E+03  0.70982949214E+03  0.00000000000E+00 0. -1.
    9000007    1    1    2  501    0  0.15906800463E+03 -0.63698498694E+02 -0.69024082872E+02  0.44059556608E+03  0.40000000000E+03 0. -1.
   -9000007    1    1    2    0  503 -0.15906800463E+03  0.63698498694E+02 -0.35098013801E+03  0.55905919732E+03  0.40000000000E+03 0. -1.
<mgrwt>
<rscale>  2 0.43515529E+03</rscale>
<asrwt>0</asrwt>
<pdfrwt beam="1">  1       21 0.44588504E-01 0.43515529E+03</pdfrwt>
<pdfrwt beam="2">  1       21 0.10920454E+00 0.43515529E+03</pdfrwt>
<totfact> 0.27990623E+03</totfact>
</mgrwt>
</event>
<event>
 4    1  0.4758708E-002  0.4266908E+03  0.7818608E-02  0.1034910E+00
         21   -1    0    0  501  502  0.00000000000E+00  0.00000000000E+00  0.43954133365E+03  0.43954133365E+03  0.00000000000E+00 0.  1.
         21   -1    0    0  502  503 -0.00000000000E+00 -0.00000000000E+00 -0.41768962013E+03  0.41768962013E+03  0.00000000000E+00 0.  1.
    9000007    1    1    2  501    0 -0.58513017938E+02  0.13653316169E+03  0.50012528501E+02  0.42961183703E+03  0.40000000000E+03 0.  1.
   -9000007    1    1    2    0  503  0.58513017938E+02 -0.13653316169E+03 -0.28160814986E+02  0.42761911675E+03  0.40000000000E+03 0.  1.
<mgrwt>
<rscale>  2 0.42669085E+03</rscale>
<asrwt>0</asrwt>
<pdfrwt beam="1">  1       21 0.67621744E-01 0.42669085E+03</pdfrwt>
<pdfrwt beam="2">  1       21 0.64259942E-01 0.42669085E+03</pdfrwt>
<totfact> 0.39437738E+03</totfact>
</mgrwt>
</event>
<event>
 4    1  0.4758708E-002  0.4104911E+03  0.7818608E-02  0.1040206E+00
         21   -1    0    0  503  502  0.00000000000E+00  0.00000000000E+00  0.34774538903E+03  0.34774538903E+03  0.00000000000E+00 0. -1.
         21   -1    0    0  501  503 -0.00000000000E+00 -0.00000000000E+00 -0.48877309885E+03  0.48877309885E+03  0.00000000000E+00 0. -1.
    9000007    1    1    2  501    0  0.29465067699E+02 -0.87376983669E+02 -0.10935378222E+03  0.42480722354E+03  0.40000000000E+03 0. -1.
   -9000007    1    1    2    0  502 -0.29465067699E+02  0.87376983669E+02 -0.31673927604E+02  0.41171126433E+03  0.40000000000E+03 0. -1.
<mgrwt>
<rscale>  2 0.41049108E+03</rscale>
<asrwt>0</asrwt>
<pdfrwt beam="1">  1       21 0.53499291E-01 0.41049108E+03</pdfrwt>
<pdfrwt beam="2">  1       21 0.75195861E-01 0.41049108E+03</pdfrwt>
<totfact> 0.46547425E+03</totfact>
</mgrwt>
</event>
<event>
 4    1  0.4758708E-002  0.4290529E+03  0.7818608E-02  0.1034160E+00
         21   -1    0    0  501  502  0.00000000000E+00  0.00000000000E+00  0.55786470407E+03  0.55786470407E+03  0.00000000000E+00 0.  1.
         21   -1    0    0  502  503 -0.00000000000E+00 -0.00000000000E+00 -0.59027348348E+03  0.59027348348E+03  0.00000000000E+00 0.  1.
    9000007    1    1    2  501    0 -0.13067385049E+03 -0.83730309311E+02  0.36500698428E+03  0.56330854642E+03  0.40000000000E+03 0.  1.
   -9000007    1    1    2    0  503  0.13067385049E+03  0.83730309311E+02 -0.39741576369E+03  0.58482964112E+03  0.40000000000E+03 0.  1.
<mgrwt>
<rscale>  2 0.42905293E+03</rscale>
<asrwt>0</asrwt>
<pdfrwt beam="1">  1       21 0.85825339E-01 0.42905293E+03</pdfrwt>
<pdfrwt beam="2">  1       21 0.90811305E-01 0.42905293E+03</pdfrwt>
<totfact> 0.10352453E+03</totfact>
</mgrwt>
</event>
<event>
 4    1  0.4758708E-002  0.4133029E+03  0.7818608E-02  0.1039268E+00
         21   -1    0    0  501  502  0.00000000000E+00  0.00000000000E+00  0.11077204939E+04  0.11077204939E+04  0.00000000000E+00 0. -1.
         21   -1    0    0  502  503 -0.00000000000E+00 -0.00000000000E+00 -0.36158761191E+03  0.36158761191E+03  0.00000000000E+00 0. -1.
    9000007    1    1    2  501    0  0.53858646787E+02  0.88986309073E+02  0.92943064288E+03  0.10171826960E+04  0.40000000000E+03 0. -1.
   -9000007    1    1    2    0  503 -0.53858646787E+02 -0.88986309073E+02 -0.18329776093E+03  0.45212540981E+03  0.40000000000E+03 0. -1.
<mgrwt>
<rscale>  2 0.41330294E+03</rscale>
<asrwt>0</asrwt>
<pdfrwt beam="1">  1       21 0.17041854E+00 0.41330294E+03</pdfrwt>
<pdfrwt beam="2">  1       21 0.55628864E-01 0.41330294E+03</pdfrwt>
<totfact> 0.54577880E+02</totfact>
</mgrwt>
</event>
<event>
 4    1  0.4758708E-002  0.4678483E+03  0.7818608E-02  0.1022529E+00
         21   -1    0    0  501  502  0.00000000000E+00  0.00000000000E+00  0.12339221163E+04  0.12339221163E+04  0.00000000000E+00 0.  1.
         21   -1    0    0  502  503 -0.00000000000E+00 -0.00000000000E+00 -0.52517215244E+03  0.52517215244E+03  0.00000000000E+00 0.  1.
    9000007    1    1    2  501    0 -0.90400426660E+02 -0.22518842896E+03  0.10701287259E+04  0.11679287460E+04  0.40000000000E+03 0.  1.
   -9000007    1    1    2    0  503  0.90400426660E+02  0.22518842896E+03 -0.36137876203E+03  0.59116552278E+03  0.40000000000E+03 0.  1.
<mgrwt>
<rscale>  2 0.46784834E+03</rscale>
<asrwt>0</asrwt>
<pdfrwt beam="1">  1       21 0.18983417E+00 0.46784834E+03</pdfrwt>
<pdfrwt beam="2">  1       21 0.80795716E-01 0.46784834E+03</pdfrwt>
<totfact> 0.16819865E+02</totfact>
</mgrwt>
</event>
<event>
 4    1  0.4758708E-002  0.5609627E+03  0.7818608E-02  0.9989879E-01
         21   -1    0    0  501  502  0.00000000000E+00  0.00000000000E+00  0.28317272864E+03  0.28317272864E+03  0.00000000000E+00 0. -1.
         21   -1    0    0  502  503 -0.00000000000E+00 -0.00000000000E+00 -0.12364953791E+04  0.12364953791E+04  0.00000000000E+00 0.  1.
    9000007    1    1    2  501    0  0.37069472560E+03 -0.13139456831E+03 -0.23484677150E+03  0.60813823942E+03  0.40000000000E+03 0. -1.
   -9000007    1    1    2    0  503 -0.37069472560E+03  0.13139456831E+03 -0.71847587893E+03  0.91152986828E+03  0.40000000000E+03 0.  1.
<mgrwt>
<rscale>  2 0.56096267E+03</rscale>
<asrwt>0</asrwt>
<pdfrwt beam="1">  1       21 0.43565035E-01 0.56096267E+03</pdfrwt>
<pdfrwt beam="2">  1       21 0.19023006E+00 0.56096267E+03</pdfrwt>
<totfact> 0.62345503E+02</totfact>
</mgrwt>
</event>
<event>
 4    1  0.4758708E-002  0.5750193E+03  0.7818608E-02  0.9958633E-01
         21   -1    0    0  503  502  0.00000000000E+00  0.00000000000E+00  0.95516384423E+03  0.95516384423E+03  0.00000000000E+00 0.  1.
         21   -1    0    0  501  503 -0.00000000000E+00 -0.00000000000E+00 -0.36919057792E+03  0.36919057792E+03  0.00000000000E+00 0.  1.
    9000007    1    1    2  501    0  0.39967443513E+03 -0.10443920220E+03  0.45834473293E+03  0.73534148207E+03  0.40000000000E+03 0.  1.
   -9000007    1    1    2    0  502 -0.39967443513E+03  0.10443920220E+03  0.12762853338E+03  0.58901294008E+03  0.40000000000E+03 0.  1.
<mgrwt>
<rscale>  2 0.57501930E+03</rscale>
<asrwt>0</asrwt>
<pdfrwt beam="1">  1       21 0.14694828E+00 0.57501930E+03</pdfrwt>
<pdfrwt beam="2">  1       21 0.56798551E-01 0.57501930E+03</pdfrwt>
<totfact> 0.73638807E+02</totfact>
</mgrwt>
</event>
<event>
 4    1  0.4758708E-002  0.4182233E+03  0.7818608E-02  0.1037646E+00
         21   -1    0    0  501  502  0.00000000000E+00  0.00000000000E+00  0.75518888493E+02  0.75518888493E+02  0.00000000000E+00 0.  1.
         21   -1    0    0  502  503 -0.00000000000E+00 -0.00000000000E+00 -0.23883389752E+04  0.23883389752E+04  0.00000000000E+00 0.  1.
    9000007    1    1    2  501    0 -0.32496610228E+02 -0.11770598830E+03 -0.13706332246E+04  0.14330199460E+04  0.40000000000E+03 0.  1.
   -9000007    1    1    2    0  503  0.32496610228E+02  0.11770598830E+03 -0.94218686215E+03  0.10308379177E+04  0.40000000000E+03 0.  1.
<mgrwt>
<rscale>  2 0.41822330E+03</rscale>
<asrwt>0</asrwt>
<pdfrwt beam="1">  1       21 0.11618290E-01 0.41822330E+03</pdfrwt>
<pdfrwt beam="2">  1       21 0.36743677E+00 0.41822330E+03</pdfrwt>
<totfact> 0.68600111E+02</totfact>
</mgrwt>
</event>
<event>
 4    1  0.4758708E-002  0.5907915E+03  0.7818608E-02  0.9924697E-01
         21   -1    0    0  503  502  0.00000000000E+00  0.00000000000E+00  0.68781407999E+03  0.68781407999E+03  0.00000000000E+00 0.  1.
         21   -1    0    0  501  503 -0.00000000000E+00 -0.00000000000E+00 -0.80302727040E+03  0.80302727040E+03  0.00000000000E+00 0. -1.
    9000007    1    1    2  501    0  0.26605120790E+03  0.34387685614E+03  0.39463270280E+03  0.71047132774E+03  0.40000000000E+03 0.  1.
   -9000007    1    1    2    0  502 -0.26605120790E+03 -0.34387685614E+03 -0.50984589321E+03  0.78037002264E+03  0.40000000000E+03 0.  1.
<mgrwt>
<rscale>  2 0.59079145E+03</rscale>
<asrwt>0</asrwt>
<pdfrwt beam="1">  1       21 0.10581755E+00 0.59079145E+03</pdfrwt>
<pdfrwt beam="2">  1       21 0.12354266E+00 0.59079145E+03</pdfrwt>
<totfact> 0.27410177E+02</totfact>
</mgrwt>
</event>
<event>
 4    1  0.4758708E-002  0.4061624E+03  0.7818608E-02  0.1041666E+00
         21   -1    0    0  501  502  0.00000000000E+00  0.00000000000E+00  0.12422008426E+04  0.12422008426E+04  0.00000000000E+00 0. -1.
         21   -1    0    0  502  503 -0.00000000000E+00 -0.00000000000E+00 -0.11283513252E+04  0.11283513252E+04  0.00000000000E+00 0. -1.
    9000007    1    1    2  501    0  0.64966798467E+02  0.27335514199E+02  0.11702666168E+04  0.12387460876E+04  0.40000000000E+03 0. -1.
   -9000007    1    1    2    0  503 -0.64966798467E+02 -0.27335514199E+02 -0.10564170994E+04  0.11318060802E+04  0.40000000000E+03 0. -1.
<mgrwt>
<rscale>  2 0.40616242E+03</rscale>
<asrwt>0</asrwt>
<pdfrwt beam="1">  1       21 0.19110782E+00 0.40616242E+03</pdfrwt>
<pdfrwt beam="2">  1       21 0.17359251E+00 0.40616242E+03</pdfrwt>
<totfact> 0.24393590E+01</totfact>
</mgrwt>
</event>
<event>
 4    1  0.4758708E-002  0.4398080E+03  0.7818608E-02  0.1030806E+00
         21   -1    0    0  501  502  0.00000000000E+00  0.00000000000E+00  0.12894413627E+03  0.12894413627E+03  0.00000000000E+00 0.  1.
         21   -1    0    0  502  503 -0.00000000000E+00 -0.00000000000E+00 -0.15404256618E+04  0.15404256618E+04  0.00000000000E+00 0.  1.
    9000007    1    1    2  501    0  0.80179381256E+02 -0.16432393838E+03 -0.57071713583E+03  0.72052004763E+03  0.40000000000E+03 0.  1.
   -9000007    1    1    2    0  503 -0.80179381256E+02  0.16432393838E+03 -0.84076438966E+03  0.94884975039E+03  0.40000000000E+03 0.  1.
<mgrwt>
<rscale>  2 0.43980801E+03</rscale>
<asrwt>0</asrwt>
<pdfrwt beam="1">  1       21 0.19837560E-01 0.43980801E+03</pdfrwt>
<pdfrwt beam="2">  1       21 0.23698855E+00 0.43980801E+03</pdfrwt>
<totfact> 0.15553420E+03</totfact>
</mgrwt>
</event>
<event>
 4    1  0.4758708E-002  0.4399520E+03  0.7818608E-02  0.1030762E+00
         21   -1    0    0  501  502  0.00000000000E+00  0.00000000000E+00  0.37035810079E+03  0.37035810079E+03  0.00000000000E+00 0.  1.
         21   -1    0    0  502  503 -0.00000000000E+00 -0.00000000000E+00 -0.52266976983E+03  0.52266976983E+03  0.00000000000E+00 0.  1.
    9000007    1    1    2  501    0 -0.17857949831E+03 -0.40830223195E+02 -0.80369555876E+02  0.44723261269E+03  0.40000000000E+03 0. -1.
   -9000007    1    1    2    0  503  0.17857949831E+03  0.40830223195E+02 -0.71942113163E+02  0.44579525793E+03  0.40000000000E+03 0. -1.
<mgrwt>
<rscale>  2 0.43995198E+03</rscale>
<asrwt>0</asrwt>
<pdfrwt beam="1">  1       21 0.56978170E-01 0.43995198E+03</pdfrwt>
<pdfrwt beam="2">  1       21 0.80410733E-01 0.43995198E+03</pdfrwt>
<totfact> 0.34472945E+03</totfact>
</mgrwt>
</event>
<event>
 4    1  0.4758708E-002  0.4060899E+03  0.7818608E-02  0.1041691E+00
         21   -1    0    0  501  502  0.00000000000E+00  0.00000000000E+00  0.20730191965E+04  0.20730191965E+04  0.00000000000E+00 0.  1.
         21   -1    0    0  502  503 -0.00000000000E+00 -0.00000000000E+00 -0.79839290262E+02  0.79839290262E+02  0.00000000000E+00 0.  1.
    9000007    1    1    2  501    0 -0.67152690244E+02  0.19987107421E+02  0.10613696034E+04  0.11364041549E+04  0.40000000000E+03 0. -1.
   -9000007    1    1    2    0  503  0.67152690244E+02 -0.19987107421E+02  0.93181030285E+03  0.10164543319E+04  0.40000000000E+03 0. -1.
<mgrwt>
<rscale>  2 0.40608985E+03</rscale>
<asrwt>0</asrwt>
<pdfrwt beam="1">  1       21 0.31892599E+00 0.40608985E+03</pdfrwt>
<pdfrwt beam="2">  1       21 0.12282969E-01 0.40608985E+03</pdfrwt>
<totfact> 0.12338140E+03</totfact>
</mgrwt>
</event>
<event>
 4    1  0.4758708E-002  0.4397827E+03  0.7818608E-02  0.1030813E+00
         21   -1    0    0  501  502  0.00000000000E+00  0.00000000000E+00  0.20953553040E+03  0.20953553040E+03  0.00000000000E+00 0. -1.
         21   -1    0    0  502  503 -0.00000000000E+00 -0.00000000000E+00 -0.92309367253E+03  0.92309367253E+03  0.00000000000E+00 0.  1.
    9000007    1    1    2  501    0 -0.59445007985E+02 -0.17284421039E+03 -0.35230132501E+03  0.56349361456E+03  0.40000000000E+03 0. -1.
   -9000007    1    1    2    0  503  0.59445007985E+02  0.17284421039E+03 -0.36125681711E+03  0.56913558837E+03  0.40000000000E+03 0.  1.
<mgrwt>
<rscale>  2 0.43978271E+03</rscale>
<asrwt>0</asrwt>
<pdfrwt beam="1">  1       21 0.32236236E-01 0.43978271E+03</pdfrwt>
<pdfrwt beam="2">  1       21 0.14201441E+00 0.43978271E+03</pdfrwt>
<totfact> 0.27650772E+03</totfact>
</mgrwt>
</event>
<event>
 4    1  0.4758708E-002  0.4345429E+03  0.7818608E-02  0.1032434E+00
         21   -1    0    0  503  502  0.00000000000E+00  0.00000000000E+00  0.56191363746E+03  0.56191363746E+03  0.00000000000E+00 0. -1.
         21   -1    0    0  501  503 -0.00000000000E+00 -0.00000000000E+00 -0.34375819398E+03  0.34375819398E+03  0.00000000000E+00 0.  1.
    9000007    1    1    2  501    0 -0.71662892445E+01 -0.16963554152E+03  0.41240771893E+02  0.43649556002E+03  0.40000000000E+03 0.  1.
   -9000007    1    1    2    0  502  0.71662892445E+01  0.16963554152E+03  0.17691467158E+03  0.46917627143E+03  0.40000000000E+03 0. -1.
<mgrwt>
<rscale>  2 0.43454295E+03</rscale>
<asrwt>0</asrwt>
<pdfrwt beam="1">  1       21 0.86448252E-01 0.43454295E+03</pdfrwt>
<pdfrwt beam="2">  1       21 0.52885876E-01 0.43454295E+03</pdfrwt>
<totfact> 0.34269744E+03</totfact>
</mgrwt>
</event>
<event>
 4    1  0.4758708E-002  0.4451657E+03  0.7818608E-02  0.1029174E+00
         21   -1    0    0  503  502  0.00000000000E+00  0.00000000000E+00  0.29001818585E+03  0.29001818585E+03  0.00000000000E+00 0. -1.
         21   -1    0    0  501  503 -0.00000000000E+00 -0.00000000000E+00 -0.17955656654E+04  0.17955656654E+04  0.00000000000E+00 0. -1.
    9000007    1    1    2  501    0  0.15070178916E+03 -0.12434421617E+03 -0.15735016473E+04  0.16352614309E+04  0.40000000000E+03 0. -1.
   -9000007    1    1    2    0  502 -0.15070178916E+03  0.12434421617E+03  0.67954167742E+02  0.45032242035E+03  0.40000000000E+03 0. -1.
<mgrwt>
<rscale>  2 0.44516571E+03</rscale>
<asrwt>0</asrwt>
<pdfrwt beam="1">  1       21 0.44618182E-01 0.44516571E+03</pdfrwt>
<pdfrwt beam="2">  1       21 0.27624087E+00 0.44516571E+03</pdfrwt>
<totfact> 0.17821210E+02</totfact>
</mgrwt>
</event>
<event>
 4    1  0.4758708E-002  0.5347256E+03  0.7818608E-02  0.1005092E+00
         21   -1    0    0  503  502  0.00000000000E+00  0.00000000000E+00  0.66294888539E+03  0.66294888539E+03  0.00000000000E+00 0.  1.
         21   -1    0    0  501  503 -0.00000000000E+00 -0.00000000000E+00 -0.64236647508E+03  0.64236647508E+03  0.00000000000E+00 0.  1.
    9000007    1    1    2  501    0  0.34265772459E+03  0.92288308828E+02 -0.36382039487E+03  0.64675863187E+03  0.40000000000E+03 0.  1.
   -9000007    1    1    2    0  502 -0.34265772459E+03 -0.92288308828E+02  0.38440280518E+03  0.65855672861E+03  0.40000000000E+03 0.  1.
<mgrwt>
<rscale>  2 0.53472558E+03</rscale>
<asrwt>0</asrwt>
<pdfrwt beam="1">  1       21 0.10199214E+00 0.53472558E+03</pdfrwt>
<pdfrwt beam="2">  1       21 0.98825611E-01 0.53472558E+03</pdfrwt>
<totfact> 0.53591489E+02</totfact>
</mgrwt>
</event>
<event>
 4    1  0.4758708E-002  0.4322517E+03  0.7818608E-02  0.1033151E+00
         21   -1    0    0  501  502  0.00000000000E+00  0.00000000000E+00  0.45608161542E+03  0.45608161542E+03  0.00000000000E+00 0.  1.
         21   -1    0    0  502  503 -0.00000000000E+00 -0.00000000000E+00 -0.42555023509E+03  0.42555023509E+03  0.00000000000E+00 0.  1.
    9000007    1    1    2  501    0 -0.10671147272E+03 -0.12431488549E+03  0.10042910720E+03  0.44376517973E+03  0.40000000000E+03 0.  1.
   -9000007    1    1    2    0  503  0.10671147272E+03  0.12431488549E+03 -0.69897726867E+02  0.43786667079E+03  0.40000000000E+03 0.  1.
<mgrwt>
<rscale>  2 0.43225170E+03</rscale>
<asrwt>0</asrwt>
<pdfrwt beam="1">  1       21 0.70166402E-01 0.43225170E+03</pdfrwt>
<pdfrwt beam="2">  1       21 0.65469267E-01 0.43225170E+03</pdfrwt>
<totfact> 0.34761248E+03</totfact>
</mgrwt>
</event>
<event>
 4    1  0.4758708E-002  0.5195995E+03  0.7818608E-02  0.1008786E+00
         21   -1    0    0  503  502  0.00000000000E+00  0.00000000000E+00  0.36306181758E+03  0.36306181758E+03  0.00000000000E+00 0. -1.
         21   -1    0    0  501  503 -0.00000000000E+00 -0.00000000000E+00 -0.81133216264E+03  0.81133216264E+03  0.00000000000E+00 0.  1.
    9000007    1    1    2  501    0  0.28834897763E+03  0.16382461493E+03 -0.39375864129E+03  0.65194286939E+03  0.40000000000E+03 0. -1.
   -9000007    1    1    2    0  502 -0.28834897763E+03 -0.16382461493E+03 -0.54511703775E+02  0.52245111083E+03  0.40000000000E+03 0. -1.
<mgrwt>
<rscale>  2 0.51959950E+03</rscale>
<asrwt>0</asrwt>
<pdfrwt beam="1">  1       21 0.55855665E-01 0.51959950E+03</pdfrwt>
<pdfrwt beam="2">  1       21 0.12482033E+00 0.51959950E+03</pdfrwt>
<totfact> 0.11989725E+03</totfact>
</mgrwt>
</event>
<event>
 4    1  0.4758708E-002  0.4292540E+03  0.7818608E-02  0.1034096E+00
         21   -1    0    0  503  502  0.00000000000E+00  0.00000000000E+00  0.11674621620E+04  0.11674621620E+04  0.00000000000E+00 0. -1.
         21   -1    0    0  501  503 -0.00000000000E+00 -0.00000000000E+00 -0.67413742263E+03  0.67413742263E+03  0.00000000000E+00 0. -1.
    9000007    1    1    2  501    0 -0.13576732495E+03  0.76329782690E+02 -0.55917190899E+03  0.70493419980E+03  0.40000000000E+03 0. -1.
   -9000007    1    1    2    0  502  0.13576732495E+03 -0.76329782690E+02  0.10524966484E+04  0.11366653849E+04  0.40000000000E+03 0. -1.
<mgrwt>
<rscale>  2 0.42925401E+03</rscale>
<asrwt>0</asrwt>
<pdfrwt beam="1">  1       21 0.17960956E+00 0.42925401E+03</pdfrwt>
<pdfrwt beam="2">  1       21 0.10371345E+00 0.42925401E+03</pdfrwt>
<totfact> 0.11169271E+02</totfact>
</mgrwt>
</event>
<event>
 4    1  0.4758708E-002  0.4838263E+03  0.7818608E-02  0.1018089E+00
         21   -1    0    0  501  502  0.00000000000E+00  0.00000000000E+00  0.21654120465E+03  0.21654120465E+03  0.00000000000E+00 0. -1.
         21   -1    0    0  502  503 -0.00000000000E+00 -0.00000000000E+00 -0.16150961966E+04  0.16150961966E+04  0.00000000000E+00 0. -1.
    9000007    1    1    2  501    0  0.99424650974E+02  0.25338245939E+03 -0.17264565149E+03  0.51370658252E+03  0.40000000000E+03 0. -1.
   -9000007    1    1    2    0  503 -0.99424650974E+02 -0.25338245939E+03 -0.12259093404E+04  0.13179308187E+04  0.40000000000E+03 0. -1.
<mgrwt>
<rscale>  2 0.48382634E+03</rscale>
<asrwt>0</asrwt>
<pdfrwt beam="1">  1       21 0.33314032E-01 0.48382634E+03</pdfrwt>
<pdfrwt beam="2">  1       21 0.24847633E+00 0.48382634E+03</pdfrwt>
<totfact> 0.46904620E+02</totfact>
</mgrwt>
</event>
<event>
 4    1  0.4758708E-002  0.4011267E+03  0.7818608E-02  0.1043390E+00
         21   -1    0    0  503  502  0.00000000000E+00  0.00000000000E+00  0.45938439380E+03  0.45938439380E+03  0.00000000000E+00 0. -1.
         21   -1    0    0  501  503 -0.00000000000E+00 -0.00000000000E+00 -0.35072194391E+03  0.35072194391E+03  0.00000000000E+00 0. -1.
    9000007    1    1    2  501    0  0.37210696471E+01  0.29811845083E+02  0.39583055502E+02  0.40307494433E+03  0.40000000000E+03 0.  1.
   -9000007    1    1    2    0  502 -0.37210696471E+01 -0.29811845083E+02  0.69079394383E+02  0.40703139338E+03  0.40000000000E+03 0.  1.
<mgrwt>
<rscale>  2 0.40112665E+03</rscale>
<asrwt>0</asrwt>
<pdfrwt beam="1">  1       21 0.70674522E-01 0.40112665E+03</pdfrwt>
<pdfrwt beam="2">  1       21 0.53957222E-01 0.40112665E+03</pdfrwt>
<totfact> 0.52773708E+03</totfact>
</mgrwt>
</event>
<event>
 4    1  0.4758708E-002  0.4042736E+03  0.7818608E-02  0.1042310E+00
         21   -1    0    0  503  502  0.00000000000E+00  0.00000000000E+00  0.91693047884E+03  0.91693047884E+03  0.00000000000E+00 0. -1.
         21   -1    0    0  501  503 -0.00000000000E+00 -0.00000000000E+00 -0.21826685316E+03  0.21826685316E+03  0.00000000000E+00 0. -1.
    9000007    1    1    2  501    0 -0.56520813235E+02  0.15573176668E+02  0.10627776577E+03  0.41800967651E+03  0.40000000000E+03 0. -1.
   -9000007    1    1    2    0  502  0.56520813235E+02 -0.15573176668E+02  0.59238585991E+03  0.71718765549E+03  0.40000000000E+03 0. -1.
<mgrwt>
<rscale>  2 0.40427358E+03</rscale>
<asrwt>0</asrwt>
<pdfrwt beam="1">  1       21 0.14106623E+00 0.40427358E+03</pdfrwt>
<pdfrwt beam="2">  1       21 0.33579516E-01 0.40427358E+03</pdfrwt>
<totfact> 0.26309825E+03</totfact>
</mgrwt>
</event>
<event>
 4    1  0.4758708E-002  0.4390499E+03  0.7818608E-02  0.1031039E+00
         21   -1    0    0  503  502  0.00000000000E+00  0.00000000000E+00  0.62696144625E+03  0.62696144625E+03  0.00000000000E+00 0.  1.
         21   -1    0    0  501  503 -0.00000000000E+00 -0.00000000000E+00 -0.30814260594E+03  0.30814260594E+03  0.00000000000E+00 0.  1.
    9000007    1    1    2  501    0  0.15535512623E+03 -0.92895867650E+02  0.13738530673E+03  0.46004301970E+03  0.40000000000E+03 0. -1.
   -9000007    1    1    2    0  502 -0.15535512623E+03  0.92895867650E+02  0.18143353359E+03  0.47506103248E+03  0.40000000000E+03 0. -1.
<mgrwt>
<rscale>  2 0.43904995E+03</rscale>
<asrwt>0</asrwt>
<pdfrwt beam="1">  1       21 0.96455607E-01 0.43904995E+03</pdfrwt>
<pdfrwt beam="2">  1       21 0.47406555E-01 0.43904995E+03</pdfrwt>
<totfact> 0.33285852E+03</totfact>
</mgrwt>
</event>
<event>
 4    1  0.4758708E-002  0.4057376E+03  0.7818608E-02  0.1041811E+00
         21   -1    0    0  503  502  0.00000000000E+00  0.00000000000E+00  0.29341399199E+03  0.29341399199E+03  0.00000000000E+00 0. -1.
         21   -1    0    0  501  503 -0.00000000000E+00 -0.00000000000E+00 -0.85384203594E+03  0.85384203594E+03  0.00000000000E+00 0. -1.
    9000007    1    1    2  501    0  0.11065648114E+02 -0.67085881098E+02 -0.61611674354E+03  0.73771458281E+03  0.40000000000E+03 0. -1.
   -9000007    1    1    2    0  502 -0.11065648114E+02  0.67085881098E+02  0.55688699600E+02  0.40954144512E+03  0.40000000000E+03 0. -1.
<mgrwt>
<rscale>  2 0.40573756E+03</rscale>
<asrwt>0</asrwt>
<pdfrwt beam="1">  1       21 0.45140615E-01 0.40573756E+03</pdfrwt>
<pdfrwt beam="2">  1       21 0.13136031E+00 0.40573756E+03</pdfrwt>
<totfact> 0.17291569E+03</totfact>
</mgrwt>
</event>
<event>
 4    1  0.4758708E-002  0.4917568E+03  0.7818608E-02  0.1015953E+00
         21   -1    0    0  501  502  0.00000000000E+00  0.00000000000E+00  0.17857493765E+04  0.17857493765E+04  0.00000000000E+00 0.  1.
         21   -1    0    0  502  503 -0.00000000000E+00 -0.00000000000E+00 -0.42419899447E+03  0.42419899447E+03  0.00000000000E+00 0.  1.
    9000007    1    1    2  501    0  0.22362857968E+03 -0.17836750419E+03  0.15924726297E+04  0.16666714686E+04  0.40000000000E+03 0.  1.
   -9000007    1    1    2    0  503 -0.22362857968E+03  0.17836750419E+03 -0.23092224759E+03  0.54327690235E+03  0.40000000000E+03 0.  1.
<mgrwt>
<rscale>  2 0.49175676E+03</rscale>
<asrwt>0</asrwt>
<pdfrwt beam="1">  1       21 0.27473067E+00 0.49175676E+03</pdfrwt>
<pdfrwt beam="2">  1       21 0.65261385E-01 0.49175676E+03</pdfrwt>
<totfact> 0.77950212E+01</totfact>
</mgrwt>
</event>
<event>
 4    1  0.4758708E-002  0.5118259E+03  0.7818608E-02  0.1010737E+00
         21   -1    0    0  501  502  0.00000000000E+00  0.00000000000E+00  0.18478943469E+03  0.18478943469E+03  0.00000000000E+00 0. -1.
         21   -1    0    0  502  503 -0.00000000000E+00 -0.00000000000E+00 -0.16850278559E+04  0.16850278559E+04  0.00000000000E+00 0.  1.
    9000007    1    1    2  501    0  0.90172389487E+02 -0.30632452035E+03 -0.37769953557E+03  0.63609960758E+03  0.40000000000E+03 0.  1.
   -9000007    1    1    2    0  503 -0.90172389487E+02  0.30632452035E+03 -0.11225388857E+04  0.12337176830E+04  0.40000000000E+03 0.  1.
<mgrwt>
<rscale>  2 0.51182592E+03</rscale>
<asrwt>0</asrwt>
<pdfrwt beam="1">  1       21 0.28429145E-01 0.51182592E+03</pdfrwt>
<pdfrwt beam="2">  1       21 0.25923504E+00 0.51182592E+03</pdfrwt>
<totfact> 0.54549937E+02</totfact>
</mgrwt>
</event>
<event>
 4    1  0.4758708E-002  0.4165352E+03  0.7818608E-02  0.1038200E+00
         21   -1    0    0  501  502  0.00000000000E+00  0.00000000000E+00  0.15126775505E+03  0.15126775505E+03  0.00000000000E+00 0.  1.
         21   -1    0    0  502  503 -0.00000000000E+00 -0.00000000000E+00 -0.11471179051E+04  0.11471179051E+04  0.00000000000E+00 0.  1.
    9000007    1    1    2  501    0  0.11511949361E+03  0.15782874306E+02 -0.50495603409E+03  0.65458551259E+03  0.40000000000E+03 0.  1.
   -9000007    1    1    2    0  503 -0.11511949361E+03 -0.15782874306E+02 -0.49089411598E+03  0.64380014759E+03  0.40000000000E+03 0.  1.
<mgrwt>
<rscale>  2 0.41653523E+03</rscale>
<asrwt>0</asrwt>
<pdfrwt beam="1">  1       21 0.23271961E-01 0.41653523E+03</pdfrwt>
<pdfrwt beam="2">  1       21 0.17647969E+00 0.41653523E+03</pdfrwt>
<totfact> 0.28997463E+03</totfact>
</mgrwt>
</event>
<event>
 4    1  0.4758708E-002  0.4969079E+03  0.7818608E-02  0.1014589E+00
         21   -1    0    0  503  502  0.00000000000E+00  0.00000000000E+00  0.74512525333E+03  0.74512525333E+03  0.00000000000E+00 0. -1.
         21   -1    0    0  501  503 -0.00000000000E+00 -0.00000000000E+00 -0.44721042309E+03  0.44721042309E+03  0.00000000000E+00 0.  1.
    9000007    1    1    2  501    0 -0.20421759676E+03 -0.21263266266E+03 -0.15445214856E+03  0.52035847475E+03  0.40000000000E+03 0.  1.
   -9000007    1    1    2    0  502  0.20421759676E+03  0.21263266266E+03  0.45236697879E+03  0.67197720166E+03  0.40000000000E+03 0. -1.
<mgrwt>
<rscale>  2 0.49690792E+03</rscale>
<asrwt>0</asrwt>
<pdfrwt beam="1">  1       21 0.11463465E+00 0.49690792E+03</pdfrwt>
<pdfrwt beam="2">  1       21 0.68801603E-01 0.49690792E+03</pdfrwt>
<totfact> 0.94704336E+02</totfact>
</mgrwt>
</event>
<event>
 4    1  0.4758708E-002  0.4779420E+03  0.7818608E-02  0.1019702E+00
         21   -1    0    0  503  502  0.00000000000E+00  0.00000000000E+00  0.14990940755E+04  0.14990940755E+04  0.00000000000E+00 0.  1.
         21   -1    0    0  501  503 -0.00000000000E+00 -0.00000000000E+00 -0.18878671388E+03  0.18878671388E+03  0.00000000000E+00 0. -1.
    9000007    1    1    2  501    0 -0.19469096783E+03  0.17471109900E+03  0.10257749893E+04  0.11316549252E+04  0.40000000000E+03 0.  1.
   -9000007    1    1    2    0  502  0.19469096783E+03 -0.17471109900E+03  0.28453237231E+03  0.55622586416E+03  0.40000000000E+03 0. -1.
<mgrwt>
<rscale>  2 0.47794199E+03</rscale>
<asrwt>0</asrwt>
<pdfrwt beam="1">  1       21 0.23062985E+00 0.47794199E+03</pdfrwt>
<pdfrwt beam="2">  1       21 0.29044111E-01 0.47794199E+03</pdfrwt>
<totfact> 0.79932643E+02</totfact>
</mgrwt>
</event>
<event>
 4    1  0.4758708E-002  0.4634062E+03  0.7818608E-02  0.1023798E+00
         21   -1    0    0  503  502  0.00000000000E+00  0.00000000000E+00  0.76950959647E+03  0.76950959647E+03  0.00000000000E+00 0.  1.
         21   -1    0    0  501  503 -0.00000000000E+00 -0.00000000000E+00 -0.27912793141E+03  0.27912793141E+03  0.00000000000E+00 0. -1.
    9000007    1    1    2  501    0 -0.17914441788E+03 -0.15050783849E+03  0.23749367948E+03  0.52071929069E+03  0.40000000000E+03 0. -1.
   -9000007    1    1    2    0  502  0.17914441788E+03  0.15050783849E+03  0.25288798558E+03  0.52791823719E+03  0.40000000000E+03 0.  1.
<mgrwt>
<rscale>  2 0.46340623E+03</rscale>
<asrwt>0</asrwt>
<pdfrwt beam="1">  1       21 0.11838609E+00 0.46340623E+03</pdfrwt>
<pdfrwt beam="2">  1       21 0.42942759E-01 0.46340623E+03</pdfrwt>
<totfact> 0.24493477E+03</totfact>
</mgrwt>
</event>
<event>
 4    1  0.4758708E-002  0.4702188E+03  0.7818608E-02  0.1021858E+00
         21   -1    0    0  501  502  0.00000000000E+00  0.00000000000E+00  0.10405209128E+03  0.10405209128E+03  0.00000000000E+00 0. -1.
         21   -1    0    0  502  503 -0.00000000000E+00 -0.00000000000E+00 -0.21316859934E+04  0.21316859934E+04  0.00000000000E+00 0.  1.
    9000007    1    1    2  501    0 -0.23540897797E+03 -0.75420836535E+02 -0.95098670715E+03  0.10608870848E+04  0.40000000000E+03 0. -1.
   -9000007    1    1    2    0  503  0.23540897797E+03  0.75420836535E+02 -0.10766471950E+04  0.11748509999E+04  0.40000000000E+03 0.  1.
<mgrwt>
<rscale>  2 0.47021877E+03</rscale>
<asrwt>0</asrwt>
<pdfrwt beam="1">  1       21 0.16008012E-01 0.47021877E+03</pdfrwt>
<pdfrwt beam="2">  1       21 0.32795173E+00 0.47021877E+03</pdfrwt>
<totfact> 0.64353572E+02</totfact>
</mgrwt>
</event>
<event>
 4    1  0.4758708E-002  0.4573168E+03  0.7818608E-02  0.1025562E+00
         21   -1    0    0  503  502  0.00000000000E+00  0.00000000000E+00  0.90150497022E+03  0.90150497022E+03  0.00000000000E+00 0. -1.
         21   -1    0    0  501  503 -0.00000000000E+00 -0.00000000000E+00 -0.25640426523E+03  0.25640426523E+03  0.00000000000E+00 0. -1.
    9000007    1    1    2  501    0 -0.17763610247E+03 -0.13260483708E+03  0.14389393169E+03  0.47942057872E+03  0.40000000000E+03 0. -1.
   -9000007    1    1    2    0  502  0.17763610247E+03  0.13260483708E+03  0.50120677330E+03  0.67848865673E+03  0.40000000000E+03 0. -1.
<mgrwt>
<rscale>  2 0.45731677E+03</rscale>
<asrwt>0</asrwt>
<pdfrwt beam="1">  1       21 0.13869307E+00 0.45731677E+03</pdfrwt>
<pdfrwt beam="2">  1       21 0.39446811E-01 0.45731677E+03</pdfrwt>
<totfact> 0.19422465E+03</totfact>
</mgrwt>
</event>
<event>
 4    1  0.4758708E-002  0.4795815E+03  0.7818608E-02  0.1019250E+00
         21   -1    0    0  501  502  0.00000000000E+00  0.00000000000E+00  0.11491327107E+04  0.11491327107E+04  0.00000000000E+00 0. -1.
         21   -1    0    0  502  503 -0.00000000000E+00 -0.00000000000E+00 -0.41383630470E+03  0.41383630470E+03  0.00000000000E+00 0. -1.
    9000007    1    1    2  501    0 -0.24999638766E+03 -0.86603976462E+02  0.92920648766E+03  0.10456687522E+04  0.40000000000E+03 0. -1.
   -9000007    1    1    2    0  503  0.24999638766E+03  0.86603976462E+02 -0.19391008164E+03  0.51730026323E+03  0.40000000000E+03 0. -1.
<mgrwt>
<rscale>  2 0.47958153E+03</rscale>
<asrwt>0</asrwt>
<pdfrwt beam="1">  1       21 0.17678965E+00 0.47958153E+03</pdfrwt>
<pdfrwt beam="2">  1       21 0.63667124E-01 0.47958153E+03</pdfrwt>
<totfact> 0.35394761E+02</totfact>
</mgrwt>
</event>
<event>
 4    1  0.4758708E-002  0.4813788E+03  0.7818608E-02  0.1018757E+00
         21   -1    0    0  501  502  0.00000000000E+00  0.00000000000E+00  0.13150084310E+04  0.13150084310E+04  0.00000000000E+00 0.  1.
         21   -1    0    0  502  503 -0.00000000000E+00 -0.00000000000E+00 -0.17958002509E+03  0.17958002509E+03  0.00000000000E+00 0.  1.
    9000007    1    1    2  501    0 -0.73554089509E+02 -0.25751765952E+03  0.66999428787E+03  0.82499569383E+03  0.40000000000E+03 0.  1.
   -9000007    1    1    2    0  503  0.73554089509E+02  0.25751765952E+03  0.46543411808E+03  0.66959276230E+03  0.40000000000E+03 0.  1.
<mgrwt>
<rscale>  2 0.48137880E+03</rscale>
<asrwt>0</asrwt>
<pdfrwt beam="1">  1       21 0.20230898E+00 0.48137880E+03</pdfrwt>
<pdfrwt beam="2">  1       21 0.27627697E-01 0.48137880E+03</pdfrwt>
<totfact> 0.13427069E+03</totfact>
</mgrwt>
</event>
<event>
 4    1  0.4758708E-002  0.4811400E+03  0.7818608E-02  0.1018822E+00
         21   -1    0    0  501  502  0.00000000000E+00  0.00000000000E+00  0.39570122983E+03  0.39570122983E+03  0.00000000000E+00 0.  1.
         21   -1    0    0  502  503 -0.00000000000E+00 -0.00000000000E+00 -0.63404190677E+03  0.63404190677E+03  0.00000000000E+00 0. -1.
    9000007    1    1    2  501    0  0.23389799405E+03  0.12956627143E+03  0.23984623071E+02  0.48173743103E+03  0.40000000000E+03 0.  1.
   -9000007    1    1    2    0  503 -0.23389799405E+03 -0.12956627143E+03 -0.26232530000E+03  0.54800570557E+03  0.40000000000E+03 0. -1.
<mgrwt>
<rscale>  2 0.48113999E+03</rscale>
<asrwt>0</asrwt>
<pdfrwt beam="1">  1       21 0.60877113E-01 0.48113999E+03</pdfrwt>
<pdfrwt beam="2">  1       21 0.97544907E-01 0.48113999E+03</pdfrwt>
<totfact> 0.18625070E+03</totfact>
</mgrwt>
</event>
<event>
 4    1  0.4758708E-002  0.5277458E+03  0.7818608E-02  0.1006780E+00
         21   -1    0    0  501  502  0.00000000000E+00  0.00000000000E+00  0.39292741908E+03  0.39292741908E+03  0.00000000000E+00 0.  1.
         21   -1    0    0  502  503 -0.00000000000E+00 -0.00000000000E+00 -0.73289004988E+03  0.73289004988E+03  0.00000000000E+00 0.  1.
    9000007    1    1    2  501    0 -0.14704773667E+03 -0.31127581273E+03 -0.67972563804E+02  0.53210519437E+03  0.40000000000E+03 0.  1.
   -9000007    1    1    2    0  503  0.14704773667E+03  0.31127581273E+03 -0.27199006700E+03  0.59371227459E+03  0.40000000000E+03 0.  1.
<mgrwt>
<rscale>  2 0.52774584E+03</rscale>
<asrwt>0</asrwt>
<pdfrwt beam="1">  1       21 0.60450373E-01 0.52774584E+03</pdfrwt>
<pdfrwt beam="2">  1       21 0.11275231E+00 0.52774584E+03</pdfrwt>
<totfact> 0.13023929E+03</totfact>
</mgrwt>
</event>
<event>
 4    1  0.4758708E-002  0.4448757E+03  0.7818608E-02  0.1029261E+00
         21   -1    0    0  503  502  0.00000000000E+00  0.00000000000E+00  0.41160764503E+03  0.41160764503E+03  0.00000000000E+00 0. -1.
         21   -1    0    0  501  503 -0.00000000000E+00 -0.00000000000E+00 -0.48087411602E+03  0.48087411602E+03  0.00000000000E+00 0. -1.
    9000007    1    1    2  501    0  0.12165514939E+03 -0.15203437469E+03 -0.38773191249E+02  0.44656218695E+03  0.40000000000E+03 0. -1.
   -9000007    1    1    2    0  502 -0.12165514939E+03  0.15203437469E+03 -0.30493279739E+02  0.44591957410E+03  0.40000000000E+03 0. -1.
<mgrwt>
<rscale>  2 0.44487574E+03</rscale>
<asrwt>0</asrwt>
<pdfrwt beam="1">  1       21 0.63324253E-01 0.44487574E+03</pdfrwt>
<pdfrwt beam="2">  1       21 0.73980633E-01 0.44487574E+03</pdfrwt>
<totfact> 0.33052609E+03</totfact>
</mgrwt>
</event>
<event>
 4    1  0.4758708E-002  0.4504613E+03  0.7818608E-02  0.1027585E+00
         21   -1    0    0  501  502  0.00000000000E+00  0.00000000000E+00  0.13084264922E+04  0.13084264922E+04  0.00000000000E+00 0. -1.
         21   -1    0    0  502  503 -0.00000000000E+00 -0.00000000000E+00 -0.16029933613E+03  0.16029933613E+03  0.00000000000E+00 0. -1.
    9000007    1    1    2  501    0 -0.20507197364E+03  0.29340571845E+02  0.70653008726E+03  0.83791416490E+03  0.40000000000E+03 0. -1.
   -9000007    1    1    2    0  503  0.20507197364E+03 -0.29340571845E+02  0.44159706876E+03  0.63081166339E+03  0.40000000000E+03 0. -1.
<mgrwt>
<rscale>  2 0.45046130E+03</rscale>
<asrwt>0</asrwt>
<pdfrwt beam="1">  1       21 0.20129638E+00 0.45046130E+03</pdfrwt>
<pdfrwt beam="2">  1       21 0.24661437E-01 0.45046130E+03</pdfrwt>
<totfact> 0.17257043E+03</totfact>
</mgrwt>
</event>
<event>
 4    1  0.4758708E-002  0.4353268E+03  0.7818608E-02  0.1032190E+00
         21   -1    0    0  503  502  0.00000000000E+00  0.00000000000E+00  0.12079614610E+03  0.12079614610E+03  0.00000000000E+00 0. -1.
         21   -1    0    0  501  503 -0.00000000000E+00 -0.00000000000E+00 -0.15691702510E+04  0.15691702510E+04  0.00000000000E+00 0. -1.
    9000007    1    1    2  501    0  0.16481380569E+03 -0.48434109603E+02 -0.73650256250E+03  0.85553812194E+03  0.40000000000E+03 0. -1.
   -9000007    1    1    2    0  502 -0.16481380569E+03  0.48434109603E+02 -0.71187154236E+03  0.83442827513E+03  0.40000000000E+03 0. -1.
<mgrwt>
<rscale>  2 0.43532684E+03</rscale>
<asrwt>0</asrwt>
<pdfrwt beam="1">  1       21 0.18584024E-01 0.43532684E+03</pdfrwt>
<pdfrwt beam="2">  1       21 0.24141079E+00 0.43532684E+03</pdfrwt>
<totfact> 0.16559128E+03</totfact>
</mgrwt>
</event>
<event>
 4    1  0.4758708E-002  0.6854426E+03  0.7818608E-02  0.9742456E-01
         21   -1    0    0  501  502  0.00000000000E+00  0.00000000000E+00  0.21997348970E+04  0.21997348970E+04  0.00000000000E+00 0. -1.
         21   -1    0    0  502  503 -0.00000000000E+00 -0.00000000000E+00 -0.21423710107E+03  0.21423710107E+03  0.00000000000E+00 0. -1.
    9000007    1    1    2  501    0  0.49280573270E+03 -0.25879361070E+03  0.10593105011E+04  0.12617330783E+04  0.40000000000E+03 0. -1.
   -9000007    1    1    2    0  503 -0.49280573270E+03  0.25879361070E+03  0.92618729480E+03  0.11522389197E+04  0.40000000000E+03 0. -1.
<mgrwt>
<rscale>  2 0.68544265E+03</rscale>
<asrwt>0</asrwt>
<pdfrwt beam="1">  1       21 0.33842074E+00 0.68544265E+03</pdfrwt>
<pdfrwt beam="2">  1       21 0.32959555E-01 0.68544265E+03</pdfrwt>
<totfact> 0.12337821E+02</totfact>
</mgrwt>
</event>
<event>
 4    1  0.4758708E-002  0.4136168E+03  0.7818608E-02  0.1039164E+00
         21   -1    0    0  501  502  0.00000000000E+00  0.00000000000E+00  0.20783895634E+03  0.20783895634E+03  0.00000000000E+00 0.  1.
         21   -1    0    0  502  503 -0.00000000000E+00 -0.00000000000E+00 -0.10015648540E+04  0.10015648540E+04  0.00000000000E+00 0.  1.
    9000007    1    1    2  501    0  0.22020626138E+02  0.10292673511E+03 -0.14162828920E+03  0.43719262697E+03  0.40000000000E+03 0.  1.
   -9000007    1    1    2    0  503 -0.22020626138E+02 -0.10292673511E+03 -0.65209760849E+03  0.77221118340E+03  0.40000000000E+03 0.  1.
<mgrwt>
<rscale>  2 0.41361676E+03</rscale>
<asrwt>0</asrwt>
<pdfrwt beam="1">  1       21 0.31975224E-01 0.41361676E+03</pdfrwt>
<pdfrwt beam="2">  1       21 0.15408690E+00 0.41361676E+03</pdfrwt>
<totfact> 0.22788201E+03</totfact>
</mgrwt>
</event>
<event>
 4    1  0.4758708E-002  0.4040153E+03  0.7818608E-02  0.1042398E+00
         21   -1    0    0  501  502  0.00000000000E+00  0.00000000000E+00  0.10328670237E+04  0.10328670237E+04  0.00000000000E+00 0.  1.
         21   -1    0    0  502  503 -0.00000000000E+00 -0.00000000000E+00 -0.16012820510E+03  0.16012820510E+03  0.00000000000E+00 0. -1.
    9000007    1    1    2  501    0  0.55596932702E+02  0.11719620594E+02  0.36815781889E+03  0.54659724482E+03  0.40000000000E+03 0. -1.
   -9000007    1    1    2    0  503 -0.55596932702E+02 -0.11719620594E+02  0.50458099971E+03  0.64639798399E+03  0.40000000000E+03 0.  1.
<mgrwt>
<rscale>  2 0.40401531E+03</rscale>
<asrwt>0</asrwt>
<pdfrwt beam="1">  1       21 0.15890261E+00 0.40401531E+03</pdfrwt>
<pdfrwt beam="2">  1       21 0.24635109E-01 0.40401531E+03</pdfrwt>
<totfact> 0.35120375E+03</totfact>
</mgrwt>
</event>
<event>
 4    1  0.4758708E-002  0.4037409E+03  0.7818608E-02  0.1042492E+00
         21   -1    0    0  501  502  0.00000000000E+00  0.00000000000E+00  0.93721565011E+03  0.93721565011E+03  0.00000000000E+00 0. -1.
         21   -1    0    0  502  503 -0.00000000000E+00 -0.00000000000E+00 -0.20595449100E+03  0.20595449100E+03  0.00000000000E+00 0. -1.
    9000007    1    1    2  501    0 -0.30642522525E+02  0.45472460245E+02  0.59103352058E+03  0.71577044593E+03  0.40000000000E+03 0. -1.
   -9000007    1    1    2    0  503  0.30642522525E+02 -0.45472460245E+02  0.14022763853E+03  0.42739969517E+03  0.40000000000E+03 0. -1.
<mgrwt>
<rscale>  2 0.40374089E+03</rscale>
<asrwt>0</asrwt>
<pdfrwt beam="1">  1       21 0.14418702E+00 0.40374089E+03</pdfrwt>
<pdfrwt beam="2">  1       21 0.31685307E-01 0.40374089E+03</pdfrwt>
<totfact> 0.27884129E+03</totfact>
</mgrwt>
</event>
<event>
 4    1  0.4758708E-002  0.5353127E+03  0.7818608E-02  0.1004952E+00
         21   -1    0    0  501  502  0.00000000000E+00  0.00000000000E+00  0.26516751810E+03  0.26516751810E+03  0.00000000000E+00 0. -1.
         21   -1    0    0  502  503 -0.00000000000E+00 -0.00000000000E+00 -0.25672431713E+04  0.25672431713E+04  0.00000000000E+00 0. -1.
    9000007    1    1    2  501    0  0.32855151057E+03 -0.13643162685E+03 -0.73369140762E+02  0.54031723526E+03  0.40000000000E+03 0. -1.
   -9000007    1    1    2    0  503 -0.32855151057E+03  0.13643162685E+03 -0.22287065125E+04  0.22920934542E+04  0.40000000000E+03 0. -1.
<mgrwt>
<rscale>  2 0.53531270E+03</rscale>
<asrwt>0</asrwt>
<pdfrwt beam="1">  1       21 0.40795001E-01 0.53531270E+03</pdfrwt>
<pdfrwt beam="2">  1       21 0.39496051E+00 0.53531270E+03</pdfrwt>
<totfact> 0.37895199E+01</totfact>
</mgrwt>
</event>
<event>
 4    1  0.4758708E-002  0.7872122E+03  0.7818608E-02  0.9578714E-01
         21   -1    0    0  503  502  0.00000000000E+00  0.00000000000E+00  0.16986902468E+04  0.16986902468E+04  0.00000000000E+00 0. -1.
         21   -1    0    0  501  503 -0.00000000000E+00 -0.00000000000E+00 -0.40400237917E+03  0.40400237917E+03  0.00000000000E+00 0. -1.
    9000007    1    1    2  501    0  0.65523018020E+03 -0.17428857343E+03  0.31989626329E+03  0.84972743580E+03  0.40000000000E+03 0. -1.
   -9000007    1    1    2    0  502 -0.65523018020E+03  0.17428857343E+03  0.97479160432E+03  0.12529651901E+04  0.40000000000E+03 0. -1.
<mgrwt>
<rscale>  2 0.78721223E+03</rscale>
<asrwt>0</asrwt>
<pdfrwt beam="1">  1       21 0.26133696E+00 0.78721223E+03</pdfrwt>
<pdfrwt beam="2">  1       21 0.62154213E-01 0.78721223E+03</pdfrwt>
<totfact> 0.92425257E+01</totfact>
</mgrwt>
</event>
<event>
 4    1  0.4758708E-002  0.4113345E+03  0.7818608E-02  0.1039924E+00
         21   -1    0    0  501  502  0.00000000000E+00  0.00000000000E+00  0.31537811751E+03  0.31537811751E+03  0.00000000000E+00 0.  1.
         21   -1    0    0  502  503 -0.00000000000E+00 -0.00000000000E+00 -0.99887858663E+03  0.99887858663E+03  0.00000000000E+00 0.  1.
    9000007    1    1    2  501    0 -0.58271525430E+02  0.76160825023E+02  0.10534407300E+03  0.42460972158E+03  0.40000000000E+03 0.  1.
   -9000007    1    1    2    0  503  0.58271525430E+02 -0.76160825023E+02 -0.78884454212E+03  0.88964698256E+03  0.40000000000E+03 0.  1.
<mgrwt>
<rscale>  2 0.41133446E+03</rscale>
<asrwt>0</asrwt>
<pdfrwt beam="1">  1       21 0.48519710E-01 0.41133446E+03</pdfrwt>
<pdfrwt beam="2">  1       21 0.15367363E+00 0.41133446E+03</pdfrwt>
<totfact> 0.97608859E+02</totfact>
</mgrwt>
</event>
<event>
 4    1  0.4758708E-002  0.4549000E+03  0.7818608E-02  0.1026271E+00
         21   -1    0    0  501  502  0.00000000000E+00  0.00000000000E+00  0.94657267219E+03  0.94657267219E+03  0.00000000000E+00 0. -1.
         21   -1    0    0  502  503 -0.00000000000E+00 -0.00000000000E+00 -0.26090266321E+03  0.26090266321E+03  0.00000000000E+00 0.  1.
    9000007    1    1    2  501    0  0.19132716888E+03 -0.10162660138E+03  0.58589916183E+03  0.74176268408E+03  0.40000000000E+03 0. -1.
   -9000007    1    1    2    0  503 -0.19132716888E+03  0.10162660138E+03  0.99770847145E+02  0.46571265132E+03  0.40000000000E+03 0.  1.
<mgrwt>
<rscale>  2 0.45490005E+03</rscale>
<asrwt>0</asrwt>
<pdfrwt beam="1">  1       21 0.14562656E+00 0.45490005E+03</pdfrwt>
<pdfrwt beam="2">  1       21 0.40138872E-01 0.45490005E+03</pdfrwt>
<totfact> 0.16462269E+03</totfact>
</mgrwt>
</event>
<event>
 4    1  0.4758708E-002  0.5568189E+03  0.7818608E-02  0.9999278E-01
         21   -1    0    0  503  502  0.00000000000E+00  0.00000000000E+00  0.20238354213E+04  0.20238354213E+04  0.00000000000E+00 0.  1.
         21   -1    0    0  501  503 -0.00000000000E+00 -0.00000000000E+00 -0.18812782257E+03  0.18812782257E+03  0.00000000000E+00 0.  1.
    9000007    1    1    2  501    0  0.25279748205E+03  0.29349743447E+03  0.44129083806E+03  0.71048217059E+03  0.40000000000E+03 0.  1.
   -9000007    1    1    2    0  502 -0.25279748205E+03 -0.29349743447E+03  0.13944167607E+04  0.15014810733E+04  0.40000000000E+03 0.  1.
<mgrwt>
<rscale>  2 0.55681892E+03</rscale>
<asrwt>0</asrwt>
<pdfrwt beam="1">  1       21 0.31135928E+00 0.55681892E+03</pdfrwt>
<pdfrwt beam="2">  1       21 0.28942743E-01 0.55681892E+03</pdfrwt>
<totfact> 0.24847892E+02</totfact>
</mgrwt>
</event>
<event>
 4    1  0.4758708E-002  0.4146099E+03  0.7818608E-02  0.1038835E+00
         21   -1    0    0  501  502  0.00000000000E+00  0.00000000000E+00  0.80039495756E+03  0.80039495756E+03  0.00000000000E+00 0. -1.
         21   -1    0    0  502  503 -0.00000000000E+00 -0.00000000000E+00 -0.26386543267E+03  0.26386543267E+03  0.00000000000E+00 0. -1.
    9000007    1    1    2  501    0 -0.10438270269E+03  0.31710935734E+02  0.38732151258E+02  0.41641507130E+03  0.40000000000E+03 0. -1.
   -9000007    1    1    2    0  503  0.10438270269E+03 -0.31710935734E+02  0.49779737363E+03  0.64784531893E+03  0.40000000000E+03 0. -1.
<mgrwt>
<rscale>  2 0.41460986E+03</rscale>
<asrwt>0</asrwt>
<pdfrwt beam="1">  1       21 0.12313768E+00 0.41460986E+03</pdfrwt>
<pdfrwt beam="2">  1       21 0.40594682E-01 0.41460986E+03</pdfrwt>
<totfact> 0.25361767E+03</totfact>
</mgrwt>
</event>
<event>
 4    1  0.4758708E-002  0.4667949E+03  0.7818608E-02  0.1022829E+00
         21   -1    0    0  501  502  0.00000000000E+00  0.00000000000E+00  0.60357380817E+03  0.60357380817E+03  0.00000000000E+00 0. -1.
         21   -1    0    0  502  503 -0.00000000000E+00 -0.00000000000E+00 -0.36101246748E+03  0.36101246748E+03  0.00000000000E+00 0. -1.
    9000007    1    1    2  501    0 -0.23682229081E+03 -0.42575106805E+02  0.12177902184E+03  0.48241845664E+03  0.40000000000E+03 0. -1.
   -9000007    1    1    2    0  503  0.23682229081E+03  0.42575106805E+02  0.12078231884E+03  0.48216781901E+03  0.40000000000E+03 0. -1.
<mgrwt>
<rscale>  2 0.46679486E+03</rscale>
<asrwt>0</asrwt>
<pdfrwt beam="1">  1       21 0.92857508E-01 0.46679486E+03</pdfrwt>
<pdfrwt beam="2">  1       21 0.55540380E-01 0.46679486E+03</pdfrwt>
<totfact> 0.25740551E+03</totfact>
</mgrwt>
</event>
<event>
 4    1  0.4758708E-002  0.4808435E+03  0.7818608E-02  0.1018904E+00
         21   -1    0    0  503  502  0.00000000000E+00  0.00000000000E+00  0.24411236160E+03  0.24411236160E+03  0.00000000000E+00 0.  1.
         21   -1    0    0  501  503 -0.00000000000E+00 -0.00000000000E+00 -0.94721662552E+03  0.94721662552E+03  0.00000000000E+00 0. -1.
    9000007    1    1    2  501    0  0.33993548856E+01 -0.26683116485E+03 -0.34646553762E+03  0.59266246288E+03  0.40000000000E+03 0.  1.
   -9000007    1    1    2    0  502 -0.33993548856E+01  0.26683116485E+03 -0.35663872629E+03  0.59866652423E+03  0.40000000000E+03 0. -1.
<mgrwt>
<rscale>  2 0.48084345E+03</rscale>
<asrwt>0</asrwt>
<pdfrwt beam="1">  1       21 0.37555749E-01 0.48084345E+03</pdfrwt>
<pdfrwt beam="2">  1       21 0.14572563E+00 0.48084345E+03</pdfrwt>
<totfact> 0.18648399E+03</totfact>
</mgrwt>
</event>
<event>
 4    1  0.4758708E-002  0.5185952E+03  0.7818608E-02  0.1009036E+00
         21   -1    0    0  503  502  0.00000000000E+00  0.00000000000E+00  0.65160479422E+03  0.65160479422E+03  0.00000000000E+00 0.  1.
         21   -1    0    0  501  503 -0.00000000000E+00 -0.00000000000E+00 -0.50696844758E+03  0.50696844758E+03  0.00000000000E+00 0. -1.
    9000007    1    1    2  501    0  0.30732342460E+03 -0.12038806607E+03 -0.17743010311E+03  0.54810803246E+03  0.40000000000E+03 0. -1.
   -9000007    1    1    2    0  502 -0.30732342460E+03  0.12038806607E+03  0.32206644975E+03  0.61046520934E+03  0.40000000000E+03 0.  1.
<mgrwt>
<rscale>  2 0.51859519E+03</rscale>
<asrwt>0</asrwt>
<pdfrwt beam="1">  1       21 0.10024689E+00 0.51859519E+03</pdfrwt>
<pdfrwt beam="2">  1       21 0.77995145E-01 0.51859519E+03</pdfrwt>
<totfact> 0.98454321E+02</totfact>
</mgrwt>
</event>
<event>
 4    1  0.4758708E-002  0.7148975E+03  0.7818608E-02  0.9692089E-01
         21   -1    0    0  503  502  0.00000000000E+00  0.00000000000E+00  0.10933803348E+04  0.10933803348E+04  0.00000000000E+00 0.  1.
         21   -1    0    0  501  503 -0.00000000000E+00 -0.00000000000E+00 -0.48091026948E+03  0.48091026948E+03  0.00000000000E+00 0. -1.
    9000007    1    1    2  501    0  0.15563503145E+03  0.57171337471E+03  0.17444670597E+03  0.73587369776E+03  0.40000000000E+03 0.  1.
   -9000007    1    1    2    0  502 -0.15563503145E+03 -0.57171337471E+03  0.43802335938E+03  0.83841690655E+03  0.40000000000E+03 0. -1.
<mgrwt>
<rscale>  2 0.71489751E+03</rscale>
<asrwt>0</asrwt>
<pdfrwt beam="1">  1       21 0.16821236E+00 0.71489751E+03</pdfrwt>
<pdfrwt beam="2">  1       21 0.73986196E-01 0.71489751E+03</pdfrwt>
<totfact> 0.26678470E+02</totfact>
</mgrwt>
</event>
<event>
 4    1  0.4758708E-002  0.5616188E+03  0.7818608E-02  0.9988398E-01
         21   -1    0    0  501  502  0.00000000000E+00  0.00000000000E+00  0.75031645940E+03  0.75031645940E+03  0.00000000000E+00 0.  1.
         21   -1    0    0  502  503 -0.00000000000E+00 -0.00000000000E+00 -0.59550318010E+03  0.59550318010E+03  0.00000000000E+00 0.  1.
    9000007    1    1    2  501    0  0.11745130110E+03 -0.37632547690E+03  0.44232065348E+03  0.71488686740E+03  0.40000000000E+03 0.  1.
   -9000007    1    1    2    0  503 -0.11745130110E+03  0.37632547690E+03 -0.28750737418E+03  0.63093277209E+03  0.40000000000E+03 0.  1.
<mgrwt>
<rscale>  2 0.56161880E+03</rscale>
<asrwt>0</asrwt>
<pdfrwt beam="1">  1       21 0.11543330E+00 0.56161880E+03</pdfrwt>
<pdfrwt beam="2">  1       21 0.91615874E-01 0.56161880E+03</pdfrwt>
<totfact> 0.46807923E+02</totfact>
</mgrwt>
</event>
<event>
 4    1  0.4758708E-002  0.5041433E+03  0.7818608E-02  0.1012703E+00
         21   -1    0    0  503  502  0.00000000000E+00  0.00000000000E+00  0.82644652552E+03  0.82644652552E+03  0.00000000000E+00 0.  1.
         21   -1    0    0  501  503 -0.00000000000E+00 -0.00000000000E+00 -0.35048571758E+03  0.35048571758E+03  0.00000000000E+00 0.  1.
    9000007    1    1    2  501    0 -0.18175161119E+03 -0.24723837908E+03  0.31976138592E+02  0.50515634976E+03  0.40000000000E+03 0.  1.
   -9000007    1    1    2    0  502  0.18175161119E+03  0.24723837908E+03  0.44398466935E+03  0.67177589334E+03  0.40000000000E+03 0.  1.
<mgrwt>
<rscale>  2 0.50414330E+03</rscale>
<asrwt>0</asrwt>
<pdfrwt beam="1">  1       21 0.12714562E+00 0.50414330E+03</pdfrwt>
<pdfrwt beam="2">  1       21 0.53920880E-01 0.50414330E+03</pdfrwt>
<totfact> 0.12404431E+03</totfact>
</mgrwt>
</event>
<event>
 4    1  0.4758708E-002  0.4056482E+03  0.7818608E-02  0.1041841E+00
         21   -1    0    0  501  502  0.00000000000E+00  0.00000000000E+00  0.13346211902E+04  0.13346211902E+04  0.00000000000E+00 0.  1.
         21   -1    0    0  502  503 -0.00000000000E+00 -0.00000000000E+00 -0.12693269348E+03  0.12693269348E+03  0.00000000000E+00 0.  1.
    9000007    1    1    2  501    0  0.25720034989E+02 -0.62361192308E+02  0.72757746926E+03  0.83301825447E+03  0.40000000000E+03 0.  1.
   -9000007    1    1    2    0  503 -0.25720034989E+02  0.62361192308E+02  0.48011102748E+03  0.62853562923E+03  0.40000000000E+03 0.  1.
<mgrwt>
<rscale>  2 0.40564817E+03</rscale>
<asrwt>0</asrwt>
<pdfrwt beam="1">  1       21 0.20532633E+00 0.40564817E+03</pdfrwt>
<pdfrwt beam="2">  1       21 0.19528108E-01 0.40564817E+03</pdfrwt>
<totfact> 0.25916175E+03</totfact>
</mgrwt>
</event>
<event>
 4    1  0.4758708E-002  0.5150613E+03  0.7818608E-02  0.1009921E+00
         21   -1    0    0  501  502  0.00000000000E+00  0.00000000000E+00  0.35375300486E+03  0.35375300486E+03  0.00000000000E+00 0.  1.
         21   -1    0    0  502  503 -0.00000000000E+00 -0.00000000000E+00 -0.76963410198E+03  0.76963410198E+03  0.00000000000E+00 0. -1.
    9000007    1    1    2  501    0  0.25555206425E+03  0.19995314537E+03 -0.29782694182E+03  0.59496975147E+03  0.40000000000E+03 0. -1.
   -9000007    1    1    2    0  503 -0.25555206425E+03 -0.19995314537E+03 -0.11805415530E+03  0.52841735538E+03  0.40000000000E+03 0. -1.
<mgrwt>
<rscale>  2 0.51506128E+03</rscale>
<asrwt>0</asrwt>
<pdfrwt beam="1">  1       21 0.54423540E-01 0.51506128E+03</pdfrwt>
<pdfrwt beam="2">  1       21 0.11840525E+00 0.51506128E+03</pdfrwt>
<totfact> 0.14545074E+03</totfact>
</mgrwt>
</event>
<event>
 4    1  0.4758708E-002  0.5798768E+03  0.7818608E-02  0.9948058E-01
         21   -1    0    0  503  502  0.00000000000E+00  0.00000000000E+00  0.13577926163E+03  0.13577926163E+03  0.00000000000E+00 0. -1.
         21   -1    0    0  501  503 -0.00000000000E+00 -0.00000000000E+00 -0.24973911916E+04  0.24973911916E+04  0.00000000000E+00 0. -1.
    9000007    1    1    2  501    0  0.29373154866E+03  0.29996470741E+03 -0.13012290446E+04  0.14245890899E+04  0.40000000000E+03 0. -1.
   -9000007    1    1    2    0  502 -0.29373154866E+03 -0.29996470741E+03 -0.10603828854E+04  0.12085813634E+04  0.40000000000E+03 0. -1.
<mgrwt>
<rscale>  2 0.57987675E+03</rscale>
<asrwt>0</asrwt>
<pdfrwt beam="1">  1       21 0.20889117E-01 0.57987675E+03</pdfrwt>
<pdfrwt beam="2">  1       21 0.38421403E+00 0.57987675E+03</pdfrwt>
<totfact> 0.16417224E+02</totfact>
</mgrwt>
</event>
<event>
 4    1  0.4758708E-002  0.5266326E+03  0.7818608E-02  0.1007052E+00
         21   -1    0    0  503  502  0.00000000000E+00  0.00000000000E+00  0.32925142799E+03  0.32925142799E+03  0.00000000000E+00 0.  1.
         21   -1    0    0  501  503 -0.00000000000E+00 -0.00000000000E+00 -0.10758384043E+04  0.10758384043E+04  0.00000000000E+00 0.  1.
    9000007    1    1    2  501    0 -0.32337672251E+03  0.11300169310E+03 -0.70059036112E+03  0.87645236117E+03  0.40000000000E+03 0.  1.
   -9000007    1    1    2    0  502  0.32337672251E+03 -0.11300169310E+03 -0.45996615226E+02  0.52863747116E+03  0.40000000000E+03 0.  1.
<mgrwt>
<rscale>  2 0.52663259E+03</rscale>
<asrwt>0</asrwt>
<pdfrwt beam="1">  1       21 0.50654066E-01 0.52663259E+03</pdfrwt>
<pdfrwt beam="2">  1       21 0.16551360E+00 0.52663259E+03</pdfrwt>
<totfact> 0.68964757E+02</totfact>
</mgrwt>
</event>
<event>
 4    1  0.4758708E-002  0.4463855E+03  0.7818608E-02  0.1028805E+00
         21   -1    0    0  501  502  0.00000000000E+00  0.00000000000E+00  0.25067998589E+03  0.25067998589E+03  0.00000000000E+00 0.  1.
         21   -1    0    0  502  503 -0.00000000000E+00 -0.00000000000E+00 -0.10078903617E+04  0.10078903617E+04  0.00000000000E+00 0.  1.
    9000007    1    1    2  501    0 -0.18868004044E+02 -0.19724100313E+03 -0.89308660541E+02  0.45523186591E+03  0.40000000000E+03 0.  1.
   -9000007    1    1    2    0  503  0.18868004044E+02  0.19724100313E+03 -0.66790171523E+03  0.80333848165E+03  0.40000000000E+03 0.  1.
<mgrwt>
<rscale>  2 0.44638550E+03</rscale>
<asrwt>0</asrwt>
<pdfrwt beam="1">  1       21 0.38566152E-01 0.44638550E+03</pdfrwt>
<pdfrwt beam="2">  1       21 0.15506006E+00 0.44638550E+03</pdfrwt>
<totfact> 0.15122121E+03</totfact>
</mgrwt>
</event>
<event>
 4    1  0.4758708E-002  0.4807491E+03  0.7818608E-02  0.1018929E+00
         21   -1    0    0  501  502  0.00000000000E+00  0.00000000000E+00  0.19073583989E+04  0.19073583989E+04  0.00000000000E+00 0.  1.
         21   -1    0    0  502  503 -0.00000000000E+00 -0.00000000000E+00 -0.14471977377E+03  0.14471977377E+03  0.00000000000E+00 0. -1.
    9000007    1    1    2  501    0 -0.12269507849E+03 -0.23678187358E+03  0.12951937284E+04  0.13815377418E+04  0.40000000000E+03 0.  1.
   -9000007    1    1    2    0  503  0.12269507849E+03  0.23678187358E+03  0.46744489673E+03  0.67054043086E+03  0.40000000000E+03 0. -1.
<mgrwt>
<rscale>  2 0.48074914E+03</rscale>
<asrwt>0</asrwt>
<pdfrwt beam="1">  1       21 0.29343974E+00 0.48074914E+03</pdfrwt>
<pdfrwt beam="2">  1       21 0.22264582E-01 0.48074914E+03</pdfrwt>
<totfact> 0.55332944E+02</totfact>
</mgrwt>
</event>
<event>
 4    1  0.4758708E-002  0.4313402E+03  0.7818608E-02  0.1033437E+00
         21   -1    0    0  503  502  0.00000000000E+00  0.00000000000E+00  0.49029050629E+03  0.49029050629E+03  0.00000000000E+00 0. -1.
         21   -1    0    0  501  503 -0.00000000000E+00 -0.00000000000E+00 -0.46796217795E+03  0.46796217795E+03  0.00000000000E+00 0. -1.
    9000007    1    1    2  501    0 -0.85634164709E+02 -0.13682515999E+03 -0.19717845223E+03  0.47427173287E+03  0.40000000000E+03 0. -1.
   -9000007    1    1    2    0  502  0.85634164709E+02  0.13682515999E+03  0.21950678057E+03  0.48398095137E+03  0.40000000000E+03 0. -1.
<mgrwt>
<rscale>  2 0.43134016E+03</rscale>
<asrwt>0</asrwt>
<pdfrwt beam="1">  1       21 0.75429309E-01 0.43134016E+03</pdfrwt>
<pdfrwt beam="2">  1       21 0.71994181E-01 0.43134016E+03</pdfrwt>
<totfact> 0.23854089E+03</totfact>
</mgrwt>
</event>
<event>
 4    1  0.4758708E-002  0.4071480E+03  0.7818608E-02  0.1041332E+00
         21   -1    0    0  503  502  0.00000000000E+00  0.00000000000E+00  0.58768133200E+03  0.58768133200E+03  0.00000000000E+00 0.  1.
         21   -1    0    0  501  503 -0.00000000000E+00 -0.00000000000E+00 -0.49454153108E+03  0.49454153108E+03  0.00000000000E+00 0.  1.
    9000007    1    1    2  501    0  0.88368406832E+01  0.75441575225E+02 -0.30810608921E+03  0.51058680284E+03  0.40000000000E+03 0.  1.
   -9000007    1    1    2    0  502 -0.88368406832E+01 -0.75441575225E+02  0.40124589012E+03  0.57163606024E+03  0.40000000000E+03 0.  1.
<mgrwt>
<rscale>  2 0.40714803E+03</rscale>
<asrwt>0</asrwt>
<pdfrwt beam="1">  1       21 0.90412512E-01 0.40714803E+03</pdfrwt>
<pdfrwt beam="2">  1       21 0.76083313E-01 0.40714803E+03</pdfrwt>
<totfact> 0.13951570E+03</totfact>
</mgrwt>
</event>
<event>
 4    1  0.4758708E-002  0.5358482E+03  0.7818608E-02  0.1004824E+00
         21   -1    0    0  501  502  0.00000000000E+00  0.00000000000E+00  0.78225078942E+03  0.78225078942E+03  0.00000000000E+00 0.  1.
         21   -1    0    0  502  503 -0.00000000000E+00 -0.00000000000E+00 -0.38712003932E+03  0.38712003932E+03  0.00000000000E+00 0.  1.
    9000007    1    1    2  501    0  0.35245776433E+03  0.53914889888E+02  0.33066013198E+03  0.62965817224E+03  0.40000000000E+03 0.  1.
   -9000007    1    1    2    0  503 -0.35245776433E+03 -0.53914889888E+02  0.64470618123E+02  0.53971265650E+03  0.40000000000E+03 0.  1.
<mgrwt>
<rscale>  2 0.53584820E+03</rscale>
<asrwt>0</asrwt>
<pdfrwt beam="1">  1       21 0.12034627E+00 0.53584820E+03</pdfrwt>
<pdfrwt beam="2">  1       21 0.59556929E-01 0.53584820E+03</pdfrwt>
<totfact> 0.11383968E+03</totfact>
</mgrwt>
</event>
<event>
 4    1  0.4758708E-002  0.6411185E+03  0.7818608E-02  0.9823589E-01
         21   -1    0    0  501  502  0.00000000000E+00  0.00000000000E+00  0.14220375690E+04  0.14220375690E+04  0.00000000000E+00 0. -1.
         21   -1    0    0  502  503 -0.00000000000E+00 -0.00000000000E+00 -0.40391783298E+03  0.40391783298E+03  0.00000000000E+00 0.  1.
    9000007    1    1    2  501    0 -0.12305584734E+03  0.48568525539E+03  0.99594021316E+03  0.11844533832E+04  0.40000000000E+03 0. -1.
   -9000007    1    1    2    0  503  0.12305584734E+03 -0.48568525539E+03  0.22179522891E+02  0.64150201878E+03  0.40000000000E+03 0.  1.
<mgrwt>
<rscale>  2 0.64111848E+03</rscale>
<asrwt>0</asrwt>
<pdfrwt beam="1">  1       21 0.21877501E+00 0.64111848E+03</pdfrwt>
<pdfrwt beam="2">  1       21 0.62141206E-01 0.64111848E+03</pdfrwt>
<totfact> 0.18132669E+02</totfact>
</mgrwt>
</event>
<event>
 4    1  0.4758708E-002  0.4018583E+03  0.7818608E-02  0.1043138E+00
         21   -1    0    0  503  502  0.00000000000E+00  0.00000000000E+00  0.32002973184E+03  0.32002973184E+03  0.00000000000E+00 0. -1.
         21   -1    0    0  501  503 -0.00000000000E+00 -0.00000000000E+00 -0.58408263045E+03  0.58408263045E+03  0.00000000000E+00 0. -1.
    9000007    1    1    2  501    0 -0.10268345564E+02  0.37211424422E+02 -0.29877600738E+03  0.50075665908E+03  0.40000000000E+03 0. -1.
   -9000007    1    1    2    0  502  0.10268345564E+02 -0.37211424422E+02  0.34723108772E+02  0.40335570321E+03  0.40000000000E+03 0. -1.
<mgrwt>
<rscale>  2 0.40185834E+03</rscale>
<asrwt>0</asrwt>
<pdfrwt beam="1">  1       21 0.49235343E-01 0.40185834E+03</pdfrwt>
<pdfrwt beam="2">  1       21 0.89858866E-01 0.40185834E+03</pdfrwt>
<totfact> 0.36884997E+03</totfact>
</mgrwt>
</event>
<event>
 4    1  0.4758708E-002  0.5408853E+03  0.7818608E-02  0.1003626E+00
         21   -1    0    0  501  502  0.00000000000E+00  0.00000000000E+00  0.89114505046E+03  0.89114505046E+03  0.00000000000E+00 0.  1.
         21   -1    0    0  502  503 -0.00000000000E+00 -0.00000000000E+00 -0.63729642620E+03  0.63729642620E+03  0.00000000000E+00 0. -1.
    9000007    1    1    2  501    0 -0.34323573135E+03  0.12143389914E+03  0.65906872431E+03  0.85260104533E+03  0.40000000000E+03 0.  1.
   -9000007    1    1    2    0  503  0.34323573135E+03 -0.12143389914E+03 -0.40522010006E+03  0.67584043133E+03  0.40000000000E+03 0. -1.
<mgrwt>
<rscale>  2 0.54088535E+03</rscale>
<asrwt>0</asrwt>
<pdfrwt beam="1">  1       21 0.13709924E+00 0.54088535E+03</pdfrwt>
<pdfrwt beam="2">  1       21 0.98045604E-01 0.54088535E+03</pdfrwt>
<totfact> 0.25674469E+02</totfact>
</mgrwt>
</event>
<event>
 4    1  0.4758708E-002  0.4870126E+03  0.7818608E-02  0.1017226E+00
         21   -1    0    0  503  502  0.00000000000E+00  0.00000000000E+00  0.44799524576E+03  0.44799524576E+03  0.00000000000E+00 0.  1.
         21   -1    0    0  501  503 -0.00000000000E+00 -0.00000000000E+00 -0.57895042069E+03  0.57895042069E+03  0.00000000000E+00 0. -1.
    9000007    1    1    2  501    0  0.17551250201E+03  0.21535231439E+03 -0.21565250981E+03  0.53262300238E+03  0.40000000000E+03 0. -1.
   -9000007    1    1    2    0  502 -0.17551250201E+03 -0.21535231439E+03  0.84697334875E+02  0.49432266407E+03  0.40000000000E+03 0.  1.
<mgrwt>
<rscale>  2 0.48701258E+03</rscale>
<asrwt>0</asrwt>
<pdfrwt beam="1">  1       21 0.68922345E-01 0.48701258E+03</pdfrwt>
<pdfrwt beam="2">  1       21 0.89069296E-01 0.48701258E+03</pdfrwt>
<totfact> 0.17525278E+03</totfact>
</mgrwt>
</event>
<event>
 4    1  0.4758708E-002  0.5107321E+03  0.7818608E-02  0.1011015E+00
         21   -1    0    0  501  502  0.00000000000E+00  0.00000000000E+00  0.67643012471E+03  0.67643012471E+03  0.00000000000E+00 0. -1.
         21   -1    0    0  502  503 -0.00000000000E+00 -0.00000000000E+00 -0.39189840411E+03  0.39189840411E+03  0.00000000000E+00 0. -1.
    9000007    1    1    2  501    0  0.31328027574E+03  0.51987818392E+02  0.20985798833E+03  0.55216631525E+03  0.40000000000E+03 0. -1.
   -9000007    1    1    2    0  503 -0.31328027574E+03 -0.51987818392E+02  0.74673732262E+02  0.51616221357E+03  0.40000000000E+03 0. -1.
<mgrwt>
<rscale>  2 0.51073209E+03</rscale>
<asrwt>0</asrwt>
<pdfrwt beam="1">  1       21 0.10406617E+00 0.51073209E+03</pdfrwt>
<pdfrwt beam="2">  1       21 0.60292062E-01 0.51073209E+03</pdfrwt>
<totfact> 0.16078032E+03</totfact>
</mgrwt>
</event>
<event>
 4    1  0.4758708E-002  0.6363509E+03  0.7818608E-02  0.9832733E-01
         21   -1    0    0  503  502  0.00000000000E+00  0.00000000000E+00  0.54981476571E+03  0.54981476571E+03  0.00000000000E+00 0.  1.
         21   -1    0    0  501  503 -0.00000000000E+00 -0.00000000000E+00 -0.83112837641E+03  0.83112837641E+03  0.00000000000E+00 0. -1.
    9000007    1    1    2  501    0  0.26953582722E+03 -0.41508182790E+03 -0.37363008699E+03  0.73793084223E+03  0.40000000000E+03 0. -1.
   -9000007    1    1    2    0  502 -0.26953582722E+03  0.41508182790E+03  0.92316476294E+02  0.64301229988E+03  0.40000000000E+03 0.  1.
<mgrwt>
<rscale>  2 0.63635091E+03</rscale>
<asrwt>0</asrwt>
<pdfrwt beam="1">  1       21 0.84586887E-01 0.63635091E+03</pdfrwt>
<pdfrwt beam="2">  1       21 0.12786590E+00 0.63635091E+03</pdfrwt>
<totfact> 0.42413821E+02</totfact>
</mgrwt>
</event>
<event>
 4    1  0.4758708E-002  0.5893402E+03  0.7818608E-02  0.9927772E-01
         21   -1    0    0  503  502  0.00000000000E+00  0.00000000000E+00  0.24423229958E+03  0.24423229958E+03  0.00000000000E+00 0.  1.
         21   -1    0    0  501  503 -0.00000000000E+00 -0.00000000000E+00 -0.14248631276E+04  0.14248631276E+04  0.00000000000E+00 0. -1.
    9000007    1    1    2  501    0 -0.21228669457E+03 -0.37716868443E+03 -0.62709045709E+03  0.86056045608E+03  0.40000000000E+03 0. -1.
   -9000007    1    1    2    0  502  0.21228669457E+03  0.37716868443E+03 -0.55354037089E+03  0.80853497105E+03  0.40000000000E+03 0.  1.
<mgrwt>
<rscale>  2 0.58934019E+03</rscale>
<asrwt>0</asrwt>
<pdfrwt beam="1">  1       21 0.37574199E-01 0.58934019E+03</pdfrwt>
<pdfrwt beam="2">  1       21 0.21920972E+00 0.58934019E+03</pdfrwt>
<totfact> 0.53707531E+02</totfact>
</mgrwt>
</event>
<event>
 4    1  0.4758708E-002  0.5372956E+03  0.7818608E-02  0.1004478E+00
         21   -1    0    0  503  502  0.00000000000E+00  0.00000000000E+00  0.57959402702E+03  0.57959402702E+03  0.00000000000E+00 0. -1.
         21   -1    0    0  501  503 -0.00000000000E+00 -0.00000000000E+00 -0.50727522053E+03  0.50727522053E+03  0.00000000000E+00 0.  1.
    9000007    1    1    2  501    0 -0.46576851263E+02  0.35569258115E+03  0.10930830916E+03  0.54830185282E+03  0.40000000000E+03 0. -1.
   -9000007    1    1    2    0  502  0.46576851263E+02 -0.35569258115E+03 -0.36989502665E+02  0.53856739473E+03  0.40000000000E+03 0.  1.
<mgrwt>
<rscale>  2 0.53729565E+03</rscale>
<asrwt>0</asrwt>
<pdfrwt beam="1">  1       21 0.89168312E-01 0.53729565E+03</pdfrwt>
<pdfrwt beam="2">  1       21 0.78042341E-01 0.53729565E+03</pdfrwt>
<totfact> 0.12947064E+03</totfact>
</mgrwt>
</event>
<event>
 4    1  0.4758708E-002  0.4348976E+03  0.7818608E-02  0.1032324E+00
         21   -1    0    0  501  502  0.00000000000E+00  0.00000000000E+00  0.40185002809E+03  0.40185002809E+03  0.00000000000E+00 0.  1.
         21   -1    0    0  502  503 -0.00000000000E+00 -0.00000000000E+00 -0.58092037096E+03  0.58092037096E+03  0.00000000000E+00 0. -1.
    9000007    1    1    2  501    0 -0.17062997318E+03  0.46172964814E+01  0.12454071181E+03  0.45237848763E+03  0.40000000000E+03 0.  1.
   -9000007    1    1    2    0  503  0.17062997318E+03 -0.46172964814E+01 -0.30361105467E+03  0.53039191142E+03  0.40000000000E+03 0. -1.
<mgrwt>
<rscale>  2 0.43489758E+03</rscale>
<asrwt>0</asrwt>
<pdfrwt beam="1">  1       21 0.61823081E-01 0.43489758E+03</pdfrwt>
<pdfrwt beam="2">  1       21 0.89372365E-01 0.43489758E+03</pdfrwt>
<totfact> 0.22571286E+03</totfact>
</mgrwt>
</event>
<event>
 4    1  0.4758708E-002  0.7415847E+03  0.7818608E-02  0.9648646E-01
         21   -1    0    0  501  502  0.00000000000E+00  0.00000000000E+00  0.14295249148E+04  0.14295249148E+04  0.00000000000E+00 0. -1.
         21   -1    0    0  502  503 -0.00000000000E+00 -0.00000000000E+00 -0.51338166640E+03  0.51338166640E+03  0.00000000000E+00 0.  1.
    9000007    1    1    2  501    0  0.59848055890E+03  0.17823825241E+03  0.94442140996E+03  0.12007829336E+04  0.40000000000E+03 0. -1.
   -9000007    1    1    2    0  503 -0.59848055890E+03 -0.17823825241E+03 -0.28278161511E+02  0.74212364766E+03  0.40000000000E+03 0. -1.
<mgrwt>
<rscale>  2 0.74158469E+03</rscale>
<asrwt>0</asrwt>
<pdfrwt beam="1">  1       21 0.21992691E+00 0.74158469E+03</pdfrwt>
<pdfrwt beam="2">  1       21 0.78981796E-01 0.74158469E+03</pdfrwt>
<totfact> 0.99652853E+01</totfact>
</mgrwt>
</event>
<event>
 4    1  0.4758708E-002  0.4755096E+03  0.7818608E-02  0.1020377E+00
         21   -1    0    0  503  502  0.00000000000E+00  0.00000000000E+00  0.60267311469E+03  0.60267311469E+03  0.00000000000E+00 0.  1.
         21   -1    0    0  501  503 -0.00000000000E+00 -0.00000000000E+00 -0.44253465390E+03  0.44253465390E+03  0.00000000000E+00 0.  1.
    9000007    1    1    2  501    0  0.99306467660E+02 -0.23716582898E+03 -0.12381835766E+03  0.49136584196E+03  0.40000000000E+03 0.  1.
   -9000007    1    1    2    0  502 -0.99306467660E+02  0.23716582898E+03  0.28395681845E+03  0.55384192664E+03  0.40000000000E+03 0.  1.
<mgrwt>
<rscale>  2 0.47550963E+03</rscale>
<asrwt>0</asrwt>
<pdfrwt beam="1">  1       21 0.92718941E-01 0.47550963E+03</pdfrwt>
<pdfrwt beam="2">  1       21 0.68082254E-01 0.47550963E+03</pdfrwt>
<totfact> 0.16442501E+03</totfact>
</mgrwt>
</event>
<event>
 4    1  0.4758708E-002  0.5346500E+03  0.7818608E-02  0.1005111E+00
         21   -1    0    0  501  502  0.00000000000E+00  0.00000000000E+00  0.44423646272E+03  0.44423646272E+03  0.00000000000E+00 0. -1.
         21   -1    0    0  502  503 -0.00000000000E+00 -0.00000000000E+00 -0.74051719779E+03  0.74051719779E+03  0.00000000000E+00 0.  1.
    9000007    1    1    2  501    0 -0.13146263953E+03  0.32949695386E+03  0.66313020016E+02  0.53874677245E+03  0.40000000000E+03 0. -1.
   -9000007    1    1    2    0  503  0.13146263953E+03 -0.32949695386E+03 -0.36259375509E+03  0.64600688806E+03  0.40000000000E+03 0.  1.
<mgrwt>
<rscale>  2 0.53465004E+03</rscale>
<asrwt>0</asrwt>
<pdfrwt beam="1">  1       21 0.68344071E-01 0.53465004E+03</pdfrwt>
<pdfrwt beam="2">  1       21 0.11392572E+00 0.53465004E+03</pdfrwt>
<totfact> 0.96334994E+02</totfact>
</mgrwt>
</event>
<event>
 4    1  0.4758708E-002  0.5430328E+03  0.7818608E-02  0.1003120E+00
         21   -1    0    0  503  502  0.00000000000E+00  0.00000000000E+00  0.12172958224E+04  0.12172958224E+04  0.00000000000E+00 0. -1.
         21   -1    0    0  501  503 -0.00000000000E+00 -0.00000000000E+00 -0.63796729918E+03  0.63796729918E+03  0.00000000000E+00 0.  1.
    9000007    1    1    2  501    0  0.46054207004E+02 -0.36436749565E+03 -0.44092148040E+03  0.69949725785E+03  0.40000000000E+03 0.  1.
   -9000007    1    1    2    0  502 -0.46054207004E+02  0.36436749565E+03  0.10202500037E+04  0.11557658638E+04  0.40000000000E+03 0. -1.
<mgrwt>
<rscale>  2 0.54303284E+03</rscale>
<asrwt>0</asrwt>
<pdfrwt beam="1">  1       21 0.18727628E+00 0.54303284E+03</pdfrwt>
<pdfrwt beam="2">  1       21 0.98148815E-01 0.54303284E+03</pdfrwt>
<totfact> 0.10647961E+02</totfact>
</mgrwt>
</event>
<event>
 4    1  0.4758708E-002  0.4909328E+03  0.7818608E-02  0.1016173E+00
         21   -1    0    0  501  502  0.00000000000E+00  0.00000000000E+00  0.68025213895E+03  0.68025213895E+03  0.00000000000E+00 0.  1.
         21   -1    0    0  502  503 -0.00000000000E+00 -0.00000000000E+00 -0.35561950432E+03  0.35561950432E+03  0.00000000000E+00 0. -1.
    9000007    1    1    2  501    0 -0.26804412533E+03  0.95746342891E+02  0.13079668346E+03  0.50805785862E+03  0.40000000000E+03 0. -1.
   -9000007    1    1    2    0  503  0.26804412533E+03 -0.95746342891E+02  0.19383595117E+03  0.52781378465E+03  0.40000000000E+03 0. -1.
<mgrwt>
<rscale>  2 0.49093280E+03</rscale>
<asrwt>0</asrwt>
<pdfrwt beam="1">  1       21 0.10465418E+00 0.49093280E+03</pdfrwt>
<pdfrwt beam="2">  1       21 0.54710693E-01 0.49093280E+03</pdfrwt>
<totfact> 0.19728946E+03</totfact>
</mgrwt>
</event>
<event>
 4    1  0.4758708E-002  0.4247790E+03  0.7818608E-02  0.1035522E+00
         21   -1    0    0  501  502  0.00000000000E+00  0.00000000000E+00  0.84345340074E+03  0.84345340074E+03  0.00000000000E+00 0. -1.
         21   -1    0    0  502  503 -0.00000000000E+00 -0.00000000000E+00 -0.21455253426E+03  0.21455253426E+03  0.00000000000E+00 0. -1.
    9000007    1    1    2  501    0  0.24159756606E+01 -0.14293837460E+03  0.34302077938E+03  0.54598577908E+03  0.40000000000E+03 0. -1.
   -9000007    1    1    2    0  503 -0.24159756606E+01  0.14293837460E+03  0.28588008709E+03  0.51202015592E+03  0.40000000000E+03 0. -1.
<mgrwt>
<rscale>  2 0.42477902E+03</rscale>
<asrwt>0</asrwt>
<pdfrwt beam="1">  1       21 0.12976206E+00 0.42477902E+03</pdfrwt>
<pdfrwt beam="2">  1       21 0.33008083E-01 0.42477902E+03</pdfrwt>
<totfact> 0.33615107E+03</totfact>
</mgrwt>
</event>
<event>
 4    1  0.4758708E-002  0.4585452E+03  0.7818608E-02  0.1025204E+00
         21   -1    0    0  501  502  0.00000000000E+00  0.00000000000E+00  0.72471255838E+03  0.72471255838E+03  0.00000000000E+00 0.  1.
         21   -1    0    0  502  503 -0.00000000000E+00 -0.00000000000E+00 -0.11925100078E+04  0.11925100078E+04  0.00000000000E+00 0.  1.
    9000007    1    1    2  501    0 -0.95945527968E+02 -0.20262819474E+03  0.59998461685E+03  0.75514586015E+03  0.40000000000E+03 0.  1.
   -9000007    1    1    2    0  503  0.95945527968E+02  0.20262819474E+03 -0.10677820663E+04  0.11620767060E+04  0.40000000000E+03 0.  1.
<mgrwt>
<rscale>  2 0.45854523E+03</rscale>
<asrwt>0</asrwt>
<pdfrwt beam="1">  1       21 0.11149424E+00 0.45854523E+03</pdfrwt>
<pdfrwt beam="2">  1       21 0.18346308E+00 0.45854523E+03</pdfrwt>
<totfact> 0.86310127E+01</totfact>
</mgrwt>
</event>
<event>
 4    1  0.4758708E-002  0.6885736E+03  0.7818608E-02  0.9736975E-01
         21   -1    0    0  503  502  0.00000000000E+00  0.00000000000E+00  0.82324691312E+03  0.82324691312E+03  0.00000000000E+00 0. -1.
         21   -1    0    0  501  503 -0.00000000000E+00 -0.00000000000E+00 -0.65043988122E+03  0.65043988122E+03  0.00000000000E+00 0.  1.
    9000007    1    1    2  501    0  0.17841305373E+03 -0.53132129847E+03  0.33579131616E+03  0.76608703680E+03  0.40000000000E+03 0. -1.
   -9000007    1    1    2    0  502 -0.17841305373E+03  0.53132129847E+03 -0.16298428425E+03  0.70759975753E+03  0.40000000000E+03 0. -1.
<mgrwt>
<rscale>  2 0.68857355E+03</rscale>
<asrwt>0</asrwt>
<pdfrwt beam="1">  1       21 0.12665337E+00 0.68857355E+03</pdfrwt>
<pdfrwt beam="2">  1       21 0.10006767E+00 0.68857355E+03</pdfrwt>
<totfact> 0.28563300E+02</totfact>
</mgrwt>
</event>
<event>
 4    1  0.4758708E-002  0.6338848E+03  0.7818608E-02  0.9837497E-01
         21   -1    0    0  503  502  0.00000000000E+00  0.00000000000E+00  0.20666368265E+04  0.20666368265E+04  0.00000000000E+00 0. -1.
         21   -1    0    0  501  503 -0.00000000000E+00 -0.00000000000E+00 -0.34709143313E+03  0.34709143313E+03  0.00000000000E+00 0.  1.
    9000007    1    1    2  501    0  0.48849389633E+02  0.48930933050E+03  0.59375708631E+02  0.63665953111E+03  0.40000000000E+03 0.  1.
   -9000007    1    1    2    0  502 -0.48849389633E+02 -0.48930933050E+03  0.16601696848E+04  0.17770687286E+04  0.40000000000E+03 0.  1.
<mgrwt>
<rscale>  2 0.63388476E+03</rscale>
<asrwt>0</asrwt>
<pdfrwt beam="1">  1       21 0.31794412E+00 0.63388476E+03</pdfrwt>
<pdfrwt beam="2">  1       21 0.53398683E-01 0.63388476E+03</pdfrwt>
<totfact> 0.61473560E+01</totfact>
</mgrwt>
</event>
<event>
 4    1  0.4758708E-002  0.5422306E+03  0.7818608E-02  0.1003308E+00
         21   -1    0    0  503  502  0.00000000000E+00  0.00000000000E+00  0.53658911634E+03  0.53658911634E+03  0.00000000000E+00 0.  1.
         21   -1    0    0  501  503 -0.00000000000E+00 -0.00000000000E+00 -0.63402358095E+03  0.63402358095E+03  0.00000000000E+00 0. -1.
    9000007    1    1    2  501    0 -0.32947851828E+03  0.15955542369E+03 -0.26439847510E+03  0.60325830361E+03  0.40000000000E+03 0. -1.
   -9000007    1    1    2    0  502  0.32947851828E+03 -0.15955542369E+03  0.16696401050E+03  0.56735439369E+03  0.40000000000E+03 0.  1.
<mgrwt>
<rscale>  2 0.54223060E+03</rscale>
<asrwt>0</asrwt>
<pdfrwt beam="1">  1       21 0.82552171E-01 0.54223060E+03</pdfrwt>
<pdfrwt beam="2">  1       21 0.97542090E-01 0.54223060E+03</pdfrwt>
<totfact> 0.91478851E+02</totfact>
</mgrwt>
</event>
<event>
 4    1  0.4758708E-002  0.4284820E+03  0.7818608E-02  0.1034341E+00
         21   -1    0    0  501  502  0.00000000000E+00  0.00000000000E+00  0.18481297196E+03  0.18481297196E+03  0.00000000000E+00 0. -1.
         21   -1    0    0  502  503 -0.00000000000E+00 -0.00000000000E+00 -0.10005438605E+04  0.10005438605E+04  0.00000000000E+00 0. -1.
    9000007    1    1    2  501    0  0.15315255245E+03  0.11880187397E+02 -0.35785409739E+03  0.55826194407E+03  0.40000000000E+03 0. -1.
   -9000007    1    1    2    0  503 -0.15315255245E+03 -0.11880187397E+02 -0.45787679118E+03  0.62709488841E+03  0.40000000000E+03 0. -1.
<mgrwt>
<rscale>  2 0.42848202E+03</rscale>
<asrwt>0</asrwt>
<pdfrwt beam="1">  1       21 0.28432765E-01 0.42848202E+03</pdfrwt>
<pdfrwt beam="2">  1       21 0.15392982E+00 0.42848202E+03</pdfrwt>
<totfact> 0.28675319E+03</totfact>
</mgrwt>
</event>
<event>
 4    1  0.4758708E-002  0.4042400E+03  0.7818608E-02  0.1042321E+00
         21   -1    0    0  501  502  0.00000000000E+00  0.00000000000E+00  0.13574835540E+03  0.13574835540E+03  0.00000000000E+00 0.  1.
         21   -1    0    0  502  503 -0.00000000000E+00 -0.00000000000E+00 -0.12041279947E+04  0.12041279947E+04  0.00000000000E+00 0.  1.
    9000007    1    1    2  501    0 -0.15898921378E+02  0.56188757912E+02 -0.54572290555E+03  0.67913433270E+03  0.40000000000E+03 0.  1.
   -9000007    1    1    2    0  503  0.15898921378E+02 -0.56188757912E+02 -0.52265673377E+03  0.66074201741E+03  0.40000000000E+03 0.  1.
<mgrwt>
<rscale>  2 0.40423997E+03</rscale>
<asrwt>0</asrwt>
<pdfrwt beam="1">  1       21 0.20884362E-01 0.40423997E+03</pdfrwt>
<pdfrwt beam="2">  1       21 0.18525046E+00 0.40423997E+03</pdfrwt>
<totfact> 0.31145035E+03</totfact>
</mgrwt>
</event>
<event>
 4    1  0.4758708E-002  0.5150275E+03  0.7818608E-02  0.1009929E+00
         21   -1    0    0  503  502  0.00000000000E+00  0.00000000000E+00  0.48468671008E+03  0.48468671008E+03  0.00000000000E+00 0.  1.
         21   -1    0    0  501  503 -0.00000000000E+00 -0.00000000000E+00 -0.86196246265E+03  0.86196246265E+03  0.00000000000E+00 0. -1.
    9000007    1    1    2  501    0 -0.15265590076E+03 -0.28626831486E+03 -0.59547920743E+03  0.78730480667E+03  0.40000000000E+03 0. -1.
   -9000007    1    1    2    0  502  0.15265590076E+03  0.28626831486E+03  0.21820345485E+03  0.55934436606E+03  0.40000000000E+03 0.  1.
<mgrwt>
<rscale>  2 0.51502755E+03</rscale>
<asrwt>0</asrwt>
<pdfrwt beam="1">  1       21 0.74567186E-01 0.51502755E+03</pdfrwt>
<pdfrwt beam="2">  1       21 0.13260961E+00 0.51502755E+03</pdfrwt>
<totfact> 0.53916932E+02</totfact>
</mgrwt>
</event>
<event>
 4    1  0.4758708E-002  0.4328070E+03  0.7818608E-02  0.1032977E+00
         21   -1    0    0  503  502  0.00000000000E+00  0.00000000000E+00  0.20707960573E+03  0.20707960573E+03  0.00000000000E+00 0. -1.
         21   -1    0    0  501  503 -0.00000000000E+00 -0.00000000000E+00 -0.95678961765E+03  0.95678961765E+03  0.00000000000E+00 0. -1.
    9000007    1    1    2  501    0  0.99658213427E+01  0.16499272469E+03 -0.23892851127E+03  0.49437713367E+03  0.40000000000E+03 0. -1.
   -9000007    1    1    2    0  502 -0.99658213427E+01 -0.16499272469E+03 -0.51078150065E+03  0.66949208972E+03  0.40000000000E+03 0. -1.
<mgrwt>
<rscale>  2 0.43280702E+03</rscale>
<asrwt>0</asrwt>
<pdfrwt beam="1">  1       21 0.31858400E-01 0.43280702E+03</pdfrwt>
<pdfrwt beam="2">  1       21 0.14719841E+00 0.43280702E+03</pdfrwt>
<totfact> 0.25783910E+03</totfact>
</mgrwt>
</event>
<event>
 4    1  0.4758708E-002  0.5074959E+03  0.7818608E-02  0.1011841E+00
         21   -1    0    0  503  502  0.00000000000E+00  0.00000000000E+00  0.79265364750E+03  0.79265364750E+03  0.00000000000E+00 0. -1.
         21   -1    0    0  501  503 -0.00000000000E+00 -0.00000000000E+00 -0.35317224220E+03  0.35317224220E+03  0.00000000000E+00 0.  1.
    9000007    1    1    2  501    0  0.30456418921E+03  0.69229360203E+02  0.57711809461E+02  0.51076677908E+03  0.40000000000E+03 0.  1.
   -9000007    1    1    2    0  502 -0.30456418921E+03 -0.69229360203E+02  0.38176959584E+03  0.63505911061E+03  0.40000000000E+03 0. -1.
<mgrwt>
<rscale>  2 0.50749586E+03</rscale>
<asrwt>0</asrwt>
<pdfrwt beam="1">  1       21 0.12194671E+00 0.50749586E+03</pdfrwt>
<pdfrwt beam="2">  1       21 0.54334191E-01 0.50749586E+03</pdfrwt>
<totfact> 0.13572357E+03</totfact>
</mgrwt>
</event>
<event>
 4    1  0.4758708E-002  0.4776119E+03  0.7818608E-02  0.1019794E+00
         21   -1    0    0  501  502  0.00000000000E+00  0.00000000000E+00  0.14850845077E+04  0.14850845077E+04  0.00000000000E+00 0. -1.
         21   -1    0    0  502  503 -0.00000000000E+00 -0.00000000000E+00 -0.15594244577E+03  0.15594244577E+03  0.00000000000E+00 0. -1.
    9000007    1    1    2  501    0  0.35039673075E+02 -0.25862195643E+03  0.56406749858E+03  0.73911111343E+03  0.40000000000E+03 0.  1.
   -9000007    1    1    2    0  503 -0.35039673075E+02  0.25862195643E+03  0.76507456338E+03  0.90191584007E+03  0.40000000000E+03 0.  1.
<mgrwt>
<rscale>  2 0.47761187E+03</rscale>
<asrwt>0</asrwt>
<pdfrwt beam="1">  1       21 0.22847453E+00 0.47761187E+03</pdfrwt>
<pdfrwt beam="2">  1       21 0.23991147E-01 0.47761187E+03</pdfrwt>
<totfact> 0.11998491E+03</totfact>
</mgrwt>
</event>
<event>
 4    1  0.4758708E-002  0.5695703E+03  0.7818608E-02  0.9970630E-01
         21   -1    0    0  503  502  0.00000000000E+00  0.00000000000E+00  0.59081180058E+03  0.59081180058E+03  0.00000000000E+00 0.  1.
         21   -1    0    0  501  503 -0.00000000000E+00 -0.00000000000E+00 -0.64505546006E+03  0.64505546006E+03  0.00000000000E+00 0. -1.
    9000007    1    1    2  501    0  0.20773364240E+03  0.34821983727E+03 -0.26546085014E+03  0.62839460868E+03  0.40000000000E+03 0.  1.
   -9000007    1    1    2    0  502 -0.20773364240E+03 -0.34821983727E+03  0.21121719066E+03  0.60747265196E+03  0.40000000000E+03 0.  1.
<mgrwt>
<rscale>  2 0.56957030E+03</rscale>
<asrwt>0</asrwt>
<pdfrwt beam="1">  1       21 0.90894123E-01 0.56957030E+03</pdfrwt>
<pdfrwt beam="2">  1       21 0.99239302E-01 0.56957030E+03</pdfrwt>
<totfact> 0.69240843E+02</totfact>
</mgrwt>
</event>
<event>
 4    1  0.4758708E-002  0.4356566E+03  0.7818608E-02  0.1032088E+00
         21   -1    0    0  503  502  0.00000000000E+00  0.00000000000E+00  0.93498488500E+03  0.93498488500E+03  0.00000000000E+00 0. -1.
         21   -1    0    0  501  503 -0.00000000000E+00 -0.00000000000E+00 -0.21773467701E+03  0.21773467701E+03  0.00000000000E+00 0. -1.
    9000007    1    1    2  501    0 -0.17042050301E+03  0.27450195852E+02  0.20866240945E+03  0.48304933725E+03  0.40000000000E+03 0. -1.
   -9000007    1    1    2    0  502  0.17042050301E+03 -0.27450195852E+02  0.50858779855E+03  0.66967022476E+03  0.40000000000E+03 0. -1.
<mgrwt>
<rscale>  2 0.43565659E+03</rscale>
<asrwt>0</asrwt>
<pdfrwt beam="1">  1       21 0.14384383E+00 0.43565659E+03</pdfrwt>
<pdfrwt beam="2">  1       21 0.33497643E-01 0.43565659E+03</pdfrwt>
<totfact> 0.24778522E+03</totfact>
</mgrwt>
</event>
<event>
 4    1  0.4758708E-002  0.4895328E+03  0.7818608E-02  0.1016548E+00
         21   -1    0    0  501  502  0.00000000000E+00  0.00000000000E+00  0.47294908685E+03  0.47294908685E+03  0.00000000000E+00 0.  1.
         21   -1    0    0  502  503 -0.00000000000E+00 -0.00000000000E+00 -0.65618842001E+03  0.65618842001E+03  0.00000000000E+00 0. -1.
    9000007    1    1    2  501    0  0.17939510726E+03  0.21785270259E+03 -0.36108884008E+03  0.60829890265E+03  0.40000000000E+03 0. -1.
   -9000007    1    1    2    0  503 -0.17939510726E+03 -0.21785270259E+03  0.17784950691E+03  0.52083860422E+03  0.40000000000E+03 0.  1.
<mgrwt>
<rscale>  2 0.48953284E+03</rscale>
<asrwt>0</asrwt>
<pdfrwt beam="1">  1       21 0.72761398E-01 0.48953284E+03</pdfrwt>
<pdfrwt beam="2">  1       21 0.10095207E+00 0.48953284E+03</pdfrwt>
<totfact> 0.11465352E+03</totfact>
</mgrwt>
</event>
<event>
 4    1  0.4758708E-002  0.4569958E+03  0.7818608E-02  0.1025656E+00
         21   -1    0    0  503  502  0.00000000000E+00  0.00000000000E+00  0.28768682542E+03  0.28768682542E+03  0.00000000000E+00 0.  1.
         21   -1    0    0  501  503 -0.00000000000E+00 -0.00000000000E+00 -0.12441826858E+04  0.12441826858E+04  0.00000000000E+00 0. -1.
    9000007    1    1    2  501    0 -0.22096404428E+03 -0.44803385656E+01 -0.97257416192E+03  0.10745909374E+04  0.40000000000E+03 0. -1.
   -9000007    1    1    2    0  502  0.22096404428E+03  0.44803385656E+01  0.16078301543E+02  0.45727857382E+03  0.40000000000E+03 0.  1.
<mgrwt>
<rscale>  2 0.45699582E+03</rscale>
<asrwt>0</asrwt>
<pdfrwt beam="1">  1       21 0.44259512E-01 0.45699582E+03</pdfrwt>
<pdfrwt beam="2">  1       21 0.19141272E+00 0.45699582E+03</pdfrwt>
<totfact> 0.61828841E+02</totfact>
</mgrwt>
</event>
<event>
 4    1  0.4758708E-002  0.4916149E+03  0.7818608E-02  0.1015991E+00
         21   -1    0    0  501  502  0.00000000000E+00  0.00000000000E+00  0.16208401912E+03  0.16208401912E+03  0.00000000000E+00 0.  1.
         21   -1    0    0  502  503 -0.00000000000E+00 -0.00000000000E+00 -0.16706864789E+04  0.16706864789E+04  0.00000000000E+00 0. -1.
    9000007    1    1    2  501    0 -0.27276368695E+03  0.85353388530E+02 -0.10547388970E+04  0.11636835355E+04  0.40000000000E+03 0. -1.
   -9000007    1    1    2    0  503  0.27276368695E+03 -0.85353388530E+02 -0.45386356278E+03  0.66908696256E+03  0.40000000000E+03 0.  1.
<mgrwt>
<rscale>  2 0.49161492E+03</rscale>
<asrwt>0</asrwt>
<pdfrwt beam="1">  1       21 0.24936004E-01 0.49161492E+03</pdfrwt>
<pdfrwt beam="2">  1       21 0.25702868E+00 0.49161492E+03</pdfrwt>
<totfact> 0.73480802E+02</totfact>
</mgrwt>
</event>
<event>
 4    1  0.4758708E-002  0.4313206E+03  0.7818608E-02  0.1033444E+00
         21   -1    0    0  501  502  0.00000000000E+00  0.00000000000E+00  0.43025799844E+03  0.43025799844E+03  0.00000000000E+00 0.  1.
         21   -1    0    0  502  503 -0.00000000000E+00 -0.00000000000E+00 -0.13918144876E+04  0.13918144876E+04  0.00000000000E+00 0.  1.
    9000007    1    1    2  501    0  0.14741277417E+03 -0.65627499564E+02  0.27562137894E+03  0.51186388739E+03  0.40000000000E+03 0.  1.
   -9000007    1    1    2    0  503 -0.14741277417E+03  0.65627499564E+02 -0.12371778681E+04  0.13102085987E+04  0.40000000000E+03 0.  1.
<mgrwt>
<rscale>  2 0.43132064E+03</rscale>
<asrwt>0</asrwt>
<pdfrwt beam="1">  1       21 0.66193538E-01 0.43132064E+03</pdfrwt>
<pdfrwt beam="2">  1       21 0.21412531E+00 0.43132064E+03</pdfrwt>
<totfact> 0.18607950E+02</totfact>
</mgrwt>
</event>
<event>
 4    1  0.4758708E-002  0.4270705E+03  0.7818608E-02  0.1034789E+00
         21   -1    0    0  501  502  0.00000000000E+00  0.00000000000E+00  0.58733500408E+03  0.58733500408E+03  0.00000000000E+00 0.  1.
         21   -1    0    0  502  503 -0.00000000000E+00 -0.00000000000E+00 -0.34846076127E+03  0.34846076127E+03  0.00000000000E+00 0.  1.
    9000007    1    1    2  501    0  0.11304437418E+03  0.98031607377E+02  0.27379545141E+03  0.50729988744E+03  0.40000000000E+03 0.  1.
   -9000007    1    1    2    0  503 -0.11304437418E+03 -0.98031607377E+02 -0.34921208597E+02  0.42849587791E+03  0.40000000000E+03 0.  1.
<mgrwt>
<rscale>  2 0.42707052E+03</rscale>
<asrwt>0</asrwt>
<pdfrwt beam="1">  1       21 0.90359231E-01 0.42707052E+03</pdfrwt>
<pdfrwt beam="2">  1       21 0.53609348E-01 0.42707052E+03</pdfrwt>
<totfact> 0.30071317E+03</totfact>
</mgrwt>
</event>
<event>
 4    1  0.4758708E-002  0.4486952E+03  0.7818608E-02  0.1028112E+00
         21   -1    0    0  503  502  0.00000000000E+00  0.00000000000E+00  0.33408697272E+03  0.33408697272E+03  0.00000000000E+00 0.  1.
         21   -1    0    0  501  503 -0.00000000000E+00 -0.00000000000E+00 -0.10094700515E+04  0.10094700515E+04  0.00000000000E+00 0.  1.
    9000007    1    1    2  501    0 -0.17414515774E+03 -0.10488509740E+03 -0.76416959658E+03  0.88616171886E+03  0.40000000000E+03 0.  1.
   -9000007    1    1    2    0  502  0.17414515774E+03  0.10488509740E+03  0.88786517813E+02  0.45739530536E+03  0.40000000000E+03 0.  1.
<mgrwt>
<rscale>  2 0.44869524E+03</rscale>
<asrwt>0</asrwt>
<pdfrwt beam="1">  1       21 0.51397997E-01 0.44869524E+03</pdfrwt>
<pdfrwt beam="2">  1       21 0.15530308E+00 0.44869524E+03</pdfrwt>
<totfact> 0.82485204E+02</totfact>
</mgrwt>
</event>
<event>
 4    1  0.4758708E-002  0.4378255E+03  0.7818608E-02  0.1031416E+00
         21   -1    0    0  503  502  0.00000000000E+00  0.00000000000E+00  0.75546143706E+03  0.75546143706E+03  0.00000000000E+00 0.  1.
         21   -1    0    0  501  503 -0.00000000000E+00 -0.00000000000E+00 -0.25374716916E+03  0.25374716916E+03  0.00000000000E+00 0.  1.
    9000007    1    1    2  501    0 -0.13661607637E+03 -0.11413673477E+03  0.24826603474E+03  0.50331617354E+03  0.40000000000E+03 0.  1.
   -9000007    1    1    2    0  502  0.13661607637E+03  0.11413673477E+03  0.25344823317E+03  0.50589243268E+03  0.40000000000E+03 0.  1.
<mgrwt>
<rscale>  2 0.43782547E+03</rscale>
<asrwt>0</asrwt>
<pdfrwt beam="1">  1       21 0.11622484E+00 0.43782547E+03</pdfrwt>
<pdfrwt beam="2">  1       21 0.39038026E-01 0.43782547E+03</pdfrwt>
<totfact> 0.31535627E+03</totfact>
</mgrwt>
</event>
<event>
 4    1  0.4758708E-002  0.4030679E+03  0.7818608E-02  0.1042723E+00
         21   -1    0    0  501  502  0.00000000000E+00  0.00000000000E+00  0.35874195890E+03  0.35874195890E+03  0.00000000000E+00 0. -1.
         21   -1    0    0  502  503 -0.00000000000E+00 -0.00000000000E+00 -0.51528142435E+03  0.51528142435E+03  0.00000000000E+00 0. -1.
    9000007    1    1    2  501    0 -0.28991180262E+02 -0.40289333022E+02  0.73820195494E+02  0.40977205877E+03  0.40000000000E+03 0. -1.
   -9000007    1    1    2    0  503  0.28991180262E+02  0.40289333022E+02 -0.23035966095E+03  0.46425132448E+03  0.40000000000E+03 0. -1.
<mgrwt>
<rscale>  2 0.40306788E+03</rscale>
<asrwt>0</asrwt>
<pdfrwt beam="1">  1       21 0.55191071E-01 0.40306788E+03</pdfrwt>
<pdfrwt beam="2">  1       21 0.79274065E-01 0.40306788E+03</pdfrwt>
<totfact> 0.38686224E+03</totfact>
</mgrwt>
</event>
<event>
 4    1  0.4758708E-002  0.5981854E+03  0.7818608E-02  0.9909178E-01
         21   -1    0    0  503  502  0.00000000000E+00  0.00000000000E+00  0.14562723784E+04  0.14562723784E+04  0.00000000000E+00 0. -1.
         21   -1    0    0  501  503 -0.00000000000E+00 -0.00000000000E+00 -0.24666546983E+03  0.24666546983E+03  0.00000000000E+00 0.  1.
    9000007    1    1    2  501    0  0.34880560335E+03 -0.27597183108E+03  0.65769953397E+03  0.88904132495E+03  0.40000000000E+03 0. -1.
   -9000007    1    1    2    0  502 -0.34880560335E+03  0.27597183108E+03  0.55190737458E+03  0.81389652327E+03  0.40000000000E+03 0.  1.
<mgrwt>
<rscale>  2 0.59818542E+03</rscale>
<asrwt>0</asrwt>
<pdfrwt beam="1">  1       21 0.22404190E+00 0.59818542E+03</pdfrwt>
<pdfrwt beam="2">  1       21 0.37948535E-01 0.59818542E+03</pdfrwt>
<totfact> 0.48815176E+02</totfact>
</mgrwt>
</event>
<event>
 4    1  0.4758708E-002  0.4262617E+03  0.7818608E-02  0.1035047E+00
         21   -1    0    0  501  502  0.00000000000E+00  0.00000000000E+00  0.16711767582E+03  0.16711767582E+03  0.00000000000E+00 0.  1.
         21   -1    0    0  502  503 -0.00000000000E+00 -0.00000000000E+00 -0.10874323857E+04  0.10874323857E+04  0.00000000000E+00 0.  1.
    9000007    1    1    2  501    0 -0.99016884164E+02 -0.10906260183E+03 -0.46824075508E+03  0.63320486352E+03  0.40000000000E+03 0.  1.
   -9000007    1    1    2    0  503  0.99016884164E+02  0.10906260183E+03 -0.45207395479E+03  0.62134519799E+03  0.40000000000E+03 0.  1.
<mgrwt>
<rscale>  2 0.42626165E+03</rscale>
<asrwt>0</asrwt>
<pdfrwt beam="1">  1       21 0.25710412E-01 0.42626165E+03</pdfrwt>
<pdfrwt beam="2">  1       21 0.16729729E+00 0.42626165E+03</pdfrwt>
<totfact> 0.27729654E+03</totfact>
</mgrwt>
</event>
<event>
 4    1  0.4758708E-002  0.4822194E+03  0.7818608E-02  0.1018527E+00
         21   -1    0    0  503  502  0.00000000000E+00  0.00000000000E+00  0.39218465682E+03  0.39218465682E+03  0.00000000000E+00 0. -1.
         21   -1    0    0  501  503 -0.00000000000E+00 -0.00000000000E+00 -0.60851886774E+03  0.60851886774E+03  0.00000000000E+00 0. -1.
    9000007    1    1    2  501    0  0.14567118378E+03 -0.22652925090E+03 -0.18826716035E+03  0.51766796208E+03  0.40000000000E+03 0. -1.
   -9000007    1    1    2    0  502 -0.14567118378E+03  0.22652925090E+03 -0.28067050575E+02  0.48303556248E+03  0.40000000000E+03 0. -1.
<mgrwt>
<rscale>  2 0.48221945E+03</rscale>
<asrwt>0</asrwt>
<pdfrwt beam="1">  1       21 0.60336101E-01 0.48221945E+03</pdfrwt>
<pdfrwt beam="2">  1       21 0.93618287E-01 0.48221945E+03</pdfrwt>
<totfact> 0.20958503E+03</totfact>
</mgrwt>
</event>
<event>
 4    1  0.4758708E-002  0.4597953E+03  0.7818608E-02  0.1024841E+00
         21   -1    0    0  501  502  0.00000000000E+00  0.00000000000E+00  0.64413732328E+03  0.64413732328E+03  0.00000000000E+00 0.  1.
         21   -1    0    0  502  503 -0.00000000000E+00 -0.00000000000E+00 -0.10338715628E+04  0.10338715628E+04  0.00000000000E+00 0.  1.
    9000007    1    1    2  501    0 -0.11196448899E+03 -0.19716914558E+03  0.49828647464E+03  0.67801263231E+03  0.40000000000E+03 0.  1.
   -9000007    1    1    2    0  503  0.11196448899E+03  0.19716914558E+03 -0.88802071418E+03  0.99999625378E+03  0.40000000000E+03 0.  1.
<mgrwt>
<rscale>  2 0.45979530E+03</rscale>
<asrwt>0</asrwt>
<pdfrwt beam="1">  1       21 0.99098051E-01 0.45979530E+03</pdfrwt>
<pdfrwt beam="2">  1       21 0.15905716E+00 0.45979530E+03</pdfrwt>
<totfact> 0.17341726E+02</totfact>
</mgrwt>
</event>
<event>
 4    1  0.4758708E-002  0.4316171E+03  0.7818608E-02  0.1033350E+00
         21   -1    0    0  501  502  0.00000000000E+00  0.00000000000E+00  0.73152161802E+03  0.73152161802E+03  0.00000000000E+00 0.  1.
         21   -1    0    0  502  503 -0.00000000000E+00 -0.00000000000E+00 -0.27635517382E+03  0.27635517382E+03  0.00000000000E+00 0.  1.
    9000007    1    1    2  501    0  0.13284280015E+03 -0.92984491467E+02  0.86404232410E+02  0.44018066357E+03  0.40000000000E+03 0.  1.
   -9000007    1    1    2    0  503 -0.13284280015E+03  0.92984491467E+02  0.36876221179E+03  0.56769612827E+03  0.40000000000E+03 0.  1.
<mgrwt>
<rscale>  2 0.43161710E+03</rscale>
<asrwt>0</asrwt>
<pdfrwt beam="1">  1       21 0.11254179E+00 0.43161710E+03</pdfrwt>
<pdfrwt beam="2">  1       21 0.42516181E-01 0.43161710E+03</pdfrwt>
<totfact> 0.28721160E+03</totfact>
</mgrwt>
</event>
<event>
 4    1  0.4758708E-002  0.4378097E+03  0.7818608E-02  0.1031421E+00
         21   -1    0    0  503  502  0.00000000000E+00  0.00000000000E+00  0.75096447395E+03  0.75096447395E+03  0.00000000000E+00 0.  1.
         21   -1    0    0  501  503 -0.00000000000E+00 -0.00000000000E+00 -0.36917565176E+03  0.36917565176E+03  0.00000000000E+00 0.  1.
    9000007    1    1    2  501    0 -0.17447959716E+03  0.35131784074E+02 -0.12024326934E+03  0.45402182315E+03  0.40000000000E+03 0.  1.
   -9000007    1    1    2    0  502  0.17447959716E+03 -0.35131784074E+02  0.50203209153E+03  0.66611830255E+03  0.40000000000E+03 0.  1.
<mgrwt>
<rscale>  2 0.43780974E+03</rscale>
<asrwt>0</asrwt>
<pdfrwt beam="1">  1       21 0.11553300E+00 0.43780974E+03</pdfrwt>
<pdfrwt beam="2">  1       21 0.56796254E-01 0.43780974E+03</pdfrwt>
<totfact> 0.14520839E+03</totfact>
</mgrwt>
</event>
<event>
 4    1  0.4758708E-002  0.4140582E+03  0.7818608E-02  0.1039018E+00
         21   -1    0    0  501  502  0.00000000000E+00  0.00000000000E+00  0.70010618485E+03  0.70010618485E+03  0.00000000000E+00 0. -1.
         21   -1    0    0  502  503 -0.00000000000E+00 -0.00000000000E+00 -0.27127105486E+03  0.27127105486E+03  0.00000000000E+00 0. -1.
    9000007    1    1    2  501    0  0.95951238669E+02  0.47302665728E+02  0.36589884074E+03  0.55256324890E+03  0.40000000000E+03 0. -1.
   -9000007    1    1    2    0  503 -0.95951238669E+02 -0.47302665728E+02  0.62936289249E+02  0.41881399080E+03  0.40000000000E+03 0. -1.
<mgrwt>
<rscale>  2 0.41405819E+03</rscale>
<asrwt>0</asrwt>
<pdfrwt beam="1">  1       21 0.10770864E+00 0.41405819E+03</pdfrwt>
<pdfrwt beam="2">  1       21 0.41734009E-01 0.41405819E+03</pdfrwt>
<totfact> 0.33500539E+03</totfact>
</mgrwt>
</event>
<event>
 4    1  0.4758708E-002  0.6721481E+03  0.7818608E-02  0.9766085E-01
         21   -1    0    0  503  502  0.00000000000E+00  0.00000000000E+00  0.12474900056E+04  0.12474900056E+04  0.00000000000E+00 0.  1.
         21   -1    0    0  501  503 -0.00000000000E+00 -0.00000000000E+00 -0.50639742081E+03  0.50639742081E+03  0.00000000000E+00 0. -1.
    9000007    1    1    2  501    0 -0.50480289764E+03 -0.19224217492E+03 -0.97484641108E+02  0.67918059052E+03  0.40000000000E+03 0.  1.
   -9000007    1    1    2    0  502  0.50480289764E+03  0.19224217492E+03  0.83857722586E+03  0.10747068358E+04  0.40000000000E+03 0. -1.
<mgrwt>
<rscale>  2 0.67214806E+03</rscale>
<asrwt>0</asrwt>
<pdfrwt beam="1">  1       21 0.19192154E+00 0.67214806E+03</pdfrwt>
<pdfrwt beam="2">  1       21 0.77907296E-01 0.67214806E+03</pdfrwt>
<totfact> 0.16240530E+02</totfact>
</mgrwt>
</event>
<event>
 4    1  0.4758708E-002  0.4692708E+03  0.7818608E-02  0.1022126E+00
         21   -1    0    0  503  502  0.00000000000E+00  0.00000000000E+00  0.38720967651E+04  0.38720967651E+04  0.00000000000E+00 0.  1.
         21   -1    0    0  501  503 -0.00000000000E+00 -0.00000000000E+00 -0.86301788877E+02  0.86301788877E+02  0.00000000000E+00 0.  1.
    9000007    1    1    2  501    0  0.12042015768E+03 -0.21380839578E+03  0.73712861831E+03  0.87382701057E+03  0.40000000000E+03 0.  1.
   -9000007    1    1    2    0  502 -0.12042015768E+03  0.21380839578E+03  0.30486663579E+04  0.30845715434E+04  0.40000000000E+03 0.  1.
<mgrwt>
<rscale>  2 0.46927076E+03</rscale>
<asrwt>0</asrwt>
<pdfrwt beam="1">  1       21 0.59570706E+00 0.46927076E+03</pdfrwt>
<pdfrwt beam="2">  1       21 0.13277201E-01 0.46927076E+03</pdfrwt>
<totfact> 0.13103791E+01</totfact>
</mgrwt>
</event>
<event>
 4    1  0.4758708E-002  0.4491716E+03  0.7818608E-02  0.1027969E+00
         21   -1    0    0  501  502  0.00000000000E+00  0.00000000000E+00  0.19933421636E+04  0.19933421636E+04  0.00000000000E+00 0.  1.
         21   -1    0    0  502  503 -0.00000000000E+00 -0.00000000000E+00 -0.21337597220E+03  0.21337597220E+03  0.00000000000E+00 0.  1.
    9000007    1    1    2  501    0 -0.20402553340E+03  0.11343864418E+02  0.16899388941E+04  0.17486133270E+04  0.40000000000E+03 0.  1.
   -9000007    1    1    2    0  503  0.20402553340E+03 -0.11343864418E+02  0.90027297228E+02  0.45810480873E+03  0.40000000000E+03 0.  1.
<mgrwt>
<rscale>  2 0.44917157E+03</rscale>
<asrwt>0</asrwt>
<pdfrwt beam="1">  1       21 0.30666801E+00 0.44917157E+03</pdfrwt>
<pdfrwt beam="2">  1       21 0.32827074E-01 0.44917157E+03</pdfrwt>
<totfact> 0.21867560E+02</totfact>
</mgrwt>
</event>
<event>
 4    1  0.4758708E-002  0.6833297E+03  0.7818608E-02  0.9746173E-01
         21   -1    0    0  501  502  0.00000000000E+00  0.00000000000E+00  0.11622173525E+04  0.11622173525E+04  0.00000000000E+00 0. -1.
         21   -1    0    0  502  503 -0.00000000000E+00 -0.00000000000E+00 -0.96337813068E+03  0.96337813068E+03  0.00000000000E+00 0.  1.
    9000007    1    1    2  501    0  0.36339613818E+03 -0.41818975286E+03  0.91088587513E+03  0.11387065031E+04  0.40000000000E+03 0. -1.
   -9000007    1    1    2    0  503 -0.36339613818E+03  0.41818975286E+03 -0.71204665329E+03  0.98688898013E+03  0.40000000000E+03 0.  1.
<mgrwt>
<rscale>  2 0.68332966E+03</rscale>
<asrwt>0</asrwt>
<pdfrwt beam="1">  1       21 0.17880267E+00 0.68332966E+03</pdfrwt>
<pdfrwt beam="2">  1       21 0.14821202E+00 0.68332966E+03</pdfrwt>
<totfact> 0.39888838E+01</totfact>
</mgrwt>
</event>
<event>
 4    1  0.4758708E-002  0.4157344E+03  0.7818608E-02  0.1038464E+00
         21   -1    0    0  503  502  0.00000000000E+00  0.00000000000E+00  0.81243597119E+03  0.81243597119E+03  0.00000000000E+00 0.  1.
         21   -1    0    0  501  503 -0.00000000000E+00 -0.00000000000E+00 -0.27417437957E+03  0.27417437957E+03  0.00000000000E+00 0.  1.
    9000007    1    1    2  501    0  0.10552641154E+03  0.41222304569E+02  0.11944906116E+02  0.41590597821E+03  0.40000000000E+03 0.  1.
   -9000007    1    1    2    0  502 -0.10552641154E+03 -0.41222304569E+02  0.52631668550E+03  0.67070437256E+03  0.40000000000E+03 0.  1.
<mgrwt>
<rscale>  2 0.41573441E+03</rscale>
<asrwt>0</asrwt>
<pdfrwt beam="1">  1       21 0.12499015E+00 0.41573441E+03</pdfrwt>
<pdfrwt beam="2">  1       21 0.42180674E-01 0.41573441E+03</pdfrwt>
<totfact> 0.22540883E+03</totfact>
</mgrwt>
</event>
<event>
 4    1  0.4758708E-002  0.5928970E+03  0.7818608E-02  0.9920253E-01
         21   -1    0    0  503  502  0.00000000000E+00  0.00000000000E+00  0.12567727017E+04  0.12567727017E+04  0.00000000000E+00 0.  1.
         21   -1    0    0  501  503 -0.00000000000E+00 -0.00000000000E+00 -0.40727275268E+03  0.40727275268E+03  0.00000000000E+00 0. -1.
    9000007    1    1    2  501    0 -0.42103566716E+03  0.11939783036E+03 -0.40901785363E+02  0.59430617611E+03  0.40000000000E+03 0. -1.
   -9000007    1    1    2    0  502  0.42103566716E+03 -0.11939783036E+03  0.89040173441E+03  0.10697392783E+04  0.40000000000E+03 0.  1.
<mgrwt>
<rscale>  2 0.59289702E+03</rscale>
<asrwt>0</asrwt>
<pdfrwt beam="1">  1       21 0.19334965E+00 0.59289702E+03</pdfrwt>
<pdfrwt beam="2">  1       21 0.62657347E-01 0.59289702E+03</pdfrwt>
<totfact> 0.26786863E+02</totfact>
</mgrwt>
</event>
<event>
 4    1  0.4758708E-002  0.4896670E+03  0.7818608E-02  0.1016512E+00
         21   -1    0    0  501  502  0.00000000000E+00  0.00000000000E+00  0.60590292355E+03  0.60590292355E+03  0.00000000000E+00 0. -1.
         21   -1    0    0  502  503 -0.00000000000E+00 -0.00000000000E+00 -0.40463584215E+03  0.40463584215E+03  0.00000000000E+00 0.  1.
    9000007    1    1    2  501    0 -0.88838229680E+02  0.26810733302E+03  0.17559464665E+03  0.52019924356E+03  0.40000000000E+03 0. -1.
   -9000007    1    1    2    0  503  0.88838229680E+02 -0.26810733302E+03  0.25672434745E+02  0.49033952214E+03  0.40000000000E+03 0.  1.
<mgrwt>
<rscale>  2 0.48966700E+03</rscale>
<asrwt>0</asrwt>
<pdfrwt beam="1">  1       21 0.93215834E-01 0.48966700E+03</pdfrwt>
<pdfrwt beam="2">  1       21 0.62251668E-01 0.48966700E+03</pdfrwt>
<totfact> 0.19714918E+03</totfact>
</mgrwt>
</event>
<event>
 4    1  0.4758708E-002  0.4411198E+03  0.7818608E-02  0.1030404E+00
         21   -1    0    0  503  502  0.00000000000E+00  0.00000000000E+00  0.68606266473E+03  0.68606266473E+03  0.00000000000E+00 0.  1.
         21   -1    0    0  501  503 -0.00000000000E+00 -0.00000000000E+00 -0.28571384458E+03  0.28571384458E+03  0.00000000000E+00 0. -1.
    9000007    1    1    2  501    0  0.15566378222E+03 -0.10176184711E+03  0.15866029593E+03  0.46878542653E+03  0.40000000000E+03 0. -1.
   -9000007    1    1    2    0  502 -0.15566378222E+03  0.10176184711E+03  0.24168852421E+03  0.50299108278E+03  0.40000000000E+03 0.  1.
<mgrwt>
<rscale>  2 0.44111981E+03</rscale>
<asrwt>0</asrwt>
<pdfrwt beam="1">  1       21 0.10554810E+00 0.44111981E+03</pdfrwt>
<pdfrwt beam="2">  1       21 0.43955976E-01 0.44111981E+03</pdfrwt>
<totfact> 0.31299330E+03</totfact>
</mgrwt>
</event>
<event>
 4    1  0.4758708E-002  0.4415584E+03  0.7818608E-02  0.1030270E+00
         21   -1    0    0  503  502  0.00000000000E+00  0.00000000000E+00  0.19940021713E+03  0.19940021713E+03  0.00000000000E+00 0. -1.
         21   -1    0    0  501  503 -0.00000000000E+00 -0.00000000000E+00 -0.10897938190E+04  0.10897938190E+04  0.00000000000E+00 0.  1.
    9000007    1    1    2  501    0  0.17615359956E+03 -0.62799165012E+02 -0.65183485134E+03  0.78731346945E+03  0.40000000000E+03 0.  1.
   -9000007    1    1    2    0  502 -0.17615359956E+03  0.62799165012E+02 -0.23855875056E+03  0.50188056670E+03  0.40000000000E+03 0. -1.
<mgrwt>
<rscale>  2 0.44155841E+03</rscale>
<asrwt>0</asrwt>
<pdfrwt beam="1">  1       21 0.30676956E-01 0.44155841E+03</pdfrwt>
<pdfrwt beam="2">  1       21 0.16766059E+00 0.44155841E+03</pdfrwt>
<totfact> 0.19338107E+03</totfact>
</mgrwt>
</event>
<event>
 4    1  0.4758708E-002  0.4611450E+03  0.7818608E-02  0.1024450E+00
         21   -1    0    0  503  502  0.00000000000E+00  0.00000000000E+00  0.26849046909E+03  0.26849046909E+03  0.00000000000E+00 0. -1.
         21   -1    0    0  501  503 -0.00000000000E+00 -0.00000000000E+00 -0.80967926980E+03  0.80967926980E+03  0.00000000000E+00 0.  1.
    9000007    1    1    2  501    0  0.68020004756E+02  0.21915297638E+03 -0.35016657852E+03  0.57902623500E+03  0.40000000000E+03 0.  1.
   -9000007    1    1    2    0  502 -0.68020004756E+02 -0.21915297638E+03 -0.19102222219E+03  0.49914350389E+03  0.40000000000E+03 0. -1.
<mgrwt>
<rscale>  2 0.46114504E+03</rscale>
<asrwt>0</asrwt>
<pdfrwt beam="1">  1       21 0.41306226E-01 0.46114504E+03</pdfrwt>
<pdfrwt beam="2">  1       21 0.12456604E+00 0.46114504E+03</pdfrwt>
<totfact> 0.23332052E+03</totfact>
</mgrwt>
</event>
<event>
 4    1  0.4758708E-002  0.4914396E+03  0.7818608E-02  0.1016038E+00
         21   -1    0    0  503  502  0.00000000000E+00  0.00000000000E+00  0.30089025628E+03  0.30089025628E+03  0.00000000000E+00 0. -1.
         21   -1    0    0  501  503 -0.00000000000E+00 -0.00000000000E+00 -0.10354399017E+04  0.10354399017E+04  0.00000000000E+00 0. -1.
    9000007    1    1    2  501    0 -0.28357419110E+03 -0.33143890689E+02 -0.68408070754E+03  0.84230591461E+03  0.40000000000E+03 0. -1.
   -9000007    1    1    2    0  502  0.28357419110E+03  0.33143890689E+02 -0.50468937868E+02  0.49402424337E+03  0.40000000000E+03 0. -1.
<mgrwt>
<rscale>  2 0.49143956E+03</rscale>
<asrwt>0</asrwt>
<pdfrwt beam="1">  1       21 0.46290808E-01 0.49143956E+03</pdfrwt>
<pdfrwt beam="2">  1       21 0.15929845E+00 0.49143956E+03</pdfrwt>
<totfact> 0.94264091E+02</totfact>
</mgrwt>
</event>
<event>
 4    1  0.4758708E-002  0.4515005E+03  0.7818608E-02  0.1027276E+00
         21   -1    0    0  501  502  0.00000000000E+00  0.00000000000E+00  0.89846113478E+03  0.89846113478E+03  0.00000000000E+00 0. -1.
         21   -1    0    0  502  503 -0.00000000000E+00 -0.00000000000E+00 -0.26498792247E+03  0.26498792247E+03  0.00000000000E+00 0. -1.
    9000007    1    1    2  501    0 -0.95490960873E+02 -0.18637100511E+03  0.53730827472E+03  0.70182110059E+03  0.40000000000E+03 0. -1.
   -9000007    1    1    2    0  503  0.95490960873E+02  0.18637100511E+03  0.96164937585E+02  0.46162795666E+03  0.40000000000E+03 0. -1.
<mgrwt>
<rscale>  2 0.45150047E+03</rscale>
<asrwt>0</asrwt>
<pdfrwt beam="1">  1       21 0.13822479E+00 0.45150047E+03</pdfrwt>
<pdfrwt beam="2">  1       21 0.40767373E-01 0.45150047E+03</pdfrwt>
<totfact> 0.18352736E+03</totfact>
</mgrwt>
</event>
<event>
 4    1  0.4758708E-002  0.4018493E+03  0.7818608E-02  0.1043141E+00
         21   -1    0    0  501  502  0.00000000000E+00  0.00000000000E+00  0.10627467768E+03  0.10627467768E+03  0.00000000000E+00 0.  1.
         21   -1    0    0  502  503 -0.00000000000E+00 -0.00000000000E+00 -0.18670245810E+04  0.18670245810E+04  0.00000000000E+00 0.  1.
    9000007    1    1    2  501    0  0.14207326606E+02  0.35791339875E+02 -0.45468877312E+03  0.60681525075E+03  0.40000000000E+03 0.  1.
   -9000007    1    1    2    0  503 -0.14207326606E+02 -0.35791339875E+02 -0.13060611302E+04  0.13664840080E+04  0.40000000000E+03 0.  1.
<mgrwt>
<rscale>  2 0.40184931E+03</rscale>
<asrwt>0</asrwt>
<pdfrwt beam="1">  1       21 0.16349951E-01 0.40184931E+03</pdfrwt>
<pdfrwt beam="2">  1       21 0.28723453E+00 0.40184931E+03</pdfrwt>
<totfact> 0.11305213E+03</totfact>
</mgrwt>
</event>
<event>
 4    1  0.4758708E-002  0.4256251E+03  0.7818608E-02  0.1035251E+00
         21   -1    0    0  503  502  0.00000000000E+00  0.00000000000E+00  0.87767212546E+02  0.87767212546E+02  0.00000000000E+00 0. -1.
         21   -1    0    0  501  503 -0.00000000000E+00 -0.00000000000E+00 -0.24151489226E+04  0.24151489226E+04  0.00000000000E+00 0. -1.
    9000007    1    1    2  501    0 -0.12481754006E+03 -0.74681129937E+02 -0.68654227491E+03  0.80777285466E+03  0.40000000000E+03 0. -1.
   -9000007    1    1    2    0  502  0.12481754006E+03  0.74681129937E+02 -0.16408394351E+04  0.16951432805E+04  0.40000000000E+03 0. -1.
<mgrwt>
<rscale>  2 0.42562506E+03</rscale>
<asrwt>0</asrwt>
<pdfrwt beam="1">  1       21 0.13502650E-01 0.42562506E+03</pdfrwt>
<pdfrwt beam="2">  1       21 0.37156131E+00 0.42562506E+03</pdfrwt>
<totfact> 0.48912723E+02</totfact>
</mgrwt>
</event>
<event>
 4    1  0.4758708E-002  0.4498113E+03  0.7818608E-02  0.1027778E+00
         21   -1    0    0  503  502  0.00000000000E+00  0.00000000000E+00  0.13864341138E+04  0.13864341138E+04  0.00000000000E+00 0. -1.
         21   -1    0    0  501  503 -0.00000000000E+00 -0.00000000000E+00 -0.16064803135E+03  0.16064803135E+03  0.00000000000E+00 0. -1.
    9000007    1    1    2  501    0  0.10907697549E+03  0.17444880826E+03  0.37880077947E+03  0.58806479559E+03  0.40000000000E+03 0. -1.
   -9000007    1    1    2    0  502 -0.10907697549E+03 -0.17444880826E+03  0.84698530299E+03  0.95901734957E+03  0.40000000000E+03 0. -1.
<mgrwt>
<rscale>  2 0.44981126E+03</rscale>
<asrwt>0</asrwt>
<pdfrwt beam="1">  1       21 0.21329755E+00 0.44981126E+03</pdfrwt>
<pdfrwt beam="2">  1       21 0.24715083E-01 0.44981126E+03</pdfrwt>
<totfact> 0.14340173E+03</totfact>
</mgrwt>
</event>
<event>
 4    1  0.4758708E-002  0.4688714E+03  0.7818608E-02  0.1022239E+00
         21   -1    0    0  503  502  0.00000000000E+00  0.00000000000E+00  0.33563764322E+03  0.33563764322E+03  0.00000000000E+00 0.  1.
         21   -1    0    0  501  503 -0.00000000000E+00 -0.00000000000E+00 -0.77809151036E+03  0.77809151036E+03  0.00000000000E+00 0.  1.
    9000007    1    1    2  501    0  0.74697599272E+02 -0.23293915284E+03 -0.44272006693E+03  0.64485768812E+03  0.40000000000E+03 0.  1.
   -9000007    1    1    2    0  502 -0.74697599272E+02  0.23293915284E+03  0.26619978835E+00  0.46887146546E+03  0.40000000000E+03 0.  1.
<mgrwt>
<rscale>  2 0.46887139E+03</rscale>
<asrwt>0</asrwt>
<pdfrwt beam="1">  1       21 0.51636560E-01 0.46887139E+03</pdfrwt>
<pdfrwt beam="2">  1       21 0.11970639E+00 0.46887139E+03</pdfrwt>
<totfact> 0.16104119E+03</totfact>
</mgrwt>
</event>
<event>
 4    1  0.4758708E-002  0.4457535E+03  0.7818608E-02  0.1028996E+00
         21   -1    0    0  501  502  0.00000000000E+00  0.00000000000E+00  0.12909835143E+03  0.12909835143E+03  0.00000000000E+00 0. -1.
         21   -1    0    0  502  503 -0.00000000000E+00 -0.00000000000E+00 -0.16304022802E+04  0.16304022802E+04  0.00000000000E+00 0. -1.
    9000007    1    1    2  501    0  0.17533868808E+03  0.89177041129E+02 -0.54247351550E+03  0.70212086938E+03  0.40000000000E+03 0. -1.
   -9000007    1    1    2    0  503 -0.17533868808E+03 -0.89177041129E+02 -0.95883041325E+03  0.10573797622E+04  0.40000000000E+03 0. -1.
<mgrwt>
<rscale>  2 0.44575352E+03</rscale>
<asrwt>0</asrwt>
<pdfrwt beam="1">  1       21 0.19861285E-01 0.44575352E+03</pdfrwt>
<pdfrwt beam="2">  1       21 0.25083111E+00 0.44575352E+03</pdfrwt>
<totfact> 0.12708460E+03</totfact>
</mgrwt>
</event>
<event>
 4    1  0.4758708E-002  0.5253740E+03  0.7818608E-02  0.1007360E+00
         21   -1    0    0  503  502  0.00000000000E+00  0.00000000000E+00  0.53221332440E+03  0.53221332440E+03  0.00000000000E+00 0. -1.
         21   -1    0    0  501  503 -0.00000000000E+00 -0.00000000000E+00 -0.66730987488E+03  0.66730987488E+03  0.00000000000E+00 0.  1.
    9000007    1    1    2  501    0 -0.19018701152E+02  0.34008254811E+03 -0.35065605374E+03  0.63164667224E+03  0.40000000000E+03 0.  1.
   -9000007    1    1    2    0  502  0.19018701152E+02 -0.34008254811E+03  0.21555950327E+03  0.56787652705E+03  0.40000000000E+03 0. -1.
<mgrwt>
<rscale>  2 0.52537401E+03</rscale>
<asrwt>0</asrwt>
<pdfrwt beam="1">  1       21 0.81878973E-01 0.52537401E+03</pdfrwt>
<pdfrwt beam="2">  1       21 0.10266306E+00 0.52537401E+03</pdfrwt>
<totfact> 0.82773661E+02</totfact>
</mgrwt>
</event>
<event>
 4    1  0.4758708E-002  0.5999153E+03  0.7818608E-02  0.9905582E-01
         21   -1    0    0  501  502  0.00000000000E+00  0.00000000000E+00  0.78146328169E+03  0.78146328169E+03  0.00000000000E+00 0. -1.
         21   -1    0    0  502  503 -0.00000000000E+00 -0.00000000000E+00 -0.48105105011E+03  0.48105105011E+03  0.00000000000E+00 0. -1.
    9000007    1    1    2  501    0 -0.19744884842E+03  0.40113872955E+03  0.28054108246E+03  0.66227005597E+03  0.40000000000E+03 0. -1.
   -9000007    1    1    2    0  503  0.19744884842E+03 -0.40113872955E+03  0.19871149122E+02  0.60024427582E+03  0.40000000000E+03 0. -1.
<mgrwt>
<rscale>  2 0.59991527E+03</rscale>
<asrwt>0</asrwt>
<pdfrwt beam="1">  1       21 0.12022512E+00 0.59991527E+03</pdfrwt>
<pdfrwt beam="2">  1       21 0.74007854E-01 0.59991527E+03</pdfrwt>
<totfact> 0.68644312E+02</totfact>
</mgrwt>
</event>
<event>
 4    1  0.4758708E-002  0.4096161E+03  0.7818608E-02  0.1040500E+00
         21   -1    0    0  503  502  0.00000000000E+00  0.00000000000E+00  0.24750189442E+03  0.24750189442E+03  0.00000000000E+00 0. -1.
         21   -1    0    0  501  503 -0.00000000000E+00 -0.00000000000E+00 -0.96762141093E+03  0.96762141093E+03  0.00000000000E+00 0. -1.
    9000007    1    1    2  501    0  0.63352882414E+02 -0.61414952288E+02 -0.69250204199E+03  0.80457719470E+03  0.40000000000E+03 0. -1.
   -9000007    1    1    2    0  502 -0.63352882414E+02  0.61414952288E+02 -0.27617474518E+02  0.41054611065E+03  0.40000000000E+03 0. -1.
<mgrwt>
<rscale>  2 0.40961614E+03</rscale>
<asrwt>0</asrwt>
<pdfrwt beam="1">  1       21 0.38077215E-01 0.40961614E+03</pdfrwt>
<pdfrwt beam="2">  1       21 0.14886483E+00 0.40961614E+03</pdfrwt>
<totfact> 0.17617092E+03</totfact>
</mgrwt>
</event>
<event>
 4    1  0.4758708E-002  0.4657499E+03  0.7818608E-02  0.1023127E+00
         21   -1    0    0  501  502  0.00000000000E+00  0.00000000000E+00  0.17827373484E+04  0.17827373484E+04  0.00000000000E+00 0.  1.
         21   -1    0    0  502  503 -0.00000000000E+00 -0.00000000000E+00 -0.16087607097E+03  0.16087607097E+03  0.00000000000E+00 0.  1.
    9000007    1    1    2  501    0 -0.23277645431E+03 -0.52326888799E+02  0.12906165774E+04  0.13720838643E+04  0.40000000000E+03 0.  1.
   -9000007    1    1    2    0  503  0.23277645431E+03  0.52326888799E+02  0.33124470009E+03  0.57152955506E+03  0.40000000000E+03 0.  1.
<mgrwt>
<rscale>  2 0.46574991E+03</rscale>
<asrwt>0</asrwt>
<pdfrwt beam="1">  1       21 0.27426727E+00 0.46574991E+03</pdfrwt>
<pdfrwt beam="2">  1       21 0.24750166E-01 0.46574991E+03</pdfrwt>
<totfact> 0.59323189E+02</totfact>
</mgrwt>
</event>
<event>
 4    1  0.4758708E-002  0.5737381E+03  0.7818608E-02  0.9961441E-01
         21   -1    0    0  501  502  0.00000000000E+00  0.00000000000E+00  0.35600230919E+03  0.35600230919E+03  0.00000000000E+00 0. -1.
         21   -1    0    0  502  503 -0.00000000000E+00 -0.00000000000E+00 -0.22226563669E+04  0.22226563669E+04  0.00000000000E+00 0.  1.
    9000007    1    1    2  501    0  0.40773185096E+03  0.54130845435E+02  0.51969862725E+02  0.57608703973E+03  0.40000000000E+03 0. -1.
   -9000007    1    1    2    0  503 -0.40773185096E+03 -0.54130845435E+02 -0.19186239204E+04  0.20025716364E+04  0.40000000000E+03 0.  1.
<mgrwt>
<rscale>  2 0.57373810E+03</rscale>
<asrwt>0</asrwt>
<pdfrwt beam="1">  1       21 0.54769588E-01 0.57373810E+03</pdfrwt>
<pdfrwt beam="2">  1       21 0.34194712E+00 0.57373810E+03</pdfrwt>
<totfact> 0.42714558E+01</totfact>
</mgrwt>
</event>
<event>
 4    1  0.4758708E-002  0.4237101E+03  0.7818608E-02  0.1035866E+00
         21   -1    0    0  503  502  0.00000000000E+00  0.00000000000E+00  0.12559273583E+04  0.12559273583E+04  0.00000000000E+00 0.  1.
         21   -1    0    0  501  503 -0.00000000000E+00 -0.00000000000E+00 -0.15895782585E+03  0.15895782585E+03  0.00000000000E+00 0. -1.
    9000007    1    1    2  501    0  0.30430447438E+02  0.13639743697E+03  0.32395936373E+03  0.53336661153E+03  0.40000000000E+03 0.  1.
   -9000007    1    1    2    0  502 -0.30430447438E+02 -0.13639743697E+03  0.77301016877E+03  0.88151857267E+03  0.40000000000E+03 0.  1.
<mgrwt>
<rscale>  2 0.42371013E+03</rscale>
<asrwt>0</asrwt>
<pdfrwt beam="1">  1       21 0.19321959E+00 0.42371013E+03</pdfrwt>
<pdfrwt beam="2">  1       21 0.24455051E-01 0.42371013E+03</pdfrwt>
<totfact> 0.20108069E+03</totfact>
</mgrwt>
</event>
<event>
 4    1  0.4758708E-002  0.4345481E+03  0.7818608E-02  0.1032433E+00
         21   -1    0    0  503  502  0.00000000000E+00  0.00000000000E+00  0.54616473454E+03  0.54616473454E+03  0.00000000000E+00 0. -1.
         21   -1    0    0  501  503 -0.00000000000E+00 -0.00000000000E+00 -0.55977136222E+03  0.55977136222E+03  0.00000000000E+00 0. -1.
    9000007    1    1    2  501    0  0.77029503699E+02 -0.15132266589E+03 -0.34872871646E+03  0.55717484809E+03  0.40000000000E+03 0. -1.
   -9000007    1    1    2    0  502 -0.77029503699E+02  0.15132266589E+03  0.33512208878E+03  0.54876124867E+03  0.40000000000E+03 0. -1.
<mgrwt>
<rscale>  2 0.43454815E+03</rscale>
<asrwt>0</asrwt>
<pdfrwt beam="1">  1       21 0.84025344E-01 0.43454815E+03</pdfrwt>
<pdfrwt beam="2">  1       21 0.86118671E-01 0.43454815E+03</pdfrwt>
<totfact> 0.12298890E+03</totfact>
</mgrwt>
</event>
<event>
 4    1  0.4758708E-002  0.4215419E+03  0.7818608E-02  0.1036566E+00
         21   -1    0    0  503  502  0.00000000000E+00  0.00000000000E+00  0.59572672085E+03  0.59572672085E+03  0.00000000000E+00 0.  1.
         21   -1    0    0  501  503 -0.00000000000E+00 -0.00000000000E+00 -0.31541329817E+03  0.31541329817E+03  0.00000000000E+00 0.  1.
    9000007    1    1    2  501    0 -0.41386064965E+02  0.12643073076E+03  0.34000139819E+02  0.42291080095E+03  0.40000000000E+03 0.  1.
   -9000007    1    1    2    0  502  0.41386064965E+02 -0.12643073076E+03  0.24631328286E+03  0.48822921806E+03  0.40000000000E+03 0.  1.
<mgrwt>
<rscale>  2 0.42154186E+03</rscale>
<asrwt>0</asrwt>
<pdfrwt beam="1">  1       21 0.91650265E-01 0.42154186E+03</pdfrwt>
<pdfrwt beam="2">  1       21 0.48525123E-01 0.42154186E+03</pdfrwt>
<totfact> 0.36029097E+03</totfact>
</mgrwt>
</event>
<event>
 4    1  0.4758708E-002  0.4634677E+03  0.7818608E-02  0.1023780E+00
         21   -1    0    0  503  502  0.00000000000E+00  0.00000000000E+00  0.11177262579E+04  0.11177262579E+04  0.00000000000E+00 0.  1.
         21   -1    0    0  501  503 -0.00000000000E+00 -0.00000000000E+00 -0.24695651528E+03  0.24695651528E+03  0.00000000000E+00 0.  1.
    9000007    1    1    2  501    0 -0.14716413684E+03 -0.18205770522E+03  0.11402105775E+03  0.47728722255E+03  0.40000000000E+03 0.  1.
   -9000007    1    1    2    0  502  0.14716413684E+03  0.18205770522E+03  0.75674868485E+03  0.88739555060E+03  0.40000000000E+03 0.  1.
<mgrwt>
<rscale>  2 0.46346768E+03</rscale>
<asrwt>0</asrwt>
<pdfrwt beam="1">  1       21 0.17195788E+00 0.46346768E+03</pdfrwt>
<pdfrwt beam="2">  1       21 0.37993311E-01 0.46346768E+03</pdfrwt>
<totfact> 0.11579086E+03</totfact>
</mgrwt>
</event>
<event>
 4    1  0.4758708E-002  0.4839077E+03  0.7818608E-02  0.1018067E+00
         21   -1    0    0  501  502  0.00000000000E+00  0.00000000000E+00  0.22894703437E+03  0.22894703437E+03  0.00000000000E+00 0. -1.
         21   -1    0    0  502  503 -0.00000000000E+00 -0.00000000000E+00 -0.11103711654E+04  0.11103711654E+04  0.00000000000E+00 0.  1.
    9000007    1    1    2  501    0 -0.25887726995E+03 -0.84553145872E+02 -0.25264876339E+03  0.54589199758E+03  0.40000000000E+03 0. -1.
   -9000007    1    1    2    0  503  0.25887726995E+03  0.84553145872E+02 -0.62877536768E+03  0.79342620223E+03  0.40000000000E+03 0.  1.
<mgrwt>
<rscale>  2 0.48390771E+03</rscale>
<asrwt>0</asrwt>
<pdfrwt beam="1">  1       21 0.35222621E-01 0.48390771E+03</pdfrwt>
<pdfrwt beam="2">  1       21 0.17082633E+00 0.48390771E+03</pdfrwt>
<totfact> 0.13652812E+03</totfact>
</mgrwt>
</event>
<event>
 4    1  0.4758708E-002  0.4575492E+03  0.7818608E-02  0.1025494E+00
         21   -1    0    0  503  502  0.00000000000E+00  0.00000000000E+00  0.10462022193E+04  0.10462022193E+04  0.00000000000E+00 0. -1.
         21   -1    0    0  501  503 -0.00000000000E+00 -0.00000000000E+00 -0.21017227489E+03  0.21017227489E+03  0.00000000000E+00 0.  1.
    9000007    1    1    2  501    0  0.12380081453E+03  0.18445769035E+03  0.55549418443E+03  0.71967011202E+03  0.40000000000E+03 0. -1.
   -9000007    1    1    2    0  502 -0.12380081453E+03 -0.18445769035E+03  0.28053575997E+03  0.53670438216E+03  0.40000000000E+03 0. -1.
<mgrwt>
<rscale>  2 0.45754921E+03</rscale>
<asrwt>0</asrwt>
<pdfrwt beam="1">  1       21 0.16095419E+00 0.45754921E+03</pdfrwt>
<pdfrwt beam="2">  1       21 0.32334197E-01 0.45754921E+03</pdfrwt>
<totfact> 0.19399428E+03</totfact>
</mgrwt>
</event>
<event>
 4    1  0.4758708E-002  0.6714492E+03  0.7818608E-02  0.9767343E-01
         21   -1    0    0  503  502  0.00000000000E+00  0.00000000000E+00  0.14792746901E+04  0.14792746901E+04  0.00000000000E+00 0.  1.
         21   -1    0    0  501  503 -0.00000000000E+00 -0.00000000000E+00 -0.53633478507E+03  0.53633478507E+03  0.00000000000E+00 0.  1.
    9000007    1    1    2  501    0  0.53436512816E+03  0.72787151413E+02 -0.19073309701E+03  0.69801373475E+03  0.40000000000E+03 0.  1.
   -9000007    1    1    2    0  502 -0.53436512816E+03 -0.72787151413E+02  0.11336730020E+04  0.13175957404E+04  0.40000000000E+03 0.  1.
<mgrwt>
<rscale>  2 0.67144922E+03</rscale>
<asrwt>0</asrwt>
<pdfrwt beam="1">  1       21 0.22758072E+00 0.67144922E+03</pdfrwt>
<pdfrwt beam="2">  1       21 0.82513044E-01 0.67144922E+03</pdfrwt>
<totfact> 0.82326248E+01</totfact>
</mgrwt>
</event>
<event>
 4    1  0.4758708E-002  0.4708532E+03  0.7818608E-02  0.1021680E+00
         21   -1    0    0  501  502  0.00000000000E+00  0.00000000000E+00  0.84043683274E+03  0.84043683274E+03  0.00000000000E+00 0. -1.
         21   -1    0    0  502  503 -0.00000000000E+00 -0.00000000000E+00 -0.86219536340E+03  0.86219536340E+03  0.00000000000E+00 0. -1.
    9000007    1    1    2  501    0 -0.21172826493E+03 -0.12989949245E+03  0.69834576944E+03  0.84225266400E+03  0.40000000000E+03 0. -1.
   -9000007    1    1    2    0  503  0.21172826493E+03  0.12989949245E+03 -0.72010430010E+03  0.86037953214E+03  0.40000000000E+03 0. -1.
<mgrwt>
<rscale>  2 0.47085320E+03</rscale>
<asrwt>0</asrwt>
<pdfrwt beam="1">  1       21 0.12929797E+00 0.47085320E+03</pdfrwt>
<pdfrwt beam="2">  1       21 0.13264544E+00 0.47085320E+03</pdfrwt>
<totfact> 0.14436371E+02</totfact>
</mgrwt>
</event>
<event>
 4    1  0.4758708E-002  0.5554166E+03  0.7818608E-02  0.1000248E+00
         21   -1    0    0  503  502  0.00000000000E+00  0.00000000000E+00  0.52104828390E+03  0.52104828390E+03  0.00000000000E+00 0.  1.
         21   -1    0    0  501  503 -0.00000000000E+00 -0.00000000000E+00 -0.15041458187E+04  0.15041458187E+04  0.00000000000E+00 0. -1.
    9000007    1    1    2  501    0  0.23128955393E+03 -0.30820885240E+03 -0.12800665663E+04  0.13953701905E+04  0.40000000000E+03 0.  1.
   -9000007    1    1    2    0  502 -0.23128955393E+03  0.30820885240E+03  0.29696903155E+03  0.62982391202E+03  0.40000000000E+03 0.  1.
<mgrwt>
<rscale>  2 0.55541656E+03</rscale>
<asrwt>0</asrwt>
<pdfrwt beam="1">  1       21 0.80161275E-01 0.55541656E+03</pdfrwt>
<pdfrwt beam="2">  1       21 0.23140705E+00 0.55541656E+03</pdfrwt>
<totfact> 0.87499476E+01</totfact>
</mgrwt>
</event>
<event>
 4    1  0.4758708E-002  0.4961755E+03  0.7818608E-02  0.1014782E+00
         21   -1    0    0  503  502  0.00000000000E+00  0.00000000000E+00  0.15285364772E+04  0.15285364772E+04  0.00000000000E+00 0. -1.
         21   -1    0    0  501  503 -0.00000000000E+00 -0.00000000000E+00 -0.21529230438E+03  0.21529230438E+03  0.00000000000E+00 0. -1.
    9000007    1    1    2  501    0  0.12098473854E+03  0.26749361957E+03  0.21902140427E+03  0.54236566909E+03  0.40000000000E+03 0. -1.
   -9000007    1    1    2    0  502 -0.12098473854E+03 -0.26749361957E+03  0.10942227686E+04  0.12014631125E+04  0.40000000000E+03 0. -1.
<mgrwt>
<rscale>  2 0.49617552E+03</rscale>
<asrwt>0</asrwt>
<pdfrwt beam="1">  1       21 0.23515945E+00 0.49617552E+03</pdfrwt>
<pdfrwt beam="2">  1       21 0.33121894E-01 0.49617552E+03</pdfrwt>
<totfact> 0.57084401E+02</totfact>
</mgrwt>
</event>
<event>
 4    1  0.4758708E-002  0.4741832E+03  0.7818608E-02  0.1020746E+00
         21   -1    0    0  501  502  0.00000000000E+00  0.00000000000E+00  0.23902937035E+04  0.23902937035E+04  0.00000000000E+00 0.  1.
         21   -1    0    0  502  503 -0.00000000000E+00 -0.00000000000E+00 -0.94737052647E+02  0.94737052647E+02  0.00000000000E+00 0.  1.
    9000007    1    1    2  501    0  0.23966854494E+03  0.86073758768E+02  0.12522100285E+04  0.13389845626E+04  0.40000000000E+03 0.  1.
   -9000007    1    1    2    0  503 -0.23966854494E+03 -0.86073758768E+02  0.10433466223E+04  0.11460461935E+04  0.40000000000E+03 0.  1.
<mgrwt>
<rscale>  2 0.47418320E+03</rscale>
<asrwt>0</asrwt>
<pdfrwt beam="1">  1       21 0.36773745E+00 0.47418320E+03</pdfrwt>
<pdfrwt beam="2">  1       21 0.14574933E-01 0.47418320E+03</pdfrwt>
<totfact> 0.43541862E+02</totfact>
</mgrwt>
</event>
<event>
 4    1  0.4758708E-002  0.5363163E+03  0.7818608E-02  0.1004712E+00
         21   -1    0    0  503  502  0.00000000000E+00  0.00000000000E+00  0.59209457887E+03  0.59209457887E+03  0.00000000000E+00 0. -1.
         21   -1    0    0  501  503 -0.00000000000E+00 -0.00000000000E+00 -0.93037025777E+03  0.93037025777E+03  0.00000000000E+00 0. -1.
    9000007    1    1    2  501    0  0.13315850111E+03  0.33151769816E+03 -0.69535278410E+03  0.87815184619E+03  0.40000000000E+03 0. -1.
   -9000007    1    1    2    0  502 -0.13315850111E+03 -0.33151769816E+03  0.35707710520E+03  0.64431299045E+03  0.40000000000E+03 0. -1.
<mgrwt>
<rscale>  2 0.53631630E+03</rscale>
<asrwt>0</asrwt>
<pdfrwt beam="1">  1       21 0.91091474E-01 0.53631630E+03</pdfrwt>
<pdfrwt beam="2">  1       21 0.14313388E+00 0.53631630E+03</pdfrwt>
<totfact> 0.27356063E+02</totfact>
</mgrwt>
</event>
<event>
 4    1  0.4758708E-002  0.5043004E+03  0.7818608E-02  0.1012663E+00
         21   -1    0    0  501  502  0.00000000000E+00  0.00000000000E+00  0.29173177377E+03  0.29173177377E+03  0.00000000000E+00 0.  1.
         21   -1    0    0  502  503 -0.00000000000E+00 -0.00000000000E+00 -0.87212029565E+03  0.87212029565E+03  0.00000000000E+00 0. -1.
    9000007    1    1    2  501    0 -0.26524666183E+01  0.30710228321E+03 -0.27829658037E+03  0.57599291191E+03  0.40000000000E+03 0.  1.
   -9000007    1    1    2    0  503  0.26524666183E+01 -0.30710228321E+03 -0.30209194152E+03  0.58785915750E+03  0.40000000000E+03 0. -1.
<mgrwt>
<rscale>  2 0.50430035E+03</rscale>
<asrwt>0</asrwt>
<pdfrwt beam="1">  1       21 0.44881812E-01 0.50430035E+03</pdfrwt>
<pdfrwt beam="2">  1       21 0.13417235E+00 0.50430035E+03</pdfrwt>
<totfact> 0.15929699E+03</totfact>
</mgrwt>
</event>
<event>
 4    1  0.4758708E-002  0.4191889E+03  0.7818608E-02  0.1037331E+00
         21   -1    0    0  501  502  0.00000000000E+00  0.00000000000E+00  0.11090079094E+04  0.11090079094E+04  0.00000000000E+00 0.  1.
         21   -1    0    0  502  503 -0.00000000000E+00 -0.00000000000E+00 -0.18977589122E+03  0.18977589122E+03  0.00000000000E+00 0.  1.
    9000007    1    1    2  501    0  0.12460574038E+03 -0.13883649053E+02  0.19576634389E+03  0.46264868707E+03  0.40000000000E+03 0.  1.
   -9000007    1    1    2    0  503 -0.12460574038E+03  0.13883649053E+02  0.72346567433E+03  0.83613511359E+03  0.40000000000E+03 0.  1.
<mgrwt>
<rscale>  2 0.41918891E+03</rscale>
<asrwt>0</asrwt>
<pdfrwt beam="1">  1       21 0.17061660E+00 0.41918891E+03</pdfrwt>
<pdfrwt beam="2">  1       21 0.29196292E-01 0.41918891E+03</pdfrwt>
<totfact> 0.20494741E+03</totfact>
</mgrwt>
</event>
<event>
 4    1  0.4758708E-002  0.4645973E+03  0.7818608E-02  0.1023456E+00
         21   -1    0    0  501  502  0.00000000000E+00  0.00000000000E+00  0.10757034968E+04  0.10757034968E+04  0.00000000000E+00 0. -1.
         21   -1    0    0  502  503 -0.00000000000E+00 -0.00000000000E+00 -0.22596278052E+03  0.22596278052E+03  0.00000000000E+00 0. -1.
    9000007    1    1    2  501    0 -0.19671423412E+03  0.13097382610E+03  0.64265917286E+03  0.79300784706E+03  0.40000000000E+03 0. -1.
   -9000007    1    1    2    0  503  0.19671423412E+03 -0.13097382610E+03  0.20708154338E+03  0.50865843022E+03  0.40000000000E+03 0. -1.
<mgrwt>
<rscale>  2 0.46459728E+03</rscale>
<asrwt>0</asrwt>
<pdfrwt beam="1">  1       21 0.16549284E+00 0.46459728E+03</pdfrwt>
<pdfrwt beam="2">  1       21 0.34763505E-01 0.46459728E+03</pdfrwt>
<totfact> 0.15462282E+03</totfact>
</mgrwt>
</event>
<event>
 4    1  0.4758708E-002  0.6366870E+03  0.7818608E-02  0.9832086E-01
         21   -1    0    0  501  502  0.00000000000E+00  0.00000000000E+00  0.10501114777E+04  0.10501114777E+04  0.00000000000E+00 0. -1.
         21   -1    0    0  502  503 -0.00000000000E+00 -0.00000000000E+00 -0.42209112890E+03  0.42209112890E+03  0.00000000000E+00 0.  1.
    9000007    1    1    2  501    0  0.29198880896E+03 -0.40014112282E+03  0.98842049461E+02  0.64431369183E+03  0.40000000000E+03 0.  1.
   -9000007    1    1    2    0  503 -0.29198880896E+03  0.40014112282E+03  0.52917829934E+03  0.82788891479E+03  0.40000000000E+03 0. -1.
<mgrwt>
<rscale>  2 0.63668704E+03</rscale>
<asrwt>0</asrwt>
<pdfrwt beam="1">  1       21 0.16155561E+00 0.63668704E+03</pdfrwt>
<pdfrwt beam="2">  1       21 0.64937097E-01 0.63668704E+03</pdfrwt>
<totfact> 0.41260777E+02</totfact>
</mgrwt>
</event>
<event>
 4    1  0.4758708E-002  0.4673091E+03  0.7818608E-02  0.1022682E+00
         21   -1    0    0  503  502  0.00000000000E+00  0.00000000000E+00  0.98484597865E+03  0.98484597865E+03  0.00000000000E+00 0. -1.
         21   -1    0    0  501  503 -0.00000000000E+00 -0.00000000000E+00 -0.23409594279E+03  0.23409594279E+03  0.00000000000E+00 0. -1.
    9000007    1    1    2  501    0 -0.22722489872E+03 -0.82137951348E+02  0.23534252931E+03  0.52322452518E+03  0.40000000000E+03 0. -1.
   -9000007    1    1    2    0  502  0.22722489872E+03  0.82137951348E+02  0.51540750655E+03  0.69571739626E+03  0.40000000000E+03 0. -1.
<mgrwt>
<rscale>  2 0.46730910E+03</rscale>
<asrwt>0</asrwt>
<pdfrwt beam="1">  1       21 0.15151476E+00 0.46730910E+03</pdfrwt>
<pdfrwt beam="2">  1       21 0.36014761E-01 0.46730910E+03</pdfrwt>
<totfact> 0.18368952E+03</totfact>
</mgrwt>
</event>
<event>
 4    1  0.4758708E-002  0.6388477E+03  0.7818608E-02  0.9827934E-01
         21   -1    0    0  501  502  0.00000000000E+00  0.00000000000E+00  0.36104453132E+03  0.36104453132E+03  0.00000000000E+00 0.  1.
         21   -1    0    0  502  503 -0.00000000000E+00 -0.00000000000E+00 -0.11991070302E+04  0.11991070302E+04  0.00000000000E+00 0. -1.
    9000007    1    1    2  501    0  0.35386773298E+03  0.35057671806E+03 -0.60575251998E+03  0.88037635313E+03  0.40000000000E+03 0. -1.
   -9000007    1    1    2    0  503 -0.35386773298E+03 -0.35057671806E+03 -0.23230997895E+03  0.67977520844E+03  0.40000000000E+03 0.  1.
<mgrwt>
<rscale>  2 0.63884772E+03</rscale>
<asrwt>0</asrwt>
<pdfrwt beam="1">  1       21 0.55545312E-01 0.63884772E+03</pdfrwt>
<pdfrwt beam="2">  1       21 0.18447801E+00 0.63884772E+03</pdfrwt>
<totfact> 0.39589773E+02</totfact>
</mgrwt>
</event>
<event>
 4    1  0.4758708E-002  0.5169794E+03  0.7818608E-02  0.1009440E+00
         21   -1    0    0  503  502  0.00000000000E+00  0.00000000000E+00  0.68653192820E+03  0.68653192820E+03  0.00000000000E+00 0. -1.
         21   -1    0    0  501  503 -0.00000000000E+00 -0.00000000000E+00 -0.39822705755E+03  0.39822705755E+03  0.00000000000E+00 0. -1.
    9000007    1    1    2  501    0  0.18732159652E+03 -0.26866021409E+03  0.62951077614E+02  0.52079797363E+03  0.40000000000E+03 0. -1.
   -9000007    1    1    2    0  502 -0.18732159652E+03  0.26866021409E+03  0.22535379304E+03  0.56396101213E+03  0.40000000000E+03 0. -1.
<mgrwt>
<rscale>  2 0.51697939E+03</rscale>
<asrwt>0</asrwt>
<pdfrwt beam="1">  1       21 0.10562030E+00 0.51697939E+03</pdfrwt>
<pdfrwt beam="2">  1       21 0.61265701E-01 0.51697939E+03</pdfrwt>
<totfact> 0.14931259E+03</totfact>
</mgrwt>
</event>
<event>
 4    1  0.4758708E-002  0.4111648E+03  0.7818608E-02  0.1039981E+00
         21   -1    0    0  503  502  0.00000000000E+00  0.00000000000E+00  0.18806436689E+03  0.18806436689E+03  0.00000000000E+00 0. -1.
         21   -1    0    0  501  503 -0.00000000000E+00 -0.00000000000E+00 -0.90232996133E+03  0.90232996133E+03  0.00000000000E+00 0. -1.
    9000007    1    1    2  501    0 -0.66889063846E+02 -0.67693194337E+02 -0.32366161785E+03  0.52327178243E+03  0.40000000000E+03 0. -1.
   -9000007    1    1    2    0  502  0.66889063846E+02  0.67693194337E+02 -0.39060397659E+03  0.56712254580E+03  0.40000000000E+03 0. -1.
<mgrwt>
<rscale>  2 0.41116483E+03</rscale>
<asrwt>0</asrwt>
<pdfrwt beam="1">  1       21 0.28932980E-01 0.41116483E+03</pdfrwt>
<pdfrwt beam="2">  1       21 0.13881999E+00 0.41116483E+03</pdfrwt>
<totfact> 0.36829906E+03</totfact>
</mgrwt>
</event>
<event>
 4    1  0.4758708E-002  0.5342618E+03  0.7818608E-02  0.1005204E+00
         21   -1    0    0  503  502  0.00000000000E+00  0.00000000000E+00  0.43547702508E+03  0.43547702508E+03  0.00000000000E+00 0. -1.
         21   -1    0    0  501  503 -0.00000000000E+00 -0.00000000000E+00 -0.66894359924E+03  0.66894359924E+03  0.00000000000E+00 0. -1.
    9000007    1    1    2  501    0  0.24672043941E+03  0.25409583900E+03 -0.19514669611E+03  0.56878634268E+03  0.40000000000E+03 0. -1.
   -9000007    1    1    2    0  502 -0.24672043941E+03 -0.25409583900E+03 -0.38319878050E+02  0.53563428164E+03  0.40000000000E+03 0. -1.
<mgrwt>
<rscale>  2 0.53426180E+03</rscale>
<asrwt>0</asrwt>
<pdfrwt beam="1">  1       21 0.66996466E-01 0.53426180E+03</pdfrwt>
<pdfrwt beam="2">  1       21 0.10291440E+00 0.53426180E+03</pdfrwt>
<totfact> 0.12972512E+03</totfact>
</mgrwt>
</event>
<event>
 4    1  0.4758708E-002  0.8547219E+03  0.7818608E-02  0.9484021E-01
         21   -1    0    0  503  502  0.00000000000E+00  0.00000000000E+00  0.77276702129E+03  0.77276702129E+03  0.00000000000E+00 0. -1.
         21   -1    0    0  501  503 -0.00000000000E+00 -0.00000000000E+00 -0.10291340501E+04  0.10291340501E+04  0.00000000000E+00 0. -1.
    9000007    1    1    2  501    0 -0.58025231534E+03 -0.48358735659E+03 -0.38522196540E+03  0.93752090298E+03  0.40000000000E+03 0. -1.
   -9000007    1    1    2    0  502  0.58025231534E+03  0.48358735659E+03  0.12885493656E+03  0.86438016843E+03  0.40000000000E+03 0. -1.
<mgrwt>
<rscale>  2 0.85472187E+03</rscale>
<asrwt>0</asrwt>
<pdfrwt beam="1">  1       21 0.11888723E+00 0.85472187E+03</pdfrwt>
<pdfrwt beam="2">  1       21 0.15832832E+00 0.85472187E+03</pdfrwt>
<totfact> 0.96321904E+01</totfact>
</mgrwt>
</event>
<event>
 4    1  0.4758708E-002  0.4686706E+03  0.7818608E-02  0.1022296E+00
         21   -1    0    0  501  502  0.00000000000E+00  0.00000000000E+00  0.36846296466E+03  0.36846296466E+03  0.00000000000E+00 0. -1.
         21   -1    0    0  502  503 -0.00000000000E+00 -0.00000000000E+00 -0.62936230170E+03  0.62936230170E+03  0.00000000000E+00 0.  1.
    9000007    1    1    2  501    0 -0.23503103294E+03  0.66426852840E+02 -0.15806210945E+02  0.46893704218E+03  0.40000000000E+03 0. -1.
   -9000007    1    1    2    0  503  0.23503103294E+03 -0.66426852840E+02 -0.24509312609E+03  0.52888822418E+03  0.40000000000E+03 0.  1.
<mgrwt>
<rscale>  2 0.46867058E+03</rscale>
<asrwt>0</asrwt>
<pdfrwt beam="1">  1       21 0.56686611E-01 0.46867058E+03</pdfrwt>
<pdfrwt beam="2">  1       21 0.96824968E-01 0.46867058E+03</pdfrwt>
<totfact> 0.22259843E+03</totfact>
</mgrwt>
</event>
<event>
 4    1  0.4758708E-002  0.5465504E+03  0.7818608E-02  0.1002296E+00
         21   -1    0    0  501  502  0.00000000000E+00  0.00000000000E+00  0.79077312140E+03  0.79077312140E+03  0.00000000000E+00 0.  1.
         21   -1    0    0  502  503 -0.00000000000E+00 -0.00000000000E+00 -0.37785579423E+03  0.37785579423E+03  0.00000000000E+00 0.  1.
    9000007    1    1    2  501    0 -0.91539048558E+02 -0.36102343278E+03  0.21607264963E+03  0.58771141417E+03  0.40000000000E+03 0.  1.
   -9000007    1    1    2    0  503  0.91539048558E+02  0.36102343278E+03  0.19684467754E+03  0.58091750146E+03  0.40000000000E+03 0.  1.
<mgrwt>
<rscale>  2 0.54655038E+03</rscale>
<asrwt>0</asrwt>
<pdfrwt beam="1">  1       21 0.12165740E+00 0.54655038E+03</pdfrwt>
<pdfrwt beam="2">  1       21 0.58131661E-01 0.54655038E+03</pdfrwt>
<totfact> 0.11634085E+03</totfact>
</mgrwt>
</event>
<event>
 4    1  0.4758708E-002  0.5102423E+03  0.7818608E-02  0.1011140E+00
         21   -1    0    0  501  502  0.00000000000E+00  0.00000000000E+00  0.16922164608E+04  0.16922164608E+04  0.00000000000E+00 0.  1.
         21   -1    0    0  502  503 -0.00000000000E+00 -0.00000000000E+00 -0.26060286887E+03  0.26060286887E+03  0.00000000000E+00 0.  1.
    9000007    1    1    2  501    0  0.90293218289E+02  0.30363527087E+03  0.13407385071E+04  0.14345476595E+04  0.40000000000E+03 0.  1.
   -9000007    1    1    2    0  503 -0.90293218289E+02 -0.30363527087E+03  0.90875084767E+02  0.51827167009E+03  0.40000000000E+03 0.  1.
<mgrwt>
<rscale>  2 0.51024234E+03</rscale>
<asrwt>0</asrwt>
<pdfrwt beam="1">  1       21 0.26034099E+00 0.51024234E+03</pdfrwt>
<pdfrwt beam="2">  1       21 0.40092750E-01 0.51024234E+03</pdfrwt>
<totfact> 0.26828293E+02</totfact>
</mgrwt>
</event>
<event>
 4    1  0.4758708E-002  0.4186505E+03  0.7818608E-02  0.1037506E+00
         21   -1    0    0  503  502  0.00000000000E+00  0.00000000000E+00  0.75392414497E+03  0.75392414497E+03  0.00000000000E+00 0. -1.
         21   -1    0    0  501  503 -0.00000000000E+00 -0.00000000000E+00 -0.26800520941E+03  0.26800520941E+03  0.00000000000E+00 0. -1.
    9000007    1    1    2  501    0 -0.11851245463E+03 -0.34971546211E+02  0.56913349198E+02  0.42250129025E+03  0.40000000000E+03 0. -1.
   -9000007    1    1    2    0  502  0.11851245463E+03  0.34971546211E+02  0.42900558636E+03  0.59942806414E+03  0.40000000000E+03 0. -1.
<mgrwt>
<rscale>  2 0.41865046E+03</rscale>
<asrwt>0</asrwt>
<pdfrwt beam="1">  1       21 0.11598833E+00 0.41865046E+03</pdfrwt>
<pdfrwt beam="2">  1       21 0.41231571E-01 0.41865046E+03</pdfrwt>
<totfact> 0.28529303E+03</totfact>
</mgrwt>
</event>
<event>
 4    1  0.4758708E-002  0.7480734E+03  0.7818608E-02  0.9638378E-01
         21   -1    0    0  503  502  0.00000000000E+00  0.00000000000E+00  0.15990262941E+04  0.15990262941E+04  0.00000000000E+00 0. -1.
         21   -1    0    0  501  503 -0.00000000000E+00 -0.00000000000E+00 -0.99948394259E+03  0.99948394259E+03  0.00000000000E+00 0. -1.
    9000007    1    1    2  501    0  0.49385423607E+03 -0.39461602972E+03 -0.74759905125E+03  0.10576001886E+04  0.40000000000E+03 0. -1.
   -9000007    1    1    2    0  502 -0.49385423607E+03  0.39461602972E+03  0.13471414027E+04  0.15409100481E+04  0.40000000000E+03 0. -1.
<mgrwt>
<rscale>  2 0.74807340E+03</rscale>
<asrwt>0</asrwt>
<pdfrwt beam="1">  1       21 0.24600405E+00 0.74807340E+03</pdfrwt>
<pdfrwt beam="2">  1       21 0.15376676E+00 0.74807340E+03</pdfrwt>
<totfact> 0.12530378E+01</totfact>
</mgrwt>
</event>
<event>
 4    1  0.4758708E-002  0.4519796E+03  0.7818608E-02  0.1027133E+00
         21   -1    0    0  501  502  0.00000000000E+00  0.00000000000E+00  0.45833508574E+03  0.45833508574E+03  0.00000000000E+00 0.  1.
         21   -1    0    0  502  503 -0.00000000000E+00 -0.00000000000E+00 -0.66240967390E+03  0.66240967390E+03  0.00000000000E+00 0.  1.
    9000007    1    1    2  501    0 -0.11140682062E+03 -0.17853303763E+03  0.21847179024E+03  0.50201140260E+03  0.40000000000E+03 0.  1.
   -9000007    1    1    2    0  503  0.11140682062E+03  0.17853303763E+03 -0.42254637841E+03  0.61873335704E+03  0.40000000000E+03 0.  1.
<mgrwt>
<rscale>  2 0.45197956E+03</rscale>
<asrwt>0</asrwt>
<pdfrwt beam="1">  1       21 0.70513090E-01 0.45197956E+03</pdfrwt>
<pdfrwt beam="2">  1       21 0.10190918E+00 0.45197956E+03</pdfrwt>
<totfact> 0.12205378E+03</totfact>
</mgrwt>
</event>
<event>
 4    1  0.4758708E-002  0.4341634E+03  0.7818608E-02  0.1032553E+00
         21   -1    0    0  503  502  0.00000000000E+00  0.00000000000E+00  0.15028674317E+04  0.15028674317E+04  0.00000000000E+00 0.  1.
         21   -1    0    0  501  503 -0.00000000000E+00 -0.00000000000E+00 -0.22698765047E+03  0.22698765047E+03  0.00000000000E+00 0.  1.
    9000007    1    1    2  501    0 -0.15276002756E+03 -0.71848753325E+02  0.59384961997E+02  0.43820593685E+03  0.40000000000E+03 0.  1.
   -9000007    1    1    2    0  502  0.15276002756E+03  0.71848753325E+02  0.12164948192E+04  0.12916491453E+04  0.40000000000E+03 0.  1.
<mgrwt>
<rscale>  2 0.43416341E+03</rscale>
<asrwt>0</asrwt>
<pdfrwt beam="1">  1       21 0.23121037E+00 0.43416341E+03</pdfrwt>
<pdfrwt beam="2">  1       21 0.34921178E-01 0.43416341E+03</pdfrwt>
<totfact> 0.56017118E+02</totfact>
</mgrwt>
</event>
<event>
 4    1  0.4758708E-002  0.4389337E+03  0.7818608E-02  0.1031074E+00
         21   -1    0    0  501  502  0.00000000000E+00  0.00000000000E+00  0.20663862379E+04  0.20663862379E+04  0.00000000000E+00 0. -1.
         21   -1    0    0  502  503 -0.00000000000E+00 -0.00000000000E+00 -0.10219091411E+03  0.10219091411E+03  0.00000000000E+00 0. -1.
    9000007    1    1    2  501    0 -0.16536171086E+03 -0.72926666505E+02  0.13030608980E+04  0.13750019992E+04  0.40000000000E+03 0. -1.
   -9000007    1    1    2    0  503  0.16536171086E+03  0.72926666505E+02  0.66113442585E+03  0.79357515281E+03  0.40000000000E+03 0. -1.
<mgrwt>
<rscale>  2 0.43893370E+03</rscale>
<asrwt>0</asrwt>
<pdfrwt beam="1">  1       21 0.31790554E+00 0.43893370E+03</pdfrwt>
<pdfrwt beam="2">  1       21 0.15721681E-01 0.43893370E+03</pdfrwt>
<totfact> 0.77917527E+02</totfact>
</mgrwt>
</event>
<event>
 4    1  0.4758708E-002  0.4245284E+03  0.7818608E-02  0.1035602E+00
         21   -1    0    0  501  502  0.00000000000E+00  0.00000000000E+00  0.88969424976E+03  0.88969424976E+03  0.00000000000E+00 0.  1.
         21   -1    0    0  502  503 -0.00000000000E+00 -0.00000000000E+00 -0.27452340576E+03  0.27452340576E+03  0.00000000000E+00 0.  1.
    9000007    1    1    2  501    0 -0.10266899365E+03 -0.98404640696E+02  0.60560408329E+03  0.73958143653E+03  0.40000000000E+03 0.  1.
   -9000007    1    1    2    0  503  0.10266899365E+03  0.98404640696E+02  0.95667607058E+01  0.42463621899E+03  0.40000000000E+03 0.  1.
<mgrwt>
<rscale>  2 0.42452844E+03</rscale>
<asrwt>0</asrwt>
<pdfrwt beam="1">  1       21 0.13687604E+00 0.42452844E+03</pdfrwt>
<pdfrwt beam="2">  1       21 0.42234371E-01 0.42452844E+03</pdfrwt>
<totfact> 0.17698636E+03</totfact>
</mgrwt>
</event>
<event>
 4    1  0.4758708E-002  0.4628904E+03  0.7818608E-02  0.1023946E+00
         21   -1    0    0  501  502  0.00000000000E+00  0.00000000000E+00  0.46222657631E+03  0.46222657631E+03  0.00000000000E+00 0. -1.
         21   -1    0    0  502  503 -0.00000000000E+00 -0.00000000000E+00 -0.88616309207E+03  0.88616309207E+03  0.00000000000E+00 0. -1.
    9000007    1    1    2  501    0 -0.21180147534E+02 -0.23198896364E+03  0.25361510657E+03  0.52781445621E+03  0.40000000000E+03 0. -1.
   -9000007    1    1    2    0  503  0.21180147534E+02  0.23198896364E+03 -0.67755162233E+03  0.82057521217E+03  0.40000000000E+03 0. -1.
<mgrwt>
<rscale>  2 0.46289035E+03</rscale>
<asrwt>0</asrwt>
<pdfrwt beam="1">  1       21 0.71111781E-01 0.46289035E+03</pdfrwt>
<pdfrwt beam="2">  1       21 0.13633278E+00 0.46289035E+03</pdfrwt>
<totfact> 0.57070942E+02</totfact>
</mgrwt>
</event>
<event>
 4    1  0.4758708E-002  0.4365256E+03  0.7818608E-02  0.1031818E+00
         21   -1    0    0  503  502  0.00000000000E+00  0.00000000000E+00  0.99922046443E+03  0.99922046443E+03  0.00000000000E+00 0. -1.
         21   -1    0    0  501  503 -0.00000000000E+00 -0.00000000000E+00 -0.37280608398E+03  0.37280608398E+03  0.00000000000E+00 0. -1.
    9000007    1    1    2  501    0 -0.81590909892E+02 -0.15458822349E+03 -0.16624948511E+03  0.46711185675E+03  0.40000000000E+03 0. -1.
   -9000007    1    1    2    0  502  0.81590909892E+02  0.15458822349E+03  0.79266386556E+03  0.90491469166E+03  0.40000000000E+03 0. -1.
<mgrwt>
<rscale>  2 0.43652560E+03</rscale>
<asrwt>0</asrwt>
<pdfrwt beam="1">  1       21 0.15372622E+00 0.43652560E+03</pdfrwt>
<pdfrwt beam="2">  1       21 0.57354783E-01 0.43652560E+03</pdfrwt>
<totfact> 0.67351809E+02</totfact>
</mgrwt>
</event>
<event>
 4    1  0.4758708E-002  0.4579142E+03  0.7818608E-02  0.1025388E+00
         21   -1    0    0  501  502  0.00000000000E+00  0.00000000000E+00  0.15216424116E+04  0.15216424116E+04  0.00000000000E+00 0.  1.
         21   -1    0    0  502  503 -0.00000000000E+00 -0.00000000000E+00 -0.19027316724E+03  0.19027316724E+03  0.00000000000E+00 0.  1.
    9000007    1    1    2  501    0 -0.96337257752E+02 -0.20100880836E+03  0.11151785475E+04  0.12055324969E+04  0.40000000000E+03 0.  1.
   -9000007    1    1    2    0  503  0.96337257752E+02  0.20100880836E+03  0.21619069687E+03  0.50638308195E+03  0.40000000000E+03 0.  1.
<mgrwt>
<rscale>  2 0.45791419E+03</rscale>
<asrwt>0</asrwt>
<pdfrwt beam="1">  1       21 0.23409882E+00 0.45791419E+03</pdfrwt>
<pdfrwt beam="2">  1       21 0.29272796E-01 0.45791419E+03</pdfrwt>
<totfact> 0.75567837E+02</totfact>
</mgrwt>
</event>
<event>
 4    1  0.4758708E-002  0.4172812E+03  0.7818608E-02  0.1037955E+00
         21   -1    0    0  503  502  0.00000000000E+00  0.00000000000E+00  0.45438348709E+03  0.45438348709E+03  0.00000000000E+00 0.  1.
         21   -1    0    0  501  503 -0.00000000000E+00 -0.00000000000E+00 -0.46790913606E+03  0.46790913606E+03  0.00000000000E+00 0.  1.
    9000007    1    1    2  501    0  0.11216429631E+03  0.39277805890E+02 -0.20296396760E+03  0.46402364977E+03  0.40000000000E+03 0.  1.
   -9000007    1    1    2    0  502 -0.11216429631E+03 -0.39277805890E+02  0.18943831863E+03  0.45826897338E+03  0.40000000000E+03 0.  1.
<mgrwt>
<rscale>  2 0.41728117E+03</rscale>
<asrwt>0</asrwt>
<pdfrwt beam="1">  1       21 0.69905152E-01 0.41728117E+03</pdfrwt>
<pdfrwt beam="2">  1       21 0.71986021E-01 0.41728117E+03</pdfrwt>
<totfact> 0.28496658E+03</totfact>
</mgrwt>
</event>
<event>
 4    1  0.4758708E-002  0.4008047E+03  0.7818608E-02  0.1043501E+00
         21   -1    0    0  501  502  0.00000000000E+00  0.00000000000E+00  0.20904365822E+04  0.20904365822E+04  0.00000000000E+00 0. -1.
         21   -1    0    0  502  503 -0.00000000000E+00 -0.00000000000E+00 -0.97162705893E+02  0.97162705893E+02  0.00000000000E+00 0. -1.
    9000007    1    1    2  501    0  0.24430396633E+01 -0.25267733713E+02  0.14967873475E+04  0.15495214714E+04  0.40000000000E+03 0. -1.
   -9000007    1    1    2    0  503 -0.24430396633E+01  0.25267733713E+02  0.49648652876E+03  0.63807781661E+03  0.40000000000E+03 0. -1.
<mgrwt>
<rscale>  2 0.40080472E+03</rscale>
<asrwt>0</asrwt>
<pdfrwt beam="1">  1       21 0.32160559E+00 0.40080472E+03</pdfrwt>
<pdfrwt beam="2">  1       21 0.14948110E-01 0.40080472E+03</pdfrwt>
<totfact> 0.83186135E+02</totfact>
</mgrwt>
</event>
<event>
 4    1  0.4758708E-002  0.5009170E+03  0.7818608E-02  0.1013540E+00
         21   -1    0    0  503  502  0.00000000000E+00  0.00000000000E+00  0.21224092185E+03  0.21224092185E+03  0.00000000000E+00 0.  1.
         21   -1    0    0  501  503 -0.00000000000E+00 -0.00000000000E+00 -0.15100314082E+04  0.15100314082E+04  0.00000000000E+00 0. -1.
    9000007    1    1    2  501    0  0.16777052019E+03  0.25054110859E+03 -0.10501161840E+04  0.11634697222E+04  0.40000000000E+03 0. -1.
   -9000007    1    1    2    0  502 -0.16777052019E+03 -0.25054110859E+03 -0.24767430238E+03  0.55880260790E+03  0.40000000000E+03 0.  1.
<mgrwt>
<rscale>  2 0.50091695E+03</rscale>
<asrwt>0</asrwt>
<pdfrwt beam="1">  1       21 0.32652450E-01 0.50091695E+03</pdfrwt>
<pdfrwt beam="2">  1       21 0.23231252E+00 0.50091695E+03</pdfrwt>
<totfact> 0.61092590E+02</totfact>
</mgrwt>
</event>
<event>
 4    1  0.4758708E-002  0.4659085E+03  0.7818608E-02  0.1023081E+00
         21   -1    0    0  501  502  0.00000000000E+00  0.00000000000E+00  0.14980292157E+04  0.14980292157E+04  0.00000000000E+00 0. -1.
         21   -1    0    0  502  503 -0.00000000000E+00 -0.00000000000E+00 -0.14776248168E+03  0.14776248168E+03  0.00000000000E+00 0. -1.
    9000007    1    1    2  501    0  0.97533402726E+02  0.21807782020E+03  0.56068316797E+03  0.72899678679E+03  0.40000000000E+03 0. -1.
   -9000007    1    1    2    0  503 -0.97533402726E+02 -0.21807782020E+03  0.78958356604E+03  0.91679491059E+03  0.40000000000E+03 0. -1.
<mgrwt>
<rscale>  2 0.46590847E+03</rscale>
<asrwt>0</asrwt>
<pdfrwt beam="1">  1       21 0.23046602E+00 0.46590847E+03</pdfrwt>
<pdfrwt beam="2">  1       21 0.22732691E-01 0.46590847E+03</pdfrwt>
<totfact> 0.13005076E+03</totfact>
</mgrwt>
</event>
<event>
 4    1  0.4758708E-002  0.7160483E+03  0.7818608E-02  0.9690174E-01
         21   -1    0    0  503  502  0.00000000000E+00  0.00000000000E+00  0.85903752856E+03  0.85903752856E+03  0.00000000000E+00 0. -1.
         21   -1    0    0  501  503 -0.00000000000E+00 -0.00000000000E+00 -0.19513358871E+04  0.19513358871E+04  0.00000000000E+00 0.  1.
    9000007    1    1    2  501    0 -0.49020844270E+03 -0.33529223117E+03 -0.17168708170E+04  0.18602071389E+04  0.40000000000E+03 0.  1.
   -9000007    1    1    2    0  502  0.49020844270E+03  0.33529223117E+03  0.62457245844E+03  0.95016627672E+03  0.40000000000E+03 0. -1.
<mgrwt>
<rscale>  2 0.71604832E+03</rscale>
<asrwt>0</asrwt>
<pdfrwt beam="1">  1       21 0.13215962E+00 0.71604832E+03</pdfrwt>
<pdfrwt beam="2">  1       21 0.30020552E+00 0.71604832E+03</pdfrwt>
<totfact> 0.88488607E+00</totfact>
</mgrwt>
</event>
<event>
 4    1  0.4758708E-002  0.4089417E+03  0.7818608E-02  0.1040727E+00
         21   -1    0    0  501  502  0.00000000000E+00  0.00000000000E+00  0.73743251259E+03  0.73743251259E+03  0.00000000000E+00 0.  1.
         21   -1    0    0  502  503 -0.00000000000E+00 -0.00000000000E+00 -0.23049570327E+03  0.23049570327E+03  0.00000000000E+00 0.  1.
    9000007    1    1    2  501    0  0.83669346408E+02  0.15256248162E+02  0.19200288042E+03  0.45177252985E+03  0.40000000000E+03 0.  1.
   -9000007    1    1    2    0  503 -0.83669346408E+02 -0.15256248162E+02  0.31493392889E+03  0.51615568601E+03  0.40000000000E+03 0.  1.
<mgrwt>
<rscale>  2 0.40894170E+03</rscale>
<asrwt>0</asrwt>
<pdfrwt beam="1">  1       21 0.11345115E+00 0.40894170E+03</pdfrwt>
<pdfrwt beam="2">  1       21 0.35460878E-01 0.40894170E+03</pdfrwt>
<totfact> 0.41180773E+03</totfact>
</mgrwt>
</event>
<event>
 4    1  0.4758708E-002  0.7011197E+03  0.7818608E-02  0.9715319E-01
         21   -1    0    0  501  502  0.00000000000E+00  0.00000000000E+00  0.93986457014E+03  0.93986457014E+03  0.00000000000E+00 0.  1.
         21   -1    0    0  502  503 -0.00000000000E+00 -0.00000000000E+00 -0.53306561449E+03  0.53306561449E+03  0.00000000000E+00 0. -1.
    9000007    1    1    2  501    0 -0.14167736192E+03  0.55811859547E+03  0.10230440647E+03  0.70854430565E+03  0.40000000000E+03 0. -1.
   -9000007    1    1    2    0  503  0.14167736192E+03 -0.55811859547E+03  0.30449454918E+03  0.76438587897E+03  0.40000000000E+03 0.  1.
<mgrwt>
<rscale>  2 0.70111971E+03</rscale>
<asrwt>0</asrwt>
<pdfrwt beam="1">  1       21 0.14459455E+00 0.70111971E+03</pdfrwt>
<pdfrwt beam="2">  1       21 0.82010095E-01 0.70111971E+03</pdfrwt>
<totfact> 0.32221600E+02</totfact>
</mgrwt>
</event>
<event>
 4    1  0.4758708E-002  0.4254086E+03  0.7818608E-02  0.1035320E+00
         21   -1    0    0  503  502  0.00000000000E+00  0.00000000000E+00  0.13061061776E+03  0.13061061776E+03  0.00000000000E+00 0.  1.
         21   -1    0    0  501  503 -0.00000000000E+00 -0.00000000000E+00 -0.20097448287E+04  0.20097448287E+04  0.00000000000E+00 0. -1.
    9000007    1    1    2  501    0 -0.10062223601E+03  0.10415206984E+03 -0.15359598535E+04  0.15937832850E+04  0.40000000000E+03 0. -1.
   -9000007    1    1    2    0  502  0.10062223601E+03 -0.10415206984E+03 -0.34317435738E+03  0.54657216138E+03  0.40000000000E+03 0.  1.
<mgrwt>
<rscale>  2 0.42540861E+03</rscale>
<asrwt>0</asrwt>
<pdfrwt beam="1">  1       21 0.20093940E-01 0.42540861E+03</pdfrwt>
<pdfrwt beam="2">  1       21 0.30919152E+00 0.42540861E+03</pdfrwt>
<totfact> 0.55852544E+02</totfact>
</mgrwt>
</event>
<event>
 4    1  0.4758708E-002  0.5308457E+03  0.7818608E-02  0.1006027E+00
         21   -1    0    0  501  502  0.00000000000E+00  0.00000000000E+00  0.57100154147E+03  0.57100154147E+03  0.00000000000E+00 0.  1.
         21   -1    0    0  502  503 -0.00000000000E+00 -0.00000000000E+00 -0.49436030946E+03  0.49436030946E+03  0.00000000000E+00 0.  1.
    9000007    1    1    2  501    0 -0.26906604590E+03  0.22226252317E+03  0.60362550070E+02  0.53426660359E+03  0.40000000000E+03 0.  1.
   -9000007    1    1    2    0  503  0.26906604590E+03 -0.22226252317E+03  0.16278681935E+02  0.53109524734E+03  0.40000000000E+03 0.  1.
<mgrwt>
<rscale>  2 0.53084571E+03</rscale>
<asrwt>0</asrwt>
<pdfrwt beam="1">  1       21 0.87846391E-01 0.53084571E+03</pdfrwt>
<pdfrwt beam="2">  1       21 0.76055432E-01 0.53084571E+03</pdfrwt>
<totfact> 0.14264226E+03</totfact>
</mgrwt>
</event>
<event>
 4    1  0.4758708E-002  0.4603652E+03  0.7818608E-02  0.1024675E+00
         21   -1    0    0  503  502  0.00000000000E+00  0.00000000000E+00  0.34417423749E+03  0.34417423749E+03  0.00000000000E+00 0.  1.
         21   -1    0    0  501  503 -0.00000000000E+00 -0.00000000000E+00 -0.71235518686E+03  0.71235518686E+03  0.00000000000E+00 0.  1.
    9000007    1    1    2  501    0  0.21586870308E+03 -0.73053280675E+02  0.10415539487E+02  0.46048296630E+03  0.40000000000E+03 0.  1.
   -9000007    1    1    2    0  502 -0.21586870308E+03  0.73053280675E+02 -0.37859648885E+03  0.59604645805E+03  0.40000000000E+03 0.  1.
<mgrwt>
<rscale>  2 0.46036516E+03</rscale>
<asrwt>0</asrwt>
<pdfrwt beam="1">  1       21 0.52949883E-01 0.46036516E+03</pdfrwt>
<pdfrwt beam="2">  1       21 0.10959311E+00 0.46036516E+03</pdfrwt>
<totfact> 0.19097396E+03</totfact>
</mgrwt>
</event>
<event>
 4    1  0.4758708E-002  0.4538450E+03  0.7818608E-02  0.1026582E+00
         21   -1    0    0  501  502  0.00000000000E+00  0.00000000000E+00  0.91198364142E+03  0.91198364142E+03  0.00000000000E+00 0. -1.
         21   -1    0    0  502  503 -0.00000000000E+00 -0.00000000000E+00 -0.23613726771E+03  0.23613726771E+03  0.00000000000E+00 0. -1.
    9000007    1    1    2  501    0  0.25706784603E+02 -0.21287195657E+03  0.21812856021E+03  0.50354282583E+03  0.40000000000E+03 0. -1.
   -9000007    1    1    2    0  503 -0.25706784603E+02  0.21287195657E+03  0.45771781351E+03  0.64457808330E+03  0.40000000000E+03 0. -1.
<mgrwt>
<rscale>  2 0.45384503E+03</rscale>
<asrwt>0</asrwt>
<pdfrwt beam="1">  1       21 0.14030517E+00 0.45384503E+03</pdfrwt>
<pdfrwt beam="2">  1       21 0.36328811E-01 0.45384503E+03</pdfrwt>
<totfact> 0.22317397E+03</totfact>
</mgrwt>
</event>
<event>
 4    1  0.4758708E-002  0.4762843E+03  0.7818608E-02  0.1020161E+00
         21   -1    0    0  501  502  0.00000000000E+00  0.00000000000E+00  0.10226674155E+04  0.10226674155E+04  0.00000000000E+00 0. -1.
         21   -1    0    0  502  503 -0.00000000000E+00 -0.00000000000E+00 -0.22699920130E+03  0.22699920130E+03  0.00000000000E+00 0. -1.
    9000007    1    1    2  501    0  0.23091960836E+03 -0.11628796176E+03  0.49222670634E+03  0.68493349021E+03  0.40000000000E+03 0. -1.
   -9000007    1    1    2    0  503 -0.23091960836E+03  0.11628796176E+03  0.30344150785E+03  0.56473312658E+03  0.40000000000E+03 0. -1.
<mgrwt>
<rscale>  2 0.47628432E+03</rscale>
<asrwt>0</asrwt>
<pdfrwt beam="1">  1       21 0.15733345E+00 0.47628432E+03</pdfrwt>
<pdfrwt beam="2">  1       21 0.34922955E-01 0.47628432E+03</pdfrwt>
<totfact> 0.17567542E+03</totfact>
</mgrwt>
</event>
<event>
 4    1  0.4758708E-002  0.4009920E+03  0.7818608E-02  0.1043437E+00
         21   -1    0    0  501  502  0.00000000000E+00  0.00000000000E+00  0.64800952247E+03  0.64800952247E+03  0.00000000000E+00 0.  1.
         21   -1    0    0  502  503 -0.00000000000E+00 -0.00000000000E+00 -0.26885569957E+03  0.26885569957E+03  0.00000000000E+00 0.  1.
    9000007    1    1    2  501    0 -0.20824171096E+02  0.18998157379E+02  0.31684110474E+03  0.51106052649E+03  0.40000000000E+03 0.  1.
   -9000007    1    1    2    0  503  0.20824171096E+02 -0.18998157379E+02  0.62312718154E+02  0.40580469555E+03  0.40000000000E+03 0.  1.
<mgrwt>
<rscale>  2 0.40099199E+03</rscale>
<asrwt>0</asrwt>
<pdfrwt beam="1">  1       21 0.99693772E-01 0.40099199E+03</pdfrwt>
<pdfrwt beam="2">  1       21 0.41362416E-01 0.40099199E+03</pdfrwt>
<totfact> 0.41445959E+03</totfact>
</mgrwt>
</event>
<event>
 4    1  0.4758708E-002  0.4458646E+03  0.7818608E-02  0.1028962E+00
         21   -1    0    0  503  502  0.00000000000E+00  0.00000000000E+00  0.30330421956E+03  0.30330421956E+03  0.00000000000E+00 0.  1.
         21   -1    0    0  501  503 -0.00000000000E+00 -0.00000000000E+00 -0.66613797803E+03  0.66613797803E+03  0.00000000000E+00 0.  1.
    9000007    1    1    2  501    0 -0.52925234917E+02  0.18972128255E+03 -0.24286746912E+03  0.50772025083E+03  0.40000000000E+03 0.  1.
   -9000007    1    1    2    0  502  0.52925234917E+02 -0.18972128255E+03 -0.11996628935E+03  0.46172194676E+03  0.40000000000E+03 0.  1.
<mgrwt>
<rscale>  2 0.44586460E+03</rscale>
<asrwt>0</asrwt>
<pdfrwt beam="1">  1       21 0.46662188E-01 0.44586460E+03</pdfrwt>
<pdfrwt beam="2">  1       21 0.10248276E+00 0.44586460E+03</pdfrwt>
<totfact> 0.29636720E+03</totfact>
</mgrwt>
</event>
<event>
 4    1  0.4758708E-002  0.4116476E+03  0.7818608E-02  0.1039820E+00
         21   -1    0    0  503  502  0.00000000000E+00  0.00000000000E+00  0.90147477583E+03  0.90147477583E+03  0.00000000000E+00 0. -1.
         21   -1    0    0  501  503 -0.00000000000E+00 -0.00000000000E+00 -0.19085881140E+03  0.19085881140E+03  0.00000000000E+00 0. -1.
    9000007    1    1    2  501    0 -0.97054758455E+02 -0.58442368290E+01  0.28816028972E+03  0.50248396374E+03  0.40000000000E+03 0. -1.
   -9000007    1    1    2    0  502  0.97054758455E+02  0.58442368290E+01  0.42245567471E+03  0.58984962349E+03  0.40000000000E+03 0. -1.
<mgrwt>
<rscale>  2 0.41164764E+03</rscale>
<asrwt>0</asrwt>
<pdfrwt beam="1">  1       21 0.13868842E+00 0.41164764E+03</pdfrwt>
<pdfrwt beam="2">  1       21 0.29362895E-01 0.41164764E+03</pdfrwt>
<totfact> 0.35854705E+03</totfact>
</mgrwt>
</event>
<event>
 4    1  0.4758708E-002  0.4904968E+03  0.7818608E-02  0.1016290E+00
         21   -1    0    0  501  502  0.00000000000E+00  0.00000000000E+00  0.87576944226E+03  0.87576944226E+03  0.00000000000E+00 0. -1.
         21   -1    0    0  502  503 -0.00000000000E+00 -0.00000000000E+00 -0.28474884308E+03  0.28474884308E+03  0.00000000000E+00 0. -1.
    9000007    1    1    2  501    0  0.94940544291E+02 -0.26753197257E+03  0.40443419228E+03  0.63573113750E+03  0.40000000000E+03 0. -1.
   -9000007    1    1    2    0  503 -0.94940544291E+02  0.26753197257E+03  0.18658640690E+03  0.52478714784E+03  0.40000000000E+03 0. -1.
<mgrwt>
<rscale>  2 0.49049675E+03</rscale>
<asrwt>0</asrwt>
<pdfrwt beam="1">  1       21 0.13473376E+00 0.49049675E+03</pdfrwt>
<pdfrwt beam="2">  1       21 0.43807515E-01 0.49049675E+03</pdfrwt>
<totfact> 0.16658115E+03</totfact>
</mgrwt>
</event>
<event>
 4    1  0.4758708E-002  0.4035227E+03  0.7818608E-02  0.1042567E+00
         21   -1    0    0  503  502  0.00000000000E+00  0.00000000000E+00  0.13301589823E+04  0.13301589823E+04  0.00000000000E+00 0.  1.
         21   -1    0    0  501  503 -0.00000000000E+00 -0.00000000000E+00 -0.16909202061E+03  0.16909202061E+03  0.00000000000E+00 0.  1.
    9000007    1    1    2  501    0 -0.36582714989E+00  0.53202129021E+02  0.97438923699E+03  0.10546397421E+04  0.40000000000E+03 0.  1.
   -9000007    1    1    2    0  502  0.36582714989E+00 -0.53202129021E+02  0.18667772465E+03  0.44461126081E+03  0.40000000000E+03 0.  1.
<mgrwt>
<rscale>  2 0.40352274E+03</rscale>
<asrwt>0</asrwt>
<pdfrwt beam="1">  1       21 0.20463984E+00 0.40352274E+03</pdfrwt>
<pdfrwt beam="2">  1       21 0.26014158E-01 0.40352274E+03</pdfrwt>
<totfact> 0.15107263E+03</totfact>
</mgrwt>
</event>
<event>
 4    1  0.4758708E-002  0.4140076E+03  0.7818608E-02  0.1039034E+00
         21   -1    0    0  501  502  0.00000000000E+00  0.00000000000E+00  0.39361725482E+03  0.39361725482E+03  0.00000000000E+00 0. -1.
         21   -1    0    0  502  503 -0.00000000000E+00 -0.00000000000E+00 -0.12274279796E+04  0.12274279796E+04  0.00000000000E+00 0.  1.
    9000007    1    1    2  501    0 -0.52690189815E+02 -0.92876344304E+02  0.23415692701E+03  0.47563824268E+03  0.40000000000E+03 0. -1.
   -9000007    1    1    2    0  503  0.52690189815E+02  0.92876344304E+02 -0.10679676518E+04  0.11454069917E+04  0.40000000000E+03 0.  1.
<mgrwt>
<rscale>  2 0.41400757E+03</rscale>
<asrwt>0</asrwt>
<pdfrwt beam="1">  1       21 0.60556502E-01 0.41400757E+03</pdfrwt>
<pdfrwt beam="2">  1       21 0.18883507E+00 0.41400757E+03</pdfrwt>
<totfact> 0.33657956E+02</totfact>
</mgrwt>
</event>
<event>
 4    1  0.4758708E-002  0.5451461E+03  0.7818608E-02  0.1002624E+00
         21   -1    0    0  503  502  0.00000000000E+00  0.00000000000E+00  0.36298975639E+03  0.36298975639E+03  0.00000000000E+00 0. -1.
         21   -1    0    0  501  503 -0.00000000000E+00 -0.00000000000E+00 -0.84064762777E+03  0.84064762777E+03  0.00000000000E+00 0.  1.
    9000007    1    1    2  501    0  0.21633350248E+01  0.37037769214E+03 -0.33604253377E+03  0.64039745420E+03  0.40000000000E+03 0.  1.
   -9000007    1    1    2    0  502 -0.21633350248E+01 -0.37037769214E+03 -0.14161533762E+03  0.56323992996E+03  0.40000000000E+03 0.  1.
<mgrwt>
<rscale>  2 0.54514614E+03</rscale>
<asrwt>0</asrwt>
<pdfrwt beam="1">  1       21 0.55844579E-01 0.54514614E+03</pdfrwt>
<pdfrwt beam="2">  1       21 0.12933040E+00 0.54514614E+03</pdfrwt>
<totfact> 0.10844240E+03</totfact>
</mgrwt>
</event>
<event>
 4    1  0.4758708E-002  0.4773990E+03  0.7818608E-02  0.1019852E+00
         21   -1    0    0  501  502  0.00000000000E+00  0.00000000000E+00  0.58359133578E+03  0.58359133578E+03  0.00000000000E+00 0.  1.
         21   -1    0    0  502  503 -0.00000000000E+00 -0.00000000000E+00 -0.42395338714E+03  0.42395338714E+03  0.00000000000E+00 0.  1.
    9000007    1    1    2  501    0  0.13765888692E+03  0.22126871333E+03  0.22126858477E+03  0.52618399752E+03  0.40000000000E+03 0. -1.
   -9000007    1    1    2    0  503 -0.13765888692E+03 -0.22126871333E+03 -0.61630636125E+02  0.48136072540E+03  0.40000000000E+03 0. -1.
<mgrwt>
<rscale>  2 0.47739901E+03</rscale>
<asrwt>0</asrwt>
<pdfrwt beam="1">  1       21 0.89783282E-01 0.47739901E+03</pdfrwt>
<pdfrwt beam="2">  1       21 0.65223598E-01 0.47739901E+03</pdfrwt>
<totfact> 0.19523118E+03</totfact>
</mgrwt>
</event>
<event>
 4    1  0.4758708E-002  0.4093879E+03  0.7818608E-02  0.1040577E+00
         21   -1    0    0  501  502  0.00000000000E+00  0.00000000000E+00  0.34906050104E+03  0.34906050104E+03  0.00000000000E+00 0.  1.
         21   -1    0    0  502  503 -0.00000000000E+00 -0.00000000000E+00 -0.85172211776E+03  0.85172211776E+03  0.00000000000E+00 0. -1.
    9000007    1    1    2  501    0  0.54334148891E+02  0.68163523508E+02  0.14523193052E+03  0.43438551923E+03  0.40000000000E+03 0.  1.
   -9000007    1    1    2    0  503 -0.54334148891E+02 -0.68163523508E+02 -0.64789354724E+03  0.76639709957E+03  0.40000000000E+03 0. -1.
<mgrwt>
<rscale>  2 0.40938792E+03</rscale>
<asrwt>0</asrwt>
<pdfrwt beam="1">  1       21 0.53701616E-01 0.40938792E+03</pdfrwt>
<pdfrwt beam="2">  1       21 0.13103417E+00 0.40938792E+03</pdfrwt>
<totfact> 0.12027271E+03</totfact>
</mgrwt>
</event>
<event>
 4    1  0.4758708E-002  0.4725676E+03  0.7818608E-02  0.1021198E+00
         21   -1    0    0  503  502  0.00000000000E+00  0.00000000000E+00  0.10999920942E+03  0.10999920942E+03  0.00000000000E+00 0.  1.
         21   -1    0    0  501  503 -0.00000000000E+00 -0.00000000000E+00 -0.21458188344E+04  0.21458188344E+04  0.00000000000E+00 0. -1.
    9000007    1    1    2  501    0 -0.23629908302E+03  0.86503833102E+02 -0.12797255102E+04  0.13641911710E+04  0.40000000000E+03 0. -1.
   -9000007    1    1    2    0  502  0.23629908302E+03 -0.86503833102E+02 -0.75609411479E+03  0.89162687274E+03  0.40000000000E+03 0.  1.
<mgrwt>
<rscale>  2 0.47256764E+03</rscale>
<asrwt>0</asrwt>
<pdfrwt beam="1">  1       21 0.16922957E-01 0.47256764E+03</pdfrwt>
<pdfrwt beam="2">  1       21 0.33012595E+00 0.47256764E+03</pdfrwt>
<totfact> 0.56186278E+02</totfact>
</mgrwt>
</event>
<event>
 4    1  0.4758708E-002  0.5030306E+03  0.7818608E-02  0.1012991E+00
         21   -1    0    0  501  502  0.00000000000E+00  0.00000000000E+00  0.62313497037E+03  0.62313497037E+03  0.00000000000E+00 0.  1.
         21   -1    0    0  502  503 -0.00000000000E+00 -0.00000000000E+00 -0.40917617583E+03  0.40917617583E+03  0.00000000000E+00 0.  1.
    9000007    1    1    2  501    0 -0.30289705128E+03  0.35960926630E+02  0.62047235596E+02  0.50684284681E+03  0.40000000000E+03 0.  1.
   -9000007    1    1    2    0  503  0.30289705128E+03 -0.35960926630E+02  0.15191155895E+03  0.52546829939E+03  0.40000000000E+03 0.  1.
<mgrwt>
<rscale>  2 0.50303063E+03</rscale>
<asrwt>0</asrwt>
<pdfrwt beam="1">  1       21 0.95866919E-01 0.50303063E+03</pdfrwt>
<pdfrwt beam="2">  1       21 0.62950181E-01 0.50303063E+03</pdfrwt>
<totfact> 0.17900452E+03</totfact>
</mgrwt>
</event>
<event>
 4    1  0.4758708E-002  0.4288462E+03  0.7818608E-02  0.1034225E+00
         21   -1    0    0  503  502  0.00000000000E+00  0.00000000000E+00  0.43175004775E+03  0.43175004775E+03  0.00000000000E+00 0. -1.
         21   -1    0    0  501  503 -0.00000000000E+00 -0.00000000000E+00 -0.47046277394E+03  0.47046277394E+03  0.00000000000E+00 0. -1.
    9000007    1    1    2  501    0 -0.84786434654E+02 -0.12930694357E+03 -0.15809619083E+03  0.45705954832E+03  0.40000000000E+03 0.  1.
   -9000007    1    1    2    0  502  0.84786434654E+02  0.12930694357E+03  0.11938346464E+03  0.44515327336E+03  0.40000000000E+03 0.  1.
<mgrwt>
<rscale>  2 0.42884616E+03</rscale>
<asrwt>0</asrwt>
<pdfrwt beam="1">  1       21 0.66423084E-01 0.42884616E+03</pdfrwt>
<pdfrwt beam="2">  1       21 0.72378888E-01 0.42884616E+03</pdfrwt>
<totfact> 0.31421113E+03</totfact>
</mgrwt>
</event>
<event>
 4    1  0.4758708E-002  0.4352704E+03  0.7818608E-02  0.1032208E+00
         21   -1    0    0  503  502  0.00000000000E+00  0.00000000000E+00  0.15794359283E+04  0.15794359283E+04  0.00000000000E+00 0.  1.
         21   -1    0    0  501  503 -0.00000000000E+00 -0.00000000000E+00 -0.12764916753E+03  0.12764916753E+03  0.00000000000E+00 0.  1.
    9000007    1    1    2  501    0  0.12587436782E+03  0.11668751790E+03  0.51633108639E+03  0.67532075644E+03  0.40000000000E+03 0.  1.
   -9000007    1    1    2    0  502 -0.12587436782E+03 -0.11668751790E+03  0.93545567443E+03  0.10317643394E+04  0.40000000000E+03 0.  1.
<mgrwt>
<rscale>  2 0.43527041E+03</rscale>
<asrwt>0</asrwt>
<pdfrwt beam="1">  1       21 0.24299013E+00 0.43527041E+03</pdfrwt>
<pdfrwt beam="2">  1       21 0.19638335E-01 0.43527041E+03</pdfrwt>
<totfact> 0.14584798E+03</totfact>
</mgrwt>
</event>
<event>
 4    1  0.4758708E-002  0.4320163E+03  0.7818608E-02  0.1033225E+00
         21   -1    0    0  501  502  0.00000000000E+00  0.00000000000E+00  0.39978075233E+03  0.39978075233E+03  0.00000000000E+00 0.  1.
         21   -1    0    0  502  503 -0.00000000000E+00 -0.00000000000E+00 -0.50070410685E+03  0.50070410685E+03  0.00000000000E+00 0.  1.
    9000007    1    1    2  501    0 -0.15738861244E+03 -0.43208052845E+02  0.66610590540E+02  0.43712135835E+03  0.40000000000E+03 0. -1.
   -9000007    1    1    2    0  503  0.15738861244E+03  0.43208052845E+02 -0.16753394506E+03  0.46336350083E+03  0.40000000000E+03 0. -1.
<mgrwt>
<rscale>  2 0.43201633E+03</rscale>
<asrwt>0</asrwt>
<pdfrwt beam="1">  1       21 0.61504731E-01 0.43201633E+03</pdfrwt>
<pdfrwt beam="2">  1       21 0.77031401E-01 0.43201633E+03</pdfrwt>
<totfact> 0.32290080E+03</totfact>
</mgrwt>
</event>
<event>
 4    1  0.4758708E-002  0.4847537E+03  0.7818608E-02  0.1017837E+00
         21   -1    0    0  503  502  0.00000000000E+00  0.00000000000E+00  0.60761536048E+03  0.60761536048E+03  0.00000000000E+00 0. -1.
         21   -1    0    0  501  503 -0.00000000000E+00 -0.00000000000E+00 -0.78577971782E+03  0.78577971782E+03  0.00000000000E+00 0.  1.
    9000007    1    1    2  501    0 -0.25735139448E+03 -0.93575566442E+02 -0.58556548672E+03  0.76017962753E+03  0.40000000000E+03 0.  1.
   -9000007    1    1    2    0  502  0.25735139448E+03  0.93575566442E+02  0.40740112938E+03  0.63321545077E+03  0.40000000000E+03 0. -1.
<mgrwt>
<rscale>  2 0.48475368E+03</rscale>
<asrwt>0</asrwt>
<pdfrwt beam="1">  1       21 0.93479286E-01 0.48475368E+03</pdfrwt>
<pdfrwt beam="2">  1       21 0.12088919E+00 0.48475368E+03</pdfrwt>
<totfact> 0.40886606E+02</totfact>
</mgrwt>
</event>
<event>
 4    1  0.4758708E-002  0.4070359E+03  0.7818608E-02  0.1041370E+00
         21   -1    0    0  501  502  0.00000000000E+00  0.00000000000E+00  0.22193556298E+04  0.22193556298E+04  0.00000000000E+00 0. -1.
         21   -1    0    0  502  503 -0.00000000000E+00 -0.00000000000E+00 -0.96614031824E+02  0.96614031824E+02  0.00000000000E+00 0. -1.
    9000007    1    1    2  501    0  0.24666912169E+02  0.71202350515E+02  0.16134786835E+04  0.16640287538E+04  0.40000000000E+03 0. -1.
   -9000007    1    1    2    0  503 -0.24666912169E+02 -0.71202350515E+02  0.50926291449E+03  0.65194090787E+03  0.40000000000E+03 0. -1.
<mgrwt>
<rscale>  2 0.40703591E+03</rscale>
<asrwt>0</asrwt>
<pdfrwt beam="1">  1       21 0.34143929E+00 0.40703591E+03</pdfrwt>
<pdfrwt beam="2">  1       21 0.14863699E-01 0.40703591E+03</pdfrwt>
<totfact> 0.63532085E+02</totfact>
</mgrwt>
</event>
<event>
 4    1  0.4758708E-002  0.4628052E+03  0.7818608E-02  0.1023971E+00
         21   -1    0    0  503  502  0.00000000000E+00  0.00000000000E+00  0.13886376914E+04  0.13886376914E+04  0.00000000000E+00 0.  1.
         21   -1    0    0  501  503 -0.00000000000E+00 -0.00000000000E+00 -0.29374257817E+03  0.29374257817E+03  0.00000000000E+00 0.  1.
    9000007    1    1    2  501    0  0.18112466329E+03 -0.14622761415E+03 -0.32242737048E+02  0.46392699090E+03  0.40000000000E+03 0.  1.
   -9000007    1    1    2    0  502 -0.18112466329E+03  0.14622761415E+03  0.11271378503E+04  0.12184532787E+04  0.40000000000E+03 0.  1.
<mgrwt>
<rscale>  2 0.46280521E+03</rscale>
<asrwt>0</asrwt>
<pdfrwt beam="1">  1       21 0.21363656E+00 0.46280521E+03</pdfrwt>
<pdfrwt beam="2">  1       21 0.45191167E-01 0.46280521E+03</pdfrwt>
<totfact> 0.42017055E+02</totfact>
</mgrwt>
</event>
<event>
 4    1  0.4758708E-002  0.4325169E+03  0.7818608E-02  0.1033068E+00
         21   -1    0    0  503  502  0.00000000000E+00  0.00000000000E+00  0.71437985224E+03  0.71437985224E+03  0.00000000000E+00 0. -1.
         21   -1    0    0  501  503 -0.00000000000E+00 -0.00000000000E+00 -0.26563672312E+03  0.26563672312E+03  0.00000000000E+00 0. -1.
    9000007    1    1    2  501    0 -0.45704069175E+02 -0.15805687870E+03  0.28276293995E+03  0.51674531353E+03  0.40000000000E+03 0. -1.
   -9000007    1    1    2    0  502  0.45704069175E+02  0.15805687870E+03  0.16598018917E+03  0.46327126183E+03  0.40000000000E+03 0. -1.
<mgrwt>
<rscale>  2 0.43251687E+03</rscale>
<asrwt>0</asrwt>
<pdfrwt beam="1">  1       21 0.10990459E+00 0.43251687E+03</pdfrwt>
<pdfrwt beam="2">  1       21 0.40867188E-01 0.43251687E+03</pdfrwt>
<totfact> 0.33052365E+03</totfact>
</mgrwt>
</event>
<event>
 4    1  0.4758708E-002  0.5441318E+03  0.7818608E-02  0.1002861E+00
         21   -1    0    0  503  502  0.00000000000E+00  0.00000000000E+00  0.50271945429E+03  0.50271945429E+03  0.00000000000E+00 0. -1.
         21   -1    0    0  501  503 -0.00000000000E+00 -0.00000000000E+00 -0.63385015773E+03  0.63385015773E+03  0.00000000000E+00 0.  1.
    9000007    1    1    2  501    0  0.12231701305E+03 -0.34801999800E+03  0.85675891301E+02  0.55083548273E+03  0.40000000000E+03 0. -1.
   -9000007    1    1    2    0  502 -0.12231701305E+03  0.34801999800E+03 -0.21680659474E+03  0.58573412929E+03  0.40000000000E+03 0. -1.
<mgrwt>
<rscale>  2 0.54413176E+03</rscale>
<asrwt>0</asrwt>
<pdfrwt beam="1">  1       21 0.77341454E-01 0.54413176E+03</pdfrwt>
<pdfrwt beam="2">  1       21 0.97515409E-01 0.54413176E+03</pdfrwt>
<totfact> 0.10642029E+03</totfact>
</mgrwt>
</event>
<event>
 4    1  0.4758708E-002  0.4489611E+03  0.7818608E-02  0.1028032E+00
         21   -1    0    0  501  502  0.00000000000E+00  0.00000000000E+00  0.46183964962E+03  0.46183964962E+03  0.00000000000E+00 0.  1.
         21   -1    0    0  502  503 -0.00000000000E+00 -0.00000000000E+00 -0.43644323872E+03  0.43644323872E+03  0.00000000000E+00 0. -1.
    9000007    1    1    2  501    0 -0.95552100494E+02  0.18009948503E+03  0.11823766492E+02  0.44911672188E+03  0.40000000000E+03 0. -1.
   -9000007    1    1    2    0  503  0.95552100494E+02 -0.18009948503E+03  0.13572644409E+02  0.44916616646E+03  0.40000000000E+03 0.  1.
<mgrwt>
<rscale>  2 0.44896105E+03</rscale>
<asrwt>0</asrwt>
<pdfrwt beam="1">  1       21 0.71052254E-01 0.44896105E+03</pdfrwt>
<pdfrwt beam="2">  1       21 0.67145114E-01 0.44896105E+03</pdfrwt>
<totfact> 0.31751548E+03</totfact>
</mgrwt>
</event>
<event>
 4    1  0.4758708E-002  0.4476974E+03  0.7818608E-02  0.1028411E+00
         21   -1    0    0  501  502  0.00000000000E+00  0.00000000000E+00  0.39479508227E+03  0.39479508227E+03  0.00000000000E+00 0.  1.
         21   -1    0    0  502  503 -0.00000000000E+00 -0.00000000000E+00 -0.55108534101E+03  0.55108534101E+03  0.00000000000E+00 0. -1.
    9000007    1    1    2  501    0  0.11736738073E+03 -0.16327244456E+03 -0.21086164838E+03  0.49486930393E+03  0.40000000000E+03 0. -1.
   -9000007    1    1    2    0  503 -0.11736738073E+03  0.16327244456E+03  0.54571389638E+02  0.45101111935E+03  0.40000000000E+03 0.  1.
<mgrwt>
<rscale>  2 0.44769743E+03</rscale>
<asrwt>0</asrwt>
<pdfrwt beam="1">  1       21 0.60737705E-01 0.44769743E+03</pdfrwt>
<pdfrwt beam="2">  1       21 0.84782360E-01 0.44769743E+03</pdfrwt>
<totfact> 0.26437663E+03</totfact>
</mgrwt>
</event>
<event>
 4    1  0.4758708E-002  0.4161619E+03  0.7818608E-02  0.1038323E+00
         21   -1    0    0  501  502  0.00000000000E+00  0.00000000000E+00  0.10222796092E+03  0.10222796092E+03  0.00000000000E+00 0. -1.
         21   -1    0    0  502  503 -0.00000000000E+00 -0.00000000000E+00 -0.16950081949E+04  0.16950081949E+04  0.00000000000E+00 0. -1.
    9000007    1    1    2  501    0  0.93690988103E+02 -0.66428210443E+02 -0.77630980439E+03  0.88082212778E+03  0.40000000000E+03 0. -1.
   -9000007    1    1    2    0  503 -0.93690988103E+02  0.66428210443E+02 -0.81647042964E+03  0.91641402809E+03  0.40000000000E+03 0. -1.
<mgrwt>
<rscale>  2 0.41616188E+03</rscale>
<asrwt>0</asrwt>
<pdfrwt beam="1">  1       21 0.15727380E-01 0.41616188E+03</pdfrwt>
<pdfrwt beam="2">  1       21 0.26077047E+00 0.41616188E+03</pdfrwt>
<totfact> 0.17396011E+03</totfact>
</mgrwt>
</event>
<event>
 4    1  0.4758708E-002  0.4014094E+03  0.7818608E-02  0.1043293E+00
         21   -1    0    0  503  502  0.00000000000E+00  0.00000000000E+00  0.30478711687E+03  0.30478711687E+03  0.00000000000E+00 0.  1.
         21   -1    0    0  501  503 -0.00000000000E+00 -0.00000000000E+00 -0.12567387264E+04  0.12567387264E+04  0.00000000000E+00 0.  1.
    9000007    1    1    2  501    0 -0.31531759846E+02  0.11629491901E+02 -0.10702476133E+04  0.11430483152E+04  0.40000000000E+03 0.  1.
   -9000007    1    1    2    0  502  0.31531759846E+02 -0.11629491901E+02  0.11829600385E+03  0.41847752805E+03  0.40000000000E+03 0.  1.
<mgrwt>
<rscale>  2 0.40140939E+03</rscale>
<asrwt>0</asrwt>
<pdfrwt beam="1">  1       21 0.46890326E-01 0.40140939E+03</pdfrwt>
<pdfrwt beam="2">  1       21 0.19334442E+00 0.40140939E+03</pdfrwt>
<totfact> 0.54662975E+02</totfact>
</mgrwt>
</event>
<event>
 4    1  0.4758708E-002  0.4457863E+03  0.7818608E-02  0.1028986E+00
         21   -1    0    0  501  502  0.00000000000E+00  0.00000000000E+00  0.47626816859E+03  0.47626816859E+03  0.00000000000E+00 0.  1.
         21   -1    0    0  502  503 -0.00000000000E+00 -0.00000000000E+00 -0.68027515204E+03  0.68027515204E+03  0.00000000000E+00 0.  1.
    9000007    1    1    2  501    0  0.73104009329E+02 -0.18270520998E+03  0.25756689530E+03  0.51484570066E+03  0.40000000000E+03 0.  1.
   -9000007    1    1    2    0  503 -0.73104009329E+02  0.18270520998E+03 -0.46157387874E+03  0.64169761997E+03  0.40000000000E+03 0.  1.
<mgrwt>
<rscale>  2 0.44578626E+03</rscale>
<asrwt>0</asrwt>
<pdfrwt beam="1">  1       21 0.73272026E-01 0.44578626E+03</pdfrwt>
<pdfrwt beam="2">  1       21 0.10465771E+00 0.44578626E+03</pdfrwt>
<totfact> 0.10509436E+03</totfact>
</mgrwt>
</event>
<event>
 4    1  0.4758708E-002  0.4063172E+03  0.7818608E-02  0.1041614E+00
         21   -1    0    0  503  502  0.00000000000E+00  0.00000000000E+00  0.53714029057E+03  0.53714029057E+03  0.00000000000E+00 0. -1.
         21   -1    0    0  501  503 -0.00000000000E+00 -0.00000000000E+00 -0.58598859222E+03  0.58598859222E+03  0.00000000000E+00 0. -1.
    9000007    1    1    2  501    0  0.48850572443E+02 -0.52031619030E+02 -0.41165542986E+03  0.57840631112E+03  0.40000000000E+03 0. -1.
   -9000007    1    1    2    0  502 -0.48850572443E+02  0.52031619030E+02  0.36280712821E+03  0.54472257167E+03  0.40000000000E+03 0. -1.
<mgrwt>
<rscale>  2 0.40631720E+03</rscale>
<asrwt>0</asrwt>
<pdfrwt beam="1">  1       21 0.82636967E-01 0.40631720E+03</pdfrwt>
<pdfrwt beam="2">  1       21 0.90152092E-01 0.40631720E+03</pdfrwt>
<totfact> 0.11619573E+03</totfact>
</mgrwt>
</event>
<event>
 4    1  0.4758708E-002  0.4076519E+03  0.7818608E-02  0.1041162E+00
         21   -1    0    0  501  502  0.00000000000E+00  0.00000000000E+00  0.57526308117E+02  0.57526308117E+02  0.00000000000E+00 0. -1.
         21   -1    0    0  502  503 -0.00000000000E+00 -0.00000000000E+00 -0.29961111818E+04  0.29961111818E+04  0.00000000000E+00 0. -1.
    9000007    1    1    2  501    0  0.27974621901E+02  0.73467713171E+02 -0.11802921032E+04  0.12487071447E+04  0.40000000000E+03 0. -1.
   -9000007    1    1    2    0  503 -0.27974621901E+02 -0.73467713171E+02 -0.17582927705E+04  0.18049303452E+04  0.40000000000E+03 0. -1.
<mgrwt>
<rscale>  2 0.40765192E+03</rscale>
<asrwt>0</asrwt>
<pdfrwt beam="1">  1       21 0.88501996E-02 0.40765192E+03</pdfrwt>
<pdfrwt beam="2">  1       21 0.46094027E+00 0.40765192E+03</pdfrwt>
<totfact> 0.27788539E+02</totfact>
</mgrwt>
</event>
<event>
 4    1  0.4758708E-002  0.4462380E+03  0.7818608E-02  0.1028850E+00
         21   -1    0    0  501  502  0.00000000000E+00  0.00000000000E+00  0.66716772639E+03  0.66716772639E+03  0.00000000000E+00 0.  1.
         21   -1    0    0  502  503 -0.00000000000E+00 -0.00000000000E+00 -0.32742467188E+03  0.32742467188E+03  0.00000000000E+00 0.  1.
    9000007    1    1    2  501    0 -0.10680334623E+03  0.16649733415E+03  0.21983628991E+02  0.44677913670E+03  0.40000000000E+03 0.  1.
   -9000007    1    1    2    0  503  0.10680334623E+03 -0.16649733415E+03  0.31775942552E+03  0.54781326157E+03  0.40000000000E+03 0.  1.
<mgrwt>
<rscale>  2 0.44623796E+03</rscale>
<asrwt>0</asrwt>
<pdfrwt beam="1">  1       21 0.10264119E+00 0.44623796E+03</pdfrwt>
<pdfrwt beam="2">  1       21 0.50373026E-01 0.44623796E+03</pdfrwt>
<totfact> 0.25105477E+03</totfact>
</mgrwt>
</event>
<event>
 4    1  0.4758708E-002  0.5977269E+03  0.7818608E-02  0.9910133E-01
         21   -1    0    0  503  502  0.00000000000E+00  0.00000000000E+00  0.36275784564E+03  0.36275784564E+03  0.00000000000E+00 0.  1.
         21   -1    0    0  501  503 -0.00000000000E+00 -0.00000000000E+00 -0.11157202151E+04  0.11157202151E+04  0.00000000000E+00 0. -1.
    9000007    1    1    2  501    0  0.40878097840E+03 -0.17371122141E+03 -0.12334330525E+03  0.61032044673E+03  0.40000000000E+03 0. -1.
   -9000007    1    1    2    0  502 -0.40878097840E+03  0.17371122141E+03 -0.62961906425E+03  0.86815761404E+03  0.40000000000E+03 0. -1.
<mgrwt>
<rscale>  2 0.59772692E+03</rscale>
<asrwt>0</asrwt>
<pdfrwt beam="1">  1       21 0.55808899E-01 0.59772692E+03</pdfrwt>
<pdfrwt beam="2">  1       21 0.17164927E+00 0.59772692E+03</pdfrwt>
<totfact> 0.49118577E+02</totfact>
</mgrwt>
</event>
<event>
 4    1  0.4758708E-002  0.4103313E+03  0.7818608E-02  0.1040260E+00
         21   -1    0    0  501  502  0.00000000000E+00  0.00000000000E+00  0.38222439005E+03  0.38222439005E+03  0.00000000000E+00 0.  1.
         21   -1    0    0  502  503 -0.00000000000E+00 -0.00000000000E+00 -0.45195311420E+03  0.45195311420E+03  0.00000000000E+00 0.  1.
    9000007    1    1    2  501    0 -0.17541193583E+01 -0.91480710832E+02  0.31517075958E+02  0.41153994152E+03  0.40000000000E+03 0. -1.
   -9000007    1    1    2    0  503  0.17541193583E+01  0.91480710832E+02 -0.10124580012E+03  0.42263756273E+03  0.40000000000E+03 0. -1.
<mgrwt>
<rscale>  2 0.41033133E+03</rscale>
<asrwt>0</asrwt>
<pdfrwt beam="1">  1       21 0.58803752E-01 0.41033133E+03</pdfrwt>
<pdfrwt beam="2">  1       21 0.69531249E-01 0.41033133E+03</pdfrwt>
<totfact> 0.45296036E+03</totfact>
</mgrwt>
</event>
<event>
 4    1  0.4758708E-002  0.4615659E+03  0.7818608E-02  0.1024328E+00
         21   -1    0    0  501  502  0.00000000000E+00  0.00000000000E+00  0.27001294204E+03  0.27001294204E+03  0.00000000000E+00 0.  1.
         21   -1    0    0  502  503 -0.00000000000E+00 -0.00000000000E+00 -0.78979818023E+03  0.78979818023E+03  0.00000000000E+00 0.  1.
    9000007    1    1    2  501    0 -0.66843052156E+02 -0.22039754774E+03 -0.27662618763E+03  0.53811255361E+03  0.40000000000E+03 0.  1.
   -9000007    1    1    2    0  503  0.66843052156E+02  0.22039754774E+03 -0.24315905055E+03  0.52169856866E+03  0.40000000000E+03 0.  1.
<mgrwt>
<rscale>  2 0.46156589E+03</rscale>
<asrwt>0</asrwt>
<pdfrwt beam="1">  1       21 0.41540453E-01 0.46156589E+03</pdfrwt>
<pdfrwt beam="2">  1       21 0.12150741E+00 0.46156589E+03</pdfrwt>
<totfact> 0.24574551E+03</totfact>
</mgrwt>
</event>
<event>
 4    1  0.4758708E-002  0.5138217E+03  0.7818608E-02  0.1010233E+00
         21   -1    0    0  501  502  0.00000000000E+00  0.00000000000E+00  0.35571915238E+03  0.35571915238E+03  0.00000000000E+00 0. -1.
         21   -1    0    0  502  503 -0.00000000000E+00 -0.00000000000E+00 -0.10998489051E+04  0.10998489051E+04  0.00000000000E+00 0.  1.
    9000007    1    1    2  501    0  0.28046156353E+03  0.15922949488E+03  0.42954075585E+02  0.51561397699E+03  0.40000000000E+03 0. -1.
   -9000007    1    1    2    0  503 -0.28046156353E+03 -0.15922949488E+03 -0.78708382829E+03  0.93995408048E+03  0.40000000000E+03 0.  1.
<mgrwt>
<rscale>  2 0.51382168E+03</rscale>
<asrwt>0</asrwt>
<pdfrwt beam="1">  1       21 0.54726025E-01 0.51382168E+03</pdfrwt>
<pdfrwt beam="2">  1       21 0.16920752E+00 0.51382168E+03</pdfrwt>
<totfact> 0.55119205E+02</totfact>
</mgrwt>
</event>
<event>
 4    1  0.4758708E-002  0.7999589E+03  0.7818608E-02  0.9560077E-01
         21   -1    0    0  503  502  0.00000000000E+00  0.00000000000E+00  0.11491818362E+04  0.11491818362E+04  0.00000000000E+00 0. -1.
         21   -1    0    0  501  503 -0.00000000000E+00 -0.00000000000E+00 -0.61828965608E+03  0.61828965608E+03  0.00000000000E+00 0. -1.
    9000007    1    1    2  501    0 -0.55155945232E+03 -0.41918539636E+03 -0.13110171138E+02  0.80006631134E+03  0.40000000000E+03 0. -1.
   -9000007    1    1    2    0  502  0.55155945232E+03  0.41918539636E+03  0.54400235129E+03  0.96740518097E+03  0.40000000000E+03 0. -1.
<mgrwt>
<rscale>  2 0.79995889E+03</rscale>
<asrwt>0</asrwt>
<pdfrwt beam="1">  1       21 0.17679720E+00 0.79995889E+03</pdfrwt>
<pdfrwt beam="2">  1       21 0.95121486E-01 0.79995889E+03</pdfrwt>
<totfact> 0.12423120E+02</totfact>
</mgrwt>
</event>
<event>
 4    1  0.4758708E-002  0.6283688E+03  0.7818608E-02  0.9848237E-01
         21   -1    0    0  503  502  0.00000000000E+00  0.00000000000E+00  0.32258952612E+03  0.32258952612E+03  0.00000000000E+00 0. -1.
         21   -1    0    0  501  503 -0.00000000000E+00 -0.00000000000E+00 -0.13006107343E+04  0.13006107343E+04  0.00000000000E+00 0.  1.
    9000007    1    1    2  501    0 -0.48453402882E+03  0.86124536424E+01 -0.68599526609E+03  0.93028861357E+03  0.40000000000E+03 0.  1.
   -9000007    1    1    2    0  502  0.48453402882E+03 -0.86124536424E+01 -0.29202594205E+03  0.69291164680E+03  0.40000000000E+03 0.  1.
<mgrwt>
<rscale>  2 0.62836884E+03</rscale>
<asrwt>0</asrwt>
<pdfrwt beam="1">  1       21 0.49629156E-01 0.62836884E+03</pdfrwt>
<pdfrwt beam="2">  1       21 0.20009397E+00 0.62836884E+03</pdfrwt>
<totfact> 0.39540177E+02</totfact>
</mgrwt>
</event>
<event>
 4    1  0.4758708E-002  0.4898933E+03  0.7818608E-02  0.1016451E+00
         21   -1    0    0  503  502  0.00000000000E+00  0.00000000000E+00  0.17944326956E+04  0.17944326956E+04  0.00000000000E+00 0. -1.
         21   -1    0    0  501  503 -0.00000000000E+00 -0.00000000000E+00 -0.15045720729E+03  0.15045720729E+03  0.00000000000E+00 0. -1.
    9000007    1    1    2  501    0  0.27572503506E+03 -0.63017145195E+02  0.49788531984E+03  0.69848782900E+03  0.40000000000E+03 0. -1.
   -9000007    1    1    2    0  502 -0.27572503506E+03  0.63017145195E+02  0.11460901684E+04  0.12464020739E+04  0.40000000000E+03 0. -1.
<mgrwt>
<rscale>  2 0.48989331E+03</rscale>
<asrwt>0</asrwt>
<pdfrwt beam="1">  1       21 0.27606655E+00 0.48989331E+03</pdfrwt>
<pdfrwt beam="2">  1       21 0.23147264E-01 0.48989331E+03</pdfrwt>
<totfact> 0.65063328E+02</totfact>
</mgrwt>
</event>
<event>
 4    1  0.4758708E-002  0.4061993E+03  0.7818608E-02  0.1041654E+00
         21   -1    0    0  503  502  0.00000000000E+00  0.00000000000E+00  0.19903290482E+03  0.19903290482E+03  0.00000000000E+00 0. -1.
         21   -1    0    0  501  503 -0.00000000000E+00 -0.00000000000E+00 -0.90933995209E+03  0.90933995209E+03  0.00000000000E+00 0. -1.
    9000007    1    1    2  501    0  0.69895174523E+02  0.10607171099E+02 -0.51988036902E+03  0.65975256391E+03  0.40000000000E+03 0. -1.
   -9000007    1    1    2    0  502 -0.69895174523E+02 -0.10607171099E+02 -0.19042667825E+03  0.44862029300E+03  0.40000000000E+03 0. -1.
<mgrwt>
<rscale>  2 0.40619927E+03</rscale>
<asrwt>0</asrwt>
<pdfrwt beam="1">  1       21 0.30620448E-01 0.40619927E+03</pdfrwt>
<pdfrwt beam="2">  1       21 0.13989845E+00 0.40619927E+03</pdfrwt>
<totfact> 0.32314604E+03</totfact>
</mgrwt>
</event>
<event>
 4    1  0.4758708E-002  0.4437162E+03  0.7818608E-02  0.1029613E+00
         21   -1    0    0  501  502  0.00000000000E+00  0.00000000000E+00  0.78140736216E+03  0.78140736216E+03  0.00000000000E+00 0. -1.
         21   -1    0    0  502  503 -0.00000000000E+00 -0.00000000000E+00 -0.67019490739E+03  0.67019490739E+03  0.00000000000E+00 0. -1.
    9000007    1    1    2  501    0  0.17091799272E+03 -0.87585066914E+02 -0.51775292769E+03  0.68187403405E+03  0.40000000000E+03 0. -1.
   -9000007    1    1    2    0  503 -0.17091799272E+03  0.87585066914E+02  0.62896538246E+03  0.76972823549E+03  0.40000000000E+03 0. -1.
<mgrwt>
<rscale>  2 0.44371624E+03</rscale>
<asrwt>0</asrwt>
<pdfrwt beam="1">  1       21 0.12021652E+00 0.44371624E+03</pdfrwt>
<pdfrwt beam="2">  1       21 0.10310691E+00 0.44371624E+03</pdfrwt>
<totfact> 0.33334998E+02</totfact>
</mgrwt>
</event>
<event>
 4    1  0.4758708E-002  0.5355823E+03  0.7818608E-02  0.1004887E+00
         21   -1    0    0  503  502  0.00000000000E+00  0.00000000000E+00  0.19639926940E+04  0.19639926940E+04  0.00000000000E+00 0. -1.
         21   -1    0    0  501  503 -0.00000000000E+00 -0.00000000000E+00 -0.20136829591E+03  0.20136829591E+03  0.00000000000E+00 0. -1.
    9000007    1    1    2  501    0 -0.20483752913E+03  0.29135887224E+03  0.31386608615E+03  0.62077397320E+03  0.40000000000E+03 0. -1.
   -9000007    1    1    2    0  502  0.20483752913E+03 -0.29135887224E+03  0.14487583119E+04  0.15445870167E+04  0.40000000000E+03 0. -1.
<mgrwt>
<rscale>  2 0.53558231E+03</rscale>
<asrwt>0</asrwt>
<pdfrwt beam="1">  1       21 0.30215271E+00 0.53558231E+03</pdfrwt>
<pdfrwt beam="2">  1       21 0.30979739E-01 0.53558231E+03</pdfrwt>
<totfact> 0.24933079E+02</totfact>
</mgrwt>
</event>
<event>
 4    1  0.4758708E-002  0.7474379E+03  0.7818608E-02  0.9639378E-01
         21   -1    0    0  501  502  0.00000000000E+00  0.00000000000E+00  0.65696210172E+03  0.65696210172E+03  0.00000000000E+00 0. -1.
         21   -1    0    0  502  503 -0.00000000000E+00 -0.00000000000E+00 -0.11522495808E+04  0.11522495808E+04  0.00000000000E+00 0. -1.
    9000007    1    1    2  501    0  0.11301086675E+03  0.62120205789E+03  0.21537667700E+03  0.77784996350E+03  0.40000000000E+03 0. -1.
   -9000007    1    1    2    0  503 -0.11301086675E+03 -0.62120205789E+03 -0.71066415612E+03  0.10313617191E+04  0.40000000000E+03 0. -1.
<mgrwt>
<rscale>  2 0.74743793E+03</rscale>
<asrwt>0</asrwt>
<pdfrwt beam="1">  1       21 0.10107109E+00 0.74743793E+03</pdfrwt>
<pdfrwt beam="2">  1       21 0.17726916E+00 0.74743793E+03</pdfrwt>
<totfact> 0.10793981E+02</totfact>
</mgrwt>
</event>
<event>
 4    1  0.4758708E-002  0.4992006E+03  0.7818608E-02  0.1013988E+00
         21   -1    0    0  501  502  0.00000000000E+00  0.00000000000E+00  0.32969089985E+03  0.32969089985E+03  0.00000000000E+00 0.  1.
         21   -1    0    0  502  503 -0.00000000000E+00 -0.00000000000E+00 -0.14074564111E+04  0.14074564111E+04  0.00000000000E+00 0.  1.
    9000007    1    1    2  501    0 -0.24575456160E+03  0.16972311461E+03  0.52103566279E+02  0.50191236466E+03  0.40000000000E+03 0. -1.
   -9000007    1    1    2    0  503  0.24575456160E+03 -0.16972311461E+03 -0.11298690775E+04  0.12352349463E+04  0.40000000000E+03 0. -1.
<mgrwt>
<rscale>  2 0.49920060E+03</rscale>
<asrwt>0</asrwt>
<pdfrwt beam="1">  1       21 0.50721676E-01 0.49920060E+03</pdfrwt>
<pdfrwt beam="2">  1       21 0.21653176E+00 0.49920060E+03</pdfrwt>
<totfact> 0.30962896E+02</totfact>
</mgrwt>
</event>
<event>
 4    1  0.4758708E-002  0.4382278E+03  0.7818608E-02  0.1031292E+00
         21   -1    0    0  501  502  0.00000000000E+00  0.00000000000E+00  0.10048317871E+04  0.10048317871E+04  0.00000000000E+00 0.  1.
         21   -1    0    0  502  503 -0.00000000000E+00 -0.00000000000E+00 -0.33539843757E+03  0.33539843757E+03  0.00000000000E+00 0.  1.
    9000007    1    1    2  501    0  0.93282782071E+01  0.17876404754E+03  0.77422730617E+03  0.88964685302E+03  0.40000000000E+03 0.  1.
   -9000007    1    1    2    0  503 -0.93282782071E+01 -0.17876404754E+03 -0.10479395664E+03  0.45058337166E+03  0.40000000000E+03 0.  1.
<mgrwt>
<rscale>  2 0.43822780E+03</rscale>
<asrwt>0</asrwt>
<pdfrwt beam="1">  1       21 0.15458950E+00 0.43822780E+03</pdfrwt>
<pdfrwt beam="2">  1       21 0.51599760E-01 0.43822780E+03</pdfrwt>
<totfact> 0.83227067E+02</totfact>
</mgrwt>
</event>
<event>
 4    1  0.4758708E-002  0.5188184E+03  0.7818608E-02  0.1008980E+00
         21   -1    0    0  501  502  0.00000000000E+00  0.00000000000E+00  0.36928991717E+03  0.36928991717E+03  0.00000000000E+00 0.  1.
         21   -1    0    0  502  503 -0.00000000000E+00 -0.00000000000E+00 -0.10717718696E+04  0.10717718696E+04  0.00000000000E+00 0. -1.
    9000007    1    1    2  501    0 -0.31129684647E+03  0.11075562454E+03  0.56300961236E+02  0.52186428621E+03  0.40000000000E+03 0.  1.
   -9000007    1    1    2    0  503  0.31129684647E+03 -0.11075562454E+03 -0.75878291370E+03  0.91919750060E+03  0.40000000000E+03 0. -1.
<mgrwt>
<rscale>  2 0.51881840E+03</rscale>
<asrwt>0</asrwt>
<pdfrwt beam="1">  1       21 0.56813834E-01 0.51881840E+03</pdfrwt>
<pdfrwt beam="2">  1       21 0.16488798E+00 0.51881840E+03</pdfrwt>
<totfact> 0.54585979E+02</totfact>
</mgrwt>
</event>
<event>
 4    1  0.4758708E-002  0.4235811E+03  0.7818608E-02  0.1035907E+00
         21   -1    0    0  503  502  0.00000000000E+00  0.00000000000E+00  0.39360786461E+03  0.39360786461E+03  0.00000000000E+00 0.  1.
         21   -1    0    0  501  503 -0.00000000000E+00 -0.00000000000E+00 -0.62616343849E+03  0.62616343849E+03  0.00000000000E+00 0.  1.
    9000007    1    1    2  501    0 -0.93729385705E+02  0.10312972498E+03 -0.38220958077E+03  0.57053054393E+03  0.40000000000E+03 0.  1.
   -9000007    1    1    2    0  502  0.93729385705E+02 -0.10312972498E+03  0.14965400690E+03  0.44924075917E+03  0.40000000000E+03 0.  1.
<mgrwt>
<rscale>  2 0.42358109E+03</rscale>
<asrwt>0</asrwt>
<pdfrwt beam="1">  1       21 0.60555056E-01 0.42358109E+03</pdfrwt>
<pdfrwt beam="2">  1       21 0.96332837E-01 0.42358109E+03</pdfrwt>
<totfact> 0.19846200E+03</totfact>
</mgrwt>
</event>
<event>
 4    1  0.4758708E-002  0.4535896E+03  0.7818608E-02  0.1026657E+00
         21   -1    0    0  503  502  0.00000000000E+00  0.00000000000E+00  0.81705717210E+03  0.81705717210E+03  0.00000000000E+00 0. -1.
         21   -1    0    0  501  503 -0.00000000000E+00 -0.00000000000E+00 -0.75902680682E+03  0.75902680682E+03  0.00000000000E+00 0.  1.
    9000007    1    1    2  501    0  0.14957364374E+03 -0.15287647479E+03 -0.61517996491E+03  0.76432315200E+03  0.40000000000E+03 0.  1.
   -9000007    1    1    2    0  502 -0.14957364374E+03  0.15287647479E+03  0.67321033020E+03  0.81176082693E+03  0.40000000000E+03 0. -1.
<mgrwt>
<rscale>  2 0.45358956E+03</rscale>
<asrwt>0</asrwt>
<pdfrwt beam="1">  1       21 0.12570110E+00 0.45358956E+03</pdfrwt>
<pdfrwt beam="2">  1       21 0.11677335E+00 0.45358956E+03</pdfrwt>
<totfact> 0.21731466E+02</totfact>
</mgrwt>
</event>
<event>
 4    1  0.4758708E-002  0.5048779E+03  0.7818608E-02  0.1012513E+00
         21   -1    0    0  503  502  0.00000000000E+00  0.00000000000E+00  0.14295417458E+04  0.14295417458E+04  0.00000000000E+00 0. -1.
         21   -1    0    0  501  503 -0.00000000000E+00 -0.00000000000E+00 -0.26707419004E+03  0.26707419004E+03  0.00000000000E+00 0.  1.
    9000007    1    1    2  501    0 -0.61018694853E+02 -0.30195765148E+03  0.92180374566E+02  0.51322405035E+03  0.40000000000E+03 0.  1.
   -9000007    1    1    2    0  502  0.61018694853E+02  0.30195765148E+03  0.10702871812E+04  0.11833918855E+04  0.40000000000E+03 0.  1.
<mgrwt>
<rscale>  2 0.50487791E+03</rscale>
<asrwt>0</asrwt>
<pdfrwt beam="1">  1       21 0.21992949E+00 0.50487791E+03</pdfrwt>
<pdfrwt beam="2">  1       21 0.41088338E-01 0.50487791E+03</pdfrwt>
<totfact> 0.45742348E+02</totfact>
</mgrwt>
</event>
<event>
 4    1  0.4758708E-002  0.5634951E+03  0.7818608E-02  0.9984177E-01
         21   -1    0    0  503  502  0.00000000000E+00  0.00000000000E+00  0.64532532840E+03  0.64532532840E+03  0.00000000000E+00 0. -1.
         21   -1    0    0  501  503 -0.00000000000E+00 -0.00000000000E+00 -0.49764123081E+03  0.49764123081E+03  0.00000000000E+00 0.  1.
    9000007    1    1    2  501    0  0.15397997941E+03 -0.36580993730E+03  0.13446468692E+03  0.57931640432E+03  0.40000000000E+03 0.  1.
   -9000007    1    1    2    0  502 -0.15397997941E+03  0.36580993730E+03  0.13219410675E+02  0.56365015489E+03  0.40000000000E+03 0.  1.
<mgrwt>
<rscale>  2 0.56349511E+03</rscale>
<asrwt>0</asrwt>
<pdfrwt beam="1">  1       21 0.99280820E-01 0.56349511E+03</pdfrwt>
<pdfrwt beam="2">  1       21 0.76560189E-01 0.56349511E+03</pdfrwt>
<totfact> 0.10363187E+03</totfact>
</mgrwt>
</event>
<event>
 4    1  0.4758708E-002  0.4319070E+03  0.7818608E-02  0.1033259E+00
         21   -1    0    0  503  502  0.00000000000E+00  0.00000000000E+00  0.27047125151E+03  0.27047125151E+03  0.00000000000E+00 0.  1.
         21   -1    0    0  501  503 -0.00000000000E+00 -0.00000000000E+00 -0.83466110210E+03  0.83466110210E+03  0.00000000000E+00 0.  1.
    9000007    1    1    2  501    0 -0.15160002045E+03  0.59674614802E+02 -0.51237541615E+03  0.67012848987E+03  0.40000000000E+03 0.  1.
   -9000007    1    1    2    0  502  0.15160002045E+03 -0.59674614802E+02 -0.51814434442E+02  0.43500386374E+03  0.40000000000E+03 0.  1.
<mgrwt>
<rscale>  2 0.43190696E+03</rscale>
<asrwt>0</asrwt>
<pdfrwt beam="1">  1       21 0.41610962E-01 0.43190696E+03</pdfrwt>
<pdfrwt beam="2">  1       21 0.12840940E+00 0.43190696E+03</pdfrwt>
<totfact> 0.21487734E+03</totfact>
</mgrwt>
</event>
<event>
 4    1  0.4758708E-002  0.4856333E+03  0.7818608E-02  0.1017598E+00
         21   -1    0    0  503  502  0.00000000000E+00  0.00000000000E+00  0.17744412045E+04  0.17744412045E+04  0.00000000000E+00 0. -1.
         21   -1    0    0  501  503 -0.00000000000E+00 -0.00000000000E+00 -0.19299799398E+03  0.19299799398E+03  0.00000000000E+00 0. -1.
    9000007    1    1    2  501    0  0.25633386326E+02  0.27419456910E+03  0.24182401822E+03  0.54251137132E+03  0.40000000000E+03 0. -1.
   -9000007    1    1    2    0  502 -0.25633386326E+02 -0.27419456910E+03  0.13396191923E+04  0.14249278271E+04  0.40000000000E+03 0. -1.
<mgrwt>
<rscale>  2 0.48563333E+03</rscale>
<asrwt>0</asrwt>
<pdfrwt beam="1">  1       21 0.27299094E+00 0.48563333E+03</pdfrwt>
<pdfrwt beam="2">  1       21 0.29692000E-01 0.48563333E+03</pdfrwt>
<totfact> 0.41782262E+02</totfact>
</mgrwt>
</event>
<event>
 4    1  0.4758708E-002  0.4776950E+03  0.7818608E-02  0.1019771E+00
         21   -1    0    0  501  502  0.00000000000E+00  0.00000000000E+00  0.33113260639E+03  0.33113260639E+03  0.00000000000E+00 0. -1.
         21   -1    0    0  502  503 -0.00000000000E+00 -0.00000000000E+00 -0.68948898886E+03  0.68948898886E+03  0.00000000000E+00 0. -1.
    9000007    1    1    2  501    0 -0.25365325612E+03 -0.62068688063E+02 -0.19086725256E+03  0.51441501191E+03  0.40000000000E+03 0. -1.
   -9000007    1    1    2    0  503  0.25365325612E+03  0.62068688063E+02 -0.16748912992E+03  0.50620658334E+03  0.40000000000E+03 0. -1.
<mgrwt>
<rscale>  2 0.47769498E+03</rscale>
<asrwt>0</asrwt>
<pdfrwt beam="1">  1       21 0.50943478E-01 0.47769498E+03</pdfrwt>
<pdfrwt beam="2">  1       21 0.10607523E+00 0.47769498E+03</pdfrwt>
<totfact> 0.22348021E+03</totfact>
</mgrwt>
</event>
<event>
 4    1  0.4758708E-002  0.4688279E+03  0.7818608E-02  0.1022252E+00
         21   -1    0    0  503  502  0.00000000000E+00  0.00000000000E+00  0.21624092281E+03  0.21624092281E+03  0.00000000000E+00 0.  1.
         21   -1    0    0  501  503 -0.00000000000E+00 -0.00000000000E+00 -0.13557894499E+04  0.13557894499E+04  0.00000000000E+00 0.  1.
    9000007    1    1    2  501    0 -0.14190639639E+03 -0.19915363117E+03 -0.96300506155E+03  0.10710641170E+04  0.40000000000E+03 0.  1.
   -9000007    1    1    2    0  502  0.14190639639E+03  0.19915363117E+03 -0.17654346555E+03  0.50096625573E+03  0.40000000000E+03 0.  1.
<mgrwt>
<rscale>  2 0.46882789E+03</rscale>
<asrwt>0</asrwt>
<pdfrwt beam="1">  1       21 0.33267834E-01 0.46882789E+03</pdfrwt>
<pdfrwt beam="2">  1       21 0.20858299E+00 0.46882789E+03</pdfrwt>
<totfact> 0.84779127E+02</totfact>
</mgrwt>
</event>
<event>
 4    1  0.4758708E-002  0.5063238E+03  0.7818608E-02  0.1012141E+00
         21   -1    0    0  503  502  0.00000000000E+00  0.00000000000E+00  0.25943932605E+03  0.25943932605E+03  0.00000000000E+00 0. -1.
         21   -1    0    0  501  503 -0.00000000000E+00 -0.00000000000E+00 -0.10764011307E+04  0.10764011307E+04  0.00000000000E+00 0.  1.
    9000007    1    1    2  501    0  0.31009366230E+03 -0.14343896397E+02 -0.21722779240E+03  0.55095529814E+03  0.40000000000E+03 0.  1.
   -9000007    1    1    2    0  502 -0.31009366230E+03  0.14343896397E+02 -0.59973401229E+03  0.78488515864E+03  0.40000000000E+03 0.  1.
<mgrwt>
<rscale>  2 0.50632384E+03</rscale>
<asrwt>0</asrwt>
<pdfrwt beam="1">  1       21 0.39913743E-01 0.50632384E+03</pdfrwt>
<pdfrwt beam="2">  1       21 0.16560017E+00 0.50632384E+03</pdfrwt>
<totfact> 0.11449150E+03</totfact>
</mgrwt>
</event>
<event>
 4    1  0.4758708E-002  0.4468879E+03  0.7818608E-02  0.1028654E+00
         21   -1    0    0  503  502  0.00000000000E+00  0.00000000000E+00  0.51488847453E+03  0.51488847453E+03  0.00000000000E+00 0.  1.
         21   -1    0    0  501  503 -0.00000000000E+00 -0.00000000000E+00 -0.55192255050E+03  0.55192255050E+03  0.00000000000E+00 0.  1.
    9000007    1    1    2  501    0  0.55687302643E+02 -0.19133151037E+03 -0.30932910103E+03  0.54350098002E+03  0.40000000000E+03 0.  1.
   -9000007    1    1    2    0  502 -0.55687302643E+02  0.19133151037E+03  0.27229502506E+03  0.52331004501E+03  0.40000000000E+03 0.  1.
<mgrwt>
<rscale>  2 0.44688793E+03</rscale>
<asrwt>0</asrwt>
<pdfrwt beam="1">  1       21 0.79213612E-01 0.44688793E+03</pdfrwt>
<pdfrwt beam="2">  1       21 0.84911161E-01 0.44688793E+03</pdfrwt>
<totfact> 0.14502230E+03</totfact>
</mgrwt>
</event>
<event>
 4    1  0.4758708E-002  0.4192422E+03  0.7818608E-02  0.1037313E+00
         21   -1    0    0  501  502  0.00000000000E+00  0.00000000000E+00  0.43014768233E+03  0.43014768233E+03  0.00000000000E+00 0. -1.
         21   -1    0    0  502  503 -0.00000000000E+00 -0.00000000000E+00 -0.53458148606E+03  0.53458148606E+03  0.00000000000E+00 0. -1.
    9000007    1    1    2  501    0  0.96867289557E+02 -0.79879573141E+02  0.18193574904E+03  0.45701710556E+03  0.40000000000E+03 0. -1.
   -9000007    1    1    2    0  503 -0.96867289557E+02  0.79879573141E+02 -0.28636955277E+03  0.50771206283E+03  0.40000000000E+03 0. -1.
<mgrwt>
<rscale>  2 0.41924219E+03</rscale>
<asrwt>0</asrwt>
<pdfrwt beam="1">  1       21 0.66176566E-01 0.41924219E+03</pdfrwt>
<pdfrwt beam="2">  1       21 0.82243306E-01 0.41924219E+03</pdfrwt>
<totfact> 0.23729657E+03</totfact>
</mgrwt>
</event>
<event>
 4    1  0.4758708E-002  0.5969674E+03  0.7818608E-02  0.9911718E-01
         21   -1    0    0  501  502  0.00000000000E+00  0.00000000000E+00  0.43377297854E+03  0.43377297854E+03  0.00000000000E+00 0.  1.
         21   -1    0    0  502  503 -0.00000000000E+00 -0.00000000000E+00 -0.82371404490E+03  0.82371404490E+03  0.00000000000E+00 0.  1.
    9000007    1    1    2  501    0 -0.34553661049E+03 -0.27744288665E+03 -0.16281089862E+03  0.61877095379E+03  0.40000000000E+03 0.  1.
   -9000007    1    1    2    0  503  0.34553661049E+03  0.27744288665E+03 -0.22713016774E+03  0.63871606965E+03  0.40000000000E+03 0.  1.
<mgrwt>
<rscale>  2 0.59696742E+03</rscale>
<asrwt>0</asrwt>
<pdfrwt beam="1">  1       21 0.66734304E-01 0.59696742E+03</pdfrwt>
<pdfrwt beam="2">  1       21 0.12672524E+00 0.59696742E+03</pdfrwt>
<totfact> 0.75820955E+02</totfact>
</mgrwt>
</event>
<event>
 4    1  0.4758708E-002  0.5476986E+03  0.7818608E-02  0.1002028E+00
         21   -1    0    0  503  502  0.00000000000E+00  0.00000000000E+00  0.34558817364E+03  0.34558817364E+03  0.00000000000E+00 0. -1.
         21   -1    0    0  501  503 -0.00000000000E+00 -0.00000000000E+00 -0.23983846903E+04  0.23983846903E+04  0.00000000000E+00 0.  1.
    9000007    1    1    2  501    0 -0.26245623610E+03  0.26662788763E+03 -0.21223448715E+04  0.21918762419E+04  0.40000000000E+03 0.  1.
   -9000007    1    1    2    0  502  0.26245623610E+03 -0.26662788763E+03  0.69548354872E+02  0.55209662198E+03  0.40000000000E+03 0. -1.
<mgrwt>
<rscale>  2 0.54769855E+03</rscale>
<asrwt>0</asrwt>
<pdfrwt beam="1">  1       21 0.53167410E-01 0.54769855E+03</pdfrwt>
<pdfrwt beam="2">  1       21 0.36898227E+00 0.54769855E+03</pdfrwt>
<totfact> 0.31400114E+01</totfact>
</mgrwt>
</event>
<event>
 4    1  0.4758708E-002  0.4786137E+03  0.7818608E-02  0.1019517E+00
         21   -1    0    0  503  502  0.00000000000E+00  0.00000000000E+00  0.16981688001E+04  0.16981688001E+04  0.00000000000E+00 0. -1.
         21   -1    0    0  501  503 -0.00000000000E+00 -0.00000000000E+00 -0.21115677878E+03  0.21115677878E+03  0.00000000000E+00 0. -1.
    9000007    1    1    2  501    0  0.23874061154E+03  0.10988156689E+03  0.16977712281E+03  0.50783393917E+03  0.40000000000E+03 0. -1.
   -9000007    1    1    2    0  502 -0.23874061154E+03 -0.10988156689E+03  0.13172348985E+04  0.14014916397E+04  0.40000000000E+03 0. -1.
<mgrwt>
<rscale>  2 0.47861366E+03</rscale>
<asrwt>0</asrwt>
<pdfrwt beam="1">  1       21 0.26125673E+00 0.47861366E+03</pdfrwt>
<pdfrwt beam="2">  1       21 0.32485659E-01 0.47861366E+03</pdfrwt>
<totfact> 0.41299216E+02</totfact>
</mgrwt>
</event>
<event>
 4    1  0.4758708E-002  0.5251611E+03  0.7818608E-02  0.1007412E+00
         21   -1    0    0  503  502  0.00000000000E+00  0.00000000000E+00  0.13722363580E+04  0.13722363580E+04  0.00000000000E+00 0.  1.
         21   -1    0    0  501  503 -0.00000000000E+00 -0.00000000000E+00 -0.35105901416E+03  0.35105901416E+03  0.00000000000E+00 0.  1.
    9000007    1    1    2  501    0 -0.31594813100E+03 -0.12637637002E+03 -0.52786085234E+02  0.52780733149E+03  0.40000000000E+03 0.  1.
   -9000007    1    1    2    0  502  0.31594813100E+03  0.12637637002E+03  0.10739634291E+04  0.11954880407E+04  0.40000000000E+03 0.  1.
<mgrwt>
<rscale>  2 0.52516113E+03</rscale>
<asrwt>0</asrwt>
<pdfrwt beam="1">  1       21 0.21111328E+00 0.52516113E+03</pdfrwt>
<pdfrwt beam="2">  1       21 0.54009080E-01 0.52516113E+03</pdfrwt>
<totfact> 0.29003589E+02</totfact>
</mgrwt>
</event>
<event>
 4    1  0.4758708E-002  0.4608335E+03  0.7818608E-02  0.1024540E+00
         21   -1    0    0  501  502  0.00000000000E+00  0.00000000000E+00  0.45291214610E+03  0.45291214610E+03  0.00000000000E+00 0.  1.
         21   -1    0    0  502  503 -0.00000000000E+00 -0.00000000000E+00 -0.61290968287E+03  0.61290968287E+03  0.00000000000E+00 0.  1.
    9000007    1    1    2  501    0  0.16566808956E+03  0.15786563954E+03  0.17832377371E+03  0.49413241577E+03  0.40000000000E+03 0.  1.
   -9000007    1    1    2    0  503 -0.16566808956E+03 -0.15786563954E+03 -0.33832131047E+03  0.57168941320E+03  0.40000000000E+03 0.  1.
<mgrwt>
<rscale>  2 0.46083346E+03</rscale>
<asrwt>0</asrwt>
<pdfrwt beam="1">  1       21 0.69678792E-01 0.46083346E+03</pdfrwt>
<pdfrwt beam="2">  1       21 0.94293796E-01 0.46083346E+03</pdfrwt>
<totfact> 0.15074536E+03</totfact>
</mgrwt>
</event>
<event>
 4    1  0.4758708E-002  0.4520013E+03  0.7818608E-02  0.1027127E+00
         21   -1    0    0  501  502  0.00000000000E+00  0.00000000000E+00  0.12685634986E+04  0.12685634986E+04  0.00000000000E+00 0.  1.
         21   -1    0    0  502  503 -0.00000000000E+00 -0.00000000000E+00 -0.16122457854E+03  0.16122457854E+03  0.00000000000E+00 0. -1.
    9000007    1    1    2  501    0  0.17212555078E+03 -0.12115262311E+03  0.57703350598E+03  0.73298897014E+03  0.40000000000E+03 0. -1.
   -9000007    1    1    2    0  503 -0.17212555078E+03  0.12115262311E+03  0.53030541405E+03  0.69679910698E+03  0.40000000000E+03 0. -1.
<mgrwt>
<rscale>  2 0.45200129E+03</rscale>
<asrwt>0</asrwt>
<pdfrwt beam="1">  1       21 0.19516361E+00 0.45200129E+03</pdfrwt>
<pdfrwt beam="2">  1       21 0.24803782E-01 0.45200129E+03</pdfrwt>
<totfact> 0.18746777E+03</totfact>
</mgrwt>
</event>
<event>
 4    1  0.4758708E-002  0.6119655E+03  0.7818608E-02  0.9880888E-01
         21   -1    0    0  501  502  0.00000000000E+00  0.00000000000E+00  0.15574003283E+04  0.15574003283E+04  0.00000000000E+00 0.  1.
         21   -1    0    0  502  503 -0.00000000000E+00 -0.00000000000E+00 -0.29189668679E+03  0.29189668679E+03  0.00000000000E+00 0.  1.
    9000007    1    1    2  501    0  0.27997559644E+03 -0.36893827012E+03  0.10208783921E+04  0.11902497524E+04  0.40000000000E+03 0.  1.
   -9000007    1    1    2    0  503 -0.27997559644E+03  0.36893827012E+03  0.24462524946E+03  0.65904726267E+03  0.40000000000E+03 0.  1.
<mgrwt>
<rscale>  2 0.61196551E+03</rscale>
<asrwt>0</asrwt>
<pdfrwt beam="1">  1       21 0.23960005E+00 0.61196551E+03</pdfrwt>
<pdfrwt beam="2">  1       21 0.44907184E-01 0.61196551E+03</pdfrwt>
<totfact> 0.27232408E+02</totfact>
</mgrwt>
</event>
<event>
 4    1  0.4758708E-002  0.4646688E+03  0.7818608E-02  0.1023436E+00
         21   -1    0    0  501  502  0.00000000000E+00  0.00000000000E+00  0.15388990718E+04  0.15388990718E+04  0.00000000000E+00 0. -1.
         21   -1    0    0  502  503 -0.00000000000E+00 -0.00000000000E+00 -0.16573879176E+03  0.16573879176E+03  0.00000000000E+00 0. -1.
    9000007    1    1    2  501    0  0.19795799336E+03 -0.12934351337E+03  0.10204561317E+04  0.11212706312E+04  0.40000000000E+03 0. -1.
   -9000007    1    1    2    0  503 -0.19795799336E+03  0.12934351337E+03  0.35270414836E+03  0.58336723242E+03  0.40000000000E+03 0. -1.
<mgrwt>
<rscale>  2 0.46466882E+03</rscale>
<asrwt>0</asrwt>
<pdfrwt beam="1">  1       21 0.23675369E+00 0.46466882E+03</pdfrwt>
<pdfrwt beam="2">  1       21 0.25498277E-01 0.46466882E+03</pdfrwt>
<totfact> 0.95106266E+02</totfact>
</mgrwt>
</event>
<event>
 4    1  0.4758708E-002  0.4069665E+03  0.7818608E-02  0.1041394E+00
         21   -1    0    0  501  502  0.00000000000E+00  0.00000000000E+00  0.24402228359E+04  0.24402228359E+04  0.00000000000E+00 0.  1.
         21   -1    0    0  502  503 -0.00000000000E+00 -0.00000000000E+00 -0.78622410221E+02  0.78622410221E+02  0.00000000000E+00 0.  1.
    9000007    1    1    2  501    0  0.22133774384E+02 -0.71636866767E+02  0.16465145449E+04  0.16960636460E+04  0.40000000000E+03 0. -1.
   -9000007    1    1    2    0  503 -0.22133774384E+02  0.71636866767E+02  0.71508588082E+03  0.82278160018E+03  0.40000000000E+03 0. -1.
<mgrwt>
<rscale>  2 0.40696652E+03</rscale>
<asrwt>0</asrwt>
<pdfrwt beam="1">  1       21 0.37541884E+00 0.40696652E+03</pdfrwt>
<pdfrwt beam="2">  1       21 0.12095757E-01 0.40696652E+03</pdfrwt>
<totfact> 0.57292747E+02</totfact>
</mgrwt>
</event>
<event>
 4    1  0.4758708E-002  0.4538317E+03  0.7818608E-02  0.1026586E+00
         21   -1    0    0  503  502  0.00000000000E+00  0.00000000000E+00  0.65499914433E+03  0.65499914433E+03  0.00000000000E+00 0.  1.
         21   -1    0    0  501  503 -0.00000000000E+00 -0.00000000000E+00 -0.94259356485E+03  0.94259356485E+03  0.00000000000E+00 0.  1.
    9000007    1    1    2  501    0  0.30690343172E+02  0.21218219628E+03 -0.79588186799E+03  0.91618291262E+03  0.40000000000E+03 0.  1.
   -9000007    1    1    2    0  502 -0.30690343172E+02 -0.21218219628E+03  0.50828744748E+03  0.68140979656E+03  0.40000000000E+03 0.  1.
<mgrwt>
<rscale>  2 0.45383167E+03</rscale>
<asrwt>0</asrwt>
<pdfrwt beam="1">  1       21 0.10076910E+00 0.45383167E+03</pdfrwt>
<pdfrwt beam="2">  1       21 0.14501440E+00 0.45383167E+03</pdfrwt>
<totfact> 0.21497929E+02</totfact>
</mgrwt>
</event>
<event>
 4    1  0.4758708E-002  0.4686243E+03  0.7818608E-02  0.1022309E+00
         21   -1    0    0  501  502  0.00000000000E+00  0.00000000000E+00  0.25340498833E+03  0.25340498833E+03  0.00000000000E+00 0.  1.
         21   -1    0    0  502  503 -0.00000000000E+00 -0.00000000000E+00 -0.95338496430E+03  0.95338496430E+03  0.00000000000E+00 0.  1.
    9000007    1    1    2  501    0 -0.15336159366E+03 -0.18997089269E+03 -0.53200668006E+03  0.70897096281E+03  0.40000000000E+03 0.  1.
   -9000007    1    1    2    0  503  0.15336159366E+03  0.18997089269E+03 -0.16797329591E+03  0.49781898981E+03  0.40000000000E+03 0.  1.
<mgrwt>
<rscale>  2 0.46862428E+03</rscale>
<asrwt>0</asrwt>
<pdfrwt beam="1">  1       21 0.38985382E-01 0.46862428E+03</pdfrwt>
<pdfrwt beam="2">  1       21 0.14667461E+00 0.46862428E+03</pdfrwt>
<totfact> 0.17053202E+03</totfact>
</mgrwt>
</event>
<event>
 4    1  0.4758708E-002  0.4730961E+03  0.7818608E-02  0.1021050E+00
         21   -1    0    0  503  502  0.00000000000E+00  0.00000000000E+00  0.91867364875E+03  0.91867364875E+03  0.00000000000E+00 0. -1.
         21   -1    0    0  501  503 -0.00000000000E+00 -0.00000000000E+00 -0.38390753328E+03  0.38390753328E+03  0.00000000000E+00 0. -1.
    9000007    1    1    2  501    0 -0.21067751198E+03  0.13940917062E+03 -0.12630269694E+03  0.48966550028E+03  0.40000000000E+03 0. -1.
   -9000007    1    1    2    0  502  0.21067751198E+03 -0.13940917062E+03  0.66106881241E+03  0.81291568175E+03  0.40000000000E+03 0. -1.
<mgrwt>
<rscale>  2 0.47309611E+03</rscale>
<asrwt>0</asrwt>
<pdfrwt beam="1">  1       21 0.14133441E+00 0.47309611E+03</pdfrwt>
<pdfrwt beam="2">  1       21 0.59062698E-01 0.47309611E+03</pdfrwt>
<totfact> 0.78019248E+02</totfact>
</mgrwt>
</event>
<event>
 4    1  0.4758708E-002  0.5424042E+03  0.7818608E-02  0.1003267E+00
         21   -1    0    0  503  502  0.00000000000E+00  0.00000000000E+00  0.62478228288E+03  0.62478228288E+03  0.00000000000E+00 0. -1.
         21   -1    0    0  501  503 -0.00000000000E+00 -0.00000000000E+00 -0.50466313151E+03  0.50466313151E+03  0.00000000000E+00 0.  1.
    9000007    1    1    2  501    0  0.30422964583E+03 -0.20407513957E+03  0.20615426286E+03  0.58026021757E+03  0.40000000000E+03 0. -1.
   -9000007    1    1    2    0  502 -0.30422964583E+03  0.20407513957E+03 -0.86035111495E+02  0.54918519682E+03  0.40000000000E+03 0.  1.
<mgrwt>
<rscale>  2 0.54240422E+03</rscale>
<asrwt>0</asrwt>
<pdfrwt beam="1">  1       21 0.96120350E-01 0.54240422E+03</pdfrwt>
<pdfrwt beam="2">  1       21 0.77640482E-01 0.54240422E+03</pdfrwt>
<totfact> 0.10928161E+03</totfact>
</mgrwt>
</event>
<event>
 4    1  0.4758708E-002  0.6193239E+03  0.7818608E-02  0.9866107E-01
         21   -1    0    0  503  502  0.00000000000E+00  0.00000000000E+00  0.26252896504E+03  0.26252896504E+03  0.00000000000E+00 0.  1.
         21   -1    0    0  501  503 -0.00000000000E+00 -0.00000000000E+00 -0.17434845398E+04  0.17434845398E+04  0.00000000000E+00 0. -1.
    9000007    1    1    2  501    0 -0.41767417813E+03 -0.22160856004E+03 -0.11441890860E+04  0.13010498598E+04  0.40000000000E+03 0. -1.
   -9000007    1    1    2    0  502  0.41767417813E+03  0.22160856004E+03 -0.33676648870E+03  0.70496364507E+03  0.40000000000E+03 0.  1.
<mgrwt>
<rscale>  2 0.61932388E+03</rscale>
<asrwt>0</asrwt>
<pdfrwt beam="1">  1       21 0.40389070E-01 0.61932388E+03</pdfrwt>
<pdfrwt beam="2">  1       21 0.26822840E+00 0.61932388E+03</pdfrwt>
<totfact> 0.22509356E+02</totfact>
</mgrwt>
</event>
<event>
 4    1  0.4758708E-002  0.4469102E+03  0.7818608E-02  0.1028647E+00
         21   -1    0    0  503  502  0.00000000000E+00  0.00000000000E+00  0.84136657739E+03  0.84136657739E+03  0.00000000000E+00 0. -1.
         21   -1    0    0  501  503 -0.00000000000E+00 -0.00000000000E+00 -0.24020908793E+03  0.24020908793E+03  0.00000000000E+00 0. -1.
    9000007    1    1    2  501    0  0.43737848125E+02  0.19446276961E+03  0.24195368966E+03  0.50820306577E+03  0.40000000000E+03 0. -1.
   -9000007    1    1    2    0  502 -0.43737848125E+02 -0.19446276961E+03  0.35920379980E+03  0.57337259955E+03  0.40000000000E+03 0. -1.
<mgrwt>
<rscale>  2 0.44691025E+03</rscale>
<asrwt>0</asrwt>
<pdfrwt beam="1">  1       21 0.12944101E+00 0.44691025E+03</pdfrwt>
<pdfrwt beam="2">  1       21 0.36955245E-01 0.44691025E+03</pdfrwt>
<totfact> 0.26698717E+03</totfact>
</mgrwt>
</event>
<event>
 4    1  0.4758708E-002  0.4553614E+03  0.7818608E-02  0.1026135E+00
         21   -1    0    0  503  502  0.00000000000E+00  0.00000000000E+00  0.60010500864E+03  0.60010500864E+03  0.00000000000E+00 0.  1.
         21   -1    0    0  501  503 -0.00000000000E+00 -0.00000000000E+00 -0.46102319217E+03  0.46102319217E+03  0.00000000000E+00 0. -1.
    9000007    1    1    2  501    0  0.14968838865E+03 -0.15794757109E+03 -0.19601465386E+03  0.49575779715E+03  0.40000000000E+03 0. -1.
   -9000007    1    1    2    0  502 -0.14968838865E+03  0.15794757109E+03  0.33509647033E+03  0.56537040366E+03  0.40000000000E+03 0.  1.
<mgrwt>
<rscale>  2 0.45536145E+03</rscale>
<asrwt>0</asrwt>
<pdfrwt beam="1">  1       21 0.92323848E-01 0.45536145E+03</pdfrwt>
<pdfrwt beam="2">  1       21 0.70926644E-01 0.45536145E+03</pdfrwt>
<totfact> 0.15264260E+03</totfact>
</mgrwt>
</event>
<event>
 4    1  0.4758708E-002  0.4376763E+03  0.7818608E-02  0.1031462E+00
         21   -1    0    0  501  502  0.00000000000E+00  0.00000000000E+00  0.64011103672E+03  0.64011103672E+03  0.00000000000E+00 0.  1.
         21   -1    0    0  502  503 -0.00000000000E+00 -0.00000000000E+00 -0.33899685219E+03  0.33899685219E+03  0.00000000000E+00 0.  1.
    9000007    1    1    2  501    0  0.16392078246E+03 -0.68487478675E+02  0.31816384904E+03  0.54109961420E+03  0.40000000000E+03 0.  1.
   -9000007    1    1    2    0  503 -0.16392078246E+03  0.68487478675E+02 -0.17049664505E+02  0.43800827471E+03  0.40000000000E+03 0.  1.
<mgrwt>
<rscale>  2 0.43767632E+03</rscale>
<asrwt>0</asrwt>
<pdfrwt beam="1">  1       21 0.98478621E-01 0.43767632E+03</pdfrwt>
<pdfrwt beam="2">  1       21 0.52153362E-01 0.43767632E+03</pdfrwt>
<totfact> 0.25865477E+03</totfact>
</mgrwt>
</event>
<event>
 4    1  0.4758708E-002  0.4353908E+03  0.7818608E-02  0.1032170E+00
         21   -1    0    0  503  502  0.00000000000E+00  0.00000000000E+00  0.20913850661E+03  0.20913850661E+03  0.00000000000E+00 0.  1.
         21   -1    0    0  501  503 -0.00000000000E+00 -0.00000000000E+00 -0.10609906826E+04  0.10609906826E+04  0.00000000000E+00 0.  1.
    9000007    1    1    2  501    0 -0.25717774921E+02  0.17001107231E+03 -0.18352187488E+03  0.47248856834E+03  0.40000000000E+03 0.  1.
   -9000007    1    1    2    0  502  0.25717774921E+02 -0.17001107231E+03 -0.66833030107E+03  0.79764062082E+03  0.40000000000E+03 0.  1.
<mgrwt>
<rscale>  2 0.43539082E+03</rscale>
<asrwt>0</asrwt>
<pdfrwt beam="1">  1       21 0.32175155E-01 0.43539082E+03</pdfrwt>
<pdfrwt beam="2">  1       21 0.16322933E+00 0.43539082E+03</pdfrwt>
<totfact> 0.19008487E+03</totfact>
</mgrwt>
</event>
<event>
 4    1  0.4758708E-002  0.4790003E+03  0.7818608E-02  0.1019410E+00
         21   -1    0    0  501  502  0.00000000000E+00  0.00000000000E+00  0.16712355976E+03  0.16712355976E+03  0.00000000000E+00 0.  1.
         21   -1    0    0  502  503 -0.00000000000E+00 -0.00000000000E+00 -0.20405558577E+04  0.20405558577E+04  0.00000000000E+00 0. -1.
    9000007    1    1    2  501    0  0.13491068482E+03 -0.22636351403E+03 -0.30530366483E+03  0.56802434906E+03  0.40000000000E+03 0.  1.
   -9000007    1    1    2    0  503 -0.13491068482E+03  0.22636351403E+03 -0.15681286332E+04  0.16396550684E+04  0.40000000000E+03 0. -1.
<mgrwt>
<rscale>  2 0.47900035E+03</rscale>
<asrwt>0</asrwt>
<pdfrwt beam="1">  1       21 0.25711317E-01 0.47900035E+03</pdfrwt>
<pdfrwt beam="2">  1       21 0.31393167E+00 0.47900035E+03</pdfrwt>
<totfact> 0.31514451E+02</totfact>
</mgrwt>
</event>
<event>
 4    1  0.4758708E-002  0.5081439E+03  0.7818608E-02  0.1011675E+00
         21   -1    0    0  503  502  0.00000000000E+00  0.00000000000E+00  0.58575493129E+03  0.58575493129E+03  0.00000000000E+00 0.  1.
         21   -1    0    0  501  503 -0.00000000000E+00 -0.00000000000E+00 -0.46572691561E+03  0.46572691561E+03  0.00000000000E+00 0.  1.
    9000007    1    1    2  501    0  0.99049632485E+02 -0.29732027287E+03 -0.61576741519E+02  0.51186118182E+03  0.40000000000E+03 0.  1.
   -9000007    1    1    2    0  502 -0.99049632485E+02  0.29732027287E+03  0.18160475720E+03  0.53962066509E+03  0.40000000000E+03 0.  1.
<mgrwt>
<rscale>  2 0.50814385E+03</rscale>
<asrwt>0</asrwt>
<pdfrwt beam="1">  1       21 0.90116144E-01 0.50814385E+03</pdfrwt>
<pdfrwt beam="2">  1       21 0.71650294E-01 0.50814385E+03</pdfrwt>
<totfact> 0.15501894E+03</totfact>
</mgrwt>
</event>
<event>
 4    1  0.4758708E-002  0.6296170E+03  0.7818608E-02  0.9845796E-01
         21   -1    0    0  503  502  0.00000000000E+00  0.00000000000E+00  0.31854313890E+03  0.31854313890E+03  0.00000000000E+00 0. -1.
         21   -1    0    0  501  503 -0.00000000000E+00 -0.00000000000E+00 -0.16320970842E+04  0.16320970842E+04  0.00000000000E+00 0. -1.
    9000007    1    1    2  501    0  0.34981500432E+03  0.33770852330E+03 -0.11320912765E+04  0.12953950140E+04  0.40000000000E+03 0. -1.
   -9000007    1    1    2    0  502 -0.34981500432E+03 -0.33770852330E+03 -0.18146266888E+03  0.65524520918E+03  0.40000000000E+03 0. -1.
<mgrwt>
<rscale>  2 0.62961701E+03</rscale>
<asrwt>0</asrwt>
<pdfrwt beam="1">  1       21 0.49006637E-01 0.62961701E+03</pdfrwt>
<pdfrwt beam="2">  1       21 0.25109186E+00 0.62961701E+03</pdfrwt>
<totfact> 0.19039707E+02</totfact>
</mgrwt>
</event>
<event>
 4    1  0.4758708E-002  0.5276302E+03  0.7818608E-02  0.1006808E+00
         21   -1    0    0  501  502  0.00000000000E+00  0.00000000000E+00  0.73076274539E+03  0.73076274539E+03  0.00000000000E+00 0.  1.
         21   -1    0    0  502  503 -0.00000000000E+00 -0.00000000000E+00 -0.48298737310E+03  0.48298737310E+03  0.00000000000E+00 0.  1.
    9000007    1    1    2  501    0 -0.10059579251E+03  0.32905032635E+03  0.40280995239E+03  0.66381434791E+03  0.40000000000E+03 0.  1.
   -9000007    1    1    2    0  503  0.10059579251E+03 -0.32905032635E+03 -0.15503458011E+03  0.54993577059E+03  0.40000000000E+03 0.  1.
<mgrwt>
<rscale>  2 0.52763020E+03</rscale>
<asrwt>0</asrwt>
<pdfrwt beam="1">  1       21 0.11242504E+00 0.52763020E+03</pdfrwt>
<pdfrwt beam="2">  1       21 0.74305750E-01 0.52763020E+03</pdfrwt>
<totfact> 0.82584534E+02</totfact>
</mgrwt>
</event>
<event>
 4    1  0.4758708E-002  0.4073575E+03  0.7818608E-02  0.1041261E+00
         21   -1    0    0  503  502  0.00000000000E+00  0.00000000000E+00  0.29802940272E+04  0.29802940272E+04  0.00000000000E+00 0. -1.
         21   -1    0    0  501  503 -0.00000000000E+00 -0.00000000000E+00 -0.55722568412E+02  0.55722568412E+02  0.00000000000E+00 0. -1.
    9000007    1    1    2  501    0  0.72636964634E+02 -0.25767541634E+02  0.14198886465E+04  0.14771675136E+04  0.40000000000E+03 0. -1.
   -9000007    1    1    2    0  502 -0.72636964634E+02  0.25767541634E+02  0.15046828123E+04  0.15588490820E+04  0.40000000000E+03 0. -1.
<mgrwt>
<rscale>  2 0.40735745E+03</rscale>
<asrwt>0</asrwt>
<pdfrwt beam="1">  1       21 0.45850665E+00 0.40735745E+03</pdfrwt>
<pdfrwt beam="2">  1       21 0.85727051E-02 0.40735745E+03</pdfrwt>
<totfact> 0.30562256E+02</totfact>
</mgrwt>
</event>
<event>
 4    1  0.4758708E-002  0.4132592E+03  0.7818608E-02  0.1039283E+00
         21   -1    0    0  501  502  0.00000000000E+00  0.00000000000E+00  0.55926677350E+03  0.55926677350E+03  0.00000000000E+00 0. -1.
         21   -1    0    0  502  503 -0.00000000000E+00 -0.00000000000E+00 -0.45468091942E+03  0.45468091942E+03  0.00000000000E+00 0. -1.
    9000007    1    1    2  501    0 -0.82630643366E+02  0.62891549634E+02  0.34281444140E+03  0.53694032394E+03  0.40000000000E+03 0. -1.
   -9000007    1    1    2    0  503  0.82630643366E+02 -0.62891549634E+02 -0.23822858732E+03  0.47700736897E+03  0.40000000000E+03 0. -1.
<mgrwt>
<rscale>  2 0.41325920E+03</rscale>
<asrwt>0</asrwt>
<pdfrwt beam="1">  1       21 0.86041042E-01 0.41325920E+03</pdfrwt>
<pdfrwt beam="2">  1       21 0.69950911E-01 0.41325920E+03</pdfrwt>
<totfact> 0.18913617E+03</totfact>
</mgrwt>
</event>
<event>
 4    1  0.4758708E-002  0.4997761E+03  0.7818608E-02  0.1013837E+00
         21   -1    0    0  503  502  0.00000000000E+00  0.00000000000E+00  0.94274296681E+03  0.94274296681E+03  0.00000000000E+00 0. -1.
         21   -1    0    0  501  503 -0.00000000000E+00 -0.00000000000E+00 -0.37203194383E+03  0.37203194383E+03  0.00000000000E+00 0. -1.
    9000007    1    1    2  501    0  0.47308309190E+02  0.29586840767E+03 -0.67337678052E+02  0.50429213127E+03  0.40000000000E+03 0. -1.
   -9000007    1    1    2    0  502 -0.47308309190E+02 -0.29586840767E+03  0.63804870103E+03  0.81048277938E+03  0.40000000000E+03 0. -1.
<mgrwt>
<rscale>  2 0.49977614E+03</rscale>
<asrwt>0</asrwt>
<pdfrwt beam="1">  1       21 0.14503738E+00 0.49977614E+03</pdfrwt>
<pdfrwt beam="2">  1       21 0.57235684E-01 0.49977614E+03</pdfrwt>
<totfact> 0.77113656E+02</totfact>
</mgrwt>
</event>
<event>
 4    1  0.4758708E-002  0.4847757E+03  0.7818608E-02  0.1017831E+00
         21   -1    0    0  503  502  0.00000000000E+00  0.00000000000E+00  0.21574009079E+04  0.21574009079E+04  0.00000000000E+00 0.  1.
         21   -1    0    0  501  503 -0.00000000000E+00 -0.00000000000E+00 -0.12899551906E+03  0.12899551906E+03  0.00000000000E+00 0.  1.
    9000007    1    1    2  501    0  0.45273182359E+02  0.27010696307E+03  0.56333342290E+03  0.74320386025E+03  0.40000000000E+03 0. -1.
   -9000007    1    1    2    0  502 -0.45273182359E+02 -0.27010696307E+03  0.14650719659E+04  0.15431925667E+04  0.40000000000E+03 0. -1.
<mgrwt>
<rscale>  2 0.48477565E+03</rscale>
<asrwt>0</asrwt>
<pdfrwt beam="1">  1       21 0.33190780E+00 0.48477565E+03</pdfrwt>
<pdfrwt beam="2">  1       21 0.19845466E-01 0.48477565E+03</pdfrwt>
<totfact> 0.40274982E+02</totfact>
</mgrwt>
</event>
<event>
 4    1  0.4758708E-002  0.4076508E+03  0.7818608E-02  0.1041162E+00
         21   -1    0    0  503  502  0.00000000000E+00  0.00000000000E+00  0.39952981980E+03  0.39952981980E+03  0.00000000000E+00 0.  1.
         21   -1    0    0  501  503 -0.00000000000E+00 -0.00000000000E+00 -0.59659665790E+03  0.59659665790E+03  0.00000000000E+00 0.  1.
    9000007    1    1    2  501    0  0.40476099759E+02 -0.67385975928E+02 -0.37261182723E+03  0.55228503347E+03  0.40000000000E+03 0.  1.
   -9000007    1    1    2    0  502 -0.40476099759E+02  0.67385975928E+02  0.17554498914E+03  0.44384144423E+03  0.40000000000E+03 0.  1.
<mgrwt>
<rscale>  2 0.40765081E+03</rscale>
<asrwt>0</asrwt>
<pdfrwt beam="1">  1       21 0.61466126E-01 0.40765081E+03</pdfrwt>
<pdfrwt beam="2">  1       21 0.91784101E-01 0.40765081E+03</pdfrwt>
<totfact> 0.21696233E+03</totfact>
</mgrwt>
</event>
<event>
 4    1  0.4758708E-002  0.4841533E+03  0.7818608E-02  0.1018000E+00
         21   -1    0    0  501  502  0.00000000000E+00  0.00000000000E+00  0.17701643911E+04  0.17701643911E+04  0.00000000000E+00 0.  1.
         21   -1    0    0  502  503 -0.00000000000E+00 -0.00000000000E+00 -0.13403725728E+03  0.13403725728E+03  0.00000000000E+00 0.  1.
    9000007    1    1    2  501    0  0.21335115969E+03  0.16995783958E+03  0.92266055953E+03  0.10419725969E+04  0.40000000000E+03 0. -1.
   -9000007    1    1    2    0  503 -0.21335115969E+03 -0.16995783958E+03  0.71346657428E+03  0.86222905147E+03  0.40000000000E+03 0. -1.
<mgrwt>
<rscale>  2 0.48415327E+03</rscale>
<asrwt>0</asrwt>
<pdfrwt beam="1">  1       21 0.27233297E+00 0.48415327E+03</pdfrwt>
<pdfrwt beam="2">  1       21 0.20621118E-01 0.48415327E+03</pdfrwt>
<totfact> 0.85846438E+02</totfact>
</mgrwt>
</event>
<event>
 4    1  0.4758708E-002  0.5884772E+03  0.7818608E-02  0.9929605E-01
         21   -1    0    0  501  502  0.00000000000E+00  0.00000000000E+00  0.11616599588E+04  0.11616599588E+04  0.00000000000E+00 0.  1.
         21   -1    0    0  502  503 -0.00000000000E+00 -0.00000000000E+00 -0.30334294948E+03  0.30334294948E+03  0.00000000000E+00 0.  1.
    9000007    1    1    2  501    0 -0.16952429005E+03  0.39694698754E+03  0.33297301379E+03  0.67614822617E+03  0.40000000000E+03 0.  1.
   -9000007    1    1    2    0  503  0.16952429005E+03 -0.39694698754E+03  0.52534399550E+03  0.78885468208E+03  0.40000000000E+03 0.  1.
<mgrwt>
<rscale>  2 0.58847718E+03</rscale>
<asrwt>0</asrwt>
<pdfrwt beam="1">  1       21 0.17871692E+00 0.58847718E+03</pdfrwt>
<pdfrwt beam="2">  1       21 0.46668146E-01 0.58847718E+03</pdfrwt>
<totfact> 0.64314227E+02</totfact>
</mgrwt>
</event>
<event>
 4    1  0.4758708E-002  0.4487192E+03  0.7818608E-02  0.1028105E+00
         21   -1    0    0  503  502  0.00000000000E+00  0.00000000000E+00  0.93850532495E+03  0.93850532495E+03  0.00000000000E+00 0. -1.
         21   -1    0    0  501  503 -0.00000000000E+00 -0.00000000000E+00 -0.87210703375E+03  0.87210703375E+03  0.00000000000E+00 0. -1.
    9000007    1    1    2  501    0  0.18654090800E+03  0.80940581574E+02 -0.75290469514E+03  0.87647838996E+03  0.40000000000E+03 0. -1.
   -9000007    1    1    2    0  502 -0.18654090800E+03 -0.80940581574E+02  0.81930298635E+03  0.93413396874E+03  0.40000000000E+03 0. -1.
<mgrwt>
<rscale>  2 0.44871916E+03</rscale>
<asrwt>0</asrwt>
<pdfrwt beam="1">  1       21 0.14438543E+00 0.44871916E+03</pdfrwt>
<pdfrwt beam="2">  1       21 0.13417031E+00 0.44871916E+03</pdfrwt>
<totfact> 0.10596587E+02</totfact>
</mgrwt>
</event>
<event>
 4    1  0.4758708E-002  0.4019841E+03  0.7818608E-02  0.1043095E+00
         21   -1    0    0  503  502  0.00000000000E+00  0.00000000000E+00  0.51512671829E+03  0.51512671829E+03  0.00000000000E+00 0.  1.
         21   -1    0    0  501  503 -0.00000000000E+00 -0.00000000000E+00 -0.32677167686E+03  0.32677167686E+03  0.00000000000E+00 0.  1.
    9000007    1    1    2  501    0  0.89854878238E+01  0.38864351749E+02  0.17839543805E+03  0.43979098347E+03  0.40000000000E+03 0.  1.
   -9000007    1    1    2    0  502 -0.89854878238E+01 -0.38864351749E+02  0.99596033914E+01  0.40210741168E+03  0.40000000000E+03 0.  1.
<mgrwt>
<rscale>  2 0.40198405E+03</rscale>
<asrwt>0</asrwt>
<pdfrwt beam="1">  1       21 0.79250265E-01 0.40198405E+03</pdfrwt>
<pdfrwt beam="2">  1       21 0.50272566E-01 0.40198405E+03</pdfrwt>
<totfact> 0.47287482E+03</totfact>
</mgrwt>
</event>
<event>
 4    1  0.4758708E-002  0.4495420E+03  0.7818608E-02  0.1027859E+00
         21   -1    0    0  501  502  0.00000000000E+00  0.00000000000E+00  0.12081393065E+04  0.12081393065E+04  0.00000000000E+00 0. -1.
         21   -1    0    0  502  503 -0.00000000000E+00 -0.00000000000E+00 -0.24321011291E+03  0.24321011291E+03  0.00000000000E+00 0.  1.
    9000007    1    1    2  501    0 -0.20311553051E+03  0.28845827613E+02  0.88795518998E+03  0.99526499984E+03  0.40000000000E+03 0. -1.
   -9000007    1    1    2    0  503  0.20311553051E+03 -0.28845827613E+02  0.76974003574E+02  0.45608441952E+03  0.40000000000E+03 0.  1.
<mgrwt>
<rscale>  2 0.44954199E+03</rscale>
<asrwt>0</asrwt>
<pdfrwt beam="1">  1       21 0.18586758E+00 0.44954199E+03</pdfrwt>
<pdfrwt beam="2">  1       21 0.37416941E-01 0.44954199E+03</pdfrwt>
<totfact> 0.95809709E+02</totfact>
</mgrwt>
</event>
<event>
 4    1  0.4758708E-002  0.4598028E+03  0.7818608E-02  0.1024838E+00
         21   -1    0    0  503  502  0.00000000000E+00  0.00000000000E+00  0.41208801694E+03  0.41208801694E+03  0.00000000000E+00 0.  1.
         21   -1    0    0  501  503 -0.00000000000E+00 -0.00000000000E+00 -0.92353982982E+03  0.92353982982E+03  0.00000000000E+00 0.  1.
    9000007    1    1    2  501    0  0.22641824571E+03  0.12386739733E+02  0.18950247348E+03  0.49732267268E+03  0.40000000000E+03 0.  1.
   -9000007    1    1    2    0  502 -0.22641824571E+03 -0.12386739733E+02 -0.70095428636E+03  0.83830517407E+03  0.40000000000E+03 0.  1.
<mgrwt>
<rscale>  2 0.45980284E+03</rscale>
<asrwt>0</asrwt>
<pdfrwt beam="1">  1       21 0.63398157E-01 0.45980284E+03</pdfrwt>
<pdfrwt beam="2">  1       21 0.14208305E+00 0.45980284E+03</pdfrwt>
<totfact> 0.66195038E+02</totfact>
</mgrwt>
</event>
<event>
 4    1  0.4758708E-002  0.5269307E+03  0.7818608E-02  0.1006979E+00
         21   -1    0    0  501  502  0.00000000000E+00  0.00000000000E+00  0.15569524701E+03  0.15569524701E+03  0.00000000000E+00 0.  1.
         21   -1    0    0  502  503 -0.00000000000E+00 -0.00000000000E+00 -0.19279958985E+04  0.19279958985E+04  0.00000000000E+00 0. -1.
    9000007    1    1    2  501    0  0.60104502801E+02 -0.33770320632E+03 -0.60076386654E+03  0.79910777131E+03  0.40000000000E+03 0. -1.
   -9000007    1    1    2    0  503 -0.60104502801E+02  0.33770320632E+03 -0.11715367850E+04  0.12845833742E+04  0.40000000000E+03 0. -1.
<mgrwt>
<rscale>  2 0.52693074E+03</rscale>
<asrwt>0</asrwt>
<pdfrwt beam="1">  1       21 0.23953114E-01 0.52693074E+03</pdfrwt>
<pdfrwt beam="2">  1       21 0.29661477E+00 0.52693074E+03</pdfrwt>
<totfact> 0.44916878E+02</totfact>
</mgrwt>
</event>
<event>
 4    1  0.4758708E-002  0.4077172E+03  0.7818608E-02  0.1041140E+00
         21   -1    0    0  501  502  0.00000000000E+00  0.00000000000E+00  0.32032978915E+03  0.32032978915E+03  0.00000000000E+00 0. -1.
         21   -1    0    0  502  503 -0.00000000000E+00 -0.00000000000E+00 -0.10556427177E+04  0.10556427177E+04  0.00000000000E+00 0. -1.
    9000007    1    1    2  501    0  0.67152241700E+02  0.41519939478E+02  0.12289708985E+03  0.42583685096E+03  0.40000000000E+03 0. -1.
   -9000007    1    1    2    0  503 -0.67152241700E+02 -0.41519939478E+02 -0.85821001843E+03  0.95013565593E+03  0.40000000000E+03 0. -1.
<mgrwt>
<rscale>  2 0.40771722E+03</rscale>
<asrwt>0</asrwt>
<pdfrwt beam="1">  1       21 0.49281506E-01 0.40771722E+03</pdfrwt>
<pdfrwt beam="2">  1       21 0.16240657E+00 0.40771722E+03</pdfrwt>
<totfact> 0.81210381E+02</totfact>
</mgrwt>
</event>
<event>
 4    1  0.4758708E-002  0.5122404E+03  0.7818608E-02  0.1010632E+00
         21   -1    0    0  503  502  0.00000000000E+00  0.00000000000E+00  0.28443813532E+04  0.28443813532E+04  0.00000000000E+00 0. -1.
         21   -1    0    0  501  503 -0.00000000000E+00 -0.00000000000E+00 -0.12875227577E+03  0.12875227577E+03  0.00000000000E+00 0. -1.
    9000007    1    1    2  501    0 -0.89947090286E+01  0.31985821651E+03  0.21493589837E+04  0.22095552096E+04  0.40000000000E+03 0. -1.
   -9000007    1    1    2    0  502  0.89947090286E+01 -0.31985821651E+03  0.56627009373E+03  0.76357841936E+03  0.40000000000E+03 0. -1.
<mgrwt>
<rscale>  2 0.51224036E+03</rscale>
<asrwt>0</asrwt>
<pdfrwt beam="1">  1       21 0.43759708E+00 0.51224036E+03</pdfrwt>
<pdfrwt beam="2">  1       21 0.19808045E-01 0.51224036E+03</pdfrwt>
<totfact> 0.84633609E+01</totfact>
</mgrwt>
</event>
<event>
 4    1  0.4758708E-002  0.4755398E+03  0.7818608E-02  0.1020368E+00
         21   -1    0    0  503  502  0.00000000000E+00  0.00000000000E+00  0.96591335830E+03  0.96591335830E+03  0.00000000000E+00 0.  1.
         21   -1    0    0  501  503 -0.00000000000E+00 -0.00000000000E+00 -0.23441416336E+03  0.23441416336E+03  0.00000000000E+00 0.  1.
    9000007    1    1    2  501    0  0.25098714703E+03  0.56067055705E+02  0.38706879028E+03  0.61315602510E+03  0.40000000000E+03 0.  1.
   -9000007    1    1    2    0  502 -0.25098714703E+03 -0.56067055705E+02  0.34443040466E+03  0.58717149656E+03  0.40000000000E+03 0.  1.
<mgrwt>
<rscale>  2 0.47553976E+03</rscale>
<asrwt>0</asrwt>
<pdfrwt beam="1">  1       21 0.14860205E+00 0.47553976E+03</pdfrwt>
<pdfrwt beam="2">  1       21 0.36063718E-01 0.47553976E+03</pdfrwt>
<totfact> 0.19250501E+03</totfact>
</mgrwt>
</event>
<event>
 4    1  0.4758708E-002  0.4657879E+03  0.7818608E-02  0.1023116E+00
         21   -1    0    0  501  502  0.00000000000E+00  0.00000000000E+00  0.51598509185E+03  0.51598509185E+03  0.00000000000E+00 0. -1.
         21   -1    0    0  502  503 -0.00000000000E+00 -0.00000000000E+00 -0.52711944983E+03  0.52711944983E+03  0.00000000000E+00 0. -1.
    9000007    1    1    2  501    0  0.98930305496E+02 -0.21718924018E+03  0.22902539731E+03  0.51904817118E+03  0.40000000000E+03 0. -1.
   -9000007    1    1    2    0  503 -0.98930305496E+02  0.21718924018E+03 -0.24015975529E+03  0.52405637050E+03  0.40000000000E+03 0. -1.
<mgrwt>
<rscale>  2 0.46578790E+03</rscale>
<asrwt>0</asrwt>
<pdfrwt beam="1">  1       21 0.79382322E-01 0.46578790E+03</pdfrwt>
<pdfrwt beam="2">  1       21 0.81095299E-01 0.46578790E+03</pdfrwt>
<totfact> 0.15945914E+03</totfact>
</mgrwt>
</event>
<event>
 4    1  0.4758708E-002  0.4233133E+03  0.7818608E-02  0.1035993E+00
         21   -1    0    0  501  502  0.00000000000E+00  0.00000000000E+00  0.12477479352E+04  0.12477479352E+04  0.00000000000E+00 0. -1.
         21   -1    0    0  502  503 -0.00000000000E+00 -0.00000000000E+00 -0.14383779576E+03  0.14383779576E+03  0.00000000000E+00 0. -1.
    9000007    1    1    2  501    0 -0.13046531004E+03 -0.46615342111E+02  0.57939479293E+03  0.71756011129E+03  0.40000000000E+03 0. -1.
   -9000007    1    1    2    0  503  0.13046531004E+03  0.46615342111E+02  0.52451534655E+03  0.67402561970E+03  0.40000000000E+03 0. -1.
<mgrwt>
<rscale>  2 0.42331334E+03</rscale>
<asrwt>0</asrwt>
<pdfrwt beam="1">  1       21 0.19196121E+00 0.42331334E+03</pdfrwt>
<pdfrwt beam="2">  1       21 0.22128893E-01 0.42331334E+03</pdfrwt>
<totfact> 0.24873249E+03</totfact>
</mgrwt>
</event>
<event>
 4    1  0.4758708E-002  0.4018035E+03  0.7818608E-02  0.1043157E+00
         21   -1    0    0  501  502  0.00000000000E+00  0.00000000000E+00  0.92935429515E+03  0.92935429515E+03  0.00000000000E+00 0. -1.
         21   -1    0    0  502  503 -0.00000000000E+00 -0.00000000000E+00 -0.22166229163E+03  0.22166229163E+03  0.00000000000E+00 0. -1.
    9000007    1    1    2  501    0  0.33320501803E+02 -0.18325854521E+02  0.62149867153E+03  0.74007208534E+03  0.40000000000E+03 0.  1.
   -9000007    1    1    2    0  503 -0.33320501803E+02  0.18325854521E+02  0.86193331989E+02  0.41094450144E+03  0.40000000000E+03 0.  1.
<mgrwt>
<rscale>  2 0.40180355E+03</rscale>
<asrwt>0</asrwt>
<pdfrwt beam="1">  1       21 0.14297758E+00 0.40180355E+03</pdfrwt>
<pdfrwt beam="2">  1       21 0.34101892E-01 0.40180355E+03</pdfrwt>
<totfact> 0.24634139E+03</totfact>
</mgrwt>
</event>
<event>
 4    1  0.4758708E-002  0.4820390E+03  0.7818608E-02  0.1018576E+00
         21   -1    0    0  501  502  0.00000000000E+00  0.00000000000E+00  0.20066737619E+03  0.20066737619E+03  0.00000000000E+00 0. -1.
         21   -1    0    0  502  503 -0.00000000000E+00 -0.00000000000E+00 -0.12550900584E+04  0.12550900584E+04  0.00000000000E+00 0.  1.
    9000007    1    1    2  501    0 -0.17840986446E+03  0.20132444875E+03 -0.32470723024E+03  0.58120254539E+03  0.40000000000E+03 0. -1.
   -9000007    1    1    2    0  503  0.17840986446E+03 -0.20132444875E+03 -0.72971545199E+03  0.87455488923E+03  0.40000000000E+03 0.  1.
<mgrwt>
<rscale>  2 0.48203902E+03</rscale>
<asrwt>0</asrwt>
<pdfrwt beam="1">  1       21 0.30871904E-01 0.48203902E+03</pdfrwt>
<pdfrwt beam="2">  1       21 0.19309078E+00 0.48203902E+03</pdfrwt>
<totfact> 0.12423734E+03</totfact>
</mgrwt>
</event>
<event>
 4    1  0.4758708E-002  0.4514408E+03  0.7818608E-02  0.1027293E+00
         21   -1    0    0  501  502  0.00000000000E+00  0.00000000000E+00  0.79507513618E+03  0.79507513618E+03  0.00000000000E+00 0.  1.
         21   -1    0    0  502  503 -0.00000000000E+00 -0.00000000000E+00 -0.39236776005E+03  0.39236776005E+03  0.00000000000E+00 0. -1.
    9000007    1    1    2  501    0  0.13525685751E+03 -0.15970095785E+03  0.55095369322E+03  0.71228420277E+03  0.40000000000E+03 0.  1.
   -9000007    1    1    2    0  503 -0.13525685751E+03  0.15970095785E+03 -0.14824631710E+03  0.47515869346E+03  0.40000000000E+03 0. -1.
<mgrwt>
<rscale>  2 0.45144082E+03</rscale>
<asrwt>0</asrwt>
<pdfrwt beam="1">  1       21 0.12231925E+00 0.45144082E+03</pdfrwt>
<pdfrwt beam="2">  1       21 0.60364271E-01 0.45144082E+03</pdfrwt>
<totfact> 0.10941556E+03</totfact>
</mgrwt>
</event>
<event>
 4    1  0.4758708E-002  0.4527288E+03  0.7818608E-02  0.1026911E+00
         21   -1    0    0  503  502  0.00000000000E+00  0.00000000000E+00  0.18145207750E+04  0.18145207750E+04  0.00000000000E+00 0.  1.
         21   -1    0    0  501  503 -0.00000000000E+00 -0.00000000000E+00 -0.25920823866E+03  0.25920823866E+03  0.00000000000E+00 0.  1.
    9000007    1    1    2  501    0  0.20481442378E+03 -0.54903524163E+02 -0.11814167370E+01  0.45273031807E+03  0.40000000000E+03 0.  1.
   -9000007    1    1    2    0  502 -0.20481442378E+03  0.54903524163E+02  0.15564939531E+04  0.16209986956E+04  0.40000000000E+03 0.  1.
<mgrwt>
<rscale>  2 0.45272878E+03</rscale>
<asrwt>0</asrwt>
<pdfrwt beam="1">  1       21 0.27915703E+00 0.45272878E+03</pdfrwt>
<pdfrwt beam="2">  1       21 0.39878192E-01 0.45272878E+03</pdfrwt>
<totfact> 0.21509984E+02</totfact>
</mgrwt>
</event>
<event>
 4    1  0.4758708E-002  0.4410134E+03  0.7818608E-02  0.1030436E+00
         21   -1    0    0  503  502  0.00000000000E+00  0.00000000000E+00  0.17484062569E+03  0.17484062569E+03  0.00000000000E+00 0.  1.
         21   -1    0    0  501  503 -0.00000000000E+00 -0.00000000000E+00 -0.14341381565E+04  0.14341381565E+04  0.00000000000E+00 0. -1.
    9000007    1    1    2  501    0  0.18567270800E+03  0.42943981469E+01 -0.10106933422E+04  0.11027211018E+04  0.40000000000E+03 0. -1.
   -9000007    1    1    2    0  502 -0.18567270800E+03 -0.42943981469E+01 -0.24860418857E+03  0.50625768036E+03  0.40000000000E+03 0.  1.
<mgrwt>
<rscale>  2 0.44101337E+03</rscale>
<asrwt>0</asrwt>
<pdfrwt beam="1">  1       21 0.26898559E-01 0.44101337E+03</pdfrwt>
<pdfrwt beam="2">  1       21 0.22063663E+00 0.44101337E+03</pdfrwt>
<totfact> 0.10949113E+03</totfact>
</mgrwt>
</event>
<event>
 4    1  0.4758708E-002  0.4831017E+03  0.7818608E-02  0.1018286E+00
         21   -1    0    0  503  502  0.00000000000E+00  0.00000000000E+00  0.50419833184E+03  0.50419833184E+03  0.00000000000E+00 0. -1.
         21   -1    0    0  501  503 -0.00000000000E+00 -0.00000000000E+00 -0.52994317535E+03  0.52994317535E+03  0.00000000000E+00 0.  1.
    9000007    1    1    2  501    0 -0.12401503139E+03 -0.24084755021E+03 -0.19680219358E+03  0.52164966582E+03  0.40000000000E+03 0.  1.
   -9000007    1    1    2    0  502  0.12401503139E+03  0.24084755021E+03  0.17105735007E+03  0.51249184136E+03  0.40000000000E+03 0. -1.
<mgrwt>
<rscale>  2 0.48310172E+03</rscale>
<asrwt>0</asrwt>
<pdfrwt beam="1">  1       21 0.77568974E-01 0.48310172E+03</pdfrwt>
<pdfrwt beam="2">  1       21 0.81529719E-01 0.48310172E+03</pdfrwt>
<totfact> 0.16505446E+03</totfact>
</mgrwt>
</event>
<event>
 4    1  0.4758708E-002  0.4231612E+03  0.7818608E-02  0.1036042E+00
         21   -1    0    0  501  502  0.00000000000E+00  0.00000000000E+00  0.26227636065E+03  0.26227636065E+03  0.00000000000E+00 0.  1.
         21   -1    0    0  502  503 -0.00000000000E+00 -0.00000000000E+00 -0.96933463253E+03  0.96933463253E+03  0.00000000000E+00 0.  1.
    9000007    1    1    2  501    0 -0.36411623469E+02  0.13319007760E+03 -0.18683940529E+02  0.42357347973E+03  0.40000000000E+03 0.  1.
   -9000007    1    1    2    0  503  0.36411623469E+02 -0.13319007760E+03 -0.68837433135E+03  0.80803751346E+03  0.40000000000E+03 0.  1.
<mgrwt>
<rscale>  2 0.42316120E+03</rscale>
<asrwt>0</asrwt>
<pdfrwt beam="1">  1       21 0.40350209E-01 0.42316120E+03</pdfrwt>
<pdfrwt beam="2">  1       21 0.14912841E+00 0.42316120E+03</pdfrwt>
<totfact> 0.15476135E+03</totfact>
</mgrwt>
</event>
<event>
 4    1  0.4758708E-002  0.4330778E+03  0.7818608E-02  0.1032892E+00
         21   -1    0    0  501  502  0.00000000000E+00  0.00000000000E+00  0.22911289052E+03  0.22911289052E+03  0.00000000000E+00 0.  1.
         21   -1    0    0  502  503 -0.00000000000E+00 -0.00000000000E+00 -0.83302684220E+03  0.83302684220E+03  0.00000000000E+00 0.  1.
    9000007    1    1    2  501    0 -0.95424136080E+02 -0.13583312422E+03 -0.37179725605E+03  0.57077982006E+03  0.40000000000E+03 0.  1.
   -9000007    1    1    2    0  503  0.95424136080E+02  0.13583312422E+03 -0.23211669563E+03  0.49135991266E+03  0.40000000000E+03 0.  1.
<mgrwt>
<rscale>  2 0.43307783E+03</rscale>
<asrwt>0</asrwt>
<pdfrwt beam="1">  1       21 0.35248137E-01 0.43307783E+03</pdfrwt>
<pdfrwt beam="2">  1       21 0.12815798E+00 0.43307783E+03</pdfrwt>
<totfact> 0.30315229E+03</totfact>
</mgrwt>
</event>
<event>
 4    1  0.4758708E-002  0.4121610E+03  0.7818608E-02  0.1039648E+00
         21   -1    0    0  501  502  0.00000000000E+00  0.00000000000E+00  0.59531875970E+03  0.59531875970E+03  0.00000000000E+00 0.  1.
         21   -1    0    0  502  503 -0.00000000000E+00 -0.00000000000E+00 -0.28535425459E+03  0.28535425459E+03  0.00000000000E+00 0.  1.
    9000007    1    1    2  501    0 -0.80598201443E+02  0.58142806494E+02  0.15467096937E+03  0.44022694691E+03  0.40000000000E+03 0.  1.
   -9000007    1    1    2    0  503  0.80598201443E+02 -0.58142806494E+02  0.15529353574E+03  0.44044606737E+03  0.40000000000E+03 0.  1.
<mgrwt>
<rscale>  2 0.41216096E+03</rscale>
<asrwt>0</asrwt>
<pdfrwt beam="1">  1       21 0.91587501E-01 0.41216096E+03</pdfrwt>
<pdfrwt beam="2">  1       21 0.43900655E-01 0.41216096E+03</pdfrwt>
<totfact> 0.44684151E+03</totfact>
</mgrwt>
</event>
<event>
 4    1  0.4758708E-002  0.4401577E+03  0.7818608E-02  0.1030698E+00
         21   -1    0    0  503  502  0.00000000000E+00  0.00000000000E+00  0.64928431345E+03  0.64928431345E+03  0.00000000000E+00 0. -1.
         21   -1    0    0  501  503 -0.00000000000E+00 -0.00000000000E+00 -0.45782481957E+03  0.45782481957E+03  0.00000000000E+00 0.  1.
    9000007    1    1    2  501    0 -0.51485508804E+02 -0.17631800750E+03 -0.23093688038E+03  0.49706200831E+03  0.40000000000E+03 0.  1.
   -9000007    1    1    2    0  502  0.51485508804E+02  0.17631800750E+03  0.42239637426E+03  0.61004712472E+03  0.40000000000E+03 0. -1.
<mgrwt>
<rscale>  2 0.44015770E+03</rscale>
<asrwt>0</asrwt>
<pdfrwt beam="1">  1       21 0.99889895E-01 0.44015770E+03</pdfrwt>
<pdfrwt beam="2">  1       21 0.70434587E-01 0.44015770E+03</pdfrwt>
<totfact> 0.12910134E+03</totfact>
</mgrwt>
</event>
<event>
 4    1  0.4758708E-002  0.5258476E+03  0.7818608E-02  0.1007244E+00
         21   -1    0    0  501  502  0.00000000000E+00  0.00000000000E+00  0.92182163212E+03  0.92182163212E+03  0.00000000000E+00 0.  1.
         21   -1    0    0  502  503 -0.00000000000E+00 -0.00000000000E+00 -0.30035564629E+03  0.30035564629E+03  0.00000000000E+00 0.  1.
    9000007    1    1    2  501    0  0.27613523575E+03  0.20066139341E+03  0.28873871584E+03  0.59990475015E+03  0.40000000000E+03 0.  1.
   -9000007    1    1    2    0  503 -0.27613523575E+03 -0.20066139341E+03  0.33272727000E+03  0.62227252826E+03  0.40000000000E+03 0.  1.
<mgrwt>
<rscale>  2 0.52584757E+03</rscale>
<asrwt>0</asrwt>
<pdfrwt beam="1">  1       21 0.14181871E+00 0.52584757E+03</pdfrwt>
<pdfrwt beam="2">  1       21 0.46208561E-01 0.52584757E+03</pdfrwt>
<totfact> 0.12834570E+03</totfact>
</mgrwt>
</event>
<event>
 4    1  0.4758708E-002  0.4164121E+03  0.7818608E-02  0.1038240E+00
         21   -1    0    0  503  502  0.00000000000E+00  0.00000000000E+00  0.31435776376E+03  0.31435776376E+03  0.00000000000E+00 0.  1.
         21   -1    0    0  501  503 -0.00000000000E+00 -0.00000000000E+00 -0.10512545802E+04  0.10512545802E+04  0.00000000000E+00 0.  1.
    9000007    1    1    2  501    0 -0.95769192610E+02 -0.65017875255E+02 -0.83918652357E+03  0.93682073189E+03  0.40000000000E+03 0.  1.
   -9000007    1    1    2    0  502  0.95769192610E+02  0.65017875255E+02  0.10228970716E+03  0.42879161203E+03  0.40000000000E+03 0.  1.
<mgrwt>
<rscale>  2 0.41641213E+03</rscale>
<asrwt>0</asrwt>
<pdfrwt beam="1">  1       21 0.48362733E-01 0.41641213E+03</pdfrwt>
<pdfrwt beam="2">  1       21 0.16173147E+00 0.41641213E+03</pdfrwt>
<totfact> 0.85136760E+02</totfact>
</mgrwt>
</event>
<event>
 4    1  0.4758708E-002  0.5614052E+03  0.7818608E-02  0.9988880E-01
         21   -1    0    0  503  502  0.00000000000E+00  0.00000000000E+00  0.14974407509E+04  0.14974407509E+04  0.00000000000E+00 0.  1.
         21   -1    0    0  501  503 -0.00000000000E+00 -0.00000000000E+00 -0.25443070854E+03  0.25443070854E+03  0.00000000000E+00 0.  1.
    9000007    1    1    2  501    0 -0.39391773626E+03  0.21531619308E+01  0.25743191575E+03  0.61761396543E+03  0.40000000000E+03 0.  1.
   -9000007    1    1    2    0  502  0.39391773626E+03 -0.21531619308E+01  0.98557812659E+03  0.11342574940E+04  0.40000000000E+03 0.  1.
<mgrwt>
<rscale>  2 0.56140522E+03</rscale>
<asrwt>0</asrwt>
<pdfrwt beam="1">  1       21 0.23037549E+00 0.56140522E+03</pdfrwt>
<pdfrwt beam="2">  1       21 0.39143187E-01 0.56140522E+03</pdfrwt>
<totfact> 0.42335256E+02</totfact>
</mgrwt>
</event>
<event>
 4    1  0.4758708E-002  0.5138936E+03  0.7818608E-02  0.1010215E+00
         21   -1    0    0  501  502  0.00000000000E+00  0.00000000000E+00  0.23735740251E+04  0.23735740251E+04  0.00000000000E+00 0.  1.
         21   -1    0    0  502  503 -0.00000000000E+00 -0.00000000000E+00 -0.40299109431E+03  0.40299109431E+03  0.00000000000E+00 0.  1.
    9000007    1    1    2  501    0 -0.50502686594E+02  0.31864726976E+03  0.21664838523E+04  0.22265980522E+04  0.40000000000E+03 0.  1.
   -9000007    1    1    2    0  503  0.50502686594E+02 -0.31864726976E+03 -0.19590092156E+03  0.54996706715E+03  0.40000000000E+03 0.  1.
<mgrwt>
<rscale>  2 0.51389357E+03</rscale>
<asrwt>0</asrwt>
<pdfrwt beam="1">  1       21 0.36516523E+00 0.51389357E+03</pdfrwt>
<pdfrwt beam="2">  1       21 0.61998631E-01 0.51389357E+03</pdfrwt>
<totfact> 0.24221399E+01</totfact>
</mgrwt>
</event>
<event>
 4    1  0.4758708E-002  0.4042199E+03  0.7818608E-02  0.1042328E+00
         21   -1    0    0  503  502  0.00000000000E+00  0.00000000000E+00  0.51770660384E+03  0.51770660384E+03  0.00000000000E+00 0. -1.
         21   -1    0    0  501  503 -0.00000000000E+00 -0.00000000000E+00 -0.40369066756E+03  0.40369066756E+03  0.00000000000E+00 0. -1.
    9000007    1    1    2  501    0  0.37906636588E+01  0.58131993110E+02 -0.15818662874E+03  0.43406993361E+03  0.40000000000E+03 0. -1.
   -9000007    1    1    2    0  502 -0.37906636588E+01 -0.58131993110E+02  0.27220256502E+03  0.48732733779E+03  0.40000000000E+03 0. -1.
<mgrwt>
<rscale>  2 0.40421986E+03</rscale>
<asrwt>0</asrwt>
<pdfrwt beam="1">  1       21 0.79647170E-01 0.40421986E+03</pdfrwt>
<pdfrwt beam="2">  1       21 0.62106257E-01 0.40421986E+03</pdfrwt>
<totfact> 0.29583913E+03</totfact>
</mgrwt>
</event>
<event>
 4    1  0.4758708E-002  0.4596802E+03  0.7818608E-02  0.1024874E+00
         21   -1    0    0  503  502  0.00000000000E+00  0.00000000000E+00  0.26834006073E+03  0.26834006073E+03  0.00000000000E+00 0.  1.
         21   -1    0    0  501  503 -0.00000000000E+00 -0.00000000000E+00 -0.79058802436E+03  0.79058802436E+03  0.00000000000E+00 0.  1.
    9000007    1    1    2  501    0 -0.22543182769E+03  0.22053386836E+02 -0.29445184889E+03  0.54590086290E+03  0.40000000000E+03 0.  1.
   -9000007    1    1    2    0  502  0.22543182769E+03 -0.22053386836E+02 -0.22779611475E+03  0.51302722218E+03  0.40000000000E+03 0.  1.
<mgrwt>
<rscale>  2 0.45968017E+03</rscale>
<asrwt>0</asrwt>
<pdfrwt beam="1">  1       21 0.41283087E-01 0.45968017E+03</pdfrwt>
<pdfrwt beam="2">  1       21 0.12162893E+00 0.45968017E+03</pdfrwt>
<totfact> 0.24846588E+03</totfact>
</mgrwt>
</event>
<event>
 4    1  0.4758708E-002  0.4385906E+03  0.7818608E-02  0.1031180E+00
         21   -1    0    0  501  502  0.00000000000E+00  0.00000000000E+00  0.87417062497E+03  0.87417062497E+03  0.00000000000E+00 0. -1.
         21   -1    0    0  502  503 -0.00000000000E+00 -0.00000000000E+00 -0.22113863538E+03  0.22113863538E+03  0.00000000000E+00 0. -1.
    9000007    1    1    2  501    0  0.16942980265E+03 -0.60458751831E+02  0.28810037958E+03  0.52475093846E+03  0.40000000000E+03 0. -1.
   -9000007    1    1    2    0  503 -0.16942980265E+03  0.60458751831E+02  0.36493161000E+03  0.57055832189E+03  0.40000000000E+03 0. -1.
<mgrwt>
<rscale>  2 0.43859060E+03</rscale>
<asrwt>0</asrwt>
<pdfrwt beam="1">  1       21 0.13448779E+00 0.43859060E+03</pdfrwt>
<pdfrwt beam="2">  1       21 0.34021329E-01 0.43859060E+03</pdfrwt>
<totfact> 0.28670271E+03</totfact>
</mgrwt>
</event>
<event>
 4    1  0.4758708E-002  0.5749343E+03  0.7818608E-02  0.9958819E-01
         21   -1    0    0  501  502  0.00000000000E+00  0.00000000000E+00  0.20791196006E+04  0.20791196006E+04  0.00000000000E+00 0. -1.
         21   -1    0    0  502  503 -0.00000000000E+00 -0.00000000000E+00 -0.23106509135E+03  0.23106509135E+03  0.00000000000E+00 0. -1.
    9000007    1    1    2  501    0  0.39575107042E+03 -0.11802780701E+03  0.15691706699E+04  0.16711810388E+04  0.40000000000E+03 0. -1.
   -9000007    1    1    2    0  503 -0.39575107042E+03  0.11802780701E+03  0.27888383935E+03  0.63900365322E+03  0.40000000000E+03 0. -1.
<mgrwt>
<rscale>  2 0.57493432E+03</rscale>
<asrwt>0</asrwt>
<pdfrwt beam="1">  1       21 0.31986454E+00 0.57493432E+03</pdfrwt>
<pdfrwt beam="2">  1       21 0.35548477E-01 0.57493432E+03</pdfrwt>
<totfact> 0.14454306E+02</totfact>
</mgrwt>
</event>
<event>
 4    1  0.4758708E-002  0.5221535E+03  0.7818608E-02  0.1008153E+00
         21   -1    0    0  501  502  0.00000000000E+00  0.00000000000E+00  0.79836336857E+03  0.79836336857E+03  0.00000000000E+00 0.  1.
         21   -1    0    0  502  503 -0.00000000000E+00 -0.00000000000E+00 -0.35701559370E+03  0.35701559370E+03  0.00000000000E+00 0. -1.
    9000007    1    1    2  501    0 -0.19807882671E+03  0.27094110081E+03  0.10025939382E+03  0.53169187294E+03  0.40000000000E+03 0. -1.
   -9000007    1    1    2    0  503  0.19807882671E+03 -0.27094110081E+03  0.34108838105E+03  0.62368708932E+03  0.40000000000E+03 0.  1.
<mgrwt>
<rscale>  2 0.52215352E+03</rscale>
<asrwt>0</asrwt>
<pdfrwt beam="1">  1       21 0.12282513E+00 0.52215352E+03</pdfrwt>
<pdfrwt beam="2">  1       21 0.54925476E-01 0.52215352E+03</pdfrwt>
<totfact> 0.12950162E+03</totfact>
</mgrwt>
</event>
<event>
 4    1  0.4758708E-002  0.7228650E+03  0.7818608E-02  0.9678910E-01
         21   -1    0    0  503  502  0.00000000000E+00  0.00000000000E+00  0.29781420477E+04  0.29781420477E+04  0.00000000000E+00 0. -1.
         21   -1    0    0  501  503 -0.00000000000E+00 -0.00000000000E+00 -0.39758732688E+03  0.39758732688E+03  0.00000000000E+00 0.  1.
    9000007    1    1    2  501    0 -0.59345946852E+03  0.10168407413E+03  0.28664897392E+02  0.72343311235E+03  0.40000000000E+03 0.  1.
   -9000007    1    1    2    0  502  0.59345946852E+03 -0.10168407413E+03  0.25518898235E+04  0.26522962623E+04  0.40000000000E+03 0. -1.
<mgrwt>
<rscale>  2 0.72286499E+03</rscale>
<asrwt>0</asrwt>
<pdfrwt beam="1">  1       21 0.45817568E+00 0.72286499E+03</pdfrwt>
<pdfrwt beam="2">  1       21 0.61167283E-01 0.72286499E+03</pdfrwt>
<totfact> 0.54453120E+00</totfact>
</mgrwt>
</event>
<event>
 4    1  0.4758708E-002  0.4356890E+03  0.7818608E-02  0.1032078E+00
         21   -1    0    0  501  502  0.00000000000E+00  0.00000000000E+00  0.91232627369E+03  0.91232627369E+03  0.00000000000E+00 0. -1.
         21   -1    0    0  502  503 -0.00000000000E+00 -0.00000000000E+00 -0.25468593976E+03  0.25468593976E+03  0.00000000000E+00 0.  1.
    9000007    1    1    2  501    0  0.99520430104E+02  0.14114040819E+03  0.57846605831E+03  0.72418775980E+03  0.40000000000E+03 0. -1.
   -9000007    1    1    2    0  503 -0.99520430104E+02 -0.14114040819E+03  0.79174275619E+02  0.44282445365E+03  0.40000000000E+03 0.  1.
<mgrwt>
<rscale>  2 0.43568903E+03</rscale>
<asrwt>0</asrwt>
<pdfrwt beam="1">  1       21 0.14035789E+00 0.43568903E+03</pdfrwt>
<pdfrwt beam="2">  1       21 0.39182453E-01 0.43568903E+03</pdfrwt>
<totfact> 0.19241631E+03</totfact>
</mgrwt>
</event>
<event>
 4    1  0.4758708E-002  0.5671430E+03  0.7818608E-02  0.9976021E-01
         21   -1    0    0  503  502  0.00000000000E+00  0.00000000000E+00  0.15127593123E+04  0.15127593123E+04  0.00000000000E+00 0. -1.
         21   -1    0    0  501  503 -0.00000000000E+00 -0.00000000000E+00 -0.22716751937E+03  0.22716751937E+03  0.00000000000E+00 0.  1.
    9000007    1    1    2  501    0  0.36934678411E+03  0.15885270230E+03  0.42268577861E+03  0.70732912806E+03  0.40000000000E+03 0.  1.
   -9000007    1    1    2    0  502 -0.36934678411E+03 -0.15885270230E+03  0.86290601429E+03  0.10325977036E+04  0.40000000000E+03 0. -1.
<mgrwt>
<rscale>  2 0.56714304E+03</rscale>
<asrwt>0</asrwt>
<pdfrwt beam="1">  1       21 0.23273220E+00 0.56714304E+03</pdfrwt>
<pdfrwt beam="2">  1       21 0.34948850E-01 0.56714304E+03</pdfrwt>
<totfact> 0.51465494E+02</totfact>
</mgrwt>
</event>
<event>
 4    1  0.4758708E-002  0.6656107E+03  0.7818608E-02  0.9777920E-01
         21   -1    0    0  501  502  0.00000000000E+00  0.00000000000E+00  0.13870311965E+04  0.13870311965E+04  0.00000000000E+00 0. -1.
         21   -1    0    0  502  503 -0.00000000000E+00 -0.00000000000E+00 -0.34658933652E+03  0.34658933652E+03  0.00000000000E+00 0.  1.
    9000007    1    1    2  501    0 -0.27033792032E+03 -0.45820854554E+03  0.27750339683E+03  0.72114200934E+03  0.40000000000E+03 0.  1.
   -9000007    1    1    2    0  503  0.27033792032E+03  0.45820854554E+03  0.76293846318E+03  0.10124785237E+04  0.40000000000E+03 0. -1.
<mgrwt>
<rscale>  2 0.66561074E+03</rscale>
<asrwt>0</asrwt>
<pdfrwt beam="1">  1       21 0.21338941E+00 0.66561074E+03</pdfrwt>
<pdfrwt beam="2">  1       21 0.53321437E-01 0.66561074E+03</pdfrwt>
<totfact> 0.27273012E+02</totfact>
</mgrwt>
</event>
<event>
 4    1  0.4758708E-002  0.4857870E+03  0.7818608E-02  0.1017557E+00
         21   -1    0    0  501  502  0.00000000000E+00  0.00000000000E+00  0.23835128061E+04  0.23835128061E+04  0.00000000000E+00 0. -1.
         21   -1    0    0  502  503 -0.00000000000E+00 -0.00000000000E+00 -0.10451152685E+03  0.10451152685E+03  0.00000000000E+00 0. -1.
    9000007    1    1    2  501    0  0.25769965830E+03  0.97877141513E+02  0.14249482705E+04  0.15054788681E+04  0.40000000000E+03 0. -1.
   -9000007    1    1    2    0  503 -0.25769965830E+03 -0.97877141513E+02  0.85405300872E+03  0.98254546481E+03  0.40000000000E+03 0. -1.
<mgrwt>
<rscale>  2 0.48578704E+03</rscale>
<asrwt>0</asrwt>
<pdfrwt beam="1">  1       21 0.36669424E+00 0.48578704E+03</pdfrwt>
<pdfrwt beam="2">  1       21 0.16078698E-01 0.48578704E+03</pdfrwt>
<totfact> 0.36564594E+02</totfact>
</mgrwt>
</event>
<event>
 4    1  0.4758708E-002  0.4088884E+03  0.7818608E-02  0.1040745E+00
         21   -1    0    0  503  502  0.00000000000E+00  0.00000000000E+00  0.18366885722E+03  0.18366885722E+03  0.00000000000E+00 0.  1.
         21   -1    0    0  501  503 -0.00000000000E+00 -0.00000000000E+00 -0.97470542544E+03  0.97470542544E+03  0.00000000000E+00 0.  1.
    9000007    1    1    2  501    0 -0.78214291790E+02  0.32744636887E+02 -0.54442634899E+03  0.68087424401E+03  0.40000000000E+03 0.  1.
   -9000007    1    1    2    0  502  0.78214291790E+02 -0.32744636887E+02 -0.24661021923E+03  0.47750003865E+03  0.40000000000E+03 0.  1.
<mgrwt>
<rscale>  2 0.40888835E+03</rscale>
<asrwt>0</asrwt>
<pdfrwt beam="1">  1       21 0.28256748E-01 0.40888835E+03</pdfrwt>
<pdfrwt beam="2">  1       21 0.14995468E+00 0.40888835E+03</pdfrwt>
<totfact> 0.31416734E+03</totfact>
</mgrwt>
</event>
<event>
 4    1  0.4758708E-002  0.4976607E+03  0.7818608E-02  0.1014391E+00
         21   -1    0    0  503  502  0.00000000000E+00  0.00000000000E+00  0.17943973869E+04  0.17943973869E+04  0.00000000000E+00 0. -1.
         21   -1    0    0  501  503 -0.00000000000E+00 -0.00000000000E+00 -0.13867307696E+03  0.13867307696E+03  0.00000000000E+00 0. -1.
    9000007    1    1    2  501    0  0.31579923313E+02  0.29439572036E+03  0.89409479255E+03  0.10232651806E+04  0.40000000000E+03 0. -1.
   -9000007    1    1    2    0  502 -0.31579923313E+02 -0.29439572036E+03  0.76162951739E+03  0.90980528328E+03  0.40000000000E+03 0. -1.
<mgrwt>
<rscale>  2 0.49766066E+03</rscale>
<asrwt>0</asrwt>
<pdfrwt beam="1">  1       21 0.27606112E+00 0.49766066E+03</pdfrwt>
<pdfrwt beam="2">  1       21 0.21334321E-01 0.49766066E+03</pdfrwt>
<totfact> 0.75853674E+02</totfact>
</mgrwt>
</event>
