<event>
11    0  0.3483054E-009  0.9118800E+02  0.7816531E-02  0.1126479E+00
         25   -1    0    0    0    0  0.00000000000E+00  0.00000000000E+00  0.99999998245E-14  0.12500000000E+03  0.12500000000E+03 0.  0.
    3000001    1    3    3    0    0 -0.33372529609E+01 -0.24033578753E+02 -0.43265183274E+02  0.49614778532E+02  0.10000000000E+01 0. -1.
    1000022    2    1    0    0    0 -0.69375392969E+01 -0.26130185069E+02 -0.55455697419E+02  0.62500000948E+02  0.99999859560E+01 0.  0.
    3000022    2    3    3    0    0 -0.36002863360E+01 -0.20966063163E+01 -0.12190514144E+02  0.12885222416E+02  0.25000375643E+00 0.  0.
    1000022    2    1    0    0    0  0.69375392969E+01  0.26130185069E+02  0.55455697419E+02  0.62499999052E+02  0.99999741037E+01 0.  0.
    3000022    2    5    5    0    0  0.76058585382E+01  0.20439428546E+02  0.35052195585E+02  0.41283631609E+02  0.25000015916E+00 0.  0.
        -13    1    4    4    0    0 -0.23388999432E+01 -0.12964029658E+01 -0.77811475719E+01  0.82285111734E+01  0.10500000000E+00 0. -1.
         13    1    4    4    0    0 -0.12613863928E+01 -0.80020335054E+00 -0.44093665721E+01  0.46567112431E+01  0.10500000000E+00 0.  1.
    3000001    1    5    5    0    0 -0.66831924130E+00  0.56907565224E+01  0.20403501833E+02  0.21216367443E+02  0.10000000000E+01 0. -1.
        -13    1    6    6    0    0  0.41351138943E+01  0.11294355606E+02  0.19369056960E+02  0.22799847105E+02  0.10500000000E+00 0.  1.
         13    1    6    6    0    0  0.34707446439E+01  0.91450729401E+01  0.15683138626E+02  0.18483784505E+02  0.10500000000E+00 0. -1.
</event>
<event>
11    0  0.3483054E-009  0.9118800E+02  0.7816531E-02  0.1126479E+00
         25   -1    0    0    0    0  0.00000000000E+00  0.00000000000E+00  0.99999998245E-14  0.12500000000E+03  0.12500000000E+03 0.  0.
    3000001    1    3    3    0    0  0.48944212048E+01  0.45273871463E+01 -0.72919741447E+01  0.99310362113E+01  0.10000000000E+01 0.  1.
    1000022    2    1    0    0    0  0.10026959461E+02  0.28312611417E+02 -0.53889758935E+02  0.62499999367E+02  0.99999960746E+01 0.  0.
    3000022    2    3    3    0    0  0.51325382560E+01  0.23785224271E+02 -0.46597784790E+02  0.52568963155E+02  0.24999464636E+00 0.  0.
    1000022    2    1    0    0    0 -0.10026959461E+02 -0.28312611417E+02  0.53889758935E+02  0.62500000633E+02  0.10000003992E+02 0.  0.
    3000022    2    5    5    0    0 -0.77830925004E+01 -0.23778947202E+02  0.35714064675E+02  0.43607014846E+02  0.24993844021E+00 0.  0.
        -13    1    4    4    0    0  0.34381857526E+01  0.15732198829E+02 -0.30911511059E+02  0.34854780765E+02  0.10500000000E+00 0.  1.
         13    1    4    4    0    0  0.16943525033E+01  0.80530254412E+01 -0.15686273731E+02  0.17714182390E+02  0.10500000000E+00 0. -1.
    3000001    1    5    5    0    0 -0.22438669603E+01 -0.45336642146E+01  0.18175694260E+02  0.18892985787E+02  0.10000000000E+01 0.  1.
        -13    1    6    6    0    0 -0.23596445894E+01 -0.70688144026E+01  0.10657979381E+02  0.13005368473E+02  0.10500000000E+00 0. -1.
         13    1    6    6    0    0 -0.54234479110E+01 -0.16710132800E+02  0.25056085295E+02  0.30601646373E+02  0.10500000000E+00 0.  1.
</event>
<event>
11    0  0.3483054E-009  0.9118800E+02  0.7816531E-02  0.1126479E+00
         25   -1    0    0    0    0  0.00000000000E+00  0.00000000000E+00  0.99999998245E-14  0.12500000000E+03  0.12500000000E+03 0.  0.
    3000001    1    3    3    0    0 -0.26865357863E+02 -0.63047248608E+01 -0.66193688004E+01  0.28395651991E+02  0.10000000000E+01 0. -1.
    1000022    2    1    0    0    0 -0.55264816280E+02 -0.23926907945E+02 -0.13399742061E+02  0.62499999706E+02  0.10000001688E+02 0.  0.
    3000022    2    3    3    0    0 -0.28399458417E+02 -0.17622183084E+02 -0.67803732607E+01  0.34104347716E+02  0.24999306092E+00 0.  0.
    1000022    2    1    0    0    0  0.55264816280E+02  0.23926907945E+02  0.13399742061E+02  0.62500000294E+02  0.10000005358E+02 0.  0.
    3000022    2    5    5    0    0  0.20469013155E+02  0.11583774697E+02  0.10060746157E+01  0.23542281595E+02  0.25000156979E+00 0.  0.
        -13    1    4    4    0    0 -0.13667003786E+02 -0.84010951754E+01 -0.32501318053E+01  0.16368866008E+02  0.10500000000E+00 0.  1.
         13    1    4    4    0    0 -0.14732454632E+02 -0.92210879089E+01 -0.35302414554E+01  0.17735481708E+02  0.10500000000E+00 0. -1.
    3000001    1    5    5    0    0  0.34795803125E+02  0.12343133248E+02  0.12393667445E+02  0.38957718699E+02  0.10000000000E+01 0. -1.
        -13    1    6    6    0    0  0.12339117420E+02  0.69596425056E+01  0.54646687617E+00  0.14177450178E+02  0.10500000000E+00 0.  1.
         13    1    6    6    0    0  0.81298957350E+01  0.46241321911E+01  0.45960773952E+00  0.93648314164E+01  0.10500000000E+00 0. -1.
</event>
<event>
11    0  0.3483054E-009  0.9118800E+02  0.7816531E-02  0.1126479E+00
         25   -1    0    0    0    0  0.00000000000E+00  0.00000000000E+00  0.99999998245E-14  0.12500000000E+03  0.12500000000E+03 0.  0.
    3000001    1    3    3    0    0 -0.22756586575E+02  0.12461425060E+02 -0.54274607326E+01  0.26525585330E+02  0.10000000000E+01 0.  1.
    1000022    2    1    0    0    0 -0.46329412900E+02  0.38109345047E+02 -0.14405331301E+02  0.62500001269E+02  0.99999954602E+01 0.  0.
    3000022    2    3    3    0    0 -0.23572826324E+02  0.25647919988E+02 -0.89778705682E+01  0.35974415940E+02  0.25000328183E+00 0.  0.
    1000022    2    1    0    0    0  0.46329412900E+02 -0.38109345047E+02  0.14405331301E+02  0.62499998731E+02  0.99999795942E+01 0.  0.
    3000022    2    5    5    0    0  0.22611099914E+02 -0.17566889741E+02  0.18663069576E+01  0.28694999509E+02  0.24988130559E+00 0.  0.
        -13    1    4    4    0    0 -0.58880929033E+01  0.63899539380E+01 -0.22637853031E+01  0.89798050238E+01  0.10500000000E+00 0.  1.
         13    1    4    4    0    0 -0.17684733421E+02  0.19257966050E+02 -0.67140852652E+01  0.26994610916E+02  0.10500000000E+00 0. -1.
    3000001    1    5    5    0    0  0.23718312986E+02 -0.20542455306E+02  0.12539024343E+02  0.33804999221E+02  0.10000000000E+01 0.  1.
        -13    1    6    6    0    0  0.14641167962E+02 -0.11327506594E+02  0.11635426221E+01  0.18548343898E+02  0.10500000000E+00 0.  1.
         13    1    6    6    0    0  0.79699319520E+01 -0.62393831471E+01  0.70276433548E+00  0.10146655611E+02  0.10500000000E+00 0. -1.
</event>
<event>
11    0  0.3483054E-009  0.9118800E+02  0.7816531E-02  0.1126479E+00
         25   -1    0    0    0    0  0.00000000000E+00  0.00000000000E+00  0.99999998245E-14  0.12500000000E+03  0.12500000000E+03 0.  0.
    3000001    1    3    3    0    0 -0.49292590134E+01 -0.84985741847E+01 -0.10984036609E+02  0.14770660710E+02  0.10000000000E+01 0. -1.
    1000022    2    1    0    0    0 -0.34800921261E+02 -0.25516029596E+02 -0.44091701056E+02  0.62500001225E+02  0.10000008206E+02 0.  0.
    3000022    2    3    3    0    0 -0.29871662248E+02 -0.17017455412E+02 -0.33107664448E+02  0.47729340515E+02  0.25001339340E+00 0.  0.
    1000022    2    1    0    0    0  0.34800921261E+02  0.25516029596E+02  0.44091701056E+02  0.62499998775E+02  0.99999928923E+01 0.  0.
    3000022    2    5    5    0    0  0.21717504831E+02  0.20696549472E+02  0.33440811184E+02  0.44926022866E+02  0.25000366361E+00 0.  0.
        -13    1    4    4    0    0 -0.68611468556E+01 -0.39157671430E+01 -0.76090419856E+01  0.10968915782E+02  0.10500000000E+00 0.  1.
         13    1    4    4    0    0 -0.23010515392E+02 -0.13101688269E+02 -0.25498622462E+02  0.36760424733E+02  0.10500000000E+00 0. -1.
    3000001    1    5    5    0    0  0.13083416430E+02  0.48194801241E+01  0.10650889872E+02  0.17573975908E+02  0.10000000000E+01 0. -1.
        -13    1    6    6    0    0  0.88342673439E+01  0.83312738491E+01  0.13538874152E+02  0.18186988254E+02  0.10500000000E+00 0. -1.
         13    1    6    6    0    0  0.12883237487E+02  0.12365275623E+02  0.19901937032E+02  0.26739034612E+02  0.10500000000E+00 0.  1.
</event>
<event>
11    0  0.3483054E-009  0.9118800E+02  0.7816531E-02  0.1126479E+00
         25   -1    0    0    0    0  0.00000000000E+00  0.00000000000E+00  0.99999998245E-14  0.12500000000E+03  0.12500000000E+03 0.  0.
    3000001    1    3    3    0    0  0.40100418742E+01 -0.55016681969E+02  0.69061114419E+00  0.55176015391E+02  0.10000000000E+01 0. -1.
    1000022    2    1    0    0    0  0.63304704384E+01 -0.61329831947E+02 -0.21969549964E+01  0.62500002807E+02  0.10000029852E+02 0.  0.
    3000022    2    3    3    0    0  0.23204285642E+01 -0.63131499779E+01 -0.28875661406E+01  0.73239874159E+01  0.25000417634E+00 0.  0.
    1000022    2    1    0    0    0 -0.63304704384E+01  0.61329831947E+02  0.21969549964E+01  0.62499997193E+02  0.99999947654E+01 0.  0.
    3000022    2    5    5    0    0 -0.83595966459E+01  0.34384257817E+02  0.22706612441E+01  0.35459532128E+02  0.24994904187E+00 0.  0.
        -13    1    4    4    0    0  0.99191598901E+00 -0.27418985806E+01 -0.11823327565E+01  0.31481488056E+01  0.10500000000E+00 0. -1.
         13    1    4    4    0    0  0.13285125752E+01 -0.35712513973E+01 -0.17052333841E+01  0.41758386103E+01  0.10500000000E+00 0.  1.
    3000001    1    5    5    0    0  0.20291262075E+01  0.26945574129E+02 -0.73706247651E-01  0.27040465065E+02  0.10000000000E+01 0.  1.
        -13    1    6    6    0    0 -0.24733514043E+01  0.10367685773E+02  0.68005832546E+00  0.10680818311E+02  0.10500000000E+00 0.  1.
         13    1    6    6    0    0 -0.58862452416E+01  0.24016572044E+02  0.15906029186E+01  0.24778713817E+02  0.10500000000E+00 0. -1.
</event>
<event>
11    0  0.3483054E-009  0.9118800E+02  0.7816531E-02  0.1126479E+00
         25   -1    0    0    0    0  0.00000000000E+00  0.00000000000E+00  0.99999998245E-14  0.12500000000E+03  0.12500000000E+03 0.  0.
    3000001    1    3    3    0    0 -0.92986794430E+01  0.92438682879E+01 -0.20032351471E+02  0.23962671925E+02  0.10000000000E+01 0. -1.
    1000022    2    1    0    0    0 -0.31398740119E+02  0.13891359429E+02 -0.51258162540E+02  0.62499999689E+02  0.99999993148E+01 0.  0.
    3000022    2    3    3    0    0 -0.22100060676E+02  0.46474911410E+01 -0.31225811069E+02  0.38537327764E+02  0.24999702194E+00 0.  0.
    1000022    2    1    0    0    0  0.31398740119E+02 -0.13891359429E+02  0.51258162540E+02  0.62500000311E+02  0.10000003205E+02 0.  0.
    3000022    2    5    5    0    0  0.24638243910E+02 -0.88133602212E+01  0.31275675332E+02  0.40779268741E+02  0.25002042512E+00 0.  0.
        -13    1    4    4    0    0 -0.11712529604E+02  0.24790900737E+01 -0.16441561751E+02  0.20338761396E+02  0.10500000000E+00 0. -1.
         13    1    4    4    0    0 -0.10387531072E+02  0.21684010673E+01 -0.14784249317E+02  0.18198566368E+02  0.10500000000E+00 0.  1.
    3000001    1    5    5    0    0  0.67604962091E+01 -0.50779992077E+01  0.19982487207E+02  0.21720731570E+02  0.10000000000E+01 0.  1.
        -13    1    6    6    0    0  0.16906377718E+02 -0.60924926319E+01  0.21517687230E+02  0.28035084497E+02  0.10500000000E+00 0. -1.
         13    1    6    6    0    0  0.77318661918E+01 -0.27208675892E+01  0.97579881028E+01  0.12744184245E+02  0.10500000000E+00 0.  1.
</event>
<event>
11    0  0.3483054E-009  0.9118800E+02  0.7816531E-02  0.1126479E+00
         25   -1    0    0    0    0  0.00000000000E+00  0.00000000000E+00  0.99999998245E-14  0.12500000000E+03  0.12500000000E+03 0.  0.
    3000001    1    3    3    0    0 -0.19241993784E+01 -0.47752370181E+00  0.11609559687E+01  0.25056717452E+01  0.10000000000E+01 0. -1.
    1000022    2    1    0    0    0 -0.60395693043E+02 -0.59202916769E+01 -0.11115758066E+02  0.62500000701E+02  0.10000020931E+02 0.  0.
    3000022    2    3    3    0    0 -0.58471493664E+02 -0.54427679751E+01 -0.12276714034E+02  0.59994328956E+02  0.25000961813E+00 0.  0.
    1000022    2    1    0    0    0  0.60395693043E+02  0.59202916769E+01  0.11115758066E+02  0.62499999299E+02  0.10000012167E+02 0.  0.
    3000022    2    5    5    0    0  0.14008129776E+02 -0.24345959380E+01  0.43609434479E+01  0.14873980219E+02  0.25000518745E+00 0.  0.
        -13    1    4    4    0    0 -0.37038164376E+02 -0.34778979293E+01 -0.78290186873E+01  0.38016127537E+02  0.10500000000E+00 0.  1.
         13    1    4    4    0    0 -0.21433329289E+02 -0.19648700458E+01 -0.44476953471E+01  0.21978201419E+02  0.10500000000E+00 0. -1.
    3000001    1    5    5    0    0  0.46387563267E+02  0.83548876149E+01  0.67548146178E+01  0.47626019080E+02  0.10000000000E+01 0.  1.
        -13    1    6    6    0    0  0.94340116864E+01 -0.16853389478E+01  0.29663844569E+01  0.10032517412E+02  0.10500000000E+00 0. -1.
         13    1    6    6    0    0  0.45741180897E+01 -0.74925699025E+00  0.13945589910E+01  0.48414628074E+01  0.10500000000E+00 0.  1.
</event>
<event>
11    0  0.3483054E-009  0.9118800E+02  0.7816531E-02  0.1126479E+00
         25   -1    0    0    0    0  0.00000000000E+00  0.00000000000E+00  0.99999998245E-14  0.12500000000E+03  0.12500000000E+03 0.  0.
    3000001    1    3    3    0    0 -0.15846545033E+02 -0.40514946402E+01 -0.51786513197E+01  0.17185634344E+02  0.10000000000E+01 0.  1.
    1000022    2    1    0    0    0 -0.61031045348E+02 -0.74687491849E+01 -0.50675011256E+01  0.62499997978E+02  0.99999734442E+01 0.  0.
    3000022    2    3    3    0    0 -0.45184500315E+02 -0.34172545447E+01  0.11115019407E+00  0.45314363634E+02  0.24999969611E+00 0.  0.
    1000022    2    1    0    0    0  0.61031045348E+02  0.74687491849E+01  0.50675011256E+01  0.62500002022E+02  0.99999987211E+01 0.  0.
    3000022    2    5    5    0    0  0.54568911692E+02  0.41421211524E+01  0.27083740352E+01  0.54793439489E+02  0.24986027019E+00 0.  0.
        -13    1    4    4    0    0 -0.13497021583E+02 -0.98372128951E+00  0.59684762705E-01  0.13533361979E+02  0.10500000000E+00 0. -1.
         13    1    4    4    0    0 -0.31687478732E+02 -0.24335332552E+01  0.51465431362E-01  0.31781001655E+02  0.10500000000E+00 0.  1.
    3000001    1    5    5    0    0  0.64621336558E+01  0.33266280325E+01  0.23591270905E+01  0.77065625334E+01  0.10000000000E+01 0.  1.
        -13    1    6    6    0    0  0.41192305154E+02  0.31038435927E+01  0.20418147391E+01  0.41359640730E+02  0.10500000000E+00 0. -1.
         13    1    6    6    0    0  0.13376606539E+02  0.10382775598E+01  0.66655929606E+00  0.13433798758E+02  0.10500000000E+00 0.  1.
</event>
<event>
11    0  0.3483054E-009  0.9118800E+02  0.7816531E-02  0.1126479E+00
         25   -1    0    0    0    0  0.00000000000E+00  0.00000000000E+00  0.99999998245E-14  0.12500000000E+03  0.12500000000E+03 0.  0.
    3000001    1    3    3    0    0 -0.24826552983E+02 -0.26598718532E+02 -0.33939526276E+02  0.49766866532E+02  0.10000000000E+01 0.  1.
    1000022    2    1    0    0    0 -0.28056111890E+02 -0.36857968284E+02 -0.40750397151E+02  0.62500001210E+02  0.10000002149E+02 0.  0.
    3000022    2    3    3    0    0 -0.32295589074E+01 -0.10259249752E+02 -0.68108708744E+01  0.12733134678E+02  0.25000094132E+00 0.  0.
    1000022    2    1    0    0    0  0.28056111890E+02  0.36857968284E+02  0.40750397151E+02  0.62499998790E+02  0.99999870192E+01 0.  0.
    3000022    2    5    5    0    0  0.14532392635E+02  0.22473689844E+02  0.17482103587E+02  0.31967852876E+02  0.25000158784E+00 0.  0.
        -13    1    4    4    0    0 -0.80148380678E+00 -0.26270295139E+01 -0.17206231334E+01  0.32427194339E+01  0.10500000000E+00 0. -1.
         13    1    4    4    0    0 -0.24280751006E+01 -0.76322202377E+01 -0.50902477410E+01  0.94904152446E+01  0.10500000000E+00 0.  1.
    3000001    1    5    5    0    0  0.13523719255E+02  0.14384278440E+02  0.23268293563E+02  0.30532145913E+02  0.10000000000E+01 0.  1.
        -13    1    6    6    0    0  0.10332206856E+02  0.15899222642E+02  0.12393255916E+02  0.22652673050E+02  0.10500000000E+00 0.  1.
         13    1    6    6    0    0  0.42001857795E+01  0.65744672014E+01  0.50888476716E+01  0.93151798259E+01  0.10500000000E+00 0. -1.
</event>
<event>
11    0  0.3483054E-009  0.9118800E+02  0.7816531E-02  0.1126479E+00
         25   -1    0    0    0    0  0.00000000000E+00  0.00000000000E+00  0.99999998245E-14  0.12500000000E+03  0.12500000000E+03 0.  0.
    3000001    1    3    3    0    0  0.14260297453E+02 -0.18760727345E+02  0.14180334397E+02  0.27520953065E+02  0.10000000000E+01 0. -1.
    1000022    2    1    0    0    0  0.37870267592E+02 -0.43181798742E+02  0.22526100786E+02  0.62500000166E+02  0.99999947053E+01 0.  0.
    3000022    2    3    3    0    0  0.23609970139E+02 -0.24421071397E+02  0.83457663882E+01  0.34979047102E+02  0.25000279698E+00 0.  0.
    1000022    2    1    0    0    0 -0.37870267592E+02  0.43181798742E+02 -0.22526100786E+02  0.62499999834E+02  0.99999926261E+01 0.  0.
    3000022    2    5    5    0    0 -0.25257074600E+02  0.33381099130E+02 -0.12807295096E+02  0.43775643119E+02  0.25005270019E+00 0.  0.
        -13    1    4    4    0    0  0.99932277246E+01 -0.10247641172E+02  0.35372851336E+01  0.14744563780E+02  0.10500000000E+00 0.  1.
         13    1    4    4    0    0  0.13616742414E+02 -0.14173430224E+02  0.48084812546E+01  0.20234483321E+02  0.10500000000E+00 0. -1.
    3000001    1    5    5    0    0 -0.12613192992E+02  0.98006996119E+01 -0.97188056892E+01  0.18724356714E+02  0.10000000000E+01 0.  1.
        -13    1    6    6    0    0 -0.18018117182E+02  0.23745082165E+02 -0.91103963563E+01  0.31168763539E+02  0.10500000000E+00 0. -1.
         13    1    6    6    0    0 -0.72389574173E+01  0.96360169653E+01 -0.36968987401E+01  0.12606879580E+02  0.10500000000E+00 0.  1.
</event>
<event>
11    0  0.3483054E-009  0.9118800E+02  0.7816531E-02  0.1126479E+00
         25   -1    0    0    0    0  0.00000000000E+00  0.00000000000E+00  0.99999998245E-14  0.12500000000E+03  0.12500000000E+03 0.  0.
    3000001    1    3    3    0    0 -0.95403716824E+01 -0.34071311399E+01  0.46216355891E+00  0.10190232068E+02  0.10000000000E+01 0. -1.
    1000022    2    1    0    0    0 -0.54895607001E+02 -0.15185445375E+02  0.23709167137E+02  0.62499999096E+02  0.99999930697E+01 0.  0.
    3000022    2    3    3    0    0 -0.45355235318E+02 -0.11778314235E+02  0.23247003578E+02  0.52309767028E+02  0.24998823512E+00 0.  0.
    1000022    2    1    0    0    0  0.54895607001E+02  0.15185445375E+02 -0.23709167137E+02  0.62500000904E+02  0.10000004376E+02 0.  0.
    3000022    2    5    5    0    0  0.12928000332E+02 -0.13536074751E+00 -0.75886665620E+01  0.14993394537E+02  0.25000888998E+00 0.  0.
        -13    1    4    4    0    0 -0.25873804829E+02 -0.67138645508E+01  0.13333887225E+02  0.29871948833E+02  0.10500000000E+00 0.  1.
         13    1    4    4    0    0 -0.19481430490E+02 -0.50644496842E+01  0.99131163530E+01  0.22437818195E+02  0.10500000000E+00 0. -1.
    3000001    1    5    5    0    0  0.41967606669E+02  0.15320806122E+02 -0.16120500575E+02  0.47506606367E+02  0.10000000000E+01 0.  1.
        -13    1    6    6    0    0  0.76903090408E+01 -0.11920217796E+00 -0.45726023701E+01  0.89484512480E+01  0.10500000000E+00 0. -1.
         13    1    6    6    0    0  0.52376912913E+01 -0.16158569545E-01 -0.30160641919E+01  0.60449432894E+01  0.10500000000E+00 0.  1.
</event>
<event>
11    0  0.3483054E-009  0.9118800E+02  0.7816531E-02  0.1126479E+00
         25   -1    0    0    0    0  0.00000000000E+00  0.00000000000E+00  0.99999998245E-14  0.12500000000E+03  0.12500000000E+03 0.  0.
    3000001    1    3    3    0    0 -0.17464266397E+02 -0.66443159536E+01 -0.20336140898E+00  0.18713334581E+02  0.10000000000E+01 0.  1.
    1000022    2    1    0    0    0 -0.60927599672E+02 -0.81244398149E+01 -0.52982151917E+01  0.62500000818E+02  0.10000004702E+02 0.  0.
    3000022    2    3    3    0    0 -0.43463333274E+02 -0.14801238612E+01 -0.50948537827E+01  0.43786666237E+02  0.24999827523E+00 0.  0.
    1000022    2    1    0    0    0  0.60927599672E+02  0.81244398149E+01  0.52982151917E+01  0.62499999182E+02  0.99999944726E+01 0.  0.
    3000022    2    5    5    0    0  0.59621156478E+02  0.83347224066E+01  0.63509448977E+01  0.60535501174E+02  0.25000798549E+00 0.  0.
        -13    1    4    4    0    0 -0.26660647155E+02 -0.93186029710E+00 -0.30681270725E+01  0.26852986782E+02  0.10500000000E+00 0.  1.
         13    1    4    4    0    0 -0.16802686119E+02 -0.54826356414E+00 -0.20267267102E+01  0.16933679456E+02  0.10500000000E+00 0. -1.
    3000001    1    5    5    0    0  0.13064431937E+01 -0.21028259172E+00 -0.10527297060E+01  0.19644980073E+01  0.10000000000E+01 0. -1.
        -13    1    6    6    0    0  0.24888263576E+02  0.35071135199E+01  0.25928015782E+01  0.25267749288E+02  0.10500000000E+00 0.  1.
         13    1    6    6    0    0  0.34732892902E+02  0.48276088866E+01  0.37581433195E+01  0.35267751886E+02  0.10500000000E+00 0. -1.
</event>
<event>
11    0  0.3483054E-009  0.9118800E+02  0.7816531E-02  0.1126479E+00
         25   -1    0    0    0    0  0.00000000000E+00  0.00000000000E+00  0.99999998245E-14  0.12500000000E+03  0.12500000000E+03 0.  0.
    3000001    1    3    3    0    0  0.21838594742E+01  0.45656318776E+01  0.24072920919E+01  0.56929159365E+01  0.10000000000E+01 0.  1.
    1000022    2    1    0    0    0 -0.42537044370E+01  0.57887217887E+02  0.20909956686E+02  0.62500000568E+02  0.99999893166E+01 0.  0.
    3000022    2    3    3    0    0 -0.64375639112E+01  0.53321586009E+02  0.18502664594E+02  0.56807084632E+02  0.25000729211E+00 0.  0.
    1000022    2    1    0    0    0  0.42537044370E+01 -0.57887217887E+02 -0.20909956686E+02  0.62499999432E+02  0.99999822141E+01 0.  0.
    3000022    2    5    5    0    0 -0.20377265836E+01 -0.78138236639E+01 -0.63718161323E+00  0.81041142711E+01  0.24999566244E+00 0.  0.
        -13    1    4    4    0    0 -0.30401698696E+01  0.24707492884E+02  0.86139212378E+01  0.26342237975E+02  0.10500000000E+00 0.  1.
         13    1    4    4    0    0 -0.33973940415E+01  0.28614093125E+02  0.98887433558E+01  0.30464846657E+02  0.10500000000E+00 0. -1.
    3000001    1    5    5    0    0  0.62914310206E+01 -0.50073394223E+02 -0.20272775072E+02  0.54395885161E+02  0.10000000000E+01 0.  1.
        -13    1    6    6    0    0 -0.11485865114E+01 -0.41375595512E+01 -0.34088523206E+00  0.43088139615E+01  0.10500000000E+00 0. -1.
         13    1    6    6    0    0 -0.88914007220E+00 -0.36762641127E+01 -0.29629638117E+00  0.37953003096E+01  0.10500000000E+00 0.  1.
</event>
<event>
11    0  0.3483054E-009  0.9118800E+02  0.7816531E-02  0.1126479E+00
         25   -1    0    0    0    0  0.00000000000E+00  0.00000000000E+00  0.99999998245E-14  0.12500000000E+03  0.12500000000E+03 0.  0.
    3000001    1    3    3    0    0  0.42187154050E+01  0.32931834272E+01  0.60613108205E+01  0.81475214401E+01  0.10000000000E+01 0. -1.
    1000022    2    1    0    0    0  0.95982983987E+01  0.23550658728E+02  0.56209333797E+02  0.62500000041E+02  0.99999970310E+01 0.  0.
    3000022    2    3    3    0    0  0.53795829938E+01  0.20257475301E+02  0.50148022976E+02  0.54352478601E+02  0.25000585870E+00 0.  0.
    1000022    2    1    0    0    0 -0.95982983987E+01 -0.23550658728E+02 -0.56209333797E+02  0.62499999959E+02  0.99999965125E+01 0.  0.
    3000022    2    5    5    0    0  0.97208842543E+00 -0.97356781904E+01 -0.17523616513E+02  0.20071572146E+02  0.24997397369E+00 0.  0.
        -13    1    4    4    0    0  0.35662334446E+01  0.13542188213E+02  0.33388760078E+02  0.36206756374E+02  0.10500000000E+00 0.  1.
         13    1    4    4    0    0  0.18133495492E+01  0.67152870886E+01  0.16759262898E+02  0.18145722228E+02  0.10500000000E+00 0. -1.
    3000001    1    5    5    0    0 -0.10570386824E+02 -0.13814980538E+02 -0.38685717284E+02  0.42428427812E+02  0.10000000000E+01 0.  1.
        -13    1    6    6    0    0  0.59552625748E+00 -0.57251647128E+01 -0.10430288125E+02  0.11913609776E+02  0.10500000000E+00 0.  1.
         13    1    6    6    0    0  0.37656216795E+00 -0.40105134776E+01 -0.70933283880E+01  0.81579623707E+01  0.10500000000E+00 0. -1.
</event>
<event>
11    0  0.3483054E-009  0.9118800E+02  0.7816531E-02  0.1126479E+00
         25   -1    0    0    0    0  0.00000000000E+00  0.00000000000E+00  0.99999998245E-14  0.12500000000E+03  0.12500000000E+03 0.  0.
    3000001    1    3    3    0    0 -0.16737146309E+01  0.45889019337E+02 -0.17658030598E+02  0.49207819104E+02  0.10000000000E+01 0. -1.
    1000022    2    1    0    0    0 -0.62233978831E+01  0.58267718414E+02 -0.19297469074E+02  0.62499999780E+02  0.99999984735E+01 0.  0.
    3000022    2    3    3    0    0 -0.45496832521E+01  0.12378699077E+02 -0.16394384769E+01  0.13292180676E+02  0.25000016106E+00 0.  0.
    1000022    2    1    0    0    0  0.62233978831E+01 -0.58267718414E+02  0.19297469074E+02  0.62500000220E+02  0.10000001223E+02 0.  0.
    3000022    2    5    5    0    0  0.88814181146E+01 -0.44371087911E+02  0.14189684947E+02  0.47424494604E+02  0.24999883816E+00 0.  0.
        -13    1    4    4    0    0 -0.23652490018E+01  0.62387976364E+01 -0.83045599294E+00  0.67244093380E+01  0.10500000000E+00 0.  1.
         13    1    4    4    0    0 -0.21844342503E+01  0.61399014402E+01 -0.80898248396E+00  0.65677713380E+01  0.10500000000E+00 0. -1.
    3000001    1    5    5    0    0 -0.26580202316E+01 -0.13896630503E+02  0.51077841273E+01  0.15075505616E+02  0.10000000000E+01 0.  1.
        -13    1    6    6    0    0  0.55426599188E+01 -0.27992285700E+02  0.89420106189E+01  0.29904175571E+02  0.10500000000E+00 0. -1.
         13    1    6    6    0    0  0.33387581958E+01 -0.16378802211E+02  0.52476743283E+01  0.17520319033E+02  0.10500000000E+00 0.  1.
</event>
<event>
11    0  0.3483054E-009  0.9118800E+02  0.7816531E-02  0.1126479E+00
         25   -1    0    0    0    0  0.00000000000E+00  0.00000000000E+00  0.99999998245E-14  0.12500000000E+03  0.12500000000E+03 0.  0.
    3000001    1    3    3    0    0 -0.23211709473E+02  0.65758875455E+01 -0.36422510694E+02  0.43699256731E+02  0.10000000000E+01 0.  1.
    1000022    2    1    0    0    0 -0.29949933359E+02  0.15033736612E+02 -0.51799981689E+02  0.62500001007E+02  0.10000013907E+02 0.  0.
    3000022    2    3    3    0    0 -0.67382238863E+01  0.84578490664E+01 -0.15377470996E+02  0.18800744276E+02  0.24999823316E+00 0.  0.
    1000022    2    1    0    0    0  0.29949933359E+02 -0.15033736612E+02  0.51799981689E+02  0.62499998993E+02  0.10000001321E+02 0.  0.
    3000022    2    5    5    0    0  0.23635891892E+02 -0.81000927279E+01  0.32275642616E+02  0.40817232717E+02  0.24998528344E+00 0.  0.
        -13    1    4    4    0    0 -0.26981804616E+01  0.34783640195E+01 -0.62109798150E+01  0.76135727039E+01  0.10500000000E+00 0. -1.
         13    1    4    4    0    0 -0.40400434247E+01  0.49794850469E+01 -0.91664911807E+01  0.11187171572E+02  0.10500000000E+00 0.  1.
    3000001    1    5    5    0    0  0.63140414672E+01 -0.69336438840E+01  0.19524339073E+02  0.21682766277E+02  0.10000000000E+01 0. -1.
        -13    1    6    6    0    0  0.59510289400E+01 -0.20127869330E+01  0.80994926633E+01  0.10250798168E+02  0.10500000000E+00 0. -1.
         13    1    6    6    0    0  0.17684862952E+02 -0.60873057949E+01  0.24176149953E+02  0.30566434548E+02  0.10500000000E+00 0.  1.
</event>
<event>
11    0  0.3483054E-009  0.9118800E+02  0.7816531E-02  0.1126479E+00
         25   -1    0    0    0    0  0.00000000000E+00  0.00000000000E+00  0.99999998245E-14  0.12500000000E+03  0.12500000000E+03 0.  0.
    3000001    1    3    3    0    0  0.17973455993E+02  0.65466470071E+01  0.33456466717E+02  0.38551768734E+02  0.10000000000E+01 0. -1.
    1000022    2    1    0    0    0  0.27699822525E+02  0.29785850182E+01  0.55046325285E+02  0.62499999764E+02  0.99999953286E+01 0.  0.
    3000022    2    3    3    0    0  0.97263665327E+01 -0.35680619888E+01  0.21589858568E+02  0.23948231031E+02  0.25000844173E+00 0.  0.
    1000022    2    1    0    0    0 -0.27699822525E+02 -0.29785850182E+01 -0.55046325285E+02  0.62500000236E+02  0.99999982734E+01 0.  0.
    3000022    2    5    5    0    0 -0.18183297450E+02 -0.58009048817E+01 -0.41472417793E+02  0.45654208372E+02  0.25000173969E+00 0.  0.
        -13    1    4    4    0    0  0.25568260742E+01 -0.93982221046E+00  0.57559711316E+01  0.63688973950E+01  0.10500000000E+00 0. -1.
         13    1    4    4    0    0  0.71695404585E+01 -0.26282397784E+01  0.15833887436E+02  0.17579333635E+02  0.10500000000E+00 0.  1.
    3000001    1    5    5    0    0 -0.95165250755E+01  0.28223198635E+01 -0.13573907491E+02  0.16845791863E+02  0.10000000000E+01 0. -1.
        -13    1    6    6    0    0 -0.60438079398E+01 -0.19165889608E+01 -0.13903022075E+02  0.15280902312E+02  0.10500000000E+00 0.  1.
         13    1    6    6    0    0 -0.12139489510E+02 -0.38843159209E+01 -0.27569395719E+02  0.30373306060E+02  0.10500000000E+00 0. -1.
</event>
<event>
11    0  0.3483054E-009  0.9118800E+02  0.7816531E-02  0.1126479E+00
         25   -1    0    0    0    0  0.00000000000E+00  0.00000000000E+00  0.99999998245E-14  0.12500000000E+03  0.12500000000E+03 0.  0.
    3000001    1    3    3    0    0  0.38512456949E+02  0.11572735838E+02  0.29044089236E+02  0.49615488252E+02  0.10000000000E+01 0. -1.
    1000022    2    1    0    0    0  0.47108234077E+02  0.10126862322E+02  0.38529351767E+02  0.62499999858E+02  0.99999988165E+01 0.  0.
    3000022    2    3    3    0    0  0.85957771285E+01 -0.14458735153E+01  0.94852625319E+01  0.12884511606E+02  0.24999873234E+00 0.  0.
    1000022    2    1    0    0    0 -0.47108234077E+02 -0.10126862322E+02 -0.38529351767E+02  0.62500000142E+02  0.10000000586E+02 0.  0.
    3000022    2    5    5    0    0 -0.26783789964E+02 -0.66412059123E+01 -0.28043374701E+02  0.39344254760E+02  0.24999446774E+00 0.  0.
        -13    1    4    4    0    0  0.23027454606E+01 -0.36950057878E+00  0.25843491127E+01  0.34826789502E+01  0.10500000000E+00 0.  1.
         13    1    4    4    0    0  0.62930316678E+01 -0.10763729366E+01  0.69009134192E+01  0.94018326559E+01  0.10500000000E+00 0. -1.
    3000001    1    5    5    0    0 -0.20324444113E+02 -0.34856564101E+01 -0.10485977067E+02  0.23155745381E+02  0.10000000000E+01 0.  1.
        -13    1    6    6    0    0 -0.12643836583E+02 -0.31368399539E+01 -0.13335082130E+02  0.18642473249E+02  0.10500000000E+00 0.  1.
         13    1    6    6    0    0 -0.14139953380E+02 -0.35043659584E+01 -0.14708292571E+02  0.20701781511E+02  0.10500000000E+00 0. -1.
</event>
<event>
11    0  0.3483054E-009  0.9118800E+02  0.7816531E-02  0.1126479E+00
         25   -1    0    0    0    0  0.00000000000E+00  0.00000000000E+00  0.99999998245E-14  0.12500000000E+03  0.12500000000E+03 0.  0.
    3000001    1    3    3    0    0 -0.17310359867E+02  0.10319205940E+02  0.55592402202E+02  0.59140931279E+02  0.10000000000E+01 0.  1.
    1000022    2    1    0    0    0 -0.17099340193E+02  0.88785523976E+01  0.58609162137E+02  0.62500000424E+02  0.10000001945E+02 0.  0.
    3000022    2    3    3    0    0  0.21101967463E+00 -0.14406535425E+01  0.30167599349E+01  0.33590691448E+01  0.24998616371E+00 0.  0.
    1000022    2    1    0    0    0  0.17099340193E+02 -0.88785523976E+01 -0.58609162137E+02  0.62499999576E+02  0.99999966485E+01 0.  0.
    3000022    2    5    5    0    0  0.14827893111E+02 -0.10704441788E+02 -0.45605506040E+02  0.49136301892E+02  0.24998873831E+00 0.  0.
        -13    1    4    4    0    0  0.13030004143E+00 -0.93500083115E+00  0.18140961650E+01  0.20477242371E+01  0.10500000000E+00 0.  1.
         13    1    4    4    0    0  0.80719633204E-01 -0.50565271138E+00  0.12026637699E+01  0.13113449078E+01  0.10500000000E+00 0. -1.
    3000001    1    5    5    0    0  0.22714470817E+01  0.18258893905E+01 -0.13003656097E+02  0.13363697684E+02  0.10000000000E+01 0.  1.
        -13    1    6    6    0    0  0.90985744645E+01 -0.65565639793E+01 -0.27802342036E+02  0.29979223409E+02  0.10500000000E+00 0.  1.
         13    1    6    6    0    0  0.57293186463E+01 -0.41478778088E+01 -0.17803164004E+02  0.19157078483E+02  0.10500000000E+00 0. -1.
</event>
<event>
11    0  0.3483054E-009  0.9118800E+02  0.7816531E-02  0.1126479E+00
         25   -1    0    0    0    0  0.00000000000E+00  0.00000000000E+00  0.99999998245E-14  0.12500000000E+03  0.12500000000E+03 0.  0.
    3000001    1    3    3    0    0 -0.13177125358E+02 -0.11001499034E+02  0.42177098383E+02  0.45547527284E+02  0.10000000000E+01 0.  1.
    1000022    2    1    0    0    0 -0.22915105851E+02 -0.11964020279E+02  0.56017947004E+02  0.62499999056E+02  0.99999819055E+01 0.  0.
    3000022    2    3    3    0    0 -0.97379804934E+01 -0.96252124458E+00  0.13840848621E+02  0.16952471772E+02  0.24999480742E+00 0.  0.
    1000022    2    1    0    0    0  0.22915105851E+02  0.11964020279E+02 -0.56017947004E+02  0.62500000944E+02  0.99999937019E+01 0.  0.
    3000022    2    5    5    0    0  0.16887952657E+02  0.70322322343E+01 -0.47569139094E+02  0.50966074291E+02  0.24999861484E+00 0.  0.
        -13    1    4    4    0    0 -0.49164117278E+01 -0.53880683293E+00  0.69210350430E+01  0.85072420999E+01  0.10500000000E+00 0.  1.
         13    1    4    4    0    0 -0.48215687656E+01 -0.42371441165E+00  0.69198135781E+01  0.84452296724E+01  0.10500000000E+00 0. -1.
    3000001    1    5    5    0    0  0.60271531939E+01  0.49317880446E+01 -0.84488079096E+01  0.11533926653E+02  0.10000000000E+01 0. -1.
        -13    1    6    6    0    0  0.55025044317E+01  0.22398996008E+01 -0.15391521439E+02  0.16498626077E+02  0.10500000000E+00 0.  1.
         13    1    6    6    0    0  0.11385448225E+02  0.47923326335E+01 -0.32177617656E+02  0.34467448214E+02  0.10500000000E+00 0. -1.
</event>
<event>
11    0  0.3483054E-009  0.9118800E+02  0.7816531E-02  0.1126479E+00
         25   -1    0    0    0    0  0.00000000000E+00  0.00000000000E+00  0.99999998245E-14  0.12500000000E+03  0.12500000000E+03 0.  0.
    3000001    1    3    3    0    0  0.44725562026E+02 -0.24076700358E+02 -0.29701094841E+02  0.58849115825E+02  0.10000000000E+01 0.  1.
    1000022    2    1    0    0    0  0.47006499130E+02 -0.26911605392E+02 -0.29536488849E+02  0.62500000072E+02  0.10000018507E+02 0.  0.
    3000022    2    3    3    0    0  0.22809371045E+01 -0.28349050341E+01  0.16460599144E+00  0.36508842466E+01  0.25000004410E+00 0.  0.
    1000022    2    1    0    0    0 -0.47006499130E+02  0.26911605392E+02  0.29536488849E+02  0.62499999928E+02  0.10000017612E+02 0.  0.
    3000022    2    5    5    0    0 -0.46291732749E+02  0.27141449418E+02  0.28029349770E+02  0.60541636464E+02  0.24999943053E+00 0.  0.
        -13    1    4    4    0    0  0.87935730357E+00 -0.11405585058E+01  0.10099575559E-01  0.14440463891E+01  0.10500000000E+00 0.  1.
         13    1    4    4    0    0  0.14015798010E+01 -0.16943465283E+01  0.15450641588E+00  0.22068378574E+01  0.10500000000E+00 0. -1.
    3000001    1    5    5    0    0 -0.71476638145E+00 -0.22984402649E+00  0.15071390792E+01  0.19583634649E+01  0.10000000000E+01 0.  1.
        -13    1    6    6    0    0 -0.34138590667E+02  0.19978880159E+02  0.20669935877E+02  0.44630217334E+02  0.10500000000E+00 0. -1.
         13    1    6    6    0    0 -0.12153142082E+02  0.71625692597E+01  0.73594138925E+01  0.15911419129E+02  0.10500000000E+00 0.  1.
</event>
<event>
11    0  0.3483054E-009  0.9118800E+02  0.7816531E-02  0.1126479E+00
         25   -1    0    0    0    0  0.00000000000E+00  0.00000000000E+00  0.99999998245E-14  0.12500000000E+03  0.12500000000E+03 0.  0.
    3000001    1    3    3    0    0  0.26778088733E+01  0.51512014637E+01 -0.11303390757E+02  0.12746457527E+02  0.10000000000E+01 0. -1.
    1000022    2    1    0    0    0 -0.16829581912E+01  0.36251483450E+02 -0.49892360625E+02  0.62499999347E+02  0.99999934505E+01 0.  0.
    3000022    2    3    3    0    0 -0.43607670645E+01  0.31100281986E+02 -0.38588969868E+02  0.49753541820E+02  0.24999824821E+00 0.  0.
    1000022    2    1    0    0    0  0.16829581912E+01 -0.36251483450E+02  0.49892360625E+02  0.62500000653E+02  0.10000001615E+02 0.  0.
    3000022    2    5    5    0    0  0.56974341379E+01 -0.19136451575E+02  0.28367219257E+02  0.34690433161E+02  0.24997972295E+00 0.  0.
        -13    1    4    4    0    0 -0.23547504746E+01  0.17271690822E+02 -0.21422519206E+02  0.27618680413E+02  0.10500000000E+00 0. -1.
         13    1    4    4    0    0 -0.20060165899E+01  0.13828591164E+02 -0.17166450662E+02  0.22134861407E+02  0.10500000000E+00 0.  1.
    3000001    1    5    5    0    0 -0.40144759467E+01 -0.17115031874E+02  0.21525141368E+02  0.27809567492E+02  0.10000000000E+01 0.  1.
        -13    1    6    6    0    0  0.43946902233E+01 -0.14745397302E+02  0.21855789488E+02  0.26728759846E+02  0.10500000000E+00 0.  1.
         13    1    6    6    0    0  0.13027439146E+01 -0.43910542734E+01  0.65114297685E+01  0.79616733146E+01  0.10500000000E+00 0. -1.
</event>
<event>
11    0  0.3483054E-009  0.9118800E+02  0.7816531E-02  0.1126479E+00
         25   -1    0    0    0    0  0.00000000000E+00  0.00000000000E+00  0.99999998245E-14  0.12500000000E+03  0.12500000000E+03 0.  0.
    3000001    1    3    3    0    0  0.19037235711E+01  0.63197249656E+01  0.14006611112E+01  0.68209191920E+01  0.10000000000E+01 0.  1.
    1000022    2    1    0    0    0  0.15952587337E+02  0.57844557061E+02 -0.14344766628E+02  0.62499998629E+02  0.99999837351E+01 0.  0.
    3000022    2    3    3    0    0  0.14048863766E+02  0.51524832095E+02 -0.15745427739E+02  0.55679079437E+02  0.24999340638E+00 0.  0.
    1000022    2    1    0    0    0 -0.15952587337E+02 -0.57844557061E+02  0.14344766628E+02  0.62500001371E+02  0.10000000874E+02 0.  0.
    3000022    2    5    5    0    0 -0.13046425030E+02 -0.38903046245E+02  0.13839351845E+02  0.43304114951E+02  0.24999801928E+00 0.  0.
        -13    1    4    4    0    0  0.82116652532E+01  0.30353328280E+02 -0.92547956526E+01  0.32778319839E+02  0.10500000000E+00 0. -1.
         13    1    4    4    0    0  0.58371985124E+01  0.21171503815E+02 -0.64906320863E+01  0.22900759598E+02  0.10500000000E+00 0.  1.
    3000001    1    5    5    0    0 -0.29061623067E+01 -0.18941510816E+02  0.50541478241E+00  0.19195886420E+02  0.10000000000E+01 0. -1.
        -13    1    6    6    0    0 -0.54018026334E+01 -0.15942541835E+02  0.56387150717E+01  0.17752471504E+02  0.10500000000E+00 0. -1.
         13    1    6    6    0    0 -0.76446223966E+01 -0.22960504410E+02  0.82006367736E+01  0.25551643447E+02  0.10500000000E+00 0.  1.
</event>
<event>
11    0  0.3483054E-009  0.9118800E+02  0.7816531E-02  0.1126479E+00
         25   -1    0    0    0    0  0.00000000000E+00  0.00000000000E+00  0.99999998245E-14  0.12500000000E+03  0.12500000000E+03 0.  0.
    3000001    1    3    3    0    0 -0.20991436262E+02 -0.11860788141E+02  0.39821554903E+02  0.46562591493E+02  0.10000000000E+01 0.  1.
    1000022    2    1    0    0    0 -0.23834094528E+02 -0.12648105960E+02  0.55481630677E+02  0.62500001824E+02  0.10000011952E+02 0.  0.
    3000022    2    3    3    0    0 -0.28426582658E+01 -0.78731781912E+00  0.15660075774E+02  0.15937410331E+02  0.24999885276E+00 0.  0.
    1000022    2    1    0    0    0  0.23834094528E+02  0.12648105960E+02 -0.55481630677E+02  0.62499998176E+02  0.99999891534E+01 0.  0.
    3000022    2    5    5    0    0  0.91507000903E+00  0.22620040664E+01 -0.13554433652E+01  0.28024525785E+01  0.24999644129E+00 0.  0.
        -13    1    4    4    0    0 -0.21682143164E+01 -0.61665248971E+00  0.11965738098E+02  0.12176671419E+02  0.10500000000E+00 0.  1.
         13    1    4    4    0    0 -0.67444394934E+00 -0.17066532941E+00  0.36943376760E+01  0.37607389114E+01  0.10500000000E+00 0. -1.
    3000001    1    5    5    0    0  0.22919024519E+02  0.10386101894E+02 -0.54126187312E+02  0.59697545598E+02  0.10000000000E+01 0.  1.
        -13    1    6    6    0    0  0.37963595697E+00  0.11135854103E+01 -0.67135124499E+00  0.13586513239E+01  0.10500000000E+00 0. -1.
         13    1    6    6    0    0  0.53543405206E+00  0.11484186561E+01 -0.68409212023E+00  0.14438012546E+01  0.10500000000E+00 0.  1.
</event>
<event>
11    0  0.3483054E-009  0.9118800E+02  0.7816531E-02  0.1126479E+00
         25   -1    0    0    0    0  0.00000000000E+00  0.00000000000E+00  0.99999998245E-14  0.12500000000E+03  0.12500000000E+03 0.  0.
    3000001    1    3    3    0    0 -0.10179467214E+01 -0.31450865866E+01 -0.77889321755E+01  0.85202845961E+01  0.10000000000E+01 0.  1.
    1000022    2    1    0    0    0 -0.30057126998E+02 -0.23631985665E+02 -0.48418475598E+02  0.62499996769E+02  0.99999593531E+01 0.  0.
    3000022    2    3    3    0    0 -0.29039180276E+02 -0.20486899078E+02 -0.40629543423E+02  0.53979712173E+02  0.25000515278E+00 0.  0.
    1000022    2    1    0    0    0  0.30057126998E+02  0.23631985665E+02  0.48418475598E+02  0.62500003231E+02  0.99999997382E+01 0.  0.
    3000022    2    5    5    0    0  0.29721804768E+02  0.21252727007E+02  0.42586073013E+02  0.56113280075E+02  0.25000427376E+00 0.  0.
        -13    1    4    4    0    0 -0.18844455605E+02 -0.13345886366E+02 -0.26341611480E+02  0.35030239940E+02  0.10500000000E+00 0. -1.
         13    1    4    4    0    0 -0.10194724672E+02 -0.71410127125E+01 -0.14287931943E+02  0.18949472233E+02  0.10500000000E+00 0.  1.
    3000001    1    5    5    0    0  0.33532222946E+00  0.23792586580E+01  0.58324025848E+01  0.63867231560E+01  0.10000000000E+01 0. -1.
        -13    1    6    6    0    0  0.12048859352E+02  0.86931006043E+01  0.17302777079E+02  0.22806624683E+02  0.10500000000E+00 0.  1.
         13    1    6    6    0    0  0.17672945416E+02  0.12559626403E+02  0.25283295935E+02  0.33306655392E+02  0.10500000000E+00 0. -1.
</event>
<event>
11    0  0.3483054E-009  0.9118800E+02  0.7816531E-02  0.1126479E+00
         25   -1    0    0    0    0  0.00000000000E+00  0.00000000000E+00  0.99999998245E-14  0.12500000000E+03  0.12500000000E+03 0.  0.
    3000001    1    3    3    0    0  0.17819117402E+02 -0.34505705376E+02  0.44255830412E+02  0.58887546850E+02  0.10000000000E+01 0. -1.
    1000022    2    1    0    0    0  0.19294555516E+02 -0.34269117803E+02  0.47535225179E+02  0.62500001149E+02  0.10000010165E+02 0.  0.
    3000022    2    3    3    0    0  0.14754381134E+01  0.23658757346E+00  0.32793947673E+01  0.36124542999E+01  0.25000944431E+00 0.  0.
    1000022    2    1    0    0    0 -0.19294555516E+02  0.34269117803E+02 -0.47535225179E+02  0.62499998851E+02  0.99999957966E+01 0.  0.
    3000022    2    5    5    0    0 -0.69273217899E+01  0.21909151720E+02 -0.24947133524E+02  0.33917852042E+02  0.24999951014E+00 0.  0.
        -13    1    4    4    0    0  0.95703646985E+00  0.12528645157E+00  0.22244698713E+01  0.24271190139E+01  0.10500000000E+00 0. -1.
         13    1    4    4    0    0  0.51840164357E+00  0.11130112189E+00  0.10549248961E+01  0.11853352860E+01  0.10500000000E+00 0.  1.
    3000001    1    5    5    0    0 -0.12367233726E+02  0.12359966083E+02 -0.22588091655E+02  0.28582146809E+02  0.10000000000E+01 0.  1.
        -13    1    6    6    0    0 -0.33521645952E+01  0.10722416572E+02 -0.12281225271E+02  0.16644721198E+02  0.10500000000E+00 0.  1.
         13    1    6    6    0    0 -0.35751571947E+01  0.11186735149E+02 -0.12665908253E+02  0.17273130843E+02  0.10500000000E+00 0. -1.
</event>
<event>
11    0  0.3483054E-009  0.9118800E+02  0.7816531E-02  0.1126479E+00
         25   -1    0    0    0    0  0.00000000000E+00  0.00000000000E+00  0.99999998245E-14  0.12500000000E+03  0.12500000000E+03 0.  0.
    3000001    1    3    3    0    0  0.26614884802E+02 -0.37563639468E+01  0.22472916430E+02  0.35049883537E+02  0.10000000000E+01 0. -1.
    1000022    2    1    0    0    0  0.49760455837E+02 -0.12752495837E+02  0.34169006885E+02  0.62499999718E+02  0.99999909098E+01 0.  0.
    3000022    2    3    3    0    0  0.23145571035E+02 -0.89961318903E+01  0.11696090455E+02  0.27450116181E+02  0.24999784347E+00 0.  0.
    1000022    2    1    0    0    0 -0.49760455837E+02  0.12752495837E+02 -0.34169006885E+02  0.62500000282E+02  0.99999944287E+01 0.  0.
    3000022    2    5    5    0    0 -0.32559831981E+02  0.13047481457E+02 -0.23778959375E+02  0.42377834275E+02  0.24999579559E+00 0.  0.
        -13    1    4    4    0    0  0.79736782679E+01 -0.30450729102E+01  0.39948223517E+01  0.94245235832E+01  0.10500000000E+00 0.  1.
         13    1    4    4    0    0  0.15171892767E+02 -0.59510589801E+01  0.77012681029E+01  0.18025592598E+02  0.10500000000E+00 0. -1.
    3000001    1    5    5    0    0 -0.17200623855E+02 -0.29498561989E+00 -0.10390047510E+02  0.20122166006E+02  0.10000000000E+01 0.  1.
        -13    1    6    6    0    0 -0.10135889657E+02  0.41142852618E+01 -0.74181507203E+01  0.13217548467E+02  0.10500000000E+00 0. -1.
         13    1    6    6    0    0 -0.22423942324E+02  0.89331961951E+01 -0.16360808654E+02  0.29160285808E+02  0.10500000000E+00 0.  1.
</event>
<event>
11    0  0.3483054E-009  0.9118800E+02  0.7816531E-02  0.1126479E+00
         25   -1    0    0    0    0  0.00000000000E+00  0.00000000000E+00  0.99999998245E-14  0.12500000000E+03  0.12500000000E+03 0.  0.
    3000001    1    3    3    0    0 -0.13137812131E+01 -0.11681695092E+02 -0.11160012566E+02  0.16239886138E+02  0.10000000000E+01 0.  1.
    1000022    2    1    0    0    0  0.32996147589E+01 -0.33618585443E+02 -0.51625121906E+02  0.62500000231E+02  0.10000003617E+02 0.  0.
    3000022    2    3    3    0    0  0.46133959719E+01 -0.21936890351E+02 -0.40465109340E+02  0.46260114093E+02  0.25000271757E+00 0.  0.
    1000022    2    1    0    0    0 -0.32996147589E+01  0.33618585443E+02  0.51625121906E+02  0.62499999769E+02  0.10000000727E+02 0.  0.
    3000022    2    5    5    0    0 -0.38431798848E+01  0.33610799226E+02  0.48176822538E+02  0.58868706307E+02  0.24999234321E+00 0.  0.
        -13    1    4    4    0    0  0.27150608961E+01 -0.13215095452E+02 -0.24344225530E+02  0.27832762083E+02  0.10500000000E+00 0.  1.
         13    1    4    4    0    0  0.18983350759E+01 -0.87217948985E+01 -0.16120883809E+02  0.18427352010E+02  0.10500000000E+00 0. -1.
    3000001    1    5    5    0    0  0.54356512596E+00  0.77862165914E-02  0.34482993684E+01  0.36312934618E+01  0.10000000000E+01 0.  1.
        -13    1    6    6    0    0 -0.13733335313E+01  0.12529898686E+02  0.17968508651E+02  0.21949094155E+02  0.10500000000E+00 0.  1.
         13    1    6    6    0    0 -0.24698463536E+01  0.21080900540E+02  0.30208313887E+02  0.36919612152E+02  0.10500000000E+00 0. -1.
</event>
<event>
11    0  0.3483054E-009  0.9118800E+02  0.7816531E-02  0.1126479E+00
         25   -1    0    0    0    0  0.00000000000E+00  0.00000000000E+00  0.99999998245E-14  0.12500000000E+03  0.12500000000E+03 0.  0.
    3000001    1    3    3    0    0 -0.19966859612E+01 -0.12788451714E+01 -0.52211924862E+02  0.52275302942E+02  0.10000000000E+01 0.  1.
    1000022    2    1    0    0    0  0.11646448022E+01 -0.39544167801E+01 -0.61556935318E+02  0.62499999109E+02  0.99999896633E+01 0.  0.
    3000022    2    3    3    0    0  0.31613307633E+01 -0.26755716087E+01 -0.93450104555E+01  0.10224696167E+02  0.24999133376E+00 0.  0.
    1000022    2    1    0    0    0 -0.11646448022E+01  0.39544167801E+01  0.61556935318E+02  0.62500000891E+02  0.10000000803E+02 0.  0.
    3000022    2    5    5    0    0 -0.41009658907E+01  0.45205687880E+01  0.22453127769E+02  0.23269269640E+02  0.24999917522E+00 0.  0.
        -13    1    4    4    0    0  0.22405505553E+01 -0.18440917637E+01 -0.64848086415E+01  0.71052451992E+01  0.10500000000E+00 0. -1.
         13    1    4    4    0    0  0.92078020799E+00 -0.83147984500E+00 -0.28602018141E+01  0.31194509679E+01  0.10500000000E+00 0.  1.
    3000001    1    5    5    0    0  0.29363210885E+01 -0.56615200790E+00  0.39103807549E+02  0.39230731251E+02  0.10000000000E+01 0. -1.
        -13    1    6    6    0    0 -0.21162744403E+01  0.22372298461E+01  0.11409189702E+02  0.11817971465E+02  0.10500000000E+00 0. -1.
         13    1    6    6    0    0 -0.19846914504E+01  0.22833389420E+01  0.11043938067E+02  0.11451298176E+02  0.10500000000E+00 0.  1.
</event>
<event>
11    0  0.3483054E-009  0.9118800E+02  0.7816531E-02  0.1126479E+00
         25   -1    0    0    0    0  0.00000000000E+00  0.00000000000E+00  0.99999998245E-14  0.12500000000E+03  0.12500000000E+03 0.  0.
    3000001    1    3    3    0    0  0.33793336834E+01 -0.93736730685E+00  0.46521511939E+01  0.59110967123E+01  0.10000000000E+01 0. -1.
    1000022    2    1    0    0    0  0.27109981389E+02 -0.36771022210E+02  0.41463119858E+02  0.62500003410E+02  0.10000047632E+02 0.  0.
    3000022    2    3    3    0    0  0.23730647706E+02 -0.35833654903E+02  0.36810968664E+02  0.56588906698E+02  0.24996607090E+00 0.  0.
    1000022    2    1    0    0    0 -0.27109981389E+02  0.36771022210E+02 -0.41463119858E+02  0.62499996590E+02  0.10000005006E+02 0.  0.
    3000022    2    5    5    0    0 -0.69973059448E+01  0.16057629557E+02 -0.11978656778E+02  0.21221698274E+02  0.25000394135E+00 0.  0.
        -13    1    4    4    0    0  0.93612312724E+01 -0.14074874216E+02  0.14408730891E+02  0.22211647531E+02  0.10500000000E+00 0. -1.
         13    1    4    4    0    0  0.14369416433E+02 -0.21758780687E+02  0.22402237773E+02  0.34377259167E+02  0.10500000000E+00 0.  1.
    3000001    1    5    5    0    0 -0.20112675444E+02  0.20713392653E+02 -0.29484463080E+02  0.41278298316E+02  0.10000000000E+01 0.  1.
        -13    1    6    6    0    0 -0.27874539929E+01  0.64992133218E+01 -0.47776445544E+01  0.85350211513E+01  0.10500000000E+00 0.  1.
         13    1    6    6    0    0 -0.42098519519E+01  0.95584162352E+01 -0.72010122236E+01  0.12686677123E+02  0.10500000000E+00 0. -1.
</event>
<event>
11    0  0.3483054E-009  0.9118800E+02  0.7816531E-02  0.1126479E+00
         25   -1    0    0    0    0  0.00000000000E+00  0.00000000000E+00  0.99999998245E-14  0.12500000000E+03  0.12500000000E+03 0.  0.
    3000001    1    3    3    0    0  0.32704551124E+01  0.39176580671E+01  0.17107383828E+02  0.17880338442E+02  0.10000000000E+01 0. -1.
    1000022    2    1    0    0    0 -0.28734886813E+01  0.19537303994E+02  0.58449010822E+02  0.62499997884E+02  0.99999842403E+01 0.  0.
    3000022    2    3    3    0    0 -0.61439437938E+01  0.15619645927E+02  0.41341626994E+02  0.44619659441E+02  0.25000382085E+00 0.  0.
    1000022    2    1    0    0    0  0.28734886813E+01 -0.19537303994E+02 -0.58449010822E+02  0.62500002116E+02  0.10000010695E+02 0.  0.
    3000022    2    5    5    0    0 -0.35991328843E+01 -0.60589000588E+01 -0.16053829271E+02  0.17534308289E+02  0.25001097338E+00 0.  0.
        -13    1    4    4    0    0 -0.17482807592E+01  0.44915216390E+01  0.11975430502E+02  0.12909384685E+02  0.10500000000E+00 0.  1.
         13    1    4    4    0    0 -0.43956630346E+01  0.11128124288E+02  0.29366196493E+02  0.31710274756E+02  0.10500000000E+00 0. -1.
    3000001    1    5    5    0    0  0.64726215657E+01 -0.13478403935E+02 -0.42395181552E+02  0.44965693827E+02  0.10000000000E+01 0. -1.
        -13    1    6    6    0    0 -0.17600695307E+01 -0.28960778799E+01 -0.78653757879E+01  0.85650611863E+01  0.10500000000E+00 0. -1.
         13    1    6    6    0    0 -0.18390633536E+01 -0.31628221790E+01 -0.81884534828E+01  0.89692471030E+01  0.10500000000E+00 0.  1.
</event>
<event>
11    0  0.3483054E-009  0.9118800E+02  0.7816531E-02  0.1126479E+00
         25   -1    0    0    0    0  0.00000000000E+00  0.00000000000E+00  0.99999998245E-14  0.12500000000E+03  0.12500000000E+03 0.  0.
    3000001    1    3    3    0    0  0.78556004094E+01  0.12104044510E+02  0.44122146453E+02  0.46432554947E+02  0.10000000000E+01 0.  1.
    1000022    2    1    0    0    0  0.10798993736E+02  0.10478026820E+02  0.59831787249E+02  0.62500000722E+02  0.10000000653E+02 0.  0.
    3000022    2    3    3    0    0  0.29433933262E+01 -0.16260176902E+01  0.15709640797E+02  0.16067445775E+02  0.25000395974E+00 0.  0.
    1000022    2    1    0    0    0 -0.10798993736E+02 -0.10478026820E+02 -0.59831787249E+02  0.62499999278E+02  0.99999916284E+01 0.  0.
    3000022    2    5    5    0    0 -0.11048788356E+01 -0.12308326680E+01 -0.62115480056E+00  0.17843879548E+01  0.25000157781E+00 0.  0.
        -13    1    4    4    0    0  0.19435645923E+01 -0.11259365387E+01  0.10345686893E+02  0.10587229982E+02  0.10500000000E+00 0.  1.
         13    1    4    4    0    0  0.99982873388E+00 -0.50008115155E+00  0.53639539040E+01  0.54802157931E+01  0.10500000000E+00 0. -1.
    3000001    1    5    5    0    0 -0.96941149000E+01 -0.92471941519E+01 -0.59210632449E+02  0.60715611323E+02  0.10000000000E+01 0.  1.
        -13    1    6    6    0    0 -0.76936805021E+00 -0.88737023124E+00 -0.39681777112E+00  0.12441231721E+01  0.10500000000E+00 0. -1.
         13    1    6    6    0    0 -0.33551078536E+00 -0.34346243678E+00 -0.22433702944E+00  0.54026478263E+00  0.10500000000E+00 0.  1.
</event>
<event>
11    0  0.3483054E-009  0.9118800E+02  0.7816531E-02  0.1126479E+00
         25   -1    0    0    0    0  0.00000000000E+00  0.00000000000E+00  0.99999998245E-14  0.12500000000E+03  0.12500000000E+03 0.  0.
    3000001    1    3    3    0    0  0.18696203813E+02 -0.63174157359E+01  0.10873024392E+02  0.22553945066E+02  0.10000000000E+01 0. -1.
    1000022    2    1    0    0    0  0.42830452556E+02 -0.22079973596E+02  0.38526317367E+02  0.62500000042E+02  0.99999987632E+01 0.  0.
    3000022    2    3    3    0    0  0.24134248743E+02 -0.15762557860E+02  0.27653292975E+02  0.39946054977E+02  0.25000627171E+00 0.  0.
    1000022    2    1    0    0    0 -0.42830452556E+02  0.22079973596E+02 -0.38526317367E+02  0.62499999958E+02  0.99999982354E+01 0.  0.
    3000022    2    5    5    0    0 -0.23243719624E+02  0.81174006831E+01 -0.23993134076E+02  0.34378709698E+02  0.25000382002E+00 0.  0.
        -13    1    4    4    0    0  0.16628791926E+02 -0.10808212750E+02  0.19055564216E+02  0.27503813124E+02  0.10500000000E+00 0. -1.
         13    1    4    4    0    0  0.75054568171E+01 -0.49543451103E+01  0.85977287595E+01  0.12442241853E+02  0.10500000000E+00 0.  1.
    3000001    1    5    5    0    0 -0.19586732932E+02  0.13962572913E+02 -0.14533183291E+02  0.28121290260E+02  0.10000000000E+01 0.  1.
        -13    1    6    6    0    0 -0.77614654214E+01  0.27660739506E+01 -0.80132758941E+01  0.11494134423E+02  0.10500000000E+00 0.  1.
         13    1    6    6    0    0 -0.15482254202E+02  0.53513267325E+01 -0.15979858182E+02  0.22884575275E+02  0.10500000000E+00 0. -1.
</event>
<event>
11    0  0.3483054E-009  0.9118800E+02  0.7816531E-02  0.1126479E+00
         25   -1    0    0    0    0  0.00000000000E+00  0.00000000000E+00  0.99999998245E-14  0.12500000000E+03  0.12500000000E+03 0.  0.
    3000001    1    3    3    0    0  0.57627837016E+01  0.16097622415E+02 -0.19705100598E+02  0.26108123506E+02  0.10000000000E+01 0.  1.
    1000022    2    1    0    0    0  0.24240673599E+02  0.33560382905E+02 -0.45742108200E+02  0.62500000050E+02  0.99999993170E+01 0.  0.
    3000022    2    3    3    0    0  0.18477889898E+02  0.17462760490E+02 -0.26037007602E+02  0.36391876544E+02  0.24998904038E+00 0.  0.
    1000022    2    1    0    0    0 -0.24240673599E+02 -0.33560382905E+02  0.45742108200E+02  0.62499999950E+02  0.99999986921E+01 0.  0.
    3000022    2    5    5    0    0 -0.13636748870E+02 -0.12148426736E+02  0.24155533568E+02  0.30283617611E+02  0.25000350511E+00 0.  0.
        -13    1    4    4    0    0  0.71180080045E+01  0.66606871305E+01 -0.99294741899E+01  0.13915325138E+02  0.10500000000E+00 0.  1.
         13    1    4    4    0    0  0.11359881893E+02  0.10802073359E+02 -0.16107533412E+02  0.22476551406E+02  0.10500000000E+00 0.  1.
    3000001    1    5    5    0    0 -0.10603924730E+02 -0.21411956169E+02  0.21586574632E+02  0.32216382339E+02  0.10000000000E+01 0. -1.
        -13    1    6    6    0    0 -0.58891561031E+01 -0.51885616887E+01  0.10299543307E+02  0.12949708465E+02  0.10500000000E+00 0.  1.
         13    1    6    6    0    0 -0.77475927664E+01 -0.69598650473E+01  0.13855990261E+02  0.17333909146E+02  0.10500000000E+00 0. -1.
</event>
<event>
11    0  0.3483054E-009  0.9118800E+02  0.7816531E-02  0.1126479E+00
         25   -1    0    0    0    0  0.00000000000E+00  0.00000000000E+00  0.99999998245E-14  0.12500000000E+03  0.12500000000E+03 0.  0.
    3000001    1    3    3    0    0 -0.87934947383E+01  0.89749145103E+01 -0.30051365253E+02  0.32587715381E+02  0.10000000000E+01 0.  1.
    1000022    2    1    0    0    0 -0.95890905035E+01  0.23160721287E+02 -0.56372691244E+02  0.62500000368E+02  0.10000003034E+02 0.  0.
    3000022    2    3    3    0    0 -0.79559576512E+00  0.14185806777E+02 -0.26321325991E+02  0.29912284988E+02  0.25000937722E+00 0.  0.
    1000022    2    1    0    0    0  0.95890905035E+01 -0.23160721287E+02  0.56372691244E+02  0.62499999632E+02  0.99999984322E+01 0.  0.
    3000022    2    5    5    0    0  0.99721410526E+01 -0.22162342589E+02  0.55910986587E+02  0.60964858290E+02  0.24999799870E+00 0.  0.
        -13    1    4    4    0    0 -0.48921040503E+00  0.94606473277E+01 -0.17619884065E+02  0.20005362135E+02  0.10500000000E+00 0.  1.
         13    1    4    4    0    0 -0.30638536009E+00  0.47251594493E+01 -0.87014419260E+01  0.99069228523E+01  0.10500000000E+00 0. -1.
    3000001    1    5    5    0    0 -0.38305054913E+00 -0.99837869799E+00  0.46170465686E+00  0.15351413414E+01  0.10000000000E+01 0.  1.
        -13    1    6    6    0    0  0.65436276533E+01 -0.14475698352E+02  0.36424689985E+02  0.39738318675E+02  0.10500000000E+00 0. -1.
         13    1    6    6    0    0  0.34285133993E+01 -0.76866442371E+01  0.19486296602E+02  0.21226539615E+02  0.10500000000E+00 0.  1.
</event>
<event>
11    0  0.3483054E-009  0.9118800E+02  0.7816531E-02  0.1126479E+00
         25   -1    0    0    0    0  0.00000000000E+00  0.00000000000E+00  0.99999998245E-14  0.12500000000E+03  0.12500000000E+03 0.  0.
    3000001    1    3    3    0    0 -0.10115626518E+02 -0.33359867533E+02 -0.28854207607E+01  0.34993318143E+02  0.10000000000E+01 0. -1.
    1000022    2    1    0    0    0 -0.99938668075E+01 -0.60278860174E+02 -0.85341522035E+01  0.62500001241E+02  0.10000002181E+02 0.  0.
    3000022    2    3    3    0    0  0.12175971066E+00 -0.26918992640E+02 -0.56487314427E+01  0.27506683097E+02  0.24991579582E+00 0.  0.
    1000022    2    1    0    0    0  0.99938668075E+01  0.60278860174E+02  0.85341522035E+01  0.62499998759E+02  0.99999866729E+01 0.  0.
    3000022    2    5    5    0    0  0.70857497495E+01  0.52574913904E+02  0.44032405149E+01  0.53233264473E+02  0.24999583839E+00 0.  0.
        -13    1    4    4    0    0  0.31273330781E-02 -0.12920672838E+02 -0.26716199188E+01  0.13194406935E+02  0.10500000000E+00 0.  1.
         13    1    4    4    0    0  0.11863237758E+00 -0.13998319802E+02 -0.29771115239E+01  0.14312276163E+02  0.10500000000E+00 0. -1.
    3000001    1    5    5    0    0  0.29081170579E+01  0.77039462703E+01  0.41309116886E+01  0.92667342865E+01  0.10000000000E+01 0.  1.
        -13    1    6    6    0    0  0.38254802679E+01  0.28123884917E+02  0.22980562835E+01  0.28475942298E+02  0.10500000000E+00 0. -1.
         13    1    6    6    0    0  0.32602694816E+01  0.24451028987E+02  0.21051842314E+01  0.24757322175E+02  0.10500000000E+00 0.  1.
</event>
<event>
11    0  0.3483054E-009  0.9118800E+02  0.7816531E-02  0.1126479E+00
         25   -1    0    0    0    0  0.00000000000E+00  0.00000000000E+00  0.99999998245E-14  0.12500000000E+03  0.12500000000E+03 0.  0.
    3000001    1    3    3    0    0 -0.46909450397E+02  0.36377633207E+02  0.69489051555E+01  0.59775546984E+02  0.10000000000E+01 0.  1.
    1000022    2    1    0    0    0 -0.47536825634E+02  0.38857963395E+02  0.60463955841E+01  0.62500001050E+02  0.10000006054E+02 0.  0.
    3000022    2    3    3    0    0 -0.62737523707E+00  0.24803301880E+01 -0.90250957147E+00  0.27244540663E+01  0.24997780561E+00 0.  0.
    1000022    2    1    0    0    0  0.47536825634E+02 -0.38857963395E+02 -0.60463955841E+01  0.62499998950E+02  0.99999929301E+01 0.  0.
    3000022    2    5    5    0    0  0.40821132366E+02 -0.34260777328E+02 -0.84403182075E+01  0.53958013154E+02  0.25000269484E+00 0.  0.
        -13    1    4    4    0    0 -0.46911045941E+00  0.16727720180E+01 -0.63770302816E+00  0.18536237481E+01  0.10500000000E+00 0. -1.
         13    1    4    4    0    0 -0.15826477766E+00  0.80755816998E+00 -0.26480654331E+00  0.87083031822E+00  0.10500000000E+00 0.  1.
    3000001    1    5    5    0    0  0.67156932687E+01 -0.45971860672E+01  0.23939226235E+01  0.85419857962E+01  0.10000000000E+01 0.  1.
        -13    1    6    6    0    0  0.26699913068E+02 -0.22451550857E+02 -0.54791056481E+01  0.35312733078E+02  0.10500000000E+00 0.  1.
         13    1    6    6    0    0  0.14121219297E+02 -0.11809226471E+02 -0.29612125594E+01  0.18645280076E+02  0.10500000000E+00 0. -1.
</event>
<event>
11    0  0.3483054E-009  0.9118800E+02  0.7816531E-02  0.1126479E+00
         25   -1    0    0    0    0  0.00000000000E+00  0.00000000000E+00  0.99999998245E-14  0.12500000000E+03  0.12500000000E+03 0.  0.
    3000001    1    3    3    0    0  0.14883776094E+02 -0.28927626880E+01 -0.58430965887E+01  0.16279946085E+02  0.10000000000E+01 0. -1.
    1000022    2    1    0    0    0  0.51628333572E+02 -0.43835578622E+00 -0.33772371136E+02  0.62500000712E+02  0.10000002682E+02 0.  0.
    3000022    2    3    3    0    0  0.36744557479E+02  0.24544069018E+01 -0.27929274547E+02  0.46220054628E+02  0.24991097838E+00 0.  0.
    1000022    2    1    0    0    0 -0.51628333572E+02  0.43835578622E+00  0.33772371136E+02  0.62499999288E+02  0.99999937761E+01 0.  0.
    3000022    2    5    5    0    0 -0.36490515528E+02  0.28586281651E+01  0.19235082399E+02  0.41349490609E+02  0.25000046256E+00 0.  0.
        -13    1    4    4    0    0  0.25290625403E+02  0.16596251977E+01 -0.19270055794E+02  0.31838909598E+02  0.10500000000E+00 0. -1.
         13    1    4    4    0    0  0.11453932076E+02  0.79478170412E+00 -0.86592187532E+01  0.14381145030E+02  0.10500000000E+00 0.  1.
    3000001    1    5    5    0    0 -0.15137818044E+02 -0.24202723789E+01  0.14537288737E+02  0.21150508679E+02  0.10000000000E+01 0. -1.
        -13    1    6    6    0    0 -0.18538383575E+02  0.15127220788E+01  0.97394434581E+01  0.20995899065E+02  0.10500000000E+00 0.  1.
         13    1    6    6    0    0 -0.17952131953E+02  0.13459060863E+01  0.94956389405E+01  0.20353591544E+02  0.10500000000E+00 0. -1.
</event>
<event>
11    0  0.3483054E-009  0.9118800E+02  0.7816531E-02  0.1126479E+00
         25   -1    0    0    0    0  0.00000000000E+00  0.00000000000E+00  0.99999998245E-14  0.12500000000E+03  0.12500000000E+03 0.  0.
    3000001    1    3    3    0    0  0.21191124541E+01  0.12329195860E+02 -0.14024886976E+02  0.18820126537E+02  0.10000000000E+01 0. -1.
    1000022    2    1    0    0    0  0.21280818688E+02  0.39740218338E+02 -0.42119970983E+02  0.62500000476E+02  0.99999953167E+01 0.  0.
    3000022    2    3    3    0    0  0.19161706234E+02  0.27411022478E+02 -0.28095084006E+02  0.43679873939E+02  0.25000593291E+00 0.  0.
    1000022    2    1    0    0    0 -0.21280818688E+02 -0.39740218338E+02  0.42119970983E+02  0.62499999524E+02  0.99999893676E+01 0.  0.
    3000022    2    5    5    0    0 -0.99751887760E+01 -0.24642840628E+02  0.19168815628E+02  0.32776210843E+02  0.25003867623E+00 0.  0.
        -13    1    4    4    0    0  0.91205056276E+01  0.12996949771E+02 -0.13418031674E+02  0.20788432487E+02  0.10500000000E+00 0. -1.
         13    1    4    4    0    0  0.10041200607E+02  0.14414072706E+02 -0.14677052332E+02  0.22891441453E+02  0.10500000000E+00 0.  1.
    3000001    1    5    5    0    0 -0.11305629912E+02 -0.15097377710E+02  0.22951155354E+02  0.29723788681E+02  0.10000000000E+01 0. -1.
        -13    1    6    6    0    0 -0.30732284953E+01 -0.77067671254E+01  0.59537445326E+01  0.10212594767E+02  0.10500000000E+00 0. -1.
         13    1    6    6    0    0 -0.69019602807E+01 -0.16936073502E+02  0.13215071096E+02  0.22563616077E+02  0.10500000000E+00 0.  1.
</event>
<event>
11    0  0.3483054E-009  0.9118800E+02  0.7816531E-02  0.1126479E+00
         25   -1    0    0    0    0  0.00000000000E+00  0.00000000000E+00  0.99999998245E-14  0.12500000000E+03  0.12500000000E+03 0.  0.
    3000001    1    3    3    0    0 -0.98460623334E+00 -0.17958140259E+01  0.11579904034E+01  0.25564309544E+01  0.10000000000E+01 0. -1.
    1000022    2    1    0    0    0 -0.30004698409E+02 -0.52448482495E+02 -0.12454878647E+02  0.62499998372E+02  0.10000027584E+02 0.  0.
    3000022    2    3    3    0    0 -0.29020092176E+02 -0.50652668469E+02 -0.13612869050E+02  0.59943567417E+02  0.24999596732E+00 0.  0.
    1000022    2    1    0    0    0  0.30004698409E+02  0.52448482495E+02  0.12454878647E+02  0.62500001628E+02  0.10000047939E+02 0.  0.
    3000022    2    5    5    0    0  0.76130576926E+00  0.77702622047E+01  0.96422209001E+00  0.78707551619E+01  0.25000274905E+00 0.  0.
        -13    1    4    4    0    0 -0.91956257632E+01 -0.16082417657E+02 -0.43688757883E+01  0.19034226843E+02  0.10500000000E+00 0. -1.
         13    1    4    4    0    0 -0.19824466412E+02 -0.34570250812E+02 -0.92439932619E+01  0.40909340574E+02  0.10500000000E+00 0.  1.
    3000001    1    5    5    0    0  0.29243392640E+02  0.44678220290E+02  0.11490656557E+02  0.54629246467E+02  0.10000000000E+01 0. -1.
        -13    1    6    6    0    0  0.42122542700E+00  0.37872200720E+01  0.42441742162E+00  0.38355732143E+01  0.10500000000E+00 0.  1.
         13    1    6    6    0    0  0.34008034226E+00  0.39830421327E+01  0.53980466839E+00  0.40351819476E+01  0.10500000000E+00 0. -1.
</event>
<event>
11    0  0.3483054E-009  0.9118800E+02  0.7816531E-02  0.1126479E+00
         25   -1    0    0    0    0  0.00000000000E+00  0.00000000000E+00  0.99999998245E-14  0.12500000000E+03  0.12500000000E+03 0.  0.
    3000001    1    3    3    0    0 -0.18406123043E+01 -0.18591261528E+02 -0.96022988363E+01  0.21029194036E+02  0.10000000000E+01 0. -1.
    1000022    2    1    0    0    0 -0.14474254591E+02 -0.47928497411E+02 -0.36050037860E+02  0.62499999759E+02  0.99999915057E+01 0.  0.
    3000022    2    3    3    0    0 -0.12633642287E+02 -0.29337235883E+02 -0.26447739024E+02  0.41470805723E+02  0.25000232440E+00 0.  0.
    1000022    2    1    0    0    0  0.14474254591E+02  0.47928497411E+02  0.36050037860E+02  0.62500000241E+02  0.99999945154E+01 0.  0.
    3000022    2    5    5    0    0 -0.62472611925E+00  0.14050961900E+01 -0.25446460266E+00  0.15785509904E+01  0.24998593612E+00 0.  0.
        -13    1    4    4    0    0 -0.80054400413E+01 -0.18464692397E+02 -0.16706414942E+02  0.26156208838E+02  0.10500000000E+00 0.  1.
         13    1    4    4    0    0 -0.46282022458E+01 -0.10872543486E+02 -0.97413240814E+01  0.15314596885E+02  0.10500000000E+00 0. -1.
    3000001    1    5    5    0    0  0.15098980711E+02  0.46523401221E+02  0.36304502463E+02  0.60921449250E+02  0.10000000000E+01 0. -1.
        -13    1    6    6    0    0 -0.15584742535E+00  0.38775492743E+00 -0.35608277845E-01  0.43236009666E+00  0.10500000000E+00 0. -1.
         13    1    6    6    0    0 -0.46887869389E+00  0.10173412625E+01 -0.21885632482E+00  0.11461908938E+01  0.10500000000E+00 0.  1.
</event>
<event>
11    0  0.3483054E-009  0.9118800E+02  0.7816531E-02  0.1126479E+00
         25   -1    0    0    0    0  0.00000000000E+00  0.00000000000E+00  0.99999998245E-14  0.12500000000E+03  0.12500000000E+03 0.  0.
    3000001    1    3    3    0    0 -0.45892141841E+02  0.34759016605E-01 -0.18655558690E+02  0.49549165089E+02  0.10000000000E+01 0. -1.
    1000022    2    1    0    0    0 -0.55414565766E+02 -0.27334424008E+01 -0.26981552080E+02  0.62500001284E+02  0.10000010071E+02 0.  0.
    3000022    2    3    3    0    0 -0.95224239254E+01 -0.27682014174E+01 -0.83259933898E+01  0.12950836195E+02  0.24999145910E+00 0.  0.
    1000022    2    1    0    0    0  0.55414565766E+02  0.27334424008E+01  0.26981552080E+02  0.62499998716E+02  0.99999940219E+01 0.  0.
    3000022    2    5    5    0    0  0.27367599455E+02 -0.36010245558E+01  0.13346629712E+02  0.30661831387E+02  0.25000311420E+00 0.  0.
        -13    1    4    4    0    0 -0.26452327551E+01 -0.75633126291E+00 -0.23591941754E+01  0.36257572264E+01  0.10500000000E+00 0. -1.
         13    1    4    4    0    0 -0.68771911703E+01 -0.20118701545E+01 -0.59667992144E+01  0.93250789689E+01  0.10500000000E+00 0.  1.
    3000001    1    5    5    0    0  0.28046966311E+02  0.63344669565E+01  0.13634922368E+02  0.31838167329E+02  0.10000000000E+01 0. -1.
        -13    1    6    6    0    0  0.17483107081E+02 -0.22454909061E+01  0.85456863377E+01  0.19589309395E+02  0.10500000000E+00 0.  1.
         13    1    6    6    0    0  0.98844923748E+01 -0.13555336497E+01  0.48009433742E+01  0.11072521992E+02  0.10500000000E+00 0. -1.
</event>
<event>
11    0  0.3483054E-009  0.9118800E+02  0.7816531E-02  0.1126479E+00
         25   -1    0    0    0    0  0.00000000000E+00  0.00000000000E+00  0.99999998245E-14  0.12500000000E+03  0.12500000000E+03 0.  0.
    3000001    1    3    3    0    0 -0.15914349903E+02 -0.26725198885E+02 -0.97970148601E+01  0.32626435423E+02  0.10000000000E+01 0.  1.
    1000022    2    1    0    0    0 -0.22139118498E+02 -0.52820883060E+02 -0.22936073305E+02  0.62499999568E+02  0.10000011607E+02 0.  0.
    3000022    2    3    3    0    0 -0.62247685943E+01 -0.26095684176E+02 -0.13139058445E+02  0.29873564144E+02  0.25000238740E+00 0.  0.
    1000022    2    1    0    0    0  0.22139118498E+02  0.52820883060E+02  0.22936073305E+02  0.62500000432E+02  0.10000017013E+02 0.  0.
    3000022    2    5    5    0    0  0.15124677704E+02  0.34365003385E+02  0.99358489383E+01  0.38839321917E+02  0.24999901262E+00 0.  0.
        -13    1    4    4    0    0 -0.28296319006E+01 -0.11601536874E+02 -0.58180380634E+01  0.13283940170E+02  0.10500000000E+00 0.  1.
         13    1    4    4    0    0 -0.33951366937E+01 -0.14494147301E+02 -0.73210203820E+01  0.16589623974E+02  0.10500000000E+00 0. -1.
    3000001    1    5    5    0    0  0.70144407932E+01  0.18455879675E+02  0.13000224367E+02  0.23660678516E+02  0.10000000000E+01 0.  1.
        -13    1    6    6    0    0  0.11516846473E+02  0.26208525568E+02  0.75805158745E+01  0.29614182600E+02  0.10500000000E+00 0. -1.
         13    1    6    6    0    0  0.36078312312E+01  0.81564778168E+01  0.23553330638E+01  0.92251393166E+01  0.10500000000E+00 0.  1.
</event>
<event>
11    0  0.3483054E-009  0.9118800E+02  0.7816531E-02  0.1126479E+00
         25   -1    0    0    0    0  0.00000000000E+00  0.00000000000E+00  0.99999998245E-14  0.12500000000E+03  0.12500000000E+03 0.  0.
    3000001    1    3    3    0    0  0.27600438253E+02 -0.96244204035E+00 -0.26304461699E+02  0.38152787470E+02  0.10000000000E+01 0. -1.
    1000022    2    1    0    0    0  0.49668445072E+02 -0.18174156403E+01 -0.36551232404E+02  0.62499999405E+02  0.99999949988E+01 0.  0.
    3000022    2    3    3    0    0  0.22068006819E+02 -0.85497359992E+00 -0.10246770704E+02  0.24347211935E+02  0.25002868493E+00 0.  0.
    1000022    2    1    0    0    0 -0.49668445072E+02  0.18174156403E+01  0.36551232404E+02  0.62500000595E+02  0.10000002434E+02 0.  0.
    3000022    2    5    5    0    0 -0.43379333559E+02 -0.17104445119E+01  0.31027483796E+02  0.53361591567E+02  0.25000688588E+00 0.  0.
        -13    1    4    4    0    0  0.73277325244E+01 -0.30147888447E+00 -0.33475243650E+01  0.80624746723E+01  0.10500000000E+00 0.  1.
         13    1    4    4    0    0  0.14740274294E+02 -0.55349471545E+00 -0.68992463394E+01  0.16284737263E+02  0.10500000000E+00 0. -1.
    3000001    1    5    5    0    0 -0.62891115124E+01  0.35278601521E+01  0.55237486079E+01  0.91384090274E+01  0.10000000000E+01 0. -1.
        -13    1    6    6    0    0 -0.28486870498E+02 -0.10724282681E+01  0.20401118422E+02  0.35055221451E+02  0.10500000000E+00 0.  1.
         13    1    6    6    0    0 -0.14892463061E+02 -0.63801624376E+00  0.10626365374E+02  0.18306370116E+02  0.10500000000E+00 0. -1.
</event>
<event>
11    0  0.3483054E-009  0.9118800E+02  0.7816531E-02  0.1126479E+00
         25   -1    0    0    0    0  0.00000000000E+00  0.00000000000E+00  0.99999998245E-14  0.12500000000E+03  0.12500000000E+03 0.  0.
    3000001    1    3    3    0    0  0.74035259291E+01 -0.18615655174E+02 -0.18013440243E+02  0.26959948871E+02  0.10000000000E+01 0.  1.
    1000022    2    1    0    0    0  0.24995970957E+02 -0.35270380362E+02 -0.44016493924E+02  0.62500000717E+02  0.10000002867E+02 0.  0.
    3000022    2    3    3    0    0  0.17592445028E+02 -0.16654725188E+02 -0.26003053681E+02  0.35540051846E+02  0.24998269908E+00 0.  0.
    1000022    2    1    0    0    0 -0.24995970957E+02  0.35270380362E+02  0.44016493924E+02  0.62499999283E+02  0.99999938991E+01 0.  0.
    3000022    2    5    5    0    0 -0.83002145502E+01  0.10067938120E+02  0.73879085503E+01  0.14996687362E+02  0.24999902535E+00 0.  0.
        -13    1    4    4    0    0  0.44058293137E+01 -0.41981495244E+01 -0.65058069469E+01  0.89091155790E+01  0.10500000000E+00 0.  1.
         13    1    4    4    0    0  0.13186615714E+02 -0.12456575663E+02 -0.19497246734E+02  0.26630936267E+02  0.10500000000E+00 0. -1.
    3000001    1    5    5    0    0 -0.16695756407E+02  0.25202442242E+02  0.36628585374E+02  0.47503311921E+02  0.10000000000E+01 0. -1.
        -13    1    6    6    0    0 -0.20793248358E+01  0.25532042990E+01  0.18873611075E+01  0.37967882368E+01  0.10500000000E+00 0. -1.
         13    1    6    6    0    0 -0.62208897145E+01  0.75147338206E+01  0.55005474428E+01  0.11199899125E+02  0.10500000000E+00 0.  1.
</event>
<event>
11    0  0.3483054E-009  0.9118800E+02  0.7816531E-02  0.1126479E+00
         25   -1    0    0    0    0  0.00000000000E+00  0.00000000000E+00  0.99999998245E-14  0.12500000000E+03  0.12500000000E+03 0.  0.
    3000001    1    3    3    0    0 -0.34274366124E+02 -0.16012533505E+02  0.14053675858E+02  0.40368790019E+02  0.10000000000E+01 0.  1.
    1000022    2    1    0    0    0 -0.54335053265E+02 -0.25342613740E+02  0.14550051418E+02  0.62500000044E+02  0.99999962341E+01 0.  0.
    3000022    2    3    3    0    0 -0.20060687141E+02 -0.93300802346E+01  0.49637555973E+00  0.22131210025E+02  0.25000540274E+00 0.  0.
    1000022    2    1    0    0    0  0.54335053265E+02  0.25342613740E+02 -0.14550051418E+02  0.62499999956E+02  0.99999956879E+01 0.  0.
    3000022    2    5    5    0    0  0.12413791623E+02  0.78093706228E+01  0.34001239569E+00  0.14671966416E+02  0.24999624204E+00 0.  0.
        -13    1    4    4    0    0 -0.84406393932E+01 -0.39914397797E+01  0.23527904137E+00  0.93403622043E+01  0.10500000000E+00 0.  1.
         13    1    4    4    0    0 -0.11620047748E+02 -0.53386404549E+01  0.26109651836E+00  0.12790847820E+02  0.10500000000E+00 0. -1.
    3000001    1    5    5    0    0  0.41921261643E+02  0.17533243117E+02 -0.14890063814E+02  0.47828033540E+02  0.10000000000E+01 0.  1.
        -13    1    6    6    0    0  0.94618370082E+01  0.59714336564E+01  0.26381675923E+00  0.11192184942E+02  0.10500000000E+00 0. -1.
         13    1    6    6    0    0  0.29519546145E+01  0.18379369664E+01  0.76195636466E-01  0.34797814750E+01  0.10500000000E+00 0.  1.
</event>
<event>
11    0  0.3483054E-009  0.9118800E+02  0.7816531E-02  0.1126479E+00
         25   -1    0    0    0    0  0.00000000000E+00  0.00000000000E+00  0.99999998245E-14  0.12500000000E+03  0.12500000000E+03 0.  0.
    3000001    1    3    3    0    0 -0.11933502298E+00 -0.66845694478E+00  0.31431199078E+01  0.33675329679E+01  0.10000000000E+01 0. -1.
    1000022    2    1    0    0    0 -0.36370229804E+02 -0.21521444142E+02  0.44947568327E+02  0.62500001674E+02  0.10000006845E+02 0.  0.
    3000022    2    3    3    0    0 -0.36250894781E+02 -0.20852987197E+02  0.41804448419E+02  0.59132468707E+02  0.25000059068E+00 0.  0.
    1000022    2    1    0    0    0  0.36370229804E+02  0.21521444142E+02 -0.44947568327E+02  0.62499998326E+02  0.99999859146E+01 0.  0.
    3000022    2    5    5    0    0  0.12507485045E+02  0.48029334855E+01 -0.20297481145E+02  0.24321915817E+02  0.24999189733E+00 0.  0.
        -13    1    4    4    0    0 -0.19454664681E+02 -0.11193544326E+02  0.22341261536E+02  0.31668950164E+02  0.10500000000E+00 0.  1.
         13    1    4    4    0    0 -0.16796230099E+02 -0.96594428708E+01  0.19463186883E+02  0.27463518543E+02  0.10500000000E+00 0. -1.
    3000001    1    5    5    0    0  0.23862744758E+02  0.16718510656E+02 -0.24650087181E+02  0.38178082508E+02  0.10000000000E+01 0. -1.
        -13    1    6    6    0    0  0.53885386431E+01  0.20272498391E+01 -0.86271011989E+01  0.10372270278E+02  0.10500000000E+00 0.  1.
         13    1    6    6    0    0  0.71189464020E+01  0.27756836464E+01 -0.11670379946E+02  0.13949645539E+02  0.10500000000E+00 0. -1.
</event>
<event>
11    0  0.3483054E-009  0.9118800E+02  0.7816531E-02  0.1126479E+00
         25   -1    0    0    0    0  0.00000000000E+00  0.00000000000E+00  0.99999998245E-14  0.12500000000E+03  0.12500000000E+03 0.  0.
    3000001    1    3    3    0    0 -0.45991738741E-02 -0.23869989875E+00  0.64840992428E-01  0.10301471489E+01  0.10000000000E+01 0. -1.
    1000022    2    1    0    0    0  0.54660930931E+01 -0.60809793541E+02 -0.88623348008E+01  0.62500000160E+02  0.99999938863E+01 0.  0.
    3000022    2    3    3    0    0  0.54706922670E+01 -0.60571093642E+02 -0.89271757933E+01  0.61469853012E+02  0.25000542878E+00 0.  0.
    1000022    2    1    0    0    0 -0.54660930931E+01  0.60809793541E+02  0.88623348008E+01  0.62499999840E+02  0.99999918807E+01 0.  0.
    3000022    2    5    5    0    0 -0.43485107489E+01  0.59440089670E+02  0.75354394305E+01  0.60073947426E+02  0.25001233346E+00 0.  0.
        -13    1    4    4    0    0  0.15302201490E+01 -0.17316235568E+02 -0.25765439301E+01  0.17573935005E+02  0.10500000000E+00 0. -1.
         13    1    4    4    0    0  0.39404721181E+01 -0.43254858075E+02 -0.63506318631E+01  0.43895918006E+02  0.10500000000E+00 0.  1.
    3000001    1    5    5    0    0 -0.11175823443E+01  0.13697038706E+01  0.13268953704E+01  0.24260524135E+01  0.10000000000E+01 0. -1.
        -13    1    6    6    0    0 -0.30129951074E+01  0.41798624894E+02  0.53025996406E+01  0.42241351429E+02  0.10500000000E+00 0.  1.
         13    1    6    6    0    0 -0.13355156414E+01  0.17641464776E+02  0.22328397899E+01  0.17832595997E+02  0.10500000000E+00 0. -1.
</event>
<event>
11    0  0.3483054E-009  0.9118800E+02  0.7816531E-02  0.1126479E+00
         25   -1    0    0    0    0  0.00000000000E+00  0.00000000000E+00  0.99999998245E-14  0.12500000000E+03  0.12500000000E+03 0.  0.
    3000001    1    3    3    0    0  0.13088024184E+02 -0.29013402819E+02  0.93040362713E+01  0.33175879960E+02  0.10000000000E+01 0.  1.
    1000022    2    1    0    0    0  0.31657633799E+02 -0.49039010092E+02  0.19980473720E+02  0.62500002524E+02  0.10000034841E+02 0.  0.
    3000022    2    3    3    0    0  0.18569609615E+02 -0.20025607273E+02  0.10676437449E+02  0.29324122564E+02  0.24999926374E+00 0.  0.
    1000022    2    1    0    0    0 -0.31657633799E+02  0.49039010092E+02 -0.19980473720E+02  0.62499997476E+02  0.10000003297E+02 0.  0.
    3000022    2    5    5    0    0 -0.14874004438E+02  0.25399091706E+02 -0.50186719404E+01  0.29859662485E+02  0.25001640406E+00 0.  0.
        -13    1    4    4    0    0  0.45666773191E+01 -0.48997257832E+01  0.26014867004E+01  0.71861403089E+01  0.10500000000E+00 0. -1.
         13    1    4    4    0    0  0.14002932296E+02 -0.15125881490E+02  0.80749507485E+01  0.22137982255E+02  0.10500000000E+00 0.  1.
    3000001    1    5    5    0    0 -0.16783629361E+02  0.23639918386E+02 -0.14961801780E+02  0.32640334991E+02  0.10000000000E+01 0.  1.
        -13    1    6    6    0    0 -0.43309424724E+01  0.73172931490E+01 -0.14659335215E+01  0.86290108249E+01  0.10500000000E+00 0. -1.
         13    1    6    6    0    0 -0.10543061965E+02  0.18081798557E+02 -0.35527384189E+01  0.21230651660E+02  0.10500000000E+00 0.  1.
</event>
<event>
11    0  0.3483054E-009  0.9118800E+02  0.7816531E-02  0.1126479E+00
         25   -1    0    0    0    0  0.00000000000E+00  0.00000000000E+00  0.99999998245E-14  0.12500000000E+03  0.12500000000E+03 0.  0.
    3000001    1    3    3    0    0  0.11769286225E+01  0.14806662001E+01  0.23552127943E+01  0.31819114829E+01  0.10000000000E+01 0.  1.
    1000022    2    1    0    0    0  0.86016915726E+01 -0.36170832934E+01  0.60985056348E+02  0.62499996472E+02  0.10000003586E+02 0.  0.
    3000022    2    3    3    0    0  0.74247629501E+01 -0.50977494935E+01  0.58629843554E+02  0.59318084989E+02  0.24999368055E+00 0.  0.
    1000022    2    1    0    0    0 -0.86016915726E+01  0.36170832934E+01 -0.60985056348E+02  0.62500003528E+02  0.10000047689E+02 0.  0.
    3000022    2    5    5    0    0 -0.44234234298E+01  0.65336931864E+01 -0.27350659854E+02  0.28467119938E+02  0.25000323835E+00 0.  0.
        -13    1    4    4    0    0  0.50823661857E+01 -0.35361613641E+01  0.40496739438E+02  0.40967448217E+02  0.10500000000E+00 0. -1.
         13    1    4    4    0    0  0.23423967645E+01 -0.15615881293E+01  0.18133104116E+02  0.18350636772E+02  0.10500000000E+00 0.  1.
    3000001    1    5    5    0    0 -0.41782681428E+01 -0.29166098931E+01 -0.33634396494E+02  0.34032883591E+02  0.10000000000E+01 0. -1.
        -13    1    6    6    0    0 -0.28481129553E+01  0.42857755232E+01 -0.17707878191E+02  0.18440704820E+02  0.10500000000E+00 0.  1.
         13    1    6    6    0    0 -0.15753104745E+01  0.22479176633E+01 -0.96427816625E+01  0.10026415117E+02  0.10500000000E+00 0. -1.
</event>
<event>
11    0  0.3483054E-009  0.9118800E+02  0.7816531E-02  0.1126479E+00
         25   -1    0    0    0    0  0.00000000000E+00  0.00000000000E+00  0.99999998245E-14  0.12500000000E+03  0.12500000000E+03 0.  0.
    3000001    1    3    3    0    0 -0.23197134219E+02 -0.10357736816E+02 -0.26835669752E+02  0.36966781290E+02  0.10000000000E+01 0.  1.
    1000022    2    1    0    0    0 -0.44138547670E+02 -0.12304248019E+02 -0.41311548705E+02  0.62500000422E+02  0.10000004332E+02 0.  0.
    3000022    2    3    3    0    0 -0.20941413452E+02 -0.19465112031E+01 -0.14475878953E+02  0.25533219133E+02  0.25000916374E+00 0.  0.
    1000022    2    1    0    0    0  0.44138547670E+02  0.12304248019E+02  0.41311548705E+02  0.62499999578E+02  0.99999990522E+01 0.  0.
    3000022    2    5    5    0    0  0.17864694612E+02  0.50302479422E+01  0.23388486474E+02  0.29858575108E+02  0.25000005430E+00 0.  0.
        -13    1    4    4    0    0 -0.79658334367E+01 -0.79169088334E+00 -0.54695892126E+01  0.96958087827E+01  0.10500000000E+00 0.  1.
         13    1    4    4    0    0 -0.12975580015E+02 -0.11548203198E+01 -0.90062897406E+01  0.15837410350E+02  0.10500000000E+00 0. -1.
    3000001    1    5    5    0    0  0.26273853058E+02  0.72740000772E+01  0.17923062231E+02  0.32641424469E+02  0.10000000000E+01 0.  1.
        -13    1    6    6    0    0  0.99938440041E+01  0.27464748316E+01  0.13080995114E+02  0.16689622529E+02  0.10500000000E+00 0.  1.
         13    1    6    6    0    0  0.78708506082E+01  0.22837731106E+01  0.10307491359E+02  0.13168952579E+02  0.10500000000E+00 0. -1.
</event>
<event>
11    0  0.3483054E-009  0.9118800E+02  0.7816531E-02  0.1126479E+00
         25   -1    0    0    0    0  0.00000000000E+00  0.00000000000E+00  0.99999998245E-14  0.12500000000E+03  0.12500000000E+03 0.  0.
    3000001    1    3    3    0    0  0.11825149836E+02  0.28152267647E+01  0.85090201735E+01  0.14871553204E+02  0.10000000000E+01 0. -1.
    1000022    2    1    0    0    0  0.57496256580E+02  0.94791302586E+01  0.20262688854E+02  0.62499998791E+02  0.99999929057E+01 0.  0.
    3000022    2    3    3    0    0  0.45671106744E+02  0.66639034939E+01  0.11753668680E+02  0.47628445587E+02  0.25000122186E+00 0.  0.
    1000022    2    1    0    0    0 -0.57496256580E+02 -0.94791302586E+01 -0.20262688854E+02  0.62500001209E+02  0.10000008019E+02 0.  0.
    3000022    2    5    5    0    0 -0.20594057917E+02  0.12540323105E+01 -0.59053845360E+01  0.21462149996E+02  0.24999483347E+00 0.  0.
        -13    1    4    4    0    0  0.16242457300E+02  0.24272337878E+01  0.41725624063E+01  0.16944916201E+02  0.10500000000E+00 0. -1.
         13    1    4    4    0    0  0.29428649443E+02  0.42366697061E+01  0.75811062741E+01  0.30683529386E+02  0.10500000000E+00 0.  1.
    3000001    1    5    5    0    0 -0.36902198663E+02 -0.10733162569E+02 -0.14357304318E+02  0.41037851213E+02  0.10000000000E+01 0. -1.
        -13    1    6    6    0    0 -0.52813808561E+01  0.33384280308E+00 -0.14864879601E+01  0.54977364633E+01  0.10500000000E+00 0. -1.
         13    1    6    6    0    0 -0.15312677061E+02  0.92018950740E+00 -0.44188965759E+01  0.15964413533E+02  0.10500000000E+00 0.  1.
</event>
<event>
11    0  0.3483054E-009  0.9118800E+02  0.7816531E-02  0.1126479E+00
         25   -1    0    0    0    0  0.00000000000E+00  0.00000000000E+00  0.99999998245E-14  0.12500000000E+03  0.12500000000E+03 0.  0.
    3000001    1    3    3    0    0 -0.27272161630E+01 -0.23635933287E+01  0.80748624910E+01  0.89009935216E+01  0.10000000000E+01 0. -1.
    1000022    2    1    0    0    0 -0.47307390610E+01 -0.34446984526E+02  0.50963470023E+02  0.62499997755E+02  0.99999903803E+01 0.  0.
    3000022    2    3    3    0    0 -0.20035228980E+01 -0.32083391197E+02  0.42888607532E+02  0.53599004234E+02  0.25000813209E+00 0.  0.
    1000022    2    1    0    0    0  0.47307390610E+01  0.34446984526E+02 -0.50963470023E+02  0.62500002245E+02  0.10000018438E+02 0.  0.
    3000022    2    5    5    0    0  0.75414924337E+01  0.19015723136E+02 -0.28324060616E+02  0.34939758760E+02  0.24999585965E+00 0.  0.
        -13    1    4    4    0    0 -0.13623127338E+01 -0.21984977762E+02  0.29468575699E+02  0.36791345747E+02  0.10500000000E+00 0.  1.
         13    1    4    4    0    0 -0.64121016412E+00 -0.10098413435E+02  0.13420031834E+02  0.16807658486E+02  0.10500000000E+00 0. -1.
    3000001    1    5    5    0    0 -0.28107533727E+01  0.15431261390E+02 -0.22639409407E+02  0.27560243484E+02  0.10000000000E+01 0.  1.
        -13    1    6    6    0    0  0.22532954567E+01  0.56105352073E+01 -0.83106034280E+01  0.10277772135E+02  0.10500000000E+00 0.  1.
         13    1    6    6    0    0  0.52881969771E+01  0.13405187928E+02 -0.20013457188E+02  0.24661986625E+02  0.10500000000E+00 0. -1.
</event>
<event>
11    0  0.3483054E-009  0.9118800E+02  0.7816531E-02  0.1126479E+00
         25   -1    0    0    0    0  0.00000000000E+00  0.00000000000E+00  0.99999998245E-14  0.12500000000E+03  0.12500000000E+03 0.  0.
    3000001    1    3    3    0    0  0.19421093704E+01 -0.34675469025E+01  0.33474364539E+00  0.41119002464E+01  0.10000000000E+01 0.  1.
    1000022    2    1    0    0    0  0.31351920859E+02 -0.44763404960E+02 -0.28627675075E+02  0.62499990666E+02  0.99999843954E+01 0.  0.
    3000022    2    3    3    0    0  0.29409811488E+02 -0.41295858058E+02 -0.28962418720E+02  0.58388090420E+02  0.25000047932E+00 0.  0.
    1000022    2    1    0    0    0 -0.31351920859E+02  0.44763404960E+02  0.28627675075E+02  0.62500009334E+02  0.10000101071E+02 0.  0.
    3000022    2    5    5    0    0 -0.28846016866E+02  0.38258378243E+02  0.27834392916E+02  0.55413104227E+02  0.24999253019E+00 0.  0.
        -13    1    4    4    0    0  0.11433455548E+02 -0.16091826057E+02 -0.11343831583E+02  0.22767615413E+02  0.10500000000E+00 0.  1.
         13    1    4    4    0    0  0.17976355940E+02 -0.25204032001E+02 -0.17618587137E+02  0.35620475007E+02  0.10500000000E+00 0. -1.
    3000001    1    5    5    0    0 -0.25059039924E+01  0.65050267171E+01  0.79328215871E+00  0.70869051068E+01  0.10000000000E+01 0.  1.
        -13    1    6    6    0    0 -0.87185646871E+01  0.11488909659E+02  0.83661110392E+01  0.16673669490E+02  0.10500000000E+00 0. -1.
         13    1    6    6    0    0 -0.20127452179E+02  0.26769468584E+02  0.19468281877E+02  0.38739434737E+02  0.10500000000E+00 0.  1.
</event>
<event>
11    0  0.3483054E-009  0.9118800E+02  0.7816531E-02  0.1126479E+00
         25   -1    0    0    0    0  0.00000000000E+00  0.00000000000E+00  0.99999998245E-14  0.12500000000E+03  0.12500000000E+03 0.  0.
    3000001    1    3    3    0    0 -0.42136212429E+02  0.28950402349E+02  0.38752159016E+01  0.51279659635E+02  0.10000000000E+01 0.  1.
    1000022    2    1    0    0    0 -0.50299410298E+02  0.35723498595E+02  0.22543527226E+00  0.62499999639E+02  0.10000005279E+02 0.  0.
    3000022    2    3    3    0    0 -0.81631978688E+01  0.67730962463E+01 -0.36497806294E+01  0.11220340003E+02  0.24999788435E+00 0.  0.
    1000022    2    1    0    0    0  0.50299410298E+02 -0.35723498595E+02 -0.22543527226E+00  0.62500000361E+02  0.10000009795E+02 0.  0.
    3000022    2    5    5    0    0  0.48763258829E+02 -0.36041341116E+02 -0.30066897934E+00  0.60638161132E+02  0.25000519766E+00 0.  0.
        -13    1    4    4    0    0 -0.23226135150E+01  0.19610552351E+01 -0.10809513877E+01  0.32279640763E+01  0.10500000000E+00 0.  1.
         13    1    4    4    0    0 -0.58405843537E+01  0.48120410112E+01 -0.25688292417E+01  0.79923759271E+01  0.10500000000E+00 0. -1.
    3000001    1    5    5    0    0  0.15361514690E+01  0.31784252109E+00  0.75233707078E-01  0.18618392290E+01  0.10000000000E+01 0.  1.
        -13    1    6    6    0    0  0.34900469652E+02 -0.25744720119E+02 -0.20759877574E+00  0.43369200110E+02  0.10500000000E+00 0.  1.
         13    1    6    6    0    0  0.13862789177E+02 -0.10296620998E+02 -0.93070203594E-01  0.17268961022E+02  0.10500000000E+00 0. -1.
</event>
<event>
11    0  0.3483054E-009  0.9118800E+02  0.7816531E-02  0.1126479E+00
         25   -1    0    0    0    0  0.00000000000E+00  0.00000000000E+00  0.99999998245E-14  0.12500000000E+03  0.12500000000E+03 0.  0.
    3000001    1    3    3    0    0 -0.13713929242E+01  0.31791672864E+01  0.97249022759E+00  0.37327684673E+01  0.10000000000E+01 0. -1.
    1000022    2    1    0    0    0  0.11270205322E+02  0.53801918020E+02  0.28010464249E+02  0.62499999428E+02  0.99999955228E+01 0.  0.
    3000022    2    3    3    0    0  0.12641598247E+02  0.50622750734E+02  0.27037974022E+02  0.58767230961E+02  0.24999516708E+00 0.  0.
    1000022    2    1    0    0    0 -0.11270205322E+02 -0.53801918020E+02 -0.28010464249E+02  0.62500000572E+02  0.10000002668E+02 0.  0.
    3000022    2    5    5    0    0 -0.29741249885E+01 -0.13584741270E+02 -0.12149847677E+02  0.18468132422E+02  0.25000356805E+00 0.  0.
        -13    1    4    4    0    0  0.73489359295E+01  0.29339513354E+02  0.15604326955E+02  0.34034099781E+02  0.10500000000E+00 0. -1.
         13    1    4    4    0    0  0.52926623172E+01  0.21283237379E+02  0.11433647066E+02  0.24733131180E+02  0.10500000000E+00 0.  1.
    3000001    1    5    5    0    0 -0.82960803340E+01 -0.40217176750E+02 -0.15860616573E+02  0.44031868149E+02  0.10000000000E+01 0.  1.
        -13    1    6    6    0    0 -0.11187175282E+01 -0.51541320668E+01 -0.46880585984E+01  0.70573029333E+01  0.10500000000E+00 0. -1.
         13    1    6    6    0    0 -0.18554074603E+01 -0.84306092030E+01 -0.74617890781E+01  0.11410829489E+02  0.10500000000E+00 0.  1.
</event>
<event>
11    0  0.3483054E-009  0.9118800E+02  0.7816531E-02  0.1126479E+00
         25   -1    0    0    0    0  0.00000000000E+00  0.00000000000E+00  0.99999998245E-14  0.12500000000E+03  0.12500000000E+03 0.  0.
    3000001    1    3    3    0    0 -0.56346772057E+01  0.98660221353E+01  0.16632598823E+02  0.20167581005E+02  0.10000000000E+01 0. -1.
    1000022    2    1    0    0    0 -0.55358216840E+01  0.24440742781E+02  0.56376012803E+02  0.62500000211E+02  0.99999988718E+01 0.  0.
    3000022    2    3    3    0    0  0.98855521713E-01  0.14574720646E+02  0.39743413979E+02  0.42332419206E+02  0.25001351083E+00 0.  0.
    1000022    2    1    0    0    0  0.55358216840E+01 -0.24440742781E+02 -0.56376012803E+02  0.62499999789E+02  0.99999962332E+01 0.  0.
    3000022    2    5    5    0    0  0.82474092193E+01 -0.19993829232E+02 -0.43725148988E+02  0.48782416097E+02  0.25000016841E+00 0.  0.
        -13    1    4    4    0    0 -0.40937302476E-02  0.64893276908E+01  0.17828397893E+02  0.18972985719E+02  0.10500000000E+00 0. -1.
         13    1    4    4    0    0  0.10294925196E+00  0.80853929551E+01  0.21915016086E+02  0.23359433487E+02  0.10500000000E+00 0.  1.
    3000001    1    5    5    0    0 -0.27115875353E+01 -0.44469135495E+01 -0.12650863815E+02  0.13717583692E+02  0.10000000000E+01 0. -1.
        -13    1    6    6    0    0  0.56024284310E+01 -0.13646931642E+02 -0.29724551156E+02  0.33184121414E+02  0.10500000000E+00 0. -1.
         13    1    6    6    0    0  0.26449807883E+01 -0.63468975894E+01 -0.14000597832E+02  0.15598294683E+02  0.10500000000E+00 0.  1.
</event>
<event>
11    0  0.3483054E-009  0.9118800E+02  0.7816531E-02  0.1126479E+00
         25   -1    0    0    0    0  0.00000000000E+00  0.00000000000E+00  0.99999998245E-14  0.12500000000E+03  0.12500000000E+03 0.  0.
    3000001    1    3    3    0    0  0.37807246853E+01  0.45015246990E+02 -0.34178467705E+02  0.56655396877E+02  0.10000000000E+01 0.  1.
    1000022    2    1    0    0    0  0.22290847445E+01  0.47609249826E+02 -0.39174503847E+02  0.62499990478E+02  0.99998785107E+01 0.  0.
    3000022    2    3    3    0    0 -0.15516399409E+01  0.25940028365E+01 -0.49960361427E+01  0.58445936005E+01  0.24991997510E+00 0.  0.
    1000022    2    1    0    0    0 -0.22290847445E+01 -0.47609249826E+02  0.39174503847E+02  0.62500009522E+02  0.99999975390E+01 0.  0.
    3000022    2    5    5    0    0 -0.57188552276E+00 -0.19508096916E+01  0.50987757716E+01  0.54947930181E+01  0.25004887337E+00 0.  0.
        -13    1    4    4    0    0 -0.69531864635E+00  0.11805795281E+01 -0.21388055673E+01  0.25421939928E+01  0.10500000000E+00 0.  1.
         13    1    4    4    0    0 -0.85632129451E+00  0.14134233084E+01 -0.28572305754E+01  0.33023996077E+01  0.10500000000E+00 0. -1.
    3000001    1    5    5    0    0 -0.16571992217E+01 -0.45658440135E+02  0.34075728076E+02  0.57005216504E+02  0.10000000000E+01 0.  1.
        -13    1    6    6    0    0 -0.14945457289E+00 -0.48286515660E+00  0.12180036192E+01  0.13228957802E+01  0.10500000000E+00 0. -1.
         13    1    6    6    0    0 -0.42243094987E+00 -0.14679445350E+01  0.38807721524E+01  0.41718972379E+01  0.10500000000E+00 0.  1.
</event>
<event>
11    0  0.3483054E-009  0.9118800E+02  0.7816531E-02  0.1126479E+00
         25   -1    0    0    0    0  0.00000000000E+00  0.00000000000E+00  0.99999998245E-14  0.12500000000E+03  0.12500000000E+03 0.  0.
    3000001    1    3    3    0    0 -0.18619100188E+00 -0.48030341824E+00  0.18890705543E+00  0.11406333058E+01  0.10000000000E+01 0.  1.
    1000022    2    1    0    0    0 -0.41130306905E+02 -0.97286373344E+01  0.44943313995E+02  0.62499998898E+02  0.99999929442E+01 0.  0.
    3000022    2    3    3    0    0 -0.40944115903E+02 -0.92483339161E+01  0.44754406940E+02  0.61359365592E+02  0.24999603991E+00 0.  0.
    1000022    2    1    0    0    0  0.41130306905E+02  0.97286373344E+01 -0.44943313995E+02  0.62500001102E+02  0.10000006719E+02 0.  0.
    3000022    2    5    5    0    0  0.24359165936E+02  0.94197568983E+01 -0.22570106002E+02  0.34519168155E+02  0.25000000849E+00 0.  0.
        -13    1    4    4    0    0 -0.21764045312E+02 -0.48940337637E+01  0.23877570306E+02  0.32676820891E+02  0.10500000000E+00 0.  1.
         13    1    4    4    0    0 -0.19180070591E+02 -0.43543001524E+01  0.20876836634E+02  0.28682544701E+02  0.10500000000E+00 0. -1.
    3000001    1    5    5    0    0  0.16771140969E+02  0.30888043610E+00 -0.22373207993E+02  0.27980832947E+02  0.10000000000E+01 0.  1.
        -13    1    6    6    0    0  0.12645872889E+02  0.49039767010E+01 -0.11633570479E+02  0.17869473291E+02  0.10500000000E+00 0. -1.
         13    1    6    6    0    0  0.11713293048E+02  0.45157801973E+01 -0.10936535523E+02  0.16649694864E+02  0.10500000000E+00 0.  1.
</event>
<event>
11    0  0.3483054E-009  0.9118800E+02  0.7816531E-02  0.1126479E+00
         25   -1    0    0    0    0  0.00000000000E+00  0.00000000000E+00  0.99999998245E-14  0.12500000000E+03  0.12500000000E+03 0.  0.
    3000001    1    3    3    0    0  0.90565260026E+01 -0.12204134319E+02  0.40712574829E+02  0.43468095276E+02  0.10000000000E+01 0.  1.
    1000022    2    1    0    0    0  0.86706871994E+01 -0.22183093253E+02  0.56912033306E+02  0.62500001367E+02  0.10000009653E+02 0.  0.
    3000022    2    3    3    0    0 -0.38583880320E+00 -0.99789589341E+01  0.16199458477E+02  0.19031906091E+02  0.25000303147E+00 0.  0.
    1000022    2    1    0    0    0 -0.86706871994E+01  0.22183093253E+02 -0.56912033306E+02  0.62499998633E+02  0.99999925668E+01 0.  0.
    3000022    2    5    5    0    0 -0.96823340650E+01  0.16653244703E+02 -0.49687193260E+02  0.53291254524E+02  0.24996533690E+00 0.  0.
        -13    1    4    4    0    0 -0.16906424615E+00 -0.43669780430E+01  0.72155910785E+01  0.84365193984E+01  0.10500000000E+00 0.  1.
         13    1    4    4    0    0 -0.21677455704E+00 -0.56119808911E+01  0.89838673982E+01  0.10595386692E+02  0.10500000000E+00 0. -1.
    3000001    1    5    5    0    0  0.10116468656E+01  0.55298485499E+01 -0.72248400463E+01  0.92087441087E+01  0.10000000000E+01 0.  1.
        -13    1    6    6    0    0 -0.55249028056E+01  0.93724198761E+01 -0.28041769906E+02  0.30078542016E+02  0.10500000000E+00 0.  1.
         13    1    6    6    0    0 -0.41574312594E+01  0.72808248272E+01 -0.21645423354E+02  0.23212712508E+02  0.10500000000E+00 0. -1.
</event>
<event>
11    0  0.3483054E-009  0.9118800E+02  0.7816531E-02  0.1126479E+00
         25   -1    0    0    0    0  0.00000000000E+00  0.00000000000E+00  0.99999998245E-14  0.12500000000E+03  0.12500000000E+03 0.  0.
    3000001    1    3    3    0    0  0.44307620646E+02 -0.28700380694E+02  0.29222639850E+02  0.60347657611E+02  0.10000000000E+01 0.  1.
    1000022    2    1    0    0    0  0.46094790126E+02 -0.29558163116E+02  0.28422445970E+02  0.62499999448E+02  0.99999906249E+01 0.  0.
    3000022    2    3    3    0    0  0.17871694796E+01 -0.85778242186E+00 -0.80019388008E+00  0.21523418367E+01  0.24999940832E+00 0.  0.
    1000022    2    1    0    0    0 -0.46094790126E+02  0.29558163116E+02 -0.28422445970E+02  0.62500000552E+02  0.99999975285E+01 0.  0.
    3000022    2    5    5    0    0 -0.42959177264E+02  0.29638317036E+02 -0.27853168355E+02  0.59158957351E+02  0.24999900845E+00 0.  0.
        -13    1    4    4    0    0  0.10626087843E+01 -0.53351442477E+00 -0.41454331671E+00  0.12635846751E+01  0.10500000000E+00 0.  1.
         13    1    4    4    0    0  0.72456069538E+00 -0.32426799709E+00 -0.38565056337E+00  0.88875716158E+00  0.10500000000E+00 0. -1.
    3000001    1    5    5    0    0 -0.31356128620E+01 -0.80153920152E-01 -0.56927761539E+00  0.33410432016E+01  0.10000000000E+01 0.  1.
        -13    1    6    6    0    0 -0.17260072019E+02  0.11919918382E+02 -0.11265279073E+02  0.23809915538E+02  0.10500000000E+00 0. -1.
         13    1    6    6    0    0 -0.25699105245E+02  0.17718398654E+02 -0.16587889282E+02  0.35349041813E+02  0.10500000000E+00 0.  1.
</event>
<event>
11    0  0.3483054E-009  0.9118800E+02  0.7816531E-02  0.1126479E+00
         25   -1    0    0    0    0  0.00000000000E+00  0.00000000000E+00  0.99999998245E-14  0.12500000000E+03  0.12500000000E+03 0.  0.
    3000001    1    3    3    0    0 -0.33298386019E+02  0.45024629480E+02 -0.46022376545E+01  0.56197690012E+02  0.10000000000E+01 0.  1.
    1000022    2    1    0    0    0 -0.36556000223E+02  0.49012429290E+02 -0.82274306583E+01  0.62500001143E+02  0.10000007520E+02 0.  0.
    3000022    2    3    3    0    0 -0.32576142037E+01  0.39877998107E+01 -0.36251930038E+01  0.63023111310E+01  0.25000729263E+00 0.  0.
    1000022    2    1    0    0    0  0.36556000223E+02 -0.49012429290E+02  0.82274306583E+01  0.62499998857E+02  0.99999932345E+01 0.  0.
    3000022    2    5    5    0    0  0.24454942545E+01 -0.31858130625E+01  0.32023922297E+01  0.51427291914E+01  0.25000105189E+00 0.  0.
        -13    1    4    4    0    0 -0.17045135128E+01  0.19912042783E+01 -0.18069803299E+01  0.31853514258E+01  0.10500000000E+00 0. -1.
         13    1    4    4    0    0 -0.15531006909E+01  0.19965955324E+01 -0.18182126739E+01  0.31169597051E+01  0.10500000000E+00 0.  1.
    3000001    1    5    5    0    0  0.34110505968E+02 -0.45826616228E+02  0.50250384286E+01  0.57357269666E+02  0.10000000000E+01 0.  1.
        -13    1    6    6    0    0  0.15077518911E+01 -0.18603352407E+01  0.19141689756E+01  0.30674469580E+01  0.10500000000E+00 0.  1.
         13    1    6    6    0    0  0.93774236333E+00 -0.13254778218E+01  0.12882232540E+01  0.20752822334E+01  0.10500000000E+00 0. -1.
</event>
<event>
11    0  0.3483054E-009  0.9118800E+02  0.7816531E-02  0.1126479E+00
         25   -1    0    0    0    0  0.00000000000E+00  0.00000000000E+00  0.99999998245E-14  0.12500000000E+03  0.12500000000E+03 0.  0.
    3000001    1    3    3    0    0 -0.24223094591E+02  0.75553056320E+01  0.34174747023E+00  0.25396018312E+02  0.10000000000E+01 0.  1.
    1000022    2    1    0    0    0 -0.59211944035E+02  0.13049199124E+02  0.11397989607E+02  0.62499999749E+02  0.99999943638E+01 0.  0.
    3000022    2    3    3    0    0 -0.34988849444E+02  0.54938934916E+01  0.11056242137E+02  0.37103981436E+02  0.24999427159E+00 0.  0.
    1000022    2    1    0    0    0  0.59211944035E+02 -0.13049199124E+02 -0.11397989607E+02  0.62500000251E+02  0.99999975062E+01 0.  0.
    3000022    2    5    5    0    0  0.46630295179E+01  0.93635403710E+00 -0.28017460771E+01  0.55256623871E+01  0.25012110734E+00 0.  0.
        -13    1    4    4    0    0 -0.24632215642E+02  0.39014328039E+01  0.78162993007E+01  0.26135661176E+02  0.10500000000E+00 0. -1.
         13    1    4    4    0    0 -0.10356633802E+02  0.15924606876E+01  0.32399428366E+01  0.10968320261E+02  0.10500000000E+00 0.  1.
    3000001    1    5    5    0    0  0.54548914517E+02 -0.13985553161E+02 -0.85962435304E+01  0.56974337864E+02  0.10000000000E+01 0. -1.
        -13    1    6    6    0    0  0.19674003756E+01  0.35265961446E+00 -0.12356817762E+01  0.23522260720E+01  0.10500000000E+00 0. -1.
         13    1    6    6    0    0  0.26956291423E+01  0.58369442264E+00 -0.15660643009E+01  0.31734363151E+01  0.10500000000E+00 0.  1.
</event>
<event>
11    0  0.3483054E-009  0.9118800E+02  0.7816531E-02  0.1126479E+00
         25   -1    0    0    0    0  0.00000000000E+00  0.00000000000E+00  0.99999998245E-14  0.12500000000E+03  0.12500000000E+03 0.  0.
    3000001    1    3    3    0    0 -0.42611723195E+02  0.59567346452E+01  0.11723825062E+02  0.44605938118E+02  0.10000000000E+01 0. -1.
    1000022    2    1    0    0    0 -0.59766627009E+02  0.10937146157E+02  0.10704167794E+02  0.62499999262E+02  0.99999914746E+01 0.  0.
    3000022    2    3    3    0    0 -0.17154903813E+02  0.49804115115E+01 -0.10196572674E+01  0.17894061144E+02  0.24999920257E+00 0.  0.
    1000022    2    1    0    0    0  0.59766627009E+02 -0.10937146157E+02 -0.10704167794E+02  0.62500000738E+02  0.10000000703E+02 0.  0.
    3000022    2    5    5    0    0  0.48254866621E+02 -0.10694259514E+02 -0.12022192578E+02  0.50867425337E+02  0.25001369961E+00 0.  0.
        -13    1    4    4    0    0 -0.76511330101E+01  0.21790740617E+01 -0.40138692032E+00  0.79661996313E+01  0.10500000000E+00 0. -1.
         13    1    4    4    0    0 -0.95037708031E+01  0.28013374498E+01 -0.61827034705E+00  0.99278615123E+01  0.10500000000E+00 0.  1.
    3000001    1    5    5    0    0  0.11511760387E+02 -0.24288664280E+00  0.13180247832E+01  0.11632575401E+02  0.10000000000E+01 0.  1.
        -13    1    6    6    0    0  0.12095011680E+02 -0.26551221001E+01 -0.30018978034E+01  0.12742111141E+02  0.10500000000E+00 0. -1.
         13    1    6    6    0    0  0.36159854941E+02 -0.80391374138E+01 -0.90202947742E+01  0.38125314196E+02  0.10500000000E+00 0.  1.
</event>
<event>
11    0  0.3483054E-009  0.9118800E+02  0.7816531E-02  0.1126479E+00
         25   -1    0    0    0    0  0.00000000000E+00  0.00000000000E+00  0.99999998245E-14  0.12500000000E+03  0.12500000000E+03 0.  0.
    3000001    1    3    3    0    0  0.32448743943E+01  0.52810477209E+01  0.88860926613E-01  0.62790581403E+01  0.10000000000E+01 0. -1.
    1000022    2    1    0    0    0  0.36068785422E+02  0.43023032298E+02 -0.25579510368E+02  0.62500000096E+02  0.10000003569E+02 0.  0.
    3000022    2    3    3    0    0  0.32823911028E+02  0.37741984577E+02 -0.25668371295E+02  0.56220941956E+02  0.24998893262E+00 0.  0.
    1000022    2    1    0    0    0 -0.36068785422E+02 -0.43023032298E+02  0.25579510368E+02  0.62499999904E+02  0.10000002367E+02 0.  0.
    3000022    2    5    5    0    0 -0.49528620849E+01 -0.11891954753E+02  0.41605950546E+01  0.13539662819E+02  0.24997472440E+00 0.  0.
        -13    1    4    4    0    0  0.13410542008E+02  0.15327821787E+02 -0.10474283766E+02  0.22902104774E+02  0.10500000000E+00 0.  1.
         13    1    4    4    0    0  0.19413369020E+02  0.22414162790E+02 -0.15194087529E+02  0.33318837182E+02  0.10500000000E+00 0. -1.
    3000001    1    5    5    0    0 -0.31115923337E+02 -0.31131077545E+02  0.21418915314E+02  0.48960337085E+02  0.10000000000E+01 0.  1.
        -13    1    6    6    0    0 -0.19926631174E+01 -0.46268392228E+01  0.16413383582E+01  0.52993739346E+01  0.10500000000E+00 0.  1.
         13    1    6    6    0    0 -0.29601989675E+01 -0.72651155299E+01  0.25192566964E+01  0.82402888840E+01  0.10500000000E+00 0. -1.
</event>
<event>
11    0  0.3483054E-009  0.9118800E+02  0.7816531E-02  0.1126479E+00
         25   -1    0    0    0    0  0.00000000000E+00  0.00000000000E+00  0.99999998245E-14  0.12500000000E+03  0.12500000000E+03 0.  0.
    3000001    1    3    3    0    0 -0.12799792225E+01  0.11844230823E+02 -0.95780809118E+01  0.15318739653E+02  0.10000000000E+01 0. -1.
    1000022    2    1    0    0    0  0.10567710584E+02  0.51106232236E+02 -0.32904803376E+02  0.62499996889E+02  0.10000002277E+02 0.  0.
    3000022    2    3    3    0    0  0.11847689807E+02  0.39262001413E+02 -0.23326722464E+02  0.47181257236E+02  0.25008944919E+00 0.  0.
    1000022    2    1    0    0    0 -0.10567710584E+02 -0.51106232236E+02  0.32904803376E+02  0.62500003111E+02  0.10000041168E+02 0.  0.
    3000022    2    5    5    0    0 -0.53419158920E+01 -0.12834744953E+02  0.12999701369E+02  0.19034743939E+02  0.24999545966E+00 0.  0.
        -13    1    4    4    0    0  0.80712690964E+01  0.26625911318E+02 -0.15782225125E+02  0.31987094167E+02  0.10500000000E+00 0.  1.
         13    1    4    4    0    0  0.37764207101E+01  0.12636090095E+02 -0.75444973395E+01  0.15194163069E+02  0.10500000000E+00 0. -1.
    3000001    1    5    5    0    0 -0.52257946919E+01 -0.38271487283E+02  0.19905102007E+02  0.43465259173E+02  0.10000000000E+01 0. -1.
        -13    1    6    6    0    0 -0.14412649508E+01 -0.34865619103E+01  0.34803702402E+01  0.51339420158E+01  0.10500000000E+00 0. -1.
         13    1    6    6    0    0 -0.39006509412E+01 -0.93481830424E+01  0.95193311287E+01  0.13900801923E+02  0.10500000000E+00 0.  1.
</event>
<event>
11    0  0.3483054E-009  0.9118800E+02  0.7816531E-02  0.1126479E+00
         25   -1    0    0    0    0  0.00000000000E+00  0.00000000000E+00  0.99999998245E-14  0.12500000000E+03  0.12500000000E+03 0.  0.
    3000001    1    3    3    0    0  0.54109940414E+01 -0.15927739760E+02  0.36219431108E+02  0.39947702564E+02  0.10000000000E+01 0.  1.
    1000022    2    1    0    0    0  0.13843603367E+01 -0.22713351617E+02  0.57344896336E+02  0.62499999337E+02  0.99999993081E+01 0.  0.
    3000022    2    3    3    0    0 -0.40266337047E+01 -0.67856118572E+01  0.21125465228E+02  0.22552296774E+02  0.25000274974E+00 0.  0.
    1000022    2    1    0    0    0 -0.13843603367E+01  0.22713351617E+02 -0.57344896336E+02  0.62500000663E+02  0.10000007590E+02 0.  0.
    3000022    2    5    5    0    0  0.27009978586E+01  0.64797711522E+01 -0.95992128770E+01  0.11894965584E+02  0.24998955124E+00 0.  0.
        -13    1    4    4    0    0 -0.26314135441E+01 -0.44380698942E+01  0.13651180226E+02  0.14594058661E+02  0.10500000000E+00 0. -1.
         13    1    4    4    0    0 -0.13952201606E+01 -0.23475419629E+01  0.74742850025E+01  0.79582381130E+01  0.10500000000E+00 0.  1.
    3000001    1    5    5    0    0 -0.40853581953E+01  0.16233580465E+02 -0.47745683459E+02  0.50605035078E+02  0.10000000000E+01 0.  1.
        -13    1    6    6    0    0  0.13054876998E+01  0.32365661922E+01 -0.46793879553E+01  0.58384377608E+01  0.10500000000E+00 0. -1.
         13    1    6    6    0    0  0.13955101588E+01  0.32432049601E+01 -0.49198249216E+01  0.60565278234E+01  0.10500000000E+00 0.  1.
</event>
<event>
11    0  0.3483054E-009  0.9118800E+02  0.7816531E-02  0.1126479E+00
         25   -1    0    0    0    0  0.00000000000E+00  0.00000000000E+00  0.99999998245E-14  0.12500000000E+03  0.12500000000E+03 0.  0.
    3000001    1    3    3    0    0 -0.69177763361E+01  0.16167936601E+01 -0.91008694479E+01  0.11588592489E+02  0.10000000000E+01 0. -1.
    1000022    2    1    0    0    0 -0.20070357558E+02  0.17339426402E+02 -0.55702558582E+02  0.62500000851E+02  0.10000005665E+02 0.  0.
    3000022    2    3    3    0    0 -0.13152581222E+02  0.15722632742E+02 -0.46601689134E+02  0.50911408362E+02  0.24999611848E+00 0.  0.
    1000022    2    1    0    0    0  0.20070357558E+02 -0.17339426402E+02  0.55702558582E+02  0.62499999149E+02  0.99999950295E+01 0.  0.
    3000022    2    5    5    0    0  0.33408410526E+01  0.98015547080E+00  0.60246504842E+01  0.69628192110E+01  0.25002844248E+00 0.  0.
        -13    1    4    4    0    0 -0.57079451515E+01  0.68529042802E+01 -0.20119659403E+02  0.22008058851E+02  0.10500000000E+00 0. -1.
         13    1    4    4    0    0 -0.74446360705E+01  0.88697284617E+01 -0.26482029731E+02  0.28903349510E+02  0.10500000000E+00 0.  1.
    3000001    1    5    5    0    0  0.16729516506E+02 -0.18319581873E+02  0.49677908098E+02  0.55537179938E+02  0.10000000000E+01 0.  1.
        -13    1    6    6    0    0  0.95296463355E+00  0.28924601611E+00  0.16483128145E+01  0.19286692265E+01  0.10500000000E+00 0. -1.
         13    1    6    6    0    0  0.23878764190E+01  0.69090945469E+00  0.43763376697E+01  0.50341499845E+01  0.10500000000E+00 0.  1.
</event>
<event>
11    0  0.3483054E-009  0.9118800E+02  0.7816531E-02  0.1126479E+00
         25   -1    0    0    0    0  0.00000000000E+00  0.00000000000E+00  0.99999998245E-14  0.12500000000E+03  0.12500000000E+03 0.  0.
    3000001    1    3    3    0    0 -0.51828489525E+01 -0.47523972984E+01 -0.18134110370E+02  0.19475450245E+02  0.10000000000E+01 0. -1.
    1000022    2    1    0    0    0 -0.17783648205E+02 -0.28355905808E+02 -0.51826001071E+02  0.62499998634E+02  0.99999952289E+01 0.  0.
    3000022    2    3    3    0    0 -0.12600799252E+02 -0.23603508509E+02 -0.33691890702E+02  0.43024548389E+02  0.25001859381E+00 0.  0.
    1000022    2    1    0    0    0  0.17783648205E+02  0.28355905808E+02  0.51826001071E+02  0.62500001366E+02  0.10000012301E+02 0.  0.
    3000022    2    5    5    0    0  0.12790921400E+02  0.24716617321E+02  0.46896292476E+02  0.54532958723E+02  0.24999409775E+00 0.  0.
        -13    1    4    4    0    0 -0.87407625241E+01 -0.16382874281E+02 -0.23457284872E+02  0.29917465430E+02  0.10500000000E+00 0. -1.
         13    1    4    4    0    0 -0.38600367282E+01 -0.72206342283E+01 -0.10234605830E+02  0.13107082959E+02  0.10500000000E+00 0.  1.
    3000001    1    5    5    0    0  0.49927268045E+01  0.36392884870E+01  0.49297085956E+01  0.79670426429E+01  0.10000000000E+01 0.  1.
        -13    1    6    6    0    0  0.39554849275E+01  0.77257337913E+01  0.14686779602E+02  0.17060051105E+02  0.10500000000E+00 0.  1.
         13    1    6    6    0    0  0.88354364728E+01  0.16990883529E+02  0.32209512874E+02  0.37472907618E+02  0.10500000000E+00 0. -1.
</event>
<event>
11    0  0.3483054E-009  0.9118800E+02  0.7816531E-02  0.1126479E+00
         25   -1    0    0    0    0  0.00000000000E+00  0.00000000000E+00  0.99999998245E-14  0.12500000000E+03  0.12500000000E+03 0.  0.
    3000001    1    3    3    0    0  0.36342295440E+02 -0.36069741314E+02 -0.13877571656E+02  0.53060113752E+02  0.10000000000E+01 0.  1.
    1000022    2    1    0    0    0  0.41344207286E+02 -0.41174080429E+02 -0.20040002072E+02  0.62499999721E+02  0.99999953426E+01 0.  0.
    3000022    2    3    3    0    0  0.50019118464E+01 -0.51043391146E+01 -0.61624304152E+01  0.94398859692E+01  0.24999714608E+00 0.  0.
    1000022    2    1    0    0    0 -0.41344207286E+02  0.41174080429E+02  0.20040002072E+02  0.62500000279E+02  0.99999988253E+01 0.  0.
    3000022    2    5    5    0    0 -0.39294448614E+02  0.35360234719E+02  0.18972688051E+02  0.56164270505E+02  0.24999632970E+00 0.  0.
        -13    1    4    4    0    0  0.34124001154E+01 -0.34089055936E+01 -0.41479889851E+01  0.63625426926E+01  0.10500000000E+00 0.  1.
         13    1    4    4    0    0  0.15895117309E+01 -0.16954335210E+01 -0.20144414301E+01  0.30773432766E+01  0.10500000000E+00 0. -1.
    3000001    1    5    5    0    0 -0.20497586722E+01  0.58138457097E+01  0.10673140208E+01  0.63357297740E+01  0.10000000000E+01 0.  1.
        -13    1    6    6    0    0 -0.27546419109E+02  0.24767771721E+02  0.13340928074E+02  0.39373075936E+02  0.10500000000E+00 0. -1.
         13    1    6    6    0    0 -0.11748029505E+02  0.10592462999E+02  0.56317599769E+01  0.16791194569E+02  0.10500000000E+00 0.  1.
</event>
<event>
11    0  0.3483054E-009  0.9118800E+02  0.7816531E-02  0.1126479E+00
         25   -1    0    0    0    0  0.00000000000E+00  0.00000000000E+00  0.99999998245E-14  0.12500000000E+03  0.12500000000E+03 0.  0.
    3000001    1    3    3    0    0  0.38334965374E+02 -0.78146622970E+01 -0.19828876396E+02  0.43872803149E+02  0.10000000000E+01 0.  1.
    1000022    2    1    0    0    0  0.50856624895E+02 -0.10157793826E+02 -0.33416655402E+02  0.62500000090E+02  0.10000004089E+02 0.  0.
    3000022    2    3    3    0    0  0.12521659521E+02 -0.23431315287E+01 -0.13587779006E+02  0.18627196941E+02  0.25001000658E+00 0.  0.
    1000022    2    1    0    0    0 -0.50856624895E+02  0.10157793826E+02  0.33416655402E+02  0.62499999910E+02  0.10000002968E+02 0.  0.
    3000022    2    5    5    0    0 -0.23082120912E+02  0.28045744710E+01  0.20433685389E+02  0.30955580169E+02  0.25000262648E+00 0.  0.
        -13    1    4    4    0    0  0.67496766129E+01 -0.13252910171E+01 -0.73766038335E+01  0.10086616865E+02  0.10500000000E+00 0. -1.
         13    1    4    4    0    0  0.57719829086E+01 -0.10178405116E+01 -0.62111751729E+01  0.85405800759E+01  0.10500000000E+00 0.  1.
    3000001    1    5    5    0    0 -0.27774503984E+02  0.73532193547E+01  0.12982970014E+02  0.31544419741E+02  0.10000000000E+01 0. -1.
        -13    1    6    6    0    0 -0.59505748569E+01  0.73111703485E+00  0.53085272653E+01  0.80084555298E+01  0.10500000000E+00 0.  1.
         13    1    6    6    0    0 -0.17131546055E+02  0.20734574362E+01  0.15125158123E+02  0.22947124640E+02  0.10500000000E+00 0. -1.
</event>
<event>
11    0  0.3483054E-009  0.9118800E+02  0.7816531E-02  0.1126479E+00
         25   -1    0    0    0    0  0.00000000000E+00  0.00000000000E+00  0.99999998245E-14  0.12500000000E+03  0.12500000000E+03 0.  0.
    3000001    1    3    3    0    0 -0.21094650400E+02 -0.91417696448E+01  0.15930769324E+02  0.27988312542E+02  0.10000000000E+01 0.  1.
    1000022    2    1    0    0    0 -0.52492659622E+02 -0.19242268982E+02  0.26086503680E+02  0.62499999114E+02  0.99999992626E+01 0.  0.
    3000022    2    3    3    0    0 -0.31398009223E+02 -0.10100499337E+02  0.10155734356E+02  0.34511686572E+02  0.24999945073E+00 0.  0.
    1000022    2    1    0    0    0  0.52492659622E+02  0.19242268982E+02 -0.26086503680E+02  0.62500000886E+02  0.10000010332E+02 0.  0.
    3000022    2    5    5    0    0  0.25059972584E+02  0.58147519500E+01 -0.77813729113E+01  0.26877980389E+02  0.24999852628E+00 0.  0.
        -13    1    4    4    0    0 -0.22322225187E+02 -0.71692297936E+01  0.71758111335E+01  0.24519031049E+02  0.10500000000E+00 0.  1.
         13    1    4    4    0    0 -0.90757840356E+01 -0.29312695433E+01  0.29799232229E+01  0.99926555234E+01  0.10500000000E+00 0. -1.
    3000001    1    5    5    0    0  0.27432687039E+02  0.13427517032E+02 -0.18305130769E+02  0.35622020497E+02  0.10000000000E+01 0. -1.
        -13    1    6    6    0    0  0.12080787467E+02  0.28614143089E+01 -0.37166850824E+01  0.12959856893E+02  0.10500000000E+00 0.  1.
         13    1    6    6    0    0  0.12979185116E+02  0.29533376411E+01 -0.40646878289E+01  0.13918123496E+02  0.10500000000E+00 0. -1.
</event>
<event>
11    0  0.3483054E-009  0.9118800E+02  0.7816531E-02  0.1126479E+00
         25   -1    0    0    0    0  0.00000000000E+00  0.00000000000E+00  0.99999998245E-14  0.12500000000E+03  0.12500000000E+03 0.  0.
    3000001    1    3    3    0    0 -0.11491922004E+01 -0.62671890395E+01  0.30754555146E+00  0.64570028214E+01  0.10000000000E+01 0.  1.
    1000022    2    1    0    0    0 -0.25234741221E+02 -0.50490865872E+02  0.24902415136E+02  0.62499998813E+02  0.99999935490E+01 0.  0.
    3000022    2    3    3    0    0 -0.24085549021E+02 -0.44223676833E+02  0.24594869585E+02  0.56042995992E+02  0.25005115424E+00 0.  0.
    1000022    2    1    0    0    0  0.25234741221E+02  0.50490865872E+02 -0.24902415136E+02  0.62500001187E+02  0.10000008387E+02 0.  0.
    3000022    2    5    5    0    0  0.43438410368E+01  0.16424763207E+02 -0.42903011527E+01  0.17524582299E+02  0.24999880531E+00 0.  0.
        -13    1    4    4    0    0 -0.15064768792E+02 -0.27646722513E+02  0.15310719330E+02  0.35010251012E+02  0.10500000000E+00 0. -1.
         13    1    4    4    0    0 -0.90207802285E+01 -0.16576954319E+02  0.92841502546E+01  0.21032744980E+02  0.10500000000E+00 0.  1.
    3000001    1    5    5    0    0  0.20890900184E+02  0.34066102665E+02 -0.20612113983E+02  0.44975418888E+02  0.10000000000E+01 0.  1.
        -13    1    6    6    0    0  0.14259261628E+01  0.52002986308E+01 -0.13731983874E+01  0.55653454594E+01  0.10500000000E+00 0.  1.
         13    1    6    6    0    0  0.29179148739E+01  0.11224464576E+02 -0.29171027652E+01  0.11959236839E+02  0.10500000000E+00 0. -1.
</event>
<event>
11    0  0.3483054E-009  0.9118800E+02  0.7816531E-02  0.1126479E+00
         25   -1    0    0    0    0  0.00000000000E+00  0.00000000000E+00  0.99999998245E-14  0.12500000000E+03  0.12500000000E+03 0.  0.
    3000001    1    3    3    0    0  0.69861491188E+01  0.33008532468E-01 -0.18005020473E+01  0.72834865755E+01  0.10000000000E+01 0. -1.
    1000022    2    1    0    0    0  0.60001661487E+02 -0.12054139899E+02  0.77941320896E+01  0.62499998717E+02  0.99999837342E+01 0.  0.
    3000022    2    3    3    0    0  0.53015512368E+02 -0.12087148432E+02  0.95946341369E+01  0.55216512141E+02  0.24999995018E+00 0.  0.
    1000022    2    1    0    0    0 -0.60001661487E+02  0.12054139899E+02 -0.77941320896E+01  0.62500001283E+02  0.99999997767E+01 0.  0.
    3000022    2    5    5    0    0 -0.13486049941E+02  0.67835649167E+01 -0.45957512425E+00  0.15105098562E+02  0.24999455911E+00 0.  0.
        -13    1    4    4    0    0  0.37957634331E+02 -0.86788612533E+01  0.68367804000E+01  0.39532989109E+02  0.10500000000E+00 0. -1.
         13    1    4    4    0    0  0.15057878036E+02 -0.34082871786E+01  0.27578537369E+01  0.15683523032E+02  0.10500000000E+00 0.  1.
    3000001    1    5    5    0    0 -0.46515611545E+02  0.52705749827E+01 -0.73345569653E+01  0.47394902721E+02  0.10000000000E+01 0.  1.
        -13    1    6    6    0    0 -0.39604621225E+01  0.19447493300E+01 -0.14487448701E+00  0.44158038676E+01  0.10500000000E+00 0.  1.
         13    1    6    6    0    0 -0.95255878186E+01  0.48388155867E+01 -0.31470063724E+00  0.10689294694E+02  0.10500000000E+00 0. -1.
</event>
<event>
11    0  0.3483054E-009  0.9118800E+02  0.7816531E-02  0.1126479E+00
         25   -1    0    0    0    0  0.00000000000E+00  0.00000000000E+00  0.99999998245E-14  0.12500000000E+03  0.12500000000E+03 0.  0.
    3000001    1    3    3    0    0 -0.35583377545E+00  0.54972182108E+01 -0.31498790899E+02  0.31992496837E+02  0.10000000000E+01 0.  1.
    1000022    2    1    0    0    0  0.61293857967E+01  0.17079310400E+02 -0.58965905682E+02  0.62500001288E+02  0.99999957030E+01 0.  0.
    3000022    2    3    3    0    0  0.64852195721E+01  0.11582092189E+02 -0.27467114783E+02  0.30507504451E+02  0.25000190307E+00 0.  0.
    1000022    2    1    0    0    0 -0.61293857967E+01 -0.17079310400E+02  0.58965905682E+02  0.62499998712E+02  0.99999796078E+01 0.  0.
    3000022    2    5    5    0    0 -0.44411970056E+01 -0.17688036441E+02  0.48105370527E+02  0.51446865553E+02  0.24987536635E+00 0.  0.
        -13    1    4    4    0    0  0.24935784328E+01  0.43560763834E+01 -0.10300334744E+02  0.11458676001E+02  0.10500000000E+00 0. -1.
         13    1    4    4    0    0  0.39916411394E+01  0.72260158056E+01 -0.17166780039E+02  0.19048828450E+02  0.10500000000E+00 0.  1.
    3000001    1    5    5    0    0 -0.16881887911E+01  0.60872604098E+00  0.10860535155E+02  0.11053133159E+02  0.10000000000E+01 0. -1.
        -13    1    6    6    0    0 -0.31957126652E+01 -0.12856912335E+02  0.34999347107E+02  0.37422962164E+02  0.10500000000E+00 0. -1.
         13    1    6    6    0    0 -0.12454843404E+01 -0.48311241062E+01  0.13106023420E+02  0.14023903389E+02  0.10500000000E+00 0.  1.
</event>
<event>
11    0  0.3483054E-009  0.9118800E+02  0.7816531E-02  0.1126479E+00
         25   -1    0    0    0    0  0.00000000000E+00  0.00000000000E+00  0.99999998245E-14  0.12500000000E+03  0.12500000000E+03 0.  0.
    3000001    1    3    3    0    0  0.25140288866E+01  0.19012205355E+02 -0.20638404902E+02  0.28190921422E+02  0.10000000000E+01 0.  1.
    1000022    2    1    0    0    0  0.38093837417E+01  0.48921815739E+02 -0.37395115907E+02  0.62499996080E+02  0.99999678268E+01 0.  0.
    3000022    2    3    3    0    0  0.12953548551E+01  0.29909610384E+02 -0.16756711005E+02  0.34309074658E+02  0.25000529759E+00 0.  0.
    1000022    2    1    0    0    0 -0.38093837417E+01 -0.48921815739E+02  0.37395115907E+02  0.62500003920E+02  0.10000016832E+02 0.  0.
    3000022    2    5    5    0    0 -0.67859055522E+00 -0.24252620826E+02  0.12481529113E+02  0.27285548783E+02  0.25000269167E+00 0.  0.
        -13    1    4    4    0    0  0.82363524952E+00  0.19559357060E+02 -0.10899181208E+02  0.22406472271E+02  0.10500000000E+00 0. -1.
         13    1    4    4    0    0  0.47171960556E+00  0.10350253324E+02 -0.58575297968E+01  0.11902602387E+02  0.10500000000E+00 0.  1.
    3000001    1    5    5    0    0 -0.31307931865E+01 -0.24669194913E+02  0.24913586794E+02  0.35214455137E+02  0.10000000000E+01 0. -1.
        -13    1    6    6    0    0 -0.49119471052E+00 -0.16661402411E+02  0.86224185727E+01  0.18767011738E+02  0.10500000000E+00 0. -1.
         13    1    6    6    0    0 -0.18739584470E+00 -0.75912184154E+01  0.38591105401E+01  0.85185370453E+01  0.10500000000E+00 0.  1.
</event>
<event>
11    0  0.3483054E-009  0.9118800E+02  0.7816531E-02  0.1126479E+00
         25   -1    0    0    0    0  0.00000000000E+00  0.00000000000E+00  0.99999998245E-14  0.12500000000E+03  0.12500000000E+03 0.  0.
    3000001    1    3    3    0    0 -0.18943917979E+01  0.10512872485E+02  0.74304255121E-01  0.10729153242E+02  0.10000000000E+01 0. -1.
    1000022    2    1    0    0    0 -0.30856683012E+02  0.53420728608E+02  0.58391662877E+00  0.62500000584E+02  0.99999991401E+01 0.  0.
    3000022    2    3    3    0    0 -0.28962291214E+02  0.42907856123E+02  0.50961237365E+00  0.51770847341E+02  0.25000046851E+00 0.  0.
    1000022    2    1    0    0    0  0.30856683012E+02 -0.53420728608E+02 -0.58391662877E+00  0.62499999416E+02  0.99999918425E+01 0.  0.
    3000022    2    5    5    0    0  0.34487784615E+01 -0.13963737329E+02  0.10110933295E+01  0.14420986849E+02  0.25003781287E+00 0.  0.
        -13    1    4    4    0    0 -0.19706608830E+02  0.29142677063E+02  0.30494652801E+00  0.35181672436E+02  0.10500000000E+00 0.  1.
         13    1    4    4    0    0 -0.92556823840E+01  0.13765179060E+02  0.20466584564E+00  0.16589174906E+02  0.10500000000E+00 0. -1.
    3000001    1    5    5    0    0  0.27407904550E+02 -0.39456991279E+02 -0.15950099583E+01  0.48079012567E+02  0.10000000000E+01 0. -1.
        -13    1    6    6    0    0  0.21067017588E+01 -0.83526668969E+01  0.55860596874E+00  0.86329775987E+01  0.10500000000E+00 0.  1.
         13    1    6    6    0    0  0.13420767027E+01 -0.56110704326E+01  0.45248736075E+00  0.57880092508E+01  0.10500000000E+00 0. -1.
</event>
<event>
11    0  0.3483054E-009  0.9118800E+02  0.7816531E-02  0.1126479E+00
         25   -1    0    0    0    0  0.00000000000E+00  0.00000000000E+00  0.99999998245E-14  0.12500000000E+03  0.12500000000E+03 0.  0.
    3000001    1    3    3    0    0 -0.12765841564E+02  0.82884178343E+01 -0.10315726885E+00  0.15253695370E+02  0.10000000000E+01 0. -1.
    1000022    2    1    0    0    0 -0.56098051570E+02  0.22374487851E+02 -0.12595280469E+02  0.62500001388E+02  0.99999993427E+01 0.  0.
    3000022    2    3    3    0    0 -0.43332210006E+02  0.14086070017E+02 -0.12492123200E+02  0.47246306018E+02  0.24999544940E+00 0.  0.
    1000022    2    1    0    0    0  0.56098051570E+02 -0.22374487851E+02  0.12595280469E+02  0.62499998612E+02  0.99999819910E+01 0.  0.
    3000022    2    5    5    0    0  0.36209174956E+02 -0.12510141571E+02  0.12429660368E+02  0.40276133725E+02  0.24999566690E+00 0.  0.
        -13    1    4    4    0    0 -0.31824675388E+02  0.10377932170E+02 -0.91918037033E+01  0.34713278728E+02  0.10500000000E+00 0.  1.
         13    1    4    4    0    0 -0.11507534618E+02  0.37081378469E+01 -0.33003194970E+01  0.12533027290E+02  0.10500000000E+00 0. -1.
    3000001    1    5    5    0    0  0.19888876614E+02 -0.98643462795E+01  0.16562010136E+00  0.22223864887E+02  0.10000000000E+01 0.  1.
        -13    1    6    6    0    0  0.23147934361E+02 -0.79371556900E+01  0.79520358937E+01  0.25730744364E+02  0.10500000000E+00 0.  1.
         13    1    6    6    0    0  0.13061240595E+02 -0.45729858815E+01  0.44776244741E+01  0.14545389362E+02  0.10500000000E+00 0. -1.
</event>
<event>
11    0  0.3483054E-009  0.9118800E+02  0.7816531E-02  0.1126479E+00
         25   -1    0    0    0    0  0.00000000000E+00  0.00000000000E+00  0.99999998245E-14  0.12500000000E+03  0.12500000000E+03 0.  0.
    3000001    1    3    3    0    0  0.17307085999E+02  0.25277295075E+02 -0.13242680986E+01  0.30679481059E+02  0.10000000000E+01 0. -1.
    1000022    2    1    0    0    0  0.31784324064E+02  0.51461607897E+02 -0.12153610269E+02  0.62500006060E+02  0.10000008569E+02 0.  0.
    3000022    2    3    3    0    0  0.14477238065E+02  0.26184312822E+02 -0.10829342170E+02  0.31820525000E+02  0.24999902080E+00 0.  0.
    1000022    2    1    0    0    0 -0.31784324064E+02 -0.51461607897E+02  0.12153610269E+02  0.62499993940E+02  0.99999328204E+01 0.  0.
    3000022    2    5    5    0    0 -0.31029890269E+02 -0.45153635049E+02  0.98379355740E+01  0.55664641638E+02  0.25000824677E+00 0.  0.
        -13    1    4    4    0    0  0.84253774032E+01  0.15104526893E+02 -0.62563223612E+01  0.18392561310E+02  0.10500000000E+00 0.  1.
         13    1    4    4    0    0  0.60518606619E+01  0.11079785929E+02 -0.45730198092E+01  0.13427963690E+02  0.10500000000E+00 0. -1.
    3000001    1    5    5    0    0 -0.75443379562E+00 -0.63079728478E+01  0.23156746950E+01  0.68353523021E+01  0.10000000000E+01 0. -1.
        -13    1    6    6    0    0 -0.15248785764E+02 -0.22072013399E+02  0.48302813366E+01  0.27258794646E+02  0.10500000000E+00 0.  1.
         13    1    6    6    0    0 -0.15781104504E+02 -0.23081621650E+02  0.50076542374E+01  0.28405846992E+02  0.10500000000E+00 0. -1.
</event>
<event>
11    0  0.3483054E-009  0.9118800E+02  0.7816531E-02  0.1126479E+00
         25   -1    0    0    0    0  0.00000000000E+00  0.00000000000E+00  0.99999998245E-14  0.12500000000E+03  0.12500000000E+03 0.  0.
    3000001    1    3    3    0    0  0.31964442892E+01  0.44795917315E+01 -0.56010853866E+01  0.79155641418E+01  0.10000000000E+01 0.  1.
    1000022    2    1    0    0    0  0.28892207490E+02  0.49193492463E+02 -0.23483839149E+02  0.62499999198E+02  0.99999922127E+01 0.  0.
    3000022    2    3    3    0    0  0.25695763201E+02  0.44713900731E+02 -0.17882753763E+02  0.54584435057E+02  0.25000641695E+00 0.  0.
    1000022    2    1    0    0    0 -0.28892207490E+02 -0.49193492463E+02  0.23483839149E+02  0.62500000802E+02  0.10000002232E+02 0.  0.
    3000022    2    5    5    0    0 -0.27669088575E+02 -0.47346040146E+02  0.20258185670E+02  0.58460948894E+02  0.24995781131E+00 0.  0.
        -13    1    4    4    0    0  0.13813379182E+02  0.23957761069E+02 -0.95318885433E+01  0.29251524474E+02  0.10500000000E+00 0.  1.
         13    1    4    4    0    0  0.11882384019E+02  0.20756139662E+02 -0.83508652193E+01  0.25332910582E+02  0.10500000000E+00 0. -1.
    3000001    1    5    5    0    0 -0.12231189153E+01 -0.18474523174E+01  0.32256534788E+01  0.40390519075E+01  0.10000000000E+01 0. -1.
        -13    1    6    6    0    0 -0.20268887946E+02 -0.34750547772E+02  0.14867221972E+02  0.42889086062E+02  0.10500000000E+00 0. -1.
         13    1    6    6    0    0 -0.74002006287E+01 -0.12595492373E+02  0.53909636989E+01  0.15571862832E+02  0.10500000000E+00 0.  1.
</event>
<event>
11    0  0.3483054E-009  0.9118800E+02  0.7816531E-02  0.1126479E+00
         25   -1    0    0    0    0  0.00000000000E+00  0.00000000000E+00  0.99999998245E-14  0.12500000000E+03  0.12500000000E+03 0.  0.
    3000001    1    3    3    0    0 -0.96127574680E+01 -0.13526949475E+02 -0.37751167540E+02  0.41249655985E+02  0.10000000000E+01 0.  1.
    1000022    2    1    0    0    0 -0.77058778455E+01 -0.18898565087E+02 -0.58221248133E+02  0.62500000544E+02  0.10000000906E+02 0.  0.
    3000022    2    3    3    0    0  0.19068796225E+01 -0.53716156118E+01 -0.20470080593E+02  0.21250344559E+02  0.25000044350E+00 0.  0.
    1000022    2    1    0    0    0  0.77058778455E+01  0.18898565087E+02  0.58221248133E+02  0.62499999456E+02  0.99999941012E+01 0.  0.
    3000022    2    5    5    0    0  0.39626849328E+01  0.17264383681E+02  0.52438762491E+02  0.55350231470E+02  0.24999278292E+00 0.  0.
        -13    1    4    4    0    0  0.13679565790E+01 -0.38047373329E+01 -0.14362583606E+02  0.14921198484E+02  0.10500000000E+00 0. -1.
         13    1    4    4    0    0  0.53892304356E+00 -0.15668782789E+01 -0.61074969872E+01  0.63291460748E+01  0.10500000000E+00 0.  1.
    3000001    1    5    5    0    0  0.37431929126E+01  0.16341814063E+01  0.57824856421E+01  0.71497679858E+01  0.10000000000E+01 0. -1.
        -13    1    6    6    0    0  0.24312787394E+01  0.10410234693E+02  0.31795413382E+02  0.33544648453E+02  0.10500000000E+00 0. -1.
         13    1    6    6    0    0  0.15314061935E+01  0.68541489876E+01  0.20643349109E+02  0.21805583017E+02  0.10500000000E+00 0.  1.
</event>
<event>
11    0  0.3483054E-009  0.9118800E+02  0.7816531E-02  0.1126479E+00
         25   -1    0    0    0    0  0.00000000000E+00  0.00000000000E+00  0.99999998245E-14  0.12500000000E+03  0.12500000000E+03 0.  0.
    3000001    1    3    3    0    0 -0.79702889600E+01 -0.57366943808E+02 -0.55837744553E+01  0.58195105336E+02  0.10000000000E+01 0.  1.
    1000022    2    1    0    0    0 -0.75345315191E+01 -0.61129789583E+02 -0.35538188330E+01  0.62499999405E+02  0.99999978788E+01 0.  0.
    3000022    2    3    3    0    0  0.43575744085E+00 -0.37628457754E+01  0.20299556223E+01  0.43048940681E+01  0.25000046565E+00 0.  0.
    1000022    2    1    0    0    0  0.75345315191E+01  0.61129789583E+02  0.35538188330E+01  0.62500000595E+02  0.10000005321E+02 0.  0.
    3000022    2    5    5    0    0  0.11867990737E+01  0.26684079667E+02  0.59914477077E+01  0.27375327310E+02  0.25000002746E+00 0.  0.
        -13    1    4    4    0    0  0.10570686276E+00 -0.87782738210E+00  0.46176041438E+00  0.10029967766E+01  0.10500000000E+00 0. -1.
         13    1    4    4    0    0  0.33005057809E+00 -0.28850183933E+01  0.15681952079E+01  0.33018972915E+01  0.10500000000E+00 0.  1.
    3000001    1    5    5    0    0  0.63477324455E+01  0.34445709917E+02 -0.24376288747E+01  0.35124673285E+02  0.10000000000E+01 0.  1.
        -13    1    6    6    0    0  0.34884158554E+00  0.75008692215E+01  0.16464614087E+01  0.76880810155E+01  0.10500000000E+00 0.  1.
         13    1    6    6    0    0  0.83795748813E+00  0.19183210445E+02  0.43449862990E+01  0.19687246295E+02  0.10500000000E+00 0. -1.
</event>
<event>
11    0  0.3483054E-009  0.9118800E+02  0.7816531E-02  0.1126479E+00
         25   -1    0    0    0    0  0.00000000000E+00  0.00000000000E+00  0.99999998245E-14  0.12500000000E+03  0.12500000000E+03 0.  0.
    3000001    1    3    3    0    0 -0.17445669323E+01  0.18480018384E+02 -0.26001150095E+02  0.31962703258E+02  0.10000000000E+01 0. -1.
    1000022    2    1    0    0    0  0.59056467447E+01  0.33600393071E+02 -0.51404152467E+02  0.62500000657E+02  0.10000005663E+02 0.  0.
    3000022    2    3    3    0    0  0.76502136770E+01  0.15120374687E+02 -0.25403002372E+02  0.30537297400E+02  0.25000595905E+00 0.  0.
    1000022    2    1    0    0    0 -0.59056467447E+01 -0.33600393071E+02  0.51404152467E+02  0.62499999343E+02  0.99999974476E+01 0.  0.
    3000022    2    5    5    0    0  0.16349449677E+01 -0.13486927729E+01  0.53811529640E+01  0.57888965605E+01  0.24999784550E+00 0.  0.
        -13    1    4    4    0    0  0.41434802240E+01  0.82970125441E+01 -0.13819685629E+02  0.16643424570E+02  0.10500000000E+00 0.  1.
         13    1    4    4    0    0  0.35067334530E+01  0.68233621425E+01 -0.11583316744E+02  0.13893872830E+02  0.10500000000E+00 0. -1.
    3000001    1    5    5    0    0 -0.75405917123E+01 -0.32251700298E+02  0.46022999503E+02  0.56711102782E+02  0.10000000000E+01 0. -1.
        -13    1    6    6    0    0  0.11964432539E+01 -0.10265222429E+01  0.39917831854E+01  0.42930854142E+01  0.10500000000E+00 0.  1.
         13    1    6    6    0    0  0.43850171381E+00 -0.32217053002E+00  0.13893697787E+01  0.14958111463E+01  0.10500000000E+00 0. -1.
</event>
<event>
11    0  0.3483054E-009  0.9118800E+02  0.7816531E-02  0.1126479E+00
         25   -1    0    0    0    0  0.00000000000E+00  0.00000000000E+00  0.99999998245E-14  0.12500000000E+03  0.12500000000E+03 0.  0.
    3000001    1    3    3    0    0  0.13840762289E+02  0.22124790875E+02  0.43805556013E+02  0.50999998133E+02  0.10000000000E+01 0. -1.
    1000022    2    1    0    0    0  0.17451169085E+02  0.22542533474E+02  0.54713259696E+02  0.62500000091E+02  0.10000005349E+02 0.  0.
    3000022    2    3    3    0    0  0.36104067954E+01  0.41774259904E+00  0.10907703683E+02  0.11500001958E+02  0.24999856632E+00 0.  0.
    1000022    2    1    0    0    0 -0.17451169085E+02 -0.22542533474E+02 -0.54713259696E+02  0.62499999909E+02  0.10000004214E+02 0.  0.
    3000022    2    5    5    0    0 -0.15116746510E+02 -0.22936242527E+02 -0.47901782662E+02  0.55219838170E+02  0.24999787540E+00 0.  0.
        -13    1    4    4    0    0  0.12083906129E+01  0.19059997497E+00  0.37388820706E+01  0.39353272242E+01  0.10500000000E+00 0. -1.
         13    1    4    4    0    0  0.24020161826E+01  0.22714262406E+00  0.71688216123E+01  0.75646747334E+01  0.10500000000E+00 0.  1.
    3000001    1    5    5    0    0 -0.23344225746E+01  0.39370905352E+00 -0.68114770336E+01  0.72801617396E+01  0.10000000000E+01 0. -1.
        -13    1    6    6    0    0 -0.48714647686E+01 -0.74682196418E+01 -0.15489393418E+02  0.17872823142E+02  0.10500000000E+00 0.  1.
         13    1    6    6    0    0 -0.10245281742E+02 -0.15468022886E+02 -0.32412389244E+02  0.37347015028E+02  0.10500000000E+00 0. -1.
</event>
<event>
11    0  0.3483054E-009  0.9118800E+02  0.7816531E-02  0.1126479E+00
         25   -1    0    0    0    0  0.00000000000E+00  0.00000000000E+00  0.99999998245E-14  0.12500000000E+03  0.12500000000E+03 0.  0.
    3000001    1    3    3    0    0 -0.13935414116E+01  0.61437579402E+01 -0.54774113168E+01  0.84077199066E+01  0.10000000000E+01 0.  1.
    1000022    2    1    0    0    0 -0.24462615799E+02  0.27748234120E+02 -0.49374743363E+02  0.62499991538E+02  0.99999795835E+01 0.  0.
    3000022    2    3    3    0    0 -0.23069074387E+02  0.21604476180E+02 -0.43897332046E+02  0.54092271632E+02  0.25001092479E+00 0.  0.
    1000022    2    1    0    0    0  0.24462615799E+02 -0.27748234120E+02  0.49374743363E+02  0.62500008462E+02  0.10000085354E+02 0.  0.
    3000022    2    5    5    0    0  0.32308362299E+01 -0.90190322639E+01  0.16696710382E+02  0.19251594557E+02  0.25001933167E+00 0.  0.
        -13    1    4    4    0    0 -0.15527259616E+02  0.14598578821E+02 -0.29546853341E+02  0.36431330776E+02  0.10500000000E+00 0.  1.
         13    1    4    4    0    0 -0.75418147715E+01  0.70058973586E+01 -0.14350478705E+02  0.17660940856E+02  0.10500000000E+00 0. -1.
    3000001    1    5    5    0    0  0.21231779569E+02 -0.18729201856E+02  0.32678032981E+02  0.43248413905E+02  0.10000000000E+01 0.  1.
        -13    1    6    6    0    0  0.19084061782E+01 -0.53956815963E+01  0.10091908243E+02  0.11602285594E+02  0.10500000000E+00 0. -1.
         13    1    6    6    0    0  0.13224300517E+01 -0.36233506676E+01  0.66048021394E+01  0.76493089624E+01  0.10500000000E+00 0.  1.
</event>
<event>
11    0  0.3483054E-009  0.9118800E+02  0.7816531E-02  0.1126479E+00
         25   -1    0    0    0    0  0.00000000000E+00  0.00000000000E+00  0.99999998245E-14  0.12500000000E+03  0.12500000000E+03 0.  0.
    3000001    1    3    3    0    0 -0.22950015885E+02 -0.17142124429E+01  0.22026999964E+02  0.31872095646E+02  0.10000000000E+01 0. -1.
    1000022    2    1    0    0    0 -0.42850573320E+02 -0.12794008271E+02  0.42501667375E+02  0.62500000723E+02  0.10000003961E+02 0.  0.
    3000022    2    3    3    0    0 -0.19900557434E+02 -0.11079795829E+02  0.20474667411E+02  0.30627905077E+02  0.25000403488E+00 0.  0.
    1000022    2    1    0    0    0  0.42850573320E+02  0.12794008271E+02 -0.42501667375E+02  0.62499999277E+02  0.99999949262E+01 0.  0.
    3000022    2    5    5    0    0  0.64578863188E+01  0.59391898269E+01 -0.82855206306E+01  0.12070237221E+02  0.25000587131E+00 0.  0.
        -13    1    4    4    0    0 -0.78917683488E+01 -0.44627731802E+01  0.81738901452E+01  0.12207368973E+02  0.10500000000E+00 0.  1.
         13    1    4    4    0    0 -0.12008789086E+02 -0.66170226483E+01  0.12300777265E+02  0.18420536104E+02  0.10500000000E+00 0. -1.
    3000001    1    5    5    0    0  0.36392687001E+02  0.68548184446E+01 -0.34216146744E+02  0.50429762057E+02  0.10000000000E+01 0. -1.
        -13    1    6    6    0    0  0.44175008444E+01  0.40148400185E+01 -0.56860211720E+01  0.82447022901E+01  0.10500000000E+00 0.  1.
         13    1    6    6    0    0  0.20403854745E+01  0.19243498084E+01 -0.25994994586E+01  0.38255349305E+01  0.10500000000E+00 0. -1.
</event>
<event>
11    0  0.3483054E-009  0.9118800E+02  0.7816531E-02  0.1126479E+00
         25   -1    0    0    0    0  0.00000000000E+00  0.00000000000E+00  0.99999998245E-14  0.12500000000E+03  0.12500000000E+03 0.  0.
    3000001    1    3    3    0    0 -0.64768723456E+01  0.41333909598E+01  0.32606493580E+02  0.33514447926E+02  0.10000000000E+01 0. -1.
    1000022    2    1    0    0    0 -0.16987800138E+02  0.65230026764E-01  0.59309869099E+02  0.62500001178E+02  0.99999983123E+01 0.  0.
    3000022    2    3    3    0    0 -0.10510927793E+02 -0.40681609330E+01  0.26703375519E+02  0.28985553252E+02  0.24999357000E+00 0.  0.
    1000022    2    1    0    0    0  0.16987800138E+02 -0.65230026764E-01 -0.59309869099E+02  0.62499998822E+02  0.99999835837E+01 0.  0.
    3000022    2    5    5    0    0  0.18095773845E+02  0.35951783119E+00 -0.55797176084E+02  0.58659812798E+02  0.24998892647E+00 0.  0.
        -13    1    4    4    0    0 -0.25350049504E+01 -0.97503351514E+00  0.64882788580E+01  0.70346092992E+01  0.10500000000E+00 0. -1.
         13    1    4    4    0    0 -0.79759228424E+01 -0.30931274179E+01  0.20215096661E+02  0.21950943953E+02  0.10500000000E+00 0.  1.
    3000001    1    5    5    0    0 -0.11079737065E+01 -0.42474785796E+00 -0.35126930154E+01  0.38401860239E+01  0.10000000000E+01 0.  1.
        -13    1    6    6    0    0  0.13941168969E+02  0.27508782592E+00 -0.43000337813E+02  0.45204777873E+02  0.10500000000E+00 0. -1.
         13    1    6    6    0    0  0.41546048763E+01  0.84430005277E-01 -0.12796838271E+02  0.13455034925E+02  0.10500000000E+00 0.  1.
</event>
<event>
11    0  0.3483054E-009  0.9118800E+02  0.7816531E-02  0.1126479E+00
         25   -1    0    0    0    0  0.00000000000E+00  0.00000000000E+00  0.99999998245E-14  0.12500000000E+03  0.12500000000E+03 0.  0.
    3000001    1    3    3    0    0  0.13505798602E+02 -0.51662066085E+02 -0.27992005667E+02  0.60298657110E+02  0.10000000000E+01 0.  1.
    1000022    2    1    0    0    0  0.15154592347E+02 -0.53048168206E+02 -0.27613043138E+02  0.62500000061E+02  0.10000001851E+02 0.  0.
    3000022    2    3    3    0    0  0.16487937449E+01 -0.13861021216E+01  0.37896252868E+00  0.22013429509E+01  0.24999656896E+00 0.  0.
    1000022    2    1    0    0    0 -0.15154592347E+02  0.53048168206E+02  0.27613043138E+02  0.62499999939E+02  0.10000001090E+02 0.  0.
    3000022    2    5    5    0    0 -0.76410937208E+01  0.26187776017E+02  0.81426974979E+01  0.28470194040E+02  0.25000037468E+00 0.  0.
        -13    1    4    4    0    0  0.59871940635E+00 -0.43161353269E+00  0.12380262547E+00  0.75571638808E+00  0.10500000000E+00 0. -1.
         13    1    4    4    0    0  0.10500743385E+01 -0.95448858895E+00  0.25515990322E+00  0.14456265628E+01  0.10500000000E+00 0.  1.
    3000001    1    5    5    0    0 -0.75134986262E+01  0.26860392190E+02  0.19470345640E+02  0.34029805899E+02  0.10000000000E+01 0. -1.
        -13    1    6    6    0    0 -0.54410169602E+01  0.18537907268E+02  0.57345118995E+01  0.20153270781E+02  0.10500000000E+00 0.  1.
         13    1    6    6    0    0 -0.22000767606E+01  0.76498687487E+01  0.24081855984E+01  0.83169232593E+01  0.10500000000E+00 0. -1.
</event>
<event>
11    0  0.3483054E-009  0.9118800E+02  0.7816531E-02  0.1126479E+00
         25   -1    0    0    0    0  0.00000000000E+00  0.00000000000E+00  0.99999998245E-14  0.12500000000E+03  0.12500000000E+03 0.  0.
    3000001    1    3    3    0    0  0.20495927248E+02  0.28214992380E+02  0.48843061105E+02  0.60023440811E+02  0.10000000000E+01 0.  1.
    1000022    2    1    0    0    0  0.19994397469E+02  0.27944846415E+02  0.51240213533E+02  0.62500001067E+02  0.10000013956E+02 0.  0.
    3000022    2    3    3    0    0 -0.50152977851E+00 -0.27014596487E+00  0.23971524287E+01  0.24765602558E+01  0.24999994683E+00 0.  0.
    1000022    2    1    0    0    0 -0.19994397469E+02 -0.27944846415E+02 -0.51240213533E+02  0.62499998933E+02  0.10000000619E+02 0.  0.
    3000022    2    5    5    0    0 -0.45229784710E-01 -0.59367041942E+01 -0.10596191742E+02  0.12148592571E+02  0.25003916873E+00 0.  0.
        -13    1    4    4    0    0 -0.38918705290E+00 -0.22404100459E+00  0.17391717144E+01  0.17992787961E+01  0.10500000000E+00 0. -1.
         13    1    4    4    0    0 -0.11234272560E+00 -0.46104960282E-01  0.65798071424E+00  0.67728145972E+00  0.10500000000E+00 0.  1.
    3000001    1    5    5    0    0 -0.19949167685E+02 -0.22008142221E+02 -0.40644021791E+02  0.50351406362E+02  0.10000000000E+01 0.  1.
        -13    1    6    6    0    0  0.55737826981E-02 -0.33176651140E+01 -0.58001807907E+01  0.66828178997E+01  0.10500000000E+00 0. -1.
         13    1    6    6    0    0 -0.50803567408E-01 -0.26190390802E+01 -0.47960109517E+01  0.54657746711E+01  0.10500000000E+00 0.  1.
</event>
<event>
11    0  0.3483054E-009  0.9118800E+02  0.7816531E-02  0.1126479E+00
         25   -1    0    0    0    0  0.00000000000E+00  0.00000000000E+00  0.99999998245E-14  0.12500000000E+03  0.12500000000E+03 0.  0.
    3000001    1    3    3    0    0  0.98216854470E+01 -0.23157505936E+02  0.41018871933E+02  0.48127782422E+02  0.10000000000E+01 0.  1.
    1000022    2    1    0    0    0  0.97183147178E+01 -0.25976121406E+02  0.55109395681E+02  0.62500000029E+02  0.99999993476E+01 0.  0.
    3000022    2    3    3    0    0 -0.10337072922E+00 -0.28186154704E+01  0.14090523748E+02  0.14372217607E+02  0.25000151643E+00 0.  0.
    1000022    2    1    0    0    0 -0.97183147178E+01  0.25976121406E+02 -0.55109395681E+02  0.62499999971E+02  0.99999989901E+01 0.  0.
    3000022    2    5    5    0    0 -0.11226423161E+02  0.24897741921E+02 -0.50004383538E+02  0.56977460485E+02  0.25000123512E+00 0.  0.
        -13    1    4    4    0    0 -0.93928580773E-01 -0.20593831480E+01  0.10116084781E+02  0.10324537657E+02  0.10500000000E+00 0.  1.
         13    1    4    4    0    0 -0.94421484436E-02 -0.75923232240E+00  0.39744389669E+01  0.40476799497E+01  0.10500000000E+00 0. -1.
    3000001    1    5    5    0    0  0.15081084429E+01  0.10783794852E+01 -0.51050121434E+01  0.55225394860E+01  0.10000000000E+01 0.  1.
        -13    1    6    6    0    0 -0.50039113423E+01  0.11239503213E+02 -0.22592740911E+02  0.25725639507E+02  0.10500000000E+00 0. -1.
         13    1    6    6    0    0 -0.62225118184E+01  0.13658238708E+02 -0.27411642627E+02  0.31251820978E+02  0.10500000000E+00 0.  1.
</event>
<event>
11    0  0.3483054E-009  0.9118800E+02  0.7816531E-02  0.1126479E+00
         25   -1    0    0    0    0  0.00000000000E+00  0.00000000000E+00  0.99999998245E-14  0.12500000000E+03  0.12500000000E+03 0.  0.
    3000001    1    3    3    0    0 -0.22717411721E+02  0.32622373975E+02 -0.48141869005E+01  0.40055916849E+02  0.10000000000E+01 0.  1.
    1000022    2    1    0    0    0 -0.39589517376E+02  0.47248088342E+02 -0.25569985944E+01  0.62499999722E+02  0.99999992679E+01 0.  0.
    3000022    2    3    3    0    0 -0.16872105655E+02  0.14625714367E+02  0.22571883061E+01  0.22444082874E+02  0.24997397012E+00 0.  0.
    1000022    2    1    0    0    0  0.39589517376E+02 -0.47248088342E+02  0.25569985944E+01  0.62500000278E+02  0.10000002739E+02 0.  0.
    3000022    2    5    5    0    0  0.16945473584E+02 -0.25673798545E+02  0.47660868248E+01  0.31129906712E+02  0.25000307424E+00 0.  0.
        -13    1    4    4    0    0 -0.65205111354E+01  0.55764552409E+01  0.88913349434E+00  0.86264420181E+01  0.10500000000E+00 0.  1.
         13    1    4    4    0    0 -0.10351594520E+02  0.90492591264E+01  0.13680548117E+01  0.13817640856E+02  0.10500000000E+00 0. -1.
    3000001    1    5    5    0    0  0.22644043792E+02 -0.21574289797E+02 -0.22090882304E+01  0.31370093566E+02  0.10000000000E+01 0.  1.
        -13    1    6    6    0    0  0.99939974010E+01 -0.15248972471E+02  0.28489939086E+01  0.18453697103E+02  0.10500000000E+00 0. -1.
         13    1    6    6    0    0  0.69514761835E+01 -0.10424826074E+02  0.19170929162E+01  0.12676209609E+02  0.10500000000E+00 0.  1.
</event>
<event>
11    0  0.3483054E-009  0.9118800E+02  0.7816531E-02  0.1126479E+00
         25   -1    0    0    0    0  0.00000000000E+00  0.00000000000E+00  0.99999998245E-14  0.12500000000E+03  0.12500000000E+03 0.  0.
    3000001    1    3    3    0    0 -0.45422094527E+00  0.22433963657E+01 -0.57397426470E+01  0.62596956455E+01  0.10000000000E+01 0.  1.
    1000022    2    1    0    0    0  0.23440253880E+02  0.22878073815E+02 -0.52281911519E+02  0.62499999907E+02  0.99999976433E+01 0.  0.
    3000022    2    3    3    0    0  0.23894474825E+02  0.20634677449E+02 -0.46542168872E+02  0.56240304262E+02  0.24999903489E+00 0.  0.
    1000022    2    1    0    0    0 -0.23440253880E+02 -0.22878073815E+02  0.52281911519E+02  0.62500000093E+02  0.99999988010E+01 0.  0.
    3000022    2    5    5    0    0 -0.74131634357E+01 -0.52300161858E+01  0.23011102862E+02  0.24736236964E+02  0.25000555894E+00 0.  0.
        -13    1    4    4    0    0  0.11302764634E+02  0.96920397767E+01 -0.21873152835E+02  0.26460044658E+02  0.10500000000E+00 0.  1.
         13    1    4    4    0    0  0.12591710191E+02  0.10942637673E+02 -0.24669016038E+02  0.29780259603E+02  0.10500000000E+00 0. -1.
    3000001    1    5    5    0    0 -0.16027090444E+02 -0.17648057629E+02  0.29270808658E+02  0.37763763129E+02  0.10000000000E+01 0.  1.
        -13    1    6    6    0    0 -0.21794751521E+01 -0.14849003982E+01  0.66991263415E+01  0.72003027624E+01  0.10500000000E+00 0.  1.
         13    1    6    6    0    0 -0.52336882837E+01 -0.37451157875E+01  0.16311976520E+02  0.17535934201E+02  0.10500000000E+00 0. -1.
</event>
<event>
11    0  0.3483054E-009  0.9118800E+02  0.7816531E-02  0.1126479E+00
         25   -1    0    0    0    0  0.00000000000E+00  0.00000000000E+00  0.99999998245E-14  0.12500000000E+03  0.12500000000E+03 0.  0.
    3000001    1    3    3    0    0  0.69553904065E+01  0.65680817208E+00  0.96257261464E+01  0.11935805651E+02  0.10000000000E+01 0.  1.
    1000022    2    1    0    0    0  0.18437357951E+02  0.97249172046E+00  0.58867375665E+02  0.62500000326E+02  0.10000010736E+02 0.  0.
    3000022    2    3    3    0    0  0.11481967545E+02  0.31568354838E+00  0.49241649519E+02  0.50564194676E+02  0.25000216743E+00 0.  0.
    1000022    2    1    0    0    0 -0.18437357951E+02 -0.97249172046E+00 -0.58867375665E+02  0.62499999674E+02  0.10000006659E+02 0.  0.
    3000022    2    5    5    0    0  0.84153238913E+00 -0.39258678015E+00 -0.85404509573E+01  0.85944224760E+01  0.24998799901E+00 0.  0.
        -13    1    4    4    0    0  0.40504343917E+01  0.13840193396E+00  0.17156556497E+02  0.17629056404E+02  0.10500000000E+00 0. -1.
         13    1    4    4    0    0  0.74315331530E+01  0.17728161442E+00  0.32085093022E+02  0.32935138272E+02  0.10500000000E+00 0.  1.
    3000001    1    5    5    0    0 -0.19278890340E+02 -0.57990494030E+00 -0.50326924708E+02  0.53905577198E+02  0.10000000000E+01 0. -1.
        -13    1    6    6    0    0  0.44540612064E+00 -0.16140598999E+00 -0.38599826430E+01  0.38903636732E+01  0.10500000000E+00 0. -1.
         13    1    6    6    0    0  0.39612626849E+00 -0.23118079016E+00 -0.46804683143E+01  0.47040588027E+01  0.10500000000E+00 0.  1.
</event>
<event>
11    0  0.3483054E-009  0.9118800E+02  0.7816531E-02  0.1126479E+00
         25   -1    0    0    0    0  0.00000000000E+00  0.00000000000E+00  0.99999998245E-14  0.12500000000E+03  0.12500000000E+03 0.  0.
    3000001    1    3    3    0    0 -0.66446462029E+01  0.21155154322E+01 -0.41075349881E+02  0.41675065646E+02  0.10000000000E+01 0.  1.
    1000022    2    1    0    0    0 -0.88108611928E+01  0.99519882751E+01 -0.60245968840E+02  0.62500000864E+02  0.10000000048E+02 0.  0.
    3000022    2    3    3    0    0 -0.21662149899E+01  0.78364728428E+01 -0.19170618958E+02  0.20824935218E+02  0.25000317509E+00 0.  0.
    1000022    2    1    0    0    0  0.88108611928E+01 -0.99519882751E+01  0.60245968840E+02  0.62499999136E+02  0.99999892491E+01 0.  0.
    3000022    2    5    5    0    0  0.10943965398E+02 -0.79442083037E+01  0.49940321550E+02  0.51739530744E+02  0.25000171890E+00 0.  0.
        -13    1    4    4    0    0 -0.14285768351E+01  0.53555312767E+01 -0.13082174619E+02  0.14208337862E+02  0.10500000000E+00 0. -1.
         13    1    4    4    0    0 -0.73763815488E+00  0.24809415662E+01 -0.60884443390E+01  0.66165973560E+01  0.10500000000E+00 0.  1.
    3000001    1    5    5    0    0 -0.21331042050E+01 -0.20077799713E+01  0.10305647289E+02  0.10760468392E+02  0.10000000000E+01 0.  1.
        -13    1    6    6    0    0  0.45360230389E+01 -0.33649626508E+01  0.20752157320E+02  0.21507243829E+02  0.10500000000E+00 0.  1.
         13    1    6    6    0    0  0.64079423588E+01 -0.45792456529E+01  0.29188164230E+02  0.30232286915E+02  0.10500000000E+00 0. -1.
</event>
<event>
11    0  0.3483054E-009  0.9118800E+02  0.7816531E-02  0.1126479E+00
         25   -1    0    0    0    0  0.00000000000E+00  0.00000000000E+00  0.99999998245E-14  0.12500000000E+03  0.12500000000E+03 0.  0.
    3000001    1    3    3    0    0  0.77853227409E+01  0.70722690238E+01  0.22929759856E+02  0.25246824085E+02  0.10000000000E+01 0.  1.
    1000022    2    1    0    0    0  0.16460341658E+02  0.28275779438E+02  0.52304767413E+02  0.62499990206E+02  0.99998765610E+01 0.  0.
    3000022    2    3    3    0    0  0.86750189173E+01  0.21203510414E+02  0.29375007558E+02  0.37253166121E+02  0.25001987098E+00 0.  0.
    1000022    2    1    0    0    0 -0.16460341658E+02 -0.28275779438E+02 -0.52304767413E+02  0.62500009794E+02  0.99999989905E+01 0.  0.
    3000022    2    5    5    0    0 -0.13687165574E+02 -0.16916570212E+02 -0.27580802215E+02  0.35132207636E+02  0.25002677478E+00 0.  0.
        -13    1    4    4    0    0  0.56329284854E+01  0.13634397334E+02  0.18959372296E+02  0.24022812009E+02  0.10500000000E+00 0.  1.
         13    1    4    4    0    0  0.30420904318E+01  0.75691130802E+01  0.10415635262E+02  0.13230354112E+02  0.10500000000E+00 0. -1.
    3000001    1    5    5    0    0 -0.27731760839E+01 -0.11359209226E+02 -0.24723965198E+02  0.27367802158E+02  0.10000000000E+01 0. -1.
        -13    1    6    6    0    0 -0.10354346323E+02 -0.12813663047E+02 -0.20910936528E+02  0.26621058205E+02  0.10500000000E+00 0.  1.
         13    1    6    6    0    0 -0.33328192518E+01 -0.41029071648E+01 -0.66698656869E+01  0.85111494317E+01  0.10500000000E+00 0. -1.
</event>
<event>
11    0  0.3483054E-009  0.9118800E+02  0.7816531E-02  0.1126479E+00
         25   -1    0    0    0    0  0.00000000000E+00  0.00000000000E+00  0.99999998245E-14  0.12500000000E+03  0.12500000000E+03 0.  0.
    3000001    1    3    3    0    0 -0.18160969117E+02  0.11645778023E+02  0.14191613812E+01  0.21643912864E+02  0.10000000000E+01 0. -1.
    1000022    2    1    0    0    0 -0.43440933080E+02  0.43692140288E+02  0.31831101817E+01  0.62500000474E+02  0.10000003951E+02 0.  0.
    3000022    2    3    3    0    0 -0.25279963963E+02  0.32046362265E+02  0.17639488005E+01  0.40856087610E+02  0.24993410988E+00 0.  0.
    1000022    2    1    0    0    0  0.43440933080E+02 -0.43692140288E+02 -0.31831101817E+01  0.62499999526E+02  0.99999980258E+01 0.  0.
    3000022    2    5    5    0    0  0.35425997884E+02 -0.37971554112E+02 -0.58206966109E+01  0.52256896746E+02  0.25000143264E+00 0.  0.
        -13    1    4    4    0    0 -0.10261595177E+02  0.13085495569E+02  0.67660430306E+00  0.16643297397E+02  0.10500000000E+00 0. -1.
         13    1    4    4    0    0 -0.15018368786E+02  0.18960866696E+02  0.10873444974E+01  0.24212790213E+02  0.10500000000E+00 0.  1.
    3000001    1    5    5    0    0  0.80149351958E+01 -0.57205861760E+01  0.26375864292E+01  0.10243102780E+02  0.10000000000E+01 0.  1.
        -13    1    6    6    0    0  0.19220508721E+02 -0.20623257425E+02 -0.32255428788E+01  0.28375374080E+02  0.10500000000E+00 0. -1.
         13    1    6    6    0    0  0.16205489163E+02 -0.17348296688E+02 -0.25951537321E+01  0.23881522666E+02  0.10500000000E+00 0.  1.
</event>
<event>
11    0  0.3483054E-009  0.9118800E+02  0.7816531E-02  0.1126479E+00
         25   -1    0    0    0    0  0.00000000000E+00  0.00000000000E+00  0.99999998245E-14  0.12500000000E+03  0.12500000000E+03 0.  0.
    3000001    1    3    3    0    0  0.24501479648E+02 -0.37425021127E+02  0.40681877452E+02  0.60472885365E+02  0.10000000000E+01 0. -1.
    1000022    2    1    0    0    0  0.26460650218E+02 -0.37765042369E+02  0.40986405716E+02  0.62500000405E+02  0.10000008101E+02 0.  0.
    3000022    2    3    3    0    0  0.19591705699E+01 -0.34002124173E+00  0.30452826319E+00  0.20271150397E+01  0.24998830863E+00 0.  0.
    1000022    2    1    0    0    0 -0.26460650218E+02  0.37765042369E+02 -0.40986405716E+02  0.62499999595E+02  0.10000003043E+02 0.  0.
    3000022    2    5    5    0    0 -0.12919036893E+02  0.12530488744E+02 -0.20463129293E+02  0.27252831436E+02  0.24999689506E+00 0.  0.
        -13    1    4    4    0    0  0.58303978511E+00 -0.14854678499E+00  0.93972155476E-01  0.61794603677E+00  0.10500000000E+00 0.  1.
         13    1    4    4    0    0  0.13761307848E+01 -0.19147445673E+00  0.21055610772E+00  0.14091690030E+01  0.10500000000E+00 0. -1.
    3000001    1    5    5    0    0 -0.13541613325E+02  0.25234553625E+02 -0.20523276423E+02  0.35247168159E+02  0.10000000000E+01 0. -1.
        -13    1    6    6    0    0 -0.71327811835E+01  0.70071692071E+01 -0.11395795118E+02  0.15160875934E+02  0.10500000000E+00 0. -1.
         13    1    6    6    0    0 -0.57862557091E+01  0.55233195368E+01 -0.90673341748E+01  0.12091955502E+02  0.10500000000E+00 0.  1.
</event>
<event>
11    0  0.3483054E-009  0.9118800E+02  0.7816531E-02  0.1126479E+00
         25   -1    0    0    0    0  0.00000000000E+00  0.00000000000E+00  0.99999998245E-14  0.12500000000E+03  0.12500000000E+03 0.  0.
    3000001    1    3    3    0    0  0.91093046637E+01 -0.16054916031E+02  0.21558302951E+00  0.18487461596E+02  0.10000000000E+01 0.  1.
    1000022    2    1    0    0    0  0.16556278084E+02 -0.59411459035E+02  0.15549754462E+01  0.62500001931E+02  0.10000024203E+02 0.  0.
    3000022    2    3    3    0    0  0.74469734204E+01 -0.43356543004E+02  0.13393924167E+01  0.44012540335E+02  0.25000062416E+00 0.  0.
    1000022    2    1    0    0    0 -0.16556278084E+02  0.59411459035E+02 -0.15549754462E+01  0.62499998069E+02  0.10000000066E+02 0.  0.
    3000022    2    5    5    0    0 -0.31495645388E+01  0.18611151243E+02  0.36518854698E+01  0.19227414548E+02  0.24999066204E+00 0.  0.
        -13    1    4    4    0    0  0.28553085881E+01 -0.16745666619E+02  0.57523746564E+00  0.16997413356E+02  0.10500000000E+00 0. -1.
         13    1    4    4    0    0  0.45916648323E+01 -0.26610876386E+02  0.76415495108E+00  0.27015126980E+02  0.10500000000E+00 0.  1.
    3000001    1    5    5    0    0 -0.13406713545E+02  0.40800307792E+02 -0.52068609161E+01  0.43272583521E+02  0.10000000000E+01 0.  1.
        -13    1    6    6    0    0 -0.12572974980E+01  0.77776762534E+01  0.15530544554E+01  0.80309431602E+01  0.10500000000E+00 0. -1.
         13    1    6    6    0    0 -0.18922670408E+01  0.10833474990E+02  0.20988310144E+01  0.11196471387E+02  0.10500000000E+00 0.  1.
</event>
<event>
11    0  0.3483054E-009  0.9118800E+02  0.7816531E-02  0.1126479E+00
         25   -1    0    0    0    0  0.00000000000E+00  0.00000000000E+00  0.99999998245E-14  0.12500000000E+03  0.12500000000E+03 0.  0.
    3000001    1    3    3    0    0 -0.11750052067E+02 -0.14041523639E+02  0.19696189327E+02  0.26910369445E+02  0.10000000000E+01 0.  1.
    1000022    2    1    0    0    0 -0.28056936884E+02 -0.40265612555E+02  0.37386348649E+02  0.62499996697E+02  0.99999630048E+01 0.  0.
    3000022    2    3    3    0    0 -0.16306884817E+02 -0.26224088916E+02  0.17690159322E+02  0.35589627252E+02  0.24999835128E+00 0.  0.
    1000022    2    1    0    0    0  0.28056936884E+02  0.40265612555E+02 -0.37386348649E+02  0.62500003303E+02  0.10000004293E+02 0.  0.
    3000022    2    5    5    0    0  0.13244205338E+02  0.24030807982E+02 -0.15726446338E+02  0.31627082102E+02  0.25000111781E+00 0.  0.
        -13    1    4    4    0    0 -0.90224369938E+01 -0.14630846491E+02  0.98665429667E+01  0.19819831822E+02  0.10500000000E+00 0.  1.
         13    1    4    4    0    0 -0.72844478236E+01 -0.11593242425E+02  0.78236163555E+01  0.15769795430E+02  0.10500000000E+00 0. -1.
    3000001    1    5    5    0    0  0.14812731546E+02  0.16234804573E+02 -0.21659902311E+02  0.30872921201E+02  0.10000000000E+01 0. -1.
        -13    1    6    6    0    0  0.85089675157E+01  0.15457780800E+02 -0.10178558549E+02  0.20370557051E+02  0.10500000000E+00 0. -1.
         13    1    6    6    0    0  0.47352378223E+01  0.85730271823E+01 -0.55478877888E+01  0.11256525051E+02  0.10500000000E+00 0.  1.
</event>
<event>
11    0  0.3483054E-009  0.9118800E+02  0.7816531E-02  0.1126479E+00
         25   -1    0    0    0    0  0.00000000000E+00  0.00000000000E+00  0.99999998245E-14  0.12500000000E+03  0.12500000000E+03 0.  0.
    3000001    1    3    3    0    0 -0.42897772573E+02  0.96793097196E+01  0.36797959523E+01  0.44141237258E+02  0.10000000000E+01 0.  1.
    1000022    2    1    0    0    0 -0.60616295336E+02  0.11459074796E+02 -0.77757235562E+00  0.62500002158E+02  0.99999997824E+01 0.  0.
    3000022    2    3    3    0    0 -0.17718522762E+02  0.17797650765E+01 -0.44573683079E+01  0.18358764901E+02  0.25000768095E+00 0.  0.
    1000022    2    1    0    0    0  0.60616295336E+02 -0.11459074796E+02  0.77757235562E+00  0.62499997842E+02  0.99999728014E+01 0.  0.
    3000022    2    5    5    0    0  0.27920187022E+02 -0.44868071053E+00 -0.96217370565E+00  0.27941482348E+02  0.24999965768E+00 0.  0.
        -13    1    4    4    0    0 -0.62318186376E+01  0.63124236927E+00 -0.16262840352E+01  0.64722372657E+01  0.10500000000E+00 0.  1.
         13    1    4    4    0    0 -0.11486704125E+02  0.11485227072E+01 -0.28310842727E+01  0.11886527635E+02  0.10500000000E+00 0. -1.
    3000001    1    5    5    0    0  0.32696108314E+02 -0.11010394086E+02  0.17397460613E+01  0.34558515494E+02  0.10000000000E+01 0. -1.
        -13    1    6    6    0    0  0.19070453624E+02 -0.25643726159E+00 -0.65494976596E+00  0.19083708908E+02  0.10500000000E+00 0.  1.
         13    1    6    6    0    0  0.88497333983E+01 -0.19224344895E+00 -0.30722393969E+00  0.88577734400E+01  0.10500000000E+00 0. -1.
</event>
<event>
11    0  0.3483054E-009  0.9118800E+02  0.7816531E-02  0.1126479E+00
         25   -1    0    0    0    0  0.00000000000E+00  0.00000000000E+00  0.99999998245E-14  0.12500000000E+03  0.12500000000E+03 0.  0.
    3000001    1    3    3    0    0 -0.22013196785E+02  0.81900142137E+01  0.57098968002E+02  0.61749083495E+02  0.10000000000E+01 0. -1.
    1000022    2    1    0    0    0 -0.22244816015E+02  0.88170709371E+01  0.56865432296E+02  0.62499998847E+02  0.99999943104E+01 0.  0.
    3000022    2    3    3    0    0 -0.23161922984E+00  0.62705672338E+00 -0.23353570613E+00  0.75091535229E+00  0.24997467534E+00 0.  0.
    1000022    2    1    0    0    0  0.22244816015E+02 -0.88170709371E+01 -0.56865432296E+02  0.62500001153E+02  0.10000008723E+02 0.  0.
    3000022    2    5    5    0    0  0.14770870763E+02 -0.95038774280E+01 -0.46144050917E+02  0.49374469565E+02  0.25000114717E+00 0.  0.
        -13    1    4    4    0    0 -0.14864416601E+00  0.22186807600E+00 -0.93427923964E-01  0.30178520211E+00  0.10500000000E+00 0. -1.
         13    1    4    4    0    0 -0.82975063829E-01  0.40518864738E+00 -0.14010778216E+00  0.44913015018E+00  0.10500000000E+00 0.  1.
    3000001    1    5    5    0    0  0.74739452511E+01  0.68680649095E+00 -0.10721381379E+02  0.13125531588E+02  0.10000000000E+01 0.  1.
        -13    1    6    6    0    0  0.10844452145E+02 -0.69383443551E+01 -0.33789006658E+02  0.36158688592E+02  0.10500000000E+00 0. -1.
         13    1    6    6    0    0  0.39264186182E+01 -0.25655330729E+01 -0.12355044259E+02  0.13215780974E+02  0.10500000000E+00 0.  1.
</event>
<event>
11    0  0.3483054E-009  0.9118800E+02  0.7816531E-02  0.1126479E+00
         25   -1    0    0    0    0  0.00000000000E+00  0.00000000000E+00  0.99999998245E-14  0.12500000000E+03  0.12500000000E+03 0.  0.
    3000001    1    3    3    0    0  0.97848025343E+01 -0.46405238453E+02  0.68523956896E+01  0.47928528490E+02  0.10000000000E+01 0.  1.
    1000022    2    1    0    0    0  0.73885816892E+01 -0.60433881816E+02  0.99701887225E+01  0.62500001835E+02  0.10000017778E+02 0.  0.
    3000022    2    3    3    0    0 -0.23962208451E+01 -0.14028643363E+02  0.31177930329E+01  0.14571473345E+02  0.24998625226E+00 0.  0.
    1000022    2    1    0    0    0 -0.73885816892E+01  0.60433881816E+02 -0.99701887225E+01  0.62499998165E+02  0.99999948373E+01 0.  0.
    3000022    2    5    5    0    0 -0.73158752872E+01  0.35682920645E+02 -0.20111182478E+01  0.36481501515E+02  0.24999841495E+00 0.  0.
        -13    1    4    4    0    0 -0.17249377252E+01 -0.10301883263E+02  0.22851114851E+01  0.10692846601E+02  0.10500000000E+00 0.  1.
         13    1    4    4    0    0 -0.67128311988E+00 -0.37267600994E+01  0.83268154781E+00  0.38786267448E+01  0.10500000000E+00 0. -1.
    3000001    1    5    5    0    0 -0.72706402054E-01  0.24750961171E+02 -0.79590704747E+01  0.26018496650E+02  0.10000000000E+01 0.  1.
        -13    1    6    6    0    0 -0.18702099156E+01  0.92767993662E+01 -0.52762548641E+00  0.94787185454E+01  0.10500000000E+00 0.  1.
         13    1    6    6    0    0 -0.54456653715E+01  0.26406121279E+02 -0.14834927614E+01  0.27002782970E+02  0.10500000000E+00 0. -1.
</event>
<event>
11    0  0.3483054E-009  0.9118800E+02  0.7816531E-02  0.1126479E+00
         25   -1    0    0    0    0  0.00000000000E+00  0.00000000000E+00  0.99999998245E-14  0.12500000000E+03  0.12500000000E+03 0.  0.
    3000001    1    3    3    0    0 -0.62679381826E+01  0.15842585121E+02 -0.12319845360E+02  0.21048827570E+02  0.10000000000E+01 0.  1.
    1000022    2    1    0    0    0 -0.20261750894E+02  0.36533026252E+02 -0.45398781923E+02  0.62499999993E+02  0.10000002132E+02 0.  0.
    3000022    2    3    3    0    0 -0.13993812711E+02  0.20690441131E+02 -0.33078936563E+02  0.41451172423E+02  0.25000544625E+00 0.  0.
    1000022    2    1    0    0    0  0.20261750894E+02 -0.36533026252E+02  0.45398781923E+02  0.62500000007E+02  0.10000002218E+02 0.  0.
    3000022    2    5    5    0    0  0.31298794189E+01 -0.11498080532E+02  0.18133355502E+02  0.21699840628E+02  0.25000083992E+00 0.  0.
        -13    1    4    4    0    0 -0.55892565890E+01  0.82905178240E+01 -0.13139779663E+02  0.16511732483E+02  0.10500000000E+00 0. -1.
         13    1    4    4    0    0 -0.84045561220E+01  0.12399923307E+02 -0.19939156900E+02  0.24939439940E+02  0.10500000000E+00 0.  1.
    3000001    1    5    5    0    0  0.17131871475E+02 -0.25034945721E+02  0.27265426421E+02  0.40800159379E+02  0.10000000000E+01 0. -1.
        -13    1    6    6    0    0  0.15994548896E+01 -0.58299299775E+01  0.90777154120E+01  0.10906983157E+02  0.10500000000E+00 0.  1.
         13    1    6    6    0    0  0.15304245293E+01 -0.56681505542E+01  0.90556400896E+01  0.10792857470E+02  0.10500000000E+00 0. -1.
</event>
<event>
11    0  0.3483054E-009  0.9118800E+02  0.7816531E-02  0.1126479E+00
         25   -1    0    0    0    0  0.00000000000E+00  0.00000000000E+00  0.99999998245E-14  0.12500000000E+03  0.12500000000E+03 0.  0.
    3000001    1    3    3    0    0 -0.11865016310E+02  0.10762977037E+02  0.60406803464E+01  0.17149638648E+02  0.10000000000E+01 0.  1.
    1000022    2    1    0    0    0 -0.33896016881E+02  0.37952442378E+02  0.34884411521E+02  0.62500000839E+02  0.10000004744E+02 0.  0.
    3000022    2    3    3    0    0 -0.22031000571E+02  0.27189465341E+02  0.28843731174E+02  0.45350362190E+02  0.25002209782E+00 0.  0.
    1000022    2    1    0    0    0  0.33896016881E+02 -0.37952442378E+02 -0.34884411521E+02  0.62499999161E+02  0.99999942567E+01 0.  0.
    3000022    2    5    5    0    0  0.19405959795E+02 -0.19628963294E+02 -0.13145904625E+02  0.30573923265E+02  0.24999962970E+00 0.  0.
        -13    1    4    4    0    0 -0.67134005011E+01  0.82313141501E+01  0.87967912712E+01  0.13791984650E+02  0.10500000000E+00 0. -1.
         13    1    4    4    0    0 -0.15317600070E+02  0.18958151191E+02  0.20046939903E+02  0.31558377540E+02  0.10500000000E+00 0.  1.
    3000001    1    5    5    0    0  0.14490057086E+02 -0.18323479083E+02 -0.21738506895E+02  0.31926075896E+02  0.10000000000E+01 0.  1.
        -13    1    6    6    0    0  0.64813920871E+01 -0.64801192413E+01 -0.43657980212E+01  0.10152418733E+02  0.10500000000E+00 0.  1.
         13    1    6    6    0    0  0.12924567708E+02 -0.13148844053E+02 -0.87801066042E+01  0.20421504532E+02  0.10500000000E+00 0. -1.
</event>
<event>
11    0  0.3483054E-009  0.9118800E+02  0.7816531E-02  0.1126479E+00
         25   -1    0    0    0    0  0.00000000000E+00  0.00000000000E+00  0.99999998245E-14  0.12500000000E+03  0.12500000000E+03 0.  0.
    3000001    1    3    3    0    0  0.16119987555E+02 -0.29699826454E+02  0.35795657825E+02  0.49236803403E+02  0.10000000000E+01 0. -1.
    1000022    2    1    0    0    0  0.21231520184E+02 -0.33070986821E+02  0.47558199447E+02  0.62499999893E+02  0.10000001673E+02 0.  0.
    3000022    2    3    3    0    0  0.51115326292E+01 -0.33711603666E+01  0.11762541622E+02  0.13263196491E+02  0.25001543616E+00 0.  0.
    1000022    2    1    0    0    0 -0.21231520184E+02  0.33070986821E+02 -0.47558199447E+02  0.62500000107E+02  0.10000003004E+02 0.  0.
    3000022    2    5    5    0    0 -0.13317516476E+02  0.26649465212E+02 -0.30732665541E+02  0.42803147929E+02  0.25000054686E+00 0.  0.
        -13    1    4    4    0    0  0.29533032535E+01 -0.18745881816E+01  0.66663423950E+01  0.75290920359E+01  0.10500000000E+00 0.  1.
         13    1    4    4    0    0  0.21582293757E+01 -0.14965721849E+01  0.50961992267E+01  0.57341044551E+01  0.10500000000E+00 0. -1.
    3000001    1    5    5    0    0 -0.79140037083E+01  0.64215216092E+01 -0.16825533906E+02  0.19696852177E+02  0.10000000000E+01 0. -1.
        -13    1    6    6    0    0 -0.31243959708E+01  0.62860258026E+01 -0.72444290906E+01  0.10088049783E+02  0.10500000000E+00 0. -1.
         13    1    6    6    0    0 -0.10193120505E+02  0.20363439409E+02 -0.23488236450E+02  0.32715098146E+02  0.10500000000E+00 0.  1.
</event>
<event>
11    0  0.3483054E-009  0.9118800E+02  0.7816531E-02  0.1126479E+00
         25   -1    0    0    0    0  0.00000000000E+00  0.00000000000E+00  0.99999998245E-14  0.12500000000E+03  0.12500000000E+03 0.  0.
    3000001    1    3    3    0    0 -0.34309375073E+02  0.42782861820E+02 -0.18113556194E+02  0.57763374221E+02  0.10000000000E+01 0. -1.
    1000022    2    1    0    0    0 -0.37439768058E+02  0.46072143583E+02 -0.16789023889E+02  0.62499999699E+02  0.99999996343E+01 0.  0.
    3000022    2    3    3    0    0 -0.31303929844E+01  0.32892817632E+01  0.13245323059E+01  0.47366254777E+01  0.25000066402E+00 0.  0.
    1000022    2    1    0    0    0  0.37439768058E+02 -0.46072143583E+02  0.16789023889E+02  0.62500000301E+02  0.10000003396E+02 0.  0.
    3000022    2    5    5    0    0  0.29876255738E+02 -0.30101677375E+02  0.13407744197E+02  0.44480689497E+02  0.24999183097E+00 0.  0.
        -13    1    4    4    0    0 -0.12316651930E+01  0.13416247859E+01  0.47528264597E+00  0.18851723548E+01  0.10500000000E+00 0.  1.
         13    1    4    4    0    0 -0.18987277914E+01  0.19476569772E+01  0.84924965989E+00  0.28514531228E+01  0.10500000000E+00 0. -1.
    3000001    1    5    5    0    0  0.75635123196E+01 -0.15970466208E+02  0.33812796919E+01  0.18019310804E+02  0.10000000000E+01 0. -1.
        -13    1    6    6    0    0  0.13834938337E+02 -0.14026807823E+02  0.62566250441E+01  0.20671556265E+02  0.10500000000E+00 0. -1.
         13    1    6    6    0    0  0.16041317401E+02 -0.16074869552E+02  0.71511191526E+01  0.23809133231E+02  0.10500000000E+00 0.  1.
</event>
<event>
11    0  0.3483054E-009  0.9118800E+02  0.7816531E-02  0.1126479E+00
         25   -1    0    0    0    0  0.00000000000E+00  0.00000000000E+00  0.99999998245E-14  0.12500000000E+03  0.12500000000E+03 0.  0.
    3000001    1    3    3    0    0  0.63540726714E+01  0.34187956844E+02 -0.31848118220E+01  0.34933274381E+02  0.10000000000E+01 0. -1.
    1000022    2    1    0    0    0  0.15528103256E+02  0.58298661829E+02 -0.12899395327E+02  0.62500003689E+02  0.10000004974E+02 0.  0.
    3000022    2    3    3    0    0  0.91740305845E+01  0.24110704986E+02 -0.97145835054E+01  0.27566729307E+02  0.24999992208E+00 0.  0.
    1000022    2    1    0    0    0 -0.15528103256E+02 -0.58298661829E+02  0.12899395327E+02  0.62499996311E+02  0.99999588644E+01 0.  0.
    3000022    2    5    5    0    0  0.96199191360E+00 -0.11094230527E+02  0.26217385033E+01  0.11443049643E+02  0.24998585919E+00 0.  0.
        -13    1    4    4    0    0  0.43529118857E+01  0.11617560991E+02 -0.46979200427E+01  0.13266387714E+02  0.10500000000E+00 0.  1.
         13    1    4    4    0    0  0.48211186988E+01  0.12493143995E+02 -0.50166634627E+01  0.14300341593E+02  0.10500000000E+00 0. -1.
    3000001    1    5    5    0    0 -0.16490095170E+02 -0.47204431302E+02  0.10277656824E+02  0.51056946668E+02  0.10000000000E+01 0.  1.
        -13    1    6    6    0    0  0.67159899248E+00 -0.77522803092E+01  0.18791248080E+01  0.80056873686E+01  0.10500000000E+00 0.  1.
         13    1    6    6    0    0  0.29039292113E+00 -0.33419502180E+01  0.74261369528E+00  0.34373622749E+01  0.10500000000E+00 0. -1.
</event>
<event>
11    0  0.3483054E-009  0.9118800E+02  0.7816531E-02  0.1126479E+00
         25   -1    0    0    0    0  0.00000000000E+00  0.00000000000E+00  0.99999998245E-14  0.12500000000E+03  0.12500000000E+03 0.  0.
    3000001    1    3    3    0    0  0.37646875400E+01 -0.72069577526E+01 -0.10163745609E+02  0.13054303395E+02  0.10000000000E+01 0. -1.
    1000022    2    1    0    0    0  0.24899114505E+01 -0.26239042230E+02 -0.55781387852E+02  0.62500001648E+02  0.99999989564E+01 0.  0.
    3000022    2    3    3    0    0 -0.12747760895E+01 -0.19032084477E+02 -0.45617642242E+02  0.49445698253E+02  0.24999659764E+00 0.  0.
    1000022    2    1    0    0    0 -0.24899114505E+01  0.26239042230E+02  0.55781387852E+02  0.62499998352E+02  0.99999783596E+01 0.  0.
    3000022    2    5    5    0    0  0.21858725550E+01  0.15792578178E+02  0.25081628285E+02  0.29720937891E+02  0.25001473429E+00 0.  0.
        -13    1    4    4    0    0 -0.83655132172E+00 -0.13098220043E+02 -0.31316647842E+02  0.33955951517E+02  0.10500000000E+00 0.  1.
         13    1    4    4    0    0 -0.43822476780E+00 -0.59338644340E+01 -0.14300994401E+02  0.15489746735E+02  0.10500000000E+00 0. -1.
    3000001    1    5    5    0    0 -0.46757840056E+01  0.10446464052E+02  0.30699759567E+02  0.32779060461E+02  0.10000000000E+01 0. -1.
        -13    1    6    6    0    0  0.64016455451E+00  0.48278021449E+01  0.75912924480E+01  0.90197688572E+01  0.10500000000E+00 0.  1.
         13    1    6    6    0    0  0.15457080005E+01  0.10964776033E+02  0.17490335837E+02  0.20701169034E+02  0.10500000000E+00 0. -1.
</event>
<event>
11    0  0.3483054E-009  0.9118800E+02  0.7816531E-02  0.1126479E+00
         25   -1    0    0    0    0  0.00000000000E+00  0.00000000000E+00  0.99999998245E-14  0.12500000000E+03  0.12500000000E+03 0.  0.
    3000001    1    3    3    0    0  0.11390734480E+01  0.56992435709E+01 -0.31562743229E+00  0.59058010698E+01  0.10000000000E+01 0.  1.
    1000022    2    1    0    0    0  0.35706237649E+02  0.47925449210E+02 -0.15312276184E+02  0.62499999111E+02  0.99999998963E+01 0.  0.
    3000022    2    3    3    0    0  0.34567164201E+02  0.42226205639E+02 -0.14996648751E+02  0.56594198041E+02  0.24998916049E+00 0.  0.
    1000022    2    1    0    0    0 -0.35706237649E+02 -0.47925449210E+02  0.15312276184E+02  0.62500000889E+02  0.10000011009E+02 0.  0.
    3000022    2    5    5    0    0 -0.15325550268E+02 -0.13674264743E+02  0.75392079464E+01  0.21880588715E+02  0.24999759134E+00 0.  0.
        -13    1    4    4    0    0  0.10962845810E+02  0.13355941180E+02 -0.47946829193E+01  0.17932238074E+02  0.10500000000E+00 0.  1.
         13    1    4    4    0    0  0.23604318391E+02  0.28870264459E+02 -0.10201965832E+02  0.38661959967E+02  0.10500000000E+00 0. -1.
    3000001    1    5    5    0    0 -0.20380687381E+02 -0.34251184467E+02  0.77730682373E+01  0.40619412174E+02  0.10000000000E+01 0. -1.
        -13    1    6    6    0    0 -0.44837174344E+01 -0.39481587658E+01  0.21736294682E+01  0.63582520976E+01  0.10500000000E+00 0.  1.
         13    1    6    6    0    0 -0.10841832833E+02 -0.97261059771E+01  0.53655784782E+01  0.15522336618E+02  0.10500000000E+00 0. -1.
</event>
<event>
11    0  0.3483054E-009  0.9118800E+02  0.7816531E-02  0.1126479E+00
         25   -1    0    0    0    0  0.00000000000E+00  0.00000000000E+00  0.99999998245E-14  0.12500000000E+03  0.12500000000E+03 0.  0.
    3000001    1    3    3    0    0  0.48322632216E+01 -0.14016357217E+01 -0.17516902324E+02  0.18252594817E+02  0.10000000000E+01 0. -1.
    1000022    2    1    0    0    0  0.74617452590E+01  0.74775604724E+01 -0.60783702057E+02  0.62499998863E+02  0.99999934620E+01 0.  0.
    3000022    2    3    3    0    0  0.26294820374E+01  0.88791961941E+01 -0.43266799733E+02  0.44247404046E+02  0.25000966832E+00 0.  0.
    1000022    2    1    0    0    0 -0.74617452590E+01 -0.74775604724E+01  0.60783702057E+02  0.62500001137E+02  0.10000007674E+02 0.  0.
    3000022    2    5    5    0    0 -0.73274290979E+01 -0.89902453581E+01  0.40320683673E+02  0.41956355459E+02  0.25000541873E+00 0.  0.
        -13    1    4    4    0    0  0.11874673319E+01  0.40875127729E+01 -0.20191067260E+02  0.20635117189E+02  0.10500000000E+00 0. -1.
         13    1    4    4    0    0  0.14420147055E+01  0.47916834212E+01 -0.23075732473E+02  0.23612286857E+02  0.10500000000E+00 0.  1.
    3000001    1    5    5    0    0 -0.13431616112E+00  0.15126848857E+01  0.20463018384E+02  0.20543645678E+02  0.10000000000E+01 0. -1.
        -13    1    6    6    0    0 -0.44845671175E+01 -0.54089470278E+01  0.24498539391E+02  0.25486418098E+02  0.10500000000E+00 0.  1.
         13    1    6    6    0    0 -0.28428619804E+01 -0.35812983303E+01  0.15822144282E+02  0.16469937360E+02  0.10500000000E+00 0. -1.
</event>
<event>
11    0  0.3483054E-009  0.9118800E+02  0.7816531E-02  0.1126479E+00
         25   -1    0    0    0    0  0.00000000000E+00  0.00000000000E+00  0.99999998245E-14  0.12500000000E+03  0.12500000000E+03 0.  0.
    3000001    1    3    3    0    0  0.22482155505E+01 -0.17122188989E+02 -0.22441116815E+02  0.28334211703E+02  0.10000000000E+01 0.  1.
    1000022    2    1    0    0    0 -0.29242619657E+01 -0.31244818825E+02 -0.53117417450E+02  0.62500000349E+02  0.99999997768E+01 0.  0.
    3000022    2    3    3    0    0 -0.51724775162E+01 -0.14122629836E+02 -0.30676300635E+02  0.34165788645E+02  0.24999190860E+00 0.  0.
    1000022    2    1    0    0    0  0.29242619657E+01  0.31244818825E+02  0.53117417450E+02  0.62499999651E+02  0.99999954199E+01 0.  0.
    3000022    2    5    5    0    0 -0.19881806280E+01  0.21607845956E+02  0.39625511295E+02  0.45178484995E+02  0.24998384485E+00 0.  0.
        -13    1    4    4    0    0 -0.35449331347E+01 -0.98087029718E+01 -0.21233725734E+02  0.23657120249E+02  0.10500000000E+00 0. -1.
         13    1    4    4    0    0 -0.16275443815E+01 -0.43139268643E+01 -0.94425749006E+01  0.10508668396E+02  0.10500000000E+00 0.  1.
    3000001    1    5    5    0    0  0.49124425937E+01  0.96369728693E+01  0.13491906155E+02  0.17321514657E+02  0.10000000000E+01 0.  1.
        -13    1    6    6    0    0 -0.83654858517E+00  0.87558098603E+01  0.15946753094E+02  0.18211918599E+02  0.10500000000E+00 0. -1.
         13    1    6    6    0    0 -0.11516320428E+01  0.12852036096E+02  0.23678758202E+02  0.26966566395E+02  0.10500000000E+00 0.  1.
</event>
<event>
11    0  0.3483054E-009  0.9118800E+02  0.7816531E-02  0.1126479E+00
         25   -1    0    0    0    0  0.00000000000E+00  0.00000000000E+00  0.99999998245E-14  0.12500000000E+03  0.12500000000E+03 0.  0.
    3000001    1    3    3    0    0  0.40568703712E+01  0.58359804378E+00  0.36625238567E+01  0.55868474909E+01  0.10000000000E+01 0.  1.
    1000022    2    1    0    0    0  0.26337447948E+02  0.28769119709E+02  0.47800901543E+02  0.62499997481E+02  0.10000004177E+02 0.  0.
    3000022    2    3    3    0    0  0.22280577577E+02  0.28185521666E+02  0.44138377687E+02  0.56913149990E+02  0.24997660414E+00 0.  0.
    1000022    2    1    0    0    0 -0.26337447948E+02 -0.28769119709E+02 -0.47800901543E+02  0.62500002519E+02  0.10000035661E+02 0.  0.
    3000022    2    5    5    0    0 -0.22363291151E+02 -0.18595925904E+02 -0.31736733758E+02  0.43048902780E+02  0.25001905525E+00 0.  0.
        -13    1    4    4    0    0  0.16556183703E+02  0.20944329587E+02  0.32750350878E+02  0.42253623138E+02  0.10500000000E+00 0. -1.
         13    1    4    4    0    0  0.57243938734E+01  0.72411920789E+01  0.11388026809E+02  0.14659526853E+02  0.10500000000E+00 0.  1.
    3000001    1    5    5    0    0 -0.39741567971E+01 -0.10173193805E+02 -0.16064167785E+02  0.19451099739E+02  0.10000000000E+01 0.  1.
        -13    1    6    6    0    0 -0.57093043393E+01 -0.47161915476E+01 -0.81048719148E+01  0.10979006900E+02  0.10500000000E+00 0.  1.
         13    1    6    6    0    0 -0.16653986812E+02 -0.13879734357E+02 -0.23631861844E+02  0.32069895880E+02  0.10500000000E+00 0. -1.
</event>
<event>
11    0  0.3483054E-009  0.9118800E+02  0.7816531E-02  0.1126479E+00
         25   -1    0    0    0    0  0.00000000000E+00  0.00000000000E+00  0.99999998245E-14  0.12500000000E+03  0.12500000000E+03 0.  0.
    3000001    1    3    3    0    0  0.42930606369E+01  0.29825840380E+02  0.15215787066E+02  0.33771752990E+02  0.10000000000E+01 0. -1.
    1000022    2    1    0    0    0  0.26940498655E+01  0.57879962192E+02  0.21187303942E+02  0.62499998723E+02  0.10000003200E+02 0.  0.
    3000022    2    3    3    0    0 -0.15990107715E+01  0.28054121812E+02  0.59715168763E+01  0.28728245733E+02  0.25000595935E+00 0.  0.
    1000022    2    1    0    0    0 -0.26940498655E+01 -0.57879962192E+02 -0.21187303942E+02  0.62500001277E+02  0.10000019161E+02 0.  0.
    3000022    2    5    5    0    0  0.36836762653E+01 -0.15782541475E+02 -0.56754286869E+01  0.17173557609E+02  0.25000786435E+00 0.  0.
        -13    1    4    4    0    0 -0.76966099092E+00  0.13461186939E+02  0.27962389962E+01  0.13770472373E+02  0.10500000000E+00 0. -1.
         13    1    4    4    0    0 -0.82934978054E+00  0.14592934873E+02  0.31752778800E+01  0.14957773360E+02  0.10500000000E+00 0.  1.
    3000001    1    5    5    0    0 -0.63777261308E+01 -0.42097420718E+02 -0.15511875255E+02  0.45326443668E+02  0.10000000000E+01 0.  1.
        -13    1    6    6    0    0  0.13131235802E+01 -0.58722237005E+01 -0.20851951541E+01  0.63691733024E+01  0.10500000000E+00 0.  1.
         13    1    6    6    0    0  0.23705526851E+01 -0.99103177743E+01 -0.35902335328E+01  0.10804384306E+02  0.10500000000E+00 0. -1.
</event>
<event>
11    0  0.3483054E-009  0.9118800E+02  0.7816531E-02  0.1126479E+00
         25   -1    0    0    0    0  0.00000000000E+00  0.00000000000E+00  0.99999998245E-14  0.12500000000E+03  0.12500000000E+03 0.  0.
    3000001    1    3    3    0    0 -0.42702960386E+01 -0.47125999625E+01 -0.47497935263E+00  0.64552019372E+01  0.10000000000E+01 0. -1.
    1000022    2    1    0    0    0 -0.21903275763E+02 -0.56311137526E+02  0.12472059644E+02  0.62499999849E+02  0.10000000534E+02 0.  0.
    3000022    2    3    3    0    0 -0.17632979725E+02 -0.51598537564E+02  0.12947038997E+02  0.56044797912E+02  0.25000298340E+00 0.  0.
    1000022    2    1    0    0    0  0.21903275763E+02  0.56311137526E+02 -0.12472059644E+02  0.62500000151E+02  0.10000002421E+02 0.  0.
    3000022    2    5    5    0    0  0.10726370670E+02  0.15142773989E+02 -0.31667897871E+01  0.18826834352E+02  0.25000464351E+00 0.  0.
        -13    1    4    4    0    0 -0.43632164300E+01 -0.12697746038E+02  0.31960508835E+01  0.13802035296E+02  0.10500000000E+00 0. -1.
         13    1    4    4    0    0 -0.13269763295E+02 -0.38900791526E+02  0.97509881132E+01  0.42242762616E+02  0.10500000000E+00 0.  1.
    3000001    1    5    5    0    0  0.11176905093E+02  0.41168363537E+02 -0.93052698569E+01  0.43673165799E+02  0.10000000000E+01 0.  1.
        -13    1    6    6    0    0  0.62500057583E+01  0.89274944629E+01 -0.18369769251E+01  0.11052069426E+02  0.10500000000E+00 0. -1.
         13    1    6    6    0    0  0.44763649120E+01  0.62152795265E+01 -0.13298128620E+01  0.77747649267E+01  0.10500000000E+00 0.  1.
</event>
<event>
11    0  0.3483054E-009  0.9118800E+02  0.7816531E-02  0.1126479E+00
         25   -1    0    0    0    0  0.00000000000E+00  0.00000000000E+00  0.99999998245E-14  0.12500000000E+03  0.12500000000E+03 0.  0.
    3000001    1    3    3    0    0 -0.20938398199E+01  0.23982785969E+00 -0.14215866036E+02  0.14405989371E+02  0.10000000000E+01 0. -1.
    1000022    2    1    0    0    0 -0.24142395741E+02  0.88533123822E+01 -0.56080417868E+02  0.62500002885E+02  0.10000034007E+02 0.  0.
    3000022    2    3    3    0    0 -0.22048555921E+02  0.86134845225E+01 -0.41864551831E+02  0.48094013514E+02  0.25000400471E+00 0.  0.
    1000022    2    1    0    0    0  0.24142395741E+02 -0.88533123822E+01  0.56080417868E+02  0.62499997115E+02  0.99999979441E+01 0.  0.
    3000022    2    5    5    0    0  0.13023218512E+02 -0.83841450908E+01  0.40209130931E+02  0.43089845925E+02  0.25000453147E+00 0.  0.
        -13    1    4    4    0    0 -0.16366243846E+02  0.64175507340E+01 -0.31131420043E+02  0.35752136075E+02  0.10500000000E+00 0. -1.
         13    1    4    4    0    0 -0.56823120756E+01  0.21959337886E+01 -0.10733131789E+02  0.12341877439E+02  0.10500000000E+00 0.  1.
    3000001    1    5    5    0    0  0.11119177229E+02 -0.46916729140E+00  0.15871286937E+02  0.19410151190E+02  0.10000000000E+01 0. -1.
        -13    1    6    6    0    0  0.47302754139E+01 -0.30213238416E+01  0.14419835186E+02  0.15474061362E+02  0.10500000000E+00 0.  1.
         13    1    6    6    0    0  0.82929430982E+01 -0.53628212492E+01  0.25789295745E+02  0.27615784562E+02  0.10500000000E+00 0. -1.
</event>
<event>
11    0  0.3483054E-009  0.9118800E+02  0.7816531E-02  0.1126479E+00
         25   -1    0    0    0    0  0.00000000000E+00  0.00000000000E+00  0.99999998245E-14  0.12500000000E+03  0.12500000000E+03 0.  0.
    3000001    1    3    3    0    0 -0.12611164536E+01  0.19714054498E+01 -0.30986135726E+02  0.31090472197E+02  0.10000000000E+01 0.  1.
    1000022    2    1    0    0    0  0.28701794808E+01 -0.43427974531E+01 -0.61474808880E+02  0.62500000343E+02  0.10000004804E+02 0.  0.
    3000022    2    3    3    0    0  0.41312959345E+01 -0.63142029029E+01 -0.30488673154E+02  0.31409528147E+02  0.25000663931E+00 0.  0.
    1000022    2    1    0    0    0 -0.28701794808E+01  0.43427974531E+01  0.61474808880E+02  0.62499999657E+02  0.10000000511E+02 0.  0.
    3000022    2    5    5    0    0 -0.47109535250E+01 -0.15890490379E+01  0.28070966134E+02  0.28508942566E+02  0.25001321588E+00 0.  0.
        -13    1    4    4    0    0  0.22062788348E+01 -0.34699424397E+01 -0.16778209055E+02  0.17275054006E+02  0.10500000000E+00 0. -1.
         13    1    4    4    0    0  0.19250170997E+01 -0.28442604632E+01 -0.13710464099E+02  0.14134474141E+02  0.10500000000E+00 0.  1.
    3000001    1    5    5    0    0  0.18407740442E+01  0.59318464910E+01  0.33403842747E+02  0.33991057090E+02  0.10000000000E+01 0.  1.
        -13    1    6    6    0    0 -0.21153519800E+01 -0.66909334244E+00  0.12233570134E+02  0.12433570008E+02  0.10500000000E+00 0.  1.
         13    1    6    6    0    0 -0.25956015450E+01 -0.91995569544E+00  0.15837395999E+02  0.16075372559E+02  0.10500000000E+00 0. -1.
</event>
<event>
11    0  0.3483054E-009  0.9118800E+02  0.7816531E-02  0.1126479E+00
         25   -1    0    0    0    0  0.00000000000E+00  0.00000000000E+00  0.99999998245E-14  0.12500000000E+03  0.12500000000E+03 0.  0.
    3000001    1    3    3    0    0  0.15214813241E+02  0.12566726511E+02  0.42302844853E+02  0.46689868707E+02  0.10000000000E+01 0.  1.
    1000022    2    1    0    0    0  0.19685932295E+02  0.22002108186E+02  0.54172148740E+02  0.62499998615E+02  0.99999716405E+01 0.  0.
    3000022    2    3    3    0    0  0.44711190537E+01  0.94353816750E+01  0.11869303886E+02  0.15810129908E+02  0.25000002823E+00 0.  0.
    1000022    2    1    0    0    0 -0.19685932295E+02 -0.22002108186E+02 -0.54172148740E+02  0.62500001385E+02  0.99999889581E+01 0.  0.
    3000022    2    5    5    0    0 -0.10955423327E+02 -0.60215053305E+01 -0.17088609878E+02  0.21174581739E+02  0.24999505269E+00 0.  0.
        -13    1    4    4    0    0  0.30647878351E+01  0.63466375085E+01  0.80075834466E+01  0.10667949653E+02  0.10500000000E+00 0.  1.
         13    1    4    4    0    0  0.14063312186E+01  0.30887441665E+01  0.38617204399E+01  0.51421802553E+01  0.10500000000E+00 0. -1.
    3000001    1    5    5    0    0 -0.87305089675E+01 -0.15980602855E+02 -0.37083538862E+02  0.41325419647E+02  0.10000000000E+01 0.  1.
        -13    1    6    6    0    0 -0.61977760250E+01 -0.34256281091E+01 -0.97872877944E+01  0.12080951244E+02  0.10500000000E+00 0.  1.
         13    1    6    6    0    0 -0.47576473024E+01 -0.25958772214E+01 -0.73013220831E+01  0.90936304942E+01  0.10500000000E+00 0. -1.
</event>
<event>
11    0  0.3483054E-009  0.9118800E+02  0.7816531E-02  0.1126479E+00
         25   -1    0    0    0    0  0.00000000000E+00  0.00000000000E+00  0.99999998245E-14  0.12500000000E+03  0.12500000000E+03 0.  0.
    3000001    1    3    3    0    0 -0.56972773579E+01  0.39488846749E+02  0.18060964996E+02  0.43806694048E+02  0.10000000000E+01 0.  1.
    1000022    2    1    0    0    0 -0.21692969115E+01  0.54976119242E+02  0.27913628404E+02  0.62500001121E+02  0.99999976725E+01 0.  0.
    3000022    2    3    3    0    0  0.35279804463E+01  0.15487272493E+02  0.98526634082E+01  0.18693307073E+02  0.24999555995E+00 0.  0.
    1000022    2    1    0    0    0  0.21692969115E+01 -0.54976119242E+02 -0.27913628404E+02  0.62499998879E+02  0.99999836570E+01 0.  0.
    3000022    2    5    5    0    0  0.76847520863E+00 -0.27022460503E+02 -0.81993497798E+01  0.28250588373E+02  0.24996158952E+00 0.  0.
        -13    1    4    4    0    0  0.18137362214E+01  0.78297596660E+01  0.49133493772E+01  0.94205521394E+01  0.10500000000E+00 0.  1.
         13    1    4    4    0    0  0.17142442250E+01  0.76575128274E+01  0.49393140309E+01  0.92727549337E+01  0.10500000000E+00 0. -1.
    3000001    1    5    5    0    0  0.14008217029E+01 -0.27953658739E+02 -0.19714278624E+02  0.34249410506E+02  0.10000000000E+01 0.  1.
        -13    1    6    6    0    0  0.41442638137E+00 -0.12634824012E+02 -0.38746490039E+01  0.13222498135E+02  0.10500000000E+00 0. -1.
         13    1    6    6    0    0  0.35404882726E+00 -0.14387636491E+02 -0.43247007758E+01  0.15028090237E+02  0.10500000000E+00 0.  1.
</event>
<event>
11    0  0.3483054E-009  0.9118800E+02  0.7816531E-02  0.1126479E+00
         25   -1    0    0    0    0  0.00000000000E+00  0.00000000000E+00  0.99999998245E-14  0.12500000000E+03  0.12500000000E+03 0.  0.
    3000001    1    3    3    0    0 -0.74858418829E+01  0.80251210983E+01 -0.59105470588E+01  0.12504997556E+02  0.10000000000E+01 0.  1.
    1000022    2    1    0    0    0 -0.21596794118E+02  0.51163585806E+02 -0.26872215908E+02  0.62499999041E+02  0.99999931783E+01 0.  0.
    3000022    2    3    3    0    0 -0.14110952235E+02  0.43138464708E+02 -0.20961668850E+02  0.49995001485E+02  0.25000439785E+00 0.  0.
    1000022    2    1    0    0    0  0.21596794118E+02 -0.51163585806E+02  0.26872215908E+02  0.62500000959E+02  0.10000005167E+02 0.  0.
    3000022    2    5    5    0    0  0.35187820144E+01 -0.39523098481E+01  0.12878752594E+00  0.52992137193E+01  0.24999963181E+00 0.  0.
        -13    1    4    4    0    0 -0.44406193531E+01  0.13653834086E+02 -0.65830692181E+01  0.15795382579E+02  0.10500000000E+00 0. -1.
         13    1    4    4    0    0 -0.96703328823E+01  0.29484630622E+02 -0.14378599632E+02  0.34199618906E+02  0.10500000000E+00 0.  1.
    3000001    1    5    5    0    0  0.18078012104E+02 -0.47211275958E+02  0.26743428383E+02  0.57200787240E+02  0.10000000000E+01 0. -1.
        -13    1    6    6    0    0  0.16399457273E+01 -0.19000211147E+01  0.56627865987E-02  0.25120826602E+01  0.10500000000E+00 0.  1.
         13    1    6    6    0    0  0.18788362871E+01 -0.20522887334E+01  0.12312473934E+00  0.27871310591E+01  0.10500000000E+00 0. -1.
</event>
<event>
11    0  0.3483054E-009  0.9118800E+02  0.7816531E-02  0.1126479E+00
         25   -1    0    0    0    0  0.00000000000E+00  0.00000000000E+00  0.99999998245E-14  0.12500000000E+03  0.12500000000E+03 0.  0.
    3000001    1    3    3    0    0  0.13636899336E+01  0.28545491003E+01  0.17942822628E+00  0.33226939807E+01  0.10000000000E+01 0.  1.
    1000022    2    1    0    0    0  0.28576141945E+02  0.43500551794E+02 -0.33126365638E+02  0.62499999444E+02  0.99999967640E+01 0.  0.
    3000022    2    3    3    0    0  0.27212452012E+02  0.40646002693E+02 -0.33305793864E+02  0.59177305463E+02  0.24999504561E+00 0.  0.
    1000022    2    1    0    0    0 -0.28576141945E+02 -0.43500551794E+02  0.33126365638E+02  0.62500000556E+02  0.10000003718E+02 0.  0.
    3000022    2    5    5    0    0 -0.42122837204E+01 -0.23253167075E+01  0.11734279821E+01  0.49588170717E+01  0.25000318064E+00 0.  0.
        -13    1    4    4    0    0  0.11358998519E+02  0.17033225450E+02 -0.14004402430E+02  0.24805078694E+02  0.10500000000E+00 0. -1.
         13    1    4    4    0    0  0.15853453492E+02  0.23612777243E+02 -0.19301391434E+02  0.34372226769E+02  0.10500000000E+00 0.  1.
    3000001    1    5    5    0    0 -0.24363858225E+02 -0.41175235086E+02  0.31952937656E+02  0.57541183485E+02  0.10000000000E+01 0.  1.
        -13    1    6    6    0    0 -0.14449472935E+01 -0.73687188763E+00  0.40671062620E+00  0.16754973569E+01  0.10500000000E+00 0. -1.
         13    1    6    6    0    0 -0.27673364269E+01 -0.15884448199E+01  0.76671735586E+00  0.32833197148E+01  0.10500000000E+00 0.  1.
</event>
<event>
11    0  0.3483054E-009  0.9118800E+02  0.7816531E-02  0.1126479E+00
         25   -1    0    0    0    0  0.00000000000E+00  0.00000000000E+00  0.99999998245E-14  0.12500000000E+03  0.12500000000E+03 0.  0.
    3000001    1    3    3    0    0  0.20306214699E+02  0.26738206251E+02  0.48443216776E+02  0.58949294148E+02  0.10000000000E+01 0.  1.
    1000022    2    1    0    0    0  0.22066487382E+02  0.29661854560E+02  0.49391241402E+02  0.62500002494E+02  0.10000005159E+02 0.  0.
    3000022    2    3    3    0    0  0.17602726827E+01  0.29236483092E+01  0.94802462665E+00  0.35507083465E+01  0.24999943177E+00 0.  0.
    1000022    2    1    0    0    0 -0.22066487382E+02 -0.29661854560E+02 -0.49391241402E+02  0.62499997506E+02  0.99999739794E+01 0.  0.
    3000022    2    5    5    0    0 -0.17682480470E+02 -0.17635200767E+02 -0.27725233261E+02  0.37315164235E+02  0.25000175410E+00 0.  0.
        -13    1    4    4    0    0  0.86482757053E+00  0.14355799441E+01  0.39527935233E+00  0.17251339859E+01  0.10500000000E+00 0.  1.
         13    1    4    4    0    0  0.89544511221E+00  0.14880683650E+01  0.55274527432E+00  0.18255743606E+01  0.10500000000E+00 0. -1.
    3000001    1    5    5    0    0 -0.43840069124E+01 -0.12026653794E+02 -0.21666008141E+02  0.25184833270E+02  0.10000000000E+01 0.  1.
        -13    1    6    6    0    0 -0.11956500527E+02 -0.11985022821E+02 -0.18752171920E+02  0.25263682502E+02  0.10500000000E+00 0.  1.
         13    1    6    6    0    0 -0.57259799431E+01 -0.56501779460E+01 -0.89730613419E+01  0.12051481734E+02  0.10500000000E+00 0. -1.
</event>
<event>
11    0  0.3483054E-009  0.9118800E+02  0.7816531E-02  0.1126479E+00
         25   -1    0    0    0    0  0.00000000000E+00  0.00000000000E+00  0.99999998245E-14  0.12500000000E+03  0.12500000000E+03 0.  0.
    3000001    1    3    3    0    0  0.58982337858E+01 -0.46208769940E+02  0.23303724246E+01  0.46652654981E+02  0.10000000000E+01 0. -1.
    1000022    2    1    0    0    0  0.13204819921E+02 -0.60093459174E+02  0.45451433750E+01  0.62500005062E+02  0.10000059991E+02 0.  0.
    3000022    2    3    3    0    0  0.73065861357E+01 -0.13884689234E+02  0.22147709503E+01  0.15847350081E+02  0.24999629104E+00 0.  0.
    1000022    2    1    0    0    0 -0.13204819921E+02  0.60093459174E+02 -0.45451433750E+01  0.62499994938E+02  0.99999967157E+01 0.  0.
    3000022    2    5    5    0    0 -0.65191916718E+01  0.41711316535E+02 -0.68808364407E+01  0.42775485940E+02  0.25000040591E+00 0.  0.
        -13    1    4    4    0    0  0.18569431990E+01 -0.35002436458E+01  0.58413373028E+00  0.40065172955E+01  0.10500000000E+00 0.  1.
         13    1    4    4    0    0  0.54496429367E+01 -0.10384445588E+02  0.16306372200E+01  0.11840832785E+02  0.10500000000E+00 0. -1.
    3000001    1    5    5    0    0 -0.66856282497E+01  0.18382142639E+02  0.23356930658E+01  0.19724508998E+02  0.10000000000E+01 0.  1.
        -13    1    6    6    0    0 -0.17545172846E+01  0.11391698648E+02 -0.19058729012E+01  0.11683000706E+02  0.10500000000E+00 0.  1.
         13    1    6    6    0    0 -0.47646743872E+01  0.30319617887E+02 -0.49749635395E+01  0.31092485234E+02  0.10500000000E+00 0. -1.
</event>
<event>
11    0  0.3483054E-009  0.9118800E+02  0.7816531E-02  0.1126479E+00
         25   -1    0    0    0    0  0.00000000000E+00  0.00000000000E+00  0.99999998245E-14  0.12500000000E+03  0.12500000000E+03 0.  0.
    3000001    1    3    3    0    0 -0.54510430305E+01 -0.43253794266E+01 -0.36673193392E+01  0.79291871236E+01  0.10000000000E+01 0. -1.
    1000022    2    1    0    0    0 -0.51425100565E+02 -0.10644290528E+02 -0.32379132793E+02  0.62499997430E+02  0.99999774686E+01 0.  0.
    3000022    2    3    3    0    0 -0.45974057534E+02 -0.63189111014E+01 -0.28711813454E+02  0.54570810306E+02  0.25000403340E+00 0.  0.
    1000022    2    1    0    0    0  0.51425100565E+02  0.10644290528E+02  0.32379132793E+02  0.62500002570E+02  0.10000009599E+02 0.  0.
    3000022    2    5    5    0    0  0.24450659761E+02  0.55268579296E+01  0.97186493109E+01  0.26886717343E+02  0.25000745940E+00 0.  0.
        -13    1    4    4    0    0 -0.33907822558E+02 -0.46576721550E+01 -0.21137349190E+02  0.40227265584E+02  0.10500000000E+00 0. -1.
         13    1    4    4    0    0 -0.12066234976E+02 -0.16612389463E+01 -0.75744642639E+01  0.14343544723E+02  0.10500000000E+00 0.  1.
    3000001    1    5    5    0    0  0.26974440804E+02  0.51174325984E+01  0.22660483482E+02  0.35613285227E+02  0.10000000000E+01 0. -1.
        -13    1    6    6    0    0  0.12509764154E+02  0.28787886215E+01  0.50260108642E+01  0.13785986846E+02  0.10500000000E+00 0.  1.
         13    1    6    6    0    0  0.11940895607E+02  0.26480693081E+01  0.46926384467E+01  0.13100730497E+02  0.10500000000E+00 0. -1.
</event>
<event>
11    0  0.3483054E-009  0.9118800E+02  0.7816531E-02  0.1126479E+00
         25   -1    0    0    0    0  0.00000000000E+00  0.00000000000E+00  0.99999998245E-14  0.12500000000E+03  0.12500000000E+03 0.  0.
    3000001    1    3    3    0    0  0.42281329644E+02  0.27034479579E+02  0.27211834316E+02  0.57096916287E+02  0.10000000000E+01 0. -1.
    1000022    2    1    0    0    0  0.46077083327E+02  0.26823130792E+02  0.31043066734E+02  0.62499995352E+02  0.99999736707E+01 0.  0.
    3000022    2    3    3    0    0  0.37957536827E+01 -0.21134878753E+00  0.38312324179E+01  0.54030790657E+01  0.25001444089E+00 0.  0.
    1000022    2    1    0    0    0 -0.46077083327E+02 -0.26823130792E+02 -0.31043066734E+02  0.62500004648E+02  0.10000031767E+02 0.  0.
    3000022    2    5    5    0    0 -0.32195794163E+02 -0.14086031762E+02 -0.17379064894E+02  0.39205609896E+02  0.24999635557E+00 0.  0.
        -13    1    4    4    0    0  0.21182598651E+01 -0.52906700429E-01  0.21143479272E+01  0.29952155402E+01  0.10500000000E+00 0.  1.
         13    1    4    4    0    0  0.16774938176E+01 -0.15844208711E+00  0.17168844907E+01  0.24078635255E+01  0.10500000000E+00 0. -1.
    3000001    1    5    5    0    0 -0.13881289164E+02 -0.12737099030E+02 -0.13664001840E+02  0.23294394752E+02  0.10000000000E+01 0. -1.
        -13    1    6    6    0    0 -0.11602878433E+02 -0.50696910495E+01 -0.61974513396E+01  0.14097800657E+02  0.10500000000E+00 0.  1.
         13    1    6    6    0    0 -0.20592915730E+02 -0.90163407123E+01 -0.11181613554E+02  0.25107809239E+02  0.10500000000E+00 0. -1.
</event>
<event>
11    0  0.3483054E-009  0.9118800E+02  0.7816531E-02  0.1126479E+00
         25   -1    0    0    0    0  0.00000000000E+00  0.00000000000E+00  0.99999998245E-14  0.12500000000E+03  0.12500000000E+03 0.  0.
    3000001    1    3    3    0    0  0.28185514894E+01  0.44631032489E+02 -0.31557968608E+02  0.54742841324E+02  0.10000000000E+01 0.  1.
    1000022    2    1    0    0    0  0.65912017135E+00  0.48821180970E+02 -0.37713498409E+02  0.62500001867E+02  0.10000006021E+02 0.  0.
    3000022    2    3    3    0    0 -0.21594313181E+01  0.41901484811E+01 -0.61555298013E+01  0.77571605435E+01  0.25000930315E+00 0.  0.
    1000022    2    1    0    0    0 -0.65912017135E+00 -0.48821180970E+02  0.37713498409E+02  0.62499998133E+02  0.99999826786E+01 0.  0.
    3000022    2    5    5    0    0  0.41589466064E-01 -0.90718369050E+01  0.12372965462E+02  0.15344468683E+02  0.24998065449E+00 0.  0.
        -13    1    4    4    0    0 -0.13435973427E+01  0.27305456689E+01 -0.39556279273E+01  0.49919085296E+01  0.10500000000E+00 0. -1.
         13    1    4    4    0    0 -0.81583397543E+00  0.14596028122E+01 -0.21999018741E+01  0.27652520139E+01  0.10500000000E+00 0.  1.
    3000001    1    5    5    0    0 -0.70070963742E+00 -0.39749344065E+02  0.25340532947E+02  0.47155529450E+02  0.10000000000E+01 0.  1.
        -13    1    6    6    0    0  0.85412473712E-01 -0.51434502482E+01  0.70524283780E+01  0.87298423109E+01  0.10500000000E+00 0. -1.
         13    1    6    6    0    0 -0.43823007647E-01 -0.39283866567E+01  0.53205370836E+01  0.66146263719E+01  0.10500000000E+00 0.  1.
</event>
<event>
11    0  0.3483054E-009  0.9118800E+02  0.7816531E-02  0.1126479E+00
         25   -1    0    0    0    0  0.00000000000E+00  0.00000000000E+00  0.99999998245E-14  0.12500000000E+03  0.12500000000E+03 0.  0.
    3000001    1    3    3    0    0 -0.16696275463E+01 -0.63567659980E+01 -0.67556668163E+00  0.66822541434E+01  0.10000000000E+01 0.  1.
    1000022    2    1    0    0    0  0.60665582548E+01 -0.56904574398E+02 -0.23050300829E+02  0.62499999861E+02  0.99999948942E+01 0.  0.
    3000022    2    3    3    0    0  0.77361858011E+01 -0.50547808400E+02 -0.22374734147E+02  0.55817745717E+02  0.25000813614E+00 0.  0.
    1000022    2    1    0    0    0 -0.60665582548E+01  0.56904574398E+02  0.23050300829E+02  0.62500000139E+02  0.99999966328E+01 0.  0.
    3000022    2    5    5    0    0  0.25354603665E+01  0.73056277728E+01  0.34197139098E+01  0.84591806279E+01  0.25007448138E+00 0.  0.
        -13    1    4    4    0    0  0.28152344925E+01 -0.18412951935E+02 -0.80862519056E+01  0.20306669818E+02  0.10500000000E+00 0. -1.
         13    1    4    4    0    0  0.49209513086E+01 -0.32134856465E+02 -0.14288482241E+02  0.35511075900E+02  0.10500000000E+00 0.  1.
    3000001    1    5    5    0    0 -0.86020186213E+01  0.49598946625E+02  0.19630586919E+02  0.54040819511E+02  0.10000000000E+01 0. -1.
        -13    1    6    6    0    0  0.19334942430E+01  0.55908118858E+01  0.26003708859E+01  0.64628578257E+01  0.10500000000E+00 0.  1.
         13    1    6    6    0    0  0.60196612355E+00  0.17148158870E+01  0.81934302385E+00  0.19963228023E+01  0.10500000000E+00 0. -1.
</event>
<event>
11    0  0.3483054E-009  0.9118800E+02  0.7816531E-02  0.1126479E+00
         25   -1    0    0    0    0  0.00000000000E+00  0.00000000000E+00  0.99999998245E-14  0.12500000000E+03  0.12500000000E+03 0.  0.
    3000001    1    3    3    0    0  0.10787832873E+02  0.20822314672E+02  0.43138880251E+01  0.23865367299E+02  0.10000000000E+01 0.  1.
    1000022    2    1    0    0    0  0.19610728259E+02  0.54825154815E+02  0.20392937145E+02  0.62500001292E+02  0.10000000639E+02 0.  0.
    3000022    2    3    3    0    0  0.88228953853E+01  0.34002840143E+02  0.16079049120E+02  0.38634633993E+02  0.25000486013E+00 0.  0.
    1000022    2    1    0    0    0 -0.19610728259E+02 -0.54825154815E+02 -0.20392937145E+02  0.62499998708E+02  0.99999844882E+01 0.  0.
    3000022    2    5    5    0    0 -0.43874772635E+01 -0.11262006586E+02 -0.12719088408E+00  0.12089724695E+02  0.25003322462E+00 0.  0.
        -13    1    4    4    0    0  0.25311240742E+01  0.99277136181E+01  0.46884867587E+01  0.11267609323E+02  0.10500000000E+00 0. -1.
         13    1    4    4    0    0  0.62917713111E+01  0.24075126525E+02  0.11390562361E+02  0.27367024671E+02  0.10500000000E+00 0.  1.
    3000001    1    5    5    0    0 -0.15223250995E+02 -0.43563148229E+02 -0.20265746261E+02  0.50410274013E+02  0.10000000000E+01 0.  1.
        -13    1    6    6    0    0 -0.23606214561E+01 -0.60385062268E+01 -0.14107480379E-02  0.64843749198E+01  0.10500000000E+00 0. -1.
         13    1    6    6    0    0 -0.20268558073E+01 -0.52235003590E+01 -0.12578013604E+00  0.56053497756E+01  0.10500000000E+00 0.  1.
</event>
<event>
11    0  0.3483054E-009  0.9118800E+02  0.7816531E-02  0.1126479E+00
         25   -1    0    0    0    0  0.00000000000E+00  0.00000000000E+00  0.99999998245E-14  0.12500000000E+03  0.12500000000E+03 0.  0.
    3000001    1    3    3    0    0 -0.25728846465E+02  0.28255819499E+02  0.16465009358E+02  0.41622847201E+02  0.10000000000E+01 0.  1.
    1000022    2    1    0    0    0 -0.32569345786E+02  0.45935067102E+02  0.25208291051E+02  0.62500004414E+02  0.99999969733E+01 0.  0.
    3000022    2    3    3    0    0 -0.68404993218E+01  0.17679247603E+02  0.87432816929E+01  0.20877157213E+02  0.24998353421E+00 0.  0.
    1000022    2    1    0    0    0  0.32569345786E+02 -0.45935067102E+02 -0.25208291051E+02  0.62499995586E+02  0.99999417928E+01 0.  0.
    3000022    2    5    5    0    0  0.31782604099E+02 -0.42465447645E+02 -0.21409925225E+02  0.57200485739E+02  0.25000737885E+00 0.  0.
        -13    1    4    4    0    0 -0.46185506169E+01  0.11789124159E+02  0.58414673010E+01  0.13944469279E+02  0.10500000000E+00 0. -1.
         13    1    4    4    0    0 -0.22219487048E+01  0.58901234443E+01  0.29018143919E+01  0.69326879348E+01  0.10500000000E+00 0.  1.
    3000001    1    5    5    0    0  0.78674168728E+00 -0.34696194574E+01 -0.37983658262E+01  0.52995098463E+01  0.10000000000E+01 0. -1.
        -13    1    6    6    0    0  0.21315784577E+02 -0.28511559099E+02 -0.14422140543E+02  0.38409384754E+02  0.10500000000E+00 0.  1.
         13    1    6    6    0    0  0.10466819522E+02 -0.13953888546E+02 -0.69877846817E+01  0.18791100985E+02  0.10500000000E+00 0. -1.
</event>
<event>
11    0  0.3483054E-009  0.9118800E+02  0.7816531E-02  0.1126479E+00
         25   -1    0    0    0    0  0.00000000000E+00  0.00000000000E+00  0.99999998245E-14  0.12500000000E+03  0.12500000000E+03 0.  0.
    3000001    1    3    3    0    0  0.15781562966E+02  0.16446868608E+02  0.39438672655E+01  0.23154077517E+02  0.10000000000E+01 0. -1.
    1000022    2    1    0    0    0  0.31927822959E+02  0.51181605055E+02  0.12934730065E+02  0.62500001574E+02  0.10000018997E+02 0.  0.
    3000022    2    3    3    0    0  0.16146259993E+02  0.34734736447E+02  0.89908627996E+01  0.39345924057E+02  0.24999636700E+00 0.  0.
    1000022    2    1    0    0    0 -0.31927822959E+02 -0.51181605055E+02 -0.12934730065E+02  0.62499998426E+02  0.99999993211E+01 0.  0.
    3000022    2    5    5    0    0 -0.28464067498E+02 -0.48673378462E+02 -0.13737861779E+02  0.58035267405E+02  0.25001415293E+00 0.  0.
        -13    1    4    4    0    0  0.37190892185E+01  0.79886836556E+01  0.20639177742E+01  0.90510481571E+01  0.10500000000E+00 0. -1.
         13    1    4    4    0    0  0.12427170775E+02  0.26746052792E+02  0.69269450253E+01  0.30294875900E+02  0.10500000000E+00 0.  1.
    3000001    1    5    5    0    0 -0.34637554612E+01 -0.25082265935E+01  0.80313171402E+00  0.44647310210E+01  0.10000000000E+01 0.  1.
        -13    1    6    6    0    0 -0.14501017086E+02 -0.24708552391E+02 -0.69275400963E+01  0.29475309914E+02  0.10500000000E+00 0.  1.
         13    1    6    6    0    0 -0.13963050412E+02 -0.23964826071E+02 -0.68103216828E+01  0.28559957491E+02  0.10500000000E+00 0. -1.
</event>
<event>
11    0  0.3483054E-009  0.9118800E+02  0.7816531E-02  0.1126479E+00
         25   -1    0    0    0    0  0.00000000000E+00  0.00000000000E+00  0.99999998245E-14  0.12500000000E+03  0.12500000000E+03 0.  0.
    3000001    1    3    3    0    0 -0.35490807672E+02  0.12710037219E+02 -0.28626924971E+02  0.47345995698E+02  0.10000000000E+01 0.  1.
    1000022    2    1    0    0    0 -0.42469185819E+02  0.18963305221E+02 -0.40534075790E+02  0.62500000514E+02  0.10000003752E+02 0.  0.
    3000022    2    3    3    0    0 -0.69783781471E+01  0.62532680010E+01 -0.11907150819E+02  0.15154004816E+02  0.24999814893E+00 0.  0.
    1000022    2    1    0    0    0  0.42469185819E+02 -0.18963305221E+02  0.40534075790E+02  0.62499999486E+02  0.99999973287E+01 0.  0.
    3000022    2    5    5    0    0  0.32670059830E+02 -0.16227140617E+02  0.36212898722E+02  0.51401259101E+02  0.25000275838E+00 0.  0.
        -13    1    4    4    0    0 -0.32528643814E+01  0.29846615573E+01 -0.55403158530E+01  0.70848751610E+01  0.10500000000E+00 0.  1.
         13    1    4    4    0    0 -0.37255137656E+01  0.32686064437E+01 -0.63668349661E+01  0.80691296549E+01  0.10500000000E+00 0. -1.
    3000001    1    5    5    0    0  0.97991259892E+01 -0.27361646031E+01  0.43211770680E+01  0.11098740385E+02  0.10000000000E+01 0. -1.
        -13    1    6    6    0    0  0.23507866016E+02 -0.11699511357E+02  0.26114743048E+02  0.37033622022E+02  0.10500000000E+00 0.  1.
         13    1    6    6    0    0  0.91621938138E+01 -0.45276292600E+01  0.10098155674E+02  0.14367637079E+02  0.10500000000E+00 0. -1.
</event>
<event>
11    0  0.3483054E-009  0.9118800E+02  0.7816531E-02  0.1126479E+00
         25   -1    0    0    0    0  0.00000000000E+00  0.00000000000E+00  0.99999998245E-14  0.12500000000E+03  0.12500000000E+03 0.  0.
    3000001    1    3    3    0    0 -0.27737764799E+02 -0.52385135682E+01 -0.22889628504E+02  0.36356027196E+02  0.10000000000E+01 0. -1.
    1000022    2    1    0    0    0 -0.41725154735E+02 -0.13259946639E+02 -0.43467634873E+02  0.62499999860E+02  0.99999989262E+01 0.  0.
    3000022    2    3    3    0    0 -0.13987389936E+02 -0.80214330710E+01 -0.20578006370E+02  0.26143972664E+02  0.24998956875E+00 0.  0.
    1000022    2    1    0    0    0  0.41725154735E+02  0.13259946639E+02  0.43467634873E+02  0.62500000140E+02  0.10000000671E+02 0.  0.
    3000022    2    5    5    0    0  0.67938041584E+01  0.25299449552E+00  0.11609375204E+02  0.13455848946E+02  0.24999411314E+00 0.  0.
        -13    1    4    4    0    0 -0.96947721724E+01 -0.56087888987E+01 -0.14326205373E+02  0.18185112201E+02  0.10500000000E+00 0.  1.
         13    1    4    4    0    0 -0.42926177638E+01 -0.24126441723E+01 -0.62518009968E+01  0.79588604631E+01  0.10500000000E+00 0. -1.
    3000001    1    5    5    0    0  0.34931350577E+02  0.13006952144E+02  0.31858259669E+02  0.49044151194E+02  0.10000000000E+01 0. -1.
        -13    1    6    6    0    0  0.36067926229E+01  0.71605223433E-01  0.61098723879E+01  0.70961712161E+01  0.10500000000E+00 0. -1.
         13    1    6    6    0    0  0.31870115355E+01  0.18138927209E+00  0.54995028166E+01  0.63596777296E+01  0.10500000000E+00 0.  1.
</event>
<event>
11    0  0.3483054E-009  0.9118800E+02  0.7816531E-02  0.1126479E+00
         25   -1    0    0    0    0  0.00000000000E+00  0.00000000000E+00  0.99999998245E-14  0.12500000000E+03  0.12500000000E+03 0.  0.
    3000001    1    3    3    0    0  0.22073597614E+01 -0.22766004459E+01  0.84033987081E+01  0.90372814803E+01  0.10000000000E+01 0. -1.
    1000022    2    1    0    0    0  0.33743471934E+02 -0.23560437012E+02  0.45962309089E+02  0.62500000439E+02  0.10000005388E+02 0.  0.
    3000022    2    3    3    0    0  0.31536112173E+02 -0.21283836566E+02  0.37558910381E+02  0.53462718959E+02  0.24999908935E+00 0.  0.
    1000022    2    1    0    0    0 -0.33743471934E+02  0.23560437012E+02 -0.45962309089E+02  0.62499999561E+02  0.99999998950E+01 0.  0.
    3000022    2    5    5    0    0 -0.21082393275E+02  0.11367173117E+02 -0.20408945840E+02  0.31468516022E+02  0.24999898569E+00 0.  0.
        -13    1    4    4    0    0  0.15335132908E+02 -0.10415183799E+02  0.18242991981E+02  0.26008847270E+02  0.10500000000E+00 0. -1.
         13    1    4    4    0    0  0.16200979265E+02 -0.10868652768E+02  0.19315918400E+02  0.27453871690E+02  0.10500000000E+00 0.  1.
    3000001    1    5    5    0    0 -0.12661078659E+02  0.12193263896E+02 -0.25553363249E+02  0.31031483538E+02  0.10000000000E+01 0.  1.
        -13    1    6    6    0    0 -0.48282630425E+01  0.26004943847E+01 -0.46757849437E+01  0.72075436102E+01  0.10500000000E+00 0. -1.
         13    1    6    6    0    0 -0.16254130232E+02  0.87666787319E+01 -0.15733160896E+02  0.24260972412E+02  0.10500000000E+00 0.  1.
</event>
<event>
11    0  0.3483054E-009  0.9118800E+02  0.7816531E-02  0.1126479E+00
         25   -1    0    0    0    0  0.00000000000E+00  0.00000000000E+00  0.99999998245E-14  0.12500000000E+03  0.12500000000E+03 0.  0.
    3000001    1    3    3    0    0  0.26514653405E+00 -0.14779694734E+02 -0.47352732802E+02  0.49616438636E+02  0.10000000000E+01 0. -1.
    1000022    2    1    0    0    0 -0.28796833874E+01 -0.14719408754E+02 -0.59843932806E+02  0.62500000418E+02  0.10000009399E+02 0.  0.
    3000022    2    3    3    0    0 -0.31448299214E+01  0.60285979805E-01 -0.12491200004E+02  0.12883561781E+02  0.24999398718E+00 0.  0.
    1000022    2    1    0    0    0  0.28796833874E+01  0.14719408754E+02  0.59843932806E+02  0.62499999582E+02  0.10000004180E+02 0.  0.
    3000022    2    5    5    0    0  0.39903193326E+01  0.19856398013E+01  0.24478838648E+02  0.24882553247E+02  0.25000151062E+00 0.  0.
        -13    1    4    4    0    0 -0.72751255653E+00  0.23861009208E-01 -0.29298612380E+01  0.30207541677E+01  0.10500000000E+00 0. -1.
         13    1    4    4    0    0 -0.24173173649E+01  0.36424970598E-01 -0.95613387659E+01  0.98628076134E+01  0.10500000000E+00 0.  1.
    3000001    1    5    5    0    0 -0.11106359452E+01  0.12733768953E+02  0.35365094159E+02  0.37617446335E+02  0.10000000000E+01 0.  1.
        -13    1    6    6    0    0  0.12167830386E+01  0.56634457266E+00  0.72162188902E+01  0.73407184396E+01  0.10500000000E+00 0.  1.
         13    1    6    6    0    0  0.27735362941E+01  0.14192952286E+01  0.17262619758E+02  0.17541834808E+02  0.10500000000E+00 0. -1.
</event>
<event>
11    0  0.3483054E-009  0.9118800E+02  0.7816531E-02  0.1126479E+00
         25   -1    0    0    0    0  0.00000000000E+00  0.00000000000E+00  0.99999998245E-14  0.12500000000E+03  0.12500000000E+03 0.  0.
    3000001    1    3    3    0    0 -0.18841562425E+02 -0.21897939815E+02 -0.59204285300E+01  0.29505520106E+02  0.10000000000E+01 0.  1.
    1000022    2    1    0    0    0 -0.34358011155E+02 -0.46560536147E+02 -0.21398453373E+02  0.62499998244E+02  0.99999758465E+01 0.  0.
    3000022    2    3    3    0    0 -0.15516448730E+02 -0.24662596332E+02 -0.15478024843E+02  0.32994478138E+02  0.24999106242E+00 0.  0.
    1000022    2    1    0    0    0  0.34358011155E+02  0.46560536147E+02  0.21398453373E+02  0.62500001756E+02  0.99999977919E+01 0.  0.
    3000022    2    5    5    0    0  0.23918213662E+02  0.38057809352E+02  0.18935094653E+02  0.48775794280E+02  0.25000130330E+00 0.  0.
        -13    1    4    4    0    0 -0.41602460524E+01 -0.65481653458E+01 -0.41175609098E+01  0.87835897820E+01  0.10500000000E+00 0. -1.
         13    1    4    4    0    0 -0.11356202678E+02 -0.18114430986E+02 -0.11360463933E+02  0.24210888356E+02  0.10500000000E+00 0.  1.
    3000001    1    5    5    0    0  0.10439797493E+02  0.85027267957E+01  0.24633587193E+01  0.13724207476E+02  0.10000000000E+01 0. -1.
        -13    1    6    6    0    0  0.15438169583E+02  0.24516510367E+02  0.12148793377E+02  0.31416565156E+02  0.10500000000E+00 0.  1.
         13    1    6    6    0    0  0.84800440788E+01  0.13541298984E+02  0.67863012767E+01  0.17359229124E+02  0.10500000000E+00 0. -1.
</event>
<event>
11    0  0.3483054E-009  0.9118800E+02  0.7816531E-02  0.1126479E+00
         25   -1    0    0    0    0  0.00000000000E+00  0.00000000000E+00  0.99999998245E-14  0.12500000000E+03  0.12500000000E+03 0.  0.
    3000001    1    3    3    0    0 -0.18007995400E+02  0.14784826387E+02 -0.17104741748E+02  0.28921465729E+02  0.10000000000E+01 0. -1.
    1000022    2    1    0    0    0 -0.30372823302E+02  0.38273454118E+02 -0.37668078502E+02  0.62499999377E+02  0.10000004932E+02 0.  0.
    3000022    2    3    3    0    0 -0.12364827902E+02  0.23488627731E+02 -0.20563336754E+02  0.33578533649E+02  0.25000359103E+00 0.  0.
    1000022    2    1    0    0    0  0.30372823302E+02 -0.38273454118E+02  0.37668078502E+02  0.62500000623E+02  0.10000012715E+02 0.  0.
    3000022    2    5    5    0    0  0.82988926996E+01 -0.17668483201E+02  0.12534672214E+02  0.23199728991E+02  0.24999807208E+00 0.  0.
        -13    1    4    4    0    0 -0.46059513511E+01  0.87893175821E+01 -0.77596398236E+01  0.12597219003E+02  0.10500000000E+00 0.  1.
         13    1    4    4    0    0 -0.77588765509E+01  0.14699310149E+02 -0.12803696931E+02  0.20981314646E+02  0.10500000000E+00 0. -1.
    3000001    1    5    5    0    0  0.22073930602E+02 -0.20604970917E+02  0.25133406288E+02  0.39300271632E+02  0.10000000000E+01 0.  1.
        -13    1    6    6    0    0  0.52862938444E+01 -0.11114749964E+02  0.79025666076E+01  0.14626829915E+02  0.10500000000E+00 0.  1.
         13    1    6    6    0    0  0.30125988551E+01 -0.65537332369E+01  0.46321056068E+01  0.85728990753E+01  0.10500000000E+00 0. -1.
</event>
<event>
11    0  0.3483054E-009  0.9118800E+02  0.7816531E-02  0.1126479E+00
         25   -1    0    0    0    0  0.00000000000E+00  0.00000000000E+00  0.99999998245E-14  0.12500000000E+03  0.12500000000E+03 0.  0.
    3000001    1    3    3    0    0 -0.10755449929E+02 -0.96196723265E+01  0.24980665894E+01  0.14678492277E+02  0.10000000000E+01 0. -1.
    1000022    2    1    0    0    0 -0.55039799801E+02 -0.27629455732E+02  0.36719893429E+01  0.62499999286E+02  0.10000000946E+02 0.  0.
    3000022    2    3    3    0    0 -0.44284349871E+02 -0.18009783406E+02  0.11739227536E+01  0.47821507009E+02  0.24999228943E+00 0.  0.
    1000022    2    1    0    0    0  0.55039799801E+02  0.27629455732E+02 -0.36719893429E+01  0.62500000714E+02  0.10000009865E+02 0.  0.
    3000022    2    5    5    0    0  0.23912443356E+02  0.79943298447E+01 -0.47947358400E+01  0.25666441999E+02  0.24999243262E+00 0.  0.
        -13    1    4    4    0    0 -0.30829632306E+02 -0.12502078431E+02  0.85004332488E+00  0.33279149507E+02  0.10500000000E+00 0.  1.
         13    1    4    4    0    0 -0.13454717565E+02 -0.55077049748E+01  0.32387942868E+00  0.14542357503E+02  0.10500000000E+00 0. -1.
    3000001    1    5    5    0    0  0.31127356445E+02  0.19635125888E+02  0.11227464971E+01  0.36833558714E+02  0.10000000000E+01 0. -1.
        -13    1    6    6    0    0  0.57771221646E+01  0.19434351030E+01 -0.11415784328E+01  0.62021211551E+01  0.10500000000E+00 0.  1.
         13    1    6    6    0    0  0.18135321191E+02  0.60508947417E+01 -0.36531574072E+01  0.19464320844E+02  0.10500000000E+00 0. -1.
</event>
<event>
11    0  0.3483054E-009  0.9118800E+02  0.7816531E-02  0.1126479E+00
         25   -1    0    0    0    0  0.00000000000E+00  0.00000000000E+00  0.99999998245E-14  0.12500000000E+03  0.12500000000E+03 0.  0.
    3000001    1    3    3    0    0 -0.93646839077E+01  0.50382338062E+02 -0.17299807773E+02  0.54095846812E+02  0.10000000000E+01 0.  1.
    1000022    2    1    0    0    0 -0.73536196371E+01  0.57331971785E+02 -0.21568946150E+02  0.62499999518E+02  0.99999895556E+01 0.  0.
    3000022    2    3    3    0    0  0.20110642705E+01  0.69496337235E+01 -0.42691383768E+01  0.84041527060E+01  0.24990365172E+00 0.  0.
    1000022    2    1    0    0    0  0.73536196371E+01 -0.57331971785E+02  0.21568946150E+02  0.62500000482E+02  0.99999955851E+01 0.  0.
    3000022    2    5    5    0    0  0.31023788140E+01 -0.47507678812E+02  0.15072612297E+02  0.49938466560E+02  0.25000089029E+00 0.  0.
        -13    1    4    4    0    0  0.15262884234E+01  0.51703101118E+01 -0.31817468073E+01  0.62606869231E+01  0.10500000000E+00 0. -1.
         13    1    4    4    0    0  0.48477584710E+00  0.17793236117E+01 -0.10873915695E+01  0.21434657829E+01  0.10500000000E+00 0.  1.
    3000001    1    5    5    0    0  0.42512408231E+01 -0.98242929732E+01  0.64963338534E+01  0.12561533923E+02  0.10000000000E+01 0.  1.
        -13    1    6    6    0    0  0.19019168166E+01 -0.29453373055E+02  0.94038115088E+01  0.30976784336E+02  0.10500000000E+00 0.  1.
         13    1    6    6    0    0  0.12004619974E+01 -0.18054305757E+02  0.56688007881E+01  0.18961682224E+02  0.10500000000E+00 0. -1.
</event>
<event>
11    0  0.3483054E-009  0.9118800E+02  0.7816531E-02  0.1126479E+00
         25   -1    0    0    0    0  0.00000000000E+00  0.00000000000E+00  0.99999998245E-14  0.12500000000E+03  0.12500000000E+03 0.  0.
    3000001    1    3    3    0    0  0.43097713966E+02 -0.15364533288E+02  0.52607169258E+01  0.46066875028E+02  0.10000000000E+01 0. -1.
    1000022    2    1    0    0    0  0.58362271743E+02 -0.19961392170E+02  0.12798605845E+01  0.62499998698E+02  0.99999926861E+01 0.  0.
    3000022    2    3    3    0    0  0.15264557777E+02 -0.45968588817E+01 -0.39808563413E+01  0.16433123670E+02  0.25000125869E+00 0.  0.
    1000022    2    1    0    0    0 -0.58362271743E+02  0.19961392170E+02 -0.12798605845E+01  0.62500001302E+02  0.10000008962E+02 0.  0.
    3000022    2    5    5    0    0 -0.38545848810E+01  0.39936707907E+01 -0.12402797380E+01  0.56928044009E+01  0.24999425788E+00 0.  0.
        -13    1    4    4    0    0  0.95833149624E+01 -0.29417042552E+01 -0.24755517454E+01  0.10326322242E+02  0.10500000000E+00 0.  1.
         13    1    4    4    0    0  0.56812428148E+01 -0.16551546265E+01 -0.15053045960E+01  0.61068014283E+01  0.10500000000E+00 0. -1.
    3000001    1    5    5    0    0 -0.54507686862E+02  0.15967721379E+02 -0.39580846518E-01  0.56807196901E+02  0.10000000000E+01 0. -1.
        -13    1    6    6    0    0 -0.14854645572E+01  0.14772121982E+01 -0.51200127892E+00  0.21591505595E+01  0.10500000000E+00 0.  1.
         13    1    6    6    0    0 -0.23691203238E+01  0.25164585926E+01 -0.72827845903E+00  0.35336538414E+01  0.10500000000E+00 0. -1.
</event>
<event>
11    0  0.3483054E-009  0.9118800E+02  0.7816531E-02  0.1126479E+00
         25   -1    0    0    0    0  0.00000000000E+00  0.00000000000E+00  0.99999998245E-14  0.12500000000E+03  0.12500000000E+03 0.  0.
    3000001    1    3    3    0    0  0.13617791011E+02 -0.14169625439E+02 -0.40898810433E+02  0.45386509141E+02  0.10000000000E+01 0. -1.
    1000022    2    1    0    0    0  0.13039207212E+02 -0.21623804452E+02 -0.56290676193E+02  0.62500000079E+02  0.99999969935E+01 0.  0.
    3000022    2    3    3    0    0 -0.57858379950E+00 -0.74541790132E+01 -0.15391865759E+02  0.17113490938E+02  0.24999310004E+00 0.  0.
    1000022    2    1    0    0    0 -0.13039207212E+02  0.21623804452E+02  0.56290676193E+02  0.62499999921E+02  0.99999960110E+01 0.  0.
    3000022    2    5    5    0    0  0.15724226927E+01  0.13253601517E+01  0.54819422205E+01  0.58603140345E+01  0.24999483539E+00 0.  0.
        -13    1    4    4    0    0 -0.23232754943E+00 -0.23550521345E+01 -0.48912204439E+01  0.54346397375E+01  0.10500000000E+00 0.  1.
         13    1    4    4    0    0 -0.34625625007E+00 -0.50991268787E+01 -0.10500645316E+02  0.11678851200E+02  0.10500000000E+00 0. -1.
    3000001    1    5    5    0    0 -0.14611629904E+02  0.20298444301E+02  0.50808733972E+02  0.56639685887E+02  0.10000000000E+01 0. -1.
        -13    1    6    6    0    0  0.66032682791E+00  0.59608089562E+00  0.22103073771E+01  0.23849166977E+01  0.10500000000E+00 0. -1.
         13    1    6    6    0    0  0.91209586482E+00  0.72927925606E+00  0.32716348434E+01  0.34753973368E+01  0.10500000000E+00 0.  1.
</event>
<event>
11    0  0.3483054E-009  0.9118800E+02  0.7816531E-02  0.1126479E+00
         25   -1    0    0    0    0  0.00000000000E+00  0.00000000000E+00  0.99999998245E-14  0.12500000000E+03  0.12500000000E+03 0.  0.
    3000001    1    3    3    0    0 -0.33269987383E+02  0.36772371558E+01  0.35724429403E+02  0.48965794078E+02  0.10000000000E+01 0. -1.
    1000022    2    1    0    0    0 -0.45012927041E+02  0.17155370091E+01  0.42156175683E+02  0.62500000848E+02  0.10000014487E+02 0.  0.
    3000022    2    3    3    0    0 -0.11742939659E+02 -0.19617001466E+01  0.64317462793E+01  0.13534206769E+02  0.24998676773E+00 0.  0.
    1000022    2    1    0    0    0  0.45012927041E+02 -0.17155370091E+01 -0.42156175683E+02  0.62499999152E+02  0.10000003891E+02 0.  0.
    3000022    2    5    5    0    0  0.89468476617E+01 -0.57865253070E+00 -0.35486811268E+01  0.96455459436E+01  0.24999395359E+00 0.  0.
        -13    1    4    4    0    0 -0.27706376058E+01 -0.45434145531E+00  0.15322576259E+01  0.32002651973E+01  0.10500000000E+00 0. -1.
         13    1    4    4    0    0 -0.89723020528E+01 -0.15073586913E+01  0.48994886534E+01  0.10333941572E+02  0.10500000000E+00 0.  1.
    3000001    1    5    5    0    0  0.36066079379E+02 -0.11368844784E+01 -0.38607494556E+02  0.52854453209E+02  0.10000000000E+01 0. -1.
        -13    1    6    6    0    0  0.47087241437E+01 -0.28524881010E+00 -0.17975279166E+01  0.50493149591E+01  0.10500000000E+00 0. -1.
         13    1    6    6    0    0  0.42381235180E+01 -0.29340372061E+00 -0.17511532102E+01  0.45962309845E+01  0.10500000000E+00 0.  1.
</event>
<event>
11    0  0.3483054E-009  0.9118800E+02  0.7816531E-02  0.1126479E+00
         25   -1    0    0    0    0  0.00000000000E+00  0.00000000000E+00  0.99999998245E-14  0.12500000000E+03  0.12500000000E+03 0.  0.
    3000001    1    3    3    0    0  0.13807560145E+02 -0.52030428954E+01 -0.23228483484E+02  0.27536935514E+02  0.10000000000E+01 0.  1.
    1000022    2    1    0    0    0  0.39970001300E+02 -0.10340123483E+02 -0.45844640855E+02  0.62500001718E+02  0.99999981000E+01 0.  0.
    3000022    2    3    3    0    0  0.26162441155E+02 -0.51370805878E+01 -0.22616157371E+02  0.34963066203E+02  0.24999996679E+00 0.  0.
    1000022    2    1    0    0    0 -0.39970001300E+02  0.10340123483E+02  0.45844640855E+02  0.62499998282E+02  0.99999766309E+01 0.  0.
    3000022    2    5    5    0    0 -0.12871245238E+01  0.23164891298E+01  0.13340101856E+01  0.29773983182E+01  0.25001228360E+00 0.  0.
        -13    1    4    4    0    0  0.19809047932E+02 -0.38712916234E+01 -0.17136508461E+02  0.26477466383E+02  0.10500000000E+00 0.  1.
         13    1    4    4    0    0  0.63533932224E+01 -0.12657889645E+01 -0.54796489095E+01  0.84855998204E+01  0.10500000000E+00 0. -1.
    3000001    1    5    5    0    0 -0.38682876776E+02  0.80236343534E+01  0.44510630669E+02  0.59522599964E+02  0.10000000000E+01 0.  1.
        -13    1    6    6    0    0 -0.57826503939E+00  0.10686175386E+01  0.68553453302E+00  0.13990412773E+01  0.10500000000E+00 0. -1.
         13    1    6    6    0    0 -0.70885948442E+00  0.12478715912E+01  0.64847565259E+00  0.15783570409E+01  0.10500000000E+00 0.  1.
</event>
<event>
11    0  0.3483054E-009  0.9118800E+02  0.7816531E-02  0.1126479E+00
         25   -1    0    0    0    0  0.00000000000E+00  0.00000000000E+00  0.99999998245E-14  0.12500000000E+03  0.12500000000E+03 0.  0.
    3000001    1    3    3    0    0 -0.36371942995E+01 -0.10592555142E+02 -0.41599512544E+01  0.11989020028E+02  0.10000000000E+01 0.  1.
    1000022    2    1    0    0    0 -0.18786879901E+01 -0.52854465349E+02 -0.31766745123E+02  0.62499998713E+02  0.99999883731E+01 0.  0.
    3000022    2    3    3    0    0  0.17585063094E+01 -0.42261910207E+02 -0.27606793869E+02  0.50510978684E+02  0.25000222400E+00 0.  0.
    1000022    2    1    0    0    0  0.18786879901E+01  0.52854465349E+02  0.31766745123E+02  0.62500001287E+02  0.10000004464E+02 0.  0.
    3000022    2    5    5    0    0  0.36433904136E+01  0.12180895943E+02  0.44944767986E+01  0.13487451441E+02  0.25000998841E+00 0.  0.
        -13    1    4    4    0    0  0.10867451457E+01 -0.27450834443E+02 -0.17943775109E+02  0.32813403006E+02  0.10500000000E+00 0. -1.
         13    1    4    4    0    0  0.67176116373E+00 -0.14811075764E+02 -0.96630187597E+01  0.17697575679E+02  0.10500000000E+00 0.  1.
    3000001    1    5    5    0    0 -0.17647024234E+01  0.40673569406E+02  0.27272268325E+02  0.49012549846E+02  0.10000000000E+01 0.  1.
        -13    1    6    6    0    0  0.21515651891E+01  0.71780144379E+01  0.25810632112E+01  0.79262876767E+01  0.10500000000E+00 0. -1.
         13    1    6    6    0    0  0.14918252245E+01  0.50028815055E+01  0.19134135874E+01  0.55611637644E+01  0.10500000000E+00 0.  1.
</event>
<event>
11    0  0.3483054E-009  0.9118800E+02  0.7816531E-02  0.1126479E+00
         25   -1    0    0    0    0  0.00000000000E+00  0.00000000000E+00  0.99999998245E-14  0.12500000000E+03  0.12500000000E+03 0.  0.
    3000001    1    3    3    0    0  0.30031319415E+02 -0.85546345503E+01 -0.34843102824E+02  0.46798544128E+02  0.10000000000E+01 0.  1.
    1000022    2    1    0    0    0  0.43002966665E+02 -0.13628701256E+02 -0.42086262214E+02  0.62499997659E+02  0.99999800118E+01 0.  0.
    3000022    2    3    3    0    0  0.12971647250E+02 -0.50740667059E+01 -0.72431593902E+01  0.15701453531E+02  0.24999941734E+00 0.  0.
    1000022    2    1    0    0    0 -0.43002966665E+02  0.13628701256E+02  0.42086262214E+02  0.62500002341E+02  0.10000009278E+02 0.  0.
    3000022    2    5    5    0    0 -0.20537899854E+02  0.77186651588E+01  0.26965674687E+02  0.34764827550E+02  0.25000210955E+00 0.  0.
        -13    1    4    4    0    0  0.92535623990E+01 -0.36259083518E+01 -0.51210133552E+01  0.11180851096E+02  0.10500000000E+00 0.  1.
         13    1    4    4    0    0  0.37180848508E+01 -0.14481583542E+01 -0.21221460350E+01  0.45206024345E+01  0.10500000000E+00 0. -1.
    3000001    1    5    5    0    0 -0.22465066811E+02  0.59100360975E+01  0.15120587528E+02  0.27735174791E+02  0.10000000000E+01 0.  1.
        -13    1    6    6    0    0 -0.13593128307E+02  0.51119939384E+01  0.17934357585E+02  0.23077214437E+02  0.10500000000E+00 0. -1.
         13    1    6    6    0    0 -0.69447715471E+01  0.26066712204E+01  0.90313171015E+01  0.11687613113E+02  0.10500000000E+00 0.  1.
</event>
<event>
11    0  0.3483054E-009  0.9118800E+02  0.7816531E-02  0.1126479E+00
         25   -1    0    0    0    0  0.00000000000E+00  0.00000000000E+00  0.99999998245E-14  0.12500000000E+03  0.12500000000E+03 0.  0.
    3000001    1    3    3    0    0 -0.17429563120E+01  0.85040318591E-01  0.63871746081E+01  0.66963518453E+01  0.10000000000E+01 0. -1.
    1000022    2    1    0    0    0 -0.39091627173E+02  0.92027519836E+01  0.46833791231E+02  0.62500000230E+02  0.10000003430E+02 0.  0.
    3000022    2    3    3    0    0 -0.37348670861E+02  0.91177116650E+01  0.40446616623E+02  0.55803648385E+02  0.24999146542E+00 0.  0.
    1000022    2    1    0    0    0  0.39091627173E+02 -0.92027519836E+01 -0.46833791231E+02  0.62499999770E+02  0.10000000556E+02 0.  0.
    3000022    2    5    5    0    0  0.17849689274E+02 -0.21064087064E+01 -0.14198248600E+02  0.22906355628E+02  0.25000010694E+00 0.  0.
        -13    1    4    4    0    0 -0.16542092032E+02  0.40606864545E+01  0.17828953640E+02  0.24657911431E+02  0.10500000000E+00 0.  1.
         13    1    4    4    0    0 -0.20806578829E+02  0.50570252105E+01  0.22617662983E+02  0.31145736953E+02  0.10500000000E+00 0. -1.
    3000001    1    5    5    0    0  0.21241937899E+02 -0.70963432772E+01 -0.32635542631E+02  0.39593644142E+02  0.10000000000E+01 0.  1.
        -13    1    6    6    0    0  0.10628465835E+02 -0.12040543511E+01 -0.83991621672E+01  0.13600403781E+02  0.10500000000E+00 0. -1.
         13    1    6    6    0    0  0.72212234389E+01 -0.90235435527E+00 -0.57990864324E+01  0.93059518475E+01  0.10500000000E+00 0.  1.
</event>
<event>
11    0  0.3483054E-009  0.9118800E+02  0.7816531E-02  0.1126479E+00
         25   -1    0    0    0    0  0.00000000000E+00  0.00000000000E+00  0.99999998245E-14  0.12500000000E+03  0.12500000000E+03 0.  0.
    3000001    1    3    3    0    0  0.93337161805E+01 -0.19188331219E+01 -0.43065518379E+01  0.10504597423E+02  0.10000000000E+01 0.  1.
    1000022    2    1    0    0    0  0.57610293190E+02 -0.21106423793E+02 -0.64670707083E+01  0.62499999765E+02  0.99999980142E+01 0.  0.
    3000022    2    3    3    0    0  0.48276577009E+02 -0.19187590671E+02 -0.21605188704E+01  0.51995402342E+02  0.24999874553E+00 0.  0.
    1000022    2    1    0    0    0 -0.57610293190E+02  0.21106423793E+02  0.64670707083E+01  0.62500000235E+02  0.10000000958E+02 0.  0.
    3000022    2    5    5    0    0 -0.31543414251E+02  0.15808533229E+02  0.84462682545E+00  0.35294087326E+02  0.25000044882E+00 0.  0.
        -13    1    4    4    0    0  0.24995102745E+02 -0.99468264585E+01 -0.11855257492E+01  0.26927885437E+02  0.10500000000E+00 0. -1.
         13    1    4    4    0    0  0.23281474265E+02 -0.92407642124E+01 -0.97499312119E+00  0.25067516904E+02  0.10500000000E+00 0.  1.
    3000001    1    5    5    0    0 -0.26066878938E+02  0.52978905640E+01  0.56224438829E+01  0.27205912909E+02  0.10000000000E+01 0. -1.
        -13    1    6    6    0    0 -0.17973389360E+02  0.89841864248E+01  0.41888880319E+00  0.20098378632E+02  0.10500000000E+00 0. -1.
         13    1    6    6    0    0 -0.13570024891E+02  0.68243468040E+01  0.42573802226E+00  0.15195708694E+02  0.10500000000E+00 0.  1.
</event>
<event>
11    0  0.3483054E-009  0.9118800E+02  0.7816531E-02  0.1126479E+00
         25   -1    0    0    0    0  0.00000000000E+00  0.00000000000E+00  0.99999998245E-14  0.12500000000E+03  0.12500000000E+03 0.  0.
    3000001    1    3    3    0    0  0.10924681646E+02  0.15928696450E+02  0.29690689971E+02  0.35434575073E+02  0.10000000000E+01 0. -1.
    1000022    2    1    0    0    0  0.11921650239E+02  0.24591291912E+02  0.55311777371E+02  0.62499998310E+02  0.99999845223E+01 0.  0.
    3000022    2    3    3    0    0  0.99696859307E+00  0.86625954624E+01  0.25621087400E+02  0.27065423237E+02  0.25001779731E+00 0.  0.
    1000022    2    1    0    0    0 -0.11921650239E+02 -0.24591291912E+02 -0.55311777371E+02  0.62500001690E+02  0.10000005648E+02 0.  0.
    3000022    2    5    5    0    0 -0.12467869558E+02 -0.16981653272E+02 -0.44434525641E+02  0.49176355006E+02  0.25000700785E+00 0.  0.
        -13    1    4    4    0    0  0.71397512864E+00  0.60940971059E+01  0.18157887592E+02  0.19166838206E+02  0.10500000000E+00 0.  1.
         13    1    4    4    0    0  0.28299346444E+00  0.25684983565E+01  0.74631998081E+01  0.78985850305E+01  0.10500000000E+00 0. -1.
    3000001    1    5    5    0    0  0.54621931849E+00 -0.76096386399E+01 -0.10877251730E+02  0.13323646684E+02  0.10000000000E+01 0. -1.
        -13    1    6    6    0    0 -0.44175243716E+01 -0.59322645302E+01 -0.15663137638E+02  0.17321985732E+02  0.10500000000E+00 0.  1.
         13    1    6    6    0    0 -0.80503451863E+01 -0.11049388742E+02 -0.28771388003E+02  0.31854369274E+02  0.10500000000E+00 0. -1.
</event>
<event>
11    0  0.3483054E-009  0.9118800E+02  0.7816531E-02  0.1126479E+00
         25   -1    0    0    0    0  0.00000000000E+00  0.00000000000E+00  0.99999998245E-14  0.12500000000E+03  0.12500000000E+03 0.  0.
    3000001    1    3    3    0    0  0.48012383391E+01  0.27798403984E+02  0.30997163849E+02  0.41924066123E+02  0.10000000000E+01 0. -1.
    1000022    2    1    0    0    0  0.97113995937E+01  0.35776550759E+02  0.49315079074E+02  0.62499999337E+02  0.10000001339E+02 0.  0.
    3000022    2    3    3    0    0  0.49101612545E+01  0.79781467757E+01  0.18317915225E+02  0.20575933214E+02  0.24999983128E+00 0.  0.
    1000022    2    1    0    0    0 -0.97113995937E+01 -0.35776550759E+02 -0.49315079074E+02  0.62500000663E+02  0.10000009625E+02 0.  0.
    3000022    2    5    5    0    0 -0.98206338989E+01 -0.19660217478E+02 -0.32035802609E+02  0.38850021261E+02  0.25000339544E+00 0.  0.
        -13    1    4    4    0    0  0.19718138516E+01  0.33096978900E+01  0.76039472910E+01  0.85248571479E+01  0.10500000000E+00 0. -1.
         13    1    4    4    0    0  0.29383474029E+01  0.46684488858E+01  0.10713967934E+02  0.12051076066E+02  0.10500000000E+00 0.  1.
    3000001    1    5    5    0    0  0.10923430523E+00 -0.16116333282E+02 -0.17279276464E+02  0.23649979402E+02  0.10000000000E+01 0.  1.
        -13    1    6    6    0    0 -0.54951797497E+01 -0.11061014958E+02 -0.17897183472E+02  0.21745419141E+02  0.10500000000E+00 0. -1.
         13    1    6    6    0    0 -0.43254541492E+01 -0.85992025199E+01 -0.14138619137E+02  0.17104602120E+02  0.10500000000E+00 0.  1.
</event>
<event>
11    0  0.3483054E-009  0.9118800E+02  0.7816531E-02  0.1126479E+00
         25   -1    0    0    0    0  0.00000000000E+00  0.00000000000E+00  0.99999998245E-14  0.12500000000E+03  0.12500000000E+03 0.  0.
    3000001    1    3    3    0    0  0.25085384293E+02  0.15750664659E+02  0.13792335304E+02  0.32689271260E+02  0.10000000000E+01 0.  1.
    1000022    2    1    0    0    0  0.52780486501E+02  0.23509476774E+02  0.21628100613E+02  0.62500000362E+02  0.10000002784E+02 0.  0.
    3000022    2    3    3    0    0  0.27695102208E+02  0.77588121146E+01  0.78357653084E+01  0.29810729102E+02  0.24999982223E+00 0.  0.
    1000022    2    1    0    0    0 -0.52780486501E+02 -0.23509476774E+02 -0.21628100613E+02  0.62499999638E+02  0.99999982567E+01 0.  0.
    3000022    2    5    5    0    0 -0.17715793449E+02 -0.50414008719E+01 -0.11005411776E+02  0.21458020586E+02  0.24999766719E+00 0.  0.
        -13    1    4    4    0    0  0.15288271016E+02  0.42672485214E+01  0.42571373002E+01  0.16433955203E+02  0.10500000000E+00 0. -1.
         13    1    4    4    0    0  0.12406831191E+02  0.34915635932E+01  0.35786280082E+01  0.13376773900E+02  0.10500000000E+00 0.  1.
    3000001    1    5    5    0    0 -0.35064693052E+02 -0.18468075902E+02 -0.10622688836E+02  0.41041979052E+02  0.10000000000E+01 0.  1.
        -13    1    6    6    0    0 -0.84444622905E+01 -0.23498423011E+01 -0.51858531640E+01  0.10185028240E+02  0.10500000000E+00 0. -1.
         13    1    6    6    0    0 -0.92713311587E+01 -0.26915585708E+01 -0.58195586122E+01  0.11272992346E+02  0.10500000000E+00 0.  1.
</event>
<event>
11    0  0.3483054E-009  0.9118800E+02  0.7816531E-02  0.1126479E+00
         25   -1    0    0    0    0  0.00000000000E+00  0.00000000000E+00  0.99999998245E-14  0.12500000000E+03  0.12500000000E+03 0.  0.
    3000001    1    3    3    0    0  0.21730778228E+02  0.14992142610E+02  0.30559247921E+02  0.40396270817E+02  0.10000000000E+01 0. -1.
    1000022    2    1    0    0    0  0.35499853951E+02  0.16126985796E+02  0.47811407518E+02  0.62499999530E+02  0.99999975433E+01 0.  0.
    3000022    2    3    3    0    0  0.13769075723E+02  0.11348431867E+01  0.17252159597E+02  0.22103728713E+02  0.24999378211E+00 0.  0.
    1000022    2    1    0    0    0 -0.35499853951E+02 -0.16126985796E+02 -0.47811407518E+02  0.62500000470E+02  0.10000003422E+02 0.  0.
    3000022    2    5    5    0    0 -0.39793463549E+01 -0.58538506869E+01 -0.81251403911E+01  0.10778829731E+02  0.24999744607E+00 0.  0.
        -13    1    4    4    0    0  0.75396759281E+01  0.63935853925E+00  0.93456222435E+01  0.12025272245E+02  0.10500000000E+00 0.  1.
         13    1    4    4    0    0  0.62293997953E+01  0.49548464742E+00  0.79065373538E+01  0.10078456468E+02  0.10500000000E+00 0. -1.
    3000001    1    5    5    0    0 -0.31520507597E+02 -0.10273135110E+02 -0.39686267127E+02  0.51721170739E+02  0.10000000000E+01 0. -1.
        -13    1    6    6    0    0 -0.23372744738E+01 -0.35496108763E+01 -0.48659485799E+01  0.64615067842E+01  0.10500000000E+00 0.  1.
         13    1    6    6    0    0 -0.16420718811E+01 -0.23042398105E+01 -0.32591918112E+01  0.43173229470E+01  0.10500000000E+00 0. -1.
</event>
<event>
11    0  0.3483054E-009  0.9118800E+02  0.7816531E-02  0.1126479E+00
         25   -1    0    0    0    0  0.00000000000E+00  0.00000000000E+00  0.99999998245E-14  0.12500000000E+03  0.12500000000E+03 0.  0.
    3000001    1    3    3    0    0 -0.22308603733E+02  0.40176504884E+01 -0.22195080247E+01  0.22797840508E+02  0.10000000000E+01 0.  1.
    1000022    2    1    0    0    0 -0.58277716472E+02  0.82884800843E+01 -0.18473186517E+02  0.62500001926E+02  0.10000024068E+02 0.  0.
    3000022    2    3    3    0    0 -0.35969112739E+02  0.42708295959E+01 -0.16253678492E+02  0.39702161418E+02  0.25000010743E+00 0.  0.
    1000022    2    1    0    0    0  0.58277716472E+02 -0.82884800843E+01  0.18473186517E+02  0.62499998074E+02  0.99999999979E+01 0.  0.
    3000022    2    5    5    0    0  0.38372999025E+02 -0.79149337487E+01  0.16342277907E+02  0.42453100933E+02  0.25000243063E+00 0.  0.
        -13    1    4    4    0    0 -0.21907777450E+02  0.26336139667E+01 -0.98430652033E+01  0.24161614038E+02  0.10500000000E+00 0. -1.
         13    1    4    4    0    0 -0.14061335289E+02  0.16372156292E+01 -0.64106132886E+01  0.15540547380E+02  0.10500000000E+00 0.  1.
    3000001    1    5    5    0    0  0.19904717447E+02 -0.37354633560E+00  0.21309086098E+01  0.20046897142E+02  0.10000000000E+01 0. -1.
        -13    1    6    6    0    0  0.10644378976E+02 -0.22156274880E+01  0.44988169385E+01  0.11766995700E+02  0.10500000000E+00 0. -1.
         13    1    6    6    0    0  0.27728620048E+02 -0.56993062608E+01  0.11843460968E+02  0.30686105233E+02  0.10500000000E+00 0.  1.
</event>
<event>
11    0  0.3483054E-009  0.9118800E+02  0.7816531E-02  0.1126479E+00
         25   -1    0    0    0    0  0.00000000000E+00  0.00000000000E+00  0.99999998245E-14  0.12500000000E+03  0.12500000000E+03 0.  0.
    3000001    1    3    3    0    0 -0.29133451129E+02  0.41749573400E+02  0.26226111348E+02  0.57276467857E+02  0.10000000000E+01 0.  1.
    1000022    2    1    0    0    0 -0.29612459301E+02  0.46879442732E+02  0.27049400860E+02  0.62500002361E+02  0.10000015575E+02 0.  0.
    3000022    2    3    3    0    0 -0.47900817293E+00  0.51298693317E+01  0.82328951217E+00  0.52235345039E+01  0.24999780529E+00 0.  0.
    1000022    2    1    0    0    0  0.29612459301E+02 -0.46879442732E+02 -0.27049400860E+02  0.62499997639E+02  0.99999860598E+01 0.  0.
    3000022    2    5    5    0    0  0.18701358627E+02 -0.20701132695E+02 -0.14920109653E+02  0.31637791958E+02  0.24999705918E+00 0.  0.
        -13    1    4    4    0    0 -0.14906886667E+00  0.16158628941E+01  0.30990116677E+00  0.16553845936E+01  0.10500000000E+00 0. -1.
         13    1    4    4    0    0 -0.32993930626E+00  0.35140064376E+01  0.51338834539E+00  0.35681499103E+01  0.10500000000E+00 0.  1.
    3000001    1    5    5    0    0  0.10911100674E+02 -0.26178310037E+02 -0.12129291207E+02  0.30862205681E+02  0.10000000000E+01 0.  1.
        -13    1    6    6    0    0  0.58907244996E+01 -0.65213486027E+01 -0.47564326301E+01  0.99931626172E+01  0.10500000000E+00 0. -1.
         13    1    6    6    0    0  0.12810634128E+02 -0.14179784092E+02 -0.10163677023E+02  0.21644629340E+02  0.10500000000E+00 0.  1.
</event>
<event>
11    0  0.3483054E-009  0.9118800E+02  0.7816531E-02  0.1126479E+00
         25   -1    0    0    0    0  0.00000000000E+00  0.00000000000E+00  0.99999998245E-14  0.12500000000E+03  0.12500000000E+03 0.  0.
    3000001    1    3    3    0    0 -0.11478904166E+02  0.33962292117E+02  0.29828047100E+02  0.46646703212E+02  0.10000000000E+01 0. -1.
    1000022    2    1    0    0    0 -0.10423377644E+02  0.43670919748E+02  0.42313756032E+02  0.62499999823E+02  0.99999997604E+01 0.  0.
    3000022    2    3    3    0    0  0.10555265216E+01  0.97086276301E+01  0.12485708932E+02  0.15853296611E+02  0.24999841985E+00 0.  0.
    1000022    2    1    0    0    0  0.10423377644E+02 -0.43670919748E+02 -0.42313756032E+02  0.62500000177E+02  0.10000001979E+02 0.  0.
    3000022    2    5    5    0    0  0.15079594395E+01 -0.27005050732E+02 -0.23930857458E+02  0.36115026579E+02  0.24999889514E+00 0.  0.
        -13    1    4    4    0    0  0.49201512950E+00  0.51251016058E+01  0.65513434774E+01  0.83330589652E+01  0.10500000000E+00 0.  1.
         13    1    4    4    0    0  0.56351139215E+00  0.45835260242E+01  0.59343654542E+01  0.75202376457E+01  0.10500000000E+00 0. -1.
    3000001    1    5    5    0    0  0.89154182046E+01 -0.16665869016E+02 -0.18382898574E+02  0.26384973598E+02  0.10000000000E+01 0.  1.
        -13    1    6    6    0    0  0.96259572377E+00 -0.17621892630E+02 -0.15683734730E+02  0.23610342023E+02  0.10500000000E+00 0.  1.
         13    1    6    6    0    0  0.54536371576E+00 -0.93831581019E+01 -0.82471227281E+01  0.12504684556E+02  0.10500000000E+00 0. -1.
</event>
<event>
11    0  0.3483054E-009  0.9118800E+02  0.7816531E-02  0.1126479E+00
         25   -1    0    0    0    0  0.00000000000E+00  0.00000000000E+00  0.99999998245E-14  0.12500000000E+03  0.12500000000E+03 0.  0.
    3000001    1    3    3    0    0  0.42432257861E+02  0.14835284038E+02 -0.41896097916E+02  0.61456205385E+02  0.10000000000E+01 0. -1.
    1000022    2    1    0    0    0  0.41961364706E+02  0.14677080449E+02 -0.42779401239E+02  0.62499996378E+02  0.99999779159E+01 0.  0.
    3000022    2    3    3    0    0 -0.47089315497E+00 -0.15820358923E+00 -0.88330332367E+00  0.10437909934E+01  0.25001227423E+00 0.  0.
    1000022    2    1    0    0    0 -0.41961364706E+02 -0.14677080449E+02  0.42779401239E+02  0.62500003622E+02  0.10000023192E+02 0.  0.
    3000022    2    5    5    0    0 -0.80682552139E+01 -0.71974259771E+01  0.92554482708E+01  0.14234658656E+02  0.25000291217E+00 0.  0.
        -13    1    4    4    0    0 -0.14092107058E+00 -0.20987411316E-01 -0.21283818686E+00  0.27681097043E+00  0.10500000000E+00 0. -1.
         13    1    4    4    0    0 -0.32997208439E+00 -0.13721617791E+00 -0.67046513681E+00  0.76698002297E+00  0.10500000000E+00 0.  1.
    3000001    1    5    5    0    0 -0.33893109492E+02 -0.74796544715E+01  0.33523952969E+02  0.48265344966E+02  0.10000000000E+01 0. -1.
        -13    1    6    6    0    0 -0.34618002804E+01 -0.31675038751E+01  0.40544610729E+01  0.62021626528E+01  0.10500000000E+00 0. -1.
         13    1    6    6    0    0 -0.46064549336E+01 -0.40299221020E+01  0.52009871980E+01  0.80324960029E+01  0.10500000000E+00 0.  1.
</event>
<event>
11    0  0.3483054E-009  0.9118800E+02  0.7816531E-02  0.1126479E+00
         25   -1    0    0    0    0  0.00000000000E+00  0.00000000000E+00  0.99999998245E-14  0.12500000000E+03  0.12500000000E+03 0.  0.
    3000001    1    3    3    0    0 -0.10700962313E+01 -0.69637177819E+01 -0.29847008158E+01  0.77166644510E+01  0.10000000000E+01 0. -1.
    1000022    2    1    0    0    0  0.15686796986E+02 -0.51523301729E+02 -0.30091919040E+02  0.62499999252E+02  0.10000004714E+02 0.  0.
    3000022    2    3    3    0    0  0.16756893217E+02 -0.44559583947E+02 -0.27107218224E+02  0.54783334801E+02  0.25000050626E+00 0.  0.
    1000022    2    1    0    0    0 -0.15686796986E+02  0.51523301729E+02  0.30091919040E+02  0.62500000748E+02  0.10000014059E+02 0.  0.
    3000022    2    5    5    0    0 -0.12953666359E+02  0.38140530220E+02  0.26900348238E+02  0.48437472509E+02  0.24998019545E+00 0.  0.
        -13    1    4    4    0    0  0.88234116741E+01 -0.23327168282E+02 -0.14146073408E+02  0.28672840660E+02  0.10500000000E+00 0.  1.
         13    1    4    4    0    0  0.79334815431E+01 -0.21232415665E+02 -0.12961144816E+02  0.26110494142E+02  0.10500000000E+00 0. -1.
    3000001    1    5    5    0    0 -0.27331306270E+01  0.13382771509E+02  0.31915708025E+01  0.14062528239E+02  0.10000000000E+01 0.  1.
        -13    1    6    6    0    0 -0.73737269844E+01  0.21506513962E+02  0.15179303880E+02  0.27337232554E+02  0.10500000000E+00 0. -1.
         13    1    6    6    0    0 -0.55799393745E+01  0.16634016258E+02  0.11721044357E+02  0.21100239954E+02  0.10500000000E+00 0.  1.
</event>
<event>
11    0  0.3483054E-009  0.9118800E+02  0.7816531E-02  0.1126479E+00
         25   -1    0    0    0    0  0.00000000000E+00  0.00000000000E+00  0.99999998245E-14  0.12500000000E+03  0.12500000000E+03 0.  0.
    3000001    1    3    3    0    0  0.21647347952E+02 -0.84852155009E+01  0.76203948431E+01  0.24488302779E+02  0.10000000000E+01 0.  1.
    1000022    2    1    0    0    0  0.48078599567E+02 -0.26424961718E+02  0.28220907026E+02  0.62500000374E+02  0.10000005762E+02 0.  0.
    3000022    2    3    3    0    0  0.26431251615E+02 -0.17939746217E+02  0.20600512183E+02  0.38011697595E+02  0.24999109310E+00 0.  0.
    1000022    2    1    0    0    0 -0.48078599567E+02  0.26424961718E+02 -0.28220907026E+02  0.62499999626E+02  0.10000001087E+02 0.  0.
    3000022    2    5    5    0    0 -0.23469070495E+02  0.10032218876E+02 -0.83322040294E+01  0.26850154662E+02  0.24999186360E+00 0.  0.
        -13    1    4    4    0    0  0.89227303555E+01 -0.60015511476E+01  0.68993042286E+01  0.12776742817E+02  0.10500000000E+00 0. -1.
         13    1    4    4    0    0  0.17508521260E+02 -0.11938195070E+02  0.13701207954E+02  0.25234954778E+02  0.10500000000E+00 0.  1.
    3000001    1    5    5    0    0 -0.24609529072E+02  0.16392742843E+02 -0.19888702997E+02  0.35649844964E+02  0.10000000000E+01 0.  1.
        -13    1    6    6    0    0 -0.13345434469E+02  0.56843413041E+01 -0.46691834235E+01  0.15238919124E+02  0.10500000000E+00 0.  1.
         13    1    6    6    0    0 -0.10123636026E+02  0.43478775716E+01 -0.36630206059E+01  0.11611235539E+02  0.10500000000E+00 0. -1.
</event>
<event>
11    0  0.3483054E-009  0.9118800E+02  0.7816531E-02  0.1126479E+00
         25   -1    0    0    0    0  0.00000000000E+00  0.00000000000E+00  0.99999998245E-14  0.12500000000E+03  0.12500000000E+03 0.  0.
    3000001    1    3    3    0    0  0.50518200562E+00 -0.35309006543E+01  0.85711606092E+00  0.38022514687E+01  0.10000000000E+01 0.  1.
    1000022    2    1    0    0    0 -0.20084834295E+02 -0.47749009286E+02  0.33509423237E+02  0.62499999048E+02  0.99999989393E+01 0.  0.
    3000022    2    3    3    0    0 -0.20590016301E+02 -0.44218108632E+02  0.32652307176E+02  0.58697747579E+02  0.25000931169E+00 0.  0.
    1000022    2    1    0    0    0  0.20084834295E+02  0.47749009286E+02 -0.33509423237E+02  0.62500000952E+02  0.10000010844E+02 0.  0.
    3000022    2    5    5    0    0  0.11202801287E+02  0.14934081362E+02 -0.10279735703E+02  0.21313493599E+02  0.25000095688E+00 0.  0.
        -13    1    4    4    0    0 -0.14235329404E+02 -0.30561018171E+02  0.22626255423E+02  0.40602695654E+02  0.10500000000E+00 0.  1.
         13    1    4    4    0    0 -0.63546868970E+01 -0.13657090461E+02  0.10026051753E+02  0.18095051925E+02  0.10500000000E+00 0. -1.
    3000001    1    5    5    0    0  0.88820330088E+01  0.32814927924E+02 -0.23229687534E+02  0.41186507353E+02  0.10000000000E+01 0. -1.
        -13    1    6    6    0    0  0.41013412521E+01  0.54615161525E+01 -0.36939003606E+01  0.77656347856E+01  0.10500000000E+00 0.  1.
         13    1    6    6    0    0  0.71014600346E+01  0.94725652100E+01 -0.65858353424E+01  0.13547858814E+02  0.10500000000E+00 0. -1.
</event>
<event>
11    0  0.3483054E-009  0.9118800E+02  0.7816531E-02  0.1126479E+00
         25   -1    0    0    0    0  0.00000000000E+00  0.00000000000E+00  0.99999998245E-14  0.12500000000E+03  0.12500000000E+03 0.  0.
    3000001    1    3    3    0    0 -0.62801391865E+00 -0.29630556376E+01  0.74455331817E+01  0.81000039848E+01  0.10000000000E+01 0.  1.
    1000022    2    1    0    0    0 -0.41900201895E+01  0.16772801349E+01  0.61529509481E+02  0.62500000301E+02  0.99999981424E+01 0.  0.
    3000022    2    3    3    0    0 -0.35620062709E+01  0.46403357725E+01  0.54083976299E+02  0.54399996316E+02  0.25000427735E+00 0.  0.
    1000022    2    1    0    0    0  0.41900201895E+01 -0.16772801349E+01 -0.61529509481E+02  0.62499999699E+02  0.99999943798E+01 0.  0.
    3000022    2    5    5    0    0 -0.63271554093E+00 -0.30249433903E+01 -0.46947271634E+02  0.47049542204E+02  0.24999258336E+00 0.  0.
        -13    1    4    4    0    0 -0.11504015326E+01  0.15232710112E+01  0.17200836431E+02  0.17306749469E+02  0.10500000000E+00 0.  1.
         13    1    4    4    0    0 -0.24116047383E+01  0.31170647613E+01  0.36883139868E+02  0.37093246847E+02  0.10500000000E+00 0. -1.
    3000001    1    5    5    0    0  0.48227357305E+01  0.13476632554E+01 -0.14582237847E+02  0.15450457495E+02  0.10000000000E+01 0. -1.
        -13    1    6    6    0    0 -0.42584368976E+00 -0.21683568753E+01 -0.33979639299E+02  0.34051578910E+02  0.10500000000E+00 0. -1.
         13    1    6    6    0    0 -0.20687185118E+00 -0.85658651502E+00 -0.12967632334E+02  0.12997963294E+02  0.10500000000E+00 0.  1.
</event>
<event>
11    0  0.3483054E-009  0.9118800E+02  0.7816531E-02  0.1126479E+00
         25   -1    0    0    0    0  0.00000000000E+00  0.00000000000E+00  0.99999998245E-14  0.12500000000E+03  0.12500000000E+03 0.  0.
    3000001    1    3    3    0    0  0.72829420511E+01  0.10263015635E+00 -0.73413292901E+01  0.10389749449E+02  0.10000000000E+01 0. -1.
    1000022    2    1    0    0    0  0.46416378833E+02 -0.19239337337E+02 -0.35799687603E+02  0.62500000216E+02  0.10000003467E+02 0.  0.
    3000022    2    3    3    0    0  0.39133436782E+02 -0.19341967494E+02 -0.28458358313E+02  0.52110250767E+02  0.24999239623E+00 0.  0.
    1000022    2    1    0    0    0 -0.46416378833E+02  0.19239337337E+02  0.35799687603E+02  0.62499999784E+02  0.10000000771E+02 0.  0.
    3000022    2    5    5    0    0 -0.33825432899E+02  0.13227838214E+02  0.20249967517E+02  0.41584363625E+02  0.24999797783E+00 0.  0.
        -13    1    4    4    0    0  0.12776446227E+02 -0.63476202062E+01 -0.92493290200E+01  0.17002675460E+02  0.10500000000E+00 0. -1.
         13    1    4    4    0    0  0.26356990555E+02 -0.12994347287E+02 -0.19209029293E+02  0.35107575307E+02  0.10500000000E+00 0.  1.
    3000001    1    5    5    0    0 -0.12590945934E+02  0.60114991233E+01  0.15549720086E+02  0.20915636160E+02  0.10000000000E+01 0.  1.
        -13    1    6    6    0    0 -0.21618892214E+02  0.84221927411E+01  0.12878483260E+02  0.26536318268E+02  0.10500000000E+00 0.  1.
         13    1    6    6    0    0 -0.12206540685E+02  0.48056454730E+01  0.73714842573E+01  0.15048045357E+02  0.10500000000E+00 0. -1.
</event>
<event>
11    0  0.3483054E-009  0.9118800E+02  0.7816531E-02  0.1126479E+00
         25   -1    0    0    0    0  0.00000000000E+00  0.00000000000E+00  0.99999998245E-14  0.12500000000E+03  0.12500000000E+03 0.  0.
    3000001    1    3    3    0    0 -0.54170115045E+01 -0.23379396661E+02 -0.32048296141E+02  0.40050386857E+02  0.10000000000E+01 0. -1.
    1000022    2    1    0    0    0 -0.11060694405E+02 -0.41012835867E+02 -0.44742128615E+02  0.62500002158E+02  0.10000026513E+02 0.  0.
    3000022    2    3    3    0    0 -0.56436829007E+01 -0.17633439206E+02 -0.12693832474E+02  0.22449615301E+02  0.25001878801E+00 0.  0.
    1000022    2    1    0    0    0  0.11060694405E+02  0.41012835867E+02  0.44742128615E+02  0.62499997842E+02  0.99999995349E+01 0.  0.
    3000022    2    5    5    0    0  0.11892712512E+02  0.37748612110E+02  0.37850280302E+02  0.54764043858E+02  0.24990737173E+00 0.  0.
        -13    1    4    4    0    0 -0.22167250311E+01 -0.70106729454E+01 -0.49719782716E+01  0.88766546595E+01  0.10500000000E+00 0.  1.
         13    1    4    4    0    0 -0.34269578697E+01 -0.10622766260E+02 -0.77218542025E+01  0.13572960642E+02  0.10500000000E+00 0. -1.
    3000001    1    5    5    0    0 -0.83201810649E+00  0.32642237568E+01  0.68918483132E+01  0.77359539836E+01  0.10000000000E+01 0.  1.
        -13    1    6    6    0    0  0.43750548076E+01  0.13792368758E+02  0.13909560786E+02  0.20071309045E+02  0.10500000000E+00 0.  1.
         13    1    6    6    0    0  0.75176577041E+01  0.23956243352E+02  0.23940719516E+02  0.34692734814E+02  0.10500000000E+00 0. -1.
</event>
<event>
11    0  0.3483054E-009  0.9118800E+02  0.7816531E-02  0.1126479E+00
         25   -1    0    0    0    0  0.00000000000E+00  0.00000000000E+00  0.99999998245E-14  0.12500000000E+03  0.12500000000E+03 0.  0.
    3000001    1    3    3    0    0 -0.48338745323E+01 -0.12264262372E+02  0.16884396134E+02  0.21444377057E+02  0.10000000000E+01 0.  1.
    1000022    2    1    0    0    0 -0.23241629875E+02 -0.25807706969E+02  0.50990574791E+02  0.62500001043E+02  0.10000015726E+02 0.  0.
    3000022    2    3    3    0    0 -0.18407755343E+02 -0.13543444597E+02  0.34106178657E+02  0.41055623986E+02  0.24997996224E+00 0.  0.
    1000022    2    1    0    0    0  0.23241629875E+02  0.25807706969E+02 -0.50990574791E+02  0.62499998957E+02  0.10000002690E+02 0.  0.
    3000022    2    5    5    0    0  0.12308710009E+01 -0.70053741587E+00 -0.90470971128E+00  0.16990581138E+01  0.25000544081E+00 0.  0.
        -13    1    4    4    0    0 -0.62480682059E+01 -0.46186582938E+01  0.11689557147E+02  0.14036635353E+02  0.10500000000E+00 0. -1.
         13    1    4    4    0    0 -0.12159687137E+02 -0.89247863035E+01  0.22416621510E+02  0.27018988633E+02  0.10500000000E+00 0.  1.
    3000001    1    5    5    0    0  0.22010758874E+02  0.26508244385E+02 -0.50085865080E+02  0.60800940843E+02  0.10000000000E+01 0.  1.
        -13    1    6    6    0    0  0.47816244480E+00 -0.25171556994E+00 -0.27903495717E+00  0.61715926558E+00  0.10500000000E+00 0.  1.
         13    1    6    6    0    0  0.75270855607E+00 -0.44882184592E+00 -0.62567475412E+00  0.10818988482E+01  0.10500000000E+00 0. -1.
</event>
<event>
11    0  0.3483054E-009  0.9118800E+02  0.7816531E-02  0.1126479E+00
         25   -1    0    0    0    0  0.00000000000E+00  0.00000000000E+00  0.99999998245E-14  0.12500000000E+03  0.12500000000E+03 0.  0.
    3000001    1    3    3    0    0  0.58353422315E+01 -0.50241684743E+02  0.53165205005E+01  0.50867902404E+02  0.10000000000E+01 0.  1.
    1000022    2    1    0    0    0  0.76958436287E+01 -0.61185019472E+02  0.18488095244E+01  0.62499994534E+02  0.99999301558E+01 0.  0.
    3000022    2    3    3    0    0  0.18605013972E+01 -0.10943334729E+02 -0.34677109760E+01  0.11632092130E+02  0.25001491597E+00 0.  0.
    1000022    2    1    0    0    0 -0.76958436287E+01  0.61185019472E+02 -0.18488095244E+01  0.62500005466E+02  0.99999984783E+01 0.  0.
    3000022    2    5    5    0    0  0.19286339951E+01  0.10590811770E+02 -0.21867581280E+01  0.10987690125E+02  0.25000025130E+00 0.  0.
        -13    1    4    4    0    0  0.11508904345E+01 -0.67901944157E+01 -0.20876884090E+01  0.71972742680E+01  0.10500000000E+00 0.  1.
         13    1    4    4    0    0  0.70961096273E+00 -0.41531403137E+01 -0.13800225671E+01  0.44348178620E+01  0.10500000000E+00 0. -1.
    3000001    1    5    5    0    0 -0.96244776239E+01  0.50594207702E+02  0.33794860352E+00  0.51512315341E+02  0.10000000000E+01 0.  1.
        -13    1    6    6    0    0  0.10326077762E+01  0.59161557624E+01 -0.11693188954E+01  0.61192736092E+01  0.10500000000E+00 0.  1.
         13    1    6    6    0    0  0.89602621895E+00  0.46746560080E+01 -0.10174392325E+01  0.48684165157E+01  0.10500000000E+00 0. -1.
</event>
<event>
11    0  0.3483054E-009  0.9118800E+02  0.7816531E-02  0.1126479E+00
         25   -1    0    0    0    0  0.00000000000E+00  0.00000000000E+00  0.99999998245E-14  0.12500000000E+03  0.12500000000E+03 0.  0.
    3000001    1    3    3    0    0 -0.83831172098E-01  0.31987287674E+01 -0.75601145153E+01  0.82700801010E+01  0.10000000000E+01 0. -1.
    1000022    2    1    0    0    0  0.22432247816E+02  0.28659049841E+02 -0.49816702346E+02  0.62499993211E+02  0.99999219445E+01 0.  0.
    3000022    2    3    3    0    0  0.22516078989E+02  0.25460321073E+02 -0.42256587830E+02  0.54229913110E+02  0.24999732977E+00 0.  0.
    1000022    2    1    0    0    0 -0.22432247816E+02 -0.28659049841E+02  0.49816702346E+02  0.62500006789E+02  0.10000006809E+02 0.  0.
    3000022    2    5    5    0    0 -0.53308256421E+01 -0.10385427877E+02  0.23067601559E+02  0.25854430071E+02  0.24999686635E+00 0.  0.
        -13    1    4    4    0    0  0.13495949402E+02  0.15235101037E+02 -0.25401247202E+02  0.32549705656E+02  0.10500000000E+00 0.  1.
         13    1    4    4    0    0  0.90201295865E+01  0.10225220036E+02 -0.16855340628E+02  0.21680207454E+02  0.10500000000E+00 0. -1.
    3000001    1    5    5    0    0 -0.17101422174E+02 -0.18273621964E+02  0.26749100787E+02  0.36645576718E+02  0.10000000000E+01 0. -1.
        -13    1    6    6    0    0 -0.24930239553E+01 -0.49487261753E+01  0.10832422073E+02  0.12167886101E+02  0.10500000000E+00 0.  1.
         13    1    6    6    0    0 -0.28378016868E+01 -0.54367017013E+01  0.12235179486E+02  0.13686543970E+02  0.10500000000E+00 0. -1.
</event>
<event>
11    0  0.3483054E-009  0.9118800E+02  0.7816531E-02  0.1126479E+00
         25   -1    0    0    0    0  0.00000000000E+00  0.00000000000E+00  0.99999998245E-14  0.12500000000E+03  0.12500000000E+03 0.  0.
    3000001    1    3    3    0    0  0.24560850928E+01 -0.11985010573E+02 -0.61451956668E+01  0.13727208827E+02  0.10000000000E+01 0. -1.
    1000022    2    1    0    0    0  0.13122935347E+02 -0.43045867321E+02 -0.42202984174E+02  0.62499999635E+02  0.99999977815E+01 0.  0.
    3000022    2    3    3    0    0  0.10666850254E+02 -0.31060856748E+02 -0.36057788508E+02  0.48772790808E+02  0.24998965235E+00 0.  0.
    1000022    2    1    0    0    0 -0.13122935347E+02  0.43045867321E+02  0.42202984174E+02  0.62500000365E+02  0.10000002341E+02 0.  0.
    3000022    2    5    5    0    0 -0.49109820082E+01  0.29560308146E+02  0.30988087346E+02  0.43107465853E+02  0.24998594024E+00 0.  0.
        -13    1    4    4    0    0  0.43525388240E+01 -0.12494708515E+02 -0.14563698365E+02  0.19676754564E+02  0.10500000000E+00 0.  1.
         13    1    4    4    0    0  0.63143114303E+01 -0.18566148234E+02 -0.21494090142E+02  0.29096036244E+02  0.10500000000E+00 0. -1.
    3000001    1    5    5    0    0 -0.82119533389E+01  0.13485559175E+02  0.11214896829E+02  0.19392534512E+02  0.10000000000E+01 0. -1.
        -13    1    6    6    0    0 -0.19612009300E+01  0.11579808660E+02  0.12073656005E+02  0.16844063405E+02  0.10500000000E+00 0.  1.
         13    1    6    6    0    0 -0.29497810782E+01  0.17980499486E+02  0.18914431341E+02  0.26263402447E+02  0.10500000000E+00 0. -1.
</event>
<event>
11    0  0.3483054E-009  0.9118800E+02  0.7816531E-02  0.1126479E+00
         25   -1    0    0    0    0  0.00000000000E+00  0.00000000000E+00  0.99999998245E-14  0.12500000000E+03  0.12500000000E+03 0.  0.
    3000001    1    3    3    0    0 -0.19914080478E+02  0.49652977826E+02  0.14649865407E+02  0.55476187366E+02  0.10000000000E+01 0.  1.
    1000022    2    1    0    0    0 -0.21547258534E+02  0.56303672906E+02  0.13109605842E+02  0.62499997996E+02  0.10000002563E+02 0.  0.
    3000022    2    3    3    0    0 -0.16331780557E+01  0.66506950796E+01 -0.15402595647E+01  0.70238106301E+01  0.25000127652E+00 0.  0.
    1000022    2    1    0    0    0  0.21547258534E+02 -0.56303672906E+02 -0.13109605842E+02  0.62500002004E+02  0.10000027607E+02 0.  0.
    3000022    2    5    5    0    0  0.11942196670E+02 -0.34717214637E+02 -0.31808858003E+01  0.36852158515E+02  0.24999846004E+00 0.  0.
        -13    1    4    4    0    0 -0.84522932405E+00  0.33832432086E+01 -0.85226987993E+00  0.35913975228E+01  0.10500000000E+00 0.  1.
         13    1    4    4    0    0 -0.78794873170E+00  0.32674518709E+01 -0.68798968480E+00  0.34324131073E+01  0.10500000000E+00 0. -1.
    3000001    1    5    5    0    0  0.96050618633E+01 -0.21586458268E+02 -0.99287200417E+01  0.25647843489E+02  0.10000000000E+01 0. -1.
        -13    1    6    6    0    0  0.55885906931E+01 -0.16439383843E+02 -0.15293978236E+01  0.17430885513E+02  0.10500000000E+00 0. -1.
         13    1    6    6    0    0  0.63536059772E+01 -0.18277830794E+02 -0.16514879766E+01  0.19421273001E+02  0.10500000000E+00 0.  1.
</event>
<event>
11    0  0.3483054E-009  0.9118800E+02  0.7816531E-02  0.1126479E+00
         25   -1    0    0    0    0  0.00000000000E+00  0.00000000000E+00  0.99999998245E-14  0.12500000000E+03  0.12500000000E+03 0.  0.
    3000001    1    3    3    0    0  0.45357959261E+02  0.14663301909E+02 -0.22015211536E+02  0.52516915657E+02  0.10000000000E+01 0.  1.
    1000022    2    1    0    0    0  0.51102155083E+02  0.18326573391E+02 -0.29307956650E+02  0.62500000422E+02  0.10000009166E+02 0.  0.
    3000022    2    3    3    0    0  0.57441958227E+01  0.36632714828E+01 -0.72927451134E+01  0.99830847647E+01  0.25001304787E+00 0.  0.
    1000022    2    1    0    0    0 -0.51102155083E+02 -0.18326573391E+02  0.29307956650E+02  0.62499999578E+02  0.10000003892E+02 0.  0.
    3000022    2    5    5    0    0 -0.45724582644E+02 -0.14678756857E+02  0.28581784686E+02  0.55885456773E+02  0.25000392488E+00 0.  0.
        -13    1    4    4    0    0  0.27285230367E+01  0.17132754052E+01 -0.35420693925E+01  0.47893038280E+01  0.10500000000E+00 0.  1.
         13    1    4    4    0    0  0.30156727859E+01  0.19499960776E+01 -0.37506757209E+01  0.51937809366E+01  0.10500000000E+00 0. -1.
    3000001    1    5    5    0    0 -0.53775724391E+01 -0.36478165342E+01  0.72617196325E+00  0.66145428054E+01  0.10000000000E+01 0. -1.
        -13    1    6    6    0    0 -0.17949016582E+02 -0.58275474567E+01  0.11232298370E+02  0.21961399256E+02  0.10500000000E+00 0.  1.
         13    1    6    6    0    0 -0.27775566062E+02 -0.88512094005E+01  0.17349486317E+02  0.33924057517E+02  0.10500000000E+00 0. -1.
</event>
<event>
11    0  0.3483054E-009  0.9118800E+02  0.7816531E-02  0.1126479E+00
         25   -1    0    0    0    0  0.00000000000E+00  0.00000000000E+00  0.99999998245E-14  0.12500000000E+03  0.12500000000E+03 0.  0.
    3000001    1    3    3    0    0 -0.20937905114E+01  0.13986168843E+02 -0.10653850858E+02  0.17734187766E+02  0.10000000000E+01 0. -1.
    1000022    2    1    0    0    0  0.48518489886E+01  0.54145468369E+02 -0.29171523652E+02  0.62500000048E+02  0.10000001516E+02 0.  0.
    3000022    2    3    3    0    0  0.69456395001E+01  0.40159299526E+02 -0.18517672794E+02  0.44765812282E+02  0.24999417863E+00 0.  0.
    1000022    2    1    0    0    0 -0.48518489886E+01 -0.54145468369E+02  0.29171523652E+02  0.62499999952E+02  0.10000000917E+02 0.  0.
    3000022    2    5    5    0    0  0.63975082794E+00 -0.40397166389E+02  0.20366556061E+02  0.45245987950E+02  0.24997289091E+00 0.  0.
        -13    1    4    4    0    0  0.31590264515E+01  0.17891675464E+02 -0.82341240441E+01  0.19947514201E+02  0.10500000000E+00 0.  1.
         13    1    4    4    0    0  0.37866130486E+01  0.22267624062E+02 -0.10283548750E+02  0.24818298081E+02  0.10500000000E+00 0. -1.
    3000001    1    5    5    0    0 -0.54915998166E+01 -0.13748301981E+02  0.88049675911E+01  0.17254012002E+02  0.10000000000E+01 0. -1.
        -13    1    6    6    0    0  0.37883353204E+00 -0.22686816789E+02  0.11508474102E+02  0.25441917617E+02  0.10500000000E+00 0. -1.
         13    1    6    6    0    0  0.26091729590E+00 -0.17710349599E+02  0.88580819587E+01  0.19804070333E+02  0.10500000000E+00 0.  1.
</event>
<event>
11    0  0.3483054E-009  0.9118800E+02  0.7816531E-02  0.1126479E+00
         25   -1    0    0    0    0  0.00000000000E+00  0.00000000000E+00  0.99999998245E-14  0.12500000000E+03  0.12500000000E+03 0.  0.
    3000001    1    3    3    0    0  0.15493674459E+02  0.14545414757E+02 -0.17374032731E+02  0.27467800277E+02  0.10000000000E+01 0. -1.
    1000022    2    1    0    0    0  0.27045093852E+02  0.30193633918E+02 -0.46509756846E+02  0.62499999285E+02  0.99999899063E+01 0.  0.
    3000022    2    3    3    0    0  0.11551419392E+02  0.15648219161E+02 -0.29135724115E+02  0.35032199008E+02  0.24998951536E+00 0.  0.
    1000022    2    1    0    0    0 -0.27045093852E+02 -0.30193633918E+02  0.46509756846E+02  0.62500000715E+02  0.99999988478E+01 0.  0.
    3000022    2    5    5    0    0 -0.62961389892E+01 -0.38454060796E+01  0.13754588567E+02  0.15610243976E+02  0.24999251636E+00 0.  0.
        -13    1    4    4    0    0  0.34340337853E+01  0.47150653909E+01 -0.86912313072E+01  0.10467710175E+02  0.10500000000E+00 0.  1.
         13    1    4    4    0    0  0.81173856069E+01  0.10933153770E+02 -0.20444492808E+02  0.24564488833E+02  0.10500000000E+00 0. -1.
    3000001    1    5    5    0    0 -0.20748954863E+02 -0.26348227838E+02  0.32755168279E+02  0.46889756740E+02  0.10000000000E+01 0.  1.
        -13    1    6    6    0    0 -0.30041859325E+01 -0.18760347972E+01  0.64811599180E+01  0.73865484877E+01  0.10500000000E+00 0.  1.
         13    1    6    6    0    0 -0.32919530567E+01 -0.19693712825E+01  0.72734286486E+01  0.82236954881E+01  0.10500000000E+00 0. -1.
</event>
<event>
11    0  0.3483054E-009  0.9118800E+02  0.7816531E-02  0.1126479E+00
         25   -1    0    0    0    0  0.00000000000E+00  0.00000000000E+00  0.99999998245E-14  0.12500000000E+03  0.12500000000E+03 0.  0.
    3000001    1    3    3    0    0 -0.66701414075E+01 -0.59263933084E+01  0.57389592893E+01  0.10655917500E+02  0.10000000000E+01 0.  1.
    1000022    2    1    0    0    0 -0.49935909748E+02 -0.32840137943E+02  0.15302950791E+02  0.62499999069E+02  0.99999919092E+01 0.  0.
    3000022    2    3    3    0    0 -0.43265768341E+02 -0.26913744634E+02  0.95639915021E+01  0.51844081569E+02  0.24999979751E+00 0.  0.
    1000022    2    1    0    0    0  0.49935909748E+02  0.32840137943E+02 -0.15302950791E+02  0.62500000931E+02  0.10000003548E+02 0.  0.
    3000022    2    5    5    0    0  0.44746253746E+01  0.69540651538E+01 -0.20138408359E+01  0.85146549123E+01  0.24999791489E+00 0.  0.
        -13    1    4    4    0    0 -0.27851746940E+02 -0.17379713496E+02  0.61968200918E+01  0.33409367744E+02  0.10500000000E+00 0. -1.
         13    1    4    4    0    0 -0.15414021401E+02 -0.95340311386E+01  0.33671714103E+01  0.18434713825E+02  0.10500000000E+00 0.  1.
    3000001    1    5    5    0    0  0.45461284374E+02  0.25886072789E+02 -0.13289109955E+02  0.53985346019E+02  0.10000000000E+01 0. -1.
        -13    1    6    6    0    0  0.26975251195E+01  0.40943216616E+01 -0.11573876053E+01  0.50389168189E+01  0.10500000000E+00 0.  1.
         13    1    6    6    0    0  0.17771002550E+01  0.28597434922E+01 -0.85645323058E+00  0.34757380934E+01  0.10500000000E+00 0. -1.
</event>
<event>
11    0  0.3483054E-009  0.9118800E+02  0.7816531E-02  0.1126479E+00
         25   -1    0    0    0    0  0.00000000000E+00  0.00000000000E+00  0.99999998245E-14  0.12500000000E+03  0.12500000000E+03 0.  0.
    3000001    1    3    3    0    0  0.21718799125E+02 -0.24081129087E+02  0.34759755338E+02  0.47548371210E+02  0.10000000000E+01 0.  1.
    1000022    2    1    0    0    0  0.26575729471E+02 -0.27294291127E+02  0.48528360505E+02  0.62499998931E+02  0.10000018402E+02 0.  0.
    3000022    2    3    3    0    0  0.48569303461E+01 -0.32131620400E+01  0.13768605167E+02  0.14951627721E+02  0.25000119267E+00 0.  0.
    1000022    2    1    0    0    0 -0.26575729471E+02  0.27294291127E+02 -0.48528360505E+02  0.62500001069E+02  0.10000031762E+02 0.  0.
    3000022    2    5    5    0    0 -0.82264730311E+00  0.37324497140E+00  0.37899007750E+00  0.10110353248E+01  0.24999711042E+00 0.  0.
        -13    1    4    4    0    0  0.33943558216E+01 -0.22198473958E+01  0.96906707730E+01  0.10505688884E+02  0.10500000000E+00 0. -1.
         13    1    4    4    0    0  0.14625745245E+01 -0.99331464420E+00  0.40779343939E+01  0.44459388371E+01  0.10500000000E+00 0.  1.
    3000001    1    5    5    0    0 -0.25753082168E+02  0.26921046155E+02 -0.48907350583E+02  0.61488965744E+02  0.10000000000E+01 0.  1.
        -13    1    6    6    0    0 -0.21080314327E+00  0.65816214503E-01  0.94599230610E-01  0.26219030061E+00  0.10500000000E+00 0. -1.
         13    1    6    6    0    0 -0.61184415984E+00  0.30742875689E+00  0.28439084689E+00  0.74884502421E+00  0.10500000000E+00 0.  1.
</event>
<event>
11    0  0.3483054E-009  0.9118800E+02  0.7816531E-02  0.1126479E+00
         25   -1    0    0    0    0  0.00000000000E+00  0.00000000000E+00  0.99999998245E-14  0.12500000000E+03  0.12500000000E+03 0.  0.
    3000001    1    3    3    0    0  0.81444186671E+01 -0.16136283359E+02  0.26613001138E+01  0.18297369056E+02  0.10000000000E+01 0.  1.
    1000022    2    1    0    0    0  0.37831597349E+02 -0.45988307112E+02  0.16127486843E+02  0.62500000309E+02  0.10000002890E+02 0.  0.
    3000022    2    3    3    0    0  0.29687178682E+02 -0.29852023752E+02  0.13466186729E+02  0.44202631253E+02  0.25004892596E+00 0.  0.
    1000022    2    1    0    0    0 -0.37831597349E+02  0.45988307112E+02 -0.16127486843E+02  0.62499999691E+02  0.99999990225E+01 0.  0.
    3000022    2    5    5    0    0 -0.18076212160E+02  0.15469785813E+02 -0.90071166591E+01  0.25441194289E+02  0.24999437001E+00 0.  0.
        -13    1    4    4    0    0  0.17545057258E+02 -0.17585175679E+02  0.78933049527E+01  0.26064971244E+02  0.10500000000E+00 0.  1.
         13    1    4    4    0    0  0.12142121424E+02 -0.12266848073E+02  0.55728817765E+01  0.18137660010E+02  0.10500000000E+00 0. -1.
    3000001    1    5    5    0    0 -0.19755385189E+02  0.30518521299E+02 -0.71203701840E+01  0.37058805402E+02  0.10000000000E+01 0. -1.
        -13    1    6    6    0    0 -0.12952694576E+02  0.11087107797E+02 -0.64108119289E+01  0.18215537068E+02  0.10500000000E+00 0. -1.
         13    1    6    6    0    0 -0.51235175841E+01  0.43826780162E+01 -0.25963047302E+01  0.72256572214E+01  0.10500000000E+00 0.  1.
</event>
<event>
11    0  0.3483054E-009  0.9118800E+02  0.7816531E-02  0.1126479E+00
         25   -1    0    0    0    0  0.00000000000E+00  0.00000000000E+00  0.99999998245E-14  0.12500000000E+03  0.12500000000E+03 0.  0.
    3000001    1    3    3    0    0 -0.23603744844E+02  0.45278116691E+02  0.17883987952E+02  0.54111751467E+02  0.10000000000E+01 0. -1.
    1000022    2    1    0    0    0 -0.25191339028E+02  0.51072780276E+02  0.23732201984E+02  0.62499998699E+02  0.99999989580E+01 0.  0.
    3000022    2    3    3    0    0 -0.15875941839E+01  0.57946635850E+01  0.58482140318E+01  0.83882472315E+01  0.25000579847E+00 0.  0.
    1000022    2    1    0    0    0  0.25191339028E+02 -0.51072780276E+02 -0.23732201984E+02  0.62500001301E+02  0.10000015226E+02 0.  0.
    3000022    2    5    5    0    0  0.62268964845E+01 -0.18243098833E+02 -0.12379110828E+02  0.22910473097E+02  0.24999555712E+00 0.  0.
        -13    1    4    4    0    0 -0.77795150605E+00  0.27275558643E+01  0.28455193840E+01  0.40190515179E+01  0.10500000000E+00 0.  1.
         13    1    4    4    0    0 -0.80964267789E+00  0.30671077207E+01  0.30026946478E+01  0.43691957137E+01  0.10500000000E+00 0. -1.
    3000001    1    5    5    0    0  0.18964442544E+02 -0.32829681443E+02 -0.11353091156E+02  0.39589528204E+02  0.10000000000E+01 0. -1.
        -13    1    6    6    0    0  0.29981322160E+01 -0.87784558354E+01 -0.58767763018E+01  0.10981694238E+02  0.10500000000E+00 0. -1.
         13    1    6    6    0    0  0.32287642685E+01 -0.94646429975E+01 -0.65023345266E+01  0.11928778859E+02  0.10500000000E+00 0.  1.
</event>
<event>
11    0  0.3483054E-009  0.9118800E+02  0.7816531E-02  0.1126479E+00
         25   -1    0    0    0    0  0.00000000000E+00  0.00000000000E+00  0.99999998245E-14  0.12500000000E+03  0.12500000000E+03 0.  0.
    3000001    1    3    3    0    0  0.21359991690E+02  0.47089144709E+02 -0.14937131746E+01  0.51738457394E+02  0.10000000000E+01 0.  1.
    1000022    2    1    0    0    0  0.24489773528E+02  0.56570129939E+02  0.25142359613E+01  0.62499999097E+02  0.99999947901E+01 0.  0.
    3000022    2    3    3    0    0  0.31297818379E+01  0.94809852304E+01  0.40079491360E+01  0.10761541703E+02  0.25001651418E+00 0.  0.
    1000022    2    1    0    0    0 -0.24489773528E+02 -0.56570129939E+02 -0.25142359613E+01  0.62500000903E+02  0.10000006081E+02 0.  0.
    3000022    2    5    5    0    0 -0.61899382817E+00  0.29328937422E+00 -0.27929542841E+00  0.78081799630E+00  0.24999758133E+00 0.  0.
        -13    1    4    4    0    0  0.19049101719E+01  0.55735532128E+01  0.23458928058E+01  0.63409318113E+01  0.10500000000E+00 0. -1.
         13    1    4    4    0    0  0.12248716660E+01  0.39074320175E+01  0.16620563302E+01  0.44206098917E+01  0.10500000000E+00 0.  1.
    3000001    1    5    5    0    0 -0.23870779700E+02 -0.56863419314E+02 -0.22349405329E+01  0.61719182907E+02  0.10000000000E+01 0.  1.
        -13    1    6    6    0    0 -0.31102040651E+00  0.21562057670E+00 -0.12278677705E+00  0.41149425145E+00  0.10500000000E+00 0.  1.
         13    1    6    6    0    0 -0.30797342166E+00  0.77668797525E-01 -0.15650865136E+00  0.36932374485E+00  0.10500000000E+00 0. -1.
</event>
<event>
11    0  0.3483054E-009  0.9118800E+02  0.7816531E-02  0.1126479E+00
         25   -1    0    0    0    0  0.00000000000E+00  0.00000000000E+00  0.99999998245E-14  0.12500000000E+03  0.12500000000E+03 0.  0.
    3000001    1    3    3    0    0 -0.68352724399E+01 -0.81501398011E+01  0.17736849367E+02  0.20706075282E+02  0.10000000000E+01 0. -1.
    1000022    2    1    0    0    0 -0.32853846029E+02 -0.22774069570E+02  0.46991664763E+02  0.62500000859E+02  0.10000005328E+02 0.  0.
    3000022    2    3    3    0    0 -0.26018573589E+02 -0.14623929769E+02  0.29254815395E+02  0.41793925577E+02  0.24999567507E+00 0.  0.
    1000022    2    1    0    0    0  0.32853846029E+02  0.22774069570E+02 -0.46991664763E+02  0.62499999141E+02  0.99999945921E+01 0.  0.
    3000022    2    5    5    0    0  0.21441250146E+02  0.15544496575E+02 -0.23624209108E+02  0.35489777849E+02  0.24998843521E+00 0.  0.
        -13    1    4    4    0    0 -0.64961204122E+01 -0.36739756134E+01  0.72912986901E+01  0.10434162104E+02  0.10500000000E+00 0. -1.
         13    1    4    4    0    0 -0.19522453176E+02 -0.10949954155E+02  0.21963516705E+02  0.31359763473E+02  0.10500000000E+00 0.  1.
    3000001    1    5    5    0    0  0.11412595882E+02  0.72295729950E+01 -0.23367455655E+02  0.27010221292E+02  0.10000000000E+01 0.  1.
        -13    1    6    6    0    0  0.54464877221E+01  0.39660511477E+01 -0.60442853857E+01  0.90519722180E+01  0.10500000000E+00 0. -1.
         13    1    6    6    0    0  0.15994762424E+02  0.11578445427E+02 -0.17579923722E+02  0.26437805631E+02  0.10500000000E+00 0.  1.
</event>
<event>
11    0  0.3483054E-009  0.9118800E+02  0.7816531E-02  0.1126479E+00
         25   -1    0    0    0    0  0.00000000000E+00  0.00000000000E+00  0.99999998245E-14  0.12500000000E+03  0.12500000000E+03 0.  0.
    3000001    1    3    3    0    0  0.85778279485E+00  0.11583065281E+02 -0.38444560501E+02  0.40173217755E+02  0.10000000000E+01 0.  1.
    1000022    2    1    0    0    0 -0.57907998460E+01  0.16137315110E+02 -0.59264692328E+02  0.62500000574E+02  0.10000000659E+02 0.  0.
    3000022    2    3    3    0    0 -0.66485826408E+01  0.45542498291E+01 -0.20820131827E+02  0.22326782819E+02  0.24999826884E+00 0.  0.
    1000022    2    1    0    0    0  0.57907998460E+01 -0.16137315110E+02  0.59264692328E+02  0.62499999426E+02  0.99999934868E+01 0.  0.
    3000022    2    5    5    0    0  0.24994381360E+01 -0.12845415345E+01  0.22836444594E+02  0.23010061749E+02  0.25000409416E+00 0.  0.
        -13    1    4    4    0    0 -0.41966396315E+01  0.29404967798E+01 -0.13173324780E+02  0.14135268525E+02  0.10500000000E+00 0. -1.
         13    1    4    4    0    0 -0.24519430093E+01  0.16137530493E+01 -0.76468070468E+01  0.81915142944E+01  0.10500000000E+00 0.  1.
    3000001    1    5    5    0    0  0.32913617099E+01 -0.14852773575E+02  0.36428247734E+02  0.39489937678E+02  0.10000000000E+01 0. -1.
        -13    1    6    6    0    0  0.17078341240E+01 -0.82034280240E+00  0.15270011869E+02  0.15387460713E+02  0.10500000000E+00 0.  1.
         13    1    6    6    0    0  0.79160401198E+00 -0.46419873207E+00  0.75664327248E+01  0.76226010359E+01  0.10500000000E+00 0. -1.
</event>
<event>
11    0  0.3483054E-009  0.9118800E+02  0.7816531E-02  0.1126479E+00
         25   -1    0    0    0    0  0.00000000000E+00  0.00000000000E+00  0.99999998245E-14  0.12500000000E+03  0.12500000000E+03 0.  0.
    3000001    1    3    3    0    0  0.27311067009E+01 -0.50891375189E+01  0.13195086410E+02  0.14438440701E+02  0.10000000000E+01 0. -1.
    1000022    2    1    0    0    0  0.26789307091E+02 -0.26817331675E+02  0.48676624348E+02  0.62499999789E+02  0.99999981593E+01 0.  0.
    3000022    2    3    3    0    0  0.24058200390E+02 -0.21728194156E+02  0.35481537938E+02  0.48061559088E+02  0.25000061880E+00 0.  0.
    1000022    2    1    0    0    0 -0.26789307091E+02  0.26817331675E+02 -0.48676624348E+02  0.62500000211E+02  0.10000000794E+02 0.  0.
    3000022    2    5    5    0    0 -0.92812444948E+01  0.15101984963E+02 -0.26623632052E+02  0.31985805585E+02  0.25005219647E+00 0.  0.
        -13    1    4    4    0    0  0.12176456752E+02 -0.11011023176E+02  0.17868871296E+02  0.24265537637E+02  0.10500000000E+00 0. -1.
         13    1    4    4    0    0  0.11881743637E+02 -0.10717170980E+02  0.17612666642E+02  0.23796021452E+02  0.10500000000E+00 0.  1.
    3000001    1    5    5    0    0 -0.17508062596E+02  0.11715346712E+02 -0.22052992296E+02  0.30514194626E+02  0.10000000000E+01 0. -1.
        -13    1    6    6    0    0 -0.62984945217E+01  0.10324845653E+02 -0.18108904376E+02  0.21776522075E+02  0.10500000000E+00 0.  1.
         13    1    6    6    0    0 -0.29827499731E+01  0.47771393103E+01 -0.85147276756E+01  0.10209283510E+02  0.10500000000E+00 0. -1.
</event>
<event>
11    0  0.3483054E-009  0.9118800E+02  0.7816531E-02  0.1126479E+00
         25   -1    0    0    0    0  0.00000000000E+00  0.00000000000E+00  0.99999998245E-14  0.12500000000E+03  0.12500000000E+03 0.  0.
    3000001    1    3    3    0    0  0.30137263305E+02  0.73301558632E+01  0.75250463090E+00  0.31041135413E+02  0.10000000000E+01 0. -1.
    1000022    2    1    0    0    0  0.57809705203E+02  0.20714485270E+02 -0.59328013541E+01  0.62499999576E+02  0.99999949701E+01 0.  0.
    3000022    2    3    3    0    0  0.27672441898E+02  0.13384329407E+02 -0.66853059850E+01  0.31458864163E+02  0.25000808367E+00 0.  0.
    1000022    2    1    0    0    0 -0.57809705203E+02 -0.20714485270E+02  0.59328013541E+01  0.62500000424E+02  0.10000000273E+02 0.  0.
    3000022    2    5    5    0    0 -0.41035852308E+02 -0.98573438412E+01  0.44888466983E+01  0.42441967968E+02  0.24999620073E+00 0.  0.
        -13    1    4    4    0    0  0.16393066064E+02  0.79798811362E+01 -0.40103059323E+01  0.18668280494E+02  0.10500000000E+00 0. -1.
         13    1    4    4    0    0  0.11279375834E+02  0.54044482709E+01 -0.26750000527E+01  0.12790583669E+02  0.10500000000E+00 0.  1.
    3000001    1    5    5    0    0 -0.16773852895E+02 -0.10857141429E+02  0.14439546558E+01  0.20058032456E+02  0.10000000000E+01 0. -1.
        -13    1    6    6    0    0 -0.22437795823E+02 -0.53834913024E+01  0.25211632461E+01  0.23212150894E+02  0.10500000000E+00 0.  1.
         13    1    6    6    0    0 -0.18598056484E+02 -0.44738525388E+01  0.19676834522E+01  0.19229817074E+02  0.10500000000E+00 0. -1.
</event>
<event>
11    0  0.3483054E-009  0.9118800E+02  0.7816531E-02  0.1126479E+00
         25   -1    0    0    0    0  0.00000000000E+00  0.00000000000E+00  0.99999998245E-14  0.12500000000E+03  0.12500000000E+03 0.  0.
    3000001    1    3    3    0    0 -0.39606261095E+01 -0.12908667464E+02 -0.52743981121E+01  0.14530641085E+02  0.10000000000E+01 0. -1.
    1000022    2    1    0    0    0 -0.21373616889E+02 -0.57604179402E+02 -0.55836136535E+01  0.62499997531E+02  0.99999983202E+01 0.  0.
    3000022    2    3    3    0    0 -0.17412990780E+02 -0.44695511938E+02 -0.30921554133E+00  0.47969356446E+02  0.25001667786E+00 0.  0.
    1000022    2    1    0    0    0  0.21373616889E+02  0.57604179402E+02  0.55836136535E+01  0.62500002469E+02  0.10000029185E+02 0.  0.
    3000022    2    5    5    0    0  0.11272829314E+02  0.17024432659E+02  0.17376594300E+01  0.20493656290E+02  0.24999953713E+00 0.  0.
        -13    1    4    4    0    0 -0.78890668935E+01 -0.20136730244E+02 -0.86756887426E-01  0.21627386183E+02  0.10500000000E+00 0.  1.
         13    1    4    4    0    0 -0.95239238862E+01 -0.24558781694E+02 -0.22245865391E+00  0.26341970263E+02  0.10500000000E+00 0. -1.
    3000001    1    5    5    0    0  0.10100787575E+02  0.40579746743E+02  0.38459542235E+01  0.42006346179E+02  0.10000000000E+01 0.  1.
        -13    1    6    6    0    0  0.41699575323E+01  0.64059510024E+01  0.64490172113E+00  0.76714846866E+01  0.10500000000E+00 0. -1.
         13    1    6    6    0    0  0.71028717814E+01  0.10618481656E+02  0.10927577089E+01  0.12822171604E+02  0.10500000000E+00 0.  1.
</event>
<event>
11    0  0.3483054E-009  0.9118800E+02  0.7816531E-02  0.1126479E+00
         25   -1    0    0    0    0  0.00000000000E+00  0.00000000000E+00  0.99999998245E-14  0.12500000000E+03  0.12500000000E+03 0.  0.
    3000001    1    3    3    0    0 -0.16394558144E+02 -0.24952006276E+02 -0.10937152949E+02  0.31812033393E+02  0.10000000000E+01 0. -1.
    1000022    2    1    0    0    0 -0.29396638210E+02 -0.52676550526E+02 -0.12933241009E+02  0.62500000191E+02  0.99999993789E+01 0.  0.
    3000022    2    3    3    0    0 -0.13002080065E+02 -0.27724544250E+02 -0.19960880598E+01  0.30687966799E+02  0.24999760826E+00 0.  0.
    1000022    2    1    0    0    0  0.29396638210E+02  0.52676550526E+02  0.12933241009E+02  0.62499999809E+02  0.99999969874E+01 0.  0.
    3000022    2    5    5    0    0  0.25024602374E+02  0.42390818183E+02  0.67478177193E+01  0.49687098169E+02  0.24998039339E+00 0.  0.
        -13    1    4    4    0    0 -0.60578046497E+01 -0.12759077531E+02 -0.91978211051E+00  0.14154436787E+02  0.10500000000E+00 0.  1.
         13    1    4    4    0    0 -0.69442754157E+01 -0.14965466718E+02 -0.10763059493E+01  0.16533530012E+02  0.10500000000E+00 0. -1.
    3000001    1    5    5    0    0  0.43720358352E+01  0.10285732343E+02  0.61854232892E+01  0.12812901640E+02  0.10000000000E+01 0.  1.
        -13    1    6    6    0    0  0.15234349342E+02  0.25806992879E+02  0.41706388159E+01  0.30257090647E+02  0.10500000000E+00 0.  1.
         13    1    6    6    0    0  0.97902530321E+01  0.16583825305E+02  0.25771789034E+01  0.19430007521E+02  0.10500000000E+00 0. -1.
</event>
<event>
11    0  0.3483054E-009  0.9118800E+02  0.7816531E-02  0.1126479E+00
         25   -1    0    0    0    0  0.00000000000E+00  0.00000000000E+00  0.99999998245E-14  0.12500000000E+03  0.12500000000E+03 0.  0.
    3000001    1    3    3    0    0  0.35715674051E+02 -0.43059915972E+02  0.32727222250E+01  0.56048875521E+02  0.10000000000E+01 0.  1.
    1000022    2    1    0    0    0  0.41736123692E+02 -0.45263395603E+02  0.39460037096E+01  0.62499998977E+02  0.99999962264E+01 0.  0.
    3000022    2    3    3    0    0  0.60204496406E+01 -0.22034796307E+01  0.67328148457E+00  0.64511234556E+01  0.25009902620E+00 0.  0.
    1000022    2    1    0    0    0 -0.41736123692E+02  0.45263395603E+02 -0.39460037096E+01  0.62500001023E+02  0.10000009015E+02 0.  0.
    3000022    2    5    5    0    0 -0.27176388660E+02  0.35229191119E+02 -0.73218228628E+00  0.44500006802E+02  0.25001398266E+00 0.  0.
        -13    1    4    4    0    0  0.41079206940E+01 -0.15396485577E+01  0.49731075384E+00  0.44163189531E+01  0.10500000000E+00 0.  1.
         13    1    4    4    0    0  0.19125289466E+01 -0.66383107300E+00  0.17597073073E+00  0.20348045025E+01  0.10500000000E+00 0. -1.
    3000001    1    5    5    0    0 -0.14559735032E+02  0.10034204484E+02 -0.32138214233E+01  0.17999994221E+02  0.10000000000E+01 0.  1.
        -13    1    6    6    0    0 -0.14861601061E+02  0.19195435105E+02 -0.45096226475E+00  0.24280574683E+02  0.10500000000E+00 0. -1.
         13    1    6    6    0    0 -0.12314787600E+02  0.16033756013E+02 -0.28122002153E+00  0.20219432119E+02  0.10500000000E+00 0.  1.
</event>
<event>
11    0  0.3483054E-009  0.9118800E+02  0.7816531E-02  0.1126479E+00
         25   -1    0    0    0    0  0.00000000000E+00  0.00000000000E+00  0.99999998245E-14  0.12500000000E+03  0.12500000000E+03 0.  0.
    3000001    1    3    3    0    0  0.82490486969E+01  0.53428291811E+02 -0.45460552508E+01  0.54261365524E+02  0.10000000000E+01 0.  1.
    1000022    2    1    0    0    0  0.85184172930E+01  0.61084827862E+02 -0.15265362375E+01  0.62499999897E+02  0.10000002307E+02 0.  0.
    3000022    2    3    3    0    0  0.26936859608E+00  0.76565360513E+01  0.30195190134E+01  0.82386343728E+01  0.24999502032E+00 0.  0.
    1000022    2    1    0    0    0 -0.85184172930E+01 -0.61084827862E+02  0.15265362375E+01  0.62500000103E+02  0.10000003596E+02 0.  0.
    3000022    2    5    5    0    0 -0.37683485678E+00 -0.44870925043E+01  0.27788668566E+01  0.52972261830E+01  0.25000115123E+00 0.  0.
        -13    1    4    4    0    0  0.12321737699E+00  0.41490226556E+01  0.15680575718E+01  0.44384007331E+01  0.10500000000E+00 0.  1.
         13    1    4    4    0    0  0.14615121908E+00  0.35075133957E+01  0.14514614416E+01  0.38002336397E+01  0.10500000000E+00 0. -1.
    3000001    1    5    5    0    0 -0.81415824362E+01 -0.56597735358E+02 -0.12523306192E+01  0.57202773920E+02  0.10000000000E+01 0.  1.
        -13    1    6    6    0    0 -0.29448556959E+00 -0.27806622276E+01  0.17235888785E+01  0.32864247742E+01  0.10500000000E+00 0.  1.
         13    1    6    6    0    0 -0.82349287195E-01 -0.17064302767E+01  0.10552779781E+01  0.20108014088E+01  0.10500000000E+00 0. -1.
</event>
<event>
11    0  0.3483054E-009  0.9118800E+02  0.7816531E-02  0.1126479E+00
         25   -1    0    0    0    0  0.00000000000E+00  0.00000000000E+00  0.99999998245E-14  0.12500000000E+03  0.12500000000E+03 0.  0.
    3000001    1    3    3    0    0  0.40138765538E+02  0.45255698737E+02 -0.61430576537E+01  0.60810656339E+02  0.10000000000E+01 0. -1.
    1000022    2    1    0    0    0  0.41217351729E+02  0.45641075976E+02 -0.49267020260E+01  0.62500000403E+02  0.99999878880E+01 0.  0.
    3000022    2    3    3    0    0  0.10785861911E+01  0.38537723883E+00  0.12163556277E+01  0.16893440639E+01  0.24999713077E+00 0.  0.
    1000022    2    1    0    0    0 -0.41217351729E+02 -0.45641075976E+02  0.49267020260E+01  0.62499999597E+02  0.99999828532E+01 0.  0.
    3000022    2    5    5    0    0 -0.16219872468E+02 -0.11686930275E+02  0.35231879308E+01  0.20301328629E+02  0.24997757297E+00 0.  0.
        -13    1    4    4    0    0  0.53170264385E+00  0.20644990956E+00  0.70076195208E+00  0.90962716544E+00  0.10500000000E+00 0.  1.
         13    1    4    4    0    0  0.54688354721E+00  0.17892732927E+00  0.51559367558E+00  0.77971689841E+00  0.10500000000E+00 0. -1.
    3000001    1    5    5    0    0 -0.24997479261E+02 -0.33954145701E+02  0.14035140952E+01  0.42198670968E+02  0.10000000000E+01 0. -1.
        -13    1    6    6    0    0 -0.71181212208E+01 -0.52062200288E+01  0.15329064587E+01  0.89517151381E+01  0.10500000000E+00 0.  1.
         13    1    6    6    0    0 -0.91017512469E+01 -0.64807102459E+01  0.19902814721E+01  0.11349613491E+02  0.10500000000E+00 0. -1.
</event>
<event>
11    0  0.3483054E-009  0.9118800E+02  0.7816531E-02  0.1126479E+00
         25   -1    0    0    0    0  0.00000000000E+00  0.00000000000E+00  0.99999998245E-14  0.12500000000E+03  0.12500000000E+03 0.  0.
    3000001    1    3    3    0    0  0.40898496719E+01  0.18541762173E+01  0.11496763609E+02  0.12383069623E+02  0.10000000000E+01 0. -1.
    1000022    2    1    0    0    0  0.37551535474E+02  0.88973469891E+01  0.48134914027E+02  0.62500005250E+02  0.10000005397E+02 0.  0.
    3000022    2    3    3    0    0  0.33461685802E+02  0.70431707718E+01  0.36638150418E+02  0.50116935627E+02  0.24999881764E+00 0.  0.
    1000022    2    1    0    0    0 -0.37551535474E+02 -0.88973469891E+01 -0.48134914027E+02  0.62499994750E+02  0.99999397715E+01 0.  0.
    3000022    2    5    5    0    0 -0.13408168700E+02  0.11168154216E+01 -0.19773476851E+02  0.23918176147E+02  0.24999774521E+00 0.  0.
        -13    1    4    4    0    0  0.13236970247E+02  0.28422615254E+01  0.14461878094E+02  0.19810420866E+02  0.10500000000E+00 0.  1.
         13    1    4    4    0    0  0.20224715555E+02  0.42009092464E+01  0.22176272324E+02  0.30306514761E+02  0.10500000000E+00 0. -1.
    3000001    1    5    5    0    0 -0.24143366774E+02 -0.10014162411E+02 -0.28361437177E+02  0.38581818603E+02  0.10000000000E+01 0.  1.
        -13    1    6    6    0    0 -0.69109117046E+01  0.56448783309E+00 -0.10309009755E+02  0.12424413638E+02  0.10500000000E+00 0.  1.
         13    1    6    6    0    0 -0.64972569955E+01  0.55232758848E+00 -0.94644670954E+01  0.11493762510E+02  0.10500000000E+00 0. -1.
</event>
<event>
11    0  0.3483054E-009  0.9118800E+02  0.7816531E-02  0.1126479E+00
         25   -1    0    0    0    0  0.00000000000E+00  0.00000000000E+00  0.99999998245E-14  0.12500000000E+03  0.12500000000E+03 0.  0.
    3000001    1    3    3    0    0  0.34566163014E+01 -0.36501393709E+02  0.84452802722E+01  0.37638048539E+02  0.10000000000E+01 0. -1.
    1000022    2    1    0    0    0  0.57003848870E+01 -0.57555340485E+02  0.21474131780E+02  0.62500000315E+02  0.10000004874E+02 0.  0.
    3000022    2    3    3    0    0  0.22437685856E+01 -0.21053946776E+02  0.13028851508E+02  0.24861951776E+02  0.25000438265E+00 0.  0.
    1000022    2    1    0    0    0 -0.57003848870E+01  0.57555340485E+02 -0.21474131780E+02  0.62499999685E+02  0.10000000939E+02 0.  0.
    3000022    2    5    5    0    0 -0.43811668498E+01  0.19764555169E+02 -0.32253250239E+01  0.20501157570E+02  0.24995240801E+00 0.  0.
        -13    1    4    4    0    0  0.15907377385E+01 -0.14674110120E+02  0.91270323227E+01  0.17354356755E+02  0.10500000000E+00 0.  1.
         13    1    4    4    0    0  0.65303084709E+00 -0.63798366564E+01  0.39018191850E+01  0.75075950212E+01  0.10500000000E+00 0. -1.
    3000001    1    5    5    0    0 -0.13192180372E+01  0.37790785316E+02 -0.18248806756E+02  0.41998842115E+02  0.10000000000E+01 0. -1.
        -13    1    6    6    0    0 -0.33728764206E+01  0.15214555386E+02 -0.24757492757E+01  0.15779713255E+02  0.10500000000E+00 0.  1.
         13    1    6    6    0    0 -0.10082904291E+01  0.45499997830E+01 -0.74957574821E+00  0.47214443147E+01  0.10500000000E+00 0. -1.
</event>
<event>
11    0  0.3483054E-009  0.9118800E+02  0.7816531E-02  0.1126479E+00
         25   -1    0    0    0    0  0.00000000000E+00  0.00000000000E+00  0.99999998245E-14  0.12500000000E+03  0.12500000000E+03 0.  0.
    3000001    1    3    3    0    0  0.18368705404E+01 -0.35610982479E+02 -0.51340928556E+00  0.35676038956E+02  0.10000000000E+01 0.  1.
    1000022    2    1    0    0    0 -0.48873380747E+01 -0.61397702651E+02 -0.35617628234E+01  0.62499999868E+02  0.99999932371E+01 0.  0.
    3000022    2    3    3    0    0 -0.67242086150E+01 -0.25786720172E+02 -0.30483535379E+01  0.26823960911E+02  0.25000190814E+00 0.  0.
    1000022    2    1    0    0    0  0.48873380747E+01  0.61397702651E+02  0.35617628234E+01  0.62500000132E+02  0.99999948922E+01 0.  0.
    3000022    2    5    5    0    0  0.57202800727E+01  0.53838252124E+02  0.59458743042E+01  0.54467374646E+02  0.24996751507E+00 0.  0.
        -13    1    4    4    0    0 -0.35239731841E+01 -0.13778852534E+02 -0.16350923303E+01  0.14316414219E+02  0.10500000000E+00 0.  1.
         13    1    4    4    0    0 -0.32002354309E+01 -0.12007867638E+02 -0.14132612076E+01  0.12507546692E+02  0.10500000000E+00 0. -1.
    3000001    1    5    5    0    0 -0.83294199808E+00  0.75594505275E+01 -0.23841114808E+01  0.80326254863E+01  0.10000000000E+01 0. -1.
        -13    1    6    6    0    0  0.27278709725E+01  0.26288836570E+02  0.28832068295E+01  0.26586991460E+02  0.10500000000E+00 0. -1.
         13    1    6    6    0    0  0.29924091002E+01  0.27549415553E+02  0.30626674747E+01  0.27880383186E+02  0.10500000000E+00 0.  1.
</event>
<event>
11    0  0.3483054E-009  0.9118800E+02  0.7816531E-02  0.1126479E+00
         25   -1    0    0    0    0  0.00000000000E+00  0.00000000000E+00  0.99999998245E-14  0.12500000000E+03  0.12500000000E+03 0.  0.
    3000001    1    3    3    0    0 -0.15487634799E+02 -0.14544464138E+02 -0.15167272749E+02  0.26123828804E+02  0.10000000000E+01 0.  1.
    1000022    2    1    0    0    0 -0.30618948514E+02 -0.29711980444E+02 -0.44563753786E+02  0.62499999652E+02  0.10000000749E+02 0.  0.
    3000022    2    3    3    0    0 -0.15131313714E+02 -0.15167516306E+02 -0.29396481037E+02  0.36376170848E+02  0.25000515278E+00 0.  0.
    1000022    2    1    0    0    0  0.30618948514E+02  0.29711980444E+02  0.44563753786E+02  0.62500000348E+02  0.10000005102E+02 0.  0.
    3000022    2    5    5    0    0  0.23797869112E+02  0.26592525585E+02  0.32550026148E+02  0.48301839391E+02  0.24999001706E+00 0.  0.
        -13    1    4    4    0    0 -0.69763650476E+01 -0.69364838702E+01 -0.13590028564E+02  0.16777496211E+02  0.10500000000E+00 0.  1.
         13    1    4    4    0    0 -0.81549486669E+01 -0.82310324357E+01 -0.15806452473E+02  0.19598674636E+02  0.10500000000E+00 0. -1.
    3000001    1    5    5    0    0  0.68210794012E+01  0.31194548587E+01  0.12013727638E+02  0.14198160957E+02  0.10000000000E+01 0.  1.
        -13    1    6    6    0    0  0.59799046060E+01  0.66913983193E+01  0.82216552478E+01  0.12171306856E+02  0.10500000000E+00 0.  1.
         13    1    6    6    0    0  0.17817964506E+02  0.19901127266E+02  0.24328370901E+02  0.36130532535E+02  0.10500000000E+00 0. -1.
</event>
<event>
11    0  0.3483054E-009  0.9118800E+02  0.7816531E-02  0.1126479E+00
         25   -1    0    0    0    0  0.00000000000E+00  0.00000000000E+00  0.99999998245E-14  0.12500000000E+03  0.12500000000E+03 0.  0.
    3000001    1    3    3    0    0 -0.12281694639E+02  0.14444736931E+02 -0.35803713015E+02  0.40526489039E+02  0.10000000000E+01 0.  1.
    1000022    2    1    0    0    0 -0.22525558131E+02  0.15917727015E+02 -0.55185824073E+02  0.62499999323E+02  0.99999967160E+01 0.  0.
    3000022    2    3    3    0    0 -0.10243863492E+02  0.14729900843E+01 -0.19382111058E+02  0.21973510283E+02  0.24997216628E+00 0.  0.
    1000022    2    1    0    0    0  0.22525558131E+02 -0.15917727015E+02  0.55185824073E+02  0.62500000677E+02  0.10000005184E+02 0.  0.
    3000022    2    5    5    0    0  0.53203973361E+01 -0.43345631782E+01  0.24532509814E+02  0.25475509898E+02  0.25000206321E+00 0.  0.
        -13    1    4    4    0    0 -0.68481811569E+01  0.99398843673E+00 -0.13068836212E+02  0.14788208246E+02  0.10500000000E+00 0. -1.
         13    1    4    4    0    0 -0.33956823352E+01  0.47900164756E+00 -0.63132748453E+01  0.71853020376E+01  0.10500000000E+00 0.  1.
    3000001    1    5    5    0    0  0.17205160795E+02 -0.11583163837E+02  0.30653314259E+02  0.37024490779E+02  0.10000000000E+01 0.  1.
        -13    1    6    6    0    0  0.29427322199E+01 -0.24786323168E+01  0.13825563413E+02  0.14351324670E+02  0.10500000000E+00 0. -1.
         13    1    6    6    0    0  0.23776651163E+01 -0.18559308614E+01  0.10706946401E+02  0.11124185228E+02  0.10500000000E+00 0.  1.
</event>
<event>
11    0  0.3483054E-009  0.9118800E+02  0.7816531E-02  0.1126479E+00
         25   -1    0    0    0    0  0.00000000000E+00  0.00000000000E+00  0.99999998245E-14  0.12500000000E+03  0.12500000000E+03 0.  0.
    3000001    1    3    3    0    0  0.51059351777E+01  0.17756173450E+02 -0.24414288730E+01  0.18663141337E+02  0.10000000000E+01 0. -1.
    1000022    2    1    0    0    0  0.66810848587E+01  0.61279092442E+02  0.25467625535E+01  0.62499999378E+02  0.99999928670E+01 0.  0.
    3000022    2    3    3    0    0  0.15751496810E+01  0.43522918992E+02  0.49881914265E+01  0.43836858041E+02  0.24999018050E+00 0.  0.
    1000022    2    1    0    0    0 -0.66810848587E+01 -0.61279092442E+02 -0.25467625535E+01  0.62500000622E+02  0.10000000639E+02 0.  0.
    3000022    2    5    5    0    0 -0.46753435994E+01 -0.59205021866E+02 -0.25853262703E+01  0.59446109020E+02  0.25002753048E+00 0.  0.
        -13    1    4    4    0    0  0.85089547224E+00  0.23048495695E+02  0.27073958446E+01  0.23222794711E+02  0.10500000000E+00 0. -1.
         13    1    4    4    0    0  0.72425420875E+00  0.20474423296E+02  0.22807955819E+01  0.20614063330E+02  0.10500000000E+00 0.  1.
    3000001    1    5    5    0    0 -0.20057412593E+01 -0.20740705758E+01  0.38563716803E-01  0.30538916014E+01  0.10000000000E+01 0. -1.
        -13    1    6    6    0    0 -0.11541364163E+01 -0.14856751044E+02 -0.66777136559E+00  0.14916836999E+02  0.10500000000E+00 0.  1.
         13    1    6    6    0    0 -0.35212071832E+01 -0.44348270822E+02 -0.19175549047E+01  0.44529272021E+02  0.10500000000E+00 0. -1.
</event>
<event>
11    0  0.3483054E-009  0.9118800E+02  0.7816531E-02  0.1126479E+00
         25   -1    0    0    0    0  0.00000000000E+00  0.00000000000E+00  0.99999998245E-14  0.12500000000E+03  0.12500000000E+03 0.  0.
    3000001    1    3    3    0    0  0.12473886827E+01  0.81317355082E+01 -0.31288222669E+01  0.88583649551E+01  0.10000000000E+01 0. -1.
    1000022    2    1    0    0    0  0.29327447395E+02  0.46802749651E+02 -0.27489148257E+02  0.62500000093E+02  0.10000009702E+02 0.  0.
    3000022    2    3    3    0    0  0.28080058712E+02  0.38671014143E+02 -0.24360325990E+02  0.53641635137E+02  0.25001145696E+00 0.  0.
    1000022    2    1    0    0    0 -0.29327447395E+02 -0.46802749651E+02  0.27489148257E+02  0.62499999907E+02  0.10000008545E+02 0.  0.
    3000022    2    5    5    0    0 -0.27815187691E+02 -0.39255184834E+02  0.25653839810E+02  0.54523721252E+02  0.24995912917E+00 0.  0.
        -13    1    4    4    0    0  0.18746665444E+02  0.25849268135E+02 -0.16220450415E+02  0.35815306296E+02  0.10500000000E+00 0. -1.
         13    1    4    4    0    0  0.93333932682E+01  0.12821746008E+02 -0.81398755752E+01  0.17826328842E+02  0.10500000000E+00 0.  1.
    3000001    1    5    5    0    0 -0.15122597034E+01 -0.75475648178E+01  0.18353084470E+01  0.79762786552E+01  0.10000000000E+01 0.  1.
        -13    1    6    6    0    0 -0.13267011026E+02 -0.18826646349E+02  0.12317064332E+02  0.26118523945E+02  0.10500000000E+00 0.  1.
         13    1    6    6    0    0 -0.14548176665E+02 -0.20428538485E+02  0.13336775478E+02  0.28405197307E+02  0.10500000000E+00 0. -1.
</event>
<event>
11    0  0.3483054E-009  0.9118800E+02  0.7816531E-02  0.1126479E+00
         25   -1    0    0    0    0  0.00000000000E+00  0.00000000000E+00  0.99999998245E-14  0.12500000000E+03  0.12500000000E+03 0.  0.
    3000001    1    3    3    0    0  0.16132079665E+02  0.41428500601E+02  0.24900828312E+02  0.50966811819E+02  0.10000000000E+01 0. -1.
    1000022    2    1    0    0    0  0.23663611522E+02  0.49522032857E+02  0.28175370330E+02  0.62499997228E+02  0.99999955852E+01 0.  0.
    3000022    2    3    3    0    0  0.75315318567E+01  0.80935322562E+01  0.32745420187E+01  0.11533185409E+02  0.25000752779E+00 0.  0.
    1000022    2    1    0    0    0 -0.23663611522E+02 -0.49522032857E+02 -0.28175370330E+02  0.62500002772E+02  0.10000030236E+02 0.  0.
    3000022    2    5    5    0    0  0.88080353516E+00 -0.34658461045E+01 -0.15807981866E+01  0.39178218962E+01  0.25000283191E+00 0.  0.
        -13    1    4    4    0    0  0.41461088415E+01  0.45431135890E+01  0.18517631108E+01  0.64241848686E+01  0.10500000000E+00 0.  1.
         13    1    4    4    0    0  0.33854230152E+01  0.35504186672E+01  0.14227789080E+01  0.51090005407E+01  0.10500000000E+00 0. -1.
    3000001    1    5    5    0    0 -0.24544415057E+02 -0.46056186753E+02 -0.26594572144E+02  0.58582180876E+02  0.10000000000E+01 0. -1.
        -13    1    6    6    0    0  0.59021762050E+00 -0.22196509964E+01 -0.10709519140E+01  0.25363695290E+01  0.10500000000E+00 0. -1.
         13    1    6    6    0    0  0.29058591466E+00 -0.12461951080E+01 -0.50984627255E+00  0.13814523671E+01  0.10500000000E+00 0.  1.
</event>
<event>
11    0  0.3483054E-009  0.9118800E+02  0.7816531E-02  0.1126479E+00
         25   -1    0    0    0    0  0.00000000000E+00  0.00000000000E+00  0.99999998245E-14  0.12500000000E+03  0.12500000000E+03 0.  0.
    3000001    1    3    3    0    0 -0.36039129597E+02  0.34009341536E+00  0.18072894486E+02  0.40330683614E+02  0.10000000000E+01 0.  1.
    1000022    2    1    0    0    0 -0.57763079809E+02 -0.23927580866E+01  0.21539528193E+02  0.62499998612E+02  0.99999935709E+01 0.  0.
    3000022    2    3    3    0    0 -0.21723950211E+02 -0.27328515020E+01  0.34666337068E+01  0.22169314998E+02  0.24997616728E+00 0.  0.
    1000022    2    1    0    0    0  0.57763079809E+02  0.23927580866E+01 -0.21539528193E+02  0.62500001388E+02  0.10000010925E+02 0.  0.
    3000022    2    5    5    0    0  0.31334944702E+02  0.52982665337E+01 -0.14775361431E+02  0.35047455850E+02  0.24993677956E+00 0.  0.
        -13    1    4    4    0    0 -0.68668581270E+01 -0.88961111488E+00  0.10530271042E+01  0.70046441418E+01  0.10500000000E+00 0.  1.
         13    1    4    4    0    0 -0.14857092084E+02 -0.18432403871E+01  0.24136066026E+01  0.15164670856E+02  0.10500000000E+00 0. -1.
    3000001    1    5    5    0    0  0.26428135107E+02 -0.29055084471E+01 -0.67641667622E+01  0.27452545538E+02  0.10000000000E+01 0.  1.
        -13    1    6    6    0    0  0.22423694932E+02  0.38289422761E+01 -0.10556400970E+02  0.25078507128E+02  0.10500000000E+00 0. -1.
         13    1    6    6    0    0  0.89112497704E+01  0.14693242576E+01 -0.42189604612E+01  0.99689487217E+01  0.10500000000E+00 0.  1.
</event>
<event>
11    0  0.3483054E-009  0.9118800E+02  0.7816531E-02  0.1126479E+00
         25   -1    0    0    0    0  0.00000000000E+00  0.00000000000E+00  0.99999998245E-14  0.12500000000E+03  0.12500000000E+03 0.  0.
    3000001    1    3    3    0    0  0.48824349180E+02 -0.45438211093E+00 -0.19232786386E+02  0.52487366176E+02  0.10000000000E+01 0.  1.
    1000022    2    1    0    0    0  0.58813769438E+02 -0.62592191657E+00 -0.18622532489E+02  0.62500000921E+02  0.10000007253E+02 0.  0.
    3000022    2    3    3    0    0  0.99894202585E+01 -0.17153980564E+00  0.61025389681E+00  0.10012634745E+02  0.25000343354E+00 0.  0.
    1000022    2    1    0    0    0 -0.58813769438E+02  0.62592191657E+00  0.18622532489E+02  0.62499999079E+02  0.99999957381E+01 0.  0.
    3000022    2    5    5    0    0 -0.33326926359E+02  0.11268435567E+00  0.53910243469E+01  0.33761255358E+02  0.25000305176E+00 0.  0.
        -13    1    4    4    0    0  0.75364611751E+01 -0.12888968944E+00  0.43667635800E+00  0.75509317861E+01  0.10500000000E+00 0. -1.
         13    1    4    4    0    0  0.24529590834E+01 -0.42650116204E-01  0.17357753881E+00  0.24617029592E+01  0.10500000000E+00 0.  1.
    3000001    1    5    5    0    0 -0.25486843079E+02  0.51323756090E+00  0.13231508142E+02  0.28738743721E+02  0.10000000000E+01 0. -1.
        -13    1    6    6    0    0 -0.12799841313E+02  0.73183337935E-01  0.20163446979E+01  0.12958316418E+02  0.10500000000E+00 0. -1.
         13    1    6    6    0    0 -0.20527085046E+02  0.39501017734E-01  0.33746796490E+01  0.20802938940E+02  0.10500000000E+00 0.  1.
</event>
<event>
11    0  0.3483054E-009  0.9118800E+02  0.7816531E-02  0.1126479E+00
         25   -1    0    0    0    0  0.00000000000E+00  0.00000000000E+00  0.99999998245E-14  0.12500000000E+03  0.12500000000E+03 0.  0.
    3000001    1    3    3    0    0  0.14281842404E+02 -0.30128430723E+02 -0.13706924503E+02  0.36063459895E+02  0.10000000000E+01 0. -1.
    1000022    2    1    0    0    0  0.19030888611E+02 -0.55680552517E+02 -0.18540530746E+02  0.62499999423E+02  0.99999998784E+01 0.  0.
    3000022    2    3    3    0    0  0.47490462070E+01 -0.25552121795E+02 -0.48336062435E+01  0.26436539528E+02  0.25000964253E+00 0.  0.
    1000022    2    1    0    0    0 -0.19030888611E+02  0.55680552517E+02  0.18540530746E+02  0.62500000577E+02  0.10000007089E+02 0.  0.
    3000022    2    5    5    0    0 -0.12091894706E+02  0.27128858392E+02  0.49555539934E+01  0.30113267687E+02  0.25000044846E+00 0.  0.
        -13    1    4    4    0    0  0.22223863392E+01 -0.11658441491E+02 -0.21679317449E+01  0.12065206675E+02  0.10500000000E+00 0. -1.
         13    1    4    4    0    0  0.25266598678E+01 -0.13893680303E+02 -0.26656744986E+01  0.14371332854E+02  0.10500000000E+00 0.  1.
    3000001    1    5    5    0    0 -0.69389939054E+01  0.28551694126E+02  0.13584976753E+02  0.32386732889E+02  0.10000000000E+01 0. -1.
        -13    1    6    6    0    0 -0.71726255203E+01  0.15938144887E+02  0.29295338202E+01  0.17721856920E+02  0.10500000000E+00 0.  1.
         13    1    6    6    0    0 -0.49192691857E+01  0.11190713505E+02  0.20260201733E+01  0.12391410767E+02  0.10500000000E+00 0. -1.
</event>
<event>
11    0  0.3483054E-009  0.9118800E+02  0.7816531E-02  0.1126479E+00
         25   -1    0    0    0    0  0.00000000000E+00  0.00000000000E+00  0.99999998245E-14  0.12500000000E+03  0.12500000000E+03 0.  0.
    3000001    1    3    3    0    0  0.62131454085E+01 -0.29308577955E+01  0.10868305845E+02  0.12896246556E+02  0.10000000000E+01 0. -1.
    1000022    2    1    0    0    0  0.44847397516E+02 -0.10886483085E+02  0.40944418464E+02  0.62500001042E+02  0.10000007447E+02 0.  0.
    3000022    2    3    3    0    0  0.38634252107E+02 -0.79556252894E+01  0.30076112619E+02  0.49603754486E+02  0.24999837963E+00 0.  0.
    1000022    2    1    0    0    0 -0.44847397516E+02  0.10886483085E+02 -0.40944418464E+02  0.62499998958E+02  0.99999944256E+01 0.  0.
    3000022    2    5    5    0    0 -0.30127572015E+02  0.10922658105E+02 -0.31770931540E+02  0.45126817507E+02  0.25002346495E+00 0.  0.
        -13    1    4    4    0    0  0.16970401234E+02 -0.34303001121E+01  0.13176086398E+02  0.21757337950E+02  0.10500000000E+00 0. -1.
         13    1    4    4    0    0  0.21663850873E+02 -0.45253251773E+01  0.16900026221E+02  0.27846416536E+02  0.10500000000E+00 0.  1.
    3000001    1    5    5    0    0 -0.14719825501E+02 -0.36175020436E-01 -0.91734869239E+01  0.17373181452E+02  0.10000000000E+01 0. -1.
        -13    1    6    6    0    0 -0.13859182832E+02  0.49829875445E+01 -0.14677911524E+02  0.20793249514E+02  0.10500000000E+00 0.  1.
         13    1    6    6    0    0 -0.16268389182E+02  0.59396705608E+01 -0.17093020016E+02  0.24333567992E+02  0.10500000000E+00 0. -1.
</event>
<event>
11    0  0.3483054E-009  0.9118800E+02  0.7816531E-02  0.1126479E+00
         25   -1    0    0    0    0  0.00000000000E+00  0.00000000000E+00  0.99999998245E-14  0.12500000000E+03  0.12500000000E+03 0.  0.
    3000001    1    3    3    0    0  0.14320031959E+02 -0.37900065076E+01  0.17822025840E+01  0.14953384590E+02  0.10000000000E+01 0.  1.
    1000022    2    1    0    0    0  0.55179554524E+02 -0.27138126644E+02 -0.49988668136E+01  0.62500000672E+02  0.10000012969E+02 0.  0.
    3000022    2    3    3    0    0  0.40859522565E+02 -0.23348120136E+02 -0.67810693976E+01  0.47546616082E+02  0.25000115356E+00 0.  0.
    1000022    2    1    0    0    0 -0.55179554524E+02  0.27138126644E+02  0.49988668136E+01  0.62499999328E+02  0.10000004565E+02 0.  0.
    3000022    2    5    5    0    0 -0.18150863544E+02  0.13915943051E+02  0.35090134671E+01  0.23140505458E+02  0.24999791625E+00 0.  0.
        -13    1    4    4    0    0  0.18556886409E+02 -0.10560699573E+02 -0.31325447698E+01  0.21580321369E+02  0.10500000000E+00 0. -1.
         13    1    4    4    0    0  0.22302636157E+02 -0.12787420563E+02 -0.36485246278E+01  0.25966294713E+02  0.10500000000E+00 0.  1.
    3000001    1    5    5    0    0 -0.37028690980E+02  0.13222183593E+02  0.14898533465E+01  0.39359493870E+02  0.10000000000E+01 0. -1.
        -13    1    6    6    0    0 -0.13543181789E+02  0.10388645553E+02  0.25901694267E+01  0.17264464430E+02  0.10500000000E+00 0.  1.
         13    1    6    6    0    0 -0.46076817550E+01  0.35272974980E+01  0.91884404039E+00  0.58760410283E+01  0.10500000000E+00 0. -1.
</event>
<event>
11    0  0.3483054E-009  0.9118800E+02  0.7816531E-02  0.1126479E+00
         25   -1    0    0    0    0  0.00000000000E+00  0.00000000000E+00  0.99999998245E-14  0.12500000000E+03  0.12500000000E+03 0.  0.
    3000001    1    3    3    0    0  0.20358549727E+02  0.11603249385E+02 -0.57630772173E+01  0.24151997895E+02  0.10000000000E+01 0.  1.
    1000022    2    1    0    0    0  0.52897423152E+02  0.21186019653E+02 -0.23648793541E+02  0.62499998272E+02  0.99999771580E+01 0.  0.
    3000022    2    3    3    0    0  0.32538873424E+02  0.95827702681E+01 -0.17885716323E+02  0.38348000377E+02  0.25002950754E+00 0.  0.
    1000022    2    1    0    0    0 -0.52897423152E+02 -0.21186019653E+02  0.23648793541E+02  0.62500001728E+02  0.99999987637E+01 0.  0.
    3000022    2    5    5    0    0 -0.17334331319E+02 -0.86565507339E+01  0.33460766640E+01  0.19664019136E+02  0.25001328228E+00 0.  0.
        -13    1    4    4    0    0  0.12598238670E+02  0.36528734255E+01 -0.68849763117E+01  0.14814622022E+02  0.10500000000E+00 0. -1.
         13    1    4    4    0    0  0.19940634754E+02  0.59298968426E+01 -0.11000740012E+02  0.23533378354E+02  0.10500000000E+00 0.  1.
    3000001    1    5    5    0    0 -0.35563091832E+02 -0.12529468919E+02  0.20302716877E+02  0.42835982592E+02  0.10000000000E+01 0.  1.
        -13    1    6    6    0    0 -0.10881135801E+02 -0.54957988885E+01  0.20825752799E+01  0.12367338701E+02  0.10500000000E+00 0. -1.
         13    1    6    6    0    0 -0.64531955185E+01 -0.31607518454E+01  0.12635013841E+01  0.72966804354E+01  0.10500000000E+00 0.  1.
</event>
<event>
11    0  0.3483054E-009  0.9118800E+02  0.7816531E-02  0.1126479E+00
         25   -1    0    0    0    0  0.00000000000E+00  0.00000000000E+00  0.99999998245E-14  0.12500000000E+03  0.12500000000E+03 0.  0.
    3000001    1    3    3    0    0  0.44929608182E+02  0.47140698416E+01  0.38087342186E+02  0.59097696915E+02  0.10000000000E+01 0.  1.
    1000022    2    1    0    0    0  0.45438188406E+02  0.51321456775E+01  0.41415963858E+02  0.62499999765E+02  0.10000001173E+02 0.  0.
    3000022    2    3    3    0    0  0.50858022418E+00  0.41807583590E+00  0.33286216715E+01  0.34023028499E+01  0.25000240224E+00 0.  0.
    1000022    2    1    0    0    0 -0.45438188406E+02 -0.51321456775E+01 -0.41415963858E+02  0.62500000235E+02  0.10000004109E+02 0.  0.
    3000022    2    5    5    0    0 -0.64604997819E+01  0.26503146819E+00 -0.19458127369E+01  0.67569956410E+01  0.25000754920E+00 0.  0.
        -13    1    4    4    0    0  0.28181486667E+00  0.16421393938E+00  0.14230772069E+01  0.14637484667E+01  0.10500000000E+00 0.  1.
         13    1    4    4    0    0  0.22676535752E+00  0.25386189652E+00  0.19055444646E+01  0.19385543831E+01  0.10500000000E+00 0. -1.
    3000001    1    5    5    0    0 -0.38977688624E+02 -0.53971771457E+01 -0.39470151121E+02  0.55743004594E+02  0.10000000000E+01 0.  1.
        -13    1    6    6    0    0 -0.39808036164E+01  0.10381221490E+00 -0.11820387038E+01  0.41552153862E+01  0.10500000000E+00 0.  1.
         13    1    6    6    0    0 -0.24796961655E+01  0.16121925328E+00 -0.76377403314E+00  0.26017802549E+01  0.10500000000E+00 0. -1.
</event>
<event>
11    0  0.3483054E-009  0.9118800E+02  0.7816531E-02  0.1126479E+00
         25   -1    0    0    0    0  0.00000000000E+00  0.00000000000E+00  0.99999998245E-14  0.12500000000E+03  0.12500000000E+03 0.  0.
    3000001    1    3    3    0    0 -0.14482611283E+02 -0.15093262179E+02  0.97415166577E+01  0.23096530899E+02  0.10000000000E+01 0.  1.
    1000022    2    1    0    0    0 -0.28101343655E+02 -0.47119511288E+02  0.28219078044E+02  0.62499998771E+02  0.99999810723E+01 0.  0.
    3000022    2    3    3    0    0 -0.13618732373E+02 -0.32026249108E+02  0.18477561387E+02  0.39403467872E+02  0.25000425358E+00 0.  0.
    1000022    2    1    0    0    0  0.28101343655E+02  0.47119511288E+02 -0.28219078044E+02  0.62500001229E+02  0.99999964375E+01 0.  0.
    3000022    2    5    5    0    0  0.13283101412E+02  0.26509222498E+02 -0.10211774206E+02  0.31361162158E+02  0.24999777969E+00 0.  0.
        -13    1    4    4    0    0 -0.65237437442E+01 -0.15205991991E+02  0.88325024046E+01  0.18756480176E+02  0.10500000000E+00 0.  1.
         13    1    4    4    0    0 -0.70949886283E+01 -0.16820257118E+02  0.96450589820E+01  0.20646987696E+02  0.10500000000E+00 0. -1.
    3000001    1    5    5    0    0  0.14818242243E+02  0.20610288790E+02 -0.18007303839E+02  0.31138839071E+02  0.10000000000E+01 0.  1.
        -13    1    6    6    0    0  0.48534571176E+01  0.97655550084E+01 -0.38058576580E+01  0.11550657476E+02  0.10500000000E+00 0.  1.
         13    1    6    6    0    0  0.84296442944E+01  0.16743667490E+02 -0.64059165477E+01  0.19810504682E+02  0.10500000000E+00 0. -1.
</event>
<event>
11    0  0.3483054E-009  0.9118800E+02  0.7816531E-02  0.1126479E+00
         25   -1    0    0    0    0  0.00000000000E+00  0.00000000000E+00  0.99999998245E-14  0.12500000000E+03  0.12500000000E+03 0.  0.
    3000001    1    3    3    0    0 -0.76470408571E+00 -0.84800099033E+00  0.47971589808E+00  0.15918559486E+01  0.10000000000E+01 0.  1.
    1000022    2    1    0    0    0  0.69624282257E+01 -0.36033357045E+02  0.49592049739E+02  0.62499997405E+02  0.10000002580E+02 0.  0.
    3000022    2    3    3    0    0  0.77271323114E+01 -0.35185356055E+02  0.49112333841E+02  0.60908141457E+02  0.25001186068E+00 0.  0.
    1000022    2    1    0    0    0 -0.69624282257E+01  0.36033357045E+02 -0.49592049739E+02  0.62500002595E+02  0.10000035014E+02 0.  0.
    3000022    2    5    5    0    0 -0.57984334321E+01  0.28639209791E+02 -0.45020139721E+02  0.53672168279E+02  0.24999905727E+00 0.  0.
        -13    1    4    4    0    0  0.58237839220E+01 -0.26460754535E+02  0.36900634208E+02  0.45779425725E+02  0.10500000000E+00 0. -1.
         13    1    4    4    0    0  0.19033483894E+01 -0.87246015198E+01  0.12211699633E+02  0.15128715732E+02  0.10500000000E+00 0.  1.
    3000001    1    5    5    0    0 -0.11639947936E+01  0.73941472539E+01 -0.45719100177E+01  0.88278343155E+01  0.10000000000E+01 0. -1.
        -13    1    6    6    0    0 -0.15711956685E+01  0.78418549163E+01 -0.12384861173E+02  0.14743105359E+02  0.10500000000E+00 0. -1.
         13    1    6    6    0    0 -0.42272377636E+01  0.20797354875E+02 -0.32635278549E+02  0.38929062920E+02  0.10500000000E+00 0.  1.
</event>
<event>
11    0  0.3483054E-009  0.9118800E+02  0.7816531E-02  0.1126479E+00
         25   -1    0    0    0    0  0.00000000000E+00  0.00000000000E+00  0.99999998245E-14  0.12500000000E+03  0.12500000000E+03 0.  0.
    3000001    1    3    3    0    0  0.79896396880E+01  0.33186957191E+01  0.27387907950E+02  0.28739269050E+02  0.10000000000E+01 0. -1.
    1000022    2    1    0    0    0  0.23510712510E+02 -0.11920327954E+01  0.57026970936E+02  0.62499999636E+02  0.99999997693E+01 0.  0.
    3000022    2    3    3    0    0  0.15521072822E+02 -0.45107285145E+01  0.29639062986E+02  0.33760730586E+02  0.25000346942E+00 0.  0.
    1000022    2    1    0    0    0 -0.23510712510E+02  0.11920327954E+01 -0.57026970936E+02  0.62500000364E+02  0.10000004324E+02 0.  0.
    3000022    2    5    5    0    0 -0.19355109039E+02  0.10234977934E+01 -0.34517783878E+02  0.39587974128E+02  0.24999609916E+00 0.  0.
        -13    1    4    4    0    0  0.49036859167E+01 -0.13854766164E+01  0.94117954611E+01  0.10703205119E+02  0.10500000000E+00 0. -1.
         13    1    4    4    0    0  0.10617386905E+02 -0.31252518981E+01  0.20227267525E+02  0.23057525467E+02  0.10500000000E+00 0.  1.
    3000001    1    5    5    0    0 -0.41556034715E+01  0.16853500204E+00 -0.22509187058E+02  0.22912026237E+02  0.10000000000E+01 0.  1.
        -13    1    6    6    0    0 -0.78681295604E+01  0.40159396982E+00 -0.13904525082E+02  0.15981726541E+02  0.10500000000E+00 0.  1.
         13    1    6    6    0    0 -0.11486979478E+02  0.62190382357E+00 -0.20613258797E+02  0.23606247587E+02  0.10500000000E+00 0. -1.
</event>
<event>
11    0  0.3483054E-009  0.9118800E+02  0.7816531E-02  0.1126479E+00
         25   -1    0    0    0    0  0.00000000000E+00  0.00000000000E+00  0.99999998245E-14  0.12500000000E+03  0.12500000000E+03 0.  0.
    3000001    1    3    3    0    0 -0.92876839422E+01 -0.13842460266E+02 -0.20435952377E+02  0.26391341929E+02  0.10000000000E+01 0. -1.
    1000022    2    1    0    0    0 -0.30835901611E+02 -0.25486002739E+02 -0.46966593091E+02  0.62499999707E+02  0.99999966444E+01 0.  0.
    3000022    2    3    3    0    0 -0.21548217669E+02 -0.11643542473E+02 -0.26530640714E+02  0.36108657778E+02  0.25000754772E+00 0.  0.
    1000022    2    1    0    0    0  0.30835901611E+02  0.25486002739E+02  0.46966593091E+02  0.62500000293E+02  0.10000000313E+02 0.  0.
    3000022    2    5    5    0    0  0.16051902859E+00  0.94162376574E+00  0.46337074253E+01  0.47377388712E+01  0.25000686668E+00 0.  0.
        -13    1    4    4    0    0 -0.57305778699E+01 -0.30602353395E+01 -0.70202569174E+01  0.95655420778E+01  0.10500000000E+00 0. -1.
         13    1    4    4    0    0 -0.15817639799E+02 -0.85833071339E+01 -0.19510383796E+02  0.26543115700E+02  0.10500000000E+00 0.  1.
    3000001    1    5    5    0    0  0.30675382583E+02  0.24544378974E+02  0.42332885666E+02  0.57762261422E+02  0.10000000000E+01 0. -1.
        -13    1    6    6    0    0  0.75156873991E-01  0.34705478736E+00  0.20382464012E+01  0.20716102367E+01  0.10500000000E+00 0. -1.
         13    1    6    6    0    0  0.85362154598E-01  0.59456897838E+00  0.25954610242E+01  0.26661286344E+01  0.10500000000E+00 0.  1.
</event>
<event>
11    0  0.3483054E-009  0.9118800E+02  0.7816531E-02  0.1126479E+00
         25   -1    0    0    0    0  0.00000000000E+00  0.00000000000E+00  0.99999998245E-14  0.12500000000E+03  0.12500000000E+03 0.  0.
    3000001    1    3    3    0    0 -0.17829560426E+02 -0.99409768679E+01  0.26277067661E+02  0.33289646001E+02  0.10000000000E+01 0.  1.
    1000022    2    1    0    0    0 -0.39343090920E+02 -0.12367824353E+02  0.45884731636E+02  0.62499996354E+02  0.99999532275E+01 0.  0.
    3000022    2    3    3    0    0 -0.21513530494E+02 -0.24268474854E+01  0.19607663975E+02  0.29210350352E+02  0.24999619842E+00 0.  0.
    1000022    2    1    0    0    0  0.39343090920E+02  0.12367824353E+02 -0.45884731636E+02  0.62500003646E+02  0.99999988088E+01 0.  0.
    3000022    2    5    5    0    0  0.31644304221E+02  0.13227574595E+02 -0.34127851836E+02  0.48384951053E+02  0.24999621700E+00 0.  0.
        -13    1    4    4    0    0 -0.12698864542E+02 -0.14386046778E+01  0.11488374624E+02  0.17185008600E+02  0.10500000000E+00 0. -1.
         13    1    4    4    0    0 -0.88146659517E+01 -0.98824280758E+00  0.81192893518E+01  0.12025341753E+02  0.10500000000E+00 0.  1.
    3000001    1    5    5    0    0  0.76987866981E+01 -0.85975024125E+00 -0.11756879800E+02  0.14115052594E+02  0.10000000000E+01 0.  1.
        -13    1    6    6    0    0  0.17387026469E+02  0.73299700545E+01 -0.18727198220E+02  0.26584885341E+02  0.10500000000E+00 0. -1.
         13    1    6    6    0    0  0.14257277752E+02  0.58976045400E+01 -0.15400653617E+02  0.21800065712E+02  0.10500000000E+00 0.  1.
</event>
<event>
11    0  0.3483054E-009  0.9118800E+02  0.7816531E-02  0.1126479E+00
         25   -1    0    0    0    0  0.00000000000E+00  0.00000000000E+00  0.99999998245E-14  0.12500000000E+03  0.12500000000E+03 0.  0.
    3000001    1    3    3    0    0  0.93493851855E+00 -0.73885644884E+00  0.21205256125E+01  0.26299520450E+01  0.10000000000E+01 0.  1.
    1000022    2    1    0    0    0 -0.59376944271E+00  0.16048122695E+02  0.59568071284E+02  0.62499999844E+02  0.10000002993E+02 0.  0.
    3000022    2    3    3    0    0 -0.15287079613E+01  0.16786979143E+02  0.57447545672E+02  0.59870047799E+02  0.25000602239E+00 0.  0.
    1000022    2    1    0    0    0  0.59376944271E+00 -0.16048122695E+02 -0.59568071284E+02  0.62500000156E+02  0.10000004938E+02 0.  0.
    3000022    2    5    5    0    0  0.31490257816E+00 -0.13848008589E+02 -0.57938751416E+02  0.59572039767E+02  0.25000166128E+00 0.  0.
        -13    1    4    4    0    0 -0.51705355431E+00  0.59659119283E+01  0.20591356058E+02  0.21444682763E+02  0.10500000000E+00 0.  1.
         13    1    4    4    0    0 -0.10116544070E+01  0.10821067215E+02  0.36856189614E+02  0.38425365036E+02  0.10500000000E+00 0. -1.
    3000001    1    5    5    0    0  0.27886686456E+00 -0.22001141057E+01 -0.16293198685E+01  0.29279603891E+01  0.10000000000E+01 0.  1.
        -13    1    6    6    0    0  0.11571343542E+00 -0.76058896938E+01 -0.31963291595E+02  0.32856140708E+02  0.10500000000E+00 0. -1.
         13    1    6    6    0    0  0.19918914274E+00 -0.62421188950E+01 -0.25975459820E+02  0.26715899058E+02  0.10500000000E+00 0.  1.
</event>
<event>
11    0  0.3483054E-009  0.9118800E+02  0.7816531E-02  0.1126479E+00
         25   -1    0    0    0    0  0.00000000000E+00  0.00000000000E+00  0.99999998245E-14  0.12500000000E+03  0.12500000000E+03 0.  0.
    3000001    1    3    3    0    0  0.23720394293E+02 -0.66963406026E+01  0.18193648434E+02  0.30651377232E+02  0.10000000000E+01 0.  1.
    1000022    2    1    0    0    0  0.45552485482E+02 -0.23023397682E+02  0.34657525841E+02  0.62499999774E+02  0.10000004997E+02 0.  0.
    3000022    2    3    3    0    0  0.21832091189E+02 -0.16327057080E+02  0.16463877407E+02  0.31848622542E+02  0.24999999473E+00 0.  0.
    1000022    2    1    0    0    0 -0.45552485482E+02  0.23023397682E+02 -0.34657525841E+02  0.62500000226E+02  0.10000007823E+02 0.  0.
    3000022    2    5    5    0    0 -0.56806798458E+01  0.62952735533E+01 -0.34104580258E+01  0.91429925459E+01  0.24999225403E+00 0.  0.
        -13    1    4    4    0    0  0.12062644715E+02 -0.89571948358E+01  0.91233600535E+01  0.17577982265E+02  0.10500000000E+00 0.  1.
         13    1    4    4    0    0  0.97694464742E+01 -0.73698622438E+01  0.73405173532E+01  0.14270640277E+02  0.10500000000E+00 0. -1.
    3000001    1    5    5    0    0 -0.39871805636E+02  0.16728124129E+02 -0.31247067815E+02  0.53357007680E+02  0.10000000000E+01 0. -1.
        -13    1    6    6    0    0 -0.15563277818E+01  0.17431718654E+01 -0.97941649563E+00  0.25359585936E+01  0.10500000000E+00 0. -1.
         13    1    6    6    0    0 -0.41243520640E+01  0.45521016879E+01 -0.24310415301E+01  0.66070339522E+01  0.10500000000E+00 0.  1.
</event>
<event>
11    0  0.3483054E-009  0.9118800E+02  0.7816531E-02  0.1126479E+00
         25   -1    0    0    0    0  0.00000000000E+00  0.00000000000E+00  0.99999998245E-14  0.12500000000E+03  0.12500000000E+03 0.  0.
    3000001    1    3    3    0    0 -0.23313708098E+02  0.18470625165E+02  0.10728020521E+02  0.31635160875E+02  0.10000000000E+01 0. -1.
    1000022    2    1    0    0    0 -0.51392270426E+02  0.30134902568E+02  0.16030352734E+02  0.62499999360E+02  0.99999949403E+01 0.  0.
    3000022    2    3    3    0    0 -0.28078562329E+02  0.11664277402E+02  0.53023322131E+01  0.30864838485E+02  0.24999605912E+00 0.  0.
    1000022    2    1    0    0    0  0.51392270426E+02 -0.30134902568E+02 -0.16030352734E+02  0.62500000640E+02  0.10000002946E+02 0.  0.
    3000022    2    5    5    0    0  0.66630605111E+01 -0.48629069623E+01 -0.58522319603E+01  0.10117082394E+02  0.24999550217E+00 0.  0.
        -13    1    4    4    0    0 -0.20665554245E+02  0.86180779906E+01  0.39175327190E+01  0.22730914810E+02  0.10500000000E+00 0.  1.
         13    1    4    4    0    0 -0.74130080839E+01  0.30461994118E+01  0.13847994941E+01  0.81339236748E+01  0.10500000000E+00 0. -1.
    3000001    1    5    5    0    0  0.44729209915E+02 -0.25271995605E+02 -0.10178120774E+02  0.52382918247E+02  0.10000000000E+01 0. -1.
        -13    1    6    6    0    0  0.46106379310E+01 -0.33847154366E+01 -0.40018146014E+01  0.69813913958E+01  0.10500000000E+00 0.  1.
         13    1    6    6    0    0  0.20524225801E+01 -0.14781915257E+01 -0.18504173588E+01  0.31356909981E+01  0.10500000000E+00 0. -1.
</event>
<event>
11    0  0.3483054E-009  0.9118800E+02  0.7816531E-02  0.1126479E+00
         25   -1    0    0    0    0  0.00000000000E+00  0.00000000000E+00  0.99999998245E-14  0.12500000000E+03  0.12500000000E+03 0.  0.
    3000001    1    3    3    0    0 -0.38321482116E+02 -0.31349331135E+02 -0.22163916648E+01  0.49570444281E+02  0.10000000000E+01 0. -1.
    1000022    2    1    0    0    0 -0.48083049142E+02 -0.38594236144E+02  0.21806592322E+01  0.62499999525E+02  0.99999993836E+01 0.  0.
    3000022    2    3    3    0    0 -0.97615670258E+01 -0.72449050089E+01  0.43970508970E+01  0.12929555245E+02  0.25000568739E+00 0.  0.
    1000022    2    1    0    0    0  0.48083049142E+02  0.38594236144E+02 -0.21806592322E+01  0.62500000475E+02  0.10000005321E+02 0.  0.
    3000022    2    5    5    0    0  0.34360071902E+01  0.20379453265E+01  0.22955710828E+01  0.46142734677E+01  0.25001294764E+00 0.  0.
        -13    1    4    4    0    0 -0.33469401133E+01 -0.25186075240E+01  0.14641161386E+01  0.44384741803E+01  0.10500000000E+00 0. -1.
         13    1    4    4    0    0 -0.64146269125E+01 -0.47262974849E+01  0.29329347585E+01  0.84910810642E+01  0.10500000000E+00 0.  1.
    3000001    1    5    5    0    0  0.44647041952E+02  0.36556290817E+02 -0.44762303150E+01  0.57885727007E+02  0.10000000000E+01 0. -1.
        -13    1    6    6    0    0  0.18493924122E+01  0.10184582870E+01  0.12125629804E+01  0.24369742629E+01  0.10500000000E+00 0. -1.
         13    1    6    6    0    0  0.15866147781E+01  0.10194870395E+01  0.10830081024E+01  0.21772992049E+01  0.10500000000E+00 0.  1.
</event>
<event>
11    0  0.3483054E-009  0.9118800E+02  0.7816531E-02  0.1126479E+00
         25   -1    0    0    0    0  0.00000000000E+00  0.00000000000E+00  0.99999998245E-14  0.12500000000E+03  0.12500000000E+03 0.  0.
    3000001    1    3    3    0    0  0.19397713182E+02  0.18343292557E+02  0.13306039696E+02  0.29846245173E+02  0.10000000000E+01 0.  1.
    1000022    2    1    0    0    0  0.34171051024E+02  0.45464710471E+02  0.23907098984E+02  0.62500001168E+02  0.10000006892E+02 0.  0.
    3000022    2    3    3    0    0  0.14773337842E+02  0.27121417913E+02  0.10601059288E+02  0.32653755995E+02  0.25000378797E+00 0.  0.
    1000022    2    1    0    0    0 -0.34171051024E+02 -0.45464710471E+02 -0.23907098984E+02  0.62499998832E+02  0.99999922963E+01 0.  0.
    3000022    2    5    5    0    0 -0.30359132080E+02 -0.41683601168E+02 -0.24335555009E+02  0.57021761145E+02  0.24999895011E+00 0.  0.
        -13    1    4    4    0    0  0.66258941121E+01  0.12203926703E+02  0.48341845886E+01  0.14704375723E+02  0.10500000000E+00 0.  1.
         13    1    4    4    0    0  0.81474437299E+01  0.14917491210E+02  0.57668746993E+01  0.17949380272E+02  0.10500000000E+00 0. -1.
    3000001    1    5    5    0    0 -0.38119189441E+01 -0.37811093030E+01  0.42845602494E+00  0.54782376877E+01  0.10000000000E+01 0.  1.
        -13    1    6    6    0    0 -0.13524783754E+02 -0.18496980283E+02 -0.10869655155E+02  0.25361752372E+02  0.10500000000E+00 0. -1.
         13    1    6    6    0    0 -0.16834348326E+02 -0.23186620885E+02 -0.13465899854E+02  0.31660008773E+02  0.10500000000E+00 0.  1.
</event>
<event>
11    0  0.3483054E-009  0.9118800E+02  0.7816531E-02  0.1126479E+00
         25   -1    0    0    0    0  0.00000000000E+00  0.00000000000E+00  0.99999998245E-14  0.12500000000E+03  0.12500000000E+03 0.  0.
    3000001    1    3    3    0    0 -0.83859581803E+01 -0.49955706654E+01 -0.83967881647E+00  0.98481003950E+01  0.10000000000E+01 0.  1.
    1000022    2    1    0    0    0 -0.53525106347E+02 -0.25995339128E+02  0.16295868573E+02  0.62499999302E+02  0.99999957242E+01 0.  0.
    3000022    2    3    3    0    0 -0.45139148166E+02 -0.20999768462E+02  0.17135547389E+02  0.52651898907E+02  0.25000316215E+00 0.  0.
    1000022    2    1    0    0    0  0.53525106347E+02  0.25995339128E+02 -0.16295868573E+02  0.62500000698E+02  0.10000004445E+02 0.  0.
    3000022    2    5    5    0    0  0.29680468151E+02  0.91732786278E+01 -0.99359884583E+01  0.32616952574E+02  0.24999616075E+00 0.  0.
        -13    1    4    4    0    0 -0.28969674336E+02 -0.13527525015E+02  0.10966925911E+02  0.33801190113E+02  0.10500000000E+00 0.  1.
         13    1    4    4    0    0 -0.16169473830E+02 -0.74722434474E+01  0.61686214787E+01  0.18850708794E+02  0.10500000000E+00 0. -1.
    3000001    1    5    5    0    0  0.23844638195E+02  0.16822060500E+02 -0.63598801145E+01  0.29883048124E+02  0.10000000000E+01 0. -1.
        -13    1    6    6    0    0  0.12735343375E+02  0.39568531428E+01 -0.43308664750E+01  0.14021878872E+02  0.10500000000E+00 0. -1.
         13    1    6    6    0    0  0.16945124776E+02  0.52164254850E+01 -0.56051219833E+01  0.18595073701E+02  0.10500000000E+00 0.  1.
</event>
<event>
11    0  0.3483054E-009  0.9118800E+02  0.7816531E-02  0.1126479E+00
         25   -1    0    0    0    0  0.00000000000E+00  0.00000000000E+00  0.99999998245E-14  0.12500000000E+03  0.12500000000E+03 0.  0.
    3000001    1    3    3    0    0 -0.17024550072E+01  0.24195963847E+01  0.50169375574E+01  0.59095230071E+01  0.10000000000E+01 0.  1.
    1000022    2    1    0    0    0 -0.19103640756E+02  0.47781260625E+02  0.34033101745E+02  0.62500000435E+02  0.10000004145E+02 0.  0.
    3000022    2    3    3    0    0 -0.17401185749E+02  0.45361664240E+02  0.29016164188E+02  0.56590477428E+02  0.25000641103E+00 0.  0.
    1000022    2    1    0    0    0  0.19103640756E+02 -0.47781260625E+02 -0.34033101745E+02  0.62499999565E+02  0.99999987089E+01 0.  0.
    3000022    2    5    5    0    0  0.17194111065E+02 -0.38591271588E+02 -0.31579161890E+02  0.52746845052E+02  0.24999836202E+00 0.  0.
        -13    1    4    4    0    0 -0.11432927685E+02  0.29953705132E+02  0.19135643658E+02  0.37337918659E+02  0.10500000000E+00 0. -1.
         13    1    4    4    0    0 -0.59682580633E+01  0.15407959108E+02  0.98805205300E+01  0.19252558769E+02  0.10500000000E+00 0.  1.
    3000001    1    5    5    0    0  0.19095296908E+01 -0.91899890369E+01 -0.24539398555E+01  0.97531545129E+01  0.10000000000E+01 0.  1.
        -13    1    6    6    0    0  0.59677438647E+01 -0.13488100698E+02 -0.11076501859E+02  0.18445670108E+02  0.10500000000E+00 0.  1.
         13    1    6    6    0    0  0.11226367201E+02 -0.25103170890E+02 -0.20502660031E+02  0.34301174945E+02  0.10500000000E+00 0. -1.
</event>
<event>
11    0  0.3483054E-009  0.9118800E+02  0.7816531E-02  0.1126479E+00
         25   -1    0    0    0    0  0.00000000000E+00  0.00000000000E+00  0.99999998245E-14  0.12500000000E+03  0.12500000000E+03 0.  0.
    3000001    1    3    3    0    0 -0.20193496573E+02  0.43888245226E+01  0.11888141663E+02  0.23861412295E+02  0.10000000000E+01 0.  1.
    1000022    2    1    0    0    0 -0.57772948369E+02  0.70316962246E+01  0.20471728330E+02  0.62499999599E+02  0.99999987007E+01 0.  0.
    3000022    2    3    3    0    0 -0.37579451796E+02  0.26428717019E+01  0.85835866670E+01  0.38638587304E+02  0.25000124104E+00 0.  0.
    1000022    2    1    0    0    0  0.57772948369E+02 -0.70316962246E+01 -0.20471728330E+02  0.62500000401E+02  0.10000003715E+02 0.  0.
    3000022    2    5    5    0    0  0.34986527736E+02 -0.90939299128E+01 -0.12371779372E+02  0.38208377438E+02  0.24999472459E+00 0.  0.
        -13    1    4    4    0    0 -0.17469573718E+02  0.11779713710E+01  0.40350126387E+01  0.17968471677E+02  0.10500000000E+00 0.  1.
         13    1    4    4    0    0 -0.20109878079E+02  0.14649003309E+01  0.45485740283E+01  0.20670115626E+02  0.10500000000E+00 0. -1.
    3000001    1    5    5    0    0  0.22786420633E+02  0.20622336882E+01 -0.80999489576E+01  0.24291622963E+02  0.10000000000E+01 0.  1.
        -13    1    6    6    0    0  0.15911021291E+02 -0.41167447984E+01 -0.55568195019E+01  0.17349278205E+02  0.10500000000E+00 0. -1.
         13    1    6    6    0    0  0.19075506445E+02 -0.49771851144E+01 -0.68149598705E+01  0.20859099233E+02  0.10500000000E+00 0.  1.
</event>
<event>
11    0  0.3483054E-009  0.9118800E+02  0.7816531E-02  0.1126479E+00
         25   -1    0    0    0    0  0.00000000000E+00  0.00000000000E+00  0.99999998245E-14  0.12500000000E+03  0.12500000000E+03 0.  0.
    3000001    1    3    3    0    0 -0.35381044081E+02  0.31430822490E+02 -0.22173641270E+02  0.52272222546E+02  0.10000000000E+01 0. -1.
    1000022    2    1    0    0    0 -0.44782142902E+02  0.35052721029E+02 -0.23918955098E+02  0.62499999647E+02  0.99999984209E+01 0.  0.
    3000022    2    3    3    0    0 -0.94010988208E+01  0.36218985386E+01 -0.17453138280E+01  0.10227777101E+02  0.24999201262E+00 0.  0.
    1000022    2    1    0    0    0  0.44782142902E+02 -0.35052721029E+02  0.23918955098E+02  0.62500000353E+02  0.10000002837E+02 0.  0.
    3000022    2    5    5    0    0  0.21759661063E+02 -0.13227152904E+02  0.64459925509E+01  0.26268874037E+02  0.24999931179E+00 0.  0.
        -13    1    4    4    0    0 -0.44080387496E+01  0.16904634417E+01 -0.88586458119E+00  0.48046075097E+01  0.10500000000E+00 0. -1.
         13    1    4    4    0    0 -0.49930600712E+01  0.19314350969E+01 -0.85944924686E+00  0.54231695913E+01  0.10500000000E+00 0.  1.
    3000001    1    5    5    0    0  0.23022481839E+02 -0.21825568125E+02  0.17472962547E+02  0.36231126317E+02  0.10000000000E+01 0.  1.
        -13    1    6    6    0    0  0.13442936316E+02 -0.81712394831E+01  0.40451802399E+01  0.16243651057E+02  0.10500000000E+00 0. -1.
         13    1    6    6    0    0  0.83167247471E+01 -0.50559134208E+01  0.24008123110E+01  0.10025222980E+02  0.10500000000E+00 0.  1.
</event>
<event>
11    0  0.3483054E-009  0.9118800E+02  0.7816531E-02  0.1126479E+00
         25   -1    0    0    0    0  0.00000000000E+00  0.00000000000E+00  0.99999998245E-14  0.12500000000E+03  0.12500000000E+03 0.  0.
    3000001    1    3    3    0    0 -0.11623110898E+02  0.13752136313E+02 -0.14634923632E+02  0.23224963936E+02  0.10000000000E+01 0. -1.
    1000022    2    1    0    0    0 -0.31009863772E+02  0.26285469732E+02 -0.46408108679E+02  0.62499999560E+02  0.99999911850E+01 0.  0.
    3000022    2    3    3    0    0 -0.19386752873E+02  0.12533333419E+02 -0.31773185048E+02  0.39275035624E+02  0.25000332420E+00 0.  0.
    1000022    2    1    0    0    0  0.31009863772E+02 -0.26285469732E+02  0.46408108679E+02  0.62500000440E+02  0.99999966790E+01 0.  0.
    3000022    2    5    5    0    0  0.28650701332E+02 -0.21812047226E+02  0.43862622227E+02  0.56750508495E+02  0.24998967698E+00 0.  0.
        -13    1    4    4    0    0 -0.10043503276E+02  0.65673721125E+01 -0.16471635608E+02  0.20379601054E+02  0.10500000000E+00 0.  1.
         13    1    4    4    0    0 -0.93432495971E+01  0.59659613066E+01 -0.15301549440E+02  0.18895434570E+02  0.10500000000E+00 0. -1.
    3000001    1    5    5    0    0  0.23591624394E+01 -0.44734225066E+01  0.25454864520E+01  0.57494919442E+01  0.10000000000E+01 0.  1.
        -13    1    6    6    0    0  0.15662022957E+02 -0.11984633772E+02  0.24094834275E+02  0.31136834673E+02  0.10500000000E+00 0.  1.
         13    1    6    6    0    0  0.12988678375E+02 -0.98274134533E+01  0.19767787952E+02  0.25613673822E+02  0.10500000000E+00 0. -1.
</event>
<event>
11    0  0.3483054E-009  0.9118800E+02  0.7816531E-02  0.1126479E+00
         25   -1    0    0    0    0  0.00000000000E+00  0.00000000000E+00  0.99999998245E-14  0.12500000000E+03  0.12500000000E+03 0.  0.
    3000001    1    3    3    0    0 -0.85913067806E+01  0.41281688845E+02 -0.25519349760E+02  0.49297318368E+02  0.10000000000E+01 0. -1.
    1000022    2    1    0    0    0 -0.57681048844E+01  0.52409112220E+02 -0.32035353103E+02  0.62500000686E+02  0.10000007985E+02 0.  0.
    3000022    2    3    3    0    0  0.28232018962E+01  0.11127423374E+02 -0.65160033426E+01  0.13202682318E+02  0.25000183452E+00 0.  0.
    1000022    2    1    0    0    0  0.57681048844E+01 -0.52409112220E+02  0.32035353103E+02  0.62499999314E+02  0.99999994095E+01 0.  0.
    3000022    2    5    5    0    0  0.49098720932E+01 -0.37132348478E+02  0.27635161793E+02  0.46547640319E+02  0.25000890718E+00 0.  0.
        -13    1    4    4    0    0  0.73192563143E+00  0.30198138304E+01 -0.17810197668E+01  0.35830220639E+01  0.10500000000E+00 0.  1.
         13    1    4    4    0    0  0.20912762648E+01  0.81076095441E+01 -0.47349835758E+01  0.96196602537E+01  0.10500000000E+00 0. -1.
    3000001    1    5    5    0    0  0.85823279117E+00 -0.15276763742E+02  0.44001913096E+01  0.15952358995E+02  0.10000000000E+01 0. -1.
        -13    1    6    6    0    0  0.30027032121E+01 -0.22996822261E+02  0.17051747748E+02  0.28786163116E+02  0.10500000000E+00 0.  1.
         13    1    6    6    0    0  0.19071688811E+01 -0.14135526217E+02  0.10583414045E+02  0.17761477203E+02  0.10500000000E+00 0. -1.
</event>
<event>
11    0  0.3483054E-009  0.9118800E+02  0.7816531E-02  0.1126479E+00
         25   -1    0    0    0    0  0.00000000000E+00  0.00000000000E+00  0.99999998245E-14  0.12500000000E+03  0.12500000000E+03 0.  0.
    3000001    1    3    3    0    0 -0.29898442510E+02 -0.22110590383E+02  0.26544731590E+02  0.45699210570E+02  0.10000000000E+01 0. -1.
    1000022    2    1    0    0    0 -0.44620300788E+02 -0.26646275349E+02  0.33245375344E+02  0.62500003571E+02  0.10000011617E+02 0.  0.
    3000022    2    3    3    0    0 -0.14721858278E+02 -0.45356849657E+01  0.67006437544E+01  0.16800793001E+02  0.24993895397E+00 0.  0.
    1000022    2    1    0    0    0  0.44620300788E+02  0.26646275349E+02 -0.33245375344E+02  0.62499996429E+02  0.99999669748E+01 0.  0.
    3000022    2    5    5    0    0  0.16154371337E+02  0.10132280123E+02 -0.17974972480E+02  0.26206658453E+02  0.24999564597E+00 0.  0.
        -13    1    4    4    0    0 -0.59985387295E+01 -0.18640963990E+01  0.27999055853E+01  0.68780679381E+01  0.10500000000E+00 0. -1.
         13    1    4    4    0    0 -0.87233195482E+01 -0.26715885667E+01  0.39007381691E+01  0.99227250629E+01  0.10500000000E+00 0.  1.
    3000001    1    5    5    0    0  0.28465929450E+02  0.16513995226E+02 -0.15270402864E+02  0.36293337976E+02  0.10000000000E+01 0. -1.
        -13    1    6    6    0    0  0.81409645394E+01  0.50648202044E+01 -0.91175623921E+01  0.13231352021E+02  0.10500000000E+00 0. -1.
         13    1    6    6    0    0  0.80134067976E+01  0.50674599185E+01 -0.88574100881E+01  0.12975306432E+02  0.10500000000E+00 0.  1.
</event>
<event>
11    0  0.3483054E-009  0.9118800E+02  0.7816531E-02  0.1126479E+00
         25   -1    0    0    0    0  0.00000000000E+00  0.00000000000E+00  0.99999998245E-14  0.12500000000E+03  0.12500000000E+03 0.  0.
    3000001    1    3    3    0    0  0.33615425260E+01 -0.31479336622E+02 -0.37582289492E+02  0.49149538001E+02  0.10000000000E+01 0. -1.
    1000022    2    1    0    0    0  0.87682038908E+01 -0.40871820137E+02 -0.45374694615E+02  0.62499999032E+02  0.99999943396E+01 0.  0.
    3000022    2    3    3    0    0  0.54066613647E+01 -0.93924835149E+01 -0.77924051233E+01  0.13350461030E+02  0.24999685261E+00 0.  0.
    1000022    2    1    0    0    0 -0.87682038908E+01  0.40871820137E+02  0.45374694615E+02  0.62500000968E+02  0.10000006442E+02 0.  0.
    3000022    2    5    5    0    0  0.18460302387E+01  0.98197019285E+01  0.84298962031E+01  0.13075167725E+02  0.24997488869E+00 0.  0.
        -13    1    4    4    0    0  0.30006789703E+01 -0.53170325857E+01 -0.43395030492E+01  0.74911428710E+01  0.10500000000E+00 0. -1.
         13    1    4    4    0    0  0.24059823944E+01 -0.40754509292E+01 -0.34529020740E+01  0.58593181593E+01  0.10500000000E+00 0.  1.
    3000001    1    5    5    0    0 -0.10614234129E+02  0.31052118209E+02  0.36944798412E+02  0.49424833243E+02  0.10000000000E+01 0. -1.
        -13    1    6    6    0    0  0.64110565381E+00  0.31954735425E+01  0.27944892916E+01  0.42944456011E+01  0.10500000000E+00 0.  1.
         13    1    6    6    0    0  0.12049245849E+01  0.66242283860E+01  0.56354069115E+01  0.87807221243E+01  0.10500000000E+00 0. -1.
</event>
<event>
11    0  0.3483054E-009  0.9118800E+02  0.7816531E-02  0.1126479E+00
         25   -1    0    0    0    0  0.00000000000E+00  0.00000000000E+00  0.99999998245E-14  0.12500000000E+03  0.12500000000E+03 0.  0.
    3000001    1    3    3    0    0  0.37485689272E+02 -0.26695093563E+02  0.33649080217E+02  0.57018115718E+02  0.10000000000E+01 0. -1.
    1000022    2    1    0    0    0  0.39450142450E+02 -0.31460257159E+02  0.35499132784E+02  0.62500000211E+02  0.10000003908E+02 0.  0.
    3000022    2    3    3    0    0  0.19644531775E+01 -0.47651635962E+01  0.18500525666E+01  0.54818844932E+01  0.25000542437E+00 0.  0.
    1000022    2    1    0    0    0 -0.39450142450E+02  0.31460257159E+02 -0.35499132784E+02  0.62499999789E+02  0.10000001274E+02 0.  0.
    3000022    2    5    5    0    0 -0.36938485526E+02  0.31127294765E+02 -0.31526056663E+02  0.57682882569E+02  0.25000071769E+00 0.  0.
        -13    1    4    4    0    0  0.14611386246E+01 -0.34460057034E+01  0.13455315565E+01  0.39788643553E+01  0.10500000000E+00 0.  1.
         13    1    4    4    0    0  0.50331455287E+00 -0.13191578928E+01  0.50452101007E+00  0.15030201379E+01  0.10500000000E+00 0. -1.
    3000001    1    5    5    0    0 -0.25116569231E+01  0.33296239366E+00 -0.39730761202E+01  0.48171172201E+01  0.10000000000E+01 0.  1.
        -13    1    6    6    0    0 -0.22261878785E+02  0.18833827052E+02 -0.19062854427E+02  0.34838308403E+02  0.10500000000E+00 0.  1.
         13    1    6    6    0    0 -0.14676606741E+02  0.12293467713E+02 -0.12463202237E+02  0.22844574166E+02  0.10500000000E+00 0. -1.
</event>
<event>
11    0  0.3483054E-009  0.9118800E+02  0.7816531E-02  0.1126479E+00
         25   -1    0    0    0    0  0.00000000000E+00  0.00000000000E+00  0.99999998245E-14  0.12500000000E+03  0.12500000000E+03 0.  0.
    3000001    1    3    3    0    0  0.43137392896E+01  0.68520125792E+01 -0.51862606306E+02  0.52500365293E+02  0.10000000000E+01 0. -1.
    1000022    2    1    0    0    0  0.83321993462E+01  0.10635691389E+02 -0.60197229417E+02  0.62499999581E+02  0.10000002042E+02 0.  0.
    3000022    2    3    3    0    0  0.40184600566E+01  0.37836788099E+01 -0.83346231110E+01  0.99996342877E+01  0.24999384416E+00 0.  0.
    1000022    2    1    0    0    0 -0.83321993462E+01 -0.10635691389E+02  0.60197229417E+02  0.62500000419E+02  0.10000007282E+02 0.  0.
    3000022    2    5    5    0    0 -0.47315545981E-01  0.31206442518E+00 -0.27055906168E+00  0.48511429925E+00  0.25002142132E+00 0.  0.
        -13    1    4    4    0    0  0.22876445884E+01  0.21318092144E+01 -0.48360288020E+01  0.57598722090E+01  0.10500000000E+00 0.  1.
         13    1    4    4    0    0  0.17308154682E+01  0.16518695955E+01 -0.34985943089E+01  0.42397620787E+01  0.10500000000E+00 0. -1.
    3000001    1    5    5    0    0 -0.82848838002E+01 -0.10947755814E+02  0.60467788479E+02  0.62014886120E+02  0.10000000000E+01 0. -1.
        -13    1    6    6    0    0 -0.16424511755E-01  0.93238884554E-01 -0.35372808638E-01  0.14573774312E+00  0.10500000000E+00 0. -1.
         13    1    6    6    0    0 -0.30891034227E-01  0.21882554063E+00 -0.23518625304E+00  0.33937655612E+00  0.10500000000E+00 0.  1.
</event>
<event>
11    0  0.3483054E-009  0.9118800E+02  0.7816531E-02  0.1126479E+00
         25   -1    0    0    0    0  0.00000000000E+00  0.00000000000E+00  0.99999998245E-14  0.12500000000E+03  0.12500000000E+03 0.  0.
    3000001    1    3    3    0    0 -0.10972413331E+02 -0.80553173088E+01 -0.10883554416E+02  0.17456624759E+02  0.10000000000E+01 0. -1.
    1000022    2    1    0    0    0 -0.26581599178E+02 -0.27786538812E+02 -0.48244966336E+02  0.62499997031E+02  0.99999849023E+01 0.  0.
    3000022    2    3    3    0    0 -0.15609185847E+02 -0.19731221503E+02 -0.37361411919E+02  0.45043372272E+02  0.25000026538E+00 0.  0.
    1000022    2    1    0    0    0  0.26581599178E+02  0.27786538812E+02  0.48244966336E+02  0.62500002969E+02  0.10000022019E+02 0.  0.
    3000022    2    5    5    0    0  0.57794544822E+00  0.37874379343E+00  0.50578144227E+01  0.51109158057E+01  0.25001167231E+00 0.  0.
        -13    1    4    4    0    0 -0.10832040736E+02 -0.13640393925E+02 -0.25802536174E+02  0.31131581247E+02  0.10500000000E+00 0.  1.
         13    1    4    4    0    0 -0.47771451112E+01 -0.60908275780E+01 -0.11558875746E+02  0.13911791024E+02  0.10500000000E+00 0. -1.
    3000001    1    5    5    0    0  0.26003653730E+02  0.27407795019E+02  0.43187151913E+02  0.57389087164E+02  0.10000000000E+01 0. -1.
        -13    1    6    6    0    0  0.43547667263E+00  0.29791971878E+00  0.35289864802E+01  0.35697572283E+01  0.10500000000E+00 0. -1.
         13    1    6    6    0    0  0.14246877559E+00  0.80824074653E-01  0.15288279425E+01  0.15411585774E+01  0.10500000000E+00 0.  1.
</event>
<event>
11    0  0.3483054E-009  0.9118800E+02  0.7816531E-02  0.1126479E+00
         25   -1    0    0    0    0  0.00000000000E+00  0.00000000000E+00  0.99999998245E-14  0.12500000000E+03  0.12500000000E+03 0.  0.
    3000001    1    3    3    0    0  0.17679126628E+00 -0.19545579738E+01  0.21460643875E+01  0.30752470437E+01  0.10000000000E+01 0. -1.
    1000022    2    1    0    0    0  0.30281583319E+02 -0.12330874424E+02  0.52318494182E+02  0.62500003244E+02  0.10000040985E+02 0.  0.
    3000022    2    3    3    0    0  0.30104792052E+02 -0.10376316451E+02  0.50172429794E+02  0.59424756200E+02  0.24998079290E+00 0.  0.
    1000022    2    1    0    0    0 -0.30281583319E+02  0.12330874424E+02 -0.52318494182E+02  0.62499996756E+02  0.10000000436E+02 0.  0.
    3000022    2    5    5    0    0 -0.12828266444E+02  0.49986009937E+00 -0.16279819230E+02  0.20734254070E+02  0.24999515558E+00 0.  0.
        -13    1    4    4    0    0  0.16489114298E+02 -0.56175364442E+01  0.27401486492E+02  0.32469987573E+02  0.10500000000E+00 0. -1.
         13    1    4    4    0    0  0.13615677755E+02 -0.47587800064E+01  0.22770943303E+02  0.26954768627E+02  0.10500000000E+00 0.  1.
    3000001    1    5    5    0    0 -0.17453316874E+02  0.11831014325E+02 -0.36038674952E+02  0.41765742686E+02  0.10000000000E+01 0.  1.
        -13    1    6    6    0    0 -0.87884398816E+01  0.34735782924E+00 -0.11231822875E+02  0.14266120815E+02  0.10500000000E+00 0. -1.
         13    1    6    6    0    0 -0.40398265629E+01  0.15250227013E+00 -0.50479963555E+01  0.64681332551E+01  0.10500000000E+00 0.  1.
</event>
<event>
11    0  0.3483054E-009  0.9118800E+02  0.7816531E-02  0.1126479E+00
         25   -1    0    0    0    0  0.00000000000E+00  0.00000000000E+00  0.99999998245E-14  0.12500000000E+03  0.12500000000E+03 0.  0.
    3000001    1    3    3    0    0  0.22434346603E+00  0.27966673221E+02 -0.27095331692E+02  0.38953076137E+02  0.10000000000E+01 0. -1.
    1000022    2    1    0    0    0 -0.49030712044E+01  0.40170241597E+02 -0.46567816670E+02  0.62500000255E+02  0.10000003261E+02 0.  0.
    3000022    2    3    3    0    0 -0.51274146705E+01  0.12203568376E+02 -0.19472484977E+02  0.23546924117E+02  0.25000374204E+00 0.  0.
    1000022    2    1    0    0    0  0.49030712044E+01 -0.40170241597E+02  0.46567816670E+02  0.62499999745E+02  0.10000000079E+02 0.  0.
    3000022    2    5    5    0    0  0.71029567149E+01 -0.22543319107E+02  0.23100784799E+02  0.33050899971E+02  0.25000015344E+00 0.  0.
        -13    1    4    4    0    0 -0.24929738129E+01  0.58754131530E+01 -0.92755088813E+01  0.11259728601E+02  0.10500000000E+00 0.  1.
         13    1    4    4    0    0 -0.26344408575E+01  0.63281552229E+01 -0.10196976096E+02  0.12287195517E+02  0.10500000000E+00 0. -1.
    3000001    1    5    5    0    0 -0.21998855105E+01 -0.17626922490E+02  0.23467031871E+02  0.29449099775E+02  0.10000000000E+01 0.  1.
        -13    1    6    6    0    0  0.50889967462E+01 -0.16093025481E+02  0.16443010384E+02  0.23564103474E+02  0.10500000000E+00 0. -1.
         13    1    6    6    0    0  0.20139599686E+01 -0.64502936258E+01  0.66577744150E+01  0.94867964970E+01  0.10500000000E+00 0.  1.
</event>
<event>
11    0  0.3483054E-009  0.9118800E+02  0.7816531E-02  0.1126479E+00
         25   -1    0    0    0    0  0.00000000000E+00  0.00000000000E+00  0.99999998245E-14  0.12500000000E+03  0.12500000000E+03 0.  0.
    3000001    1    3    3    0    0  0.13427385764E+02 -0.27816304964E+02  0.12585292994E+01  0.30929361557E+02  0.10000000000E+01 0.  1.
    1000022    2    1    0    0    0  0.20608008982E+02 -0.57950765363E+02 -0.48238422666E+01  0.62499993427E+02  0.99999241942E+01 0.  0.
    3000022    2    3    3    0    0  0.71806232173E+01 -0.30134460398E+02 -0.60823715660E+01  0.31570631870E+02  0.24999905247E+00 0.  0.
    1000022    2    1    0    0    0 -0.20608008982E+02  0.57950765363E+02  0.48238422666E+01  0.62500006573E+02  0.10000006355E+02 0.  0.
    3000022    2    5    5    0    0 -0.18113959988E+02  0.43783112900E+02  0.70648560962E+01  0.47906693047E+02  0.25005070978E+00 0.  0.
        -13    1    4    4    0    0  0.41904742704E+01 -0.17310185666E+02 -0.34837839613E+01  0.18148013061E+02  0.10500000000E+00 0.  1.
         13    1    4    4    0    0  0.29901489470E+01 -0.12824274733E+02 -0.25985876047E+01  0.13422618809E+02  0.10500000000E+00 0. -1.
    3000001    1    5    5    0    0 -0.24940489937E+01  0.14167652463E+02 -0.22410138297E+01  0.14593313526E+02  0.10000000000E+01 0. -1.
        -13    1    6    6    0    0 -0.10732442170E+02  0.25773927639E+02  0.41590066762E+01  0.28227451575E+02  0.10500000000E+00 0.  1.
         13    1    6    6    0    0 -0.73815178185E+01  0.18009185260E+02  0.29058494201E+01  0.19679241472E+02  0.10500000000E+00 0. -1.
</event>
<event>
11    0  0.3483054E-009  0.9118800E+02  0.7816531E-02  0.1126479E+00
         25   -1    0    0    0    0  0.00000000000E+00  0.00000000000E+00  0.99999998245E-14  0.12500000000E+03  0.12500000000E+03 0.  0.
    3000001    1    3    3    0    0  0.60023112089E+01  0.24893449122E+01  0.20304487884E+01  0.68809374523E+01  0.10000000000E+01 0. -1.
    1000022    2    1    0    0    0  0.37514033157E+02  0.43188231189E+02  0.23102465707E+02  0.62500002195E+02  0.10000017789E+02 0.  0.
    3000022    2    3    3    0    0  0.31511721948E+02  0.40698886276E+02  0.21072016918E+02  0.55619064743E+02  0.25000320978E+00 0.  0.
    1000022    2    1    0    0    0 -0.37514033157E+02 -0.43188231189E+02 -0.23102465707E+02  0.62499997805E+02  0.99999903480E+01 0.  0.
    3000022    2    5    5    0    0 -0.96963421866E+01 -0.58244060581E+01 -0.64342941202E+01  0.13015583053E+02  0.25000729958E+00 0.  0.
        -13    1    4    4    0    0  0.17804719307E+02  0.23020224346E+02  0.11983258269E+02  0.31472976699E+02  0.10500000000E+00 0.  1.
         13    1    4    4    0    0  0.13707002641E+02  0.17678661931E+02  0.90887586498E+01  0.24146088044E+02  0.10500000000E+00 0. -1.
    3000001    1    5    5    0    0 -0.27817690970E+02 -0.37363825130E+02 -0.16668171586E+02  0.49484414752E+02  0.10000000000E+01 0.  1.
        -13    1    6    6    0    0 -0.28125267682E+01 -0.17380832627E+01 -0.18960507022E+01  0.38127776640E+01  0.10500000000E+00 0. -1.
         13    1    6    6    0    0 -0.68838154183E+01 -0.40863227954E+01 -0.45382434180E+01  0.92028053888E+01  0.10500000000E+00 0.  1.
</event>
<event>
11    0  0.3483054E-009  0.9118800E+02  0.7816531E-02  0.1126479E+00
         25   -1    0    0    0    0  0.00000000000E+00  0.00000000000E+00  0.99999998245E-14  0.12500000000E+03  0.12500000000E+03 0.  0.
    3000001    1    3    3    0    0  0.41849150723E+02 -0.96493392552E+01  0.41112133483E+02  0.59461489082E+02  0.10000000000E+01 0. -1.
    1000022    2    1    0    0    0  0.44721903063E+02 -0.88113557216E+01  0.41575970486E+02  0.62500002169E+02  0.10000017301E+02 0.  0.
    3000022    2    3    3    0    0  0.28727523404E+01  0.83798353360E+00  0.46383700308E+00  0.30385130874E+01  0.24998921057E+00 0.  0.
    1000022    2    1    0    0    0 -0.44721903063E+02  0.88113557216E+01 -0.41575970486E+02  0.62499997831E+02  0.99999901882E+01 0.  0.
    3000022    2    5    5    0    0 -0.37074383997E+01 -0.15160794928E+01 -0.16854181033E+01  0.43527846635E+01  0.25000725541E+00 0.  0.
        -13    1    4    4    0    0  0.10021190326E+01  0.32923815976E+00  0.11875964347E+00  0.10666626337E+01  0.10500000000E+00 0. -1.
         13    1    4    4    0    0  0.18706333078E+01  0.50874537384E+00  0.34507735962E+00  0.19718504537E+01  0.10500000000E+00 0.  1.
    3000001    1    5    5    0    0 -0.41014464663E+02  0.10327435214E+02 -0.39890552383E+02  0.58147213167E+02  0.10000000000E+01 0. -1.
        -13    1    6    6    0    0 -0.15330571256E+01 -0.59727249023E+00 -0.75559168632E+00  0.18135441473E+01  0.10500000000E+00 0. -1.
         13    1    6    6    0    0 -0.21743812742E+01 -0.91880700253E+00 -0.92982641695E+00  0.25392405162E+01  0.10500000000E+00 0.  1.
</event>
<event>
11    0  0.3483054E-009  0.9118800E+02  0.7816531E-02  0.1126479E+00
         25   -1    0    0    0    0  0.00000000000E+00  0.00000000000E+00  0.99999998245E-14  0.12500000000E+03  0.12500000000E+03 0.  0.
    3000001    1    3    3    0    0  0.21482751557E+02  0.28823664830E+02  0.72551558195E+01  0.36687185156E+02  0.10000000000E+01 0.  1.
    1000022    2    1    0    0    0  0.29587117937E+02  0.51729215282E+02  0.15966864421E+02  0.62499999229E+02  0.99999941291E+01 0.  0.
    3000022    2    3    3    0    0  0.81043663803E+01  0.22905550452E+02  0.87117086011E+01  0.25812814073E+02  0.25001530526E+00 0.  0.
    1000022    2    1    0    0    0 -0.29587117937E+02 -0.51729215282E+02 -0.15966864421E+02  0.62500000771E+02  0.10000003773E+02 0.  0.
    3000022    2    5    5    0    0 -0.53671068835E+01 -0.18445778167E+02 -0.61227756763E+01  0.20164410485E+02  0.24999952905E+00 0.  0.
        -13    1    4    4    0    0  0.47763995030E+01  0.13308840872E+02  0.50575845623E+01  0.15017637104E+02  0.10500000000E+00 0.  1.
         13    1    4    4    0    0  0.33279668773E+01  0.95967095802E+01  0.36541240388E+01  0.10795176969E+02  0.10500000000E+00 0. -1.
    3000001    1    5    5    0    0 -0.24220011054E+02 -0.33283437116E+02 -0.98440887443E+01  0.42335590286E+02  0.10000000000E+01 0. -1.
        -13    1    6    6    0    0 -0.19634176128E+01 -0.68804358347E+01 -0.23299149492E+01  0.75256185572E+01  0.10500000000E+00 0. -1.
         13    1    6    6    0    0 -0.34036892707E+01 -0.11565342332E+02 -0.37928607271E+01  0.12638791928E+02  0.10500000000E+00 0.  1.
</event>
<event>
11    0  0.3483054E-009  0.9118800E+02  0.7816531E-02  0.1126479E+00
         25   -1    0    0    0    0  0.00000000000E+00  0.00000000000E+00  0.99999998245E-14  0.12500000000E+03  0.12500000000E+03 0.  0.
    3000001    1    3    3    0    0  0.30921426081E+02 -0.22878330081E+02 -0.68876715211E+01  0.39089545881E+02  0.10000000000E+01 0. -1.
    1000022    2    1    0    0    0  0.46660580980E+02 -0.36054158225E+02 -0.18142156424E+02  0.62499999893E+02  0.10000000209E+02 0.  0.
    3000022    2    3    3    0    0  0.15739154899E+02 -0.13175828144E+02 -0.11254484903E+02  0.23410454012E+02  0.24996480476E+00 0.  0.
    1000022    2    1    0    0    0 -0.46660580980E+02  0.36054158225E+02  0.18142156424E+02  0.62500000107E+02  0.10000001545E+02 0.  0.
    3000022    2    5    5    0    0 -0.41188590231E+02  0.35058372106E+02  0.15531272115E+02  0.56274970819E+02  0.25001458510E+00 0.  0.
        -13    1    4    4    0    0  0.62962879806E+01 -0.53494840454E+01 -0.45082408227E+01  0.94125173149E+01  0.10500000000E+00 0.  1.
         13    1    4    4    0    0  0.94428669184E+01 -0.78263440989E+01 -0.67462440802E+01  0.13997936697E+02  0.10500000000E+00 0. -1.
    3000001    1    5    5    0    0 -0.54719907489E+01  0.99578611977E+00  0.26108843094E+01  0.62250292874E+01  0.10000000000E+01 0.  1.
        -13    1    6    6    0    0 -0.97001840501E+01  0.82566622215E+01  0.36735887669E+01  0.13257915412E+02  0.10500000000E+00 0.  1.
         13    1    6    6    0    0 -0.31488406181E+02  0.26801709884E+02  0.11857683348E+02  0.43017055407E+02  0.10500000000E+00 0. -1.
</event>
<event>
11    0  0.3483054E-009  0.9118800E+02  0.7816531E-02  0.1126479E+00
         25   -1    0    0    0    0  0.00000000000E+00  0.00000000000E+00  0.99999998245E-14  0.12500000000E+03  0.12500000000E+03 0.  0.
    3000001    1    3    3    0    0 -0.22944751480E+02 -0.26943699487E+02  0.24626959520E+02  0.43126693563E+02  0.10000000000E+01 0.  1.
    1000022    2    1    0    0    0 -0.30459166373E+02 -0.35292070331E+02  0.40409887068E+02  0.62500000676E+02  0.10000003362E+02 0.  0.
    3000022    2    3    3    0    0 -0.75144148932E+01 -0.83483708437E+01  0.15782927549E+02  0.19373307113E+02  0.24999907369E+00 0.  0.
    1000022    2    1    0    0    0  0.30459166373E+02  0.35292070331E+02 -0.40409887068E+02  0.62499999324E+02  0.99999949138E+01 0.  0.
    3000022    2    5    5    0    0  0.74858451147E+01  0.30943620936E+01 -0.73318800328E+01  0.10928491155E+02  0.25000053961E+00 0.  0.
        -13    1    4    4    0    0 -0.36386366610E+01 -0.41320834970E+01  0.76816203487E+01  0.94515663760E+01  0.10500000000E+00 0.  1.
         13    1    4    4    0    0 -0.38757782322E+01 -0.42162873467E+01  0.81013072002E+01  0.99217407368E+01  0.10500000000E+00 0. -1.
    3000001    1    5    5    0    0  0.22973321258E+02  0.32197708237E+02 -0.33078007036E+02  0.51571508169E+02  0.10000000000E+01 0. -1.
        -13    1    6    6    0    0  0.24035233942E+01  0.10215584772E+01 -0.23053302663E+01  0.34851225324E+01  0.10500000000E+00 0. -1.
         13    1    6    6    0    0  0.50823217205E+01  0.20728036164E+01 -0.50265497665E+01  0.74433686230E+01  0.10500000000E+00 0.  1.
</event>
<event>
11    0  0.3483054E-009  0.9118800E+02  0.7816531E-02  0.1126479E+00
         25   -1    0    0    0    0  0.00000000000E+00  0.00000000000E+00  0.99999998245E-14  0.12500000000E+03  0.12500000000E+03 0.  0.
    3000001    1    3    3    0    0  0.85646548740E+01  0.21977147393E+01  0.56101974468E+01  0.10519390599E+02  0.10000000000E+01 0. -1.
    1000022    2    1    0    0    0  0.59366531682E+02  0.24314193570E+01  0.16611834114E+02  0.62500000524E+02  0.10000007442E+02 0.  0.
    3000022    2    3    3    0    0  0.50801876808E+02  0.23370461774E+00  0.11001636667E+02  0.51980609925E+02  0.24998748132E+00 0.  0.
    1000022    2    1    0    0    0 -0.59366531682E+02 -0.24314193570E+01 -0.16611834114E+02  0.62499999476E+02  0.10000000892E+02 0.  0.
    3000022    2    5    5    0    0 -0.50491340877E+02  0.11826147112E+01 -0.15324628321E+02  0.52779549238E+02  0.25000701793E+00 0.  0.
        -13    1    4    4    0    0  0.18712339270E+02  0.12972171178E+00  0.40113498156E+01  0.19138192731E+02  0.10500000000E+00 0.  1.
         13    1    4    4    0    0  0.32089537538E+02  0.10398290596E+00  0.69902868512E+01  0.32842417193E+02  0.10500000000E+00 0. -1.
    3000001    1    5    5    0    0 -0.88751908050E+01 -0.36140340682E+01 -0.12872057928E+01  0.97204502377E+01  0.10000000000E+01 0. -1.
        -13    1    6    6    0    0 -0.35830704841E+02  0.79896895042E+00 -0.10890608765E+02  0.37457898300E+02  0.10500000000E+00 0.  1.
         13    1    6    6    0    0 -0.14660636036E+02  0.38364576080E+00 -0.44340195557E+01  0.15321650938E+02  0.10500000000E+00 0. -1.
</event>
<event>
11    0  0.3483054E-009  0.9118800E+02  0.7816531E-02  0.1126479E+00
         25   -1    0    0    0    0  0.00000000000E+00  0.00000000000E+00  0.99999998245E-14  0.12500000000E+03  0.12500000000E+03 0.  0.
    3000001    1    3    3    0    0  0.31823597715E+01  0.10384935003E+01  0.15497647059E+02  0.15886564979E+02  0.10000000000E+01 0.  1.
    1000022    2    1    0    0    0  0.52036299030E+01  0.18980398955E+02  0.58471502647E+02  0.62499999416E+02  0.99999998249E+01 0.  0.
    3000022    2    3    3    0    0  0.20212701315E+01  0.17941905455E+02  0.42973855588E+02  0.46613434437E+02  0.25000318739E+00 0.  0.
    1000022    2    1    0    0    0 -0.52036299030E+01 -0.18980398955E+02 -0.58471502647E+02  0.62500000584E+02  0.10000007131E+02 0.  0.
    3000022    2    5    5    0    0 -0.79663085553E+01 -0.16060368131E+02 -0.47027403161E+02  0.50329282184E+02  0.25000111900E+00 0.  0.
        -13    1    4    4    0    0  0.15356903934E+01  0.13402994128E+02  0.32078115633E+02  0.34799642587E+02  0.10500000000E+00 0. -1.
         13    1    4    4    0    0  0.48557973810E+00  0.45389113265E+01  0.10895739955E+02  0.11813791850E+02  0.10500000000E+00 0.  1.
    3000001    1    5    5    0    0  0.27626786523E+01 -0.29200308244E+01 -0.11444099486E+02  0.12170718401E+02  0.10000000000E+01 0.  1.
        -13    1    6    6    0    0 -0.42198419627E+01 -0.84699722037E+01 -0.25006387266E+02  0.26737201133E+02  0.10500000000E+00 0.  1.
         13    1    6    6    0    0 -0.37464665925E+01 -0.75903959270E+01 -0.22021015895E+02  0.23592081051E+02  0.10500000000E+00 0. -1.
</event>
<event>
11    0  0.3483054E-009  0.9118800E+02  0.7816531E-02  0.1126479E+00
         25   -1    0    0    0    0  0.00000000000E+00  0.00000000000E+00  0.99999998245E-14  0.12500000000E+03  0.12500000000E+03 0.  0.
    3000001    1    3    3    0    0  0.28240378902E+00 -0.35786739881E+01  0.23862146439E+02  0.24151370398E+02  0.10000000000E+01 0.  1.
    1000022    2    1    0    0    0 -0.90132630670E+01 -0.16388763205E+02  0.58791319925E+02  0.62500001050E+02  0.10000018111E+02 0.  0.
    3000022    2    3    3    0    0 -0.92956668560E+01 -0.12810089217E+02  0.34929173486E+02  0.38348630652E+02  0.25000887644E+00 0.  0.
    1000022    2    1    0    0    0  0.90132630670E+01  0.16388763205E+02 -0.58791319925E+02  0.62499998950E+02  0.10000004987E+02 0.  0.
    3000022    2    5    5    0    0 -0.13191074279E+01  0.60277389663E+01 -0.12525399457E+02  0.13965020841E+02  0.24998815288E+00 0.  0.
        -13    1    4    4    0    0 -0.58552639333E+01 -0.81379198803E+01  0.22227762029E+02  0.24384304081E+02  0.10500000000E+00 0.  1.
         13    1    4    4    0    0 -0.34404029227E+01 -0.46721693370E+01  0.12701411457E+02  0.13964326571E+02  0.10500000000E+00 0. -1.
    3000001    1    5    5    0    0  0.10332370495E+02  0.10361024239E+02 -0.46265920468E+02  0.48534978109E+02  0.10000000000E+01 0.  1.
        -13    1    6    6    0    0 -0.76084835749E+00  0.36789837311E+01 -0.77242330512E+01  0.85900298455E+01  0.10500000000E+00 0.  1.
         13    1    6    6    0    0 -0.55825907040E+00  0.23487552351E+01 -0.48011664060E+01  0.53749909956E+01  0.10500000000E+00 0. -1.
</event>
<event>
11    0  0.3483054E-009  0.9118800E+02  0.7816531E-02  0.1126479E+00
         25   -1    0    0    0    0  0.00000000000E+00  0.00000000000E+00  0.99999998245E-14  0.12500000000E+03  0.12500000000E+03 0.  0.
    3000001    1    3    3    0    0 -0.16788168123E+02 -0.20326844679E+02 -0.38888414026E+02  0.46992892537E+02  0.10000000000E+01 0.  1.
    1000022    2    1    0    0    0 -0.16836208628E+02 -0.28520034056E+02 -0.52051894430E+02  0.62499999777E+02  0.99999997439E+01 0.  0.
    3000022    2    3    3    0    0 -0.48040505095E-01 -0.81931893766E+01 -0.13163480404E+02  0.15507107240E+02  0.24999711999E+00 0.  0.
    1000022    2    1    0    0    0  0.16836208628E+02  0.28520034056E+02  0.52051894430E+02  0.62500000223E+02  0.10000002534E+02 0.  0.
    3000022    2    5    5    0    0  0.65748067820E+01  0.16504410637E+02  0.20009231049E+02  0.26759213291E+02  0.25002820226E+00 0.  0.
        -13    1    4    4    0    0  0.19543119493E-01 -0.24333922950E+01 -0.38555367877E+01  0.45604790227E+01  0.10500000000E+00 0. -1.
         13    1    4    4    0    0 -0.67583624587E-01 -0.57597970815E+01 -0.93079436160E+01  0.10946628217E+02  0.10500000000E+00 0.  1.
    3000001    1    5    5    0    0  0.10261401846E+02  0.12015623419E+02  0.32042663381E+02  0.35740786932E+02  0.10000000000E+01 0. -1.
        -13    1    6    6    0    0  0.36560330170E+01  0.93554214951E+01  0.11309440212E+02  0.15126300000E+02  0.10500000000E+00 0.  1.
         13    1    6    6    0    0  0.29187737649E+01  0.71489891418E+01  0.86997908371E+01  0.11632913292E+02  0.10500000000E+00 0. -1.
</event>
<event>
11    0  0.3483054E-009  0.9118800E+02  0.7816531E-02  0.1126479E+00
         25   -1    0    0    0    0  0.00000000000E+00  0.00000000000E+00  0.99999998245E-14  0.12500000000E+03  0.12500000000E+03 0.  0.
    3000001    1    3    3    0    0  0.16419240557E+02  0.60967498951E+01  0.19462720499E+01  0.17650773202E+02  0.10000000000E+01 0.  1.
    1000022    2    1    0    0    0  0.59600245197E+02  0.14362738175E+02 -0.69117730087E+01  0.62500000438E+02  0.99999986603E+01 0.  0.
    3000022    2    3    3    0    0  0.43181004640E+02  0.82659882796E+01 -0.88580450587E+01  0.44849227235E+02  0.24999480912E+00 0.  0.
    1000022    2    1    0    0    0 -0.59600245197E+02 -0.14362738175E+02  0.69117730087E+01  0.62499999562E+02  0.99999931904E+01 0.  0.
    3000022    2    5    5    0    0 -0.40683709205E+02 -0.52127480706E+01  0.58936552801E+01  0.41438323073E+02  0.25001887486E+00 0.  0.
        -13    1    4    4    0    0  0.27156545586E+02  0.51817817262E+01 -0.56286958589E+01  0.28213863119E+02  0.10500000000E+00 0.  1.
         13    1    4    4    0    0  0.16024459054E+02  0.30842065533E+01 -0.32293491998E+01  0.16635364117E+02  0.10500000000E+00 0. -1.
    3000001    1    5    5    0    0 -0.18916535992E+02 -0.91499901041E+01  0.10181177287E+01  0.21061676490E+02  0.10000000000E+01 0. -1.
        -13    1    6    6    0    0 -0.29883221881E+02 -0.38569099117E+01  0.43494439168E+01  0.30443577179E+02  0.10500000000E+00 0. -1.
         13    1    6    6    0    0 -0.10800487323E+02 -0.13558381589E+01  0.15442113633E+01  0.10994745894E+02  0.10500000000E+00 0.  1.
</event>
<event>
11    0  0.3483054E-009  0.9118800E+02  0.7816531E-02  0.1126479E+00
         25   -1    0    0    0    0  0.00000000000E+00  0.00000000000E+00  0.99999998245E-14  0.12500000000E+03  0.12500000000E+03 0.  0.
    3000001    1    3    3    0    0  0.13934208656E+02 -0.31003249057E+02 -0.51195480928E+02  0.61460075581E+02  0.10000000000E+01 0. -1.
    1000022    2    1    0    0    0  0.13834905999E+02 -0.31969181062E+02 -0.50919709929E+02  0.62499999797E+02  0.99999976805E+01 0.  0.
    3000022    2    3    3    0    0 -0.99302657767E-01 -0.96593200451E+00  0.27577099883E+00  0.10399242159E+01  0.25001415149E+00 0.  0.
    1000022    2    1    0    0    0 -0.13834905999E+02  0.31969181062E+02  0.50919709929E+02  0.62500000203E+02  0.10000000219E+02 0.  0.
    3000022    2    5    5    0    0 -0.52493825224E+01  0.53740115217E+01  0.61393325837E+01  0.97051476944E+01  0.24994098276E+00 0.  0.
        -13    1    4    4    0    0 -0.41703083530E-01 -0.41045782066E+00  0.18623572165E+00  0.46467570814E+00  0.10500000000E+00 0.  1.
         13    1    4    4    0    0 -0.57599574237E-01 -0.55547418385E+00  0.89535277181E-01  0.57524850781E+00  0.10500000000E+00 0. -1.
    3000001    1    5    5    0    0 -0.85855234761E+01  0.26595169540E+02  0.44780377345E+02  0.52794852509E+02  0.10000000000E+01 0. -1.
        -13    1    6    6    0    0 -0.20833894333E+01  0.20531496397E+01  0.23559604493E+01  0.37573274561E+01  0.10500000000E+00 0. -1.
         13    1    6    6    0    0 -0.31659930891E+01  0.33208618820E+01  0.37833721344E+01  0.59478202383E+01  0.10500000000E+00 0.  1.
</event>
<event>
11    0  0.3483054E-009  0.9118800E+02  0.7816531E-02  0.1126479E+00
         25   -1    0    0    0    0  0.00000000000E+00  0.00000000000E+00  0.99999998245E-14  0.12500000000E+03  0.12500000000E+03 0.  0.
    3000001    1    3    3    0    0  0.21563677047E+02  0.21362166445E+00 -0.14882681411E+02  0.26220831565E+02  0.10000000000E+01 0. -1.
    1000022    2    1    0    0    0  0.53667977451E+02  0.97575015372E+01 -0.28823416415E+02  0.62500003048E+02  0.10000020359E+02 0.  0.
    3000022    2    3    3    0    0  0.32104300404E+02  0.95438798727E+01 -0.13940735004E+02  0.36279171482E+02  0.24988701495E+00 0.  0.
    1000022    2    1    0    0    0 -0.53667977451E+02 -0.97575015372E+01  0.28823416415E+02  0.62499996952E+02  0.99999822626E+01 0.  0.
    3000022    2    5    5    0    0 -0.13817099873E+02 -0.28573947513E+01  0.12579160647E+02  0.18904357688E+02  0.25000668129E+00 0.  0.
        -13    1    4    4    0    0  0.19181812586E+02  0.57323690042E+01 -0.82719724362E+01  0.21661914538E+02  0.10500000000E+00 0.  1.
         13    1    4    4    0    0  0.12922487819E+02  0.38115108686E+01 -0.56687625677E+01  0.14617256944E+02  0.10500000000E+00 0. -1.
    3000001    1    5    5    0    0 -0.39850877579E+02 -0.69001067858E+01  0.16244255768E+02  0.43595639265E+02  0.10000000000E+01 0.  1.
        -13    1    6    6    0    0 -0.59571470953E+01 -0.12604467813E+01  0.53492520504E+01  0.81056677764E+01  0.10500000000E+00 0.  1.
         13    1    6    6    0    0 -0.78599527772E+01 -0.15969479701E+01  0.72299085967E+01  0.10798689911E+02  0.10500000000E+00 0.  1.
</event>
<event>
11    0  0.3483054E-009  0.9118800E+02  0.7816531E-02  0.1126479E+00
         25   -1    0    0    0    0  0.00000000000E+00  0.00000000000E+00  0.99999998245E-14  0.12500000000E+03  0.12500000000E+03 0.  0.
    3000001    1    3    3    0    0  0.43802415807E+00  0.15933906160E+02 -0.56057867912E+01  0.16926490370E+02  0.10000000000E+01 0.  1.
    1000022    2    1    0    0    0 -0.35805476787E+01  0.51370418756E+02 -0.33978079551E+02  0.62500000749E+02  0.99999979405E+01 0.  0.
    3000022    2    3    3    0    0 -0.40185718368E+01  0.35436512596E+02 -0.28372292760E+02  0.45573510380E+02  0.25001459261E+00 0.  0.
    1000022    2    1    0    0    0  0.35805476787E+01 -0.51370418756E+02  0.33978079551E+02  0.62499999251E+02  0.99999885730E+01 0.  0.
    3000022    2    5    5    0    0 -0.98732253359E+00 -0.40299644551E+02  0.24302646936E+02  0.47071406441E+02  0.24999910620E+00 0.  0.
        -13    1    4    4    0    0 -0.26883863795E+01  0.24084847031E+02 -0.19243974625E+02  0.30945902188E+02  0.10500000000E+00 0.  1.
         13    1    4    4    0    0 -0.13301854573E+01  0.11351665565E+02 -0.91283181345E+01  0.14627608192E+02  0.10500000000E+00 0. -1.
    3000001    1    5    5    0    0  0.45678702123E+01 -0.11070774206E+02  0.96754326153E+01  0.15428592809E+02  0.10000000000E+01 0.  1.
        -13    1    6    6    0    0 -0.32324144476E+00 -0.11687855291E+02  0.70233822239E+01  0.13639991539E+02  0.10500000000E+00 0.  1.
         13    1    6    6    0    0 -0.66408108883E+00 -0.28611789260E+02  0.17279264712E+02  0.33431414902E+02  0.10500000000E+00 0. -1.
</event>
<event>
11    0  0.3483054E-009  0.9118800E+02  0.7816531E-02  0.1126479E+00
         25   -1    0    0    0    0  0.00000000000E+00  0.00000000000E+00  0.99999998245E-14  0.12500000000E+03  0.12500000000E+03 0.  0.
    3000001    1    3    3    0    0  0.17730417705E+02 -0.50706349567E+01  0.16991800635E+01  0.18546327500E+02  0.10000000000E+01 0.  1.
    1000022    2    1    0    0    0  0.53989640558E+02 -0.23838190663E+02  0.17975246177E+02  0.62499998731E+02  0.99999872268E+01 0.  0.
    3000022    2    3    3    0    0  0.36259222853E+02 -0.18767555706E+02  0.16276066113E+02  0.43953671230E+02  0.24999481585E+00 0.  0.
    1000022    2    1    0    0    0 -0.53989640558E+02  0.23838190663E+02 -0.17975246177E+02  0.62500001269E+02  0.10000003093E+02 0.  0.
    3000022    2    5    5    0    0 -0.32303367660E+02  0.18804546043E+02 -0.88062203143E+01  0.38402220341E+02  0.24999375445E+00 0.  0.
        -13    1    4    4    0    0  0.11094626433E+02 -0.56935088032E+01  0.49911387964E+01  0.13432396274E+02  0.10500000000E+00 0. -1.
         13    1    4    4    0    0  0.25164596420E+02 -0.13074046903E+02  0.11284927317E+02  0.30521274956E+02  0.10500000000E+00 0.  1.
    3000001    1    5    5    0    0 -0.21686272899E+02  0.50336446197E+01 -0.91690258624E+01  0.24097780928E+02  0.10000000000E+01 0.  1.
        -13    1    6    6    0    0 -0.12650400316E+02  0.73069428882E+01 -0.34032476217E+01  0.15000572053E+02  0.10500000000E+00 0.  1.
         13    1    6    6    0    0 -0.19652967343E+02  0.11497603155E+02 -0.54029726925E+01  0.23401648288E+02  0.10500000000E+00 0. -1.
</event>
<event>
11    0  0.3483054E-009  0.9118800E+02  0.7816531E-02  0.1126479E+00
         25   -1    0    0    0    0  0.00000000000E+00  0.00000000000E+00  0.99999998245E-14  0.12500000000E+03  0.12500000000E+03 0.  0.
    3000001    1    3    3    0    0 -0.37280756327E+01 -0.11344072508E+01  0.12002151981E+02  0.12658478578E+02  0.10000000000E+01 0. -1.
    1000022    2    1    0    0    0 -0.45099313134E+01 -0.19028828492E+02  0.58513367662E+02  0.62500000350E+02  0.10000002720E+02 0.  0.
    3000022    2    3    3    0    0 -0.78185568076E+00 -0.17894421241E+02  0.46511215681E+02  0.49841521772E+02  0.24999716545E+00 0.  0.
    1000022    2    1    0    0    0  0.45099313134E+01  0.19028828492E+02 -0.58513367662E+02  0.62499999650E+02  0.99999983446E+01 0.  0.
    3000022    2    5    5    0    0 -0.19692385875E+00  0.11382120804E+02 -0.43609449673E+02  0.45071477179E+02  0.25000275593E+00 0.  0.
        -13    1    4    4    0    0 -0.39146076068E+00 -0.10240714411E+02  0.26516488324E+02  0.28428166512E+02  0.10500000000E+00 0.  1.
         13    1    4    4    0    0 -0.39039492008E+00 -0.76537068299E+01  0.19994727357E+02  0.21413355260E+02  0.10500000000E+00 0. -1.
    3000001    1    5    5    0    0  0.47068551722E+01  0.76467076883E+01 -0.14903917989E+02  0.17428522471E+02  0.10000000000E+01 0.  1.
        -13    1    6    6    0    0 -0.16048286975E+00  0.85518456374E+01 -0.32849277929E+02  0.33944747812E+02  0.10500000000E+00 0.  1.
         13    1    6    6    0    0 -0.36440989009E-01  0.28302751663E+01 -0.10760171743E+02  0.11126729367E+02  0.10500000000E+00 0. -1.
</event>
<event>
11    0  0.3483054E-009  0.9118800E+02  0.7816531E-02  0.1126479E+00
         25   -1    0    0    0    0  0.00000000000E+00  0.00000000000E+00  0.99999998245E-14  0.12500000000E+03  0.12500000000E+03 0.  0.
    3000001    1    3    3    0    0 -0.34812402373E+02 -0.39704048178E+02  0.21193680514E+02  0.56907705054E+02  0.10000000000E+01 0.  1.
    1000022    2    1    0    0    0 -0.38924547940E+02 -0.40964847834E+02  0.24759055842E+02  0.62500000158E+02  0.99999991548E+01 0.  0.
    3000022    2    3    3    0    0 -0.41121455669E+01 -0.12607996561E+01  0.35653753277E+01  0.55922951041E+01  0.25001273383E+00 0.  0.
    1000022    2    1    0    0    0  0.38924547940E+02  0.40964847834E+02 -0.24759055842E+02  0.62499999842E+02  0.99999971845E+01 0.  0.
    3000022    2    5    5    0    0  0.25695328936E+02  0.26810921740E+02 -0.21246451112E+02  0.42784923090E+02  0.25001069790E+00 0.  0.
        -13    1    4    4    0    0 -0.24289413567E+01 -0.78794138335E+00  0.21782555858E+01  0.33580396268E+01  0.10500000000E+00 0. -1.
         13    1    4    4    0    0 -0.16832042102E+01 -0.47285827277E+00  0.13871197419E+01  0.22342554773E+01  0.10500000000E+00 0.  1.
    3000001    1    5    5    0    0  0.13229219004E+02  0.14153926095E+02 -0.35126047305E+01  0.19715076752E+02  0.10000000000E+01 0. -1.
        -13    1    6    6    0    0  0.10072238244E+02  0.10547419705E+02 -0.84092073572E+01  0.16835196437E+02  0.10500000000E+00 0. -1.
         13    1    6    6    0    0  0.15623090692E+02  0.16263502034E+02 -0.12837243754E+02  0.25949726654E+02  0.10500000000E+00 0.  1.
</event>
<event>
11    0  0.3483054E-009  0.9118800E+02  0.7816531E-02  0.1126479E+00
         25   -1    0    0    0    0  0.00000000000E+00  0.00000000000E+00  0.99999998245E-14  0.12500000000E+03  0.12500000000E+03 0.  0.
    3000001    1    3    3    0    0 -0.55618182160E+01 -0.30062264044E+02  0.53089319925E+02  0.61271114168E+02  0.10000000000E+01 0.  1.
    1000022    2    1    0    0    0 -0.60700513717E+01 -0.29357527720E+02  0.53921610445E+02  0.62500000151E+02  0.99999994159E+01 0.  0.
    3000022    2    3    3    0    0 -0.50823315570E+00  0.70473632341E+00  0.83229052081E+00  0.12288859830E+01  0.24999804433E+00 0.  0.
    1000022    2    1    0    0    0  0.60700513717E+01  0.29357527720E+02 -0.53921610445E+02  0.62499999849E+02  0.99999975314E+01 0.  0.
    3000022    2    5    5    0    0 -0.25760192803E+01  0.10532152993E+02 -0.17555159723E+02  0.20635121855E+02  0.24999813008E+00 0.  0.
        -13    1    4    4    0    0 -0.33321004679E+00  0.37101784098E+00  0.52268723341E+00  0.73000692981E+00  0.10500000000E+00 0. -1.
         13    1    4    4    0    0 -0.17502310891E+00  0.33371848243E+00  0.30960328741E+00  0.49887905322E+00  0.10500000000E+00 0.  1.
    3000001    1    5    5    0    0  0.86460706520E+01  0.18825374728E+02 -0.36366450722E+02  0.41864877995E+02  0.10000000000E+01 0.  1.
        -13    1    6    6    0    0 -0.10652328277E+01  0.44570198797E+01 -0.75349882732E+01  0.88196836941E+01  0.10500000000E+00 0.  1.
         13    1    6    6    0    0 -0.15107864526E+01  0.60751331130E+01 -0.10020171450E+02  0.11815438161E+02  0.10500000000E+00 0. -1.
</event>
<event>
11    0  0.3483054E-009  0.9118800E+02  0.7816531E-02  0.1126479E+00
         25   -1    0    0    0    0  0.00000000000E+00  0.00000000000E+00  0.99999998245E-14  0.12500000000E+03  0.12500000000E+03 0.  0.
    3000001    1    3    3    0    0 -0.96870353022E+01  0.16484142991E+02 -0.78215469619E+00  0.19161873318E+02  0.10000000000E+01 0.  1.
    1000022    2    1    0    0    0 -0.36828377303E+02  0.48432835711E+02  0.10206881843E+02  0.62499995540E+02  0.10000002786E+02 0.  0.
    3000022    2    3    3    0    0 -0.27141342001E+02  0.31948692720E+02  0.10989036540E+02  0.43338122222E+02  0.25000300594E+00 0.  0.
    1000022    2    1    0    0    0  0.36828377303E+02 -0.48432835711E+02 -0.10206881843E+02  0.62500004460E+02  0.10000058537E+02 0.  0.
    3000022    2    5    5    0    0  0.25916775043E+02 -0.29135245183E+02 -0.10206665820E+02  0.40308563224E+02  0.25000308668E+00 0.  0.
        -13    1    4    4    0    0 -0.12690215528E+02  0.15026402782E+02  0.51190154154E+01  0.20323624050E+02  0.10500000000E+00 0.  1.
         13    1    4    4    0    0 -0.14451126473E+02  0.16922289939E+02  0.58700211241E+01  0.23014498172E+02  0.10500000000E+00 0. -1.
    3000001    1    5    5    0    0  0.10911602261E+02 -0.19297590528E+02 -0.21602307632E-03  0.22191441236E+02  0.10000000000E+01 0. -1.
        -13    1    6    6    0    0  0.18808000657E+02 -0.21164282200E+02 -0.73749219732E+01  0.29258643661E+02  0.10500000000E+00 0. -1.
         13    1    6    6    0    0  0.71087743854E+01 -0.79709629822E+01 -0.28317438470E+01  0.11049919563E+02  0.10500000000E+00 0.  1.
</event>
<event>
11    0  0.3483054E-009  0.9118800E+02  0.7816531E-02  0.1126479E+00
         25   -1    0    0    0    0  0.00000000000E+00  0.00000000000E+00  0.99999998245E-14  0.12500000000E+03  0.12500000000E+03 0.  0.
    3000001    1    3    3    0    0  0.16469927646E+02 -0.15097458620E+02 -0.29927496227E+02  0.37361033228E+02  0.10000000000E+01 0.  1.
    1000022    2    1    0    0    0  0.33586614651E+02 -0.26101753168E+02 -0.44686550099E+02  0.62500000088E+02  0.10000002457E+02 0.  0.
    3000022    2    3    3    0    0  0.17116687005E+02 -0.11004294548E+02 -0.14759053871E+02  0.25138966860E+02  0.25002215374E+00 0.  0.
    1000022    2    1    0    0    0 -0.33586614651E+02  0.26101753168E+02  0.44686550099E+02  0.62499999912E+02  0.10000001352E+02 0.  0.
    3000022    2    5    5    0    0 -0.10311687542E+02  0.87328459881E+01  0.21177322643E+02  0.25122400415E+02  0.25001854449E+00 0.  0.
        -13    1    4    4    0    0  0.68283886006E+01 -0.43249897477E+01 -0.59007837515E+01  0.10008131748E+02  0.10500000000E+00 0. -1.
         13    1    4    4    0    0  0.10288298405E+02 -0.66793048007E+01 -0.88582701197E+01  0.15130835112E+02  0.10500000000E+00 0.  1.
    3000001    1    5    5    0    0 -0.23274927109E+02  0.17368907180E+02  0.23509227456E+02  0.37377599496E+02  0.10000000000E+01 0.  1.
        -13    1    6    6    0    0 -0.47207596504E+01  0.40831471513E+01  0.97502938504E+01  0.11577431386E+02  0.10500000000E+00 0. -1.
         13    1    6    6    0    0 -0.55909278921E+01  0.46496988368E+01  0.11427028793E+02  0.13544969029E+02  0.10500000000E+00 0.  1.
</event>
<event>
11    0  0.3483054E-009  0.9118800E+02  0.7816531E-02  0.1126479E+00
         25   -1    0    0    0    0  0.00000000000E+00  0.00000000000E+00  0.99999998245E-14  0.12500000000E+03  0.12500000000E+03 0.  0.
    3000001    1    3    3    0    0  0.64134579442E+00  0.10336342456E+01 -0.14378301181E+01  0.21323882457E+01  0.10000000000E+01 0.  1.
    1000022    2    1    0    0    0  0.55482913051E+02  0.18891444081E+02 -0.19261612989E+02  0.62500000494E+02  0.10000001336E+02 0.  0.
    3000022    2    3    3    0    0  0.54841567257E+02  0.17857809835E+02 -0.17823782871E+02  0.60367612248E+02  0.25000292385E+00 0.  0.
    1000022    2    1    0    0    0 -0.55482913051E+02 -0.18891444081E+02  0.19261612989E+02  0.62499999506E+02  0.99999951614E+01 0.  0.
    3000022    2    5    5    0    0 -0.47615207966E+02 -0.19269114512E+02  0.15127416924E+02  0.53548184307E+02  0.24999202820E+00 0.  0.
        -13    1    4    4    0    0  0.34143149376E+02  0.11077065423E+02 -0.11044118738E+02  0.37555819941E+02  0.10500000000E+00 0.  1.
         13    1    4    4    0    0  0.20698417880E+02  0.67807444116E+01 -0.67796641335E+01  0.22811792308E+02  0.10500000000E+00 0. -1.
    3000001    1    5    5    0    0 -0.78677050849E+01  0.37767043130E+00  0.41341960655E+01  0.89518151995E+01  0.10000000000E+01 0.  1.
        -13    1    6    6    0    0 -0.31679009566E+02 -0.12771352385E+02  0.10089706227E+02  0.35615730872E+02  0.10500000000E+00 0.  1.
         13    1    6    6    0    0 -0.15936198400E+02 -0.64977621266E+01  0.50377106968E+01  0.17932453434E+02  0.10500000000E+00 0. -1.
</event>
<event>
11    0  0.3483054E-009  0.9118800E+02  0.7816531E-02  0.1126479E+00
         25   -1    0    0    0    0  0.00000000000E+00  0.00000000000E+00  0.99999998245E-14  0.12500000000E+03  0.12500000000E+03 0.  0.
    3000001    1    3    3    0    0 -0.19293008683E+02  0.10499617670E+02 -0.78084653752E+00  0.22001633498E+02  0.10000000000E+01 0. -1.
    1000022    2    1    0    0    0 -0.59169600091E+02  0.17465714988E+02  0.39650737592E+00  0.62500000354E+02  0.10000002559E+02 0.  0.
    3000022    2    3    3    0    0 -0.39876591407E+02  0.69660973179E+01  0.11773539134E+01  0.40498366855E+02  0.25000321525E+00 0.  0.
    1000022    2    1    0    0    0  0.59169600091E+02 -0.17465714988E+02 -0.39650737592E+00  0.62499999646E+02  0.99999981387E+01 0.  0.
    3000022    2    5    5    0    0  0.24797252607E+02 -0.84659896057E+01 -0.49410220037E+01  0.26665575670E+02  0.25002106267E+00 0.  0.
        -13    1    4    4    0    0 -0.15351325660E+02  0.26825138401E+01  0.39180602663E+00  0.15589214765E+02  0.10500000000E+00 0. -1.
         13    1    4    4    0    0 -0.24525265747E+02  0.42835834778E+01  0.78554788681E+00  0.24909152091E+02  0.10500000000E+00 0.  1.
    3000001    1    5    5    0    0  0.34372347484E+02 -0.89997253826E+01  0.45445146278E+01  0.35834423976E+02  0.10000000000E+01 0. -1.
        -13    1    6    6    0    0  0.14288595258E+02 -0.49295950458E+01 -0.28942234110E+01  0.15390010263E+02  0.10500000000E+00 0.  1.
         13    1    6    6    0    0  0.10508657349E+02 -0.35363945599E+01 -0.20467985927E+01  0.11275565407E+02  0.10500000000E+00 0. -1.
</event>
<event>
11    0  0.3483054E-009  0.9118800E+02  0.7816531E-02  0.1126479E+00
         25   -1    0    0    0    0  0.00000000000E+00  0.00000000000E+00  0.99999998245E-14  0.12500000000E+03  0.12500000000E+03 0.  0.
    3000001    1    3    3    0    0  0.15416206399E+02  0.43352569446E+02  0.16711354106E+02  0.48962986565E+02  0.10000000000E+01 0. -1.
    1000022    2    1    0    0    0  0.18621790785E+02  0.56497389013E+02  0.16356165174E+02  0.62500001624E+02  0.10000000323E+02 0.  0.
    3000022    2    3    3    0    0  0.32055843860E+01  0.13144819568E+02 -0.35518893206E+00  0.13537015059E+02  0.25012961001E+00 0.  0.
    1000022    2    1    0    0    0 -0.18621790785E+02 -0.56497389013E+02 -0.16356165174E+02  0.62499998376E+02  0.99999800216E+01 0.  0.
    3000022    2    5    5    0    0 -0.14396529961E+02 -0.50034745687E+02 -0.16780406674E+02  0.54702654684E+02  0.25006101396E+00 0.  0.
        -13    1    4    4    0    0  0.91639331248E+00  0.35985286722E+01 -0.94202760451E-01  0.37160576513E+01  0.10500000000E+00 0.  1.
         13    1    4    4    0    0  0.22891910735E+01  0.95462908954E+01 -0.26098617161E+00  0.98209574081E+01  0.10500000000E+00 0. -1.
    3000001    1    5    5    0    0 -0.42252608239E+01 -0.64626433266E+01  0.42424149966E+00  0.77973436918E+01  0.10000000000E+01 0. -1.
        -13    1    6    6    0    0 -0.84234380897E+01 -0.29220649961E+02 -0.97353340369E+01  0.31930995086E+02  0.10500000000E+00 0.  1.
         13    1    6    6    0    0 -0.59730918712E+01 -0.20814095726E+02 -0.70450726369E+01  0.22771659598E+02  0.10500000000E+00 0. -1.
</event>
<event>
11    0  0.3483054E-009  0.9118800E+02  0.7816531E-02  0.1126479E+00
         25   -1    0    0    0    0  0.00000000000E+00  0.00000000000E+00  0.99999998245E-14  0.12500000000E+03  0.12500000000E+03 0.  0.
    3000001    1    3    3    0    0 -0.25991940303E+01  0.28449624107E+02  0.30632654201E+02  0.41898644666E+02  0.10000000000E+01 0.  1.
    1000022    2    1    0    0    0 -0.10361337339E+02  0.39934607611E+02  0.45870682298E+02  0.62499996950E+02  0.99999963881E+01 0.  0.
    3000022    2    3    3    0    0 -0.77621433087E+01  0.11484983504E+02  0.15238028097E+02  0.20601352284E+02  0.25000163238E+00 0.  0.
    1000022    2    1    0    0    0  0.10361337339E+02 -0.39934607611E+02 -0.45870682298E+02  0.62500003050E+02  0.10000034516E+02 0.  0.
    3000022    2    5    5    0    0  0.17578271123E+00 -0.41923436939E+01 -0.99580464104E+01  0.10808878383E+02  0.25003674872E+00 0.  0.
        -13    1    4    4    0    0 -0.49877833073E+01  0.74802230068E+01  0.98696023938E+01  0.13351097145E+02  0.10500000000E+00 0. -1.
         13    1    4    4    0    0 -0.27743600014E+01  0.40047604969E+01  0.53684257035E+01  0.72502551396E+01  0.10500000000E+00 0.  1.
    3000001    1    5    5    0    0  0.10185554628E+02 -0.35742263917E+02 -0.35912635888E+02  0.51691124667E+02  0.10000000000E+01 0. -1.
        -13    1    6    6    0    0  0.27288421906E-01 -0.20888869603E+01 -0.48755209177E+01  0.53052730948E+01  0.10500000000E+00 0. -1.
         13    1    6    6    0    0  0.14849428932E+00 -0.21034567336E+01 -0.50825254927E+01  0.55036052881E+01  0.10500000000E+00 0.  1.
</event>
<event>
11    0  0.3483054E-009  0.9118800E+02  0.7816531E-02  0.1126479E+00
         25   -1    0    0    0    0  0.00000000000E+00  0.00000000000E+00  0.99999998245E-14  0.12500000000E+03  0.12500000000E+03 0.  0.
    3000001    1    3    3    0    0  0.87376452450E+01 -0.87486921542E+01 -0.20252462689E+02  0.23749701131E+02  0.10000000000E+01 0. -1.
    1000022    2    1    0    0    0  0.22838678430E+02 -0.10786615948E+02 -0.56287592161E+02  0.62499995692E+02  0.10000005710E+02 0.  0.
    3000022    2    3    3    0    0  0.14101033185E+02 -0.20379237935E+01 -0.36035129472E+02  0.38750294561E+02  0.25000448401E+00 0.  0.
    1000022    2    1    0    0    0 -0.22838678430E+02  0.10786615948E+02  0.56287592161E+02  0.62500004308E+02  0.10000059557E+02 0.  0.
    3000022    2    5    5    0    0 -0.58457642676E+01  0.64018829837E+01  0.26824375171E+02  0.28191606352E+02  0.24999954817E+00 0.  0.
        -13    1    4    4    0    0  0.10537655769E+02 -0.15436019752E+01 -0.26882463487E+02  0.28915441623E+02  0.10500000000E+00 0. -1.
         13    1    4    4    0    0  0.35633774160E+01 -0.49432181831E+00 -0.91526659853E+01  0.98348529378E+01  0.10500000000E+00 0.  1.
    3000001    1    5    5    0    0 -0.16992914162E+02  0.43847329640E+01  0.29463216990E+02  0.34308397956E+02  0.10000000000E+01 0.  1.
        -13    1    6    6    0    0 -0.23618648593E+01  0.26240080267E+01  0.11115722938E+02  0.11663367660E+02  0.10500000000E+00 0. -1.
         13    1    6    6    0    0 -0.34838994083E+01  0.37778749569E+01  0.15708652233E+02  0.16528238692E+02  0.10500000000E+00 0.  1.
</event>
<event>
11    0  0.3483054E-009  0.9118800E+02  0.7816531E-02  0.1126479E+00
         25   -1    0    0    0    0  0.00000000000E+00  0.00000000000E+00  0.99999998245E-14  0.12500000000E+03  0.12500000000E+03 0.  0.
    3000001    1    3    3    0    0 -0.13220275642E+02 -0.16604372452E+02  0.40729729682E+02  0.45939000343E+02  0.10000000000E+01 0. -1.
    1000022    2    1    0    0    0 -0.15508733653E+02 -0.17446140712E+02  0.57108333767E+02  0.62500002270E+02  0.99999926422E+01 0.  0.
    3000022    2    3    3    0    0 -0.22884580105E+01 -0.84176826006E+00  0.16378604085E+02  0.16561001927E+02  0.24999833714E+00 0.  0.
    1000022    2    1    0    0    0  0.15508733653E+02  0.17446140712E+02 -0.57108333767E+02  0.62499997730E+02  0.99999642633E+01 0.  0.
    3000022    2    5    5    0    0  0.80189420807E+01  0.37965273704E+01 -0.13238787064E+02  0.15938790162E+02  0.24999348873E+00 0.  0.
        -13    1    4    4    0    0 -0.13671641668E+01 -0.55096053143E+00  0.95846692294E+01  0.96979175395E+01  0.10500000000E+00 0. -1.
         13    1    4    4    0    0 -0.92129384373E+00 -0.29080772863E+00  0.67939348560E+01  0.68630843875E+01  0.10500000000E+00 0.  1.
    3000001    1    5    5    0    0  0.74897915719E+01  0.13649613341E+02 -0.43869546704E+02  0.46561207567E+02  0.10000000000E+01 0. -1.
        -13    1    6    6    0    0  0.30901445521E+01  0.13997090117E+01 -0.51009922768E+01  0.61269344601E+01  0.10500000000E+00 0.  1.
         13    1    6    6    0    0  0.49287975286E+01  0.23968183587E+01 -0.81377947871E+01  0.98118557021E+01  0.10500000000E+00 0. -1.
</event>
<event>
11    0  0.3483054E-009  0.9118800E+02  0.7816531E-02  0.1126479E+00
         25   -1    0    0    0    0  0.00000000000E+00  0.00000000000E+00  0.99999998245E-14  0.12500000000E+03  0.12500000000E+03 0.  0.
    3000001    1    3    3    0    0  0.80832090288E+01 -0.27911786035E+02 -0.13851044509E+02  0.32206482296E+02  0.10000000000E+01 0. -1.
    1000022    2    1    0    0    0  0.70610178845E+01 -0.56621448515E+02 -0.23460681011E+02  0.62499999840E+02  0.10000001050E+02 0.  0.
    3000022    2    3    3    0    0 -0.10221911443E+01 -0.28709662480E+02 -0.96096365021E+01  0.30293517545E+02  0.24999411619E+00 0.  0.
    1000022    2    1    0    0    0 -0.70610178845E+01  0.56621448515E+02  0.23460681011E+02  0.62500000160E+02  0.10000003049E+02 0.  0.
    3000022    2    5    5    0    0 -0.46350702956E+01  0.27757072176E+02  0.63754189991E+01  0.28855630332E+02  0.25000394443E+00 0.  0.
        -13    1    4    4    0    0 -0.74498566391E+00 -0.19574624568E+02 -0.65365279219E+01  0.20650863248E+02  0.10500000000E+00 0. -1.
         13    1    4    4    0    0 -0.27720548038E+00 -0.91350379125E+01 -0.30731085801E+01  0.96426542967E+01  0.10500000000E+00 0.  1.
    3000001    1    5    5    0    0 -0.24259475889E+01  0.28864376339E+02  0.17085262012E+02  0.33644369828E+02  0.10000000000E+01 0. -1.
        -13    1    6    6    0    0 -0.26188233131E+01  0.15960195396E+02  0.36163742940E+01  0.16573329800E+02  0.10500000000E+00 0. -1.
         13    1    6    6    0    0 -0.20162469826E+01  0.11796876781E+02  0.27590447051E+01  0.12282300532E+02  0.10500000000E+00 0.  1.
</event>
<event>
11    0  0.3483054E-009  0.9118800E+02  0.7816531E-02  0.1126479E+00
         25   -1    0    0    0    0  0.00000000000E+00  0.00000000000E+00  0.99999998245E-14  0.12500000000E+03  0.12500000000E+03 0.  0.
    3000001    1    3    3    0    0 -0.18846805532E+02  0.12219614219E+02  0.56414871844E+02  0.60730213367E+02  0.10000000000E+01 0. -1.
    1000022    2    1    0    0    0 -0.20466288087E+02  0.12778969363E+02  0.56780970394E+02  0.62499996412E+02  0.99999973272E+01 0.  0.
    3000022    2    3    3    0    0 -0.16194825553E+01  0.55935514431E+00  0.36609854963E+00  0.17697830446E+01  0.25000390498E+00 0.  0.
    1000022    2    1    0    0    0  0.20466288087E+02 -0.12778969363E+02 -0.56780970394E+02  0.62500003588E+02  0.10000042180E+02 0.  0.
    3000022    2    5    5    0    0  0.12196247568E+02 -0.75575979483E+01 -0.21306705230E+02  0.25688595321E+02  0.25000070808E+00 0.  0.
        -13    1    4    4    0    0 -0.41672240641E+00  0.17061319461E+00  0.12095263063E+00  0.47793405930E+00  0.10500000000E+00 0. -1.
         13    1    4    4    0    0 -0.12027601489E+01  0.38874194971E+00  0.24514591899E+00  0.12918489853E+01  0.10500000000E+00 0.  1.
    3000001    1    5    5    0    0  0.82700405187E+01 -0.52213714146E+01 -0.35474265164E+02  0.36811408267E+02  0.10000000000E+01 0. -1.
        -13    1    6    6    0    0  0.72510673629E+01 -0.44181859051E+01 -0.12611688682E+02  0.15204080406E+02  0.10500000000E+00 0. -1.
         13    1    6    6    0    0  0.49451802053E+01 -0.31394120433E+01 -0.86950165477E+01  0.10484514915E+02  0.10500000000E+00 0.  1.
</event>
<event>
11    0  0.3483054E-009  0.9118800E+02  0.7816531E-02  0.1126479E+00
         25   -1    0    0    0    0  0.00000000000E+00  0.00000000000E+00  0.99999998245E-14  0.12500000000E+03  0.12500000000E+03 0.  0.
    3000001    1    3    3    0    0  0.17307735651E+02  0.21643032425E+02 -0.41032464970E+02  0.49524153172E+02  0.10000000000E+01 0.  1.
    1000022    2    1    0    0    0  0.17399355817E+02  0.25481806334E+02 -0.53424620938E+02  0.62500000981E+02  0.99999981674E+01 0.  0.
    3000022    2    3    3    0    0  0.91620166921E-01  0.38387739085E+01 -0.12392155968E+02  0.12975847809E+02  0.25003488460E+00 0.  0.
    1000022    2    1    0    0    0 -0.17399355817E+02 -0.25481806334E+02  0.53424620938E+02  0.62499999019E+02  0.99999859059E+01 0.  0.
    3000022    2    5    5    0    0 -0.87706446452E+01 -0.62488239410E+01  0.23830866154E+02  0.26152336227E+02  0.25000070728E+00 0.  0.
        -13    1    4    4    0    0  0.11052140919E+00  0.18071988356E+01 -0.58279868500E+01  0.61036577834E+01  0.10500000000E+00 0. -1.
         13    1    4    4    0    0 -0.18901242273E-01  0.20315750729E+01 -0.65641691179E+01  0.68721900252E+01  0.10500000000E+00 0.  1.
    3000001    1    5    5    0    0 -0.86287111722E+01 -0.19232982393E+02  0.29593754784E+02  0.36347662792E+02  0.10000000000E+01 0. -1.
        -13    1    6    6    0    0 -0.65158674792E+01 -0.46625561655E+01  0.17787153888E+02  0.19508711578E+02  0.10500000000E+00 0. -1.
         13    1    6    6    0    0 -0.22547771660E+01 -0.15862677754E+01  0.60437122664E+01  0.66436246495E+01  0.10500000000E+00 0.  1.
</event>
<event>
11    0  0.3483054E-009  0.9118800E+02  0.7816531E-02  0.1126479E+00
         25   -1    0    0    0    0  0.00000000000E+00  0.00000000000E+00  0.99999998245E-14  0.12500000000E+03  0.12500000000E+03 0.  0.
    3000001    1    3    3    0    0  0.35224157770E+02  0.26319792012E+02 -0.34064014347E+02  0.55631194626E+02  0.10000000000E+01 0. -1.
    1000022    2    1    0    0    0  0.40649204711E+02  0.30404930310E+02 -0.35063261618E+02  0.62499999836E+02  0.10000001671E+02 0.  0.
    3000022    2    3    3    0    0  0.54250469416E+01  0.40851382978E+01 -0.99924727093E+00  0.68688052095E+01  0.25000133503E+00 0.  0.
    1000022    2    1    0    0    0 -0.40649204711E+02 -0.30404930310E+02  0.35063261618E+02  0.62500000164E+02  0.10000003724E+02 0.  0.
    3000022    2    5    5    0    0 -0.12779036032E+02 -0.59869971575E+01  0.13934274946E+02  0.19833668714E+02  0.24999905788E+00 0.  0.
        -13    1    4    4    0    0  0.17465213472E+01  0.13753985039E+01 -0.34802428644E+00  0.22525993352E+01  0.10500000000E+00 0. -1.
         13    1    4    4    0    0  0.36785255944E+01  0.27097397938E+01 -0.65122298450E+00  0.46162058743E+01  0.10500000000E+00 0.  1.
    3000001    1    5    5    0    0 -0.27870168679E+02 -0.24417933152E+02  0.21128986672E+02  0.42666331450E+02  0.10000000000E+01 0.  1.
        -13    1    6    6    0    0 -0.39330313089E+01 -0.18768436237E+01  0.42520041726E+01  0.60894861646E+01  0.10500000000E+00 0.  1.
         13    1    6    6    0    0 -0.88460047234E+01 -0.41101535337E+01  0.96822707731E+01  0.13744182550E+02  0.10500000000E+00 0. -1.
</event>
<event>
11    0  0.3483054E-009  0.9118800E+02  0.7816531E-02  0.1126479E+00
         25   -1    0    0    0    0  0.00000000000E+00  0.00000000000E+00  0.99999998245E-14  0.12500000000E+03  0.12500000000E+03 0.  0.
    3000001    1    3    3    0    0 -0.21154094951E+01  0.33853671997E+02  0.16287726931E+02  0.37640883538E+02  0.10000000000E+01 0.  1.
    1000022    2    1    0    0    0 -0.10747032425E+02  0.53331053923E+02  0.29095531549E+02  0.62500000167E+02  0.10000002309E+02 0.  0.
    3000022    2    3    3    0    0 -0.86316229303E+01  0.19477381927E+02  0.12807804619E+02  0.24859116628E+02  0.24999852882E+00 0.  0.
    1000022    2    1    0    0    0  0.10747032425E+02 -0.53331053923E+02 -0.29095531549E+02  0.62499999833E+02  0.10000000226E+02 0.  0.
    3000022    2    5    5    0    0  0.52698752152E+01 -0.37124884264E+02 -0.24381571375E+02  0.44727532175E+02  0.24999076125E+00 0.  0.
        -13    1    4    4    0    0 -0.53312113188E+01  0.12077268425E+02  0.80037758386E+01  0.15438707181E+02  0.10500000000E+00 0. -1.
         13    1    4    4    0    0 -0.33004116115E+01  0.74001135014E+01  0.48040287799E+01  0.94204094474E+01  0.10500000000E+00 0.  1.
    3000001    1    5    5    0    0  0.54771572103E+01 -0.16206169659E+02 -0.47139601740E+01  0.17772467658E+02  0.10000000000E+01 0. -1.
        -13    1    6    6    0    0  0.27274140461E+01 -0.19684851417E+02 -0.12906595020E+02  0.23696484606E+02  0.10500000000E+00 0.  1.
         13    1    6    6    0    0  0.25424611691E+01 -0.17440032847E+02 -0.11474976355E+02  0.21031047569E+02  0.10500000000E+00 0. -1.
</event>
<event>
11    0  0.3483054E-009  0.9118800E+02  0.7816531E-02  0.1126479E+00
         25   -1    0    0    0    0  0.00000000000E+00  0.00000000000E+00  0.99999998245E-14  0.12500000000E+03  0.12500000000E+03 0.  0.
    3000001    1    3    3    0    0 -0.11623146659E+02  0.26303364024E+02 -0.63951139135E+01  0.29476464836E+02  0.10000000000E+01 0. -1.
    1000022    2    1    0    0    0 -0.15651597172E+02  0.56623236654E+02 -0.18843740027E+02  0.62500000044E+02  0.10000002204E+02 0.  0.
    3000022    2    3    3    0    0 -0.40284505132E+01  0.30319872629E+02 -0.12448626114E+02  0.33023535208E+02  0.24999142603E+00 0.  0.
    1000022    2    1    0    0    0  0.15651597172E+02 -0.56623236654E+02  0.18843740027E+02  0.62499999956E+02  0.10000001658E+02 0.  0.
    3000022    2    5    5    0    0  0.20969953625E+01 -0.25084690707E+02  0.95300281174E+01  0.26916965513E+02  0.24999819583E+00 0.  0.
        -13    1    4    4    0    0 -0.18931914571E+01  0.13972236922E+02 -0.56778378284E+01  0.15200540974E+02  0.10500000000E+00 0.  1.
         13    1    4    4    0    0 -0.21352590561E+01  0.16347635707E+02 -0.67707882853E+01  0.17822994234E+02  0.10500000000E+00 0. -1.
    3000001    1    5    5    0    0  0.13554601810E+02 -0.31538545947E+02  0.93137119098E+01  0.35583034443E+02  0.10000000000E+01 0.  1.
        -13    1    6    6    0    0  0.13720704388E+01 -0.16460309412E+02  0.61940840960E+01  0.17640920214E+02  0.10500000000E+00 0.  1.
         13    1    6    6    0    0  0.72492492363E+00 -0.86243812953E+01  0.33359440215E+01  0.92760452988E+01  0.10500000000E+00 0. -1.
</event>
<event>
11    0  0.3483054E-009  0.9118800E+02  0.7816531E-02  0.1126479E+00
         25   -1    0    0    0    0  0.00000000000E+00  0.00000000000E+00  0.99999998245E-14  0.12500000000E+03  0.12500000000E+03 0.  0.
    3000001    1    3    3    0    0 -0.15709628561E+02  0.29544355788E+01  0.45730363950E+02  0.48453971004E+02  0.10000000000E+01 0. -1.
    1000022    2    1    0    0    0 -0.24657224689E+02  0.52464840627E+01  0.56309374254E+02  0.62499999936E+02  0.10000001936E+02 0.  0.
    3000022    2    3    3    0    0 -0.89475961276E+01  0.22920484839E+01  0.10579010304E+02  0.14046028932E+02  0.25001401785E+00 0.  0.
    1000022    2    1    0    0    0  0.24657224689E+02 -0.52464840627E+01 -0.56309374254E+02  0.62500000064E+02  0.10000002737E+02 0.  0.
    3000022    2    5    5    0    0  0.99429790031E+01 -0.47797589275E+01 -0.14908197103E+02  0.18547931535E+02  0.24999303217E+00 0.  0.
        -13    1    4    4    0    0 -0.39405202805E+01  0.10670390629E+01  0.47301127131E+01  0.62491010331E+01  0.10500000000E+00 0. -1.
         13    1    4    4    0    0 -0.50070758471E+01  0.12250094210E+01  0.58488975914E+01  0.77969278985E+01  0.10500000000E+00 0.  1.
    3000001    1    5    5    0    0  0.14714245686E+02 -0.46672513518E+00 -0.41401177151E+02  0.43952068529E+02  0.10000000000E+01 0.  1.
        -13    1    6    6    0    0  0.48107081401E+01 -0.22522419977E+01 -0.71101968819E+01  0.88758904638E+01  0.10500000000E+00 0.  1.
         13    1    6    6    0    0  0.51322708629E+01 -0.25275169298E+01 -0.77980002210E+01  0.96720410715E+01  0.10500000000E+00 0. -1.
</event>
<event>
11    0  0.3483054E-009  0.9118800E+02  0.7816531E-02  0.1126479E+00
         25   -1    0    0    0    0  0.00000000000E+00  0.00000000000E+00  0.99999998245E-14  0.12500000000E+03  0.12500000000E+03 0.  0.
    3000001    1    3    3    0    0  0.72607112741E+01 -0.80323090813E+01  0.85370909606E+01  0.13824537586E+02  0.10000000000E+01 0. -1.
    1000022    2    1    0    0    0  0.16788917475E+02 -0.35682514248E+02  0.47446184951E+02  0.62500000130E+02  0.99999988413E+01 0.  0.
    3000022    2    3    3    0    0  0.95282062008E+01 -0.27650205166E+02  0.38909093991E+02  0.48675462545E+02  0.24999922747E+00 0.  0.
    1000022    2    1    0    0    0 -0.16788917475E+02  0.35682514248E+02 -0.47446184951E+02  0.62499999870E+02  0.99999972154E+01 0.  0.
    3000022    2    5    5    0    0 -0.16994106477E+02  0.33541341106E+02 -0.41002236660E+02  0.55633327129E+02  0.24991637460E+00 0.  0.
        -13    1    4    4    0    0  0.49996165964E+01 -0.14600352703E+02  0.20632330393E+02  0.25765685467E+02  0.10500000000E+00 0.  1.
         13    1    4    4    0    0  0.45285896044E+01 -0.13049852463E+02  0.18276763598E+02  0.22909777077E+02  0.10500000000E+00 0. -1.
    3000001    1    5    5    0    0  0.20518900227E+00  0.21411731419E+01 -0.64439482915E+01  0.68666727412E+01  0.10000000000E+01 0. -1.
        -13    1    6    6    0    0 -0.54785547418E+01  0.10926664495E+02 -0.13338667578E+02  0.18092474590E+02  0.10500000000E+00 0.  1.
         13    1    6    6    0    0 -0.11515551735E+02  0.22614676611E+02 -0.27663569082E+02  0.37540852539E+02  0.10500000000E+00 0. -1.
</event>
<event>
11    0  0.3483054E-009  0.9118800E+02  0.7816531E-02  0.1126479E+00
         25   -1    0    0    0    0  0.00000000000E+00  0.00000000000E+00  0.99999998245E-14  0.12500000000E+03  0.12500000000E+03 0.  0.
    3000001    1    3    3    0    0 -0.13845352187E+02  0.20151146382E+02  0.15379263050E+02  0.28901283875E+02  0.10000000000E+01 0. -1.
    1000022    2    1    0    0    0 -0.21007639956E+02  0.48972173107E+02  0.31091081208E+02  0.62499999387E+02  0.99999958691E+01 0.  0.
    3000022    2    3    3    0    0 -0.71622877684E+01  0.28821026725E+02  0.15711818158E+02  0.33598715512E+02  0.25001325966E+00 0.  0.
    1000022    2    1    0    0    0  0.21007639956E+02 -0.48972173107E+02 -0.31091081208E+02  0.62500000613E+02  0.10000003532E+02 0.  0.
    3000022    2    5    5    0    0  0.10974989588E+02 -0.36826132113E+02 -0.21650267453E+02  0.44106813027E+02  0.24994345149E+00 0.  0.
        -13    1    4    4    0    0 -0.27937593568E+01  0.11463101111E+02  0.62046926049E+01  0.13331054488E+02  0.10500000000E+00 0. -1.
         13    1    4    4    0    0 -0.43685284115E+01  0.17357925614E+02  0.95071255534E+01  0.20267661024E+02  0.10500000000E+00 0.  1.
    3000001    1    5    5    0    0  0.10032650368E+02 -0.12146040994E+02 -0.94408137552E+01  0.18393187586E+02  0.10000000000E+01 0.  1.
        -13    1    6    6    0    0  0.81565903286E+01 -0.27340553095E+02 -0.16041267326E+02  0.32731774956E+02  0.10500000000E+00 0.  1.
         13    1    6    6    0    0  0.28183992592E+01 -0.94855790183E+01 -0.56090001266E+01  0.11375038071E+02  0.10500000000E+00 0. -1.
</event>
<event>
11    0  0.3483054E-009  0.9118800E+02  0.7816531E-02  0.1126479E+00
         25   -1    0    0    0    0  0.00000000000E+00  0.00000000000E+00  0.99999998245E-14  0.12500000000E+03  0.12500000000E+03 0.  0.
    3000001    1    3    3    0    0  0.33428916774E+01 -0.10726158477E+01 -0.37802273242E+02  0.37978115959E+02  0.10000000000E+01 0.  1.
    1000022    2    1    0    0    0  0.81179297550E+01 -0.90837551898E+01 -0.60480036154E+02  0.62499999505E+02  0.99999886513E+01 0.  0.
    3000022    2    3    3    0    0  0.47750380776E+01 -0.80111393420E+01 -0.22677762912E+02  0.24521883546E+02  0.24999946959E+00 0.  0.
    1000022    2    1    0    0    0 -0.81179297550E+01  0.90837551898E+01  0.60480036154E+02  0.62500000495E+02  0.99999948448E+01 0.  0.
    3000022    2    5    5    0    0 -0.20009952000E+01  0.22560093417E+01  0.39089457132E+02  0.39206398958E+02  0.25000079320E+00 0.  0.
        -13    1    4    4    0    0  0.19437408352E+01 -0.31580082920E+01 -0.89281463147E+01  0.96681935450E+01  0.10500000000E+00 0.  1.
         13    1    4    4    0    0  0.28312972424E+01 -0.48531310500E+01 -0.13749616597E+02  0.14853690001E+02  0.10500000000E+00 0. -1.
    3000001    1    5    5    0    0 -0.61169345551E+01  0.68277458481E+01  0.21390579022E+02  0.23293601538E+02  0.10000000000E+01 0.  1.
        -13    1    6    6    0    0 -0.12635595653E+01  0.13694857888E+01  0.23482829492E+02  0.23556875431E+02  0.10500000000E+00 0. -1.
         13    1    6    6    0    0 -0.73743563469E+00  0.88652355288E+00  0.15606627640E+02  0.15649523527E+02  0.10500000000E+00 0.  1.
</event>
<event>
11    0  0.3483054E-009  0.9118800E+02  0.7816531E-02  0.1126479E+00
         25   -1    0    0    0    0  0.00000000000E+00  0.00000000000E+00  0.99999998245E-14  0.12500000000E+03  0.12500000000E+03 0.  0.
    3000001    1    3    3    0    0 -0.16769819415E+02  0.33569930191E+02 -0.18975450516E+02  0.42062272626E+02  0.10000000000E+01 0.  1.
    1000022    2    1    0    0    0 -0.18237148436E+02  0.51640245820E+02 -0.28406718794E+02  0.62499999566E+02  0.99999850843E+01 0.  0.
    3000022    2    3    3    0    0 -0.14673290210E+01  0.18070315629E+02 -0.94312682784E+01  0.20437726940E+02  0.24999944997E+00 0.  0.
    1000022    2    1    0    0    0  0.18237148436E+02 -0.51640245820E+02  0.28406718794E+02  0.62500000434E+02  0.99999905108E+01 0.  0.
    3000022    2    5    5    0    0  0.17260271629E+02 -0.43033165300E+02  0.20377610773E+02  0.50646616994E+02  0.24999931717E+00 0.  0.
        -13    1    4    4    0    0 -0.72763549855E+00  0.94464636842E+01 -0.49905850437E+01  0.10708972576E+02  0.10500000000E+00 0. -1.
         13    1    4    4    0    0 -0.73969352245E+00  0.86238519450E+01 -0.44406832347E+01  0.97287543636E+01  0.10500000000E+00 0.  1.
    3000001    1    5    5    0    0  0.97687680719E+00 -0.86070805196E+01  0.80291080209E+01  0.11853383440E+02  0.10000000000E+01 0. -1.
        -13    1    6    6    0    0  0.93752615005E+01 -0.23546836803E+02  0.11158983920E+02  0.27692652433E+02  0.10500000000E+00 0. -1.
         13    1    6    6    0    0  0.78850101284E+01 -0.19486328497E+02  0.92186268527E+01  0.22953964561E+02  0.10500000000E+00 0.  1.
</event>
<event>
11    0  0.3483054E-009  0.9118800E+02  0.7816531E-02  0.1126479E+00
         25   -1    0    0    0    0  0.00000000000E+00  0.00000000000E+00  0.99999998245E-14  0.12500000000E+03  0.12500000000E+03 0.  0.
    3000001    1    3    3    0    0  0.31730701575E+01 -0.44649319737E+00  0.68140322982E+00  0.34252066742E+01  0.10000000000E+01 0. -1.
    1000022    2    1    0    0    0  0.49086269837E+02  0.24919918530E+02  0.27852931837E+02  0.62500000082E+02  0.99999986146E+01 0.  0.
    3000022    2    3    3    0    0  0.45913199679E+02  0.25366411727E+02  0.27171528608E+02  0.59074793408E+02  0.25000118989E+00 0.  0.
    1000022    2    1    0    0    0 -0.49086269837E+02 -0.24919918530E+02 -0.27852931837E+02  0.62499999918E+02  0.99999975900E+01 0.  0.
    3000022    2    5    5    0    0 -0.31195124911E+02 -0.14537511589E+02 -0.22468230501E+02  0.41101811932E+02  0.25000154556E+00 0.  0.
        -13    1    4    4    0    0  0.26096560870E+02  0.14446490764E+02  0.15519445806E+02  0.33624333566E+02  0.10500000000E+00 0. -1.
         13    1    4    4    0    0  0.19816638809E+02  0.10919920963E+02  0.11652082802E+02  0.25450459842E+02  0.10500000000E+00 0.  1.
    3000001    1    5    5    0    0 -0.17891144925E+02 -0.10382406941E+02 -0.53847013364E+01  0.21398187986E+02  0.10000000000E+01 0. -1.
        -13    1    6    6    0    0 -0.13196065557E+02 -0.60799875659E+01 -0.95037863931E+01  0.17361894361E+02  0.10500000000E+00 0. -1.
         13    1    6    6    0    0 -0.17999059354E+02 -0.84575240235E+01 -0.12964444108E+02  0.23739917571E+02  0.10500000000E+00 0.  1.
</event>
<event>
11    0  0.3483054E-009  0.9118800E+02  0.7816531E-02  0.1126479E+00
         25   -1    0    0    0    0  0.00000000000E+00  0.00000000000E+00  0.99999998245E-14  0.12500000000E+03  0.12500000000E+03 0.  0.
    3000001    1    3    3    0    0 -0.19848180784E+02 -0.28134126258E+02 -0.55881993381E+01  0.34895663234E+02  0.10000000000E+01 0.  1.
    1000022    2    1    0    0    0 -0.38188240617E+02 -0.48420280628E+02 -0.18397327535E+01  0.62499999030E+02  0.99999982297E+01 0.  0.
    3000022    2    3    3    0    0 -0.18340059833E+02 -0.20286154370E+02  0.37484665847E+01  0.27604335795E+02  0.24999830690E+00 0.  0.
    1000022    2    1    0    0    0  0.38188240617E+02  0.48420280628E+02  0.18397327535E+01  0.62500000970E+02  0.10000010356E+02 0.  0.
    3000022    2    5    5    0    0  0.28242361285E+01  0.90826957690E+01 -0.63425536325E+00  0.95360602820E+01  0.24998738576E+00 0.  0.
        -13    1    4    4    0    0 -0.51011326978E+01 -0.56023954608E+01  0.10105411753E+01  0.76446457188E+01  0.10500000000E+00 0.  1.
         13    1    4    4    0    0 -0.13238927136E+02 -0.14683758909E+02  0.27379254094E+01  0.19959690077E+02  0.10500000000E+00 0. -1.
    3000001    1    5    5    0    0  0.35364004489E+02  0.39337584859E+02  0.24739881167E+01  0.52963940688E+02  0.10000000000E+01 0.  1.
        -13    1    6    6    0    0  0.10541171862E+01  0.32117212305E+01 -0.24759460292E+00  0.33909651122E+01  0.10500000000E+00 0. -1.
         13    1    6    6    0    0  0.17701189424E+01  0.58709745385E+01 -0.38666076033E+00  0.61450951698E+01  0.10500000000E+00 0.  1.
</event>
<event>
11    0  0.3483054E-009  0.9118800E+02  0.7816531E-02  0.1126479E+00
         25   -1    0    0    0    0  0.00000000000E+00  0.00000000000E+00  0.99999998245E-14  0.12500000000E+03  0.12500000000E+03 0.  0.
    3000001    1    3    3    0    0  0.12461873815E+02 -0.22893478367E+02 -0.12792842474E+02  0.29052822054E+02  0.10000000000E+01 0.  1.
    1000022    2    1    0    0    0  0.22133440521E+02 -0.54221590779E+02 -0.19400513998E+02  0.62499999059E+02  0.99999921590E+01 0.  0.
    3000022    2    3    3    0    0  0.96715667054E+01 -0.31328112411E+02 -0.66076715243E+01  0.33447177005E+02  0.24999371627E+00 0.  0.
    1000022    2    1    0    0    0 -0.22133440521E+02  0.54221590779E+02  0.19400513998E+02  0.62500000941E+02  0.10000003917E+02 0.  0.
    3000022    2    5    5    0    0 -0.20710175409E+02  0.52846204103E+02  0.20037199811E+02  0.60192894330E+02  0.24999609751E+00 0.  0.
        -13    1    4    4    0    0  0.30275224974E+01 -0.99772195775E+01 -0.21019524002E+01  0.10636730318E+02  0.10500000000E+00 0.  1.
         13    1    4    4    0    0  0.66440442080E+01 -0.21350892834E+02 -0.45057191241E+01  0.22810446687E+02  0.10500000000E+00 0. -1.
    3000001    1    5    5    0    0 -0.14232651119E+01  0.13753866761E+01 -0.63668581307E+00  0.23071066105E+01  0.10000000000E+01 0.  1.
        -13    1    6    6    0    0 -0.10530949442E+02  0.26788336253E+02  0.10225520606E+02  0.30546491649E+02  0.10500000000E+00 0.  1.
         13    1    6    6    0    0 -0.10179225966E+02  0.26057867849E+02  0.98116792056E+01  0.29646402682E+02  0.10500000000E+00 0. -1.
</event>
<event>
11    0  0.3483054E-009  0.9118800E+02  0.7816531E-02  0.1126479E+00
         25   -1    0    0    0    0  0.00000000000E+00  0.00000000000E+00  0.99999998245E-14  0.12500000000E+03  0.12500000000E+03 0.  0.
    3000001    1    3    3    0    0 -0.72588587463E+01  0.15678866316E+02  0.15677190757E+02  0.23351492228E+02  0.10000000000E+01 0.  1.
    1000022    2    1    0    0    0 -0.19729829545E+02  0.31487519252E+02  0.49249571151E+02  0.62500002378E+02  0.99999998108E+01 0.  0.
    3000022    2    3    3    0    0 -0.12470970799E+02  0.15808652936E+02  0.33572380393E+02  0.39148510150E+02  0.25000270044E+00 0.  0.
    1000022    2    1    0    0    0  0.19729829545E+02 -0.31487519252E+02 -0.49249571151E+02  0.62499997622E+02  0.99999700836E+01 0.  0.
    3000022    2    5    5    0    0  0.61164286058E+01 -0.16580358879E+02 -0.28480289049E+02  0.33518776210E+02  0.24998965958E+00 0.  0.
        -13    1    4    4    0    0 -0.34199123681E+01  0.42820305005E+01  0.91060805095E+01  0.10628420064E+02  0.10500000000E+00 0.  1.
         13    1    4    4    0    0 -0.90510584306E+01  0.11526622436E+02  0.24466299884E+02  0.28520090086E+02  0.10500000000E+00 0. -1.
    3000001    1    5    5    0    0  0.13613400939E+02 -0.14907160373E+02 -0.20769282102E+02  0.28981221412E+02  0.10000000000E+01 0.  1.
        -13    1    6    6    0    0  0.33726575975E+01 -0.93203810254E+01 -0.16018482014E+02  0.18837386038E+02  0.10500000000E+00 0.  1.
         13    1    6    6    0    0  0.27437710083E+01 -0.72599778535E+01 -0.12461807035E+02  0.14681390171E+02  0.10500000000E+00 0. -1.
</event>
<event>
11    0  0.3483054E-009  0.9118800E+02  0.7816531E-02  0.1126479E+00
         25   -1    0    0    0    0  0.00000000000E+00  0.00000000000E+00  0.99999998245E-14  0.12500000000E+03  0.12500000000E+03 0.  0.
    3000001    1    3    3    0    0  0.20385256267E+02 -0.17512141437E+02 -0.37423546977E+02  0.46084223321E+02  0.10000000000E+01 0.  1.
    1000022    2    1    0    0    0  0.23406699231E+02 -0.27785191545E+02 -0.49863415039E+02  0.62499992979E+02  0.99999262456E+01 0.  0.
    3000022    2    3    3    0    0  0.30214429634E+01 -0.10273050107E+02 -0.12439868062E+02  0.16415769657E+02  0.24999989287E+00 0.  0.
    1000022    2    1    0    0    0 -0.23406699231E+02  0.27785191545E+02  0.49863415039E+02  0.62500007021E+02  0.10000014013E+02 0.  0.
    3000022    2    5    5    0    0 -0.12099328299E+02  0.71264756940E+01  0.16861942104E+02  0.21944657265E+02  0.24997969868E+00 0.  0.
        -13    1    4    4    0    0  0.14316746130E+01 -0.47640401576E+01 -0.56863420488E+01  0.75558772963E+01  0.10500000000E+00 0. -1.
         13    1    4    4    0    0  0.15897683504E+01 -0.55090099497E+01 -0.67535260136E+01  0.88598923611E+01  0.10500000000E+00 0.  1.
    3000001    1    5    5    0    0 -0.11307370931E+02  0.20658715851E+02  0.33001472935E+02  0.40555349756E+02  0.10000000000E+01 0.  1.
        -13    1    6    6    0    0 -0.71836816038E+01  0.41771002832E+01  0.99098037430E+01  0.12933239478E+02  0.10500000000E+00 0.  1.
         13    1    6    6    0    0 -0.49156466953E+01  0.29493754108E+01  0.69521383612E+01  0.90114177875E+01  0.10500000000E+00 0. -1.
</event>
<event>
11    0  0.3483054E-009  0.9118800E+02  0.7816531E-02  0.1126479E+00
         25   -1    0    0    0    0  0.00000000000E+00  0.00000000000E+00  0.99999998245E-14  0.12500000000E+03  0.12500000000E+03 0.  0.
    3000001    1    3    3    0    0 -0.40140178543E+02  0.35888966037E+02  0.29970184782E+02  0.61631678482E+02  0.10000000000E+01 0. -1.
    1000022    2    1    0    0    0 -0.40792118322E+02  0.35393593852E+02  0.29825266841E+02  0.62500001498E+02  0.10000012108E+02 0.  0.
    3000022    2    3    3    0    0 -0.65193977964E+00 -0.49537218492E+00 -0.14491794161E+00  0.86832301597E+00  0.25012911144E+00 0.  0.
    1000022    2    1    0    0    0  0.40792118322E+02 -0.35393593852E+02 -0.29825266841E+02  0.62499998502E+02  0.99999933804E+01 0.  0.
    3000022    2    5    5    0    0  0.39760190091E+02 -0.31991770847E+02 -0.29064790531E+02  0.58729640449E+02  0.25000123850E+00 0.  0.
        -13    1    4    4    0    0 -0.35259516423E+00 -0.26031434339E+00 -0.14522815957E+00  0.47350092455E+00  0.10500000000E+00 0. -1.
         13    1    4    4    0    0 -0.29934461541E+00 -0.23505784153E+00  0.31021796301E-03  0.39482209142E+00  0.10500000000E+00 0.  1.
    3000001    1    5    5    0    0  0.10319282319E+01 -0.34018230048E+01 -0.76047630943E+00  0.37703580532E+01  0.10000000000E+01 0. -1.
        -13    1    6    6    0    0  0.23685782409E+02 -0.19033845092E+02 -0.17375446614E+02  0.35003152963E+02  0.10500000000E+00 0.  1.
         13    1    6    6    0    0  0.16074407681E+02 -0.12957925756E+02 -0.11689343917E+02  0.23726487486E+02  0.10500000000E+00 0. -1.
</event>
<event>
11    0  0.3483054E-009  0.9118800E+02  0.7816531E-02  0.1126479E+00
         25   -1    0    0    0    0  0.00000000000E+00  0.00000000000E+00  0.99999998245E-14  0.12500000000E+03  0.12500000000E+03 0.  0.
    3000001    1    3    3    0    0 -0.29823848533E+01 -0.42646025806E+00  0.15809106391E+00  0.31782826415E+01  0.10000000000E+01 0. -1.
    1000022    2    1    0    0    0 -0.50528908424E+02  0.17353125499E+02  0.30853660783E+02  0.62499999343E+02  0.99999991575E+01 0.  0.
    3000022    2    3    3    0    0 -0.47546523570E+02  0.17779585757E+02  0.30695569719E+02  0.59321716702E+02  0.24999753640E+00 0.  0.
    1000022    2    1    0    0    0  0.50528908424E+02 -0.17353125499E+02 -0.30853660783E+02  0.62500000657E+02  0.10000007369E+02 0.  0.
    3000022    2    5    5    0    0  0.56227678353E+01 -0.94653059128E-02 -0.63119266994E+01  0.84568630423E+01  0.25001227211E+00 0.  0.
        -13    1    4    4    0    0 -0.30617359598E+02  0.11429731094E+02  0.19698282758E+02  0.38158810650E+02  0.10500000000E+00 0. -1.
         13    1    4    4    0    0 -0.16929163972E+02  0.63498546627E+01  0.10997286961E+02  0.21162906051E+02  0.10500000000E+00 0.  1.
    3000001    1    5    5    0    0  0.44906140588E+02 -0.17343660193E+02 -0.24541734083E+02  0.54043137615E+02  0.10000000000E+01 0. -1.
        -13    1    6    6    0    0  0.19566461206E+01 -0.51209319179E-01 -0.21542724548E+01  0.29125592260E+01  0.10500000000E+00 0.  1.
         13    1    6    6    0    0  0.36661217148E+01  0.41744013266E-01 -0.41576542446E+01  0.55443038163E+01  0.10500000000E+00 0. -1.
</event>
<event>
11    0  0.3483054E-009  0.9118800E+02  0.7816531E-02  0.1126479E+00
         25   -1    0    0    0    0  0.00000000000E+00  0.00000000000E+00  0.99999998245E-14  0.12500000000E+03  0.12500000000E+03 0.  0.
    3000001    1    3    3    0    0  0.63761787379E+01 -0.15869298493E+01 -0.34344261901E+02  0.34981456904E+02  0.10000000000E+01 0. -1.
    1000022    2    1    0    0    0  0.70679801042E+01 -0.10419475621E+02 -0.60396426225E+02  0.62500000304E+02  0.99999961148E+01 0.  0.
    3000022    2    3    3    0    0  0.69180136626E+00 -0.88325457713E+01 -0.26052164324E+02  0.27518543400E+02  0.25002186213E+00 0.  0.
    1000022    2    1    0    0    0 -0.70679801042E+01  0.10419475621E+02  0.60396426225E+02  0.62499999696E+02  0.99999923159E+01 0.  0.
    3000022    2    5    5    0    0  0.10552401192E+01  0.13659749608E+01  0.24958182325E+02  0.25019048378E+02  0.24999495475E+00 0.  0.
        -13    1    4    4    0    0  0.47777210680E+00 -0.58247048656E+01 -0.17338734429E+02  0.18297491346E+02  0.10500000000E+00 0. -1.
         13    1    4    4    0    0  0.21402925946E+00 -0.30078409057E+01 -0.87134298957E+01  0.92210520541E+01  0.10500000000E+00 0.  1.
    3000001    1    5    5    0    0 -0.81232202234E+01  0.90535006598E+01  0.35438243900E+02  0.37480951318E+02  0.10000000000E+01 0.  1.
        -13    1    6    6    0    0  0.79497352629E+00  0.97725606536E+00  0.17816280328E+02  0.17861071694E+02  0.10500000000E+00 0.  1.
         13    1    6    6    0    0  0.26026659289E+00  0.38871889544E+00  0.71419019966E+01  0.71579766839E+01  0.10500000000E+00 0. -1.
</event>
<event>
11    0  0.3483054E-009  0.9118800E+02  0.7816531E-02  0.1126479E+00
         25   -1    0    0    0    0  0.00000000000E+00  0.00000000000E+00  0.99999998245E-14  0.12500000000E+03  0.12500000000E+03 0.  0.
    3000001    1    3    3    0    0  0.17012478490E+02 -0.82253963381E+01  0.25951495915E+01  0.19100166771E+02  0.10000000000E+01 0.  1.
    1000022    2    1    0    0    0  0.58335549045E+02 -0.19648012842E+02 -0.41435965400E+01  0.62500000053E+02  0.99999961651E+01 0.  0.
    3000022    2    3    3    0    0  0.41323070555E+02 -0.11422616504E+02 -0.67387461314E+01  0.43399833282E+02  0.25000310214E+00 0.  0.
    1000022    2    1    0    0    0 -0.58335549045E+02  0.19648012842E+02  0.41435965400E+01  0.62499999947E+02  0.99999955069E+01 0.  0.
    3000022    2    5    5    0    0 -0.17126205762E+02  0.33961220202E+01 -0.26872389509E+01  0.17667040614E+02  0.25000459591E+00 0.  0.
        -13    1    4    4    0    0  0.15833673534E+02 -0.43435234459E+01 -0.25279424798E+01  0.16612433045E+02  0.10500000000E+00 0.  1.
         13    1    4    4    0    0  0.25489397021E+02 -0.70790930584E+01 -0.42108036517E+01  0.26787400237E+02  0.10500000000E+00 0. -1.
    3000001    1    5    5    0    0 -0.41209343282E+02  0.16251890822E+02  0.68308354909E+01  0.44832959333E+02  0.10000000000E+01 0.  1.
        -13    1    6    6    0    0 -0.50577093560E+01  0.10130069541E+01 -0.83797235002E+00  0.52268374452E+01  0.10500000000E+00 0.  1.
         13    1    6    6    0    0 -0.12068496406E+02  0.23831150660E+01 -0.18492666009E+01  0.12440203169E+02  0.10500000000E+00 0. -1.
</event>
<event>
11    0  0.3483054E-009  0.9118800E+02  0.7816531E-02  0.1126479E+00
         25   -1    0    0    0    0  0.00000000000E+00  0.00000000000E+00  0.99999998245E-14  0.12500000000E+03  0.12500000000E+03 0.  0.
    3000001    1    3    3    0    0  0.66236512218E+01 -0.63537792659E+01  0.58486150523E+01  0.10929298445E+02  0.10000000000E+01 0. -1.
    1000022    2    1    0    0    0  0.46876314121E+02 -0.37432505402E+02  0.14410743058E+02  0.62499993881E+02  0.99999216715E+01 0.  0.
    3000022    2    3    3    0    0  0.40252662899E+02 -0.31078726136E+02  0.85621280053E+01  0.51570695436E+02  0.25000617162E+00 0.  0.
    1000022    2    1    0    0    0 -0.46876314121E+02  0.37432505402E+02 -0.14410743058E+02  0.62500006119E+02  0.99999981629E+01 0.  0.
    3000022    2    5    5    0    0 -0.37133486521E+02  0.33778292693E+02 -0.10168277862E+02  0.51218407336E+02  0.24999390545E+00 0.  0.
        -13    1    4    4    0    0  0.25040668538E+02 -0.19267871385E+02  0.53511439849E+01  0.32045775314E+02  0.10500000000E+00 0.  1.
         13    1    4    4    0    0  0.15211994361E+02 -0.11810854751E+02  0.32109840204E+01  0.19524920122E+02  0.10500000000E+00 0. -1.
    3000001    1    5    5    0    0 -0.97428275999E+01  0.36542127084E+01 -0.42424651957E+01  0.11281598783E+02  0.10000000000E+01 0. -1.
        -13    1    6    6    0    0 -0.18111038256E+02  0.16556211835E+02 -0.50018961964E+01  0.25042920110E+02  0.10500000000E+00 0. -1.
         13    1    6    6    0    0 -0.19022448265E+02  0.17222080858E+02 -0.51663816655E+01  0.26175487227E+02  0.10500000000E+00 0.  1.
</event>
<event>
11    0  0.3483054E-009  0.9118800E+02  0.7816531E-02  0.1126479E+00
         25   -1    0    0    0    0  0.00000000000E+00  0.00000000000E+00  0.99999998245E-14  0.12500000000E+03  0.12500000000E+03 0.  0.
    3000001    1    3    3    0    0 -0.17729204574E+01 -0.80912238138E+01 -0.47275263885E+00  0.83567125600E+01  0.10000000000E+01 0. -1.
    1000022    2    1    0    0    0  0.93604999574E+01 -0.60703550228E+02  0.58060442867E+01  0.62500001449E+02  0.10000003054E+02 0.  0.
    3000022    2    3    3    0    0  0.11133420415E+02 -0.52612326414E+02  0.62787969255E+01  0.54143288889E+02  0.24999998605E+00 0.  0.
    1000022    2    1    0    0    0 -0.93604999574E+01  0.60703550228E+02 -0.58060442867E+01  0.62499998551E+02  0.99999849451E+01 0.  0.
    3000022    2    5    5    0    0 -0.50354389234E+00  0.22263749479E+02  0.16891650443E+01  0.22334813188E+02  0.25000854096E+00 0.  0.
        -13    1    4    4    0    0  0.71228012272E+01 -0.33881773619E+02  0.40075482141E+01  0.34853699209E+02  0.10500000000E+00 0.  1.
         13    1    4    4    0    0  0.40106191876E+01 -0.18730552796E+02  0.22712487114E+01  0.19289589680E+02  0.10500000000E+00 0. -1.
    3000001    1    5    5    0    0 -0.88569560651E+01  0.38439800749E+02 -0.74952093310E+01  0.40165185364E+02  0.10000000000E+01 0. -1.
        -13    1    6    6    0    0 -0.27726781434E+00  0.94767433797E+01  0.73644437659E+00  0.95099378466E+01  0.10500000000E+00 0.  1.
         13    1    6    6    0    0 -0.22627607800E+00  0.12787006099E+02  0.95272066774E+00  0.12824875341E+02  0.10500000000E+00 0. -1.
</event>
<event>
11    0  0.3483054E-009  0.9118800E+02  0.7816531E-02  0.1126479E+00
         25   -1    0    0    0    0  0.00000000000E+00  0.00000000000E+00  0.99999998245E-14  0.12500000000E+03  0.12500000000E+03 0.  0.
    3000001    1    3    3    0    0 -0.27607429144E+01  0.23580185382E+02  0.71512877010E+01  0.24815071225E+02  0.10000000000E+01 0.  1.
    1000022    2    1    0    0    0 -0.15930370461E+02  0.58786355153E+02  0.98304535686E+01  0.62500000715E+02  0.10000000842E+02 0.  0.
    3000022    2    3    3    0    0 -0.13169627547E+02  0.35206169770E+02  0.26791658677E+01  0.37684929490E+02  0.25000264551E+00 0.  0.
    1000022    2    1    0    0    0  0.15930370461E+02 -0.58786355153E+02 -0.98304535686E+01  0.62499999285E+02  0.99999919058E+01 0.  0.
    3000022    2    5    5    0    0  0.54509659961E+01 -0.78112538646E+01  0.35137048334E-02  0.95284429402E+01  0.24999058146E+00 0.  0.
        -13    1    4    4    0    0 -0.91835364294E+01  0.24675525686E+02  0.18638570438E+01  0.26395149124E+02  0.10500000000E+00 0. -1.
         13    1    4    4    0    0 -0.39860911172E+01  0.10530644085E+02  0.81530882383E+00  0.11289780366E+02  0.10500000000E+00 0.  1.
    3000001    1    5    5    0    0  0.10479404465E+02 -0.50975101288E+02 -0.98339672735E+01  0.52971556345E+02  0.10000000000E+01 0. -1.
        -13    1    6    6    0    0  0.14174534425E+01 -0.19979454524E+01  0.24437373800E-01  0.24520567851E+01  0.10500000000E+00 0. -1.
         13    1    6    6    0    0  0.40335125536E+01 -0.58133084122E+01 -0.20923668967E-01  0.70763861551E+01  0.10500000000E+00 0.  1.
</event>
<event>
11    0  0.3483054E-009  0.9118800E+02  0.7816531E-02  0.1126479E+00
         25   -1    0    0    0    0  0.00000000000E+00  0.00000000000E+00  0.99999998245E-14  0.12500000000E+03  0.12500000000E+03 0.  0.
    3000001    1    3    3    0    0  0.40827550798E+02 -0.64746397241E+01  0.18460060428E+02  0.45283371062E+02  0.10000000000E+01 0. -1.
    1000022    2    1    0    0    0  0.52848811426E+02 -0.11901371730E+02  0.29523039423E+02  0.62499994853E+02  0.99999990845E+01 0.  0.
    3000022    2    3    3    0    0  0.12021260627E+02 -0.54267320057E+01  0.11062978994E+02  0.17216623791E+02  0.25000636554E+00 0.  0.
    1000022    2    1    0    0    0 -0.52848811426E+02  0.11901371730E+02 -0.29523039423E+02  0.62500005147E+02  0.10000063421E+02 0.  0.
    3000022    2    5    5    0    0 -0.45942919427E+02  0.68602545932E+01 -0.24196956740E+02  0.52377191159E+02  0.24999937974E+00 0.  0.
        -13    1    4    4    0    0  0.58616025844E+01 -0.26686392641E+01  0.53178931806E+01  0.83529056776E+01  0.10500000000E+00 0.  1.
         13    1    4    4    0    0  0.61596580431E+01 -0.27580927416E+01  0.57450858138E+01  0.88637181130E+01  0.10500000000E+00 0. -1.
    3000001    1    5    5    0    0 -0.69058919990E+01  0.50411171366E+01 -0.53260826830E+01  0.10122813988E+02  0.10000000000E+01 0.  1.
        -13    1    6    6    0    0 -0.20190148379E+02  0.29547239087E+01 -0.10596435093E+02  0.22992780315E+02  0.10500000000E+00 0.  1.
         13    1    6    6    0    0 -0.25752771048E+02  0.39055306846E+01 -0.13600521647E+02  0.29384410844E+02  0.10500000000E+00 0. -1.
</event>
<event>
11    0  0.3483054E-009  0.9118800E+02  0.7816531E-02  0.1126479E+00
         25   -1    0    0    0    0  0.00000000000E+00  0.00000000000E+00  0.99999998245E-14  0.12500000000E+03  0.12500000000E+03 0.  0.
    3000001    1    3    3    0    0 -0.33825674695E+00 -0.14063758808E+00 -0.47525762235E+00  0.11662188327E+01  0.10000000000E+01 0. -1.
    1000022    2    1    0    0    0  0.93672058265E+00  0.26529876510E+02 -0.55691452754E+02  0.62499999045E+02  0.10000008880E+02 0.  0.
    3000022    2    3    3    0    0  0.12749773296E+01  0.26670514098E+02 -0.55216195132E+02  0.61333780212E+02  0.25000155935E+00 0.  0.
    1000022    2    1    0    0    0 -0.93672058265E+00 -0.26529876510E+02  0.55691452754E+02  0.62500000955E+02  0.10000020823E+02 0.  0.
    3000022    2    5    5    0    0 -0.50353656037E+01 -0.15362418326E+02  0.27777377060E+02  0.32140379167E+02  0.24998610805E+00 0.  0.
        -13    1    4    4    0    0  0.90181622654E+00  0.19465559816E+02 -0.40245634521E+02  0.44715136302E+02  0.10500000000E+00 0.  1.
         13    1    4    4    0    0  0.37316110307E+00  0.72049542822E+01 -0.14970560610E+02  0.16618643910E+02  0.10500000000E+00 0. -1.
    3000001    1    5    5    0    0  0.40986450211E+01 -0.11167458185E+02  0.27914075694E+02  0.30359621789E+02  0.10000000000E+01 0.  1.
        -13    1    6    6    0    0 -0.38790730618E+01 -0.11816738532E+02  0.21355797352E+02  0.24713632329E+02  0.10500000000E+00 0. -1.
         13    1    6    6    0    0 -0.11562925419E+01 -0.35456797935E+01  0.64215797085E+01  0.74267468378E+01  0.10500000000E+00 0.  1.
</event>
<event>
11    0  0.3483054E-009  0.9118800E+02  0.7816531E-02  0.1126479E+00
         25   -1    0    0    0    0  0.00000000000E+00  0.00000000000E+00  0.99999998245E-14  0.12500000000E+03  0.12500000000E+03 0.  0.
    3000001    1    3    3    0    0 -0.32261502859E+01 -0.28839936298E+01  0.71535988585E+00  0.44985780743E+01  0.10000000000E+01 0. -1.
    1000022    2    1    0    0    0 -0.34378497029E+02 -0.31515759219E+02  0.40387205697E+02  0.62499996650E+02  0.99999530106E+01 0.  0.
    3000022    2    3    3    0    0 -0.31152346743E+02 -0.28631765589E+02  0.39671845811E+02  0.58001418576E+02  0.24999693897E+00 0.  0.
    1000022    2    1    0    0    0  0.34378497029E+02  0.31515759219E+02 -0.40387205697E+02  0.62500003350E+02  0.99999948805E+01 0.  0.
    3000022    2    5    5    0    0  0.26683642352E+02  0.21917156538E+02 -0.24306451214E+02  0.42228480796E+02  0.24999960312E+00 0.  0.
        -13    1    4    4    0    0 -0.89953877882E+01 -0.82738099316E+01  0.11517724678E+02  0.16794104293E+02  0.10500000000E+00 0. -1.
         13    1    4    4    0    0 -0.22156958955E+02 -0.20357955657E+02  0.28154121133E+02  0.41207314283E+02  0.10500000000E+00 0.  1.
    3000001    1    5    5    0    0  0.76948546769E+01  0.95986026801E+01 -0.16080754483E+02  0.20271522554E+02  0.10000000000E+01 0. -1.
        -13    1    6    6    0    0  0.14647369734E+02  0.12014594558E+02 -0.13254985319E+02  0.23121452881E+02  0.10500000000E+00 0. -1.
         13    1    6    6    0    0  0.12036272618E+02  0.99025619800E+01 -0.11051465895E+02  0.19107027915E+02  0.10500000000E+00 0.  1.
</event>
<event>
11    0  0.3483054E-009  0.9118800E+02  0.7816531E-02  0.1126479E+00
         25   -1    0    0    0    0  0.00000000000E+00  0.00000000000E+00  0.99999998245E-14  0.12500000000E+03  0.12500000000E+03 0.  0.
    3000001    1    3    3    0    0 -0.15814879752E+00 -0.10705013155E+02 -0.61664712751E+01  0.12395470369E+02  0.10000000000E+01 0. -1.
    1000022    2    1    0    0    0 -0.16479387437E+02 -0.56142085307E+02 -0.19563891005E+02  0.62499998241E+02  0.99999997968E+01 0.  0.
    3000022    2    3    3    0    0 -0.16321238640E+02 -0.45437072153E+02 -0.13397419730E+02  0.50104527872E+02  0.25000266547E+00 0.  0.
    1000022    2    1    0    0    0  0.16479387437E+02  0.56142085307E+02  0.19563891005E+02  0.62500001759E+02  0.10000021780E+02 0.  0.
    3000022    2    5    5    0    0  0.28363688183E+01  0.36087837801E+01  0.38227568742E+01  0.59786515437E+01  0.24999143239E+00 0.  0.
        -13    1    4    4    0    0 -0.85994956529E+01 -0.24100981359E+02 -0.71423507751E+01  0.26567514516E+02  0.10500000000E+00 0. -1.
         13    1    4    4    0    0 -0.77217429869E+01 -0.21336090794E+02 -0.62550689550E+01  0.23537013357E+02  0.10500000000E+00 0.  1.
    3000001    1    5    5    0    0  0.13643018619E+02  0.52533301527E+02  0.15741134131E+02  0.56521350215E+02  0.10000000000E+01 0. -1.
        -13    1    6    6    0    0  0.79962749781E+00  0.10224338136E+01  0.11362884205E+01  0.17282799001E+01  0.10500000000E+00 0.  1.
         13    1    6    6    0    0  0.20367413205E+01  0.25863499665E+01  0.26864684537E+01  0.42503716436E+01  0.10500000000E+00 0. -1.
</event>
<event>
11    0  0.3483054E-009  0.9118800E+02  0.7816531E-02  0.1126479E+00
         25   -1    0    0    0    0  0.00000000000E+00  0.00000000000E+00  0.99999998245E-14  0.12500000000E+03  0.12500000000E+03 0.  0.
    3000001    1    3    3    0    0  0.84487716915E+01 -0.31182521297E+02  0.85601364094E+01  0.33436616349E+02  0.10000000000E+01 0.  1.
    1000022    2    1    0    0    0  0.24080917678E+02 -0.54288657146E+02  0.16706318747E+02  0.62500000329E+02  0.10000003208E+02 0.  0.
    3000022    2    3    3    0    0  0.15632145987E+02 -0.23106135849E+02  0.81461823376E+01  0.29063383980E+02  0.24999936068E+00 0.  0.
    1000022    2    1    0    0    0 -0.24080917678E+02  0.54288657146E+02 -0.16706318747E+02  0.62499999671E+02  0.99999990914E+01 0.  0.
    3000022    2    5    5    0    0 -0.62697801406E+01  0.19860769842E+02 -0.16128718541E+01  0.20890767718E+02  0.24999698565E+00 0.  0.
        -13    1    4    4    0    0  0.45033018454E+01 -0.66689382835E+01  0.23935453221E+01  0.83961032359E+01  0.10500000000E+00 0. -1.
         13    1    4    4    0    0  0.11128844141E+02 -0.16437197566E+02  0.57526370155E+01  0.20667280744E+02  0.10500000000E+00 0.  1.
    3000001    1    5    5    0    0 -0.17811137538E+02  0.34427887303E+02 -0.15093446893E+02  0.41609231952E+02  0.10000000000E+01 0.  1.
        -13    1    6    6    0    0 -0.25969546481E+01  0.81721654152E+01 -0.72627699011E+00  0.86062166068E+01  0.10500000000E+00 0. -1.
         13    1    6    6    0    0 -0.36728254924E+01  0.11688604427E+02 -0.88659486398E+00  0.12284551111E+02  0.10500000000E+00 0.  1.
</event>
<event>
11    0  0.3483054E-009  0.9118800E+02  0.7816531E-02  0.1126479E+00
         25   -1    0    0    0    0  0.00000000000E+00  0.00000000000E+00  0.99999998245E-14  0.12500000000E+03  0.12500000000E+03 0.  0.
    3000001    1    3    3    0    0 -0.28382683438E+02 -0.34371274254E+01  0.38196365061E+02  0.47721618455E+02  0.10000000000E+01 0.  1.
    1000022    2    1    0    0    0 -0.39856757248E+02 -0.67466476872E+00  0.47087511366E+02  0.62499999659E+02  0.99999979922E+01 0.  0.
    3000022    2    3    3    0    0 -0.11474073811E+02  0.27624626567E+01  0.88911463051E+01  0.14778381205E+02  0.24999732912E+00 0.  0.
    1000022    2    1    0    0    0  0.39856757248E+02  0.67466476872E+00 -0.47087511366E+02  0.62500000341E+02  0.10000002253E+02 0.  0.
    3000022    2    5    5    0    0  0.22335711880E+02  0.39858365862E+00 -0.33668116734E+02  0.40406032751E+02  0.25000825188E+00 0.  0.
        -13    1    4    4    0    0 -0.65697329685E+01  0.16464596433E+01  0.51234808399E+01  0.84931326112E+01  0.10500000000E+00 0.  1.
         13    1    4    4    0    0 -0.49043408423E+01  0.11160030134E+01  0.37676654651E+01  0.62852485933E+01  0.10500000000E+00 0. -1.
    3000001    1    5    5    0    0  0.17521045368E+02  0.27608111011E+00 -0.13419394632E+02  0.22093967590E+02  0.10000000000E+01 0. -1.
        -13    1    6    6    0    0  0.15463978448E+02  0.24095055938E+00 -0.23367151010E+02  0.28021910319E+02  0.10500000000E+00 0.  1.
         13    1    6    6    0    0  0.68717334328E+01  0.15763309924E+00 -0.10300965724E+02  0.12384122432E+02  0.10500000000E+00 0. -1.
</event>
<event>
11    0  0.3483054E-009  0.9118800E+02  0.7816531E-02  0.1126479E+00
         25   -1    0    0    0    0  0.00000000000E+00  0.00000000000E+00  0.99999998245E-14  0.12500000000E+03  0.12500000000E+03 0.  0.
    3000001    1    3    3    0    0 -0.13564103718E+02  0.15320668554E+02  0.18491951519E+02  0.27598189535E+02  0.10000000000E+01 0. -1.
    1000022    2    1    0    0    0 -0.22831253470E+02  0.41982061411E+02  0.39019103490E+02  0.62500000449E+02  0.10000000181E+02 0.  0.
    3000022    2    3    3    0    0 -0.92671497524E+01  0.26661392857E+02  0.20527151971E+02  0.34901810914E+02  0.25000689281E+00 0.  0.
    1000022    2    1    0    0    0  0.22831253470E+02 -0.41982061411E+02 -0.39019103490E+02  0.62499999551E+02  0.99999945662E+01 0.  0.
    3000022    2    5    5    0    0  0.48052601717E+00 -0.87229851114E+01 -0.69524976728E+01  0.11167861639E+02  0.25007035193E+00 0.  0.
        -13    1    4    4    0    0 -0.30062353454E+01  0.86845825030E+01  0.67463442688E+01  0.11401035488E+02  0.10500000000E+00 0.  1.
         13    1    4    4    0    0 -0.62609144070E+01  0.17976810354E+02  0.13780807702E+02  0.23500775427E+02  0.10500000000E+00 0. -1.
    3000001    1    5    5    0    0  0.22350727453E+02 -0.33259076299E+02 -0.32066605818E+02  0.51332137912E+02  0.10000000000E+01 0.  1.
        -13    1    6    6    0    0  0.23689290171E+00 -0.32326776778E+01 -0.25658661064E+01  0.41353376031E+01  0.10500000000E+00 0.  1.
         13    1    6    6    0    0  0.24363311546E+00 -0.54903074336E+01 -0.43866315664E+01  0.70325240355E+01  0.10500000000E+00 0. -1.
</event>
<event>
11    0  0.3483054E-009  0.9118800E+02  0.7816531E-02  0.1126479E+00
         25   -1    0    0    0    0  0.00000000000E+00  0.00000000000E+00  0.99999998245E-14  0.12500000000E+03  0.12500000000E+03 0.  0.
    3000001    1    3    3    0    0 -0.30956564581E+02  0.36372051549E+02  0.30405579020E+02  0.56628034224E+02  0.10000000000E+01 0.  1.
    1000022    2    1    0    0    0 -0.35787256038E+02  0.37394232903E+02  0.33573706149E+02  0.62499998934E+02  0.99999886511E+01 0.  0.
    3000022    2    3    3    0    0 -0.48306914561E+01  0.10221813543E+01  0.31681271287E+01  0.58719647093E+01  0.25001075729E+00 0.  0.
    1000022    2    1    0    0    0  0.35787256038E+02 -0.37394232903E+02 -0.33573706149E+02  0.62500001066E+02  0.10000001982E+02 0.  0.
    3000022    2    5    5    0    0  0.86601771467E+01 -0.87543128785E+01 -0.13333067973E+02  0.18151304784E+02  0.25000321465E+00 0.  0.
        -13    1    4    4    0    0 -0.25680722315E+01  0.52740634779E+00  0.17597021219E+01  0.31592291781E+01  0.10500000000E+00 0. -1.
         13    1    4    4    0    0 -0.22626192246E+01  0.49477500650E+00  0.14084250068E+01  0.27127355312E+01  0.10500000000E+00 0.  1.
    3000001    1    5    5    0    0  0.27127078891E+02 -0.28639920025E+02 -0.20240638175E+02  0.44348696282E+02  0.10000000000E+01 0.  1.
        -13    1    6    6    0    0  0.26261032863E+01 -0.26807300503E+01 -0.41281892083E+01  0.55799375635E+01  0.10500000000E+00 0.  1.
         13    1    6    6    0    0  0.60340738604E+01 -0.60735828282E+01 -0.92048787651E+01  0.12571367221E+02  0.10500000000E+00 0. -1.
</event>
<event>
11    0  0.3483054E-009  0.9118800E+02  0.7816531E-02  0.1126479E+00
         25   -1    0    0    0    0  0.00000000000E+00  0.00000000000E+00  0.99999998245E-14  0.12500000000E+03  0.12500000000E+03 0.  0.
    3000001    1    3    3    0    0  0.61050114635E+01  0.21834459756E+02 -0.16634530795E+02  0.28137562307E+02  0.10000000000E+01 0. -1.
    1000022    2    1    0    0    0  0.23393369867E+02  0.46968231469E+02 -0.32449739485E+02  0.62500000137E+02  0.99999951737E+01 0.  0.
    3000022    2    3    3    0    0  0.17288358404E+02  0.25133771713E+02 -0.15815208690E+02  0.34362437830E+02  0.24998187187E+00 0.  0.
    1000022    2    1    0    0    0 -0.23393369867E+02 -0.46968231469E+02  0.32449739485E+02  0.62499999863E+02  0.99999934550E+01 0.  0.
    3000022    2    5    5    0    0 -0.19148419660E+02 -0.37875972324E+02  0.21369844083E+02  0.47518248939E+02  0.24998219741E+00 0.  0.
        -13    1    4    4    0    0  0.10849734247E+02  0.15682242528E+02 -0.99210083932E+01  0.21496206560E+02  0.10500000000E+00 0. -1.
         13    1    4    4    0    0  0.64386241564E+01  0.94515291843E+01 -0.58942002970E+01  0.12866231270E+02  0.10500000000E+00 0.  1.
    3000001    1    5    5    0    0 -0.42449502067E+01 -0.90922591446E+01  0.11079895402E+02  0.14981750924E+02  0.10000000000E+01 0.  1.
        -13    1    6    6    0    0 -0.50006066212E+01 -0.98216275469E+01  0.55486570132E+01  0.12339734758E+02  0.10500000000E+00 0. -1.
         13    1    6    6    0    0 -0.14147813039E+02 -0.28054344777E+02  0.15821187070E+02  0.35178514181E+02  0.10500000000E+00 0.  1.
</event>
<event>
11    0  0.3483054E-009  0.9118800E+02  0.7816531E-02  0.1126479E+00
         25   -1    0    0    0    0  0.00000000000E+00  0.00000000000E+00  0.99999998245E-14  0.12500000000E+03  0.12500000000E+03 0.  0.
    3000001    1    3    3    0    0  0.57430820163E+02  0.85711357792E+01 -0.14326960818E+02  0.59816597023E+02  0.10000000000E+01 0. -1.
    1000022    2    1    0    0    0  0.58693190596E+02  0.93590281563E+01 -0.16545928713E+02  0.62500002604E+02  0.10000026910E+02 0.  0.
    3000022    2    3    3    0    0  0.12623704327E+01  0.78789237707E+00 -0.22189678950E+01  0.26834055811E+01  0.24998697199E+00 0.  0.
    1000022    2    1    0    0    0 -0.58693190596E+02 -0.93590281563E+01  0.16545928713E+02  0.62499997396E+02  0.99999943608E+01 0.  0.
    3000022    2    5    5    0    0 -0.86784440008E+01  0.47632227538E+00  0.56401287986E+01  0.10364160711E+02  0.25000239670E+00 0.  0.
        -13    1    4    4    0    0  0.36487344564E+00  0.18459953506E+00 -0.64264170692E+00  0.76891025689E+00  0.10500000000E+00 0.  1.
         13    1    4    4    0    0  0.89749698708E+00  0.60329284200E+00 -0.15763261881E+01  0.19144953242E+01  0.10500000000E+00 0. -1.
    3000001    1    5    5    0    0 -0.50014746595E+02 -0.98353504316E+01  0.10905799914E+02  0.52135836685E+02  0.10000000000E+01 0. -1.
        -13    1    6    6    0    0 -0.43467781165E+01  0.28948416897E+00  0.28803031304E+01  0.52235478557E+01  0.10500000000E+00 0.  1.
         13    1    6    6    0    0 -0.43316658843E+01  0.18683810641E+00  0.27598256682E+01  0.51406128555E+01  0.10500000000E+00 0. -1.
</event>
<event>
11    0  0.3483054E-009  0.9118800E+02  0.7816531E-02  0.1126479E+00
         25   -1    0    0    0    0  0.00000000000E+00  0.00000000000E+00  0.99999998245E-14  0.12500000000E+03  0.12500000000E+03 0.  0.
    3000001    1    3    3    0    0  0.28979126022E+02  0.42500418512E+02 -0.24864415143E+02  0.57142930088E+02  0.10000000000E+01 0. -1.
    1000022    2    1    0    0    0  0.31591672665E+02  0.44216797935E+02 -0.29207732000E+02  0.62500005575E+02  0.10000004347E+02 0.  0.
    3000022    2    3    3    0    0  0.26125466432E+01  0.17163794229E+01 -0.43433168567E+01  0.53570754868E+01  0.24999633499E+00 0.  0.
    1000022    2    1    0    0    0 -0.31591672665E+02 -0.44216797935E+02  0.29207732000E+02  0.62499994425E+02  0.99999346596E+01 0.  0.
    3000022    2    5    5    0    0 -0.29005428426E+02 -0.40689551865E+02  0.29457187937E+02  0.58006404283E+02  0.25001501797E+00 0.  0.
        -13    1    4    4    0    0  0.10650101286E+01  0.76687718656E+00 -0.18792204879E+01  0.22945243157E+01  0.10500000000E+00 0.  1.
         13    1    4    4    0    0  0.15475365147E+01  0.94950223632E+00 -0.24640963688E+01  0.30625511711E+01  0.10500000000E+00 0. -1.
    3000001    1    5    5    0    0 -0.25862442394E+01 -0.35272460698E+01 -0.24945593770E+00  0.44935901424E+01  0.10000000000E+01 0.  1.
        -13    1    6    6    0    0 -0.18347164338E+02 -0.25792466138E+02  0.18601169015E+02  0.36713543311E+02  0.10500000000E+00 0. -1.
         13    1    6    6    0    0 -0.10658264088E+02 -0.14897085727E+02  0.10856018922E+02  0.21292860972E+02  0.10500000000E+00 0.  1.
</event>
<event>
11    0  0.3483054E-009  0.9118800E+02  0.7816531E-02  0.1126479E+00
         25   -1    0    0    0    0  0.00000000000E+00  0.00000000000E+00  0.99999998245E-14  0.12500000000E+03  0.12500000000E+03 0.  0.
    3000001    1    3    3    0    0  0.41116917036E+02 -0.27970431282E+02 -0.13455254821E+01  0.49756972692E+02  0.10000000000E+01 0.  1.
    1000022    2    1    0    0    0  0.50505152337E+02 -0.34818439022E+02 -0.65693250070E+01  0.62500000079E+02  0.99999935148E+01 0.  0.
    3000022    2    3    3    0    0  0.93882353015E+01 -0.68480077396E+01 -0.52237995249E+01  0.12743027387E+02  0.24998686610E+00 0.  0.
    1000022    2    1    0    0    0 -0.50505152337E+02  0.34818439022E+02  0.65693250070E+01  0.62499999921E+02  0.99999925307E+01 0.  0.
    3000022    2    5    5    0    0 -0.44457804960E+02  0.30840280495E+02  0.25680784617E+01  0.54168965803E+02  0.25001263210E+00 0.  0.
        -13    1    4    4    0    0  0.60260710646E+01 -0.44573341670E+01 -0.33999388342E+01  0.82311584499E+01  0.10500000000E+00 0. -1.
         13    1    4    4    0    0  0.33621642369E+01 -0.23906735726E+01 -0.18238606907E+01  0.45118689371E+01  0.10500000000E+00 0.  1.
    3000001    1    5    5    0    0 -0.60473473774E+01  0.39781585267E+01  0.40012465454E+01  0.83310341184E+01  0.10000000000E+01 0.  1.
        -13    1    6    6    0    0 -0.23495408918E+02  0.16376067356E+02  0.13367208912E+01  0.28670676135E+02  0.10500000000E+00 0. -1.
         13    1    6    6    0    0 -0.20962396042E+02  0.14464213139E+02  0.12313575704E+01  0.25498289668E+02  0.10500000000E+00 0.  1.
</event>
<event>
11    0  0.3483054E-009  0.9118800E+02  0.7816531E-02  0.1126479E+00
         25   -1    0    0    0    0  0.00000000000E+00  0.00000000000E+00  0.99999998245E-14  0.12500000000E+03  0.12500000000E+03 0.  0.
    3000001    1    3    3    0    0 -0.33743081077E+01  0.96845603047E+01  0.19926633889E+02  0.22433176361E+02  0.10000000000E+01 0.  1.
    1000022    2    1    0    0    0 -0.17965222025E+02  0.33915655564E+02  0.48303510248E+02  0.62500000006E+02  0.10000000183E+02 0.  0.
    3000022    2    3    3    0    0 -0.14590913917E+02  0.24231095259E+02  0.28376876360E+02  0.40066823645E+02  0.24999730304E+00 0.  0.
    1000022    2    1    0    0    0  0.17965222025E+02 -0.33915655564E+02 -0.48303510248E+02  0.62499999994E+02  0.10000000112E+02 0.  0.
    3000022    2    5    5    0    0  0.10281448035E+02 -0.94526441639E+01 -0.15841459530E+02  0.21120487596E+02  0.25000174037E+00 0.  0.
        -13    1    4    4    0    0 -0.83122879518E+01  0.13731729452E+02  0.16180081906E+02  0.22791678310E+02  0.10500000000E+00 0. -1.
         13    1    4    4    0    0 -0.62786259653E+01  0.10499365807E+02  0.12196794454E+02  0.17275145334E+02  0.10500000000E+00 0.  1.
    3000001    1    5    5    0    0  0.76837739903E+01 -0.24463011400E+02 -0.32462050719E+02  0.41379512399E+02  0.10000000000E+01 0. -1.
        -13    1    6    6    0    0  0.47607787633E+01 -0.44683722914E+01 -0.74008135938E+01  0.98698749849E+01  0.10500000000E+00 0. -1.
         13    1    6    6    0    0  0.55206692712E+01 -0.49842718725E+01 -0.84406459359E+01  0.11250612611E+02  0.10500000000E+00 0.  1.
</event>
<event>
11    0  0.3483054E-009  0.9118800E+02  0.7816531E-02  0.1126479E+00
         25   -1    0    0    0    0  0.00000000000E+00  0.00000000000E+00  0.99999998245E-14  0.12500000000E+03  0.12500000000E+03 0.  0.
    3000001    1    3    3    0    0 -0.70930639743E+01  0.80746178609E+01  0.47839330809E+01  0.11806651764E+02  0.10000000000E+01 0. -1.
    1000022    2    1    0    0    0 -0.46879441542E+02  0.25726701856E+02  0.30768570452E+02  0.62500002314E+02  0.10000006696E+02 0.  0.
    3000022    2    3    3    0    0 -0.39786377568E+02  0.17652083995E+02  0.25984637371E+02  0.50693350551E+02  0.25000279100E+00 0.  0.
    1000022    2    1    0    0    0  0.46879441542E+02 -0.25726701856E+02 -0.30768570452E+02  0.62499997686E+02  0.99999777658E+01 0.  0.
    3000022    2    5    5    0    0  0.41843258191E+02 -0.19103776273E+02 -0.26673527445E+02  0.53172851109E+02  0.25000956454E+00 0.  0.
        -13    1    4    4    0    0 -0.20497443410E+02  0.90332444079E+01  0.13417151846E+02  0.26110834524E+02  0.10500000000E+00 0.  1.
         13    1    4    4    0    0 -0.19288934158E+02  0.86188395873E+01  0.12567485525E+02  0.24582516027E+02  0.10500000000E+00 0. -1.
    3000001    1    5    5    0    0  0.50361833508E+01 -0.66229255831E+01 -0.40950430076E+01  0.93271465763E+01  0.10000000000E+01 0.  1.
        -13    1    6    6    0    0  0.10679628952E+02 -0.48440495716E+01 -0.67965493543E+01  0.13554460481E+02  0.10500000000E+00 0. -1.
         13    1    6    6    0    0  0.31163629239E+02 -0.14259726702E+02 -0.19876978090E+02  0.39618390628E+02  0.10500000000E+00 0.  1.
</event>
<event>
11    0  0.3483054E-009  0.9118800E+02  0.7816531E-02  0.1126479E+00
         25   -1    0    0    0    0  0.00000000000E+00  0.00000000000E+00  0.99999998245E-14  0.12500000000E+03  0.12500000000E+03 0.  0.
    3000001    1    3    3    0    0  0.17406203310E+02 -0.38993115662E+00  0.16846138123E+02  0.24247068475E+02  0.10000000000E+01 0.  1.
    1000022    2    1    0    0    0  0.51954026574E+02 -0.63118380905E+00  0.33266065499E+02  0.62500000519E+02  0.99999840399E+01 0.  0.
    3000022    2    3    3    0    0  0.34547823264E+02 -0.24125265243E+00  0.16419927376E+02  0.38252932044E+02  0.24999956209E+00 0.  0.
    1000022    2    1    0    0    0 -0.51954026574E+02  0.63118380905E+00 -0.33266065499E+02  0.62499999481E+02  0.99999775533E+01 0.  0.
    3000022    2    5    5    0    0 -0.26758275755E+02 -0.46176736117E+01 -0.17192906342E+02  0.32140111325E+02  0.24999305050E+00 0.  0.
        -13    1    4    4    0    0  0.11287411382E+02 -0.56298284111E-01  0.53126470067E+01  0.12475739194E+02  0.10500000000E+00 0. -1.
         13    1    4    4    0    0  0.23260411882E+02 -0.18495436831E+00  0.11107280369E+02  0.25777192850E+02  0.10500000000E+00 0.  1.
    3000001    1    5    5    0    0 -0.25195750819E+02  0.52488574207E+01 -0.16073159157E+02  0.30359888156E+02  0.10000000000E+01 0.  1.
        -13    1    6    6    0    0 -0.13948205388E+02 -0.24682770985E+01 -0.89325930757E+01  0.16746553957E+02  0.10500000000E+00 0. -1.
         13    1    6    6    0    0 -0.12810070367E+02 -0.21493965132E+01 -0.82603132665E+01  0.15393557368E+02  0.10500000000E+00 0.  1.
</event>
<event>
11    0  0.3483054E-009  0.9118800E+02  0.7816531E-02  0.1126479E+00
         25   -1    0    0    0    0  0.00000000000E+00  0.00000000000E+00  0.99999998245E-14  0.12500000000E+03  0.12500000000E+03 0.  0.
    3000001    1    3    3    0    0 -0.10625385645E+02 -0.12240913100E+02  0.33698449854E+02  0.37407543306E+02  0.10000000000E+01 0. -1.
    1000022    2    1    0    0    0 -0.10175663733E+02 -0.23355110184E+02  0.56189365413E+02  0.62500000548E+02  0.99999989399E+01 0.  0.
    3000022    2    3    3    0    0  0.44972191129E+00 -0.11114197084E+02  0.22490915559E+02  0.25092457242E+02  0.25000223975E+00 0.  0.
    1000022    2    1    0    0    0  0.10175663733E+02  0.23355110184E+02 -0.56189365413E+02  0.62499999452E+02  0.99999920901E+01 0.  0.
    3000022    2    5    5    0    0  0.16513005491E+01  0.75435464463E+01 -0.28102228884E+02  0.29144976532E+02  0.25000468097E+00 0.  0.
        -13    1    4    4    0    0  0.15068993226E+00 -0.29817565844E+01  0.59969239262E+01  0.66998284576E+01  0.10500000000E+00 0. -1.
         13    1    4    4    0    0  0.29903197903E+00 -0.81324404997E+01  0.16493991633E+02  0.18392628784E+02  0.10500000000E+00 0.  1.
    3000001    1    5    5    0    0  0.85243631842E+01  0.15811563738E+02 -0.28087136530E+02  0.33355022920E+02  0.10000000000E+01 0. -1.
        -13    1    6    6    0    0  0.77398657448E+00  0.37092879873E+01 -0.14003046306E+02  0.14507039789E+02  0.10500000000E+00 0.  1.
         13    1    6    6    0    0  0.87731397460E+00  0.38342584590E+01 -0.14099182578E+02  0.14637936743E+02  0.10500000000E+00 0. -1.
</event>
<event>
11    0  0.3483054E-009  0.9118800E+02  0.7816531E-02  0.1126479E+00
         25   -1    0    0    0    0  0.00000000000E+00  0.00000000000E+00  0.99999998245E-14  0.12500000000E+03  0.12500000000E+03 0.  0.
    3000001    1    3    3    0    0 -0.10466458659E+01 -0.58581519110E+00  0.53878060615E+00  0.16519478043E+01  0.10000000000E+01 0. -1.
    1000022    2    1    0    0    0 -0.49157606609E+02  0.23983295928E+02  0.28540872497E+02  0.62499999669E+02  0.99999892315E+01 0.  0.
    3000022    2    3    3    0    0 -0.48110960743E+02  0.24569111119E+02  0.28002091891E+02  0.60848051865E+02  0.25000129038E+00 0.  0.
    1000022    2    1    0    0    0  0.49157606609E+02 -0.23983295928E+02 -0.28540872497E+02  0.62500000331E+02  0.99999933676E+01 0.  0.
    3000022    2    5    5    0    0  0.48343456428E+02 -0.23628119564E+02 -0.28948134715E+02  0.61101839654E+02  0.24998403363E+00 0.  0.
        -13    1    4    4    0    0 -0.29970401345E+02  0.15304205442E+02  0.17511510994E+02  0.37935573058E+02  0.10500000000E+00 0.  1.
         13    1    4    4    0    0 -0.18140559399E+02  0.92649056767E+01  0.10490580897E+02  0.22912478806E+02  0.10500000000E+00 0. -1.
    3000001    1    5    5    0    0  0.81415018075E+00 -0.35517636369E+00  0.40726221718E+00  0.13981606774E+01  0.10000000000E+01 0.  1.
        -13    1    6    6    0    0  0.35427815554E+02 -0.17341568791E+02 -0.21249336927E+02  0.44804078697E+02  0.10500000000E+00 0.  1.
         13    1    6    6    0    0  0.12915640875E+02 -0.62865507727E+01 -0.76987977871E+01  0.16297760956E+02  0.10500000000E+00 0. -1.
</event>
<event>
11    0  0.3483054E-009  0.9118800E+02  0.7816531E-02  0.1126479E+00
         25   -1    0    0    0    0  0.00000000000E+00  0.00000000000E+00  0.99999998245E-14  0.12500000000E+03  0.12500000000E+03 0.  0.
    3000001    1    3    3    0    0 -0.18239473983E+00 -0.31844588037E+02 -0.39489124450E+02  0.50739550696E+02  0.10000000000E+01 0. -1.
    1000022    2    1    0    0    0 -0.46073492780E+01 -0.39869952054E+02 -0.46855192537E+02  0.62499998871E+02  0.10000002352E+02 0.  0.
    3000022    2    3    3    0    0 -0.44249545382E+01 -0.80253640167E+01 -0.73660680874E+01  0.11760448174E+02  0.24998385784E+00 0.  0.
    1000022    2    1    0    0    0  0.46073492780E+01  0.39869952054E+02  0.46855192537E+02  0.62500001129E+02  0.10000016468E+02 0.  0.
    3000022    2    5    5    0    0 -0.29316029924E+01  0.15821104034E+02  0.19719096215E+02  0.25452050902E+02  0.25002129923E+00 0.  0.
        -13    1    4    4    0    0 -0.27047162765E+01 -0.49823519687E+01 -0.46179963343E+01  0.73127447939E+01  0.10500000000E+00 0. -1.
         13    1    4    4    0    0 -0.17202382617E+01 -0.30430120479E+01 -0.27480717531E+01  0.44477033805E+01  0.10500000000E+00 0.  1.
    3000001    1    5    5    0    0  0.75389522705E+01  0.24048848019E+02  0.27136096322E+02  0.37047950227E+02  0.10000000000E+01 0. -1.
        -13    1    6    6    0    0 -0.15001965713E+01  0.77449440616E+01  0.96322889955E+01  0.12450974442E+02  0.10500000000E+00 0.  1.
         13    1    6    6    0    0 -0.14314064211E+01  0.80761599725E+01  0.10086807219E+02  0.13001076460E+02  0.10500000000E+00 0. -1.
</event>
<event>
11    0  0.3483054E-009  0.9118800E+02  0.7816531E-02  0.1126479E+00
         25   -1    0    0    0    0  0.00000000000E+00  0.00000000000E+00  0.99999998245E-14  0.12500000000E+03  0.12500000000E+03 0.  0.
    3000001    1    3    3    0    0 -0.32687863916E+02  0.19213203824E+02  0.17677019973E+02  0.41846393915E+02  0.10000000000E+01 0. -1.
    1000022    2    1    0    0    0 -0.51756808583E+02  0.22569257480E+02  0.24861834486E+02  0.62500008757E+02  0.10000083137E+02 0.  0.
    3000022    2    3    3    0    0 -0.19068944667E+02  0.33560536564E+01  0.71848145133E+01  0.20653614843E+02  0.24999921905E+00 0.  0.
    1000022    2    1    0    0    0  0.51756808583E+02 -0.22569257480E+02 -0.24861834486E+02  0.62499991243E+02  0.99999736691E+01 0.  0.
    3000022    2    5    5    0    0  0.16764191574E+02 -0.12463445382E+02 -0.83785384298E+01  0.22508620521E+02  0.25000322112E+00 0.  0.
        -13    1    4    4    0    0 -0.14562221689E+02  0.25501074288E+01  0.54749042842E+01  0.15765371874E+02  0.10500000000E+00 0. -1.
         13    1    4    4    0    0 -0.45067229788E+01  0.80594622759E+00  0.17099102291E+01  0.48882429687E+01  0.10500000000E+00 0.  1.
    3000001    1    5    5    0    0  0.34992617009E+02 -0.10105812098E+02 -0.16483296057E+02  0.39991370722E+02  0.10000000000E+01 0. -1.
        -13    1    6    6    0    0  0.77134317864E+01 -0.58115433095E+01 -0.38450547793E+01  0.10395505607E+02  0.10500000000E+00 0. -1.
         13    1    6    6    0    0  0.90507597875E+01 -0.66519020727E+01 -0.45334836505E+01  0.12113114914E+02  0.10500000000E+00 0.  1.
</event>
<event>
11    0  0.3483054E-009  0.9118800E+02  0.7816531E-02  0.1126479E+00
         25   -1    0    0    0    0  0.00000000000E+00  0.00000000000E+00  0.99999998245E-14  0.12500000000E+03  0.12500000000E+03 0.  0.
    3000001    1    3    3    0    0  0.17195094003E+01  0.17543095617E+02 -0.14139074995E+01  0.17712031245E+02  0.10000000000E+01 0. -1.
    1000022    2    1    0    0    0  0.14311721350E+02  0.57414754777E+02 -0.17463409560E+02  0.62499998664E+02  0.99999862716E+01 0.  0.
    3000022    2    3    3    0    0  0.12592211950E+02  0.39871659160E+02 -0.16049502060E+02  0.44787967419E+02  0.25000636743E+00 0.  0.
    1000022    2    1    0    0    0 -0.14311721350E+02 -0.57414754777E+02  0.17463409560E+02  0.62500001336E+02  0.10000002977E+02 0.  0.
    3000022    2    5    5    0    0 -0.73112845054E+01 -0.42134394873E+02  0.15761614535E+02  0.45576892251E+02  0.25000422870E+00 0.  0.
        -13    1    4    4    0    0  0.60642045064E+01  0.19422035543E+02 -0.77955112690E+01  0.21789241884E+02  0.10500000000E+00 0. -1.
         13    1    4    4    0    0  0.65280074431E+01  0.20449623617E+02 -0.82539907912E+01  0.22998725535E+02  0.10500000000E+00 0.  1.
    3000001    1    5    5    0    0 -0.70004368444E+01 -0.15280359904E+02  0.17017950252E+01  0.16923109085E+02  0.10000000000E+01 0.  1.
        -13    1    6    6    0    0 -0.45965263781E+01 -0.26138120566E+02  0.97912672971E+01  0.28287971679E+02  0.10500000000E+00 0.  1.
         13    1    6    6    0    0 -0.27147581274E+01 -0.15996274307E+02  0.59703472375E+01  0.17288920572E+02  0.10500000000E+00 0. -1.
</event>
<event>
11    0  0.3483054E-009  0.9118800E+02  0.7816531E-02  0.1126479E+00
         25   -1    0    0    0    0  0.00000000000E+00  0.00000000000E+00  0.99999998245E-14  0.12500000000E+03  0.12500000000E+03 0.  0.
    3000001    1    3    3    0    0 -0.33421404552E+01 -0.15712191333E+02  0.41831481246E+02  0.44820929068E+02  0.10000000000E+01 0.  1.
    1000022    2    1    0    0    0 -0.97598198986E+01 -0.18339633670E+02  0.58091770016E+02  0.62499999978E+02  0.10000000303E+02 0.  0.
    3000022    2    3    3    0    0 -0.64176794434E+01 -0.26274423362E+01  0.16260288770E+02  0.17679070910E+02  0.24998933767E+00 0.  0.
    1000022    2    1    0    0    0  0.97598198986E+01  0.18339633670E+02 -0.58091770016E+02  0.62500000022E+02  0.10000000581E+02 0.  0.
    3000022    2    5    5    0    0  0.19474827986E+01  0.69340076189E+01 -0.92293586964E+01  0.11709684444E+02  0.24999385287E+00 0.  0.
        -13    1    4    4    0    0 -0.20539422788E+01 -0.89233902608E+00  0.52041946508E+01  0.56665346364E+01  0.10500000000E+00 0. -1.
         13    1    4    4    0    0 -0.43637371646E+01 -0.17351033101E+01  0.11056094119E+02  0.12012536273E+02  0.10500000000E+00 0.  1.
    3000001    1    5    5    0    0  0.78123371000E+01  0.11405626051E+02 -0.48862411319E+02  0.50790315578E+02  0.10000000000E+01 0.  1.
        -13    1    6    6    0    0  0.81897803096E+00  0.28419368167E+01 -0.38897304302E+01  0.48875717596E+01  0.10500000000E+00 0.  1.
         13    1    6    6    0    0  0.11285047676E+01  0.40920708022E+01 -0.53396282662E+01  0.68221126846E+01  0.10500000000E+00 0. -1.
</event>
<event>
11    0  0.3483054E-009  0.9118800E+02  0.7816531E-02  0.1126479E+00
         25   -1    0    0    0    0  0.00000000000E+00  0.00000000000E+00  0.99999998245E-14  0.12500000000E+03  0.12500000000E+03 0.  0.
    3000001    1    3    3    0    0 -0.49502451933E+01  0.31090973954E+01 -0.20010238021E+01  0.62590342981E+01  0.10000000000E+01 0. -1.
    1000022    2    1    0    0    0 -0.47258488322E+02  0.38995592417E+02  0.72269766316E+01  0.62500002061E+02  0.10000005994E+02 0.  0.
    3000022    2    3    3    0    0 -0.42308243129E+02  0.35886495022E+02  0.92280004337E+01  0.56240967763E+02  0.25000253873E+00 0.  0.
    1000022    2    1    0    0    0  0.47258488322E+02 -0.38995592417E+02 -0.72269766316E+01  0.62499997939E+02  0.99999802354E+01 0.  0.
    3000022    2    5    5    0    0  0.29519401872E+02 -0.26273954614E+02 -0.91456926421E+01  0.40563801195E+02  0.24999105573E+00 0.  0.
        -13    1    4    4    0    0 -0.28176244188E+02  0.23846771917E+02  0.61760867233E+01  0.37426252012E+02  0.10500000000E+00 0.  1.
         13    1    4    4    0    0 -0.14131998940E+02  0.12039723105E+02  0.30519137104E+01  0.18814715751E+02  0.10500000000E+00 0. -1.
    3000001    1    5    5    0    0  0.17739086450E+02 -0.12721637803E+02  0.19187160105E+01  0.21936196745E+02  0.10000000000E+01 0.  1.
        -13    1    6    6    0    0  0.17071204330E+02 -0.15190610319E+02 -0.53549796585E+01  0.23470566488E+02  0.10500000000E+00 0. -1.
         13    1    6    6    0    0  0.12448197542E+02 -0.11083344295E+02 -0.37907129836E+01  0.17093234706E+02  0.10500000000E+00 0.  1.
</event>
<event>
11    0  0.3483054E-009  0.9118800E+02  0.7816531E-02  0.1126479E+00
         25   -1    0    0    0    0  0.00000000000E+00  0.00000000000E+00  0.99999998245E-14  0.12500000000E+03  0.12500000000E+03 0.  0.
    3000001    1    3    3    0    0  0.91169700240E+00 -0.48568469245E+02 -0.10858551368E+02  0.49785896939E+02  0.10000000000E+01 0. -1.
    1000022    2    1    0    0    0  0.32334509183E+00 -0.58963260740E+02 -0.18151566319E+02  0.62499999962E+02  0.99999983112E+01 0.  0.
    3000022    2    3    3    0    0 -0.58835191058E+00 -0.10394791495E+02 -0.72930149516E+01  0.12714103022E+02  0.25000077770E+00 0.  0.
    1000022    2    1    0    0    0 -0.32334509183E+00  0.58963260740E+02  0.18151566319E+02  0.62500000038E+02  0.99999987915E+01 0.  0.
    3000022    2    5    5    0    0  0.33118272366E+01  0.38781193716E+02  0.15070731665E+02  0.41738934330E+02  0.25000066560E+00 0.  0.
        -13    1    4    4    0    0 -0.12351403764E+00 -0.25263759276E+01 -0.17846629501E+01  0.30973985682E+01  0.10500000000E+00 0.  1.
         13    1    4    4    0    0 -0.46483787294E+00 -0.78684155673E+01 -0.55083520015E+01  0.96167044542E+01  0.10500000000E+00 0. -1.
    3000001    1    5    5    0    0 -0.36351723284E+01  0.20182067024E+02  0.30808346538E+01  0.20761065709E+02  0.10000000000E+01 0. -1.
        -13    1    6    6    0    0  0.10224966794E+01  0.11985959835E+02  0.47095945390E+01  0.12918979772E+02  0.10500000000E+00 0. -1.
         13    1    6    6    0    0  0.22893305572E+01  0.26795233881E+02  0.10361137126E+02  0.28819954557E+02  0.10500000000E+00 0.  1.
</event>
<event>
11    0  0.3483054E-009  0.9118800E+02  0.7816531E-02  0.1126479E+00
         25   -1    0    0    0    0  0.00000000000E+00  0.00000000000E+00  0.99999998245E-14  0.12500000000E+03  0.12500000000E+03 0.  0.
    3000001    1    3    3    0    0 -0.14418624269E+02  0.26935012639E+02 -0.47545321387E+01  0.30935371462E+02  0.10000000000E+01 0. -1.
    1000022    2    1    0    0    0 -0.20355578353E+02  0.56562498782E+02 -0.13877465106E+02  0.62499999839E+02  0.10000005180E+02 0.  0.
    3000022    2    3    3    0    0 -0.59369540845E+01  0.29627486143E+02 -0.91229329668E+01  0.31564628377E+02  0.24999938064E+00 0.  0.
    1000022    2    1    0    0    0  0.20355578353E+02 -0.56562498782E+02  0.13877465106E+02  0.62500000161E+02  0.10000007187E+02 0.  0.
    3000022    2    5    5    0    0  0.18066547665E+02 -0.40027785875E+02  0.72450694147E+01  0.44510418036E+02  0.24999267232E+00 0.  0.
        -13    1    4    4    0    0 -0.39651714511E+01  0.19641690192E+02 -0.60977621563E+01  0.20945460285E+02  0.10500000000E+00 0. -1.
         13    1    4    4    0    0 -0.19717826335E+01  0.99857959511E+01 -0.30251708105E+01  0.10619168092E+02  0.10500000000E+00 0.  1.
    3000001    1    5    5    0    0  0.22890306885E+01 -0.16534712907E+02  0.66323956908E+01  0.17989582125E+02  0.10000000000E+01 0. -1.
        -13    1    6    6    0    0  0.10289165683E+02 -0.22641880170E+02  0.41199618662E+01  0.25209259784E+02  0.10500000000E+00 0.  1.
         13    1    6    6    0    0  0.77773819820E+01 -0.17385905705E+02  0.31251075485E+01  0.19301158252E+02  0.10500000000E+00 0. -1.
</event>
<event>
11    0  0.3483054E-009  0.9118800E+02  0.7816531E-02  0.1126479E+00
         25   -1    0    0    0    0  0.00000000000E+00  0.00000000000E+00  0.99999998245E-14  0.12500000000E+03  0.12500000000E+03 0.  0.
    3000001    1    3    3    0    0 -0.64727949362E+01 -0.14113547420E+02  0.14257642337E+02  0.21103783075E+02  0.10000000000E+01 0. -1.
    1000022    2    1    0    0    0 -0.10309278131E+02 -0.34641596793E+02  0.49999279544E+02  0.62499997033E+02  0.10000011516E+02 0.  0.
    3000022    2    3    3    0    0 -0.38364831949E+01 -0.20528049373E+02  0.35741637207E+02  0.41396213959E+02  0.24997102575E+00 0.  0.
    1000022    2    1    0    0    0  0.10309278131E+02  0.34641596793E+02 -0.49999279544E+02  0.62500002967E+02  0.10000048598E+02 0.  0.
    3000022    2    5    5    0    0  0.61172681420E+01  0.31639321992E+02 -0.43721651265E+02  0.54314942274E+02  0.24999854566E+00 0.  0.
        -13    1    4    4    0    0 -0.27970882006E+01 -0.15011892107E+02  0.26065250713E+02  0.30209086824E+02  0.10500000000E+00 0. -1.
         13    1    4    4    0    0 -0.10393949943E+01 -0.55161572657E+01  0.96763864942E+01  0.11187127134E+02  0.10500000000E+00 0.  1.
    3000001    1    5    5    0    0  0.41920099891E+01  0.30022748007E+01 -0.62776282788E+01  0.81850606921E+01  0.10000000000E+01 0.  1.
        -13    1    6    6    0    0  0.27056219445E+01  0.14291129484E+02 -0.19793900148E+02  0.24563515223E+02  0.10500000000E+00 0.  1.
         13    1    6    6    0    0  0.34116461976E+01  0.17348192508E+02 -0.23927751117E+02  0.29751427052E+02  0.10500000000E+00 0. -1.
</event>
<event>
11    0  0.3483054E-009  0.9118800E+02  0.7816531E-02  0.1126479E+00
         25   -1    0    0    0    0  0.00000000000E+00  0.00000000000E+00  0.99999998245E-14  0.12500000000E+03  0.12500000000E+03 0.  0.
    3000001    1    3    3    0    0  0.21421070332E+02  0.17751634683E+02 -0.41519114980E+02  0.49988195575E+02  0.10000000000E+01 0.  1.
    1000022    2    1    0    0    0  0.22485412779E+02  0.20456432519E+02 -0.53686036258E+02  0.62499999193E+02  0.99999995415E+01 0.  0.
    3000022    2    3    3    0    0  0.10643424469E+01  0.27047978357E+01 -0.12166921278E+02  0.12511803618E+02  0.25000045787E+00 0.  0.
    1000022    2    1    0    0    0 -0.22485412779E+02 -0.20456432519E+02  0.53686036258E+02  0.62500000807E+02  0.10000009624E+02 0.  0.
    3000022    2    5    5    0    0 -0.32583531183E+01 -0.27317056114E+01  0.16418237997E+02  0.16961725100E+02  0.24999766906E+00 0.  0.
        -13    1    4    4    0    0  0.67606949658E+00  0.17780640414E+01 -0.77279483028E+01  0.79593210558E+01  0.10500000000E+00 0.  1.
         13    1    4    4    0    0  0.38827295030E+00  0.92673379433E+00 -0.44389729748E+01  0.45524825623E+01  0.10500000000E+00 0. -1.
    3000001    1    5    5    0    0 -0.19227059661E+02 -0.17724726908E+02  0.37267798261E+02  0.45538275707E+02  0.10000000000E+01 0.  1.
        -13    1    6    6    0    0 -0.14999586030E+01 -0.13379062997E+01  0.78686158421E+01  0.81219461552E+01  0.10500000000E+00 0.  1.
         13    1    6    6    0    0 -0.17583945153E+01 -0.13937993117E+01  0.85496221549E+01  0.88397789443E+01  0.10500000000E+00 0. -1.
</event>
<event>
11    0  0.3483054E-009  0.9118800E+02  0.7816531E-02  0.1126479E+00
         25   -1    0    0    0    0  0.00000000000E+00  0.00000000000E+00  0.99999998245E-14  0.12500000000E+03  0.12500000000E+03 0.  0.
    3000001    1    3    3    0    0 -0.39247876260E+02 -0.30593899745E+02  0.22128822729E+02  0.54470792980E+02  0.10000000000E+01 0.  1.
    1000022    2    1    0    0    0 -0.42197338996E+02 -0.35296662543E+02  0.27924543027E+02  0.62500000983E+02  0.10000010731E+02 0.  0.
    3000022    2    3    3    0    0 -0.29494627363E+01 -0.47027627984E+01  0.57957202981E+01  0.80292080034E+01  0.24999803696E+00 0.  0.
    1000022    2    1    0    0    0  0.42197338996E+02  0.35296662543E+02 -0.27924543027E+02  0.62499999017E+02  0.99999984389E+01 0.  0.
    3000022    2    5    5    0    0  0.40488314978E+02  0.33821504425E+02 -0.24226252669E+02  0.58053179239E+02  0.24997994305E+00 0.  0.
        -13    1    4    4    0    0 -0.15059176892E+01 -0.22736866247E+01  0.28416664993E+01  0.39399914273E+01  0.10500000000E+00 0. -1.
         13    1    4    4    0    0 -0.14435450470E+01 -0.24290761737E+01  0.29540537987E+01  0.40892165761E+01  0.10500000000E+00 0.  1.
    3000001    1    5    5    0    0  0.17090240179E+01  0.14751581176E+01 -0.36982903576E+01  0.44468197776E+01  0.10000000000E+01 0.  1.
        -13    1    6    6    0    0  0.21610849175E+02  0.18115175122E+02 -0.12897709668E+02  0.31008874721E+02  0.10500000000E+00 0. -1.
         13    1    6    6    0    0  0.18877465804E+02  0.15706329303E+02 -0.11328543001E+02  0.27044304518E+02  0.10500000000E+00 0.  1.
</event>
<event>
11    0  0.3483054E-009  0.9118800E+02  0.7816531E-02  0.1126479E+00
         25   -1    0    0    0    0  0.00000000000E+00  0.00000000000E+00  0.99999998245E-14  0.12500000000E+03  0.12500000000E+03 0.  0.
    3000001    1    3    3    0    0  0.10147474612E+02  0.49767449520E+01 -0.29659836424E+02  0.31756025066E+02  0.10000000000E+01 0.  1.
    1000022    2    1    0    0    0  0.23503502925E+02  0.82158897882E+00 -0.57036482173E+02  0.62500000922E+02  0.10000007916E+02 0.  0.
    3000022    2    3    3    0    0  0.13356028313E+02 -0.41551559732E+01 -0.27376645750E+02  0.30743975856E+02  0.25001091138E+00 0.  0.
    1000022    2    1    0    0    0 -0.23503502925E+02 -0.82158897882E+00  0.57036482173E+02  0.62499999078E+02  0.99999963949E+01 0.  0.
    3000022    2    5    5    0    0 -0.78959498152E+01 -0.15432108078E+01  0.94990384178E+01  0.12450773201E+02  0.24999870630E+00 0.  0.
        -13    1    4    4    0    0  0.66564941951E+01 -0.20589010420E+01 -0.13784194419E+02  0.15445485724E+02  0.10500000000E+00 0. -1.
         13    1    4    4    0    0  0.66995341181E+01 -0.20962549312E+01 -0.13592451331E+02  0.15298490132E+02  0.10500000000E+00 0.  1.
    3000001    1    5    5    0    0 -0.15607553110E+02  0.72162182902E+00  0.47537443755E+02  0.50049225878E+02  0.10000000000E+01 0.  1.
        -13    1    6    6    0    0 -0.46557015195E+01 -0.84510880909E+00  0.55982665584E+01  0.73308511782E+01  0.10500000000E+00 0.  1.
         13    1    6    6    0    0 -0.32402482957E+01 -0.69810199874E+00  0.39007718594E+01  0.51199220226E+01  0.10500000000E+00 0. -1.
</event>
<event>
11    0  0.3483054E-009  0.9118800E+02  0.7816531E-02  0.1126479E+00
         25   -1    0    0    0    0  0.00000000000E+00  0.00000000000E+00  0.99999998245E-14  0.12500000000E+03  0.12500000000E+03 0.  0.
    3000001    1    3    3    0    0 -0.49566456685E+02 -0.13736057238E+01  0.97311646351E+01  0.50541230556E+02  0.10000000000E+01 0.  1.
    1000022    2    1    0    0    0 -0.60482499768E+02  0.30520056847E+01  0.11781444858E+02  0.62500000584E+02  0.10000005657E+02 0.  0.
    3000022    2    3    3    0    0 -0.10916043084E+02  0.44256114086E+01  0.20502802229E+01  0.11958770028E+02  0.24999729397E+00 0.  0.
    1000022    2    1    0    0    0  0.60482499768E+02 -0.30520056847E+01 -0.11781444858E+02  0.62499999416E+02  0.99999983557E+01 0.  0.
    3000022    2    5    5    0    0  0.27648192555E+02 -0.31423318820E+01 -0.71537547717E+00  0.27836505931E+02  0.24999836963E+00 0.  0.
        -13    1    4    4    0    0 -0.27627358077E+01  0.11073914503E+01  0.49261492174E+00  0.30187281144E+01  0.10500000000E+00 0. -1.
         13    1    4    4    0    0 -0.81533072759E+01  0.33182199583E+01  0.15576653012E+01  0.89400419136E+01  0.10500000000E+00 0.  1.
    3000001    1    5    5    0    0  0.32834307214E+02  0.90326197261E-01 -0.11066069381E+02  0.34663493485E+02  0.10000000000E+01 0. -1.
        -13    1    6    6    0    0  0.14163191145E+02 -0.16127707966E+01 -0.43417593318E+00  0.14261716124E+02  0.10500000000E+00 0.  1.
         13    1    6    6    0    0  0.13485001409E+02 -0.15295610854E+01 -0.28119954399E+00  0.13574789807E+02  0.10500000000E+00 0. -1.
</event>
<event>
11    0  0.3483054E-009  0.9118800E+02  0.7816531E-02  0.1126479E+00
         25   -1    0    0    0    0  0.00000000000E+00  0.00000000000E+00  0.99999998245E-14  0.12500000000E+03  0.12500000000E+03 0.  0.
    3000001    1    3    3    0    0 -0.75435225064E+01  0.60384483502E+01 -0.34966196933E+01  0.10324434104E+02  0.10000000000E+01 0. -1.
    1000022    2    1    0    0    0 -0.28283827208E+02  0.49425677205E+02 -0.23735576935E+02  0.62500000743E+02  0.10000001588E+02 0.  0.
    3000022    2    3    3    0    0 -0.20740304701E+02  0.43387228855E+02 -0.20238957242E+02  0.52175566640E+02  0.24999422044E+00 0.  0.
    1000022    2    1    0    0    0  0.28283827208E+02 -0.49425677205E+02  0.23735576935E+02  0.62499999257E+02  0.99999922953E+01 0.  0.
    3000022    2    5    5    0    0  0.52452436054E+01 -0.40918492336E+01  0.79698396070E+00  0.67047365489E+01  0.24999625259E+00 0.  0.
        -13    1    4    4    0    0 -0.87100336119E+01  0.18293005441E+02 -0.84651905058E+01  0.21958351689E+02  0.10500000000E+00 0. -1.
         13    1    4    4    0    0 -0.12030271089E+02  0.25094223414E+02 -0.11773766736E+02  0.30217214951E+02  0.10500000000E+00 0.  1.
    3000001    1    5    5    0    0  0.23038583602E+02 -0.45333827972E+02  0.22938592974E+02  0.55795262708E+02  0.10000000000E+01 0.  1.
        -13    1    6    6    0    0  0.12975453678E+01 -0.98507812170E+00  0.18649209678E+00  0.16431090011E+01  0.10500000000E+00 0.  1.
         13    1    6    6    0    0  0.39476982376E+01 -0.31067711119E+01  0.61049186393E+00  0.50616275478E+01  0.10500000000E+00 0. -1.
</event>
<event>
11    0  0.3483054E-009  0.9118800E+02  0.7816531E-02  0.1126479E+00
         25   -1    0    0    0    0  0.00000000000E+00  0.00000000000E+00  0.99999998245E-14  0.12500000000E+03  0.12500000000E+03 0.  0.
    3000001    1    3    3    0    0 -0.31928241352E+01  0.22721162157E+01 -0.14957827221E+02  0.15494942182E+02  0.10000000000E+01 0.  1.
    1000022    2    1    0    0    0 -0.22705539889E+02  0.21200990347E+02 -0.53303158995E+02  0.62499998536E+02  0.99999762412E+01 0.  0.
    3000022    2    3    3    0    0 -0.19512715754E+02  0.18928874132E+02 -0.38345331774E+02  0.47005056354E+02  0.25000401447E+00 0.  0.
    1000022    2    1    0    0    0  0.22705539889E+02 -0.21200990347E+02  0.53303158995E+02  0.62500001464E+02  0.99999945411E+01 0.  0.
    3000022    2    5    5    0    0  0.40176851999E+00 -0.50632567542E+01  0.80896721405E+01  0.95552750380E+01  0.24999761652E+00 0.  0.
        -13    1    4    4    0    0 -0.13409746933E+02  0.12944477747E+02 -0.26256953882E+02  0.32199681196E+02  0.10500000000E+00 0. -1.
         13    1    4    4    0    0 -0.61029688209E+01  0.59843963843E+01 -0.12088377891E+02  0.14805375158E+02  0.10500000000E+00 0.  1.
    3000001    1    5    5    0    0  0.22303771369E+02 -0.16137733593E+02  0.45213486854E+02  0.52944726426E+02  0.10000000000E+01 0.  1.
        -13    1    6    6    0    0  0.27398218580E+00 -0.34823511880E+01  0.54678686877E+01  0.64892564305E+01  0.10500000000E+00 0.  1.
         13    1    6    6    0    0  0.12778633419E+00 -0.15809055663E+01  0.26218034528E+01  0.30660186076E+01  0.10500000000E+00 0. -1.
</event>
<event>
11    0  0.3483054E-009  0.9118800E+02  0.7816531E-02  0.1126479E+00
         25   -1    0    0    0    0  0.00000000000E+00  0.00000000000E+00  0.99999998245E-14  0.12500000000E+03  0.12500000000E+03 0.  0.
    3000001    1    3    3    0    0  0.13040696520E+02  0.10109584405E+02  0.18917750780E+02  0.25122594554E+02  0.10000000000E+01 0.  1.
    1000022    2    1    0    0    0  0.33472785248E+02  0.13528473427E+02  0.50028021392E+02  0.62500000694E+02  0.10000010842E+02 0.  0.
    3000022    2    3    3    0    0  0.20432088728E+02  0.34188890218E+01  0.31110270613E+02  0.37377406140E+02  0.25000048653E+00 0.  0.
    1000022    2    1    0    0    0 -0.33472785248E+02 -0.13528473427E+02 -0.50028021392E+02  0.62499999306E+02  0.10000002164E+02 0.  0.
    3000022    2    5    5    0    0 -0.10347642056E+02 -0.61014636501E+01 -0.24276321462E+02  0.27086968213E+02  0.25001691326E+00 0.  0.
        -13    1    4    4    0    0  0.59821472613E+01  0.95817128456E+00  0.90787272189E+01  0.10915057993E+02  0.10500000000E+00 0. -1.
         13    1    4    4    0    0  0.14449941467E+02  0.24607177372E+01  0.22031543394E+02  0.26462348148E+02  0.10500000000E+00 0.  1.
    3000001    1    5    5    0    0 -0.23125143192E+02 -0.74270097768E+01 -0.25751699930E+02  0.35413031093E+02  0.10000000000E+01 0. -1.
        -13    1    6    6    0    0 -0.41791328690E+01 -0.25224461359E+01 -0.99537170825E+01  0.11086721553E+02  0.10500000000E+00 0.  1.
         13    1    6    6    0    0 -0.61685091867E+01 -0.35790175142E+01 -0.14322604379E+02  0.16000246659E+02  0.10500000000E+00 0. -1.
</event>
<event>
11    0  0.3483054E-009  0.9118800E+02  0.7816531E-02  0.1126479E+00
         25   -1    0    0    0    0  0.00000000000E+00  0.00000000000E+00  0.99999998245E-14  0.12500000000E+03  0.12500000000E+03 0.  0.
    3000001    1    3    3    0    0 -0.58495759001E+01 -0.18581679223E+02 -0.16539858675E+02  0.25574660622E+02  0.10000000000E+01 0. -1.
    1000022    2    1    0    0    0 -0.92408824168E+01 -0.37738444038E+02 -0.47923541669E+02  0.62499999573E+02  0.10000001717E+02 0.  0.
    3000022    2    3    3    0    0 -0.33913065167E+01 -0.19156764815E+02 -0.31383682993E+02  0.36925338951E+02  0.25000067512E+00 0.  0.
    1000022    2    1    0    0    0  0.92408824168E+01  0.37738444038E+02  0.47923541669E+02  0.62500000427E+02  0.10000007050E+02 0.  0.
    3000022    2    5    5    0    0  0.39137509576E+01  0.52435270213E+01  0.42959886754E+01  0.78313499796E+01  0.25000324483E+00 0.  0.
        -13    1    4    4    0    0 -0.19332011627E+01 -0.10551826156E+02 -0.17338113558E+02  0.20388710325E+02  0.10500000000E+00 0.  1.
         13    1    4    4    0    0 -0.14581053540E+01 -0.86049386591E+01 -0.14045569435E+02  0.16536628626E+02  0.10500000000E+00 0. -1.
    3000001    1    5    5    0    0  0.53271314592E+01  0.32494917017E+02  0.43627552993E+02  0.54668650447E+02  0.10000000000E+01 0. -1.
        -13    1    6    6    0    0  0.18526040792E+01  0.24127966402E+01  0.19339496012E+01  0.36062328767E+01  0.10500000000E+00 0.  1.
         13    1    6    6    0    0  0.20611468784E+01  0.28307303811E+01  0.23620390742E+01  0.42251171029E+01  0.10500000000E+00 0. -1.
</event>
<event>
11    0  0.3483054E-009  0.9118800E+02  0.7816531E-02  0.1126479E+00
         25   -1    0    0    0    0  0.00000000000E+00  0.00000000000E+00  0.99999998245E-14  0.12500000000E+03  0.12500000000E+03 0.  0.
    3000001    1    3    3    0    0  0.19694497841E+01 -0.20118431339E+01  0.97628125112E+00  0.31431465650E+01  0.10000000000E+01 0. -1.
    1000022    2    1    0    0    0  0.56565582857E+02 -0.55402683120E+01  0.23997708348E+02  0.62500000738E+02  0.10000017469E+02 0.  0.
    3000022    2    3    3    0    0  0.54596133073E+02 -0.35284251780E+01  0.23021427097E+02  0.59356854173E+02  0.25000200618E+00 0.  0.
    1000022    2    1    0    0    0 -0.56565582857E+02  0.55402683120E+01 -0.23997708348E+02  0.62499999262E+02  0.10000008245E+02 0.  0.
    3000022    2    5    5    0    0 -0.66125306779E+01  0.29908226668E+01 -0.64635330437E+00  0.72904631523E+01  0.24999638155E+00 0.  0.
        -13    1    4    4    0    0  0.37001271550E+02 -0.23622399246E+01  0.15555525852E+02  0.40207706765E+02  0.10500000000E+00 0.  1.
         13    1    4    4    0    0  0.17594861523E+02 -0.11661852535E+01  0.74659012445E+01  0.19149147408E+02  0.10500000000E+00 0. -1.
    3000001    1    5    5    0    0 -0.49953052179E+02  0.25494456452E+01 -0.23351355044E+02  0.55209536110E+02  0.10000000000E+01 0.  1.
        -13    1    6    6    0    0 -0.23688843844E+01  0.10952489205E+01 -0.28658026163E+00  0.26276104488E+01  0.10500000000E+00 0.  1.
         13    1    6    6    0    0 -0.42436462935E+01  0.18955737462E+01 -0.35977304274E+00  0.46628527035E+01  0.10500000000E+00 0. -1.
</event>
<event>
11    0  0.3483054E-009  0.9118800E+02  0.7816531E-02  0.1126479E+00
         25   -1    0    0    0    0  0.00000000000E+00  0.00000000000E+00  0.99999998245E-14  0.12500000000E+03  0.12500000000E+03 0.  0.
    3000001    1    3    3    0    0  0.30976406753E+02  0.59968644801E+01  0.12659583791E+02  0.34011251384E+02  0.10000000000E+01 0.  1.
    1000022    2    1    0    0    0  0.59215061487E+02  0.91545749085E+01  0.14697627617E+02  0.62500000277E+02  0.10000001415E+02 0.  0.
    3000022    2    3    3    0    0  0.28238654734E+02  0.31577104284E+01  0.20380438265E+01  0.28488748893E+02  0.24986895877E+00 0.  0.
    1000022    2    1    0    0    0 -0.59215061487E+02 -0.91545749085E+01 -0.14697627617E+02  0.62499999723E+02  0.99999979556E+01 0.  0.
    3000022    2    5    5    0    0 -0.83195905284E+01  0.24018421307E+00  0.10499132923E+01  0.83927404340E+01  0.24999810852E+00 0.  0.
        -13    1    4    4    0    0  0.16158918904E+02  0.17466265874E+01  0.11916599357E+01  0.16297007179E+02  0.10500000000E+00 0. -1.
         13    1    4    4    0    0  0.12079735830E+02  0.14110838410E+01  0.84638389077E+00  0.12191741714E+02  0.10500000000E+00 0.  1.
    3000001    1    5    5    0    0 -0.50895470959E+02 -0.93947591216E+01 -0.15747540910E+02  0.54107259289E+02  0.10000000000E+01 0. -1.
        -13    1    6    6    0    0 -0.40687268463E+01  0.12956904321E+00  0.44631285500E+00  0.40965285855E+01  0.10500000000E+00 0.  1.
         13    1    6    6    0    0 -0.42508636821E+01  0.11061516985E+00  0.60360043734E+00  0.42962118486E+01  0.10500000000E+00 0. -1.
</event>
<event>
11    0  0.3483054E-009  0.9118800E+02  0.7816531E-02  0.1126479E+00
         25   -1    0    0    0    0  0.00000000000E+00  0.00000000000E+00  0.99999998245E-14  0.12500000000E+03  0.12500000000E+03 0.  0.
    3000001    1    3    3    0    0  0.16959462569E+02 -0.25181089892E+02 -0.36156808111E+02  0.47223145083E+02  0.10000000000E+01 0. -1.
    1000022    2    1    0    0    0  0.17254454347E+02 -0.35495191850E+02 -0.47419671189E+02  0.62500000250E+02  0.99999988171E+01 0.  0.
    3000022    2    3    3    0    0  0.29499177806E+00 -0.10314101958E+02 -0.11262863078E+02  0.15276855167E+02  0.24999947069E+00 0.  0.
    1000022    2    1    0    0    0 -0.17254454347E+02  0.35495191850E+02  0.47419671189E+02  0.62499999750E+02  0.99999956907E+01 0.  0.
    3000022    2    5    5    0    0 -0.97606247119E+00  0.58855040509E+01  0.30057120581E+01  0.66849532188E+01  0.24987732922E+00 0.  0.
        -13    1    4    4    0    0  0.10809433473E+00 -0.59317877649E+01 -0.65068526786E+01  0.88061312308E+01  0.10500000000E+00 0.  1.
         13    1    4    4    0    0  0.18689744332E+00 -0.43823141933E+01 -0.47560103996E+01  0.64707239366E+01  0.10500000000E+00 0. -1.
    3000001    1    5    5    0    0 -0.16278391876E+02  0.29609687799E+02  0.44413959131E+02  0.55815046531E+02  0.10000000000E+01 0. -1.
        -13    1    6    6    0    0 -0.28955561480E+00  0.19769670680E+01  0.96461692749E+00  0.22212050916E+01  0.10500000000E+00 0. -1.
         13    1    6    6    0    0 -0.68650685639E+00  0.39085369829E+01  0.20410951306E+01  0.44637481272E+01  0.10500000000E+00 0.  1.
</event>
<event>
11    0  0.3483054E-009  0.9118800E+02  0.7816531E-02  0.1126479E+00
         25   -1    0    0    0    0  0.00000000000E+00  0.00000000000E+00  0.99999998245E-14  0.12500000000E+03  0.12500000000E+03 0.  0.
    3000001    1    3    3    0    0  0.34212601992E+02 -0.19809933236E+02 -0.13008311138E+02  0.41631139169E+02  0.10000000000E+01 0. -1.
    1000022    2    1    0    0    0  0.51128127441E+02 -0.32028753656E+02 -0.12896666598E+02  0.62500004729E+02  0.10000005268E+02 0.  0.
    3000022    2    3    3    0    0  0.16915525449E+02 -0.12218820421E+02  0.11164454039E+00  0.20868865560E+02  0.25002309830E+00 0.  0.
    1000022    2    1    0    0    0 -0.51128127441E+02  0.32028753656E+02  0.12896666598E+02  0.62499995271E+02  0.99999461548E+01 0.  0.
    3000022    2    5    5    0    0 -0.24951213771E+02  0.18588443789E+02  0.22686440708E+01  0.31197797242E+02  0.24999135070E+00 0.  0.
        -13    1    4    4    0    0  0.96876387316E+01 -0.70382174184E+01  0.12053533256E+00  0.11975491739E+02  0.10500000000E+00 0. -1.
         13    1    4    4    0    0  0.72278867175E+01 -0.51806030022E+01 -0.88907921670E-02  0.88933738206E+01  0.10500000000E+00 0.  1.
    3000001    1    5    5    0    0 -0.26176913670E+02  0.13440309868E+02  0.10628022527E+02  0.31302198029E+02  0.10000000000E+01 0.  1.
        -13    1    6    6    0    0 -0.10851398107E+02  0.80627717493E+01  0.92202595119E+00  0.13550730091E+02  0.10500000000E+00 0.  1.
         13    1    6    6    0    0 -0.14099815665E+02  0.10525672039E+02  0.13466181197E+01  0.17647067150E+02  0.10500000000E+00 0. -1.
</event>
<event>
11    0  0.3483054E-009  0.9118800E+02  0.7816531E-02  0.1126479E+00
         25   -1    0    0    0    0  0.00000000000E+00  0.00000000000E+00  0.99999998245E-14  0.12500000000E+03  0.12500000000E+03 0.  0.
    3000001    1    3    3    0    0  0.85068558950E+01  0.22433078421E+00  0.11160528354E+02  0.14070334561E+02  0.10000000000E+01 0.  1.
    1000022    2    1    0    0    0  0.45778862512E+02 -0.11873097917E+02  0.39617863794E+02  0.62500002060E+02  0.10000020946E+02 0.  0.
    3000022    2    3    3    0    0  0.37272006617E+02 -0.12097428701E+02  0.28457335441E+02  0.48429667499E+02  0.24999064555E+00 0.  0.
    1000022    2    1    0    0    0 -0.45778862512E+02  0.11873097917E+02 -0.39617863794E+02  0.62499997940E+02  0.99999951906E+01 0.  0.
    3000022    2    5    5    0    0 -0.30532593733E+02  0.35785828204E+01 -0.28063650721E+02  0.41625431307E+02  0.25000924772E+00 0.  0.
        -13    1    4    4    0    0  0.87832566183E+01 -0.28367197147E+01  0.66945538134E+01  0.11402659835E+02  0.10500000000E+00 0.  1.
         13    1    4    4    0    0  0.28488749998E+02 -0.92607089865E+01  0.21762781627E+02  0.37027007664E+02  0.10500000000E+00 0. -1.
    3000001    1    5    5    0    0 -0.15246268779E+02  0.82945150966E+01 -0.11554213073E+02  0.20874566633E+02  0.10000000000E+01 0.  1.
        -13    1    6    6    0    0 -0.94230364220E+01  0.10561570497E+01 -0.86522385251E+01  0.12836718413E+02  0.10500000000E+00 0.  1.
         13    1    6    6    0    0 -0.21109557311E+02  0.25224257707E+01 -0.19411412196E+02  0.28788712894E+02  0.10500000000E+00 0. -1.
</event>
<event>
11    0  0.3483054E-009  0.9118800E+02  0.7816531E-02  0.1126479E+00
         25   -1    0    0    0    0  0.00000000000E+00  0.00000000000E+00  0.99999998245E-14  0.12500000000E+03  0.12500000000E+03 0.  0.
    3000001    1    3    3    0    0  0.18303439595E+02  0.22463491169E+01 -0.47452715534E+01  0.19067763043E+02  0.10000000000E+01 0.  1.
    1000022    2    1    0    0    0  0.60491127394E+02 -0.64831829256E+01 -0.10248995356E+02  0.62499999982E+02  0.99999968871E+01 0.  0.
    3000022    2    3    3    0    0  0.42187687799E+02 -0.87295320425E+01 -0.55037238028E+01  0.43432236939E+02  0.24999664478E+00 0.  0.
    1000022    2    1    0    0    0 -0.60491127394E+02  0.64831829256E+01  0.10248995356E+02  0.62500000018E+02  0.99999971059E+01 0.  0.
    3000022    2    5    5    0    0 -0.52518577667E+02  0.68006782154E+01  0.11930238851E+02  0.54284835253E+02  0.25003016775E+00 0.  0.
        -13    1    4    4    0    0  0.31433333634E+02 -0.65110921638E+01 -0.41293694031E+01  0.32365282344E+02  0.10500000000E+00 0.  1.
         13    1    4    4    0    0  0.10754354165E+02 -0.22184398787E+01 -0.13743543998E+01  0.11066954595E+02  0.10500000000E+00 0. -1.
    3000001    1    5    5    0    0 -0.79725497273E+01 -0.31749528979E+00 -0.16812434953E+01  0.82151647643E+01  0.10000000000E+01 0.  1.
        -13    1    6    6    0    0 -0.22229356000E+02  0.28137634177E+01  0.50369441122E+01  0.22966135150E+02  0.10500000000E+00 0.  1.
         13    1    6    6    0    0 -0.30289221667E+02  0.39869147977E+01  0.68932947393E+01  0.31318700104E+02  0.10500000000E+00 0. -1.
</event>
<event>
11    0  0.3483054E-009  0.9118800E+02  0.7816531E-02  0.1126479E+00
         25   -1    0    0    0    0  0.00000000000E+00  0.00000000000E+00  0.99999998245E-14  0.12500000000E+03  0.12500000000E+03 0.  0.
    3000001    1    3    3    0    0  0.64053124150E+01 -0.21691559876E+02  0.53158920727E+02  0.57779084882E+02  0.10000000000E+01 0. -1.
    1000022    2    1    0    0    0  0.72775308255E+01 -0.25588612550E+02  0.55664266199E+02  0.62499999854E+02  0.99999951548E+01 0.  0.
    3000022    2    3    3    0    0  0.87221841049E+00 -0.38970526742E+01  0.25053454721E+01  0.47209149716E+01  0.24999546525E+00 0.  0.
    1000022    2    1    0    0    0 -0.72775308255E+01  0.25588612550E+02 -0.55664266199E+02  0.62500000146E+02  0.99999969821E+01 0.  0.
    3000022    2    5    5    0    0 -0.59118859957E+01  0.24607955175E+02 -0.44745924220E+02  0.51407801705E+02  0.24997585084E+00 0.  0.
        -13    1    4    4    0    0  0.23083311940E+00 -0.10190667520E+01  0.61951693267E+00  0.12192650261E+01  0.10500000000E+00 0. -1.
         13    1    4    4    0    0  0.64138529109E+00 -0.28779859222E+01  0.18858285395E+01  0.35016499455E+01  0.10500000000E+00 0.  1.
    3000001    1    5    5    0    0 -0.13656448299E+01  0.98065737525E+00 -0.10918341979E+02  0.11092198441E+02  0.10000000000E+01 0.  1.
        -13    1    6    6    0    0 -0.18653390722E+01  0.76067385722E+01 -0.13784859615E+02  0.15854820755E+02  0.10500000000E+00 0.  1.
         13    1    6    6    0    0 -0.40465469235E+01  0.17001216602E+02 -0.30961064606E+02  0.35552980951E+02  0.10500000000E+00 0. -1.
</event>
<event>
11    0  0.3483054E-009  0.9118800E+02  0.7816531E-02  0.1126479E+00
         25   -1    0    0    0    0  0.00000000000E+00  0.00000000000E+00  0.99999998245E-14  0.12500000000E+03  0.12500000000E+03 0.  0.
    3000001    1    3    3    0    0 -0.10053645641E+02 -0.30339145597E+02  0.16075955341E+02  0.35790723468E+02  0.10000000000E+01 0. -1.
    1000022    2    1    0    0    0 -0.13737486459E+02 -0.56296611236E+02  0.21171275145E+02  0.62500000627E+02  0.10000010818E+02 0.  0.
    3000022    2    3    3    0    0 -0.36838408177E+01 -0.25957465638E+02  0.50953198038E+01  0.26709277159E+02  0.24999387325E+00 0.  0.
    1000022    2    1    0    0    0  0.13737486459E+02  0.56296611236E+02 -0.21171275145E+02  0.62499999373E+02  0.10000002975E+02 0.  0.
    3000022    2    5    5    0    0  0.12584066354E+02  0.50048447471E+02 -0.15392784765E+02  0.53853561989E+02  0.24999151693E+00 0.  0.
        -13    1    4    4    0    0 -0.19731837591E+01 -0.14237567952E+02  0.28417945757E+01  0.14652256371E+02  0.10500000000E+00 0.  1.
         13    1    4    4    0    0 -0.17106570586E+01 -0.11719897686E+02  0.22535252281E+01  0.12057020788E+02  0.10500000000E+00 0. -1.
    3000001    1    5    5    0    0  0.11534201045E+01  0.62481637642E+01 -0.57784903798E+01  0.86464373838E+01  0.10000000000E+01 0.  1.
        -13    1    6    6    0    0  0.84935450975E+01  0.33804476273E+02 -0.10342693199E+02  0.36357464874E+02  0.10500000000E+00 0. -1.
         13    1    6    6    0    0  0.40905212565E+01  0.16243971198E+02 -0.50500915659E+01  0.17496097115E+02  0.10500000000E+00 0.  1.
</event>
<event>
11    0  0.3483054E-009  0.9118800E+02  0.7816531E-02  0.1126479E+00
         25   -1    0    0    0    0  0.00000000000E+00  0.00000000000E+00  0.99999998245E-14  0.12500000000E+03  0.12500000000E+03 0.  0.
    3000001    1    3    3    0    0 -0.10491119999E+02  0.43428266971E+02 -0.27296927675E+02  0.52366021726E+02  0.10000000000E+01 0.  1.
    1000022    2    1    0    0    0 -0.13443090695E+02  0.53045846606E+02 -0.28489849065E+02  0.62500000670E+02  0.10000002726E+02 0.  0.
    3000022    2    3    3    0    0 -0.29519706960E+01  0.96175796342E+01 -0.11929213899E+01  0.10133978944E+02  0.24999756428E+00 0.  0.
    1000022    2    1    0    0    0  0.13443090695E+02 -0.53045846606E+02  0.28489849065E+02  0.62499999330E+02  0.99999943472E+01 0.  0.
    3000022    2    5    5    0    0  0.70650130721E+01 -0.10902267649E+02  0.66775314455E+01  0.14609099136E+02  0.25000352267E+00 0.  0.
        -13    1    4    4    0    0 -0.12016714332E+01  0.40171717748E+01 -0.55482297240E+00  0.42309026026E+01  0.10500000000E+00 0.  1.
         13    1    4    4    0    0 -0.17502992628E+01  0.56004078594E+01 -0.63809841747E+00  0.59030763413E+01  0.10500000000E+00 0. -1.
    3000001    1    5    5    0    0  0.63780776229E+01 -0.42143578957E+02  0.21812317619E+02  0.47890900194E+02  0.10000000000E+01 0. -1.
        -13    1    6    6    0    0  0.34697494983E+01 -0.53266758820E+01  0.33418707219E+01  0.71827405949E+01  0.10500000000E+00 0. -1.
         13    1    6    6    0    0  0.35952635738E+01 -0.55755917668E+01  0.33356607236E+01  0.74263585409E+01  0.10500000000E+00 0.  1.
</event>
<event>
11    0  0.3483054E-009  0.9118800E+02  0.7816531E-02  0.1126479E+00
         25   -1    0    0    0    0  0.00000000000E+00  0.00000000000E+00  0.99999998245E-14  0.12500000000E+03  0.12500000000E+03 0.  0.
    3000001    1    3    3    0    0 -0.28684329484E+01 -0.67047804514E+01 -0.20537605475E+02  0.21816856490E+02  0.10000000000E+01 0.  1.
    1000022    2    1    0    0    0 -0.19582091907E+02 -0.23916726868E+02 -0.53392714654E+02  0.62500000353E+02  0.99999959226E+01 0.  0.
    3000022    2    3    3    0    0 -0.16713658959E+02 -0.17211946417E+02 -0.32855109179E+02  0.40683143862E+02  0.25000024919E+00 0.  0.
    1000022    2    1    0    0    0  0.19582091907E+02  0.23916726868E+02  0.53392714654E+02  0.62499999647E+02  0.99999915136E+01 0.  0.
    3000022    2    5    5    0    0  0.60177196562E+01  0.73198082762E+01  0.84555215803E+01  0.12702397068E+02  0.25000604438E+00 0.  0.
        -13    1    4    4    0    0 -0.81779920894E+01 -0.84544681281E+01 -0.15999868786E+02  0.19858610528E+02  0.10500000000E+00 0. -1.
         13    1    4    4    0    0 -0.85356668697E+01 -0.87574782888E+01 -0.16855240393E+02  0.20824533334E+02  0.10500000000E+00 0.  1.
    3000001    1    5    5    0    0  0.13564372251E+02  0.16596918592E+02  0.44937193073E+02  0.49797602579E+02  0.10000000000E+01 0. -1.
        -13    1    6    6    0    0  0.31971484220E+01  0.39722415442E+01  0.44940915811E+01  0.67976720322E+01  0.10500000000E+00 0.  1.
         13    1    6    6    0    0  0.28205712342E+01  0.33475667320E+01  0.39614299991E+01  0.59047250360E+01  0.10500000000E+00 0. -1.
</event>
<event>
11    0  0.3483054E-009  0.9118800E+02  0.7816531E-02  0.1126479E+00
         25   -1    0    0    0    0  0.00000000000E+00  0.00000000000E+00  0.99999998245E-14  0.12500000000E+03  0.12500000000E+03 0.  0.
    3000001    1    3    3    0    0  0.38828825226E+01 -0.50283941859E+01  0.49614454457E+01  0.81226513949E+01  0.10000000000E+01 0.  1.
    1000022    2    1    0    0    0  0.41920813911E+02 -0.42069353328E+02  0.16705235599E+02  0.62499999957E+02  0.99999984946E+01 0.  0.
    3000022    2    3    3    0    0  0.38037931388E+02 -0.37040959142E+02  0.11743790154E+02  0.54377348563E+02  0.25010212528E+00 0.  0.
    1000022    2    1    0    0    0 -0.41920813911E+02  0.42069353328E+02 -0.16705235599E+02  0.62500000043E+02  0.99999990260E+01 0.  0.
    3000022    2    5    5    0    0 -0.12284656418E+00  0.14821590673E+01  0.73276441637E+00  0.16766964756E+01  0.24996120130E+00 0.  0.
        -13    1    4    4    0    0  0.14138267279E+02 -0.13848497986E+02  0.43613591357E+01  0.20265832740E+02  0.10500000000E+00 0. -1.
         13    1    4    4    0    0  0.23899664109E+02 -0.23192461156E+02  0.73824310180E+01  0.34111515823E+02  0.10500000000E+00 0.  1.
    3000001    1    5    5    0    0 -0.41797967346E+02  0.40587194261E+02 -0.17438000016E+02  0.60823303567E+02  0.10000000000E+01 0.  1.
        -13    1    6    6    0    0 -0.13297279468E+00  0.97150464921E+00  0.45879009371E+00  0.10876655725E+01  0.10500000000E+00 0. -1.
         13    1    6    6    0    0  0.10126230506E-01  0.51065441808E+00  0.27397432266E+00  0.58903090303E+00  0.10500000000E+00 0.  1.
</event>
<event>
11    0  0.3483054E-009  0.9118800E+02  0.7816531E-02  0.1126479E+00
         25   -1    0    0    0    0  0.00000000000E+00  0.00000000000E+00  0.99999998245E-14  0.12500000000E+03  0.12500000000E+03 0.  0.
    3000001    1    3    3    0    0 -0.15497358733E+02  0.11815411886E+02 -0.24157824212E+02  0.31054348429E+02  0.10000000000E+01 0. -1.
    1000022    2    1    0    0    0 -0.21894869363E+02  0.25564052362E+02 -0.51704388734E+02  0.62499999511E+02  0.10000002344E+02 0.  0.
    3000022    2    3    3    0    0 -0.63975106297E+01  0.13748640476E+02 -0.27546564522E+02  0.31445651081E+02  0.24999546846E+00 0.  0.
    1000022    2    1    0    0    0  0.21894869363E+02 -0.25564052362E+02  0.51704388734E+02  0.62500000489E+02  0.10000008459E+02 0.  0.
    3000022    2    5    5    0    0  0.65211738816E+01 -0.57286948487E+01  0.21689599793E+02  0.23363323629E+02  0.24999675107E+00 0.  0.
        -13    1    4    4    0    0 -0.17681947633E+01  0.37197748649E+01 -0.75121791198E+01  0.85677942257E+01  0.10500000000E+00 0.  1.
         13    1    4    4    0    0 -0.46293158664E+01  0.10028865611E+02 -0.20034385403E+02  0.22877856856E+02  0.10500000000E+00 0. -1.
    3000001    1    5    5    0    0  0.15373695481E+02 -0.19835357513E+02  0.30014788942E+02  0.39136676860E+02  0.10000000000E+01 0.  1.
        -13    1    6    6    0    0  0.34287766256E+01 -0.30945040682E+01  0.11468213354E+02  0.12363794204E+02  0.10500000000E+00 0.  1.
         13    1    6    6    0    0  0.30923972559E+01 -0.26341907804E+01  0.10221386439E+02  0.10999529426E+02  0.10500000000E+00 0. -1.
</event>
<event>
11    0  0.3483054E-009  0.9118800E+02  0.7816531E-02  0.1126479E+00
         25   -1    0    0    0    0  0.00000000000E+00  0.00000000000E+00  0.99999998245E-14  0.12500000000E+03  0.12500000000E+03 0.  0.
    3000001    1    3    3    0    0 -0.33381391142E+01 -0.24166318848E+01  0.15044189610E+02  0.15630448600E+02  0.10000000000E+01 0.  1.
    1000022    2    1    0    0    0  0.15805080250E+01 -0.17640830648E+02  0.59097829775E+02  0.62500001875E+02  0.99999919344E+01 0.  0.
    3000022    2    3    3    0    0  0.49186471392E+01 -0.15224198763E+02  0.44053640165E+02  0.46869553275E+02  0.24998951059E+00 0.  0.
    1000022    2    1    0    0    0 -0.15805080250E+01  0.17640830648E+02 -0.59097829775E+02  0.62499998125E+02  0.99999684947E+01 0.  0.
    3000022    2    5    5    0    0  0.30472022536E+01  0.12549102591E+02 -0.31622776581E+02  0.34158862913E+02  0.24999890103E+00 0.  0.
        -13    1    4    4    0    0  0.17103036722E+01 -0.52729088032E+01  0.15428044335E+02  0.16394031929E+02  0.10500000000E+00 0.  1.
         13    1    4    4    0    0  0.32083434670E+01 -0.99512899601E+01  0.28625595830E+02  0.30475521346E+02  0.10500000000E+00 0. -1.
    3000001    1    5    5    0    0 -0.46277102786E+01  0.50917280569E+01 -0.27475053195E+02  0.28341135211E+02  0.10000000000E+01 0.  1.
        -13    1    6    6    0    0  0.95275819684E+00  0.37479648478E+01 -0.95223245181E+01  0.10278165104E+02  0.10500000000E+00 0.  1.
         13    1    6    6    0    0  0.20944440567E+01  0.88011377433E+01 -0.22100452063E+02  0.23880697809E+02  0.10500000000E+00 0. -1.
</event>
<event>
11    0  0.3483054E-009  0.9118800E+02  0.7816531E-02  0.1126479E+00
         25   -1    0    0    0    0  0.00000000000E+00  0.00000000000E+00  0.99999998245E-14  0.12500000000E+03  0.12500000000E+03 0.  0.
    3000001    1    3    3    0    0  0.39576846103E+02 -0.12256902921E+02 -0.35792608315E+02  0.54760106160E+02  0.10000000000E+01 0. -1.
    1000022    2    1    0    0    0  0.45744349413E+02 -0.16356388322E+02 -0.38028582845E+02  0.62500000012E+02  0.99999973041E+01 0.  0.
    3000022    2    3    3    0    0  0.61675033097E+01 -0.40994854011E+01 -0.22359745309E+01  0.77398938518E+01  0.24999421022E+00 0.  0.
    1000022    2    1    0    0    0 -0.45744349413E+02  0.16356388322E+02  0.38028582845E+02  0.62499999988E+02  0.99999971590E+01 0.  0.
    3000022    2    5    5    0    0 -0.26323512330E+02  0.51748197081E+01  0.24319230679E+02  0.36210406486E+02  0.24999341954E+00 0.  0.
        -13    1    4    4    0    0  0.45908830277E+01 -0.30163053222E+01 -0.16678655653E+01  0.57416988178E+01  0.10500000000E+00 0. -1.
         13    1    4    4    0    0  0.15766202820E+01 -0.10831800790E+01 -0.56810896559E+00  0.19981950340E+01  0.10500000000E+00 0.  1.
    3000001    1    5    5    0    0 -0.19420837083E+02  0.11181568614E+02  0.13709352167E+02  0.26289593502E+02  0.10000000000E+01 0. -1.
        -13    1    6    6    0    0 -0.17309234241E+02  0.34465567044E+01  0.16045258849E+02  0.23852666510E+02  0.10500000000E+00 0. -1.
         13    1    6    6    0    0 -0.90142780887E+01  0.17282630037E+01  0.82739718297E+01  0.12357739976E+02  0.10500000000E+00 0.  1.
</event>
<event>
11    0  0.3483054E-009  0.9118800E+02  0.7816531E-02  0.1126479E+00
         25   -1    0    0    0    0  0.00000000000E+00  0.00000000000E+00  0.99999998245E-14  0.12500000000E+03  0.12500000000E+03 0.  0.
    3000001    1    3    3    0    0  0.48904049796E+02 -0.81124568563E+01 -0.20437863549E+02  0.53629509685E+02  0.10000000000E+01 0. -1.
    1000022    2    1    0    0    0  0.55450531775E+02 -0.66086101840E+01 -0.26226222237E+02  0.62499999349E+02  0.99999991516E+01 0.  0.
    3000022    2    3    3    0    0  0.65464819797E+01  0.15038466724E+01 -0.57883586880E+01  0.88704896632E+01  0.25001887749E+00 0.  0.
    1000022    2    1    0    0    0 -0.55450531775E+02  0.66086101840E+01  0.26226222237E+02  0.62500000651E+02  0.10000007295E+02 0.  0.
    3000022    2    5    5    0    0 -0.11389490147E+02 -0.20541313736E+01  0.31178836397E+01  0.11988479259E+02  0.24999009086E+00 0.  0.
        -13    1    4    4    0    0  0.41387499234E+01  0.89304830841E+00 -0.36215379132E+01  0.55725531013E+01  0.10500000000E+00 0. -1.
         13    1    4    4    0    0  0.24077320562E+01  0.61079836395E+00 -0.21668207748E+01  0.32979365619E+01  0.10500000000E+00 0.  1.
    3000001    1    5    5    0    0 -0.44061041629E+02  0.86627415576E+01  0.23108338597E+02  0.50511521393E+02  0.10000000000E+01 0. -1.
        -13    1    6    6    0    0 -0.36555170534E+01 -0.70603814969E+00  0.10262431971E+01  0.38633528050E+01  0.10500000000E+00 0. -1.
         13    1    6    6    0    0 -0.77339730933E+01 -0.13480932239E+01  0.20916404426E+01  0.81251264537E+01  0.10500000000E+00 0.  1.
</event>
<event>
11    0  0.3483054E-009  0.9118800E+02  0.7816531E-02  0.1126479E+00
         25   -1    0    0    0    0  0.00000000000E+00  0.00000000000E+00  0.99999998245E-14  0.12500000000E+03  0.12500000000E+03 0.  0.
    3000001    1    3    3    0    0 -0.12287252014E+02  0.13936972410E+02  0.47191177837E+02  0.50726945775E+02  0.10000000000E+01 0.  1.
    1000022    2    1    0    0    0 -0.10369910343E+02  0.16979646430E+02  0.58398685993E+02  0.62499999797E+02  0.10000000776E+02 0.  0.
    3000022    2    3    3    0    0  0.19173416704E+01  0.30426740201E+01  0.11207508156E+02  0.11773054022E+02  0.24999534322E+00 0.  0.
    1000022    2    1    0    0    0  0.10369910343E+02 -0.16979646430E+02 -0.58398685993E+02  0.62500000203E+02  0.10000003312E+02 0.  0.
    3000022    2    5    5    0    0  0.47779467039E+01 -0.45564003165E+01 -0.33058820000E+02  0.33712573957E+02  0.25000887762E+00 0.  0.
        -13    1    4    4    0    0  0.12276865181E+01  0.18500957182E+01  0.70147772937E+01  0.73585456330E+01  0.10500000000E+00 0.  1.
         13    1    4    4    0    0  0.68965515233E+00  0.11925783019E+01  0.41927308624E+01  0.44145083894E+01  0.10500000000E+00 0. -1.
    3000001    1    5    5    0    0  0.55919636396E+01 -0.12423246113E+02 -0.25339865993E+02  0.28787426246E+02  0.10000000000E+01 0.  1.
        -13    1    6    6    0    0  0.15489590332E+01 -0.14286852483E+01 -0.10372381155E+02  0.10584787738E+02  0.10500000000E+00 0. -1.
         13    1    6    6    0    0  0.32289876706E+01 -0.31277150682E+01 -0.22686438845E+02  0.23127786219E+02  0.10500000000E+00 0.  1.
</event>
<event>
11    0  0.3483054E-009  0.9118800E+02  0.7816531E-02  0.1126479E+00
         25   -1    0    0    0    0  0.00000000000E+00  0.00000000000E+00  0.99999998245E-14  0.12500000000E+03  0.12500000000E+03 0.  0.
    3000001    1    3    3    0    0 -0.78328899296E+01 -0.91751243962E+01  0.12693163259E+02  0.17540053189E+02  0.10000000000E+01 0.  1.
    1000022    2    1    0    0    0 -0.16476558493E+02 -0.25835065112E+02  0.53547387287E+02  0.62499999345E+02  0.99999831870E+01 0.  0.
    3000022    2    3    3    0    0 -0.86436685634E+01 -0.16659940715E+02  0.40854224028E+02  0.44959946156E+02  0.25001315609E+00 0.  0.
    1000022    2    1    0    0    0  0.16476558493E+02  0.25835065112E+02 -0.53547387287E+02  0.62500000655E+02  0.99999913732E+01 0.  0.
    3000022    2    5    5    0    0  0.99522015399E+01  0.18707554986E+02 -0.44206023297E+02  0.49022993738E+02  0.24998044852E+00 0.  0.
        -13    1    4    4    0    0 -0.54982579833E+01 -0.10582198160E+02  0.25817251540E+02  0.28438622696E+02  0.10500000000E+00 0. -1.
         13    1    4    4    0    0 -0.31454105801E+01 -0.60777425556E+01  0.15036972488E+02  0.16521323460E+02  0.10500000000E+00 0.  1.
    3000001    1    5    5    0    0  0.65243569530E+01  0.71275101261E+01 -0.93413639899E+01  0.13477006917E+02  0.10000000000E+01 0. -1.
        -13    1    6    6    0    0  0.60423488684E+01  0.11228153461E+02 -0.26564224733E+02  0.29466090183E+02  0.10500000000E+00 0.  1.
         13    1    6    6    0    0  0.39098526716E+01  0.74794015244E+01 -0.17641798565E+02  0.19556903555E+02  0.10500000000E+00 0. -1.
</event>
<event>
11    0  0.3483054E-009  0.9118800E+02  0.7816531E-02  0.1126479E+00
         25   -1    0    0    0    0  0.00000000000E+00  0.00000000000E+00  0.99999998245E-14  0.12500000000E+03  0.12500000000E+03 0.  0.
    3000001    1    3    3    0    0  0.12601260047E+00 -0.33272362168E+01 -0.13095705319E+01  0.37150174961E+01  0.10000000000E+01 0. -1.
    1000022    2    1    0    0    0 -0.79268705447E+01 -0.59873154045E+02  0.12594450329E+02  0.62499998946E+02  0.99999918624E+01 0.  0.
    3000022    2    3    3    0    0 -0.80528831452E+01 -0.56545917828E+02  0.13904020861E+02  0.58784981450E+02  0.24999600398E+00 0.  0.
    1000022    2    1    0    0    0  0.79268705447E+01  0.59873154045E+02 -0.12594450329E+02  0.62500001054E+02  0.10000005038E+02 0.  0.
    3000022    2    5    5    0    0  0.57950749611E+01  0.48990691992E+02 -0.63657454430E+01  0.49741893933E+02  0.25000277611E+00 0.  0.
        -13    1    4    4    0    0 -0.47737108186E+01 -0.33719381711E+02  0.83487330926E+01  0.35064189528E+02  0.10500000000E+00 0. -1.
         13    1    4    4    0    0 -0.32791723266E+01 -0.22826536117E+02  0.55552877686E+01  0.23720791922E+02  0.10500000000E+00 0.  1.
    3000001    1    5    5    0    0  0.21317955836E+01  0.10882462053E+02 -0.62287048862E+01  0.12758107121E+02  0.10000000000E+01 0. -1.
        -13    1    6    6    0    0  0.37626918992E+01  0.31321905060E+02 -0.40603093911E+01  0.31807494781E+02  0.10500000000E+00 0.  1.
         13    1    6    6    0    0  0.20323830620E+01  0.17668786932E+02 -0.23054360519E+01  0.17934399152E+02  0.10500000000E+00 0. -1.
</event>
<event>
11    0  0.3483054E-009  0.9118800E+02  0.7816531E-02  0.1126479E+00
         25   -1    0    0    0    0  0.00000000000E+00  0.00000000000E+00  0.99999998245E-14  0.12500000000E+03  0.12500000000E+03 0.  0.
    3000001    1    3    3    0    0 -0.78051011085E+00  0.27735532359E+02 -0.13544318519E+02  0.30892029966E+02  0.10000000000E+01 0.  1.
    1000022    2    1    0    0    0  0.82727204958E+01  0.54423427101E+02 -0.27855029383E+02  0.62499998220E+02  0.99999896885E+01 0.  0.
    3000022    2    3    3    0    0  0.90532306066E+01  0.26687894741E+02 -0.14310710864E+02  0.31607968254E+02  0.25000309646E+00 0.  0.
    1000022    2    1    0    0    0 -0.82727204958E+01 -0.54423427101E+02  0.27855029383E+02  0.62500001780E+02  0.10000011939E+02 0.  0.
    3000022    2    5    5    0    0  0.13468407543E+01 -0.19938010258E+02  0.12180105340E+02  0.23404181323E+02  0.25000847003E+00 0.  0.
        -13    1    4    4    0    0  0.41467577284E+01  0.12185998016E+02 -0.64627682980E+01  0.14403907331E+02  0.10500000000E+00 0.  1.
         13    1    4    4    0    0  0.49064728782E+01  0.14501896725E+02 -0.78479425663E+01  0.17204060923E+02  0.10500000000E+00 0.  1.
    3000001    1    5    5    0    0 -0.96195612501E+01 -0.34485416843E+02  0.15674924043E+02  0.39095820457E+02  0.10000000000E+01 0. -1.
        -13    1    6    6    0    0  0.64270705449E+00 -0.10372978519E+02  0.62933985403E+01  0.12150294067E+02  0.10500000000E+00 0.  1.
         13    1    6    6    0    0  0.70413369982E+00 -0.95650317384E+01  0.58867068000E+01  0.11253887256E+02  0.10500000000E+00 0. -1.
</event>
<event>
11    0  0.3483054E-009  0.9118800E+02  0.7816531E-02  0.1126479E+00
         25   -1    0    0    0    0  0.00000000000E+00  0.00000000000E+00  0.99999998245E-14  0.12500000000E+03  0.12500000000E+03 0.  0.
    3000001    1    3    3    0    0 -0.18930139273E+01 -0.28043227042E+01 -0.69403098203E+01  0.77856038918E+01  0.10000000000E+01 0.  1.
    1000022    2    1    0    0    0  0.90667304682E+01 -0.29682274980E+02 -0.53319855555E+02  0.62499999425E+02  0.99999941188E+01 0.  0.
    3000022    2    3    3    0    0  0.10959744395E+02 -0.26877952276E+02 -0.46379545735E+02  0.54714395533E+02  0.25000055057E+00 0.  0.
    1000022    2    1    0    0    0 -0.90667304682E+01  0.29682274980E+02  0.53319855555E+02  0.62500000575E+02  0.10000001304E+02 0.  0.
    3000022    2    5    5    0    0  0.19906395064E+01  0.75909229981E+01  0.11703152564E+02  0.14092942918E+02  0.25000509635E+00 0.  0.
        -13    1    4    4    0    0  0.40239733031E+01 -0.10005482681E+02 -0.17175478726E+02  0.20280782512E+02  0.10500000000E+00 0.  1.
         13    1    4    4    0    0  0.69357710924E+01 -0.16872469595E+02 -0.29204067008E+02  0.34433613022E+02  0.10500000000E+00 0. -1.
    3000001    1    5    5    0    0 -0.11057369975E+02  0.22091351982E+02  0.41616702991E+02  0.48407057657E+02  0.10000000000E+01 0.  1.
        -13    1    6    6    0    0  0.50205273742E+00  0.18864178911E+01  0.28698421725E+01  0.34724124907E+01  0.10500000000E+00 0.  1.
         13    1    6    6    0    0  0.14885867690E+01  0.57045051070E+01  0.88333103915E+01  0.10620530427E+02  0.10500000000E+00 0. -1.
</event>
<event>
11    0  0.3483054E-009  0.9118800E+02  0.7816531E-02  0.1126479E+00
         25   -1    0    0    0    0  0.00000000000E+00  0.00000000000E+00  0.99999998245E-14  0.12500000000E+03  0.12500000000E+03 0.  0.
    3000001    1    3    3    0    0  0.21456180740E+02  0.27668586587E+02 -0.69390832680E+01  0.35708111855E+02  0.10000000000E+01 0. -1.
    1000022    2    1    0    0    0  0.35590964145E+02  0.46173739557E+02 -0.20187096130E+02  0.62499997470E+02  0.99999940125E+01 0.  0.
    3000022    2    3    3    0    0  0.14134783405E+02  0.18505152969E+02 -0.13248012862E+02  0.26791885615E+02  0.25000339467E+00 0.  0.
    1000022    2    1    0    0    0 -0.35590964145E+02 -0.46173739557E+02  0.20187096130E+02  0.62500002530E+02  0.10000025635E+02 0.  0.
    3000022    2    5    5    0    0 -0.66517441463E+01 -0.15917914109E+02  0.65721190483E+01  0.18462960979E+02  0.24997911130E+00 0.  0.
        -13    1    4    4    0    0  0.68800416438E+01  0.90838204722E+01 -0.64262418996E+01  0.13082751138E+02  0.10500000000E+00 0. -1.
         13    1    4    4    0    0  0.72547417610E+01  0.94213324972E+01 -0.68217709622E+01  0.13709134477E+02  0.10500000000E+00 0.  1.
    3000001    1    5    5    0    0 -0.28939219998E+02 -0.30255825448E+02  0.13614977082E+02  0.44037041551E+02  0.10000000000E+01 0.  1.
        -13    1    6    6    0    0 -0.50549272490E+01 -0.12060919336E+02  0.49646502779E+01  0.13988453885E+02  0.10500000000E+00 0. -1.
         13    1    6    6    0    0 -0.15968168973E+01 -0.38569947730E+01  0.16074687703E+01  0.44745070935E+01  0.10500000000E+00 0.  1.
</event>
<event>
11    0  0.3483054E-009  0.9118800E+02  0.7816531E-02  0.1126479E+00
         25   -1    0    0    0    0  0.00000000000E+00  0.00000000000E+00  0.99999998245E-14  0.12500000000E+03  0.12500000000E+03 0.  0.
    3000001    1    3    3    0    0  0.10973670370E+02 -0.64163951077E+01 -0.95982240440E+01  0.15959870688E+02  0.10000000000E+01 0.  1.
    1000022    2    1    0    0    0  0.52840462392E+02 -0.19053472383E+02 -0.25516675722E+02  0.62499999615E+02  0.99999968124E+01 0.  0.
    3000022    2    3    3    0    0  0.41866792022E+02 -0.12637077276E+02 -0.15918451678E+02  0.46540128927E+02  0.25000084492E+00 0.  0.
    1000022    2    1    0    0    0 -0.52840462392E+02  0.19053472383E+02  0.25516675722E+02  0.62500000385E+02  0.10000001628E+02 0.  0.
    3000022    2    5    5    0    0 -0.20786356789E+01  0.28961986627E+01  0.39962951842E+00  0.35959550627E+01  0.24999216349E+00 0.  0.
        -13    1    4    4    0    0  0.11689936971E+02 -0.35010145008E+01 -0.44107864315E+01  0.12976046812E+02  0.10500000000E+00 0.  1.
         13    1    4    4    0    0  0.30176855051E+02 -0.91360627750E+01 -0.11507665247E+02  0.33564082115E+02  0.10500000000E+00 0. -1.
    3000001    1    5    5    0    0 -0.50761826713E+02  0.16157273721E+02  0.25117046204E+02  0.58904045323E+02  0.10000000000E+01 0. -1.
        -13    1    6    6    0    0 -0.96777964977E+00  0.12747863611E+01  0.23068849814E+00  0.16204690371E+01  0.10500000000E+00 0.  1.
         13    1    6    6    0    0 -0.11108560291E+01  0.16214123016E+01  0.16894102028E+00  0.19754860256E+01  0.10500000000E+00 0. -1.
</event>
<event>
11    0  0.3483054E-009  0.9118800E+02  0.7816531E-02  0.1126479E+00
         25   -1    0    0    0    0  0.00000000000E+00  0.00000000000E+00  0.99999998245E-14  0.12500000000E+03  0.12500000000E+03 0.  0.
    3000001    1    3    3    0    0 -0.82611648343E+01 -0.92803700494E+01 -0.91578910933E+01  0.15467355364E+02  0.10000000000E+01 0. -1.
    1000022    2    1    0    0    0 -0.43320547391E+02 -0.37348940934E+02 -0.23122211380E+02  0.62500000642E+02  0.10000010298E+02 0.  0.
    3000022    2    3    3    0    0 -0.35059382557E+02 -0.28068570885E+02 -0.13964320286E+02  0.47032645278E+02  0.25000801046E+00 0.  0.
    1000022    2    1    0    0    0  0.43320547391E+02  0.37348940934E+02  0.23122211380E+02  0.62499999358E+02  0.10000002273E+02 0.  0.
    3000022    2    5    5    0    0  0.29577072113E+02  0.31084141565E+02  0.17819534856E+02  0.46461009297E+02  0.25002159987E+00 0.  0.
        -13    1    4    4    0    0 -0.12721682241E+02 -0.10111770234E+02 -0.50653722068E+01  0.17022282952E+02  0.10500000000E+00 0. -1.
         13    1    4    4    0    0 -0.22337700316E+02 -0.17956800651E+02 -0.88989480794E+01  0.30010362326E+02  0.10500000000E+00 0.  1.
    3000001    1    5    5    0    0  0.13743475278E+02  0.62647993695E+01  0.53026765230E+01  0.16038990061E+02  0.10000000000E+01 0. -1.
        -13    1    6    6    0    0  0.16635998093E+02  0.17445455431E+02  0.10076884992E+02  0.26127667019E+02  0.10500000000E+00 0.  1.
         13    1    6    6    0    0  0.12941074020E+02  0.13638686134E+02  0.77426498643E+01  0.20333342278E+02  0.10500000000E+00 0. -1.
</event>
<event>
11    0  0.3483054E-009  0.9118800E+02  0.7816531E-02  0.1126479E+00
         25   -1    0    0    0    0  0.00000000000E+00  0.00000000000E+00  0.99999998245E-14  0.12500000000E+03  0.12500000000E+03 0.  0.
    3000001    1    3    3    0    0 -0.22132262828E+02 -0.21830699082E+02 -0.35941755964E+01  0.31310295089E+02  0.10000000000E+01 0.  1.
    1000022    2    1    0    0    0 -0.47848198905E+02 -0.38939214258E+02  0.73300148664E+00  0.62499998986E+02  0.10000001832E+02 0.  0.
    3000022    2    3    3    0    0 -0.25715936076E+02 -0.17108515176E+02  0.43271770830E+01  0.31189703897E+02  0.25001581068E+00 0.  0.
    1000022    2    1    0    0    0  0.47848198905E+02  0.38939214258E+02 -0.73300148664E+00  0.62500001014E+02  0.10000014505E+02 0.  0.
    3000022    2    5    5    0    0  0.15242957578E+02  0.98363515158E+01  0.38425157374E+01  0.18545322769E+02  0.25000507232E+00 0.  0.
        -13    1    4    4    0    0 -0.95638954331E+01 -0.64346482064E+01  0.16112029316E+01  0.11639578742E+02  0.10500000000E+00 0.  1.
         13    1    4    4    0    0 -0.16152040643E+02 -0.10673866969E+02  0.27159741514E+01  0.19550125156E+02  0.10500000000E+00 0. -1.
    3000001    1    5    5    0    0  0.32605241326E+02  0.29102862742E+02 -0.45755172241E+01  0.43954678245E+02  0.10000000000E+01 0. -1.
        -13    1    6    6    0    0  0.11720261211E+02  0.75689555416E+01  0.29475642006E+01  0.14260181295E+02  0.10500000000E+00 0. -1.
         13    1    6    6    0    0  0.35226963672E+01  0.22673959743E+01  0.89495153683E+00  0.42851414741E+01  0.10500000000E+00 0.  1.
</event>
<event>
11    0  0.3483054E-009  0.9118800E+02  0.7816531E-02  0.1126479E+00
         25   -1    0    0    0    0  0.00000000000E+00  0.00000000000E+00  0.99999998245E-14  0.12500000000E+03  0.12500000000E+03 0.  0.
    3000001    1    3    3    0    0 -0.47829449421E+01 -0.24423891757E+01 -0.21645302302E+02  0.22323999170E+02  0.10000000000E+01 0.  1.
    1000022    2    1    0    0    0 -0.21797241309E+01 -0.13823936509E+02 -0.60086584476E+02  0.62500000172E+02  0.99999984799E+01 0.  0.
    3000022    2    3    3    0    0  0.26032208112E+01 -0.11381547333E+02 -0.38441282174E+02  0.40176001002E+02  0.25000602895E+00 0.  0.
    1000022    2    1    0    0    0  0.21797241309E+01  0.13823936509E+02  0.60086584476E+02  0.62499999828E+02  0.99999963315E+01 0.  0.
    3000022    2    5    5    0    0  0.39138214692E+01  0.83958874990E+01  0.50174534303E+02  0.51023086120E+02  0.24999858768E+00 0.  0.
        -13    1    4    4    0    0  0.85461210453E+00 -0.39062834637E+01 -0.13306088065E+02  0.13894330388E+02  0.10500000000E+00 0. -1.
         13    1    4    4    0    0  0.17486087067E+01 -0.74752638695E+01 -0.25135194109E+02  0.26281670614E+02  0.10500000000E+00 0.  1.
    3000001    1    5    5    0    0 -0.17340973383E+01  0.54280490099E+01  0.99120501733E+01  0.11476913708E+02  0.10000000000E+01 0.  1.
        -13    1    6    6    0    0  0.14413768738E+01  0.29846248721E+01  0.17759359754E+02  0.18066306673E+02  0.10500000000E+00 0. -1.
         13    1    6    6    0    0  0.24724445954E+01  0.54112626270E+01  0.32415174548E+02  0.32956779447E+02  0.10500000000E+00 0.  1.
</event>
<event>
11    0  0.3483054E-009  0.9118800E+02  0.7816531E-02  0.1126479E+00
         25   -1    0    0    0    0  0.00000000000E+00  0.00000000000E+00  0.99999998245E-14  0.12500000000E+03  0.12500000000E+03 0.  0.
    3000001    1    3    3    0    0 -0.13823440765E+02 -0.25056863157E+02  0.44059973727E+02  0.52547266253E+02  0.10000000000E+01 0.  1.
    1000022    2    1    0    0    0 -0.20214910702E+02 -0.28264744942E+02  0.50977558617E+02  0.62499998488E+02  0.99999953594E+01 0.  0.
    3000022    2    3    3    0    0 -0.63914699374E+01 -0.32078817850E+01  0.69175848895E+01  0.99527322351E+01  0.25000946512E+00 0.  0.
    1000022    2    1    0    0    0  0.20214910702E+02  0.28264744942E+02 -0.50977558617E+02  0.62500001512E+02  0.10000014257E+02 0.  0.
    3000022    2    5    5    0    0  0.66040462638E+01  0.13506176693E+02 -0.29323725791E+02  0.32954114429E+02  0.25005511321E+00 0.  0.
        -13    1    4    4    0    0 -0.49170793889E+01 -0.24573471662E+01  0.53185576206E+01  0.76494643587E+01  0.10500000000E+00 0.  1.
         13    1    4    4    0    0 -0.14743905485E+01 -0.75053461882E+00  0.15990272689E+01  0.23032678763E+01  0.10500000000E+00 0. -1.
    3000001    1    5    5    0    0  0.13610864438E+02  0.14758568249E+02 -0.21653832825E+02  0.29545887083E+02  0.10000000000E+01 0.  1.
        -13    1    6    6    0    0  0.37516889085E+01  0.76731990246E+01 -0.16514797447E+02  0.18593082387E+02  0.10500000000E+00 0. -1.
         13    1    6    6    0    0  0.28523573553E+01  0.58329776685E+01 -0.12808928344E+02  0.14361032041E+02  0.10500000000E+00 0.  1.
</event>
<event>
11    0  0.3483054E-009  0.9118800E+02  0.7816531E-02  0.1126479E+00
         25   -1    0    0    0    0  0.00000000000E+00  0.00000000000E+00  0.99999998245E-14  0.12500000000E+03  0.12500000000E+03 0.  0.
    3000001    1    3    3    0    0 -0.37825888918E+02 -0.10506191424E+02 -0.11391897054E+02  0.40889524932E+02  0.10000000000E+01 0.  1.
    1000022    2    1    0    0    0 -0.55704686403E+02 -0.22261451672E+02 -0.14410606031E+02  0.62500000346E+02  0.10000007963E+02 0.  0.
    3000022    2    3    3    0    0 -0.17878797485E+02 -0.11755260248E+02 -0.30187089778E+01  0.21610475414E+02  0.25000145017E+00 0.  0.
    1000022    2    1    0    0    0  0.55704686403E+02  0.22261451672E+02  0.14410606031E+02  0.62499999654E+02  0.10000003635E+02 0.  0.
    3000022    2    5    5    0    0  0.17885808033E+02  0.74595398809E+01 -0.43131663471E-01  0.19380692062E+02  0.25000044934E+00 0.  0.
        -13    1    4    4    0    0 -0.63373773563E+01 -0.41704546809E+01 -0.10126231616E+01  0.76545068207E+01  0.10500000000E+00 0. -1.
         13    1    4    4    0    0 -0.11541420129E+02 -0.75848055672E+01 -0.20060858162E+01  0.13955968594E+02  0.10500000000E+00 0.  1.
    3000001    1    5    5    0    0  0.37818878370E+02  0.14801911791E+02  0.14453737695E+02  0.43119307592E+02  0.10000000000E+01 0. -1.
        -13    1    6    6    0    0  0.58098916545E+01  0.23915875606E+01  0.28711465184E-01  0.62838190176E+01  0.10500000000E+00 0.  1.
         13    1    6    6    0    0  0.12075916378E+02  0.50679523203E+01 -0.71843128655E-01  0.13096873044E+02  0.10500000000E+00 0. -1.
</event>
<event>
11    0  0.3483054E-009  0.9118800E+02  0.7816531E-02  0.1126479E+00
         25   -1    0    0    0    0  0.00000000000E+00  0.00000000000E+00  0.99999998245E-14  0.12500000000E+03  0.12500000000E+03 0.  0.
    3000001    1    3    3    0    0 -0.86855178433E+01  0.95643275730E+01 -0.90150253167E+01  0.15785603048E+02  0.10000000000E+01 0. -1.
    1000022    2    1    0    0    0 -0.20741399058E+02  0.47498986241E+02 -0.33464768866E+02  0.62500001898E+02  0.10000007662E+02 0.  0.
    3000022    2    3    3    0    0 -0.12055881214E+02  0.37934658668E+02 -0.24449743549E+02  0.46714398850E+02  0.25000038794E+00 0.  0.
    1000022    2    1    0    0    0  0.20741399058E+02 -0.47498986241E+02  0.33464768866E+02  0.62499998102E+02  0.99999839345E+01 0.  0.
    3000022    2    5    5    0    0  0.10064451059E+02 -0.34430515000E+02  0.22215382682E+02  0.42194066735E+02  0.25000337414E+00 0.  0.
        -13    1    4    4    0    0 -0.72637844984E+01  0.22882572588E+02 -0.14673652883E+02  0.28137196154E+02  0.10500000000E+00 0.  1.
         13    1    4    4    0    0 -0.47920967158E+01  0.15052086081E+02 -0.97760906658E+01  0.18577202696E+02  0.10500000000E+00 0. -1.
    3000001    1    5    5    0    0  0.10676947999E+02 -0.13068471241E+02  0.11249386184E+02  0.20305931366E+02  0.10000000000E+01 0.  1.
        -13    1    6    6    0    0  0.53163310220E+01 -0.17950098799E+02  0.11579647937E+02  0.22012921064E+02  0.10500000000E+00 0.  1.
         13    1    6    6    0    0  0.47481200370E+01 -0.16480416201E+02  0.10635734745E+02  0.20181145672E+02  0.10500000000E+00 0. -1.
</event>
<event>
11    0  0.3483054E-009  0.9118800E+02  0.7816531E-02  0.1126479E+00
         25   -1    0    0    0    0  0.00000000000E+00  0.00000000000E+00  0.99999998245E-14  0.12500000000E+03  0.12500000000E+03 0.  0.
    3000001    1    3    3    0    0  0.13427473909E+02  0.19800247373E+01  0.46313884979E+01  0.14375928247E+02  0.10000000000E+01 0.  1.
    1000022    2    1    0    0    0  0.60751984625E+02  0.10449020554E+02  0.25028787814E+01  0.62499999032E+02  0.99999905181E+01 0.  0.
    3000022    2    3    3    0    0  0.47324510716E+02  0.84689958170E+01 -0.21285097164E+01  0.48124070785E+02  0.24986127359E+00 0.  0.
    1000022    2    1    0    0    0 -0.60751984625E+02 -0.10449020554E+02 -0.25028787814E+01  0.62500000968E+02  0.10000002617E+02 0.  0.
    3000022    2    5    5    0    0 -0.14834248676E+02 -0.53001587555E+01  0.27262218696E+01  0.15988789995E+02  0.25000643050E+00 0.  0.
        -13    1    4    4    0    0  0.23876124264E+02  0.42040408715E+01 -0.10712657049E+01  0.24267301142E+02  0.10500000000E+00 0.  1.
         13    1    4    4    0    0  0.23448386452E+02  0.42649549455E+01 -0.10572440115E+01  0.23856769643E+02  0.10500000000E+00 0. -1.
    3000001    1    5    5    0    0 -0.45917735949E+02 -0.51488617988E+01 -0.52291006510E+01  0.46511210973E+02  0.10000000000E+01 0. -1.
        -13    1    6    6    0    0 -0.51543840112E+01 -0.18957457338E+01  0.92627293431E+00  0.55705056297E+01  0.10500000000E+00 0.  1.
         13    1    6    6    0    0 -0.96798646649E+01 -0.34044130218E+01  0.17999489353E+01  0.10418284366E+02  0.10500000000E+00 0. -1.
</event>
<event>
11    0  0.3483054E-009  0.9118800E+02  0.7816531E-02  0.1126479E+00
         25   -1    0    0    0    0  0.00000000000E+00  0.00000000000E+00  0.99999998245E-14  0.12500000000E+03  0.12500000000E+03 0.  0.
    3000001    1    3    3    0    0 -0.10132452061E+02  0.11996934481E+01 -0.19180358362E+01  0.10429990921E+02  0.10000000000E+01 0. -1.
    1000022    2    1    0    0    0 -0.60905144992E+02  0.22256522051E+01  0.95843354289E+01  0.62500001342E+02  0.10000023398E+02 0.  0.
    3000022    2    3    3    0    0 -0.50772692931E+02  0.10259587569E+01  0.11502371265E+02  0.52070010422E+02  0.25000352085E+00 0.  0.
    1000022    2    1    0    0    0  0.60905144992E+02 -0.22256522051E+01 -0.95843354289E+01  0.62499998658E+02  0.10000006620E+02 0.  0.
    3000022    2    5    5    0    0  0.56946260785E+01  0.21389241473E+01  0.80852450951E+00  0.61416588746E+01  0.24999833519E+00 0.  0.
        -13    1    4    4    0    0 -0.15673720769E+02  0.26887643086E+00  0.35557881534E+01  0.16074590871E+02  0.10500000000E+00 0. -1.
         13    1    4    4    0    0 -0.35098972162E+02  0.75708232607E+00  0.79465831117E+01  0.35995419551E+02  0.10500000000E+00 0.  1.
    3000001    1    5    5    0    0  0.55210518913E+02 -0.43645763524E+01 -0.10392859938E+02  0.56358339783E+02  0.10000000000E+01 0.  1.
        -13    1    6    6    0    0  0.33781031403E+01  0.13364113138E+01  0.48561629140E+00  0.36666639072E+01  0.10500000000E+00 0.  1.
         13    1    6    6    0    0  0.23165229382E+01  0.80251283352E+00  0.32290821811E+00  0.24749949674E+01  0.10500000000E+00 0. -1.
</event>
<event>
11    0  0.3483054E-009  0.9118800E+02  0.7816531E-02  0.1126479E+00
         25   -1    0    0    0    0  0.00000000000E+00  0.00000000000E+00  0.99999998245E-14  0.12500000000E+03  0.12500000000E+03 0.  0.
    3000001    1    3    3    0    0  0.28855169653E+01 -0.87323659308E+01 -0.97528453226E+01  0.13442411048E+02  0.10000000000E+01 0. -1.
    1000022    2    1    0    0    0  0.21728796198E+02 -0.25260685093E+02 -0.51923097470E+02  0.62500001432E+02  0.99999666305E+01 0.  0.
    3000022    2    3    3    0    0  0.18843279233E+02 -0.16528319163E+02 -0.42170252147E+02  0.49057590384E+02  0.25000313361E+00 0.  0.
    1000022    2    1    0    0    0 -0.21728796198E+02  0.25260685093E+02  0.51923097470E+02  0.62499998568E+02  0.99999487244E+01 0.  0.
    3000022    2    5    5    0    0 -0.14788153594E+01 -0.37119129690E+00  0.55975283860E+01  0.58068494031E+01  0.24999622449E+00 0.  0.
        -13    1    4    4    0    0  0.99642262452E+01 -0.86510479774E+01 -0.22217571358E+02  0.25841012709E+02  0.10500000000E+00 0. -1.
         13    1    4    4    0    0  0.88790529873E+01 -0.78772711852E+01 -0.19952680789E+02  0.23216577675E+02  0.10500000000E+00 0.  1.
    3000001    1    5    5    0    0 -0.20249980838E+02  0.25631876390E+02  0.46325569084E+02  0.56693149164E+02  0.10000000000E+01 0.  1.
        -13    1    6    6    0    0 -0.65428100081E+00 -0.20971787850E+00  0.23367004190E+01  0.24378800349E+01  0.10500000000E+00 0.  1.
         13    1    6    6    0    0 -0.82453435862E+00 -0.16147341840E+00  0.32608279670E+01  0.33689693682E+01  0.10500000000E+00 0. -1.
</event>
<event>
11    0  0.3483054E-009  0.9118800E+02  0.7816531E-02  0.1126479E+00
         25   -1    0    0    0    0  0.00000000000E+00  0.00000000000E+00  0.99999998245E-14  0.12500000000E+03  0.12500000000E+03 0.  0.
    3000001    1    3    3    0    0 -0.27005806929E+02 -0.34458667557E+02 -0.33679071767E+02  0.55244848202E+02  0.10000000000E+01 0.  1.
    1000022    2    1    0    0    0 -0.32024345109E+02 -0.39553935690E+02 -0.34873737030E+02  0.62499999665E+02  0.99999957667E+01 0.  0.
    3000022    2    3    3    0    0 -0.50185381802E+01 -0.50952681330E+01 -0.11946652630E+01  0.72551514629E+01  0.25002968963E+00 0.  0.
    1000022    2    1    0    0    0  0.32024345109E+02  0.39553935690E+02  0.34873737030E+02  0.62500000335E+02  0.99999999597E+01 0.  0.
    3000022    2    5    5    0    0 -0.57006317683E+00  0.73590743483E+00 -0.40554450447E-02  0.96387129628E+00  0.24999930189E+00 0.  0.
        -13    1    4    4    0    0 -0.32029489126E+01 -0.31716453810E+01 -0.73317319934E+00  0.45680175240E+01  0.10500000000E+00 0. -1.
         13    1    4    4    0    0 -0.18155892676E+01 -0.19236227520E+01 -0.46149206369E+00  0.26871339389E+01  0.10500000000E+00 0.  1.
    3000001    1    5    5    0    0  0.32594408286E+02  0.38818028256E+02  0.34877792475E+02  0.61536129039E+02  0.10000000000E+01 0.  1.
        -13    1    6    6    0    0 -0.36372250351E+00  0.52674711780E+00  0.33901879899E-01  0.64956210106E+00  0.10500000000E+00 0.  1.
         13    1    6    6    0    0 -0.20634067332E+00  0.20916031703E+00 -0.37957324943E-01  0.31430919522E+00  0.10500000000E+00 0. -1.
</event>
<event>
11    0  0.3483054E-009  0.9118800E+02  0.7816531E-02  0.1126479E+00
         25   -1    0    0    0    0  0.00000000000E+00  0.00000000000E+00  0.99999998245E-14  0.12500000000E+03  0.12500000000E+03 0.  0.
    3000001    1    3    3    0    0 -0.93071041506E+00 -0.34479841319E+01  0.85224830178E+01  0.92944894017E+01  0.10000000000E+01 0.  1.
    1000022    2    1    0    0    0 -0.18278383442E+02 -0.35192852280E+01  0.58819770312E+02  0.62500000369E+02  0.99999998404E+01 0.  0.
    3000022    2    3    3    0    0 -0.17347673027E+02 -0.71301096102E-01  0.50297287294E+02  0.53205510967E+02  0.24988966351E+00 0.  0.
    1000022    2    1    0    0    0  0.18278383442E+02  0.35192852280E+01 -0.58819770312E+02  0.62499999631E+02  0.99999952317E+01 0.  0.
    3000022    2    5    5    0    0  0.11725801221E+02  0.62656391542E+01 -0.30259187050E+02  0.33051982552E+02  0.25000283112E+00 0.  0.
        -13    1    4    4    0    0 -0.10339156604E+02 -0.17024993718E-01  0.29797894377E+02  0.31540830417E+02  0.10500000000E+00 0. -1.
         13    1    4    4    0    0 -0.70085164229E+01 -0.54276102384E-01  0.20499392917E+02  0.21664680549E+02  0.10500000000E+00 0.  1.
    3000001    1    5    5    0    0  0.65525822209E+01 -0.27463539262E+01 -0.28560583262E+02  0.29448017079E+02  0.10000000000E+01 0.  1.
        -13    1    6    6    0    0  0.39393236629E+01  0.21341279902E+01 -0.10080059635E+02  0.11031382526E+02  0.10500000000E+00 0.  1.
         13    1    6    6    0    0  0.77864775578E+01  0.41315111640E+01 -0.20179127415E+02  0.22020600026E+02  0.10500000000E+00 0. -1.
</event>
<event>
11    0  0.3483054E-009  0.9118800E+02  0.7816531E-02  0.1126479E+00
         25   -1    0    0    0    0  0.00000000000E+00  0.00000000000E+00  0.99999998245E-14  0.12500000000E+03  0.12500000000E+03 0.  0.
    3000001    1    3    3    0    0  0.11532031952E+02  0.27853229360E+02 -0.18265289947E+02  0.35262032890E+02  0.10000000000E+01 0.  1.
    1000022    2    1    0    0    0  0.21232567244E+02  0.52573262266E+02 -0.24320365619E+02  0.62500000037E+02  0.10000000188E+02 0.  0.
    3000022    2    3    3    0    0  0.97005352922E+01  0.24720032906E+02 -0.60550756721E+01  0.27237967147E+02  0.25000214755E+00 0.  0.
    1000022    2    1    0    0    0 -0.21232567244E+02 -0.52573262266E+02  0.24320365619E+02  0.62499999963E+02  0.99999997250E+01 0.  0.
    3000022    2    5    5    0    0 -0.18200132404E+02 -0.46780305355E+02  0.24555970946E+02  0.55881123872E+02  0.25001505061E+00 0.  0.
        -13    1    4    4    0    0  0.74124153932E+01  0.18885955133E+02 -0.46419873330E+01  0.20813031366E+02  0.10500000000E+00 0. -1.
         13    1    4    4    0    0  0.22881198990E+01  0.58340777730E+01 -0.14130883391E+01  0.64249357808E+01  0.10500000000E+00 0.  1.
    3000001    1    5    5    0    0 -0.30324348406E+01 -0.57929569107E+01 -0.23560532720E+00  0.66188760905E+01  0.10000000000E+01 0. -1.
        -13    1    6    6    0    0 -0.45443586660E+01 -0.11751880539E+02  0.61724308363E+01  0.14030959316E+02  0.10500000000E+00 0.  1.
         13    1    6    6    0    0 -0.13655773738E+02 -0.35028424816E+02  0.18383540110E+02  0.41850164557E+02  0.10500000000E+00 0. -1.
</event>
<event>
11    0  0.3483054E-009  0.9118800E+02  0.7816531E-02  0.1126479E+00
         25   -1    0    0    0    0  0.00000000000E+00  0.00000000000E+00  0.99999998245E-14  0.12500000000E+03  0.12500000000E+03 0.  0.
    3000001    1    3    3    0    0  0.44363765673E+01 -0.15273294816E+02 -0.67240311623E+01  0.17296461102E+02  0.10000000000E+01 0.  1.
    1000022    2    1    0    0    0  0.12883034072E+01 -0.58524885952E+02 -0.19478911796E+02  0.62500000561E+02  0.10000003200E+02 0.  0.
    3000022    2    3    3    0    0 -0.31480731601E+01 -0.43251591137E+02 -0.12754880633E+02  0.45203539459E+02  0.24999843496E+00 0.  0.
    1000022    2    1    0    0    0 -0.12883034072E+01  0.58524885952E+02  0.19478911796E+02  0.62499999439E+02  0.99999961844E+01 0.  0.
    3000022    2    5    5    0    0 -0.42740771896E+01  0.17044528683E+02  0.82335837791E+01  0.19407166085E+02  0.24999949036E+00 0.  0.
        -13    1    4    4    0    0 -0.21780423933E+01 -0.30401901356E+02 -0.89347258371E+01  0.31762553825E+02  0.10500000000E+00 0. -1.
         13    1    4    4    0    0 -0.97003076687E+00 -0.12849689781E+02 -0.38201547962E+01  0.13440985634E+02  0.10500000000E+00 0.  1.
    3000001    1    5    5    0    0  0.29857737824E+01  0.41480357269E+02  0.11245328017E+02  0.43092833354E+02  0.10000000000E+01 0.  1.
        -13    1    6    6    0    0 -0.23547552909E+01  0.95720104065E+01  0.45642884907E+01  0.10863333288E+02  0.10500000000E+00 0.  1.
         13    1    6    6    0    0 -0.19193218987E+01  0.74725182767E+01  0.36692952884E+01  0.85438327968E+01  0.10500000000E+00 0. -1.
</event>
<event>
11    0  0.3483054E-009  0.9118800E+02  0.7816531E-02  0.1126479E+00
         25   -1    0    0    0    0  0.00000000000E+00  0.00000000000E+00  0.99999998245E-14  0.12500000000E+03  0.12500000000E+03 0.  0.
    3000001    1    3    3    0    0  0.23220521146E+01  0.35980292227E+00  0.17462128197E+02  0.17647869711E+02  0.10000000000E+01 0. -1.
    1000022    2    1    0    0    0  0.16118394542E+02  0.14180629990E+02  0.57839060920E+02  0.62499999211E+02  0.10000001184E+02 0.  0.
    3000022    2    3    3    0    0  0.13796342427E+02  0.13820827067E+02  0.40376932723E+02  0.44852129500E+02  0.24999865967E+00 0.  0.
    1000022    2    1    0    0    0 -0.16118394542E+02 -0.14180629990E+02 -0.57839060920E+02  0.62500000789E+02  0.10000011053E+02 0.  0.
    3000022    2    5    5    0    0  0.13260625555E+01 -0.71768422216E+00 -0.53593388938E+01  0.55730193474E+01  0.25003744488E+00 0.  0.
        -13    1    4    4    0    0  0.90020615603E+01  0.89420001347E+01  0.26192910849E+02  0.29104571505E+02  0.10500000000E+00 0.  1.
         13    1    4    4    0    0  0.47942808667E+01  0.48788269327E+01  0.14184021875E+02  0.15747557995E+02  0.10500000000E+00 0. -1.
    3000001    1    5    5    0    0 -0.17444457097E+02 -0.13462945768E+02 -0.52479722026E+02  0.56926981442E+02  0.10000000000E+01 0.  1.
        -13    1    6    6    0    0  0.70060293324E+00 -0.31700137745E+00 -0.28713931768E+01  0.29744340838E+01  0.10500000000E+00 0. -1.
         13    1    6    6    0    0  0.62545962222E+00 -0.40068284470E+00 -0.24879457170E+01  0.25985852635E+01  0.10500000000E+00 0.  1.
</event>
<event>
11    0  0.3483054E-009  0.9118800E+02  0.7816531E-02  0.1126479E+00
         25   -1    0    0    0    0  0.00000000000E+00  0.00000000000E+00  0.99999998245E-14  0.12500000000E+03  0.12500000000E+03 0.  0.
    3000001    1    3    3    0    0  0.20447313795E+02  0.41175566766E+01 -0.53045893658E+02  0.57008014774E+02  0.10000000000E+01 0.  1.
    1000022    2    1    0    0    0  0.22731325483E+02  0.15674784567E+01 -0.57333061319E+02  0.62500000956E+02  0.10000002618E+02 0.  0.
    3000022    2    3    3    0    0  0.22840116880E+01 -0.25500782199E+01 -0.42871676608E+01  0.54919861824E+01  0.24999471591E+00 0.  0.
    1000022    2    1    0    0    0 -0.22731325483E+02 -0.15674784567E+01  0.57333061319E+02  0.62499999044E+02  0.99999906645E+01 0.  0.
    3000022    2    5    5    0    0 -0.16361850849E+02 -0.55584810122E+01  0.40936105459E+02  0.44434604777E+02  0.24999441259E+00 0.  0.
        -13    1    4    4    0    0  0.12553153812E+01 -0.13675050816E+01 -0.22227058173E+01  0.28978152123E+01  0.10500000000E+00 0. -1.
         13    1    4    4    0    0  0.10286963068E+01 -0.11825731383E+01 -0.20644618435E+01  0.25941709701E+01  0.10500000000E+00 0.  1.
    3000001    1    5    5    0    0 -0.63694746340E+01  0.39910025555E+01  0.16396955860E+02  0.18065394266E+02  0.10000000000E+01 0. -1.
        -13    1    6    6    0    0 -0.11226985505E+02 -0.38649671799E+01  0.28102184975E+02  0.30507818673E+02  0.10500000000E+00 0. -1.
         13    1    6    6    0    0 -0.51348653439E+01 -0.16935138323E+01  0.12833920484E+02  0.13926786104E+02  0.10500000000E+00 0.  1.
</event>
<event>
11    0  0.3483054E-009  0.9118800E+02  0.7816531E-02  0.1126479E+00
         25   -1    0    0    0    0  0.00000000000E+00  0.00000000000E+00  0.99999998245E-14  0.12500000000E+03  0.12500000000E+03 0.  0.
    3000001    1    3    3    0    0 -0.26238693980E+01 -0.19472319026E+02  0.41943704643E+02  0.46328503732E+02  0.10000000000E+01 0. -1.
    1000022    2    1    0    0    0 -0.66950379156E+01 -0.21410551457E+02  0.57471859814E+02  0.62499999060E+02  0.99999982796E+01 0.  0.
    3000022    2    3    3    0    0 -0.40711685176E+01 -0.19382324307E+01  0.15528155171E+02  0.16171495327E+02  0.25000012029E+00 0.  0.
    1000022    2    1    0    0    0  0.66950379156E+01  0.21410551457E+02 -0.57471859814E+02  0.62500000940E+02  0.10000010034E+02 0.  0.
    3000022    2    5    5    0    0 -0.53261432617E+00  0.70419671013E+01 -0.91450706312E+01  0.11557153297E+02  0.24999360291E+00 0.  0.
        -13    1    4    4    0    0 -0.14146412326E+01 -0.61335402264E+00  0.53483755517E+01  0.55671859154E+01  0.10500000000E+00 0.  1.
         13    1    4    4    0    0 -0.26565272850E+01 -0.13248784081E+01  0.10179779619E+02  0.10604309412E+02  0.10500000000E+00 0. -1.
    3000001    1    5    5    0    0  0.72276522417E+01  0.14368584356E+02 -0.48326789183E+02  0.50942847644E+02  0.10000000000E+01 0. -1.
        -13    1    6    6    0    0 -0.39625749220E+00  0.53673813550E+01 -0.69422788091E+01  0.87847630972E+01  0.10500000000E+00 0.  1.
         13    1    6    6    0    0 -0.13635683397E+00  0.16745857462E+01 -0.22027918221E+01  0.27723901996E+01  0.10500000000E+00 0. -1.
</event>
<event>
11    0  0.3483054E-009  0.9118800E+02  0.7816531E-02  0.1126479E+00
         25   -1    0    0    0    0  0.00000000000E+00  0.00000000000E+00  0.99999998245E-14  0.12500000000E+03  0.12500000000E+03 0.  0.
    3000001    1    3    3    0    0  0.56770581112E+01  0.19411090326E+02  0.17994323439E+02  0.27089021623E+02  0.10000000000E+01 0. -1.
    1000022    2    1    0    0    0  0.22245118726E+02  0.38313889378E+02  0.42935423293E+02  0.62500000248E+02  0.10000001562E+02 0.  0.
    3000022    2    3    3    0    0  0.16568060615E+02  0.18902799052E+02  0.24941099854E+02  0.35410978625E+02  0.25000149456E+00 0.  0.
    1000022    2    1    0    0    0 -0.22245118726E+02 -0.38313889378E+02 -0.42935423293E+02  0.62499999752E+02  0.99999984661E+01 0.  0.
    3000022    2    5    5    0    0 -0.20682909937E+01 -0.21152520068E+01 -0.71299133800E+01  0.77233599779E+01  0.25001171110E+00 0.  0.
        -13    1    4    4    0    0  0.62476200512E+01  0.71868944897E+01  0.95149527456E+01  0.13462152854E+02  0.10500000000E+00 0. -1.
         13    1    4    4    0    0  0.10320440563E+02  0.11715904562E+02  0.15426147108E+02  0.21948825771E+02  0.10500000000E+00 0.  1.
    3000001    1    5    5    0    0 -0.20176827732E+02 -0.36198637371E+02 -0.35805509913E+02  0.54776639774E+02  0.10000000000E+01 0.  1.
        -13    1    6    6    0    0 -0.92889402041E+00 -0.10461189562E+01 -0.33849733474E+01  0.36641886598E+01  0.10500000000E+00 0.  1.
         13    1    6    6    0    0 -0.11393969732E+01 -0.10691330506E+01 -0.37449400326E+01  0.40591713181E+01  0.10500000000E+00 0. -1.
</event>
<event>
11    0  0.3483054E-009  0.9118800E+02  0.7816531E-02  0.1126479E+00
         25   -1    0    0    0    0  0.00000000000E+00  0.00000000000E+00  0.99999998245E-14  0.12500000000E+03  0.12500000000E+03 0.  0.
    3000001    1    3    3    0    0 -0.16751652250E+02  0.66561195935E+01 -0.10238572353E+01  0.18082313591E+02  0.10000000000E+01 0. -1.
    1000022    2    1    0    0    0 -0.51940211837E+02  0.28962751202E+02 -0.16420219119E+02  0.62500001493E+02  0.10000001391E+02 0.  0.
    3000022    2    3    3    0    0 -0.35188559587E+02  0.22306631608E+02 -0.15396361884E+02  0.44417687902E+02  0.24999960711E+00 0.  0.
    1000022    2    1    0    0    0  0.51940211837E+02 -0.28962751202E+02  0.16420219119E+02  0.62499998507E+02  0.99999827294E+01 0.  0.
    3000022    2    5    5    0    0  0.40800367695E+02 -0.23382329373E+02  0.16954206033E+02  0.49989108158E+02  0.25000255820E+00 0.  0.
        -13    1    4    4    0    0 -0.12724779635E+02  0.80980345675E+01 -0.56292934300E+01  0.16099631987E+02  0.10500000000E+00 0. -1.
         13    1    4    4    0    0 -0.22463779952E+02  0.14208597041E+02 -0.97670684536E+01  0.28318055915E+02  0.10500000000E+00 0.  1.
    3000001    1    5    5    0    0  0.11139844143E+02 -0.55804218292E+01 -0.53398691373E+00  0.12510890349E+02  0.10000000000E+01 0.  1.
        -13    1    6    6    0    0  0.24040641799E+02 -0.13719590108E+02  0.99370945449E+01  0.29409802512E+02  0.10500000000E+00 0.  1.
         13    1    6    6    0    0  0.16759725896E+02 -0.96627392652E+01  0.70171114878E+01  0.20579305645E+02  0.10500000000E+00 0. -1.
</event>
<event>
11    0  0.3483054E-009  0.9118800E+02  0.7816531E-02  0.1126479E+00
         25   -1    0    0    0    0  0.00000000000E+00  0.00000000000E+00  0.99999998245E-14  0.12500000000E+03  0.12500000000E+03 0.  0.
    3000001    1    3    3    0    0  0.11214160034E+02  0.17969556215E+01  0.26767911916E+01  0.11711176109E+02  0.10000000000E+01 0. -1.
    1000022    2    1    0    0    0  0.58250025552E+02 -0.10342999209E+02  0.17498769308E+02  0.62500000466E+02  0.10000001076E+02 0.  0.
    3000022    2    3    3    0    0  0.47035865517E+02 -0.12139954831E+02  0.14821978116E+02  0.50788824356E+02  0.24999194665E+00 0.  0.
    1000022    2    1    0    0    0 -0.58250025552E+02  0.10342999209E+02 -0.17498769308E+02  0.62499999534E+02  0.99999952539E+01 0.  0.
    3000022    2    5    5    0    0 -0.25336364454E+02  0.92601947923E+01 -0.94543864903E+01  0.28585494567E+02  0.25000878670E+00 0.  0.
        -13    1    4    4    0    0  0.13557547305E+02 -0.34638973060E+01  0.42957550240E+01  0.14637971503E+02  0.10500000000E+00 0.  1.
         13    1    4    4    0    0  0.33478318212E+02 -0.86760575247E+01  0.10526223092E+02  0.36150852854E+02  0.10500000000E+00 0. -1.
    3000001    1    5    5    0    0 -0.32913661098E+02  0.10828044168E+01 -0.80443828173E+01  0.33914504967E+02  0.10000000000E+01 0.  1.
        -13    1    6    6    0    0 -0.16748738588E+02  0.61189962906E+01 -0.61916436390E+01  0.18876171112E+02  0.10500000000E+00 0. -1.
         13    1    6    6    0    0 -0.85876258656E+01  0.31411985017E+01 -0.32627428513E+01  0.97093234548E+01  0.10500000000E+00 0.  1.
</event>
<event>
11    0  0.3483054E-009  0.9118800E+02  0.7816531E-02  0.1126479E+00
         25   -1    0    0    0    0  0.00000000000E+00  0.00000000000E+00  0.99999998245E-14  0.12500000000E+03  0.12500000000E+03 0.  0.
    3000001    1    3    3    0    0 -0.45462980086E+01  0.25176663098E+01 -0.41717322462E+01  0.67387550159E+01  0.10000000000E+01 0. -1.
    1000022    2    1    0    0    0 -0.41510659674E+02 -0.31622966912E+01 -0.45531471666E+02  0.62500001047E+02  0.10000011590E+02 0.  0.
    3000022    2    3    3    0    0 -0.36964361666E+02 -0.56799630009E+01 -0.41359739420E+02  0.55761246031E+02  0.25000196747E+00 0.  0.
    1000022    2    1    0    0    0  0.41510659674E+02  0.31622966912E+01  0.45531471666E+02  0.62499998953E+02  0.99999985054E+01 0.  0.
    3000022    2    5    5    0    0  0.15668379019E+02  0.14633090488E+01  0.24515397131E+02  0.29132568466E+02  0.24994893294E+00 0.  0.
        -13    1    4    4    0    0 -0.16016443138E+02 -0.24034030716E+01 -0.17862628586E+02  0.24111974663E+02  0.10500000000E+00 0.  1.
         13    1    4    4    0    0 -0.20947918527E+02 -0.32765599293E+01 -0.23497110834E+02  0.31649271368E+02  0.10500000000E+00 0. -1.
    3000001    1    5    5    0    0  0.25842280655E+02  0.16989876424E+01  0.21016074536E+02  0.33367430488E+02  0.10000000000E+01 0. -1.
        -13    1    6    6    0    0  0.87774426868E+01  0.77643655070E+00  0.13634178217E+02  0.16234167502E+02  0.10500000000E+00 0.  1.
         13    1    6    6    0    0  0.68909363324E+01  0.68687249810E+00  0.10881218914E+02  0.12898400963E+02  0.10500000000E+00 0. -1.
</event>
<event>
11    0  0.3483054E-009  0.9118800E+02  0.7816531E-02  0.1126479E+00
         25   -1    0    0    0    0  0.00000000000E+00  0.00000000000E+00  0.99999998245E-14  0.12500000000E+03  0.12500000000E+03 0.  0.
    3000001    1    3    3    0    0 -0.18730047881E+02  0.31064868622E+02  0.33294710243E+02  0.49248131805E+02  0.10000000000E+01 0.  1.
    1000022    2    1    0    0    0 -0.27268190790E+02  0.39760743155E+02  0.38493883412E+02  0.62500000510E+02  0.10000003920E+02 0.  0.
    3000022    2    3    3    0    0 -0.85381429089E+01  0.86958745326E+01  0.51991731691E+01  0.13251868705E+02  0.25000860193E+00 0.  0.
    1000022    2    1    0    0    0  0.27268190790E+02 -0.39760743155E+02 -0.38493883412E+02  0.62499999490E+02  0.99999975460E+01 0.  0.
    3000022    2    5    5    0    0  0.63254829174E+00 -0.63064145982E+01 -0.65175672534E+01  0.90946219935E+01  0.24996774862E+00 0.  0.
        -13    1    4    4    0    0 -0.60723852981E+01  0.62201588254E+01  0.36713990739E+01  0.94368657499E+01  0.10500000000E+00 0.  1.
         13    1    4    4    0    0 -0.24657576108E+01  0.24757157072E+01  0.15277740952E+01  0.38150029546E+01  0.10500000000E+00 0. -1.
    3000001    1    5    5    0    0  0.26635642498E+02 -0.33454328557E+02 -0.31976316159E+02  0.53405377497E+02  0.10000000000E+01 0.  1.
        -13    1    6    6    0    0  0.35445133367E+00 -0.33562519751E+01 -0.33770267997E+01  0.47754997722E+01  0.10500000000E+00 0. -1.
         13    1    6    6    0    0  0.27809695806E+00 -0.29501626231E+01 -0.31405404538E+01  0.43191222213E+01  0.10500000000E+00 0.  1.
</event>
<event>
11    0  0.3483054E-009  0.9118800E+02  0.7816531E-02  0.1126479E+00
         25   -1    0    0    0    0  0.00000000000E+00  0.00000000000E+00  0.99999998245E-14  0.12500000000E+03  0.12500000000E+03 0.  0.
    3000001    1    3    3    0    0  0.13772536798E+01 -0.18723233821E+02  0.24551172708E+01  0.18960061003E+02  0.10000000000E+01 0.  1.
    1000022    2    1    0    0    0  0.18761057788E+02 -0.57867000302E+02  0.10280238293E+02  0.62499998041E+02  0.99999721239E+01 0.  0.
    3000022    2    3    3    0    0  0.17383804108E+02 -0.39143766481E+02  0.78251210226E+01  0.43539937038E+02  0.24999737603E+00 0.  0.
    1000022    2    1    0    0    0 -0.18761057788E+02  0.57867000302E+02 -0.10280238293E+02  0.62500001959E+02  0.99999966137E+01 0.  0.
    3000022    2    5    5    0    0 -0.91479498643E-01  0.10965616427E+01  0.11894991465E+01  0.16395818490E+01  0.25000896991E+00 0.  0.
        -13    1    4    4    0    0  0.95054623794E+01 -0.21294337495E+02  0.43113323170E+01  0.23715000226E+02  0.10500000000E+00 0.  1.
         13    1    4    4    0    0  0.78783417285E+01 -0.17849428986E+02  0.35137887056E+01  0.19824936812E+02  0.10500000000E+00 0. -1.
    3000001    1    5    5    0    0 -0.18669578289E+02  0.56770438659E+02 -0.11469737440E+02  0.60860420110E+02  0.10000000000E+01 0. -1.
        -13    1    6    6    0    0 -0.87127794209E-01  0.76581219648E+00  0.88074885988E+00  0.11750757963E+01  0.10500000000E+00 0.  1.
         13    1    6    6    0    0 -0.43517044342E-02  0.33074944626E+00  0.30875028664E+00  0.46450605275E+00  0.10500000000E+00 0. -1.
</event>
<event>
11    0  0.3483054E-009  0.9118800E+02  0.7816531E-02  0.1126479E+00
         25   -1    0    0    0    0  0.00000000000E+00  0.00000000000E+00  0.99999998245E-14  0.12500000000E+03  0.12500000000E+03 0.  0.
    3000001    1    3    3    0    0  0.22668194931E+02  0.21170642224E+02  0.33214099661E+02  0.45455687982E+02  0.10000000000E+01 0.  1.
    1000022    2    1    0    0    0  0.30917643978E+02  0.33549004558E+02  0.41530875613E+02  0.62499998749E+02  0.99999899179E+01 0.  0.
    3000022    2    3    3    0    0  0.82494490469E+01  0.12378362334E+02  0.83167759525E+01  0.17044310767E+02  0.25000723999E+00 0.  0.
    1000022    2    1    0    0    0 -0.30917643978E+02 -0.33549004558E+02 -0.41530875613E+02  0.62500001251E+02  0.10000005560E+02 0.  0.
    3000022    2    5    5    0    0 -0.15690676561E+02 -0.17056563496E+02 -0.27690652615E+02  0.36110364619E+02  0.25000296829E+00 0.  0.
        -13    1    4    4    0    0  0.36450809736E+01  0.54470104552E+01  0.37389883733E+01  0.75463631810E+01  0.10500000000E+00 0.  1.
         13    1    4    4    0    0  0.46043680733E+01  0.69313518787E+01  0.45777875792E+01  0.94979475857E+01  0.10500000000E+00 0. -1.
    3000001    1    5    5    0    0 -0.15226967417E+02 -0.16492441063E+02 -0.13840222999E+02  0.26389636632E+02  0.10000000000E+01 0. -1.
        -13    1    6    6    0    0 -0.63470446240E+01 -0.68922478517E+01 -0.11096463142E+02  0.14523449148E+02  0.10500000000E+00 0.  1.
         13    1    6    6    0    0 -0.93436319375E+01 -0.10164315644E+02 -0.16594189473E+02  0.21586915471E+02  0.10500000000E+00 0. -1.
</event>
<event>
11    0  0.3483054E-009  0.9118800E+02  0.7816531E-02  0.1126479E+00
         25   -1    0    0    0    0  0.00000000000E+00  0.00000000000E+00  0.99999998245E-14  0.12500000000E+03  0.12500000000E+03 0.  0.
    3000001    1    3    3    0    0 -0.65125914110E+01  0.12116607911E+02  0.23969686395E+02  0.27654509579E+02  0.10000000000E+01 0.  1.
    1000022    2    1    0    0    0 -0.20228828683E+02  0.17848133137E+02  0.55484129666E+02  0.62499999688E+02  0.99999974923E+01 0.  0.
    3000022    2    3    3    0    0 -0.13716237272E+02  0.57315252253E+01  0.31514443270E+02  0.34845490109E+02  0.24999992293E+00 0.  0.
    1000022    2    1    0    0    0  0.20228828683E+02 -0.17848133137E+02 -0.55484129666E+02  0.62500000312E+02  0.10000001396E+02 0.  0.
    3000022    2    5    5    0    0 -0.64097212552E+00 -0.17117343986E+01 -0.76003660647E+01  0.78210576869E+01  0.24999821504E+00 0.  0.
        -13    1    4    4    0    0 -0.86788377888E+01  0.35625051145E+01  0.19873801958E+02  0.21977094834E+02  0.10500000000E+00 0. -1.
         13    1    4    4    0    0 -0.50373994832E+01  0.21690201108E+01  0.11640641312E+02  0.12868395275E+02  0.10500000000E+00 0.  1.
    3000001    1    5    5    0    0  0.20869800809E+02 -0.16136398738E+02 -0.47883763601E+02  0.54678942625E+02  0.10000000000E+01 0.  1.
        -13    1    6    6    0    0 -0.21406459534E+00 -0.72633567610E+00 -0.32993027878E+01  0.33867109488E+01  0.10500000000E+00 0. -1.
         13    1    6    6    0    0 -0.42690753018E+00 -0.98539872247E+00 -0.43010632770E+01  0.44343467381E+01  0.10500000000E+00 0.  1.
</event>
<event>
11    0  0.3483054E-009  0.9118800E+02  0.7816531E-02  0.1126479E+00
         25   -1    0    0    0    0  0.00000000000E+00  0.00000000000E+00  0.99999998245E-14  0.12500000000E+03  0.12500000000E+03 0.  0.
    3000001    1    3    3    0    0  0.22407656582E+01 -0.30617108780E+02 -0.30891214279E+02  0.43562546991E+02  0.10000000000E+01 0.  1.
    1000022    2    1    0    0    0  0.57145896865E+01 -0.38844844151E+02 -0.47588569086E+02  0.62500002982E+02  0.10000000633E+02 0.  0.
    3000022    2    3    3    0    0  0.34738240282E+01 -0.82277353718E+01 -0.16697354807E+02  0.18937455991E+02  0.24999822040E+00 0.  0.
    1000022    2    1    0    0    0 -0.57145896865E+01  0.38844844151E+02  0.47588569086E+02  0.62499997018E+02  0.99999633584E+01 0.  0.
    3000022    2    5    5    0    0 -0.75622303632E+01  0.19236364874E+02  0.26800303731E+02  0.33845883664E+02  0.24999856433E+00 0.  0.
        -13    1    4    4    0    0  0.19543085584E+01 -0.47154503054E+01 -0.94231394934E+01  0.10717339989E+02  0.10500000000E+00 0. -1.
         13    1    4    4    0    0  0.15195154698E+01 -0.35122850665E+01 -0.72742153139E+01  0.82201160018E+01  0.10500000000E+00 0.  1.
    3000001    1    5    5    0    0  0.18476406767E+01  0.19608479278E+02  0.20788265355E+02  0.28654113354E+02  0.10000000000E+01 0.  1.
        -13    1    6    6    0    0 -0.26827835650E+01  0.66829834488E+01  0.93015068966E+01  0.11763870578E+02  0.10500000000E+00 0.  1.
         13    1    6    6    0    0 -0.48794467982E+01  0.12553381425E+02  0.17498796834E+02  0.22082013085E+02  0.10500000000E+00 0. -1.
</event>
<event>
11    0  0.3483054E-009  0.9118800E+02  0.7816531E-02  0.1126479E+00
         25   -1    0    0    0    0  0.00000000000E+00  0.00000000000E+00  0.99999998245E-14  0.12500000000E+03  0.12500000000E+03 0.  0.
    3000001    1    3    3    0    0 -0.33293081221E+02  0.30990825357E+02  0.36108154839E+02  0.58083210650E+02  0.10000000000E+01 0.  1.
    1000022    2    1    0    0    0 -0.37457144498E+02  0.31780591747E+02  0.37325679209E+02  0.62499999108E+02  0.99999937173E+01 0.  0.
    3000022    2    3    3    0    0 -0.41640632764E+01  0.78976638965E+00  0.12175243706E+01  0.44167884581E+01  0.25000154085E+00 0.  0.
    1000022    2    1    0    0    0  0.37457144498E+02 -0.31780591747E+02 -0.37325679209E+02  0.62500000892E+02  0.10000004868E+02 0.  0.
    3000022    2    5    5    0    0  0.28759829436E+02 -0.27203876272E+02 -0.33657571319E+02  0.51962229339E+02  0.24999462548E+00 0.  0.
        -13    1    4    4    0    0 -0.97687007865E+00  0.17117768581E+00  0.28677476336E+00  0.10377098417E+01  0.10500000000E+00 0.  1.
         13    1    4    4    0    0 -0.31871931978E+01  0.61858870384E+00  0.93074960722E+00  0.33790786164E+01  0.10500000000E+00 0. -1.
    3000001    1    5    5    0    0  0.86973150614E+01 -0.45767154747E+01 -0.36681078899E+01  0.10537771553E+02  0.10000000000E+01 0. -1.
        -13    1    6    6    0    0  0.18065511308E+02 -0.17017751973E+02 -0.21141781349E+02  0.32602952698E+02  0.10500000000E+00 0.  1.
         13    1    6    6    0    0  0.10694318128E+02 -0.10186124299E+02 -0.12515789971E+02  0.19359276641E+02  0.10500000000E+00 0. -1.
</event>
<event>
11    0  0.3483054E-009  0.9118800E+02  0.7816531E-02  0.1126479E+00
         25   -1    0    0    0    0  0.00000000000E+00  0.00000000000E+00  0.99999998245E-14  0.12500000000E+03  0.12500000000E+03 0.  0.
    3000001    1    3    3    0    0  0.35969105967E+01 -0.53218731749E+01  0.39952803633E+01  0.76303581247E+01  0.10000000000E+01 0.  1.
    1000022    2    1    0    0    0  0.35867718689E+02 -0.22020914046E+02  0.45109174356E+02  0.62500001804E+02  0.99999357551E+01 0.  0.
    3000022    2    3    3    0    0  0.32270808093E+02 -0.16699040871E+02  0.41113893992E+02  0.54869643680E+02  0.24999470747E+00 0.  0.
    1000022    2    1    0    0    0 -0.35867718689E+02  0.22020914046E+02 -0.45109174356E+02  0.62499998196E+02  0.99999132022E+01 0.  0.
    3000022    2    5    5    0    0 -0.11143799027E+02  0.12207926241E+02 -0.19471316555E+02  0.25542364536E+02  0.24999569378E+00 0.  0.
        -13    1    4    4    0    0  0.82565203063E+01 -0.42558591491E+01  0.10472368976E+02  0.13998714285E+02  0.10500000000E+00 0.  1.
         13    1    4    4    0    0  0.24014287786E+02 -0.12443181722E+02  0.30641525016E+02  0.40870929395E+02  0.10500000000E+00 0. -1.
    3000001    1    5    5    0    0 -0.24723919663E+02  0.98129878048E+01 -0.25637857801E+02  0.36957633660E+02  0.10000000000E+01 0. -1.
        -13    1    6    6    0    0 -0.37070636676E+01  0.41104473495E+01 -0.65862891989E+01  0.86039716910E+01  0.10500000000E+00 0.  1.
         13    1    6    6    0    0 -0.74367353591E+01  0.80974788914E+01 -0.12885027356E+02  0.16938392845E+02  0.10500000000E+00 0. -1.
</event>
<event>
11    0  0.3483054E-009  0.9118800E+02  0.7816531E-02  0.1126479E+00
         25   -1    0    0    0    0  0.00000000000E+00  0.00000000000E+00  0.99999998245E-14  0.12500000000E+03  0.12500000000E+03 0.  0.
    3000001    1    3    3    0    0  0.57667253201E+01 -0.45986208701E+01 -0.11986129596E+02  0.14109207544E+02  0.10000000000E+01 0. -1.
    1000022    2    1    0    0    0  0.21991471522E+02 -0.36120620429E+02 -0.44921330720E+02  0.62500000253E+02  0.10000001903E+02 0.  0.
    3000022    2    3    3    0    0  0.16224746202E+02 -0.31521999559E+02 -0.32935201123E+02  0.48390792709E+02  0.25000081257E+00 0.  0.
    1000022    2    1    0    0    0 -0.21991471522E+02  0.36120620429E+02  0.44921330720E+02  0.62499999747E+02  0.99999987462E+01 0.  0.
    3000022    2    5    5    0    0 -0.77127438019E+01  0.54591956047E+01  0.12151487639E+02  0.15395141685E+02  0.25000410667E+00 0.  0.
        -13    1    4    4    0    0  0.70353964353E+01 -0.13739442229E+02 -0.14261746153E+02  0.21016124859E+02  0.10500000000E+00 0.  1.
         13    1    4    4    0    0  0.91893497668E+01 -0.17782557330E+02 -0.18673454971E+02  0.27374667850E+02  0.10500000000E+00 0. -1.
    3000001    1    5    5    0    0 -0.14278727720E+02  0.30661424824E+02  0.32769843081E+02  0.47104858063E+02  0.10000000000E+01 0. -1.
        -13    1    6    6    0    0 -0.45405867957E+01  0.31984641493E+01  0.70390199796E+01  0.89669352979E+01  0.10500000000E+00 0. -1.
         13    1    6    6    0    0 -0.31721570062E+01  0.22607314555E+01  0.51124676594E+01  0.64282063870E+01  0.10500000000E+00 0.  1.
</event>
<event>
11    0  0.3483054E-009  0.9118800E+02  0.7816531E-02  0.1126479E+00
         25   -1    0    0    0    0  0.00000000000E+00  0.00000000000E+00  0.99999998245E-14  0.12500000000E+03  0.12500000000E+03 0.  0.
    3000001    1    3    3    0    0  0.19486444033E+02 -0.33782793421E+02  0.14507136785E+01  0.39039764376E+02  0.10000000000E+01 0. -1.
    1000022    2    1    0    0    0  0.27445081471E+02 -0.54513929280E+02  0.90137939166E+01  0.62499998511E+02  0.10000017536E+02 0.  0.
    3000022    2    3    3    0    0  0.79586374377E+01 -0.20731135858E+02  0.75630802381E+01  0.23460234135E+02  0.24999826811E+00 0.  0.
    1000022    2    1    0    0    0 -0.27445081471E+02  0.54513929280E+02 -0.90137939166E+01  0.62500001489E+02  0.10000036144E+02 0.  0.
    3000022    2    5    5    0    0 -0.20806739271E+02  0.31825860285E+02 -0.33551189287E+01  0.38172308124E+02  0.25000490857E+00 0.  0.
        -13    1    4    4    0    0  0.21611829290E+01 -0.56591152444E+01  0.21009023676E+01  0.64125745812E+01  0.10500000000E+00 0. -1.
         13    1    4    4    0    0  0.57974545086E+01 -0.15072020614E+02  0.54621778705E+01  0.17047659554E+02  0.10500000000E+00 0.  1.
    3000001    1    5    5    0    0 -0.66383421993E+01  0.22688068994E+02 -0.56586749879E+01  0.24327693365E+02  0.10000000000E+01 0. -1.
        -13    1    6    6    0    0 -0.81063234580E+01  0.12314779533E+02 -0.12599041818E+01  0.14797454460E+02  0.10500000000E+00 0. -1.
         13    1    6    6    0    0 -0.12700415813E+02  0.19511080752E+02 -0.20952147469E+01  0.23374853663E+02  0.10500000000E+00 0.  1.
</event>
<event>
11    0  0.3483054E-009  0.9118800E+02  0.7816531E-02  0.1126479E+00
         25   -1    0    0    0    0  0.00000000000E+00  0.00000000000E+00  0.99999998245E-14  0.12500000000E+03  0.12500000000E+03 0.  0.
    3000001    1    3    3    0    0 -0.47702170231E+01 -0.36952337967E+01 -0.34047357011E+01  0.70001391739E+01  0.10000000000E+01 0. -1.
    1000022    2    1    0    0    0 -0.32965009249E+02 -0.50614811083E+02 -0.12557819543E+02  0.62499999445E+02  0.10000008160E+02 0.  0.
    3000022    2    3    3    0    0 -0.28194792226E+02 -0.46919577287E+02 -0.91530838418E+01  0.55499860271E+02  0.25000981891E+00 0.  0.
    1000022    2    1    0    0    0  0.32965009249E+02  0.50614811083E+02  0.12557819543E+02  0.62500000555E+02  0.10000015096E+02 0.  0.
    3000022    2    5    5    0    0  0.97990197713E+01  0.17277181399E+02  0.87735773287E+01  0.21715431039E+02  0.25000101477E+00 0.  0.
        -13    1    4    4    0    0 -0.12126447606E+02 -0.20060115083E+02 -0.39416002330E+01  0.23769858773E+02  0.10500000000E+00 0.  1.
         13    1    4    4    0    0 -0.16068344620E+02 -0.26859462203E+02 -0.52114836088E+01  0.31730001498E+02  0.10500000000E+00 0. -1.
    3000001    1    5    5    0    0  0.23165989478E+02  0.33337629684E+02  0.37842422142E+01  0.40784569516E+02  0.10000000000E+01 0. -1.
        -13    1    6    6    0    0  0.67830026240E+01  0.11947070084E+02  0.60160950662E+01  0.14998200993E+02  0.10500000000E+00 0.  1.
         13    1    6    6    0    0  0.30160171472E+01  0.53301113149E+01  0.27574822625E+01  0.67172300459E+01  0.10500000000E+00 0. -1.
</event>
<event>
11    0  0.3483054E-009  0.9118800E+02  0.7816531E-02  0.1126479E+00
         25   -1    0    0    0    0  0.00000000000E+00  0.00000000000E+00  0.99999998245E-14  0.12500000000E+03  0.12500000000E+03 0.  0.
    3000001    1    3    3    0    0 -0.26367755593E+02 -0.42294982928E+02 -0.15820644092E+02  0.52301213135E+02  0.10000000000E+01 0. -1.
    1000022    2    1    0    0    0 -0.28412720108E+02 -0.52270354233E+02 -0.16333318979E+02  0.62499999655E+02  0.10000002622E+02 0.  0.
    3000022    2    3    3    0    0 -0.20449645149E+01 -0.99753713051E+01 -0.51267488738E+00  0.10198786520E+02  0.24999681404E+00 0.  0.
    1000022    2    1    0    0    0  0.28412720108E+02  0.52270354233E+02  0.16333318979E+02  0.62500000345E+02  0.10000006930E+02 0.  0.
    3000022    2    5    5    0    0  0.27979480695E+02  0.51249191175E+02  0.17070959501E+02  0.60834292111E+02  0.25000460315E+00 0.  0.
        -13    1    4    4    0    0 -0.63097601458E+00 -0.29688614707E+01 -0.19257974175E+00  0.30430874322E+01  0.10500000000E+00 0.  1.
         13    1    4    4    0    0 -0.14139885003E+01 -0.70065098344E+01 -0.32009514563E+00  0.71556990882E+01  0.10500000000E+00 0. -1.
    3000001    1    5    5    0    0  0.43323941299E+00  0.10211630586E+01 -0.73764052178E+00  0.16657082339E+01  0.10000000000E+01 0. -1.
        -13    1    6    6    0    0  0.16167884971E+02  0.29680718897E+02  0.99403640861E+01  0.35230206384E+02  0.10500000000E+00 0. -1.
         13    1    6    6    0    0  0.11811595724E+02  0.21568472278E+02  0.71305954150E+01  0.25604085727E+02  0.10500000000E+00 0.  1.
</event>
<event>
11    0  0.3483054E-009  0.9118800E+02  0.7816531E-02  0.1126479E+00
         25   -1    0    0    0    0  0.00000000000E+00  0.00000000000E+00  0.99999998245E-14  0.12500000000E+03  0.12500000000E+03 0.  0.
    3000001    1    3    3    0    0 -0.12844803867E+01 -0.20137014662E+00  0.29122431294E+01  0.33423943281E+01  0.10000000000E+01 0. -1.
    1000022    2    1    0    0    0 -0.46376378201E+02  0.20161777774E+02  0.35340974052E+02  0.62499998497E+02  0.99999813528E+01 0.  0.
    3000022    2    3    3    0    0 -0.45091897814E+02  0.20363147921E+02  0.32428730923E+02  0.59157604169E+02  0.24999990303E+00 0.  0.
    1000022    2    1    0    0    0  0.46376378201E+02 -0.20161777774E+02 -0.35340974052E+02  0.62500001503E+02  0.10000000142E+02 0.  0.
    3000022    2    5    5    0    0  0.15697743270E+02 -0.29861914481E+01 -0.75631204090E+01  0.17680490574E+02  0.24994696333E+00 0.  0.
        -13    1    4    4    0    0 -0.31783624195E+02  0.14399828496E+02  0.22854913844E+02  0.41712251671E+02  0.10500000000E+00 0. -1.
         13    1    4    4    0    0 -0.13308273620E+02  0.59633194250E+01  0.95738170791E+01  0.17445352498E+02  0.10500000000E+00 0.  1.
    3000001    1    5    5    0    0  0.30678634931E+02 -0.17175586326E+02 -0.27777853643E+02  0.44819510929E+02  0.10000000000E+01 0. -1.
        -13    1    6    6    0    0  0.84011705180E+01 -0.16188872322E+01 -0.41202666712E+01  0.94967407243E+01  0.10500000000E+00 0. -1.
         13    1    6    6    0    0  0.72965727519E+01 -0.13673042159E+01 -0.34428537378E+01  0.81837498497E+01  0.10500000000E+00 0.  1.
</event>
<event>
11    0  0.3483054E-009  0.9118800E+02  0.7816531E-02  0.1126479E+00
         25   -1    0    0    0    0  0.00000000000E+00  0.00000000000E+00  0.99999998245E-14  0.12500000000E+03  0.12500000000E+03 0.  0.
    3000001    1    3    3    0    0 -0.30017790903E+02  0.24953028579E+02 -0.32640714772E+02  0.50893395119E+02  0.10000000000E+01 0.  1.
    1000022    2    1    0    0    0 -0.35081733371E+02  0.34193334160E+02 -0.37501179926E+02  0.62500004321E+02  0.99999963502E+01 0.  0.
    3000022    2    3    3    0    0 -0.50639424682E+01  0.92403055815E+01 -0.48604651533E+01  0.11606609202E+02  0.24999018144E+00 0.  0.
    1000022    2    1    0    0    0  0.35081733371E+02 -0.34193334160E+02  0.37501179926E+02  0.62499995679E+02  0.99999423400E+01 0.  0.
    3000022    2    5    5    0    0  0.57335625074E+01 -0.45113812846E+01  0.10458737485E+02  0.12754371222E+02  0.24999070387E+00 0.  0.
        -13    1    4    4    0    0 -0.20983862821E+01  0.39594579576E+01 -0.20474327800E+01  0.49278330223E+01  0.10500000000E+00 0. -1.
         13    1    4    4    0    0 -0.29655561861E+01  0.52808476238E+01 -0.28130323732E+01  0.66787761792E+01  0.10500000000E+00 0.  1.
    3000001    1    5    5    0    0  0.29348170863E+02 -0.29681952876E+02  0.27042442440E+02  0.49745624457E+02  0.10000000000E+01 0.  1.
        -13    1    6    6    0    0  0.41187339578E+01 -0.32891880430E+01  0.75395149518E+01  0.91998933747E+01  0.10500000000E+00 0. -1.
         13    1    6    6    0    0  0.16148285496E+01 -0.12221932416E+01  0.29192225336E+01  0.35544778471E+01  0.10500000000E+00 0.  1.
</event>
<event>
11    0  0.3483054E-009  0.9118800E+02  0.7816531E-02  0.1126479E+00
         25   -1    0    0    0    0  0.00000000000E+00  0.00000000000E+00  0.99999998245E-14  0.12500000000E+03  0.12500000000E+03 0.  0.
    3000001    1    3    3    0    0 -0.53417926929E+02  0.56638950338E+01 -0.46118948043E+01  0.53924244992E+02  0.10000000000E+01 0. -1.
    1000022    2    1    0    0    0 -0.60892074116E+02  0.47502266134E+01 -0.87086485684E+01  0.62499999620E+02  0.10000002480E+02 0.  0.
    3000022    2    3    3    0    0 -0.74741471872E+01 -0.91366842041E+00 -0.40967537641E+01  0.85757546276E+01  0.25001974030E+00 0.  0.
    1000022    2    1    0    0    0  0.60892074116E+02 -0.47502266134E+01  0.87086485684E+01  0.62500000380E+02  0.10000007231E+02 0.  0.
    3000022    2    5    5    0    0  0.18004740910E+02 -0.42289991548E+01  0.62637304165E+01  0.19528234622E+02  0.24999929512E+00 0.  0.
        -13    1    4    4    0    0 -0.43308692047E+01 -0.46474257931E+00 -0.23804247858E+01  0.49648626259E+01  0.10500000000E+00 0.  1.
         13    1    4    4    0    0 -0.31432779825E+01 -0.44892584110E+00 -0.17163289784E+01  0.36108920017E+01  0.10500000000E+00 0. -1.
    3000001    1    5    5    0    0  0.42887333206E+02 -0.52122745859E+00  0.24449181520E+01  0.42971765758E+02  0.10000000000E+01 0.  1.
        -13    1    6    6    0    0  0.53782574678E+01 -0.12169824765E+01  0.18625155359E+01  0.58212274358E+01  0.10500000000E+00 0.  1.
         13    1    6    6    0    0  0.12626483442E+02 -0.30120166783E+01  0.44012148805E+01  0.13707007186E+02  0.10500000000E+00 0. -1.
</event>
<event>
11    0  0.3483054E-009  0.9118800E+02  0.7816531E-02  0.1126479E+00
         25   -1    0    0    0    0  0.00000000000E+00  0.00000000000E+00  0.99999998245E-14  0.12500000000E+03  0.12500000000E+03 0.  0.
    3000001    1    3    3    0    0 -0.25166096587E+01 -0.52989459723E+02 -0.30022295665E+02  0.60963549789E+02  0.10000000000E+01 0. -1.
    1000022    2    1    0    0    0 -0.38616956334E+01 -0.53474128739E+02 -0.30526297949E+02  0.62499999469E+02  0.99999964789E+01 0.  0.
    3000022    2    3    3    0    0 -0.13450859747E+01 -0.48466901600E+00 -0.50400228450E+00  0.15364496799E+01  0.24999796332E+00 0.  0.
    1000022    2    1    0    0    0  0.38616956334E+01  0.53474128739E+02  0.30526297949E+02  0.62500000531E+02  0.10000003118E+02 0.  0.
    3000022    2    5    5    0    0 -0.13222311795E+01  0.54428298113E+01  0.54329951620E+00  0.56329716928E+01  0.25000816048E+00 0.  0.
        -13    1    4    4    0    0 -0.52127928904E+00 -0.24839016803E+00 -0.17465022268E+00  0.61233771159E+00  0.10500000000E+00 0. -1.
         13    1    4    4    0    0 -0.82380668564E+00 -0.23627884797E+00 -0.32935206182E+00  0.92411196829E+00  0.10500000000E+00 0.  1.
    3000001    1    5    5    0    0  0.51839268129E+01  0.48031298928E+02  0.29982998433E+02  0.56867028838E+02  0.10000000000E+01 0. -1.
        -13    1    6    6    0    0 -0.53312645261E+00  0.24329251246E+01  0.27700830167E+00  0.25082079410E+01  0.10500000000E+00 0.  1.
         13    1    6    6    0    0 -0.78910472692E+00  0.30099046868E+01  0.26629121453E+00  0.31247637518E+01  0.10500000000E+00 0. -1.
</event>
<event>
11    0  0.3483054E-009  0.9118800E+02  0.7816531E-02  0.1126479E+00
         25   -1    0    0    0    0  0.00000000000E+00  0.00000000000E+00  0.99999998245E-14  0.12500000000E+03  0.12500000000E+03 0.  0.
    3000001    1    3    3    0    0  0.18739027715E+02 -0.87779048815E+01  0.15222804965E+02  0.25708686564E+02  0.10000000000E+01 0.  1.
    1000022    2    1    0    0    0  0.40898611972E+02 -0.31655950498E+02  0.33637097954E+02  0.62500001176E+02  0.10000006251E+02 0.  0.
    3000022    2    3    3    0    0  0.22159584257E+02 -0.22878045616E+02  0.18414292989E+02  0.36791314612E+02  0.24999788541E+00 0.  0.
    1000022    2    1    0    0    0 -0.40898611972E+02  0.31655950498E+02 -0.33637097954E+02  0.62499998824E+02  0.99999915531E+01 0.  0.
    3000022    2    5    5    0    0 -0.37206337292E+01  0.55648645468E+01 -0.76246370430E+01  0.10149306804E+02  0.25001158134E+00 0.  0.
        -13    1    4    4    0    0  0.11521538320E+02 -0.11821058599E+02  0.94927751403E+01  0.19042244525E+02  0.10500000000E+00 0.  1.
         13    1    4    4    0    0  0.10638045937E+02 -0.11056987017E+02  0.89215178485E+01  0.17749070087E+02  0.10500000000E+00 0. -1.
    3000001    1    5    5    0    0 -0.37177978243E+02  0.26091085951E+02 -0.26012460911E+02  0.52350692020E+02  0.10000000000E+01 0. -1.
        -13    1    6    6    0    0 -0.25532220532E+01  0.37923371243E+01 -0.52778834466E+01  0.69833976253E+01  0.10500000000E+00 0.  1.
         13    1    6    6    0    0 -0.11674116760E+01  0.17725274225E+01 -0.23467535965E+01  0.31659091786E+01  0.10500000000E+00 0. -1.
</event>
<event>
11    0  0.3483054E-009  0.9118800E+02  0.7816531E-02  0.1126479E+00
         25   -1    0    0    0    0  0.00000000000E+00  0.00000000000E+00  0.99999998245E-14  0.12500000000E+03  0.12500000000E+03 0.  0.
    3000001    1    3    3    0    0  0.13968968024E+01  0.13602494731E+02 -0.14970372465E+02  0.20300030427E+02  0.10000000000E+01 0.  1.
    1000022    2    1    0    0    0 -0.95457108719E+01  0.42993008008E+02 -0.43205670254E+02  0.62500000501E+02  0.10000039343E+02 0.  0.
    3000022    2    3    3    0    0 -0.10942607674E+02  0.29390513277E+02 -0.28235297789E+02  0.42199970074E+02  0.24999924209E+00 0.  0.
    1000022    2    1    0    0    0  0.95457108719E+01 -0.42993008008E+02  0.43205670254E+02  0.62499999499E+02  0.10000033087E+02 0.  0.
    3000022    2    5    5    0    0  0.37268141430E+01 -0.34946770376E+02  0.34655452953E+02  0.49358168765E+02  0.25000212178E+00 0.  0.
        -13    1    4    4    0    0 -0.76482149666E+01  0.20450721644E+02 -0.19703374134E+02  0.29410222461E+02  0.10500000000E+00 0.  1.
         13    1    4    4    0    0 -0.32943927077E+01  0.89397916332E+01 -0.85319236548E+01  0.12789747613E+02  0.10500000000E+00 0. -1.
    3000001    1    5    5    0    0  0.58188967290E+01 -0.80462376323E+01  0.85502173004E+01  0.13141830735E+02  0.10000000000E+01 0. -1.
        -13    1    6    6    0    0  0.24353758253E+01 -0.22295375950E+02  0.22130115786E+02  0.31508219465E+02  0.10500000000E+00 0.  1.
         13    1    6    6    0    0  0.12914383177E+01 -0.12651394426E+02  0.12525337167E+02  0.17849949300E+02  0.10500000000E+00 0. -1.
</event>
<event>
11    0  0.3483054E-009  0.9118800E+02  0.7816531E-02  0.1126479E+00
         25   -1    0    0    0    0  0.00000000000E+00  0.00000000000E+00  0.99999998245E-14  0.12500000000E+03  0.12500000000E+03 0.  0.
    3000001    1    3    3    0    0 -0.42172204477E+02 -0.14192510624E+02 -0.21887000446E+02  0.49598013839E+02  0.10000000000E+01 0. -1.
    1000022    2    1    0    0    0 -0.53156914647E+02 -0.20777213891E+02 -0.23428609976E+02  0.62499999574E+02  0.99999994755E+01 0.  0.
    3000022    2    3    3    0    0 -0.10984710170E+02 -0.65847032676E+01 -0.15416095300E+01  0.12901985735E+02  0.25000265904E+00 0.  0.
    1000022    2    1    0    0    0  0.53156914647E+02  0.20777213891E+02  0.23428609976E+02  0.62500000426E+02  0.10000004800E+02 0.  0.
    3000022    2    5    5    0    0  0.10460188282E+02  0.60813017186E+01  0.90115965153E+01  0.15088709008E+02  0.24999653776E+00 0.  0.
        -13    1    4    4    0    0 -0.51189733016E+01 -0.29939923720E+01 -0.73464030234E+00  0.59765039412E+01  0.10500000000E+00 0. -1.
         13    1    4    4    0    0 -0.58657368681E+01 -0.35907108956E+01 -0.80696922771E+00  0.69254817938E+01  0.10500000000E+00 0.  1.
    3000001    1    5    5    0    0  0.42696726364E+02  0.14695912173E+02  0.14417013461E+02  0.47411291418E+02  0.10000000000E+01 0. -1.
        -13    1    6    6    0    0  0.49113154696E+01  0.29333211032E+01  0.42635432797E+01  0.71354200040E+01  0.10500000000E+00 0. -1.
         13    1    6    6    0    0  0.55488728126E+01  0.31479806154E+01  0.47480532357E+01  0.79532890036E+01  0.10500000000E+00 0.  1.
</event>
<event>
11    0  0.3483054E-009  0.9118800E+02  0.7816531E-02  0.1126479E+00
         25   -1    0    0    0    0  0.00000000000E+00  0.00000000000E+00  0.99999998245E-14  0.12500000000E+03  0.12500000000E+03 0.  0.
    3000001    1    3    3    0    0 -0.23439699928E+01  0.94813690952E+01 -0.48179448872E+01  0.10936322425E+02  0.10000000000E+01 0. -1.
    1000022    2    1    0    0    0 -0.25335862740E+02  0.40855740574E+02 -0.38667201161E+02  0.62500001079E+02  0.10000010533E+02 0.  0.
    3000022    2    3    3    0    0 -0.22991892747E+02  0.31374371479E+02 -0.33849256274E+02  0.51563678654E+02  0.24997660399E+00 0.  0.
    1000022    2    1    0    0    0  0.25335862740E+02 -0.40855740574E+02  0.38667201161E+02  0.62499998921E+02  0.99999970417E+01 0.  0.
    3000022    2    5    5    0    0  0.12997462748E+00 -0.26378244322E+01  0.14071499753E+00  0.26565694914E+01  0.25009920654E+00 0.  0.
        -13    1    4    4    0    0 -0.14910631919E+02  0.20288098085E+02 -0.21970225088E+02  0.33416099168E+02  0.10500000000E+00 0. -1.
         13    1    4    4    0    0 -0.80812608273E+01  0.11086273394E+02 -0.11879031185E+02  0.18147579486E+02  0.10500000000E+00 0.  1.
    3000001    1    5    5    0    0  0.25205888112E+02 -0.38217916142E+02  0.38526486163E+02  0.59843429429E+02  0.10000000000E+01 0. -1.
        -13    1    6    6    0    0  0.10924005140E+00 -0.14855845353E+01  0.23833345755E-01  0.14934817806E+01  0.10500000000E+00 0. -1.
         13    1    6    6    0    0  0.20734576079E-01 -0.11522398968E+01  0.11688165178E+00  0.11630877108E+01  0.10500000000E+00 0.  1.
</event>
<event>
11    0  0.3483054E-009  0.9118800E+02  0.7816531E-02  0.1126479E+00
         25   -1    0    0    0    0  0.00000000000E+00  0.00000000000E+00  0.99999998245E-14  0.12500000000E+03  0.12500000000E+03 0.  0.
    3000001    1    3    3    0    0  0.87073867080E+01  0.16797082322E+02 -0.24553233319E+02  0.31013252397E+02  0.10000000000E+01 0. -1.
    1000022    2    1    0    0    0  0.25544162576E+02  0.35268686558E+02 -0.43702008026E+02  0.62499999702E+02  0.99999982055E+01 0.  0.
    3000022    2    3    3    0    0  0.16836775868E+02  0.18471604235E+02 -0.19148774706E+02  0.31486747305E+02  0.24999688512E+00 0.  0.
    1000022    2    1    0    0    0 -0.25544162576E+02 -0.35268686558E+02  0.43702008026E+02  0.62500000298E+02  0.10000001925E+02 0.  0.
    3000022    2    5    5    0    0 -0.48939171489E+01 -0.15710977937E+01  0.51400798764E+01  0.72733543076E+01  0.24997682095E+00 0.  0.
        -13    1    4    4    0    0  0.50671700453E+01  0.55911372560E+01 -0.57297622410E+01  0.94751373827E+01  0.10500000000E+00 0.  1.
         13    1    4    4    0    0  0.11769605823E+02  0.12880466979E+02 -0.13419012466E+02  0.22011609922E+02  0.10500000000E+00 0. -1.
    3000001    1    5    5    0    0 -0.20650245427E+02 -0.33697588764E+02  0.38561928149E+02  0.55226645990E+02  0.10000000000E+01 0. -1.
        -13    1    6    6    0    0 -0.26036446148E+01 -0.88353713900E+00  0.28188605676E+01  0.39391119628E+01  0.10500000000E+00 0.  1.
         13    1    6    6    0    0 -0.22902725341E+01 -0.68756065469E+00  0.23212193088E+01  0.33342423448E+01  0.10500000000E+00 0. -1.
</event>
<event>
11    0  0.3483054E-009  0.9118800E+02  0.7816531E-02  0.1126479E+00
         25   -1    0    0    0    0  0.00000000000E+00  0.00000000000E+00  0.99999998245E-14  0.12500000000E+03  0.12500000000E+03 0.  0.
    3000001    1    3    3    0    0 -0.82735446108E+01 -0.56847118380E+01  0.27665887693E+02  0.29447730489E+02  0.10000000000E+01 0. -1.
    1000022    2    1    0    0    0 -0.22624592302E+02 -0.19840600881E+02  0.53858410721E+02  0.62500000278E+02  0.10000000460E+02 0.  0.
    3000022    2    3    3    0    0 -0.14351047691E+02 -0.14155889043E+02  0.26192523027E+02  0.33052269789E+02  0.25002237261E+00 0.  0.
    1000022    2    1    0    0    0  0.22624592302E+02  0.19840600881E+02 -0.53858410721E+02  0.62499999722E+02  0.99999969861E+01 0.  0.
    3000022    2    5    5    0    0  0.21951940429E+02  0.18696909609E+02 -0.53535145499E+02  0.60807371389E+02  0.24998826644E+00 0.  0.
        -13    1    4    4    0    0 -0.10155502733E+02 -0.99822634473E+01  0.18442789359E+02  0.23300800923E+02  0.10500000000E+00 0. -1.
         13    1    4    4    0    0 -0.41955449581E+01 -0.41736255961E+01  0.77497336684E+01  0.97514688659E+01  0.10500000000E+00 0.  1.
    3000001    1    5    5    0    0  0.67265187332E+00  0.11436912723E+01 -0.32326522135E+00  0.16926283326E+01  0.10000000000E+01 0. -1.
        -13    1    6    6    0    0  0.15131841152E+02  0.12939901021E+02 -0.36905546535E+02  0.41933805517E+02  0.10500000000E+00 0. -1.
         13    1    6    6    0    0  0.68200992773E+01  0.57570085880E+01 -0.16629598964E+02  0.18873565872E+02  0.10500000000E+00 0.  1.
</event>
<event>
11    0  0.3483054E-009  0.9118800E+02  0.7816531E-02  0.1126479E+00
         25   -1    0    0    0    0  0.00000000000E+00  0.00000000000E+00  0.99999998245E-14  0.12500000000E+03  0.12500000000E+03 0.  0.
    3000001    1    3    3    0    0  0.39444847444E+02  0.20341786172E+01 -0.67794169138E+01  0.40087334236E+02  0.10000000000E+01 0.  1.
    1000022    2    1    0    0    0  0.60495887100E+02  0.97100870172E+01 -0.72257840638E+01  0.62500000117E+02  0.99999956728E+01 0.  0.
    3000022    2    3    3    0    0  0.21051039656E+02  0.76759084001E+01 -0.44636714995E+00  0.22412665881E+02  0.25001576194E+00 0.  0.
    1000022    2    1    0    0    0 -0.60495887100E+02 -0.97100870172E+01  0.72257840638E+01  0.62499999883E+02  0.99999942057E+01 0.  0.
    3000022    2    5    5    0    0 -0.58686946894E+02 -0.81287326666E+01  0.57959041473E+01  0.59530571852E+02  0.24989941485E+00 0.  0.
        -13    1    4    4    0    0  0.63821126500E+01  0.22811227151E+01 -0.15220368332E+00  0.67800496812E+01  0.10500000000E+00 0. -1.
         13    1    4    4    0    0  0.14668927006E+02  0.53947856849E+01 -0.29416346663E+00  0.15632616200E+02  0.10500000000E+00 0.  1.
    3000001    1    5    5    0    0 -0.18089402063E+01 -0.15813543506E+01  0.14298799165E+01  0.29694280304E+01  0.10000000000E+01 0. -1.
        -13    1    6    6    0    0 -0.25067801376E+02 -0.35268809001E+01  0.24399631596E+01  0.25432223653E+02  0.10500000000E+00 0. -1.
         13    1    6    6    0    0 -0.33619145517E+02 -0.46018517665E+01  0.33559409877E+01  0.34098348199E+02  0.10500000000E+00 0.  1.
</event>
<event>
11    0  0.3483054E-009  0.9118800E+02  0.7816531E-02  0.1126479E+00
         25   -1    0    0    0    0  0.00000000000E+00  0.00000000000E+00  0.99999998245E-14  0.12500000000E+03  0.12500000000E+03 0.  0.
    3000001    1    3    3    0    0 -0.17387386971E+02  0.41811729354E+02 -0.32217832504E+02  0.55583546743E+02  0.10000000000E+01 0. -1.
    1000022    2    1    0    0    0 -0.16614158583E+02  0.48199561178E+02 -0.34742224403E+02  0.62500000361E+02  0.99999962733E+01 0.  0.
    3000022    2    3    3    0    0  0.77322838788E+00  0.63878318241E+01 -0.25243918987E+01  0.69164536180E+01  0.24999727845E+00 0.  0.
    1000022    2    1    0    0    0  0.16614158583E+02 -0.48199561178E+02  0.34742224403E+02  0.62499999639E+02  0.99999917609E+01 0.  0.
    3000022    2    5    5    0    0  0.36497817644E+01 -0.91009240787E+01  0.23459151782E+01  0.10085313331E+02  0.25000191168E+00 0.  0.
        -13    1    4    4    0    0  0.43643887757E+00  0.34309070850E+01 -0.12881687618E+01  0.36921546661E+01  0.10500000000E+00 0.  1.
         13    1    4    4    0    0  0.33678951031E+00  0.29569247390E+01 -0.12362231369E+01  0.32242989519E+01  0.10500000000E+00 0. -1.
    3000001    1    5    5    0    0  0.12964376819E+02 -0.39098637099E+02  0.32396309225E+02  0.52414686308E+02  0.10000000000E+01 0. -1.
        -13    1    6    6    0    0  0.27722833559E+01 -0.69146220917E+01  0.18020948950E+01  0.76652543785E+01  0.10500000000E+00 0.  1.
         13    1    6    6    0    0  0.87749840859E+00 -0.21863019870E+01  0.54382028322E+00  0.24200589530E+01  0.10500000000E+00 0. -1.
</event>
<event>
11    0  0.3483054E-009  0.9118800E+02  0.7816531E-02  0.1126479E+00
         25   -1    0    0    0    0  0.00000000000E+00  0.00000000000E+00  0.99999998245E-14  0.12500000000E+03  0.12500000000E+03 0.  0.
    3000001    1    3    3    0    0 -0.11054022377E+02  0.57668669966E+01 -0.11584367776E+02  0.17048335475E+02  0.10000000000E+01 0. -1.
    1000022    2    1    0    0    0 -0.40736294681E+02  0.55191566555E+01 -0.46003732315E+02  0.62500000032E+02  0.99999911299E+01 0.  0.
    3000022    2    3    3    0    0 -0.29682272304E+02 -0.24771034109E+00 -0.34419364539E+02  0.45451664558E+02  0.25001260053E+00 0.  0.
    1000022    2    1    0    0    0  0.40736294681E+02 -0.55191566555E+01  0.46003732315E+02  0.62499999968E+02  0.99999907253E+01 0.  0.
    3000022    2    5    5    0    0  0.36605108386E+02 -0.31041925853E+01  0.36361920496E+02  0.51689667557E+02  0.24999692895E+00 0.  0.
        -13    1    4    4    0    0 -0.96230713063E+01 -0.13026960291E+00 -0.11179978329E+02  0.14752064668E+02  0.10500000000E+00 0.  1.
         13    1    4    4    0    0 -0.20059200997E+02 -0.11744073817E+00 -0.23239386210E+02  0.30699599890E+02  0.10500000000E+00 0. -1.
    3000001    1    5    5    0    0  0.41311862947E+01 -0.24149640703E+01  0.96418118192E+01  0.10810332410E+02  0.10000000000E+01 0.  1.
        -13    1    6    6    0    0  0.13668677356E+02 -0.11024216927E+01  0.13601576657E+02  0.19314812627E+02  0.10500000000E+00 0. -1.
         13    1    6    6    0    0  0.22936431030E+02 -0.20017708925E+01  0.22760343839E+02  0.32374854930E+02  0.10500000000E+00 0.  1.
</event>
<event>
11    0  0.3483054E-009  0.9118800E+02  0.7816531E-02  0.1126479E+00
         25   -1    0    0    0    0  0.00000000000E+00  0.00000000000E+00  0.99999998245E-14  0.12500000000E+03  0.12500000000E+03 0.  0.
    3000001    1    3    3    0    0  0.15435274197E+01 -0.27221148083E+02  0.26421092743E+02  0.37979567159E+02  0.10000000000E+01 0. -1.
    1000022    2    1    0    0    0  0.96384457099E+01 -0.45924637880E+02  0.40053440693E+02  0.62500000335E+02  0.99999965182E+01 0.  0.
    3000022    2    3    3    0    0  0.80949182902E+01 -0.18703489797E+02  0.13632347949E+02  0.24520433175E+02  0.24999954841E+00 0.  0.
    1000022    2    1    0    0    0 -0.96384457099E+01  0.45924637880E+02 -0.40053440693E+02  0.62499999665E+02  0.99999923368E+01 0.  0.
    3000022    2    5    5    0    0 -0.84821233948E+01  0.28155745992E+02 -0.19485335858E+02  0.35276525664E+02  0.24999952606E+00 0.  0.
        -13    1    4    4    0    0  0.43801477147E+01 -0.10185603726E+02  0.73421148777E+01  0.13298492138E+02  0.10500000000E+00 0.  1.
         13    1    4    4    0    0  0.37147705755E+01 -0.85178860707E+01  0.62902330717E+01  0.11221941037E+02  0.10500000000E+00 0. -1.
    3000001    1    5    5    0    0 -0.11563223151E+01  0.17768891888E+02 -0.20568104835E+02  0.27223474002E+02  0.10000000000E+01 0.  1.
        -13    1    6    6    0    0 -0.40587820300E+01  0.13686258610E+02 -0.94255358132E+01  0.17106698590E+02  0.10500000000E+00 0. -1.
         13    1    6    6    0    0 -0.44233413648E+01  0.14469487382E+02 -0.10059800045E+02  0.18169827073E+02  0.10500000000E+00 0.  1.
</event>
<event>
11    0  0.3483054E-009  0.9118800E+02  0.7816531E-02  0.1126479E+00
         25   -1    0    0    0    0  0.00000000000E+00  0.00000000000E+00  0.99999998245E-14  0.12500000000E+03  0.12500000000E+03 0.  0.
    3000001    1    3    3    0    0  0.54408519430E+01  0.13682189529E+02  0.33602333386E+02  0.36700435817E+02  0.10000000000E+01 0. -1.
    1000022    2    1    0    0    0  0.15224140333E+02  0.27399523211E+02  0.53138890875E+02  0.62499999542E+02  0.99999949097E+01 0.  0.
    3000022    2    3    3    0    0  0.97832883903E+01  0.13717333682E+02  0.19536557489E+02  0.25799563725E+02  0.24986954701E+00 0.  0.
    1000022    2    1    0    0    0 -0.15224140333E+02 -0.27399523211E+02 -0.53138890875E+02  0.62500000458E+02  0.10000000638E+02 0.  0.
    3000022    2    5    5    0    0 -0.44376475257E+01 -0.15578840161E+02 -0.32963700159E+02  0.36729565939E+02  0.25001920719E+00 0.  0.
        -13    1    4    4    0    0  0.63823307710E+01  0.88623674763E+01  0.12703216994E+02  0.16752863945E+02  0.10500000000E+00 0.  1.
         13    1    4    4    0    0  0.34009576193E+01  0.48549662054E+01  0.68333404950E+01  0.90466997798E+01  0.10500000000E+00 0. -1.
    3000001    1    5    5    0    0 -0.10786492808E+02 -0.11820683050E+02 -0.20175190716E+02  0.25770434519E+02  0.10000000000E+01 0. -1.
        -13    1    6    6    0    0 -0.10475878345E+01 -0.37337011377E+01 -0.78683015647E+01  0.87726369450E+01  0.10500000000E+00 0. -1.
         13    1    6    6    0    0 -0.33900596912E+01 -0.11845139023E+02 -0.25095398594E+02  0.27956928994E+02  0.10500000000E+00 0.  1.
</event>
<event>
11    0  0.3483054E-009  0.9118800E+02  0.7816531E-02  0.1126479E+00
         25   -1    0    0    0    0  0.00000000000E+00  0.00000000000E+00  0.99999998245E-14  0.12500000000E+03  0.12500000000E+03 0.  0.
    3000001    1    3    3    0    0  0.35912033821E+01  0.71350895784E+00  0.22001884629E+02  0.22326861937E+02  0.10000000000E+01 0.  1.
    1000022    2    1    0    0    0  0.22067846786E+02 -0.17871187577E+01  0.57585293512E+02  0.62499999433E+02  0.10000012252E+02 0.  0.
    3000022    2    3    3    0    0  0.18476643404E+02 -0.25006277155E+01  0.35583408883E+02  0.40173137495E+02  0.24999606122E+00 0.  0.
    1000022    2    1    0    0    0 -0.22067846786E+02  0.17871187577E+01 -0.57585293512E+02  0.62500000567E+02  0.10000019343E+02 0.  0.
    3000022    2    5    5    0    0 -0.16506208315E+02 -0.23288539956E+01 -0.33476803010E+02  0.37398359815E+02  0.25000643716E+00 0.  0.
        -13    1    4    4    0    0  0.53279020761E+01 -0.75206105731E+00  0.10333390201E+02  0.11650841790E+02  0.10500000000E+00 0.  1.
         13    1    4    4    0    0  0.13148741328E+02 -0.17485666582E+01  0.25250018682E+02  0.28522295705E+02  0.10500000000E+00 0. -1.
    3000001    1    5    5    0    0 -0.55616384711E+01  0.41159727533E+01 -0.24108490501E+02  0.25101640752E+02  0.10000000000E+01 0. -1.
        -13    1    6    6    0    0 -0.76334334717E+01 -0.11162855828E+01 -0.15615814558E+02  0.17417809546E+02  0.10500000000E+00 0. -1.
         13    1    6    6    0    0 -0.88727748430E+01 -0.12125684128E+01 -0.17860988452E+02  0.19980550269E+02  0.10500000000E+00 0.  1.
</event>
<event>
11    0  0.3483054E-009  0.9118800E+02  0.7816531E-02  0.1126479E+00
         25   -1    0    0    0    0  0.00000000000E+00  0.00000000000E+00  0.99999998245E-14  0.12500000000E+03  0.12500000000E+03 0.  0.
    3000001    1    3    3    0    0  0.97392093158E+01  0.12741371961E+02  0.19882389036E+02  0.25563727258E+02  0.10000000000E+01 0. -1.
    1000022    2    1    0    0    0  0.15030210801E+02  0.25422373030E+02  0.54166834368E+02  0.62499999095E+02  0.99999827131E+01 0.  0.
    3000022    2    3    3    0    0  0.52910014853E+01  0.12681001069E+02  0.34284445332E+02  0.36936271837E+02  0.25000135453E+00 0.  0.
    1000022    2    1    0    0    0 -0.15030210801E+02 -0.25422373030E+02 -0.54166834368E+02  0.62500000905E+02  0.99999940228E+01 0.  0.
    3000022    2    5    5    0    0 -0.19994622360E+01 -0.12248503681E+02 -0.25335725394E+02  0.28213209184E+02  0.24999920968E+00 0.  0.
        -13    1    4    4    0    0  0.19619897433E+01  0.47998873953E+01  0.13066753425E+02  0.14058427823E+02  0.10500000000E+00 0.  1.
         13    1    4    4    0    0  0.33290117420E+01  0.78811136734E+01  0.21217691907E+02  0.22877844015E+02  0.10500000000E+00 0. -1.
    3000001    1    5    5    0    0 -0.13030748565E+02 -0.13173869349E+02 -0.28831108974E+02  0.34286791721E+02  0.10000000000E+01 0.  1.
        -13    1    6    6    0    0 -0.73997062143E+00 -0.47763820203E+01 -0.99768638309E+01  0.11086488111E+02  0.10500000000E+00 0.  1.
         13    1    6    6    0    0 -0.12594916146E+01 -0.74721216603E+01 -0.15358861563E+02  0.17126721074E+02  0.10500000000E+00 0. -1.
</event>
<event>
11    0  0.3483054E-009  0.9118800E+02  0.7816531E-02  0.1126479E+00
         25   -1    0    0    0    0  0.00000000000E+00  0.00000000000E+00  0.99999998245E-14  0.12500000000E+03  0.12500000000E+03 0.  0.
    3000001    1    3    3    0    0 -0.12528131313E+02  0.25093522175E+01  0.77452836293E+01  0.14974656632E+02  0.10000000000E+01 0. -1.
    1000022    2    1    0    0    0 -0.42724630094E+02  0.23755751829E+01  0.44443360939E+02  0.62499995310E+02  0.99999854035E+01 0.  0.
    3000022    2    3    3    0    0 -0.30196498781E+02 -0.13377703453E+00  0.36698077310E+02  0.47525338678E+02  0.25000659160E+00 0.  0.
    1000022    2    1    0    0    0  0.42724630094E+02 -0.23755751829E+01 -0.44443360939E+02  0.62500004690E+02  0.10000044031E+02 0.  0.
    3000022    2    5    5    0    0  0.14167018093E+02  0.41076964969E+00 -0.86166011258E+01  0.16588593914E+02  0.24999947954E+00 0.  0.
        -13    1    4    4    0    0 -0.19807844315E+02 -0.33460196644E-01  0.24090119350E+02  0.31188085727E+02  0.10500000000E+00 0. -1.
         13    1    4    4    0    0 -0.10388654466E+02 -0.10031683789E+00  0.12607957959E+02  0.16337252951E+02  0.10500000000E+00 0.  1.
    3000001    1    5    5    0    0  0.28557612001E+02 -0.27863448326E+01 -0.35826759813E+02  0.45911410776E+02  0.10000000000E+01 0. -1.
        -13    1    6    6    0    0  0.80699315583E+01  0.22695333834E+00 -0.49842186780E+01  0.94883488555E+01  0.10500000000E+00 0. -1.
         13    1    6    6    0    0  0.60970865348E+01  0.18381631135E+00 -0.36323824478E+01  0.71002450589E+01  0.10500000000E+00 0.  1.
</event>
<event>
11    0  0.3483054E-009  0.9118800E+02  0.7816531E-02  0.1126479E+00
         25   -1    0    0    0    0  0.00000000000E+00  0.00000000000E+00  0.99999998245E-14  0.12500000000E+03  0.12500000000E+03 0.  0.
    3000001    1    3    3    0    0 -0.16688703183E+02 -0.31929790739E+02 -0.22456125501E+02  0.42465302579E+02  0.10000000000E+01 0. -1.
    1000022    2    1    0    0    0 -0.23628666753E+02 -0.42443777545E+02 -0.38032377044E+02  0.62500000588E+02  0.10000011250E+02 0.  0.
    3000022    2    3    3    0    0 -0.69399635697E+01 -0.10513986806E+02 -0.15576251543E+02  0.20034698009E+02  0.24999853309E+00 0.  0.
    1000022    2    1    0    0    0  0.23628666753E+02  0.42443777545E+02  0.38032377044E+02  0.62499999412E+02  0.10000003906E+02 0.  0.
    3000022    2    5    5    0    0  0.24294605565E+02  0.40696846329E+02  0.37066451222E+02  0.60170137642E+02  0.24999400745E+00 0.  0.
        -13    1    4    4    0    0 -0.40146406661E+01 -0.60629139627E+01 -0.88882556881E+01  0.11484266610E+02  0.10500000000E+00 0.  1.
         13    1    4    4    0    0 -0.29253229036E+01 -0.44510728434E+01 -0.66879958548E+01  0.85504313986E+01  0.10500000000E+00 0. -1.
    3000001    1    5    5    0    0 -0.66593881179E+00  0.17469312159E+01  0.96592582177E+00  0.23298617700E+01  0.10000000000E+01 0.  1.
        -13    1    6    6    0    0  0.10934347185E+02  0.18374235654E+02  0.16797305932E+02  0.27190678473E+02  0.10500000000E+00 0. -1.
         13    1    6    6    0    0  0.13360258380E+02  0.22322610675E+02  0.20269145290E+02  0.32979459169E+02  0.10500000000E+00 0.  1.
</event>
<event>
11    0  0.3483054E-009  0.9118800E+02  0.7816531E-02  0.1126479E+00
         25   -1    0    0    0    0  0.00000000000E+00  0.00000000000E+00  0.99999998245E-14  0.12500000000E+03  0.12500000000E+03 0.  0.
    3000001    1    3    3    0    0  0.11355792820E+02 -0.34083166757E+02  0.31875402378E+02  0.48038084512E+02  0.10000000000E+01 0.  1.
    1000022    2    1    0    0    0  0.10898045809E+02 -0.46872720254E+02  0.38606094488E+02  0.62499998191E+02  0.99999967925E+01 0.  0.
    3000022    2    3    3    0    0 -0.45774701127E+00 -0.12789553496E+02  0.67306921099E+01  0.14461913680E+02  0.25004006355E+00 0.  0.
    1000022    2    1    0    0    0 -0.10898045809E+02  0.46872720254E+02 -0.38606094488E+02  0.62500001809E+02  0.10000019400E+02 0.  0.
    3000022    2    5    5    0    0 -0.11045880056E+02  0.27508410887E+02 -0.25418752348E+02  0.39049962897E+02  0.24999122922E+00 0.  0.
        -13    1    4    4    0    0 -0.10108423870E+00 -0.41927572577E+01  0.21847726960E+01  0.47300833163E+01  0.10500000000E+00 0.  1.
         13    1    4    4    0    0 -0.35666277257E+00 -0.85967962387E+01  0.45459194139E+01  0.97318303634E+01  0.10500000000E+00 0.  1.
    3000001    1    5    5    0    0  0.14783424727E+00  0.19364309367E+02 -0.13187342140E+02  0.23450038911E+02  0.10000000000E+01 0.  1.
        -13    1    6    6    0    0 -0.56632516447E+01  0.13921873529E+02 -0.12891483030E+02  0.19801321710E+02  0.10500000000E+00 0.  1.
         13    1    6    6    0    0 -0.53826284115E+01  0.13586537358E+02 -0.12527269318E+02  0.19248641187E+02  0.10500000000E+00 0. -1.
</event>
<event>
11    0  0.3483054E-009  0.9118800E+02  0.7816531E-02  0.1126479E+00
         25   -1    0    0    0    0  0.00000000000E+00  0.00000000000E+00  0.99999998245E-14  0.12500000000E+03  0.12500000000E+03 0.  0.
    3000001    1    3    3    0    0  0.94229231861E+00  0.12136993927E+01 -0.12404502416E+01  0.22135261082E+01  0.10000000000E+01 0. -1.
    1000022    2    1    0    0    0  0.41837564854E+02  0.45061918296E+02  0.50290788473E+01  0.62500001459E+02  0.10000011742E+02 0.  0.
    3000022    2    3    3    0    0  0.40895272536E+02  0.43848218903E+02  0.62695290890E+01  0.60286475350E+02  0.24999690017E+00 0.  0.
    1000022    2    1    0    0    0 -0.41837564854E+02 -0.45061918296E+02 -0.50290788473E+01  0.62499998541E+02  0.99999935094E+01 0.  0.
    3000022    2    5    5    0    0 -0.34266453421E+02 -0.41642597755E+02 -0.42500875750E+01  0.54096409504E+02  0.24999812663E+00 0.  0.
        -13    1    4    4    0    0  0.98456501195E+01  0.10554872747E+02  0.14892659523E+01  0.14511068295E+02  0.10500000000E+00 0. -1.
         13    1    4    4    0    0  0.31049622416E+02  0.33293346156E+02  0.47802631367E+01  0.45775407055E+02  0.10500000000E+00 0.  1.
    3000001    1    5    5    0    0 -0.75711114335E+01 -0.34193205410E+01 -0.77899127232E+00  0.84035890370E+01  0.10000000000E+01 0.  1.
        -13    1    6    6    0    0 -0.14550280248E+02 -0.17585232235E+02 -0.17781374279E+01  0.22893751239E+02  0.10500000000E+00 0. -1.
         13    1    6    6    0    0 -0.19716173173E+02 -0.24057365519E+02 -0.24719501472E+01  0.31202658266E+02  0.10500000000E+00 0.  1.
</event>
<event>
11    0  0.3483054E-009  0.9118800E+02  0.7816531E-02  0.1126479E+00
         25   -1    0    0    0    0  0.00000000000E+00  0.00000000000E+00  0.99999998245E-14  0.12500000000E+03  0.12500000000E+03 0.  0.
    3000001    1    3    3    0    0  0.35141207016E+01 -0.11000275998E+02 -0.44613065705E+02  0.46094259381E+02  0.10000000000E+01 0.  1.
    1000022    2    1    0    0    0 -0.11106142645E+01 -0.15102983274E+02 -0.59807325395E+02  0.62500002592E+02  0.10000029267E+02 0.  0.
    3000022    2    3    3    0    0 -0.46247349661E+01 -0.41027072767E+01 -0.15194259690E+02  0.16405743211E+02  0.25000455585E+00 0.  0.
    1000022    2    1    0    0    0  0.11106142645E+01  0.15102983274E+02  0.59807325395E+02  0.62499997408E+02  0.99999968640E+01 0.  0.
    3000022    2    5    5    0    0  0.22817886506E+01  0.15775649534E+02  0.57339218839E+02  0.59514083928E+02  0.24998203925E+00 0.  0.
        -13    1    4    4    0    0 -0.24377735355E+01 -0.21059090202E+01 -0.77764938947E+01  0.84179852047E+01  0.10500000000E+00 0.  1.
         13    1    4    4    0    0 -0.21869614306E+01 -0.19967982565E+01 -0.74177657952E+01  0.79877580064E+01  0.10500000000E+00 0. -1.
    3000001    1    5    5    0    0 -0.11711743861E+01 -0.67266626000E+00  0.24681065558E+01  0.29859134801E+01  0.10000000000E+01 0. -1.
        -13    1    6    6    0    0  0.11709075605E+01  0.85610963373E+01  0.31057356395E+02  0.32237149474E+02  0.10500000000E+00 0. -1.
         13    1    6    6    0    0  0.11108810901E+01  0.72145531970E+01  0.26281862444E+02  0.27276934453E+02  0.10500000000E+00 0.  1.
</event>
<event>
11    0  0.3483054E-009  0.9118800E+02  0.7816531E-02  0.1126479E+00
         25   -1    0    0    0    0  0.00000000000E+00  0.00000000000E+00  0.99999998245E-14  0.12500000000E+03  0.12500000000E+03 0.  0.
    3000001    1    3    3    0    0 -0.43148463859E+02  0.21167811641E+01  0.11158510702E+02  0.44629396780E+02  0.10000000000E+01 0. -1.
    1000022    2    1    0    0    0 -0.58431018925E+02  0.84637359568E+01  0.17900591303E+02  0.62500000433E+02  0.10000004306E+02 0.  0.
    3000022    2    3    3    0    0 -0.15282555066E+02  0.63469547927E+01  0.67420806006E+01  0.17870603652E+02  0.24999916325E+00 0.  0.
    1000022    2    1    0    0    0  0.58431018925E+02 -0.84637359568E+01 -0.17900591303E+02  0.62499999567E+02  0.99999988979E+01 0.  0.
    3000022    2    5    5    0    0  0.20622066584E+02 -0.26832556231E+01 -0.14372720153E+01  0.20847007934E+02  0.24999606880E+00 0.  0.
        -13    1    4    4    0    0 -0.10473221255E+02  0.43046169565E+01  0.46426878685E+01  0.12238613739E+02  0.10500000000E+00 0.  1.
         13    1    4    4    0    0 -0.48093338111E+01  0.20423378362E+01  0.20993927321E+01  0.56319899136E+01  0.10500000000E+00 0. -1.
    3000001    1    5    5    0    0  0.37808952341E+02 -0.57804803337E+01 -0.16463319288E+02  0.41652991633E+02  0.10000000000E+01 0. -1.
        -13    1    6    6    0    0  0.67668588205E+01 -0.90993059482E+00 -0.51566486207E+00  0.68480133786E+01  0.10500000000E+00 0. -1.
         13    1    6    6    0    0  0.13855207763E+02 -0.17733250283E+01 -0.92160715327E+00  0.13998994555E+02  0.10500000000E+00 0.  1.
</event>
<event>
11    0  0.3483054E-009  0.9118800E+02  0.7816531E-02  0.1126479E+00
         25   -1    0    0    0    0  0.00000000000E+00  0.00000000000E+00  0.99999998245E-14  0.12500000000E+03  0.12500000000E+03 0.  0.
    3000001    1    3    3    0    0 -0.27530242501E+02 -0.15824551530E+02  0.10740923427E+02  0.33536519189E+02  0.10000000000E+01 0.  1.
    1000022    2    1    0    0    0 -0.53221106736E+02 -0.29193178251E+02  0.11023707957E+02  0.62499998813E+02  0.99999927986E+01 0.  0.
    3000022    2    3    3    0    0 -0.25690864235E+02 -0.13368626721E+02  0.28278452995E+00  0.28963479624E+02  0.24999857301E+00 0.  0.
    1000022    2    1    0    0    0  0.53221106736E+02  0.29193178251E+02 -0.11023707957E+02  0.62500001187E+02  0.10000007630E+02 0.  0.
    3000022    2    5    5    0    0  0.41405056369E+02  0.24411283781E+02 -0.12400485506E+02  0.49639943745E+02  0.25001079424E+00 0.  0.
        -13    1    4    4    0    0 -0.61008335723E+01 -0.31568925811E+01  0.72984436595E-01  0.68704070311E+01  0.10500000000E+00 0. -1.
         13    1    4    4    0    0 -0.19590030663E+02 -0.10211734140E+02  0.20980009336E+00  0.22093072593E+02  0.10500000000E+00 0.  1.
    3000001    1    5    5    0    0  0.11816050367E+02  0.47818944698E+01  0.13767775491E+01  0.12860057442E+02  0.10000000000E+01 0.  1.
        -13    1    6    6    0    0  0.18475018931E+02  0.10930752175E+02 -0.54785772208E+01  0.22154762490E+02  0.10500000000E+00 0.  1.
         13    1    6    6    0    0  0.22930037438E+02  0.13480531606E+02 -0.69219082854E+01  0.27485181255E+02  0.10500000000E+00 0. -1.
</event>
<event>
11    0  0.3483054E-009  0.9118800E+02  0.7816531E-02  0.1126479E+00
         25   -1    0    0    0    0  0.00000000000E+00  0.00000000000E+00  0.99999998245E-14  0.12500000000E+03  0.12500000000E+03 0.  0.
    3000001    1    3    3    0    0 -0.19453698586E+02  0.11707400237E+02 -0.11484220105E+02  0.25463639182E+02  0.10000000000E+01 0.  1.
    1000022    2    1    0    0    0 -0.53647640299E+02  0.23681975611E+02 -0.19166238228E+02  0.62499999775E+02  0.10000000281E+02 0.  0.
    3000022    2    3    3    0    0 -0.34193941713E+02  0.11974575374E+02 -0.76820181225E+01  0.37036360593E+02  0.24999655224E+00 0.  0.
    1000022    2    1    0    0    0  0.53647640299E+02 -0.23681975611E+02  0.19166238228E+02  0.62500000225E+02  0.10000003090E+02 0.  0.
    3000022    2    5    5    0    0  0.17117614751E+02 -0.48197505871E+01  0.18585602255E+01  0.17881819881E+02  0.25001129145E+00 0.  0.
        -13    1    4    4    0    0 -0.22731447812E+02  0.79760214249E+01 -0.51608411089E+01  0.24636983243E+02  0.10500000000E+00 0.  1.
         13    1    4    4    0    0 -0.11462493902E+02  0.39985539490E+01 -0.25211770136E+01  0.12399377350E+02  0.10500000000E+00 0. -1.
    3000001    1    5    5    0    0  0.36530025548E+02 -0.18862225024E+02  0.17307678002E+02  0.44618180344E+02  0.10000000000E+01 0. -1.
        -13    1    6    6    0    0  0.43911549528E+01 -0.12668635233E+01  0.48492979291E+00  0.45971041874E+01  0.10500000000E+00 0.  1.
         13    1    6    6    0    0  0.12726459799E+02 -0.35528870638E+01  0.13736304326E+01  0.13284715694E+02  0.10500000000E+00 0. -1.
</event>
<event>
11    0  0.3483054E-009  0.9118800E+02  0.7816531E-02  0.1126479E+00
         25   -1    0    0    0    0  0.00000000000E+00  0.00000000000E+00  0.99999998245E-14  0.12500000000E+03  0.12500000000E+03 0.  0.
    3000001    1    3    3    0    0  0.39817375578E+02  0.94417631412E+01 -0.12477310293E+02  0.42793148532E+02  0.10000000000E+01 0.  1.
    1000022    2    1    0    0    0  0.54841446909E+02  0.18980873999E+02 -0.20937814850E+02  0.62500000048E+02  0.10000001921E+02 0.  0.
    3000022    2    3    3    0    0  0.15024071331E+02  0.95391108581E+01 -0.84605045575E+01  0.19706851516E+02  0.25000795660E+00 0.  0.
    1000022    2    1    0    0    0 -0.54841446909E+02 -0.18980873999E+02  0.20937814850E+02  0.62499999952E+02  0.10000001327E+02 0.  0.
    3000022    2    5    5    0    0 -0.21767415371E+01 -0.10857985581E+01  0.33647441314E+01  0.41594674607E+01  0.25000851776E+00 0.  0.
        -13    1    4    4    0    0  0.68836686347E+01  0.44486048686E+01 -0.38820753477E+01  0.90695376483E+01  0.10500000000E+00 0. -1.
         13    1    4    4    0    0  0.81404026961E+01  0.50905059895E+01 -0.45784292098E+01  0.10637313867E+02  0.10500000000E+00 0.  1.
    3000001    1    5    5    0    0 -0.52664705372E+02 -0.17895075441E+02  0.17573070719E+02  0.58340532492E+02  0.10000000000E+01 0.  1.
        -13    1    6    6    0    0 -0.10814635813E+01 -0.51987398370E+00  0.17712710463E+01  0.21420220718E+01  0.10500000000E+00 0. -1.
         13    1    6    6    0    0 -0.10952779558E+01 -0.56592457440E+00  0.15934730851E+01  0.20174453889E+01  0.10500000000E+00 0.  1.
</event>
<event>
11    0  0.3483054E-009  0.9118800E+02  0.7816531E-02  0.1126479E+00
         25   -1    0    0    0    0  0.00000000000E+00  0.00000000000E+00  0.99999998245E-14  0.12500000000E+03  0.12500000000E+03 0.  0.
    3000001    1    3    3    0    0  0.78531698860E+01 -0.42194692806E+02 -0.37402615233E+02  0.56938739050E+02  0.10000000000E+01 0.  1.
    1000022    2    1    0    0    0  0.69401750823E+01 -0.44163266857E+02 -0.42516938915E+02  0.62500001813E+02  0.99999981122E+01 0.  0.
    3000022    2    3    3    0    0 -0.91299480373E+00 -0.19685740509E+01 -0.51143236820E+01  0.55612627635E+01  0.24998698947E+00 0.  0.
    1000022    2    1    0    0    0 -0.69401750823E+01  0.44163266857E+02  0.42516938915E+02  0.62499998187E+02  0.99999754474E+01 0.  0.
    3000022    2    5    5    0    0 -0.88729298336E+01  0.41033920538E+02  0.39414356231E+02  0.57585288772E+02  0.24997471111E+00 0.  0.
        -13    1    4    4    0    0 -0.54643049991E+00 -0.12974869392E+01 -0.32376563325E+01  0.35320676913E+01  0.10500000000E+00 0. -1.
         13    1    4    4    0    0 -0.36656430382E+00 -0.67108711177E+00 -0.18766673494E+01  0.20291950721E+01  0.10500000000E+00 0.  1.
    3000001    1    5    5    0    0  0.19327547513E+01  0.31293463191E+01  0.31025826845E+01  0.49147094143E+01  0.10000000000E+01 0. -1.
        -13    1    6    6    0    0 -0.50668492859E+01  0.23122874258E+02  0.22212210809E+02  0.32461263217E+02  0.10500000000E+00 0. -1.
         13    1    6    6    0    0 -0.38060805477E+01  0.17911046281E+02  0.17202145422E+02  0.25124025555E+02  0.10500000000E+00 0.  1.
</event>
<event>
11    0  0.3483054E-009  0.9118800E+02  0.7816531E-02  0.1126479E+00
         25   -1    0    0    0    0  0.00000000000E+00  0.00000000000E+00  0.99999998245E-14  0.12500000000E+03  0.12500000000E+03 0.  0.
    3000001    1    3    3    0    0  0.72708432361E+01  0.56303860720E+01 -0.22875715097E+01  0.95288715017E+01  0.10000000000E+01 0. -1.
    1000022    2    1    0    0    0  0.31619111686E+02  0.52115367414E+02 -0.95115841539E+01  0.62500000710E+02  0.10000005560E+02 0.  0.
    3000022    2    3    3    0    0  0.24348268450E+02  0.46484981342E+02 -0.72240126441E+01  0.52971129209E+02  0.25000823066E+00 0.  0.
    1000022    2    1    0    0    0 -0.31619111686E+02 -0.52115367414E+02  0.95115841539E+01  0.62499999290E+02  0.99999966792E+01 0.  0.
    3000022    2    5    5    0    0 -0.44849466787E+01 -0.11089845804E+02  0.54128614579E+01  0.13132440491E+02  0.24999483165E+00 0.  0.
        -13    1    4    4    0    0  0.17095627274E+02  0.32642678677E+02 -0.50270588923E+01  0.37189881543E+02  0.10500000000E+00 0. -1.
         13    1    4    4    0    0  0.72526411760E+01  0.13842302665E+02 -0.21969537518E+01  0.15781247666E+02  0.10500000000E+00 0.  1.
    3000001    1    5    5    0    0 -0.27134165007E+02 -0.41025521610E+02  0.40987226959E+01  0.49367558798E+02  0.10000000000E+01 0.  1.
        -13    1    6    6    0    0 -0.30464677097E+01 -0.76540722441E+01  0.37076922827E+01  0.90345887836E+01  0.10500000000E+00 0. -1.
         13    1    6    6    0    0 -0.14384789690E+01 -0.34357735602E+01  0.17051691752E+01  0.40978517075E+01  0.10500000000E+00 0.  1.
</event>
<event>
11    0  0.3483054E-009  0.9118800E+02  0.7816531E-02  0.1126479E+00
         25   -1    0    0    0    0  0.00000000000E+00  0.00000000000E+00  0.99999998245E-14  0.12500000000E+03  0.12500000000E+03 0.  0.
    3000001    1    3    3    0    0  0.19399540838E+01 -0.18021311075E+01  0.16281201457E+01  0.32652524534E+01  0.10000000000E+01 0.  1.
    1000022    2    1    0    0    0  0.22307108001E+02 -0.57361664720E+02  0.42757952342E+01  0.62500000866E+02  0.10000001825E+02 0.  0.
    3000022    2    3    3    0    0  0.20367153917E+02 -0.55559533613E+02  0.26476750885E+01  0.59234748412E+02  0.25000429287E+00 0.  0.
    1000022    2    1    0    0    0 -0.22307108001E+02  0.57361664720E+02 -0.42757952342E+01  0.62499999134E+02  0.99999910042E+01 0.  0.
    3000022    2    5    5    0    0  0.80635429282E+00  0.46085997229E+01  0.43011065292E+00  0.47049858891E+01  0.24999678238E+00 0.  0.
        -13    1    4    4    0    0  0.89023418384E+01 -0.24126971951E+02  0.11133854501E+01  0.25741272655E+02  0.10500000000E+00 0. -1.
         13    1    4    4    0    0  0.11464812079E+02 -0.31432561661E+02  0.15342896383E+01  0.33493475757E+02  0.10500000000E+00 0.  1.
    3000001    1    5    5    0    0 -0.23113462294E+02  0.52753064997E+02 -0.47059058871E+01  0.57795013245E+02  0.10000000000E+01 0.  1.
        -13    1    6    6    0    0  0.50074241123E+00  0.29177190060E+01  0.21335524952E+00  0.29699112146E+01  0.10500000000E+00 0.  1.
         13    1    6    6    0    0  0.30561188159E+00  0.16908807169E+01  0.21675540339E+00  0.17350746744E+01  0.10500000000E+00 0. -1.
</event>
<event>
11    0  0.3483054E-009  0.9118800E+02  0.7816531E-02  0.1126479E+00
         25   -1    0    0    0    0  0.00000000000E+00  0.00000000000E+00  0.99999998245E-14  0.12500000000E+03  0.12500000000E+03 0.  0.
    3000001    1    3    3    0    0 -0.12275306988E+02  0.23958316926E+02 -0.36883045521E+02  0.45673221460E+02  0.10000000000E+01 0. -1.
    1000022    2    1    0    0    0 -0.19134806576E+02  0.36232107096E+02 -0.46123137545E+02  0.62499999513E+02  0.99999857407E+01 0.  0.
    3000022    2    3    3    0    0 -0.68594995878E+01  0.12273790170E+02 -0.92400920236E+01  0.16826778053E+02  0.24999863133E+00 0.  0.
    1000022    2    1    0    0    0  0.19134806576E+02 -0.36232107096E+02  0.46123137545E+02  0.62500000487E+02  0.99999918270E+01 0.  0.
    3000022    2    5    5    0    0  0.12439659438E+02 -0.31267170477E+02  0.34862997645E+02  0.48454846825E+02  0.24999887160E+00 0.  0.
        -13    1    4    4    0    0 -0.19940522941E+01  0.36564675928E+01 -0.27516598681E+01  0.49928605867E+01  0.10500000000E+00 0.  1.
         13    1    4    4    0    0 -0.48654472938E+01  0.86173225772E+01 -0.64884321556E+01  0.11833917467E+02  0.10500000000E+00 0. -1.
    3000001    1    5    5    0    0  0.66951471379E+01 -0.49649366194E+01  0.11260139899E+02  0.14045153662E+02  0.10000000000E+01 0.  1.
        -13    1    6    6    0    0  0.93151745701E+01 -0.23362828055E+02  0.26086406890E+02  0.36236802583E+02  0.10500000000E+00 0. -1.
         13    1    6    6    0    0  0.31244848679E+01 -0.79043424218E+01  0.87765907553E+01  0.12218044242E+02  0.10500000000E+00 0.  1.
</event>
<event>
11    0  0.3483054E-009  0.9118800E+02  0.7816531E-02  0.1126479E+00
         25   -1    0    0    0    0  0.00000000000E+00  0.00000000000E+00  0.99999998245E-14  0.12500000000E+03  0.12500000000E+03 0.  0.
    3000001    1    3    3    0    0  0.60995442299E+01  0.51625153927E+01  0.40237034373E+01  0.90025659866E+01  0.10000000000E+01 0.  1.
    1000022    2    1    0    0    0  0.49801699100E+02  0.35975099221E+02  0.56420237894E+01  0.62499996967E+02  0.10000009564E+02 0.  0.
    3000022    2    3    3    0    0  0.43702154870E+02  0.30812583828E+02  0.16183203522E+01  0.53497430981E+02  0.24999662450E+00 0.  0.
    1000022    2    1    0    0    0 -0.49801699100E+02 -0.35975099221E+02 -0.56420237894E+01  0.62500003033E+02  0.10000047473E+02 0.  0.
    3000022    2    5    5    0    0 -0.24888857598E+02 -0.17860557172E+02 -0.77788804680E+01  0.31607407451E+02  0.24997876594E+00 0.  0.
        -13    1    4    4    0    0  0.27938615260E+02  0.19769076544E+02  0.10300141467E+01  0.34241123875E+02  0.10500000000E+00 0. -1.
         13    1    4    4    0    0  0.15763539610E+02  0.11043507284E+02  0.58830620547E+00  0.19256307106E+02  0.10500000000E+00 0.  1.
    3000001    1    5    5    0    0 -0.24912841502E+02 -0.18114542049E+02  0.21368566785E+01  0.30892595582E+02  0.10000000000E+01 0.  1.
        -13    1    6    6    0    0 -0.12117219496E+02 -0.87146706972E+01 -0.38580208059E+01  0.15416479598E+02  0.10500000000E+00 0.  1.
         13    1    6    6    0    0 -0.12771638102E+02 -0.91458864749E+01 -0.39208596621E+01  0.16190927852E+02  0.10500000000E+00 0. -1.
</event>
<event>
11    0  0.3483054E-009  0.9118800E+02  0.7816531E-02  0.1126479E+00
         25   -1    0    0    0    0  0.00000000000E+00  0.00000000000E+00  0.99999998245E-14  0.12500000000E+03  0.12500000000E+03 0.  0.
    3000001    1    3    3    0    0 -0.16271018507E+02 -0.55242341115E+01  0.12161902687E+02  0.21075461625E+02  0.10000000000E+01 0. -1.
    1000022    2    1    0    0    0 -0.54995641825E+02 -0.91887337036E+01  0.26406385792E+02  0.62500005197E+02  0.99999996073E+01 0.  0.
    3000022    2    3    3    0    0 -0.38724623318E+02 -0.36644995921E+01  0.14244483106E+02  0.41424543571E+02  0.25000546967E+00 0.  0.
    1000022    2    1    0    0    0  0.54995641825E+02  0.91887337036E+01 -0.26406385792E+02  0.62499994803E+02  0.99999346493E+01 0.  0.
    3000022    2    5    5    0    0  0.43320897117E+02  0.31177251843E+01 -0.20897894368E+02  0.48199635150E+02  0.25000450016E+00 0.  0.
        -13    1    4    4    0    0 -0.22904564765E+02 -0.21193959356E+01  0.83784559838E+01  0.24481022770E+02  0.10500000000E+00 0.  1.
         13    1    4    4    0    0 -0.15820058553E+02 -0.15451036564E+01  0.58660271220E+01  0.16943520801E+02  0.10500000000E+00 0. -1.
    3000001    1    5    5    0    0  0.11674744708E+02  0.60710085192E+01 -0.55084914245E+01  0.14300359653E+02  0.10000000000E+01 0.  1.
        -13    1    6    6    0    0  0.10806989657E+02  0.75747522866E+00 -0.51945997616E+01  0.12014977563E+02  0.10500000000E+00 0. -1.
         13    1    6    6    0    0  0.32513907460E+02  0.23602499557E+01 -0.15703294606E+02  0.36184657587E+02  0.10500000000E+00 0.  1.
</event>
<event>
11    0  0.3483054E-009  0.9118800E+02  0.7816531E-02  0.1126479E+00
         25   -1    0    0    0    0  0.00000000000E+00  0.00000000000E+00  0.99999998245E-14  0.12500000000E+03  0.12500000000E+03 0.  0.
    3000001    1    3    3    0    0  0.11538224586E+01 -0.10635307852E+02 -0.20916476558E+01  0.10946052681E+02  0.10000000000E+01 0.  1.
    1000022    2    1    0    0    0 -0.12696254304E+02 -0.57102321943E+02 -0.19605611594E+02  0.62499999759E+02  0.99999959630E+01 0.  0.
    3000022    2    3    3    0    0 -0.13850076763E+02 -0.46467014091E+02 -0.17513963938E+02  0.51553947078E+02  0.25000330175E+00 0.  0.
    1000022    2    1    0    0    0  0.12696254304E+02  0.57102321943E+02  0.19605611594E+02  0.62500000241E+02  0.99999989695E+01 0.  0.
    3000022    2    5    5    0    0  0.89397307210E+01  0.19285387153E+02  0.85041904912E+01  0.22896041134E+02  0.25000142241E+00 0.  0.
        -13    1    4    4    0    0 -0.67694123313E+01 -0.22897956186E+02 -0.85802124545E+01  0.25372670564E+02  0.10500000000E+00 0. -1.
         13    1    4    4    0    0 -0.70806644316E+01 -0.23569057905E+02 -0.89337514839E+01  0.26181276514E+02  0.10500000000E+00 0.  1.
    3000001    1    5    5    0    0  0.37565235834E+01  0.37816934791E+02  0.11101421103E+02  0.39603959106E+02  0.10000000000E+01 0. -1.
        -13    1    6    6    0    0  0.64891928400E+01  0.14073717304E+02  0.62195284441E+01  0.16699482074E+02  0.10500000000E+00 0. -1.
         13    1    6    6    0    0  0.24505378809E+01  0.52116698490E+01  0.22846620470E+01  0.61965590605E+01  0.10500000000E+00 0.  1.
</event>
<event>
11    0  0.3483054E-009  0.9118800E+02  0.7816531E-02  0.1126479E+00
         25   -1    0    0    0    0  0.00000000000E+00  0.00000000000E+00  0.99999998245E-14  0.12500000000E+03  0.12500000000E+03 0.  0.
    3000001    1    3    3    0    0 -0.16540687003E+01 -0.24146569776E+01  0.19791847018E+01  0.36720135714E+01  0.10000000000E+01 0. -1.
    1000022    2    1    0    0    0 -0.10329106902E+01 -0.28666236938E+02  0.54620786760E+02  0.62500000538E+02  0.99999838131E+01 0.  0.
    3000022    2    3    3    0    0  0.62115801005E+00 -0.26251579961E+02  0.52641602058E+02  0.58827986966E+02  0.24999114001E+00 0.  0.
    1000022    2    1    0    0    0  0.10329106902E+01  0.28666236938E+02 -0.54620786760E+02  0.62499999462E+02  0.99999770925E+01 0.  0.
    3000022    2    5    5    0    0 -0.43950990343E+01  0.11065889562E+02 -0.20249053764E+02  0.23491647197E+02  0.25000473573E+00 0.  0.
        -13    1    4    4    0    0  0.23034788783E+00 -0.12494597321E+02  0.25013213206E+02  0.27961399862E+02  0.10500000000E+00 0. -1.
         13    1    4    4    0    0  0.39081012222E+00 -0.13756982639E+02  0.27628388852E+02  0.30866587104E+02  0.10500000000E+00 0.  1.
    3000001    1    5    5    0    0  0.54280097246E+01  0.17600347377E+02 -0.34371732996E+02  0.39008352266E+02  0.10000000000E+01 0.  1.
        -13    1    6    6    0    0 -0.12081115041E+01  0.30539558697E+01 -0.55124046619E+01  0.64174613374E+01  0.10500000000E+00 0. -1.
         13    1    6    6    0    0 -0.31869875302E+01  0.80119336920E+01 -0.14736649102E+02  0.17074185859E+02  0.10500000000E+00 0.  1.
</event>
<event>
11    0  0.3483054E-009  0.9118800E+02  0.7816531E-02  0.1126479E+00
         25   -1    0    0    0    0  0.00000000000E+00  0.00000000000E+00  0.99999998245E-14  0.12500000000E+03  0.12500000000E+03 0.  0.
    3000001    1    3    3    0    0  0.31992824277E+02 -0.31731205494E+02  0.60381248466E+01  0.45473829385E+02  0.10000000000E+01 0.  1.
    1000022    2    1    0    0    0  0.43617235324E+02 -0.43574884582E+02  0.22396639557E+01  0.62499999574E+02  0.10000003425E+02 0.  0.
    3000022    2    3    3    0    0  0.11624411048E+02 -0.11843679088E+02 -0.37984608908E+01  0.17026170189E+02  0.24999925459E+00 0.  0.
    1000022    2    1    0    0    0 -0.43617235324E+02  0.43574884582E+02 -0.22396639557E+01  0.62500000426E+02  0.10000008747E+02 0.  0.
    3000022    2    5    5    0    0 -0.21769822808E+02  0.25007731754E+02 -0.55597122193E+01  0.33619707521E+02  0.25000255284E+00 0.  0.
        -13    1    4    4    0    0  0.31825440031E+01 -0.32969572361E+01 -0.10448022936E+01  0.47011860398E+01  0.10500000000E+00 0.  1.
         13    1    4    4    0    0  0.84418670444E+01 -0.85467218518E+01 -0.27536585972E+01  0.12324984149E+02  0.10500000000E+00 0. -1.
    3000001    1    5    5    0    0 -0.21847412516E+02  0.18567152828E+02  0.33200482635E+01  0.28880292905E+02  0.10000000000E+01 0.  1.
        -13    1    6    6    0    0 -0.76768137173E+01  0.87324096366E+01 -0.19479534280E+01  0.11789571429E+02  0.10500000000E+00 0. -1.
         13    1    6    6    0    0 -0.14093009091E+02  0.16275322117E+02 -0.36117587913E+01  0.21830136092E+02  0.10500000000E+00 0.  1.
</event>
<event>
11    0  0.3483054E-009  0.9118800E+02  0.7816531E-02  0.1126479E+00
         25   -1    0    0    0    0  0.00000000000E+00  0.00000000000E+00  0.99999998245E-14  0.12500000000E+03  0.12500000000E+03 0.  0.
    3000001    1    3    3    0    0 -0.80774952738E+01 -0.12030659469E+02 -0.14182547891E+02  0.20300920221E+02  0.10000000000E+01 0. -1.
    1000022    2    1    0    0    0 -0.19620956734E+02 -0.46914116469E+02 -0.34933285745E+02  0.62500004348E+02  0.99999911674E+01 0.  0.
    3000022    2    3    3    0    0 -0.11543461460E+02 -0.34883457000E+02 -0.20750737854E+02  0.42199084127E+02  0.25000978627E+00 0.  0.
    1000022    2    1    0    0    0  0.19620956734E+02  0.46914116469E+02  0.34933285745E+02  0.62499995652E+02  0.99999368172E+01 0.  0.
    3000022    2    5    5    0    0  0.11256971066E+02  0.15194706199E+02  0.14610456729E+02  0.23898251866E+02  0.25000470694E+00 0.  0.
        -13    1    4    4    0    0 -0.58174460656E+01 -0.17543264983E+02 -0.10361146947E+02  0.21188988084E+02  0.10500000000E+00 0. -1.
         13    1    4    4    0    0 -0.57260153942E+01 -0.17340192017E+02 -0.10389590907E+02  0.21010096042E+02  0.10500000000E+00 0.  1.
    3000001    1    5    5    0    0  0.83639856672E+01  0.31719410270E+02  0.20322829016E+02  0.38601743786E+02  0.10000000000E+01 0.  1.
        -13    1    6    6    0    0  0.33553394262E+01  0.44592873537E+01  0.42920437643E+01  0.70410376396E+01  0.10500000000E+00 0.  1.
         13    1    6    6    0    0  0.79016316402E+01  0.10735418846E+02  0.10318412964E+02  0.16857214226E+02  0.10500000000E+00 0. -1.
</event>
<event>
11    0  0.3483054E-009  0.9118800E+02  0.7816531E-02  0.1126479E+00
         25   -1    0    0    0    0  0.00000000000E+00  0.00000000000E+00  0.99999998245E-14  0.12500000000E+03  0.12500000000E+03 0.  0.
    3000001    1    3    3    0    0 -0.16342054793E+01 -0.47307666995E+01  0.90741613915E+00  0.51840317479E+01  0.10000000000E+01 0. -1.
    1000022    2    1    0    0    0  0.80604397220E+01 -0.61109336826E+02 -0.26321428137E+01  0.62500000649E+02  0.10000008478E+02 0.  0.
    3000022    2    3    3    0    0  0.96946452013E+01 -0.56378570126E+02 -0.35395589528E+01  0.57315968901E+02  0.24999688936E+00 0.  0.
    1000022    2    1    0    0    0 -0.80604397220E+01  0.61109336826E+02  0.26321428137E+01  0.62499999351E+02  0.10000000362E+02 0.  0.
    3000022    2    5    5    0    0 -0.82427722793E+01  0.28317701433E+02 -0.86524580276E+00  0.29506722398E+02  0.25001423226E+00 0.  0.
        -13    1    4    4    0    0  0.38101611129E+01 -0.21803501254E+02 -0.13835568081E+01  0.22177358929E+02  0.10500000000E+00 0. -1.
         13    1    4    4    0    0  0.58844840883E+01 -0.34575068873E+02 -0.21560021447E+01  0.35138609972E+02  0.10500000000E+00 0.  1.
    3000001    1    5    5    0    0  0.18233255728E+00  0.32791635393E+02  0.34973886164E+01  0.32993276952E+02  0.10000000000E+01 0.  1.
        -13    1    6    6    0    0 -0.48656993402E+01  0.16941106176E+02 -0.52377992671E+00  0.17634099891E+02  0.10500000000E+00 0. -1.
         13    1    6    6    0    0 -0.33770729391E+01  0.11376595256E+02 -0.34146587606E+00  0.11872622507E+02  0.10500000000E+00 0.  1.
</event>
<event>
11    0  0.3483054E-009  0.9118800E+02  0.7816531E-02  0.1126479E+00
         25   -1    0    0    0    0  0.00000000000E+00  0.00000000000E+00  0.99999998245E-14  0.12500000000E+03  0.12500000000E+03 0.  0.
    3000001    1    3    3    0    0 -0.60585000094E+01  0.45114176526E+01 -0.61830832272E+01  0.98126871852E+01  0.10000000000E+01 0. -1.
    1000022    2    1    0    0    0 -0.20227064179E+02  0.41493614409E+02 -0.40931599471E+02  0.62500000376E+02  0.10000002487E+02 0.  0.
    3000022    2    3    3    0    0 -0.14168564169E+02  0.36982196756E+02 -0.34748516244E+02  0.52687313191E+02  0.25000515280E+00 0.  0.
    1000022    2    1    0    0    0  0.20227064179E+02 -0.41493614409E+02  0.40931599471E+02  0.62499999624E+02  0.99999977861E+01 0.  0.
    3000022    2    5    5    0    0  0.18037446028E+02 -0.27131305108E+02  0.30024262689E+02  0.44305485292E+02  0.25000170157E+00 0.  0.
        -13    1    4    4    0    0 -0.58346512800E+01  0.15288870990E+02 -0.14277739866E+02  0.21717679719E+02  0.10500000000E+00 0. -1.
         13    1    4    4    0    0 -0.83339128894E+01  0.21693325767E+02 -0.20470776378E+02  0.30969633472E+02  0.10500000000E+00 0.  1.
    3000001    1    5    5    0    0  0.21896181507E+01 -0.14362309301E+02  0.10907336782E+02  0.18194514332E+02  0.10000000000E+01 0. -1.
        -13    1    6    6    0    0  0.11853187294E+02 -0.17783475534E+02  0.19762085464E+02  0.29108436886E+02  0.10500000000E+00 0.  1.
         13    1    6    6    0    0  0.61842587343E+01 -0.93478295743E+01  0.10262177224E+02  0.15197048405E+02  0.10500000000E+00 0. -1.
</event>
<event>
11    0  0.3483054E-009  0.9118800E+02  0.7816531E-02  0.1126479E+00
         25   -1    0    0    0    0  0.00000000000E+00  0.00000000000E+00  0.99999998245E-14  0.12500000000E+03  0.12500000000E+03 0.  0.
    3000001    1    3    3    0    0 -0.85612488295E+01  0.28990804875E+01 -0.62280473661E+01  0.11022169623E+02  0.10000000000E+01 0.  1.
    1000022    2    1    0    0    0 -0.39477408357E+02  0.18596163365E+01 -0.47374314969E+02  0.62500002160E+02  0.10000030385E+02 0.  0.
    3000022    2    3    3    0    0 -0.30916159527E+02 -0.10394641510E+01 -0.41146267603E+02  0.51477832537E+02  0.24999887305E+00 0.  0.
    1000022    2    1    0    0    0  0.39477408357E+02 -0.18596163365E+01  0.47374314969E+02  0.62499997840E+02  0.10000003387E+02 0.  0.
    3000022    2    5    5    0    0  0.31112546740E+02  0.17864918898E+01  0.32551062752E+02  0.45064579252E+02  0.24999785680E+00 0.  0.
        -13    1    4    4    0    0 -0.17018956559E+02 -0.58546803575E+00 -0.22542283503E+02  0.28251605719E+02  0.10500000000E+00 0.  1.
         13    1    4    4    0    0 -0.13897202968E+02 -0.45399611526E+00 -0.18603984100E+02  0.23226226819E+02  0.10500000000E+00 0. -1.
    3000001    1    5    5    0    0  0.83648616167E+01 -0.36461082263E+01  0.14823252217E+02  0.17435418588E+02  0.10000000000E+01 0.  1.
        -13    1    6    6    0    0  0.94556629497E+01  0.53377691673E+00  0.99591799018E+01  0.13743753815E+02  0.10500000000E+00 0. -1.
         13    1    6    6    0    0  0.21656883790E+02  0.12527149731E+01  0.22591882851E+02  0.31320825437E+02  0.10500000000E+00 0.  1.
</event>
<event>
11    0  0.3483054E-009  0.9118800E+02  0.7816531E-02  0.1126479E+00
         25   -1    0    0    0    0  0.00000000000E+00  0.00000000000E+00  0.99999998245E-14  0.12500000000E+03  0.12500000000E+03 0.  0.
    3000001    1    3    3    0    0 -0.19002020768E+02  0.16494768659E+02 -0.19324361545E+02  0.31742481558E+02  0.10000000000E+01 0. -1.
    1000022    2    1    0    0    0 -0.44199454493E+02  0.27759937786E+02 -0.32894451310E+02  0.62499993486E+02  0.99999167686E+01 0.  0.
    3000022    2    3    3    0    0 -0.25197433725E+02  0.11265169128E+02 -0.13570089765E+02  0.30757511928E+02  0.25000388502E+00 0.  0.
    1000022    2    1    0    0    0  0.44199454493E+02 -0.27759937786E+02  0.32894451310E+02  0.62500006514E+02  0.99999981956E+01 0.  0.
    3000022    2    5    5    0    0  0.33427039991E+02 -0.16965423029E+02  0.26631578607E+02  0.45983649847E+02  0.24998617103E+00 0.  0.
        -13    1    4    4    0    0 -0.88428097239E+01  0.40092575590E+01 -0.47457532638E+01  0.10807526499E+02  0.10500000000E+00 0. -1.
         13    1    4    4    0    0 -0.16354624001E+02  0.72559115689E+01 -0.88243365017E+01  0.19949985429E+02  0.10500000000E+00 0.  1.
    3000001    1    5    5    0    0  0.10772414502E+02 -0.10794514757E+02  0.62628727033E+01  0.16516356667E+02  0.10000000000E+01 0. -1.
        -13    1    6    6    0    0  0.15135049571E+02 -0.77497414416E+01  0.12114208431E+02  0.20878057593E+02  0.10500000000E+00 0. -1.
         13    1    6    6    0    0  0.18291990419E+02 -0.92156815875E+01  0.14517370176E+02  0.25105592254E+02  0.10500000000E+00 0.  1.
</event>
<event>
11    0  0.3483054E-009  0.9118800E+02  0.7816531E-02  0.1126479E+00
         25   -1    0    0    0    0  0.00000000000E+00  0.00000000000E+00  0.99999998245E-14  0.12500000000E+03  0.12500000000E+03 0.  0.
    3000001    1    3    3    0    0 -0.80560908323E+01 -0.15038563689E+02 -0.23237402524E+02  0.28845032040E+02  0.10000000000E+01 0. -1.
    1000022    2    1    0    0    0 -0.71331071091E+01 -0.31234433719E+02 -0.52723609759E+02  0.62500002336E+02  0.10000009960E+02 0.  0.
    3000022    2    3    3    0    0  0.92298372316E+00 -0.16195870030E+02 -0.29486207235E+02  0.33654970296E+02  0.25000707915E+00 0.  0.
    1000022    2    1    0    0    0  0.71331071091E+01  0.31234433719E+02  0.52723609759E+02  0.62499997664E+02  0.99999807602E+01 0.  0.
    3000022    2    5    5    0    0 -0.59013565399E+00  0.16711460373E+02  0.31116138349E+02  0.35325596947E+02  0.25013202504E+00 0.  0.
        -13    1    4    4    0    0  0.67369128375E+00 -0.10966146130E+02 -0.19934743790E+02  0.22762145239E+02  0.10500000000E+00 0. -1.
         13    1    4    4    0    0  0.24929243941E+00 -0.52297238994E+01 -0.95514634453E+01  0.10892825057E+02  0.10500000000E+00 0.  1.
    3000001    1    5    5    0    0  0.77232427631E+01  0.14522973346E+02  0.21607471410E+02  0.27174400716E+02  0.10000000000E+01 0.  1.
        -13    1    6    6    0    0 -0.23969486963E+00  0.79190747813E+01  0.14627296502E+02  0.16635444899E+02  0.10500000000E+00 0.  1.
         13    1    6    6    0    0 -0.35044078436E+00  0.87923855919E+01  0.16488841847E+02  0.18690152049E+02  0.10500000000E+00 0. -1.
</event>
<event>
11    0  0.3483054E-009  0.9118800E+02  0.7816531E-02  0.1126479E+00
         25   -1    0    0    0    0  0.00000000000E+00  0.00000000000E+00  0.99999998245E-14  0.12500000000E+03  0.12500000000E+03 0.  0.
    3000001    1    3    3    0    0  0.23926345232E+02  0.27906036399E+01 -0.10240114340E+02  0.26193842913E+02  0.10000000000E+01 0.  1.
    1000022    2    1    0    0    0  0.57550356917E+02 -0.46412485126E+01 -0.21740877617E+02  0.62499994441E+02  0.99999388273E+01 0.  0.
    3000022    2    3    3    0    0  0.33624011684E+02 -0.74318521525E+01 -0.11500763276E+02  0.36306151527E+02  0.24998928335E+00 0.  0.
    1000022    2    1    0    0    0 -0.57550356917E+02  0.46412485126E+01  0.21740877617E+02  0.62500005559E+02  0.10000008318E+02 0.  0.
    3000022    2    5    5    0    0 -0.22377958511E+02  0.42697543223E+01  0.13043185004E+02  0.26252447375E+02  0.24997806516E+00 0.  0.
        -13    1    4    4    0    0  0.14711007847E+02 -0.33191447279E+01 -0.50378577355E+01  0.15900361919E+02  0.10500000000E+00 0.  1.
         13    1    4    4    0    0  0.18913003838E+02 -0.41127074246E+01 -0.64629055408E+01  0.20405789609E+02  0.10500000000E+00 0. -1.
    3000001    1    5    5    0    0 -0.35172398406E+02  0.37149419022E+00  0.86976926130E+01  0.36247558185E+02  0.10000000000E+01 0. -1.
        -13    1    6    6    0    0 -0.14175117292E+02  0.27452807374E+01  0.82162082347E+01  0.16612875107E+02  0.10500000000E+00 0.  1.
         13    1    6    6    0    0 -0.82028412189E+01  0.15244735849E+01  0.48269767692E+01  0.96395722677E+01  0.10500000000E+00 0. -1.
</event>
<event>
11    0  0.3483054E-009  0.9118800E+02  0.7816531E-02  0.1126479E+00
         25   -1    0    0    0    0  0.00000000000E+00  0.00000000000E+00  0.99999998245E-14  0.12500000000E+03  0.12500000000E+03 0.  0.
    3000001    1    3    3    0    0 -0.21587686827E+02 -0.49529971761E+02 -0.19418056445E+02  0.57422184226E+02  0.10000000000E+01 0. -1.
    1000022    2    1    0    0    0 -0.25313255720E+02 -0.52948600022E+02 -0.19024582922E+02  0.62499999809E+02  0.10000003068E+02 0.  0.
    3000022    2    3    3    0    0 -0.37255688936E+01 -0.34186282605E+01  0.39347352273E+00  0.50778155831E+01  0.25001383645E+00 0.  0.
    1000022    2    1    0    0    0  0.25313255720E+02  0.52948600022E+02  0.19024582922E+02  0.62500000191E+02  0.10000005453E+02 0.  0.
    3000022    2    5    5    0    0  0.15219346328E+02  0.20489756493E+02  0.84362613521E+01  0.26882924458E+02  0.24999609038E+00 0.  0.
        -13    1    4    4    0    0 -0.11464765912E+01 -0.10375943033E+01  0.16688090533E+00  0.15588087596E+01  0.10500000000E+00 0. -1.
         13    1    4    4    0    0 -0.25790923024E+01 -0.23810339572E+01  0.22659261740E+00  0.35190068235E+01  0.10500000000E+00 0.  1.
    3000001    1    5    5    0    0  0.10093909392E+02  0.32458843529E+02  0.10588321570E+02  0.35617075733E+02  0.10000000000E+01 0. -1.
        -13    1    6    6    0    0  0.79774143206E+01  0.10850825783E+02  0.44371543321E+01  0.14180230004E+02  0.10500000000E+00 0. -1.
         13    1    6    6    0    0  0.72419320075E+01  0.96389307098E+01  0.39991070200E+01  0.12702694454E+02  0.10500000000E+00 0.  1.
</event>
<event>
11    0  0.3483054E-009  0.9118800E+02  0.7816531E-02  0.1126479E+00
         25   -1    0    0    0    0  0.00000000000E+00  0.00000000000E+00  0.99999998245E-14  0.12500000000E+03  0.12500000000E+03 0.  0.
    3000001    1    3    3    0    0 -0.75148979540E+01  0.93210732581E+01 -0.88478743093E+01  0.14921158726E+02  0.10000000000E+01 0.  1.
    1000022    2    1    0    0    0 -0.39630918798E+02  0.24030433710E+02 -0.40720739386E+02  0.62499999581E+02  0.99999931224E+01 0.  0.
    3000022    2    3    3    0    0 -0.32116020844E+02  0.14709360452E+02 -0.31872865077E+02  0.47578840855E+02  0.24997829200E+00 0.  0.
    1000022    2    1    0    0    0  0.39630918798E+02 -0.24030433710E+02  0.40720739386E+02  0.62500000419E+02  0.99999983578E+01 0.  0.
    3000022    2    5    5    0    0  0.21063549170E+02 -0.17923125665E+02  0.21108587473E+02  0.34792908743E+02  0.24999294909E+00 0.  0.
        -13    1    4    4    0    0 -0.15747042081E+02  0.71688402264E+01 -0.15685697148E+02  0.23354094384E+02  0.10500000000E+00 0.  1.
         13    1    4    4    0    0 -0.16368978763E+02  0.75405202255E+01 -0.16187167929E+02  0.24224746471E+02  0.10500000000E+00 0. -1.
    3000001    1    5    5    0    0  0.18567369628E+02 -0.61073080449E+01  0.19612151913E+02  0.27707091675E+02  0.10000000000E+01 0.  1.
        -13    1    6    6    0    0  0.13641711904E+02 -0.11595151632E+02  0.13734948065E+02  0.22565541615E+02  0.10500000000E+00 0. -1.
         13    1    6    6    0    0  0.74218372666E+01 -0.63279740330E+01  0.73736394072E+01  0.12227367128E+02  0.10500000000E+00 0.  1.
</event>
<event>
11    0  0.3483054E-009  0.9118800E+02  0.7816531E-02  0.1126479E+00
         25   -1    0    0    0    0  0.00000000000E+00  0.00000000000E+00  0.99999998245E-14  0.12500000000E+03  0.12500000000E+03 0.  0.
    3000001    1    3    3    0    0  0.46550472204E+02 -0.35051836407E+02 -0.15556933801E+02  0.60320774922E+02  0.10000000000E+01 0.  1.
    1000022    2    1    0    0    0  0.48366993233E+02 -0.35467382171E+02 -0.14455096662E+02  0.62499990901E+02  0.99998905331E+01 0.  0.
    3000022    2    3    3    0    0  0.18165210283E+01 -0.41554576457E+00  0.11018371393E+01  0.21792159787E+01  0.25002054284E+00 0.  0.
    1000022    2    1    0    0    0 -0.48366993233E+02  0.35467382171E+02  0.14455096662E+02  0.62500009099E+02  0.10000004270E+02 0.  0.
    3000022    2    5    5    0    0 -0.10679529333E+02  0.44384356610E+01  0.56914181076E+01  0.12892121435E+02  0.24999422538E+00 0.  0.
        -13    1    4    4    0    0  0.62389708888E+00 -0.19376599405E+00  0.35662854161E+00  0.75166598609E+00  0.10500000000E+00 0. -1.
         13    1    4    4    0    0  0.11926239394E+01 -0.22177977052E+00  0.74520859766E+00  0.14275499927E+01  0.10500000000E+00 0.  1.
    3000001    1    5    5    0    0 -0.37687463899E+02  0.31028946510E+02  0.87636785545E+01  0.49607887664E+02  0.10000000000E+01 0.  1.
        -13    1    6    6    0    0 -0.39240560783E+01  0.15670998369E+01  0.20783750962E+01  0.47100622125E+01  0.10500000000E+00 0.  1.
         13    1    6    6    0    0 -0.67554732551E+01  0.28713358241E+01  0.36130430114E+01  0.81820592223E+01  0.10500000000E+00 0. -1.
</event>
<event>
11    0  0.3483054E-009  0.9118800E+02  0.7816531E-02  0.1126479E+00
         25   -1    0    0    0    0  0.00000000000E+00  0.00000000000E+00  0.99999998245E-14  0.12500000000E+03  0.12500000000E+03 0.  0.
    3000001    1    3    3    0    0  0.21632959954E+01 -0.14461524963E+02 -0.57422990397E+01  0.15741332602E+02  0.10000000000E+01 0. -1.
    1000022    2    1    0    0    0  0.24299892817E+02 -0.51364012246E+02 -0.24031305245E+02  0.62499997477E+02  0.99999753944E+01 0.  0.
    3000022    2    3    3    0    0  0.22136596821E+02 -0.36902487283E+02 -0.18289006206E+02  0.46758664875E+02  0.25001277811E+00 0.  0.
    1000022    2    1    0    0    0 -0.24299892817E+02  0.51364012246E+02  0.24031305245E+02  0.62500002523E+02  0.10000006934E+02 0.  0.
    3000022    2    5    5    0    0 -0.68317628274E+01  0.21287182860E+02  0.52788396107E+01  0.22972718293E+02  0.25000136280E+00 0.  0.
        -13    1    4    4    0    0  0.14840877533E+02 -0.24838475701E+02 -0.12281996273E+02  0.31433421362E+02  0.10500000000E+00 0. -1.
         13    1    4    4    0    0  0.72957192884E+01 -0.12064011582E+02 -0.60070099331E+01  0.15325243513E+02  0.10500000000E+00 0.  1.
    3000001    1    5    5    0    0 -0.17468129989E+02  0.30076829386E+02  0.18752465635E+02  0.39527284230E+02  0.10000000000E+01 0. -1.
        -13    1    6    6    0    0 -0.39085979391E+01  0.11999954937E+02  0.29420993261E+01  0.12959283537E+02  0.10500000000E+00 0. -1.
         13    1    6    6    0    0 -0.29231648883E+01  0.92872279225E+01  0.23367402846E+01  0.10013434756E+02  0.10500000000E+00 0.  1.
</event>
<event>
11    0  0.3483054E-009  0.9118800E+02  0.7816531E-02  0.1126479E+00
         25   -1    0    0    0    0  0.00000000000E+00  0.00000000000E+00  0.99999998245E-14  0.12500000000E+03  0.12500000000E+03 0.  0.
    3000001    1    3    3    0    0 -0.52653117034E+02 -0.20692307987E+02  0.20434849335E+02  0.60159001077E+02  0.10000000000E+01 0.  1.
    1000022    2    1    0    0    0 -0.53177319577E+02 -0.22659544712E+02  0.21563109205E+02  0.62499999468E+02  0.99999985494E+01 0.  0.
    3000022    2    3    3    0    0 -0.52420254228E+00 -0.19672367252E+01  0.11282598692E+01  0.23409983905E+01  0.24998898677E+00 0.  0.
    1000022    2    1    0    0    0  0.53177319577E+02  0.22659544712E+02 -0.21563109205E+02  0.62500000532E+02  0.10000005203E+02 0.  0.
    3000022    2    5    5    0    0  0.11779124748E+02  0.96110322577E+01 -0.45841713360E+01  0.15880706850E+02  0.25000463303E+00 0.  0.
        -13    1    4    4    0    0 -0.19271725716E+00 -0.62755646219E+00  0.31491154335E+00  0.73563668654E+00  0.10500000000E+00 0.  1.
         13    1    4    4    0    0 -0.33148528512E+00 -0.13396802630E+01  0.81334832582E+00  0.16053617039E+01  0.10500000000E+00 0. -1.
    3000001    1    5    5    0    0  0.41398194828E+02  0.13048512454E+02 -0.16978937869E+02  0.46619293683E+02  0.10000000000E+01 0.  1.
        -13    1    6    6    0    0  0.50247041763E+01  0.41777250987E+01 -0.19970983496E+01  0.68337739118E+01  0.10500000000E+00 0. -1.
         13    1    6    6    0    0  0.67544205718E+01  0.54333071590E+01 -0.25870729863E+01  0.90469329378E+01  0.10500000000E+00 0.  1.
</event>
<event>
11    0  0.3483054E-009  0.9118800E+02  0.7816531E-02  0.1126479E+00
         25   -1    0    0    0    0  0.00000000000E+00  0.00000000000E+00  0.99999998245E-14  0.12500000000E+03  0.12500000000E+03 0.  0.
    3000001    1    3    3    0    0  0.18789067146E+02  0.19634480749E+02  0.29514385578E+02  0.40132790017E+02  0.10000000000E+01 0.  1.
    1000022    2    1    0    0    0  0.30107602005E+02  0.35493317625E+02  0.40496993322E+02  0.62500000928E+02  0.10000017666E+02 0.  0.
    3000022    2    3    3    0    0  0.11318534860E+02  0.15858836877E+02  0.10982607744E+02  0.22367210911E+02  0.25002529401E+00 0.  0.
    1000022    2    1    0    0    0 -0.30107602005E+02 -0.35493317625E+02 -0.40496993322E+02  0.62499999072E+02  0.10000006064E+02 0.  0.
    3000022    2    5    5    0    0 -0.10079445857E+02 -0.81442587004E+01 -0.16372117863E+02  0.20881401322E+02  0.24999852860E+00 0.  0.
        -13    1    4    4    0    0  0.47123575075E+01  0.65555842701E+01  0.44841481591E+01  0.92358328327E+01  0.10500000000E+00 0. -1.
         13    1    4    4    0    0  0.66061773520E+01  0.93032526066E+01  0.64984595851E+01  0.13131378079E+02  0.10500000000E+00 0.  1.
    3000001    1    5    5    0    0 -0.20028156148E+02 -0.27349058925E+02 -0.24124875459E+02  0.41618597750E+02  0.10000000000E+01 0.  1.
        -13    1    6    6    0    0 -0.62161673199E+01 -0.49514164772E+01 -0.99963271431E+01  0.12770859119E+02  0.10500000000E+00 0.  1.
         13    1    6    6    0    0 -0.38632785374E+01 -0.31928422232E+01 -0.63757907203E+01  0.81105422032E+01  0.10500000000E+00 0. -1.
</event>
<event>
11    0  0.3483054E-009  0.9118800E+02  0.7816531E-02  0.1126479E+00
         25   -1    0    0    0    0  0.00000000000E+00  0.00000000000E+00  0.99999998245E-14  0.12500000000E+03  0.12500000000E+03 0.  0.
    3000001    1    3    3    0    0  0.38476401409E+01 -0.20994171619E+01  0.66521553183E+01  0.80288889301E+01  0.10000000000E+01 0.  1.
    1000022    2    1    0    0    0  0.75745584588E+01 -0.27042746584E+02  0.54932376148E+02  0.62499998962E+02  0.99999921164E+01 0.  0.
    3000022    2    3    3    0    0  0.37269183179E+01 -0.24943329422E+02  0.48280220829E+02  0.54471110031E+02  0.25000385383E+00 0.  0.
    1000022    2    1    0    0    0 -0.75745584588E+01  0.27042746584E+02 -0.54932376148E+02  0.62500001038E+02  0.10000005097E+02 0.  0.
    3000022    2    5    5    0    0 -0.67159716271E+01  0.27509287617E+02 -0.53257656433E+02  0.60318369079E+02  0.24999902554E+00 0.  0.
        -13    1    4    4    0    0  0.87306548911E+00 -0.58644641622E+01  0.11382511220E+02  0.12834592707E+02  0.10500000000E+00 0.  1.
         13    1    4    4    0    0  0.28538528288E+01 -0.19078865260E+02  0.36897709609E+02  0.41636517325E+02  0.10500000000E+00 0. -1.
    3000001    1    5    5    0    0 -0.85858683175E+00 -0.46654103344E+00 -0.16747197146E+01  0.21816319593E+01  0.10000000000E+01 0. -1.
        -13    1    6    6    0    0 -0.18355944910E+01  0.76580167994E+01 -0.14855858983E+02  0.16814345053E+02  0.10500000000E+00 0.  1.
         13    1    6    6    0    0 -0.48803771360E+01  0.19851270818E+02 -0.38401797450E+02  0.43504024026E+02  0.10500000000E+00 0. -1.
</event>
<event>
11    0  0.3483054E-009  0.9118800E+02  0.7816531E-02  0.1126479E+00
         25   -1    0    0    0    0  0.00000000000E+00  0.00000000000E+00  0.99999998245E-14  0.12500000000E+03  0.12500000000E+03 0.  0.
    3000001    1    3    3    0    0 -0.25691059267E+02 -0.12108683824E+02  0.19217785631E+01  0.28484100531E+02  0.10000000000E+01 0.  1.
    1000022    2    1    0    0    0 -0.53501595966E+02 -0.30219028891E+02 -0.55353293135E+01  0.62500001400E+02  0.99999913165E+01 0.  0.
    3000022    2    3    3    0    0 -0.27810536699E+02 -0.18110345068E+02 -0.74571078766E+01  0.34015900869E+02  0.25000818909E+00 0.  0.
    1000022    2    1    0    0    0  0.53501595966E+02  0.30219028891E+02  0.55353293135E+01  0.62499998600E+02  0.99999738150E+01 0.  0.
    3000022    2    5    5    0    0  0.23060400495E+02  0.79393131352E+01  0.41293990266E+01  0.24737202678E+02  0.24999188271E+00 0.  0.
        -13    1    4    4    0    0 -0.14750133634E+02 -0.95254837404E+01 -0.39367903222E+01  0.17994738835E+02  0.10500000000E+00 0.  1.
         13    1    4    4    0    0 -0.13060403065E+02 -0.85848613272E+01 -0.35203175544E+01  0.16021162034E+02  0.10500000000E+00 0. -1.
    3000001    1    5    5    0    0  0.30441195471E+02  0.22279715756E+02  0.14059302869E+01  0.37762795922E+02  0.10000000000E+01 0.  1.
        -13    1    6    6    0    0  0.70398880383E+01  0.24050356464E+01  0.12153355801E+01  0.75387190971E+01  0.10500000000E+00 0. -1.
         13    1    6    6    0    0  0.16020512457E+02  0.55342774888E+01  0.29140634465E+01  0.17198483581E+02  0.10500000000E+00 0.  1.
</event>
<event>
11    0  0.3483054E-009  0.9118800E+02  0.7816531E-02  0.1126479E+00
         25   -1    0    0    0    0  0.00000000000E+00  0.00000000000E+00  0.99999998245E-14  0.12500000000E+03  0.12500000000E+03 0.  0.
    3000001    1    3    3    0    0 -0.30356101245E+02  0.32186017896E+02 -0.22931241628E+02  0.49842496661E+02  0.10000000000E+01 0. -1.
    1000022    2    1    0    0    0 -0.33627369109E+02  0.42580370270E+02 -0.29366001100E+02  0.62499999861E+02  0.10000003825E+02 0.  0.
    3000022    2    3    3    0    0 -0.32712678635E+01  0.10394352374E+02 -0.64347594718E+01  0.12657503200E+02  0.25000616355E+00 0.  0.
    1000022    2    1    0    0    0  0.33627369109E+02 -0.42580370270E+02  0.29366001100E+02  0.62500000139E+02  0.10000005569E+02 0.  0.
    3000022    2    5    5    0    0  0.56135514515E+01 -0.12557512400E+02  0.44516454068E+01  0.14459693167E+02  0.25000417995E+00 0.  0.
        -13    1    4    4    0    0 -0.14555858890E+01  0.48438800601E+01 -0.29699175906E+01  0.58662884188E+01  0.10500000000E+00 0.  1.
         13    1    4    4    0    0 -0.18156819746E+01  0.55504723136E+01 -0.34648418812E+01  0.67912147808E+01  0.10500000000E+00 0. -1.
    3000001    1    5    5    0    0  0.28013817657E+02 -0.30022857870E+02  0.24914355693E+02  0.48040306972E+02  0.10000000000E+01 0. -1.
        -13    1    6    6    0    0  0.36073792168E+01 -0.82072553636E+01  0.28977114884E+01  0.94223130009E+01  0.10500000000E+00 0. -1.
         13    1    6    6    0    0  0.20061722347E+01 -0.43502570361E+01  0.15539339184E+01  0.50373801662E+01  0.10500000000E+00 0.  1.
</event>
<event>
11    0  0.3483054E-009  0.9118800E+02  0.7816531E-02  0.1126479E+00
         25   -1    0    0    0    0  0.00000000000E+00  0.00000000000E+00  0.99999998245E-14  0.12500000000E+03  0.12500000000E+03 0.  0.
    3000001    1    3    3    0    0  0.85905486217E+01  0.97493584266E+00 -0.15988948731E+01  0.88489824462E+01  0.10000000000E+01 0. -1.
    1000022    2    1    0    0    0  0.56860024569E+02 -0.15469540578E+02 -0.18272394889E+02  0.62499995549E+02  0.99999974533E+01 0.  0.
    3000022    2    3    3    0    0  0.48269475947E+02 -0.16444476421E+02 -0.16673500016E+02  0.53651013103E+02  0.24998255608E+00 0.  0.
    1000022    2    1    0    0    0 -0.56860024569E+02  0.15469540578E+02  0.18272394889E+02  0.62500004451E+02  0.10000053086E+02 0.  0.
    3000022    2    5    5    0    0 -0.28723906037E+02  0.27091191455E+01  0.92705173177E+01  0.30305232810E+02  0.25007956719E+00 0.  0.
        -13    1    4    4    0    0  0.30117509256E+02 -0.10278490079E+02 -0.10344358112E+02  0.33462344386E+02  0.10500000000E+00 0.  1.
         13    1    4    4    0    0  0.18151966691E+02 -0.61659863417E+01 -0.63291419035E+01  0.20188668717E+02  0.10500000000E+00 0. -1.
    3000001    1    5    5    0    0 -0.28136118532E+02  0.12760421433E+02  0.90018775710E+01  0.32194771641E+02  0.10000000000E+01 0. -1.
        -13    1    6    6    0    0 -0.66348078846E+01  0.62215518373E+00  0.21325817500E+01  0.69976197852E+01  0.10500000000E+00 0.  1.
         13    1    6    6    0    0 -0.22089098152E+02  0.20869639618E+01  0.71379355677E+01  0.23307613025E+02  0.10500000000E+00 0. -1.
</event>
<event>
11    0  0.3483054E-009  0.9118800E+02  0.7816531E-02  0.1126479E+00
         25   -1    0    0    0    0  0.00000000000E+00  0.00000000000E+00  0.99999998245E-14  0.12500000000E+03  0.12500000000E+03 0.  0.
    3000001    1    3    3    0    0 -0.30259139737E+01  0.36725659667E+02  0.88628785247E+01  0.37914124665E+02  0.10000000000E+01 0.  1.
    1000022    2    1    0    0    0 -0.94627277991E+01  0.57435545283E+02  0.20441761307E+02  0.62499993785E+02  0.99999269190E+01 0.  0.
    3000022    2    3    3    0    0 -0.64368138254E+01  0.20709885616E+02  0.11578882782E+02  0.24585869120E+02  0.24999888330E+00 0.  0.
    1000022    2    1    0    0    0  0.94627277991E+01 -0.57435545283E+02 -0.20441761307E+02  0.62500006215E+02  0.10000004607E+02 0.  0.
    3000022    2    5    5    0    0  0.42634138982E+01 -0.12260487258E+02 -0.95793108540E+00  0.13018308864E+02  0.24997568324E+00 0.  0.
        -13    1    4    4    0    0 -0.38350430842E+01  0.12195138938E+02  0.67711257270E+01  0.14466794316E+02  0.10500000000E+00 0. -1.
         13    1    4    4    0    0 -0.26017707411E+01  0.85147466786E+01  0.48077570552E+01  0.10119074804E+02  0.10500000000E+00 0.  1.
    3000001    1    5    5    0    0  0.51993139009E+01 -0.45175058026E+02 -0.19483830222E+02  0.49481697351E+02  0.10000000000E+01 0.  1.
        -13    1    6    6    0    0  0.26709836673E+01 -0.78215137398E+01 -0.64605063554E+00  0.82908767544E+01  0.10500000000E+00 0. -1.
         13    1    6    6    0    0  0.15924302309E+01 -0.44389735179E+01 -0.31188044986E+00  0.47274321093E+01  0.10500000000E+00 0.  1.
</event>
<event>
11    0  0.3483054E-009  0.9118800E+02  0.7816531E-02  0.1126479E+00
         25   -1    0    0    0    0  0.00000000000E+00  0.00000000000E+00  0.99999998245E-14  0.12500000000E+03  0.12500000000E+03 0.  0.
    3000001    1    3    3    0    0  0.31221689363E+02  0.48446554989E+02  0.86067968130E+01  0.58283269713E+02  0.10000000000E+01 0. -1.
    1000022    2    1    0    0    0  0.32918553436E+02  0.51755253712E+02  0.66341154523E+01  0.62499993416E+02  0.10000012102E+02 0.  0.
    3000022    2    3    3    0    0  0.16968640733E+01  0.33086987228E+01 -0.19726813607E+01  0.42167237035E+01  0.24990421934E+00 0.  0.
    1000022    2    1    0    0    0 -0.32918553436E+02 -0.51755253712E+02 -0.66341154523E+01  0.62500006584E+02  0.10000094398E+02 0.  0.
    3000022    2    5    5    0    0 -0.84672722448E+01 -0.22020845955E+02 -0.13903124930E+01  0.23634885639E+02  0.24998898209E+00 0.  0.
        -13    1    4    4    0    0  0.94576150945E+00  0.17100494321E+01 -0.10680655025E+01  0.22294669342E+01  0.10500000000E+00 0.  1.
         13    1    4    4    0    0  0.75110256381E+00  0.15986492907E+01 -0.90461585826E+00  0.19872567693E+01  0.10500000000E+00 0. -1.
    3000001    1    5    5    0    0 -0.24451281192E+02 -0.29734407757E+02 -0.52438029592E+01  0.38865120945E+02  0.10000000000E+01 0.  1.
        -13    1    6    6    0    0 -0.20077023415E+01 -0.52080148680E+01 -0.31346208687E+00  0.55913836425E+01  0.10500000000E+00 0.  1.
         13    1    6    6    0    0 -0.64595699033E+01 -0.16812831087E+02 -0.10768504062E+01  0.18043501996E+02  0.10500000000E+00 0. -1.
</event>
<event>
11    0  0.3483054E-009  0.9118800E+02  0.7816531E-02  0.1126479E+00
         25   -1    0    0    0    0  0.00000000000E+00  0.00000000000E+00  0.99999998245E-14  0.12500000000E+03  0.12500000000E+03 0.  0.
    3000001    1    3    3    0    0  0.44927612978E+02 -0.11902139530E+02 -0.31556985271E+02  0.56187139566E+02  0.10000000000E+01 0. -1.
    1000022    2    1    0    0    0  0.47579314101E+02 -0.15272073151E+02 -0.36183184904E+02  0.62499999358E+02  0.99999850615E+01 0.  0.
    3000022    2    3    3    0    0  0.26517011238E+01 -0.33699336207E+01 -0.46261996334E+01  0.63128597915E+01  0.25000848232E+00 0.  0.
    1000022    2    1    0    0    0 -0.47579314101E+02  0.15272073151E+02  0.36183184904E+02  0.62500000642E+02  0.99999930893E+01 0.  0.
    3000022    2    5    5    0    0 -0.21740386048E+02  0.11455680714E+02  0.14464817693E+02  0.28516143762E+02  0.24999597091E+00 0.  0.
        -13    1    4    4    0    0  0.88909422640E+00 -0.10501525546E+01 -0.14674230957E+01  0.20143645333E+01  0.10500000000E+00 0. -1.
         13    1    4    4    0    0  0.17626068974E+01 -0.23197810662E+01 -0.31587765377E+01  0.42984952582E+01  0.10500000000E+00 0.  1.
    3000001    1    5    5    0    0 -0.25838928053E+02  0.38163924365E+01  0.21718367211E+02  0.33983856881E+02  0.10000000000E+01 0.  1.
        -13    1    6    6    0    0 -0.15015893314E+02  0.79618896620E+01  0.99813277532E+01  0.19710572486E+02  0.10500000000E+00 0.  1.
         13    1    6    6    0    0 -0.67244927343E+01  0.34937910520E+01  0.44834899397E+01  0.88055712756E+01  0.10500000000E+00 0. -1.
</event>
<event>
11    0  0.3483054E-009  0.9118800E+02  0.7816531E-02  0.1126479E+00
         25   -1    0    0    0    0  0.00000000000E+00  0.00000000000E+00  0.99999998245E-14  0.12500000000E+03  0.12500000000E+03 0.  0.
    3000001    1    3    3    0    0 -0.38397357682E+02  0.13574511397E+02  0.46111181751E+02  0.61529387443E+02  0.10000000000E+01 0. -1.
    1000022    2    1    0    0    0 -0.39222119750E+02  0.13476729893E+02  0.45675520111E+02  0.62500000686E+02  0.10000001102E+02 0.  0.
    3000022    2    3    3    0    0 -0.82476206781E+00 -0.97781504817E-01 -0.43566164057E+00  0.97061324237E+00  0.24999061986E+00 0.  0.
    1000022    2    1    0    0    0  0.39222119750E+02 -0.13476729893E+02 -0.45675520111E+02  0.62499999314E+02  0.99999925297E+01 0.  0.
    3000022    2    5    5    0    0  0.87395322960E+01 -0.75300762442E+01 -0.13727777275E+02  0.17933093433E+02  0.24999634491E+00 0.  0.
        -13    1    4    4    0    0 -0.43570973980E+00  0.79328434463E-02 -0.18907157735E+00  0.48649662766E+00  0.10500000000E+00 0.  1.
         13    1    4    4    0    0 -0.38905232801E+00 -0.10571434826E+00 -0.24659006323E+00  0.48411661471E+00  0.10500000000E+00 0. -1.
    3000001    1    5    5    0    0  0.30482587454E+02 -0.59466536484E+01 -0.31947742836E+02  0.44566905881E+02  0.10000000000E+01 0. -1.
        -13    1    6    6    0    0  0.45168843003E+01 -0.38816335483E+01 -0.71915087481E+01  0.93379947451E+01  0.10500000000E+00 0. -1.
         13    1    6    6    0    0  0.42226479956E+01 -0.36484426959E+01 -0.65362685266E+01  0.85950986878E+01  0.10500000000E+00 0.  1.
</event>
<event>
11    0  0.3483054E-009  0.9118800E+02  0.7816531E-02  0.1126479E+00
         25   -1    0    0    0    0  0.00000000000E+00  0.00000000000E+00  0.99999998245E-14  0.12500000000E+03  0.12500000000E+03 0.  0.
    3000001    1    3    3    0    0  0.22424432909E+01 -0.21447214832E+02 -0.17357236160E+01  0.21656969142E+02  0.10000000000E+01 0.  1.
    1000022    2    1    0    0    0 -0.28403312312E+01 -0.59872712518E+02 -0.14609617732E+02  0.62500000245E+02  0.99999957297E+01 0.  0.
    3000022    2    3    3    0    0 -0.50827745221E+01 -0.38425497686E+02 -0.12873894116E+02  0.40843031103E+02  0.25014133094E+00 0.  0.
    1000022    2    1    0    0    0  0.28403312312E+01  0.59872712518E+02  0.14609617732E+02  0.62499999755E+02  0.99999926673E+01 0.  0.
    3000022    2    5    5    0    0  0.15834997232E+01  0.44401042462E+02  0.15132818087E+02  0.46936390329E+02  0.25002152879E+00 0.  0.
        -13    1    4    4    0    0 -0.28205655212E+01 -0.21729196747E+02 -0.73187268615E+01  0.23101696237E+02  0.10500000000E+00 0. -1.
         13    1    4    4    0    0 -0.22622090010E+01 -0.16696300939E+02 -0.55551672549E+01  0.17741334866E+02  0.10500000000E+00 0.  1.
    3000001    1    5    5    0    0  0.12568315080E+01  0.15471670056E+02 -0.52320035485E+00  0.15563609426E+02  0.10000000000E+01 0. -1.
        -13    1    6    6    0    0  0.93506076459E+00  0.27156534902E+02  0.93100341665E+01  0.28723500617E+02  0.10500000000E+00 0. -1.
         13    1    6    6    0    0  0.64843895863E+00  0.17244507560E+02  0.58227839207E+01  0.18212889712E+02  0.10500000000E+00 0.  1.
</event>
<event>
11    0  0.3483054E-009  0.9118800E+02  0.7816531E-02  0.1126479E+00
         25   -1    0    0    0    0  0.00000000000E+00  0.00000000000E+00  0.99999998245E-14  0.12500000000E+03  0.12500000000E+03 0.  0.
    3000001    1    3    3    0    0 -0.25308030398E+02 -0.20179112068E+02 -0.48810945281E+01  0.32749321371E+02  0.10000000000E+01 0.  1.
    1000022    2    1    0    0    0 -0.41900476304E+02 -0.44822044033E+02 -0.64485975752E+01  0.62500000632E+02  0.10000006127E+02 0.  0.
    3000022    2    3    3    0    0 -0.16592445906E+02 -0.24642931964E+02 -0.15675030470E+01  0.29750679260E+02  0.24998745407E+00 0.  0.
    1000022    2    1    0    0    0  0.41900476304E+02  0.44822044033E+02  0.64485975752E+01  0.62499999368E+02  0.99999982302E+01 0.  0.
    3000022    2    5    5    0    0  0.15912686631E+02  0.13940188094E+02 -0.20019051775E+01  0.21251178354E+02  0.25003436371E+00 0.  0.
        -13    1    4    4    0    0 -0.64655144575E+01 -0.97050922220E+01 -0.63972187372E+00  0.11679553130E+02  0.10500000000E+00 0.  1.
         13    1    4    4    0    0 -0.10126931448E+02 -0.14937839742E+02 -0.92778117332E+00  0.18071126131E+02  0.10500000000E+00 0. -1.
    3000001    1    5    5    0    0  0.25987789673E+02  0.30881855939E+02  0.84505027527E+01  0.41248821014E+02  0.10000000000E+01 0. -1.
        -13    1    6    6    0    0  0.37728415482E+01  0.33272880073E+01 -0.47062985427E+00  0.50534835798E+01  0.10500000000E+00 0.  1.
         13    1    6    6    0    0  0.12139845083E+02  0.10612900086E+02 -0.15312753232E+01  0.16197694774E+02  0.10500000000E+00 0. -1.
</event>
<event>
11    0  0.3483054E-009  0.9118800E+02  0.7816531E-02  0.1126479E+00
         25   -1    0    0    0    0  0.00000000000E+00  0.00000000000E+00  0.99999998245E-14  0.12500000000E+03  0.12500000000E+03 0.  0.
    3000001    1    3    3    0    0 -0.20430476011E+02 -0.24641020645E+01 -0.11185430939E+02  0.23443336245E+02  0.10000000000E+01 0.  1.
    1000022    2    1    0    0    0 -0.49279355090E+02  0.25453023914E+01 -0.37031291802E+02  0.62499999754E+02  0.99999997196E+01 0.  0.
    3000022    2    3    3    0    0 -0.28848879079E+02  0.50094044559E+01 -0.25845860862E+02  0.39056663508E+02  0.24996715686E+00 0.  0.
    1000022    2    1    0    0    0  0.49279355090E+02 -0.25453023914E+01  0.37031291802E+02  0.62500000246E+02  0.10000002797E+02 0.  0.
    3000022    2    5    5    0    0  0.24785407671E+02  0.58978101666E+00  0.12858499285E+02  0.27929693534E+02  0.25000393962E+00 0.  0.
        -13    1    4    4    0    0 -0.16744304971E+02  0.29328705943E+01 -0.14925322220E+02  0.22621886466E+02  0.10500000000E+00 0. -1.
         13    1    4    4    0    0 -0.12104574108E+02  0.20765338616E+01 -0.10920538642E+02  0.16434777043E+02  0.10500000000E+00 0.  1.
    3000001    1    5    5    0    0  0.24493947418E+02 -0.31350834081E+01  0.24172792516E+02  0.34570306712E+02  0.10000000000E+01 0.  1.
        -13    1    6    6    0    0  0.71749767023E+01  0.18489073352E+00  0.36772864606E+01  0.80652300634E+01  0.10500000000E+00 0. -1.
         13    1    6    6    0    0  0.17610430969E+02  0.40489028313E+00  0.91812128246E+01  0.19864463471E+02  0.10500000000E+00 0.  1.
</event>
<event>
11    0  0.3483054E-009  0.9118800E+02  0.7816531E-02  0.1126479E+00
         25   -1    0    0    0    0  0.00000000000E+00  0.00000000000E+00  0.99999998245E-14  0.12500000000E+03  0.12500000000E+03 0.  0.
    3000001    1    3    3    0    0 -0.30873327946E+02 -0.18594842042E+02 -0.39202336594E+02  0.53261184022E+02  0.10000000000E+01 0.  1.
    1000022    2    1    0    0    0 -0.34762703576E+02 -0.25269448457E+02 -0.44263522541E+02  0.62499999811E+02  0.99999981736E+01 0.  0.
    3000022    2    3    3    0    0 -0.38893756293E+01 -0.66746064156E+01 -0.50611859471E+01  0.92388157892E+01  0.25000081107E+00 0.  0.
    1000022    2    1    0    0    0  0.34762703576E+02  0.25269448457E+02  0.44263522541E+02  0.62500000189E+02  0.10000000531E+02 0.  0.
    3000022    2    5    5    0    0  0.29255482242E+02  0.23261461981E+02  0.41770775831E+02  0.56052110404E+02  0.25002512122E+00 0.  0.
        -13    1    4    4    0    0 -0.10075526911E+01 -0.17513954147E+01 -0.13613422033E+01  0.24386114735E+01  0.10500000000E+00 0.  1.
         13    1    4    4    0    0 -0.28818229382E+01 -0.49232110009E+01 -0.36998437438E+01  0.68002043157E+01  0.10500000000E+00 0. -1.
    3000001    1    5    5    0    0  0.55072213339E+01  0.20079864769E+01  0.24927467095E+01  0.64478897842E+01  0.10000000000E+01 0.  1.
        -13    1    6    6    0    0  0.19933679197E+02  0.15837292955E+02  0.28377928067E+02  0.38124653977E+02  0.10500000000E+00 0. -1.
         13    1    6    6    0    0  0.93218030443E+01  0.74241690250E+01  0.13392847765E+02  0.17927456427E+02  0.10500000000E+00 0.  1.
</event>
<event>
11    0  0.3483054E-009  0.9118800E+02  0.7816531E-02  0.1126479E+00
         25   -1    0    0    0    0  0.00000000000E+00  0.00000000000E+00  0.99999998245E-14  0.12500000000E+03  0.12500000000E+03 0.  0.
    3000001    1    3    3    0    0  0.25102863316E+01  0.10982925002E+02  0.24822997923E+01  0.11579636926E+02  0.10000000000E+01 0.  1.
    1000022    2    1    0    0    0  0.84806025310E+00  0.54630454661E+02  0.28653867006E+02  0.62499999075E+02  0.10000000368E+02 0.  0.
    3000022    2    3    3    0    0 -0.16622260785E+01  0.43647529658E+02  0.26171567213E+02  0.50920362149E+02  0.25002037078E+00 0.  0.
    1000022    2    1    0    0    0 -0.84806025310E+00 -0.54630454661E+02 -0.28653867006E+02  0.62500000925E+02  0.10000011932E+02 0.  0.
    3000022    2    5    5    0    0 -0.50029211955E+00 -0.79260625207E+01 -0.84585947444E+01  0.11605303662E+02  0.24997748631E+00 0.  0.
        -13    1    4    4    0    0 -0.11278307594E+01  0.30475343316E+02  0.18234219059E+02  0.35531905692E+02  0.10500000000E+00 0.  1.
         13    1    4    4    0    0 -0.53439531910E+00  0.13172186342E+02  0.79373481550E+01  0.15388456457E+02  0.10500000000E+00 0. -1.
    3000001    1    5    5    0    0 -0.34776813354E+00 -0.46704392140E+02 -0.20195272261E+02  0.50894697263E+02  0.10000000000E+01 0. -1.
        -13    1    6    6    0    0 -0.10630544222E+00 -0.23411576084E+01 -0.25210327094E+01  0.34436827258E+01  0.10500000000E+00 0. -1.
         13    1    6    6    0    0 -0.39398667734E+00 -0.55849049123E+01 -0.59375620350E+01  0.81616209359E+01  0.10500000000E+00 0.  1.
</event>
<event>
11    0  0.3483054E-009  0.9118800E+02  0.7816531E-02  0.1126479E+00
         25   -1    0    0    0    0  0.00000000000E+00  0.00000000000E+00  0.99999998245E-14  0.12500000000E+03  0.12500000000E+03 0.  0.
    3000001    1    3    3    0    0 -0.51877957813E+01 -0.45049552660E+01 -0.26430592270E+01  0.74292401425E+01  0.10000000000E+01 0. -1.
    1000022    2    1    0    0    0 -0.31870415417E+02 -0.52651208827E+02 -0.42868720574E+01  0.62499999581E+02  0.99999752880E+01 0.  0.
    3000022    2    3    3    0    0 -0.26682619635E+02 -0.48146253561E+02 -0.16438128304E+01  0.55070759438E+02  0.25000380865E+00 0.  0.
    1000022    2    1    0    0    0  0.31870415417E+02  0.52651208827E+02  0.42868720574E+01  0.62500000419E+02  0.99999805283E+01 0.  0.
    3000022    2    5    5    0    0  0.14724527171E+02  0.25450292930E+02  0.69704447608E+01  0.30218846910E+02  0.24999564106E+00 0.  0.
        -13    1    4    4    0    0 -0.16320909378E+02 -0.29565391759E+02 -0.10338207058E+01  0.33787043124E+02  0.10500000000E+00 0. -1.
         13    1    4    4    0    0 -0.10361710257E+02 -0.18580861802E+02 -0.60999212459E+00  0.21283716314E+02  0.10500000000E+00 0.  1.
    3000001    1    5    5    0    0  0.17145888246E+02  0.27200915898E+02 -0.26835727034E+01  0.32281153509E+02  0.10000000000E+01 0.  1.
        -13    1    6    6    0    0  0.11142479105E+02  0.19268754266E+02  0.52548789752E+01  0.22870603613E+02  0.10500000000E+00 0.  1.
         13    1    6    6    0    0  0.35820480655E+01  0.61815386632E+01  0.17155657856E+01  0.73482432970E+01  0.10500000000E+00 0. -1.
</event>
<event>
11    0  0.3483054E-009  0.9118800E+02  0.7816531E-02  0.1126479E+00
         25   -1    0    0    0    0  0.00000000000E+00  0.00000000000E+00  0.99999998245E-14  0.12500000000E+03  0.12500000000E+03 0.  0.
    3000001    1    3    3    0    0 -0.29861390745E+02 -0.31725795378E+02 -0.43312061071E+02  0.61442358221E+02  0.10000000000E+01 0.  1.
    1000022    2    1    0    0    0 -0.30219013459E+02 -0.32552850849E+02 -0.42817905465E+02  0.62499999500E+02  0.10000001814E+02 0.  0.
    3000022    2    3    3    0    0 -0.35762271331E+00 -0.82705547147E+00  0.49415560557E+00  0.10576412790E+01  0.25000110924E+00 0.  0.
    1000022    2    1    0    0    0  0.30219013459E+02  0.32552850849E+02  0.42817905465E+02  0.62500000500E+02  0.10000008063E+02 0.  0.
    3000022    2    5    5    0    0  0.20095155943E+02  0.14546160877E+02  0.24627535430E+02  0.34956889986E+02  0.25013505380E+00 0.  0.
        -13    1    4    4    0    0 -0.15658388511E+00 -0.24032508660E+00  0.17954410017E+00  0.35431023727E+00  0.10500000000E+00 0.  1.
         13    1    4    4    0    0 -0.20103882820E+00 -0.58673038487E+00  0.31461150539E+00  0.70333104175E+00  0.10500000000E+00 0. -1.
    3000001    1    5    5    0    0  0.10123857516E+02  0.18006689972E+02  0.18190370035E+02  0.27543110514E+02  0.10000000000E+01 0.  1.
        -13    1    6    6    0    0  0.89355512779E+01  0.64737835860E+01  0.11047882453E+02  0.15614758475E+02  0.10500000000E+00 0. -1.
         13    1    6    6    0    0  0.11159604665E+02  0.80723772913E+01  0.13579652977E+02  0.19342131511E+02  0.10500000000E+00 0.  1.
</event>
<event>
11    0  0.3483054E-009  0.9118800E+02  0.7816531E-02  0.1126479E+00
         25   -1    0    0    0    0  0.00000000000E+00  0.00000000000E+00  0.99999998245E-14  0.12500000000E+03  0.12500000000E+03 0.  0.
    3000001    1    3    3    0    0  0.22019285059E+02  0.53984240931E+01  0.13478537323E+02  0.26394371854E+02  0.10000000000E+01 0.  1.
    1000022    2    1    0    0    0  0.44783296110E+02  0.11788057185E+02  0.40764545507E+02  0.62499999706E+02  0.99999945070E+01 0.  0.
    3000022    2    3    3    0    0  0.22764011051E+02  0.63896330915E+01  0.27286008183E+02  0.36105627851E+02  0.25001954730E+00 0.  0.
    1000022    2    1    0    0    0 -0.44783296110E+02 -0.11788057185E+02 -0.40764545507E+02  0.62500000294E+02  0.99999981866E+01 0.  0.
    3000022    2    5    5    0    0 -0.25543625533E+01 -0.31624396467E+01 -0.20667355467E+01  0.45672409696E+01  0.25000336401E+00 0.  0.
        -13    1    4    4    0    0  0.78566997381E+01  0.22010953913E+01  0.93317407920E+01  0.12396167267E+02  0.10500000000E+00 0.  1.
         13    1    4    4    0    0  0.14907311313E+02  0.41885377002E+01  0.17954267391E+02  0.23709460584E+02  0.10500000000E+00 0. -1.
    3000001    1    5    5    0    0 -0.42228933557E+02 -0.86256175379E+01 -0.38697809960E+02  0.57932759325E+02  0.10000000000E+01 0.  1.
        -13    1    6    6    0    0 -0.62823914691E+00 -0.82442540394E+00 -0.52792771789E+00  0.11679444968E+01  0.10500000000E+00 0. -1.
         13    1    6    6    0    0 -0.19261234064E+01 -0.23380142427E+01 -0.15388078288E+01  0.33992964727E+01  0.10500000000E+00 0.  1.
</event>
<event>
11    0  0.3483054E-009  0.9118800E+02  0.7816531E-02  0.1126479E+00
         25   -1    0    0    0    0  0.00000000000E+00  0.00000000000E+00  0.99999998245E-14  0.12500000000E+03  0.12500000000E+03 0.  0.
    3000001    1    3    3    0    0  0.19572422812E+02  0.19851991740E+02  0.32879759478E+02  0.43119136055E+02  0.10000000000E+01 0.  1.
    1000022    2    1    0    0    0  0.28712709972E+02  0.22478166853E+02  0.49765071029E+02  0.62500000285E+02  0.10000002105E+02 0.  0.
    3000022    2    3    3    0    0  0.91402871598E+01  0.26261751131E+01  0.16885311551E+02  0.19380864230E+02  0.25001409061E+00 0.  0.
    1000022    2    1    0    0    0 -0.28712709972E+02 -0.22478166853E+02 -0.49765071029E+02  0.62499999715E+02  0.99999985402E+01 0.  0.
    3000022    2    5    5    0    0 -0.49066309666E+01 -0.46380377325E+01 -0.38371202871E+01  0.77699689820E+01  0.25000886575E+00 0.  0.
        -13    1    4    4    0    0  0.39039199561E+01  0.11896010344E+01  0.72359005508E+01  0.83081299597E+01  0.10500000000E+00 0. -1.
         13    1    4    4    0    0  0.52363672036E+01  0.14365740787E+01  0.96494110003E+01  0.11072734271E+02  0.10500000000E+00 0.  1.
    3000001    1    5    5    0    0 -0.23806079006E+02 -0.17840129120E+02 -0.45927950742E+02  0.54730030733E+02  0.10000000000E+01 0.  1.
        -13    1    6    6    0    0 -0.16303956584E+01 -0.15329784069E+01 -0.13334845284E+01  0.26071859900E+01  0.10500000000E+00 0. -1.
         13    1    6    6    0    0 -0.32762353081E+01 -0.31050593256E+01 -0.25036357586E+01  0.51627829919E+01  0.10500000000E+00 0.  1.
</event>
<event>
11    0  0.3483054E-009  0.9118800E+02  0.7816531E-02  0.1126479E+00
         25   -1    0    0    0    0  0.00000000000E+00  0.00000000000E+00  0.99999998245E-14  0.12500000000E+03  0.12500000000E+03 0.  0.
    3000001    1    3    3    0    0  0.77678621409E+00  0.11529405103E+01 -0.19772575569E+01  0.26157630033E+01  0.10000000000E+01 0. -1.
    1000022    2    1    0    0    0  0.51109881828E+02  0.49372804074E+01 -0.34200192977E+02  0.62499999746E+02  0.10000000513E+02 0.  0.
    3000022    2    3    3    0    0  0.50333095614E+02  0.37843398971E+01 -0.32222935421E+02  0.59884236743E+02  0.25000121261E+00 0.  0.
    1000022    2    1    0    0    0 -0.51109881828E+02 -0.49372804074E+01  0.34200192977E+02  0.62500000254E+02  0.10000003687E+02 0.  0.
    3000022    2    5    5    0    0 -0.61492422307E+01 -0.34199415031E+01  0.69575904953E+01  0.98984715655E+01  0.24998787506E+00 0.  0.
        -13    1    4    4    0    0  0.15863896104E+02  0.12340686922E+01 -0.10190977268E+02  0.18895850545E+02  0.10500000000E+00 0.  1.
         13    1    4    4    0    0  0.34469199510E+02  0.25502712049E+01 -0.22031958153E+02  0.40988386198E+02  0.10500000000E+00 0. -1.
    3000001    1    5    5    0    0 -0.44960639597E+02 -0.15173389043E+01  0.27242602482E+02  0.52601528688E+02  0.10000000000E+01 0. -1.
        -13    1    6    6    0    0 -0.40244961848E+01 -0.22686964671E+01  0.44984923693E+01  0.64491093802E+01  0.10500000000E+00 0.  1.
         13    1    6    6    0    0 -0.21247460459E+01 -0.11512450360E+01  0.24590981260E+01  0.34493621854E+01  0.10500000000E+00 0. -1.
</event>
<event>
11    0  0.3483054E-009  0.9118800E+02  0.7816531E-02  0.1126479E+00
         25   -1    0    0    0    0  0.00000000000E+00  0.00000000000E+00  0.99999998245E-14  0.12500000000E+03  0.12500000000E+03 0.  0.
    3000001    1    3    3    0    0  0.33127148724E+01 -0.23880258579E+01  0.38020079821E+01  0.56685105645E+01  0.10000000000E+01 0. -1.
    1000022    2    1    0    0    0  0.27878098671E+02 -0.49163528498E+02  0.24738817978E+02  0.62500000455E+02  0.10000001106E+02 0.  0.
    3000022    2    3    3    0    0  0.24565383798E+02 -0.46775502640E+02  0.20936809996E+02  0.56831489891E+02  0.25000408576E+00 0.  0.
    1000022    2    1    0    0    0 -0.27878098671E+02  0.49163528498E+02 -0.24738817978E+02  0.62499999545E+02  0.99999954186E+01 0.  0.
    3000022    2    5    5    0    0 -0.89939590757E+01  0.10820581697E+02 -0.10055878892E+02  0.17296227603E+02  0.25000177413E+00 0.  0.
        -13    1    4    4    0    0  0.12020833326E+02 -0.22763139399E+02  0.10164420164E+02  0.27676477583E+02  0.10500000000E+00 0. -1.
         13    1    4    4    0    0  0.12544550472E+02 -0.24012363241E+02  0.10772389832E+02  0.29155012307E+02  0.10500000000E+00 0.  1.
    3000001    1    5    5    0    0 -0.18884139595E+02  0.38342946800E+02 -0.14682939085E+02  0.45203771942E+02  0.10000000000E+01 0.  1.
        -13    1    6    6    0    0 -0.53604260282E+01  0.64114885096E+01 -0.60447730174E+01  0.10314633195E+02  0.10500000000E+00 0.  1.
         13    1    6    6    0    0 -0.36335330475E+01  0.44090931877E+01 -0.40111058749E+01  0.69815944085E+01  0.10500000000E+00 0.  1.
</event>
<event>
11    0  0.3483054E-009  0.9118800E+02  0.7816531E-02  0.1126479E+00
         25   -1    0    0    0    0  0.00000000000E+00  0.00000000000E+00  0.99999998245E-14  0.12500000000E+03  0.12500000000E+03 0.  0.
    3000001    1    3    3    0    0  0.13188345390E+02 -0.48523584103E+02 -0.17522517668E+02  0.53258889340E+02  0.10000000000E+01 0. -1.
    1000022    2    1    0    0    0  0.11393698040E+02 -0.56812395638E+02 -0.21184552989E+02  0.62500001529E+02  0.10000012633E+02 0.  0.
    3000022    2    3    3    0    0 -0.17946473498E+01 -0.82888115344E+01 -0.36620353209E+01  0.92411121886E+01  0.24999205351E+00 0.  0.
    1000022    2    1    0    0    0 -0.11393698040E+02  0.56812395638E+02  0.21184552989E+02  0.62499998471E+02  0.99999935211E+01 0.  0.
    3000022    2    5    5    0    0 -0.73455694116E+01  0.50588408578E+02  0.20104555701E+02  0.54930866787E+02  0.24998717640E+00 0.  0.
        -13    1    4    4    0    0 -0.79497661842E+00 -0.38355649821E+01 -0.17540726607E+01  0.42931739371E+01  0.10500000000E+00 0.  1.
         13    1    4    4    0    0 -0.99967073143E+00 -0.44532465523E+01 -0.19079626603E+01  0.49479382514E+01  0.10500000000E+00 0. -1.
    3000001    1    5    5    0    0 -0.40481286285E+01  0.62239870592E+01  0.10799972885E+01  0.75691316839E+01  0.10000000000E+01 0.  1.
        -13    1    6    6    0    0 -0.47427882210E+01  0.32446386527E+02  0.12948754922E+02  0.35255401257E+02  0.10500000000E+00 0. -1.
         13    1    6    6    0    0 -0.26027811906E+01  0.18142022052E+02  0.71558007791E+01  0.19675465531E+02  0.10500000000E+00 0.  1.
</event>
<event>
11    0  0.3483054E-009  0.9118800E+02  0.7816531E-02  0.1126479E+00
         25   -1    0    0    0    0  0.00000000000E+00  0.00000000000E+00  0.99999998245E-14  0.12500000000E+03  0.12500000000E+03 0.  0.
    3000001    1    3    3    0    0 -0.23989975182E+02  0.18959188341E+02  0.15407666273E+02  0.34254429082E+02  0.10000000000E+01 0. -1.
    1000022    2    1    0    0    0 -0.43669236108E+02  0.38668732680E+02  0.20099176105E+02  0.62499998837E+02  0.99999952543E+01 0.  0.
    3000022    2    3    3    0    0 -0.19679260926E+02  0.19709544340E+02  0.46915098328E+01  0.28245569755E+02  0.24999513688E+00 0.  0.
    1000022    2    1    0    0    0  0.43669236108E+02 -0.38668732680E+02 -0.20099176105E+02  0.62500001163E+02  0.10000009794E+02 0.  0.
    3000022    2    5    5    0    0  0.42165886111E+02 -0.38806414316E+02 -0.19965401747E+02  0.60684260811E+02  0.24999935966E+00 0.  0.
        -13    1    4    4    0    0 -0.11978243236E+02  0.12076925034E+02  0.28399032181E+01  0.17245477801E+02  0.10500000000E+00 0.  1.
         13    1    4    4    0    0 -0.77010176902E+01  0.76326193056E+01  0.18516066147E+01  0.11000091953E+02  0.10500000000E+00 0. -1.
    3000001    1    5    5    0    0  0.15033499978E+01  0.13768163528E+00 -0.13377435817E+00  0.18157403525E+01  0.10000000000E+01 0. -1.
        -13    1    6    6    0    0  0.11377132660E+02 -0.10502411531E+02 -0.53655213235E+01  0.16387179123E+02  0.10500000000E+00 0.  1.
         13    1    6    6    0    0  0.30788753451E+02 -0.28304002785E+02 -0.14599880424E+02  0.44297081688E+02  0.10500000000E+00 0. -1.
</event>
<event>
11    0  0.3483054E-009  0.9118800E+02  0.7816531E-02  0.1126479E+00
         25   -1    0    0    0    0  0.00000000000E+00  0.00000000000E+00  0.99999998245E-14  0.12500000000E+03  0.12500000000E+03 0.  0.
    3000001    1    3    3    0    0  0.40833396029E+02 -0.14559170486E+02 -0.40888238917E+02  0.59600199313E+02  0.10000000000E+01 0. -1.
    1000022    2    1    0    0    0  0.43103541503E+02 -0.16342305055E+02 -0.41003215862E+02  0.62500000827E+02  0.10000008387E+02 0.  0.
    3000022    2    3    3    0    0  0.22701454743E+01 -0.17831345690E+01 -0.11497694498E+00  0.28998015134E+01  0.24999950811E+00 0.  0.
    1000022    2    1    0    0    0 -0.43103541503E+02  0.16342305055E+02  0.41003215862E+02  0.62499999173E+02  0.99999980513E+01 0.  0.
    3000022    2    5    5    0    0 -0.28161341930E+02  0.67210313680E+01  0.21280488389E+02  0.35932646757E+02  0.24994988681E+00 0.  0.
        -13    1    4    4    0    0  0.12859860347E+01 -0.97214279605E+00 -0.49623208401E-02  0.16155096168E+01  0.10500000000E+00 0.  1.
         13    1    4    4    0    0  0.98415943958E+00 -0.81099177291E+00 -0.11001462414E+00  0.12842918966E+01  0.10500000000E+00 0. -1.
    3000001    1    5    5    0    0 -0.14942199573E+02  0.96212736866E+01  0.19722727472E+02  0.26567352416E+02  0.10000000000E+01 0. -1.
        -13    1    6    6    0    0 -0.10150655004E+02  0.24151591083E+01  0.77409854388E+01  0.12992408210E+02  0.10500000000E+00 0.  1.
         13    1    6    6    0    0 -0.18010686926E+02  0.43058722597E+01  0.13539502951E+02  0.22940238547E+02  0.10500000000E+00 0. -1.
</event>
<event>
11    0  0.3483054E-009  0.9118800E+02  0.7816531E-02  0.1126479E+00
         25   -1    0    0    0    0  0.00000000000E+00  0.00000000000E+00  0.99999998245E-14  0.12500000000E+03  0.12500000000E+03 0.  0.
    3000001    1    3    3    0    0 -0.11637726022E+02  0.35935126583E+02  0.16444581053E+02  0.41209152327E+02  0.10000000000E+01 0.  1.
    1000022    2    1    0    0    0 -0.19245615613E+02  0.55749020821E+02  0.18108092603E+02  0.62499999225E+02  0.99999921307E+01 0.  0.
    3000022    2    3    3    0    0 -0.76078895910E+01  0.19813894238E+02  0.16635115497E+01  0.21290846898E+02  0.25000412278E+00 0.  0.
    1000022    2    1    0    0    0  0.19245615613E+02 -0.55749020821E+02 -0.18108092603E+02  0.62500000775E+02  0.10000001813E+02 0.  0.
    3000022    2    5    5    0    0  0.12227476702E+02 -0.21073162290E+02 -0.87760774153E+01  0.25897324013E+02  0.25000166649E+00 0.  0.
        -13    1    4    4    0    0 -0.54753823240E+01  0.14144464624E+02  0.11861782966E+01  0.15213932268E+02  0.10500000000E+00 0.  1.
         13    1    4    4    0    0 -0.21325072671E+01  0.56694296138E+01  0.47733325310E+00  0.60769146303E+01  0.10500000000E+00 0. -1.
    3000001    1    5    5    0    0  0.70181389105E+01 -0.34675858531E+02 -0.93320151876E+01  0.36602676762E+02  0.10000000000E+01 0. -1.
        -13    1    6    6    0    0  0.82397133441E+01 -0.14190560596E+02 -0.59658166358E+01  0.17460437542E+02  0.10500000000E+00 0. -1.
         13    1    6    6    0    0  0.39877633581E+01 -0.68826016941E+01 -0.28102607795E+01  0.84368864712E+01  0.10500000000E+00 0.  1.
</event>
<event>
11    0  0.3483054E-009  0.9118800E+02  0.7816531E-02  0.1126479E+00
         25   -1    0    0    0    0  0.00000000000E+00  0.00000000000E+00  0.99999998245E-14  0.12500000000E+03  0.12500000000E+03 0.  0.
    3000001    1    3    3    0    0  0.14325784129E+02 -0.24477574055E+02  0.47936247497E+02  0.55706943433E+02  0.10000000000E+01 0.  1.
    1000022    2    1    0    0    0  0.14717081303E+02 -0.30003381520E+02  0.51859951033E+02  0.62499999392E+02  0.10000000907E+02 0.  0.
    3000022    2    3    3    0    0  0.39129717384E+00 -0.55258074645E+01  0.39237035360E+01  0.67930559590E+01  0.24999642166E+00 0.  0.
    1000022    2    1    0    0    0 -0.14717081303E+02  0.30003381520E+02 -0.51859951033E+02  0.62500000608E+02  0.10000008507E+02 0.  0.
    3000022    2    5    5    0    0 -0.13699050834E+02  0.17803275493E+02 -0.30850637527E+02  0.38163397988E+02  0.24999620350E+00 0.  0.
        -13    1    4    4    0    0  0.21271854023E+00 -0.21743326383E+01  0.15742019725E+01  0.26948299482E+01  0.10500000000E+00 0.  1.
         13    1    4    4    0    0  0.17857863361E+00 -0.33514748261E+01  0.23495015635E+01  0.40982260107E+01  0.10500000000E+00 0. -1.
    3000001    1    5    5    0    0 -0.10180304686E+01  0.12200106026E+02 -0.21009313506E+02  0.24336602620E+02  0.10000000000E+01 0.  1.
        -13    1    6    6    0    0 -0.49782205664E+01  0.63776168583E+01 -0.11136863195E+02  0.13765806319E+02  0.10500000000E+00 0. -1.
         13    1    6    6    0    0 -0.87208302678E+01  0.11425658635E+02 -0.19713774332E+02  0.24397591669E+02  0.10500000000E+00 0.  1.
</event>
<event>
11    0  0.3483054E-009  0.9118800E+02  0.7816531E-02  0.1126479E+00
         25   -1    0    0    0    0  0.00000000000E+00  0.00000000000E+00  0.99999998245E-14  0.12500000000E+03  0.12500000000E+03 0.  0.
    3000001    1    3    3    0    0  0.53486307480E+02  0.15004355725E+02  0.22451207624E+02  0.59924723631E+02  0.10000000000E+01 0.  1.
    1000022    2    1    0    0    0  0.54877183641E+02  0.14106560567E+02  0.24407983797E+02  0.62500000266E+02  0.10000001243E+02 0.  0.
    3000022    2    3    3    0    0  0.13908761612E+01 -0.89779515828E+00  0.19567761730E+01  0.25752766347E+01  0.25000822346E+00 0.  0.
    1000022    2    1    0    0    0 -0.54877183641E+02 -0.14106560567E+02 -0.24407983797E+02  0.62499999734E+02  0.99999979175E+01 0.  0.
    3000022    2    5    5    0    0 -0.35326891678E+02 -0.13884782192E+02 -0.15892012670E+02  0.41150881117E+02  0.24999572082E+00 0.  0.
        -13    1    4    4    0    0  0.67112182117E+00 -0.49682510223E+00  0.10490329702E+01  0.13448921346E+01  0.10500000000E+00 0.  1.
         13    1    4    4    0    0  0.71975434005E+00 -0.40097005605E+00  0.90774320278E+00  0.12303845001E+01  0.10500000000E+00 0. -1.
    3000001    1    5    5    0    0 -0.19550291963E+02 -0.22177837430E+00 -0.85159711273E+01  0.21349118617E+02  0.10000000000E+01 0.  1.
        -13    1    6    6    0    0 -0.15851203784E+02 -0.62879983306E+01 -0.70971684800E+01  0.18471069537E+02  0.10500000000E+00 0.  1.
         13    1    6    6    0    0 -0.19475687894E+02 -0.75967838617E+01 -0.87948441898E+01  0.22679811580E+02  0.10500000000E+00 0. -1.
</event>
<event>
11    0  0.3483054E-009  0.9118800E+02  0.7816531E-02  0.1126479E+00
         25   -1    0    0    0    0  0.00000000000E+00  0.00000000000E+00  0.99999998245E-14  0.12500000000E+03  0.12500000000E+03 0.  0.
    3000001    1    3    3    0    0 -0.18640520231E+01 -0.36552780082E+02  0.40360946003E+02  0.54493911439E+02  0.10000000000E+01 0.  1.
    1000022    2    1    0    0    0 -0.35887471407E+01 -0.43787964113E+02  0.43312642053E+02  0.62500001144E+02  0.10000013709E+02 0.  0.
    3000022    2    3    3    0    0 -0.17246951176E+01 -0.72351840310E+01  0.29516960501E+01  0.80060897050E+01  0.25000316261E+00 0.  0.
    1000022    2    1    0    0    0  0.35887471407E+01  0.43787964113E+02 -0.43312642053E+02  0.62499998856E+02  0.99999994114E+01 0.  0.
    3000022    2    5    5    0    0  0.41544150145E+00  0.31817945943E+02 -0.36145129765E+02  0.48156901699E+02  0.24999966558E+00 0.  0.
        -13    1    4    4    0    0 -0.70818698088E+00 -0.32423556118E+01  0.13399752673E+01  0.35806364560E+01  0.10500000000E+00 0. -1.
         13    1    4    4    0    0 -0.10165081367E+01 -0.39928284192E+01  0.16117207829E+01  0.44254532490E+01  0.10500000000E+00 0.  1.
    3000001    1    5    5    0    0  0.31733056393E+01  0.11970018169E+02 -0.71675122877E+01  0.14343097157E+02  0.10000000000E+01 0.  1.
        -13    1    6    6    0    0  0.31625248346E+00  0.22906248838E+02 -0.25967025511E+02  0.34627932228E+02  0.10500000000E+00 0. -1.
         13    1    6    6    0    0  0.99189017988E-01  0.89116971053E+01 -0.10178104254E+02  0.13528969472E+02  0.10500000000E+00 0.  1.
</event>
<event>
11    0  0.3483054E-009  0.9118800E+02  0.7816531E-02  0.1126479E+00
         25   -1    0    0    0    0  0.00000000000E+00  0.00000000000E+00  0.99999998245E-14  0.12500000000E+03  0.12500000000E+03 0.  0.
    3000001    1    3    3    0    0 -0.25698468519E+00 -0.46734811808E+01  0.68790466707E+01  0.83802595767E+01  0.10000000000E+01 0.  1.
    1000022    2    1    0    0    0 -0.25546706427E+02 -0.29893214961E+02  0.47539578207E+02  0.62500000178E+02  0.10000000810E+02 0.  0.
    3000022    2    3    3    0    0 -0.25289721742E+02 -0.25219733780E+02  0.40660531536E+02  0.54119740601E+02  0.25000044705E+00 0.  0.
    1000022    2    1    0    0    0  0.25546706427E+02  0.29893214961E+02 -0.47539578207E+02  0.62499999822E+02  0.99999985847E+01 0.  0.
    3000022    2    5    5    0    0  0.24674322374E+02  0.23608517072E+02 -0.40090591840E+02  0.52664051501E+02  0.25000681480E+00 0.  0.
        -13    1    4    4    0    0 -0.15529119964E+02 -0.15416247274E+02  0.24966953665E+02  0.33199006720E+02  0.10500000000E+00 0.  1.
         13    1    4    4    0    0 -0.97606017780E+01 -0.98034865059E+01  0.15693577871E+02  0.20920733881E+02  0.10500000000E+00 0. -1.
    3000001    1    5    5    0    0  0.87238405309E+00  0.62846978887E+01 -0.74489863669E+01  0.98359483215E+01  0.10000000000E+01 0. -1.
        -13    1    6    6    0    0  0.16253499385E+02  0.15564277822E+02 -0.26502153519E+02  0.34767774627E+02  0.10500000000E+00 0. -1.
         13    1    6    6    0    0  0.84208229895E+01  0.80442392499E+01 -0.13588438321E+02  0.17896276873E+02  0.10500000000E+00 0.  1.
</event>
<event>
11    0  0.3483054E-009  0.9118800E+02  0.7816531E-02  0.1126479E+00
         25   -1    0    0    0    0  0.00000000000E+00  0.00000000000E+00  0.99999998245E-14  0.12500000000E+03  0.12500000000E+03 0.  0.
    3000001    1    3    3    0    0  0.18264435517E+02  0.14377467901E+02 -0.29541466324E+02  0.37603183649E+02  0.10000000000E+01 0. -1.
    1000022    2    1    0    0    0  0.28173512519E+02  0.30752167777E+02 -0.45462154612E+02  0.62500000392E+02  0.99999958206E+01 0.  0.
    3000022    2    3    3    0    0  0.99090770015E+01  0.16374699876E+02 -0.15920688288E+02  0.24896816743E+02  0.25013055390E+00 0.  0.
    1000022    2    1    0    0    0 -0.28173512519E+02 -0.30752167777E+02  0.45462154612E+02  0.62499999608E+02  0.99999909214E+01 0.  0.
    3000022    2    5    5    0    0 -0.20053955059E+01 -0.14711333721E+00  0.41043613368E+00  0.20674169800E+01  0.25000336088E+00 0.  0.
        -13    1    4    4    0    0  0.26407937132E+01  0.44258035408E+01 -0.42666562635E+01  0.66915550576E+01  0.10500000000E+00 0. -1.
         13    1    4    4    0    0  0.72682832883E+01  0.11948896336E+02 -0.11654032024E+02  0.18205261685E+02  0.10500000000E+00 0.  1.
    3000001    1    5    5    0    0 -0.26168117013E+02 -0.30605054440E+02  0.45051718478E+02  0.60432582628E+02  0.10000000000E+01 0. -1.
        -13    1    6    6    0    0 -0.13279725588E+01 -0.42386950771E-01  0.26697778421E+00  0.13592681516E+01  0.10500000000E+00 0.  1.
         13    1    6    6    0    0 -0.67742294702E+00 -0.10472638643E+00  0.14345834947E+00  0.70814882842E+00  0.10500000000E+00 0. -1.
</event>
<event>
11    0  0.3483054E-009  0.9118800E+02  0.7816531E-02  0.1126479E+00
         25   -1    0    0    0    0  0.00000000000E+00  0.00000000000E+00  0.99999998245E-14  0.12500000000E+03  0.12500000000E+03 0.  0.
    3000001    1    3    3    0    0 -0.34438681239E+01 -0.31184000829E+01  0.15751781787E+01  0.50065789743E+01  0.10000000000E+01 0.  1.
    1000022    2    1    0    0    0 -0.57471953248E+02 -0.10741119354E+02  0.19693983664E+02  0.62499999872E+02  0.99999968144E+01 0.  0.
    3000022    2    3    3    0    0 -0.54028085124E+02 -0.76227192710E+01  0.18118805485E+02  0.57493420897E+02  0.25000600312E+00 0.  0.
    1000022    2    1    0    0    0  0.57471953248E+02  0.10741119354E+02 -0.19693983664E+02  0.62500000128E+02  0.99999984182E+01 0.  0.
    3000022    2    5    5    0    0  0.45051825504E+02  0.74345010817E+01 -0.19380786339E+02  0.49604598229E+02  0.24999755881E+00 0.  0.
        -13    1    4    4    0    0 -0.19955121520E+02 -0.27889395083E+01  0.67471499940E+01  0.21249002717E+02  0.10500000000E+00 0.  1.
         13    1    4    4    0    0 -0.34072963605E+02 -0.48337797627E+01  0.11371655491E+02  0.36244418180E+02  0.10500000000E+00 0. -1.
    3000001    1    5    5    0    0  0.12420127745E+02  0.33066182723E+01 -0.31319732490E+00  0.12895401900E+02  0.10000000000E+01 0. -1.
        -13    1    6    6    0    0  0.20241369843E+02  0.33689254312E+01 -0.86440837790E+01  0.22266430362E+02  0.10500000000E+00 0.  1.
         13    1    6    6    0    0  0.24810455661E+02  0.40655756505E+01 -0.10736702560E+02  0.27338167867E+02  0.10500000000E+00 0. -1.
</event>
<event>
11    0  0.3483054E-009  0.9118800E+02  0.7816531E-02  0.1126479E+00
         25   -1    0    0    0    0  0.00000000000E+00  0.00000000000E+00  0.99999998245E-14  0.12500000000E+03  0.12500000000E+03 0.  0.
    3000001    1    3    3    0    0  0.16142643030E+02  0.18398518941E+02  0.21639656004E+02  0.32685855277E+02  0.10000000000E+01 0.  1.
    1000022    2    1    0    0    0  0.38180208063E+02  0.32301802474E+02  0.36126379209E+02  0.62499999394E+02  0.99999959349E+01 0.  0.
    3000022    2    3    3    0    0  0.22037565034E+02  0.13903283533E+02  0.14486723206E+02  0.29814144118E+02  0.24994924880E+00 0.  0.
    1000022    2    1    0    0    0 -0.38180208063E+02 -0.32301802474E+02 -0.36126379209E+02  0.62500000606E+02  0.10000003507E+02 0.  0.
    3000022    2    5    5    0    0 -0.13183958323E+02 -0.17371282971E+02 -0.16960843763E+02  0.27628082639E+02  0.25000013858E+00 0.  0.
        -13    1    4    4    0    0  0.10312136499E+02  0.65201720994E+01  0.68588860867E+01  0.13996719141E+02  0.10500000000E+00 0.  1.
         13    1    4    4    0    0  0.11725428535E+02  0.73831114335E+01  0.76278371188E+01  0.15817424976E+02  0.10500000000E+00 0. -1.
    3000001    1    5    5    0    0 -0.24996249740E+02 -0.14930519503E+02 -0.19165535447E+02  0.34871917967E+02  0.10000000000E+01 0.  1.
        -13    1    6    6    0    0 -0.97436654105E+01 -0.12872340349E+02 -0.12525315308E+02  0.20433568221E+02  0.10500000000E+00 0.  1.
         13    1    6    6    0    0 -0.34402929125E+01 -0.44989426220E+01 -0.44355284547E+01  0.71945144182E+01  0.10500000000E+00 0. -1.
</event>
<event>
11    0  0.3483054E-009  0.9118800E+02  0.7816531E-02  0.1126479E+00
         25   -1    0    0    0    0  0.00000000000E+00  0.00000000000E+00  0.99999998245E-14  0.12500000000E+03  0.12500000000E+03 0.  0.
    3000001    1    3    3    0    0 -0.16044902352E+02  0.22632323061E+01  0.16942201029E+02  0.23464852177E+02  0.10000000000E+01 0. -1.
    1000022    2    1    0    0    0 -0.48307938423E+02 -0.31047326812E+01  0.38248578272E+02  0.62499999914E+02  0.99999984876E+01 0.  0.
    3000022    2    3    3    0    0 -0.32263036071E+02 -0.53679649873E+01  0.21306377243E+02  0.39035147737E+02  0.25000613981E+00 0.  0.
    1000022    2    1    0    0    0  0.48307938423E+02  0.31047326812E+01 -0.38248578272E+02  0.62500000086E+02  0.99999995625E+01 0.  0.
    3000022    2    5    5    0    0  0.29939009064E+02 -0.22887850118E+01 -0.20355988856E+02  0.36276873749E+02  0.24997223910E+00 0.  0.
        -13    1    4    4    0    0 -0.13005458033E+02 -0.22216226084E+01  0.85618998140E+01  0.15728785684E+02  0.10500000000E+00 0.  1.
         13    1    4    4    0    0 -0.19257578038E+02 -0.31463423789E+01  0.12744477429E+02  0.23306362054E+02  0.10500000000E+00 0. -1.
    3000001    1    5    5    0    0  0.18368929359E+02  0.53935176931E+01 -0.17892589416E+02  0.26223126337E+02  0.10000000000E+01 0. -1.
        -13    1    6    6    0    0  0.12102779277E+02 -0.98882748404E+00 -0.82350566502E+01  0.14672499073E+02  0.10500000000E+00 0.  1.
         13    1    6    6    0    0  0.17836229787E+02 -0.12999575278E+01 -0.12120932206E+02  0.21604374675E+02  0.10500000000E+00 0. -1.
</event>
<event>
11    0  0.3483054E-009  0.9118800E+02  0.7816531E-02  0.1126479E+00
         25   -1    0    0    0    0  0.00000000000E+00  0.00000000000E+00  0.99999998245E-14  0.12500000000E+03  0.12500000000E+03 0.  0.
    3000001    1    3    3    0    0 -0.11198614279E+02 -0.17989507677E+02 -0.32875744748E+02  0.39126026389E+02  0.10000000000E+01 0.  1.
    1000022    2    1    0    0    0 -0.13375257331E+02 -0.34187881670E+02 -0.49583678012E+02  0.62499999774E+02  0.10000004241E+02 0.  0.
    3000022    2    3    3    0    0 -0.21766430515E+01 -0.16198373993E+02 -0.16707933264E+02  0.23373973385E+02  0.25000575767E+00 0.  0.
    1000022    2    1    0    0    0  0.13375257331E+02  0.34187881670E+02  0.49583678012E+02  0.62500000226E+02  0.10000007066E+02 0.  0.
    3000022    2    5    5    0    0  0.46134974960E+01  0.21308782080E+02  0.34374327498E+02  0.40706331772E+02  0.25000494928E+00 0.  0.
        -13    1    4    4    0    0 -0.82190235805E+00 -0.56949705919E+01 -0.58695489016E+01  0.82201485897E+01  0.10500000000E+00 0.  1.
         13    1    4    4    0    0 -0.13547406935E+01 -0.10503403401E+02 -0.10838384362E+02  0.15153824796E+02  0.10500000000E+00 0. -1.
    3000001    1    5    5    0    0  0.87617598345E+01  0.12879099590E+02  0.15209350513E+02  0.21793668454E+02  0.10000000000E+01 0. -1.
        -13    1    6    6    0    0  0.18577288684E+01  0.84739797196E+01  0.13568458104E+02  0.16105078986E+02  0.10500000000E+00 0.  1.
         13    1    6    6    0    0  0.27557686276E+01  0.12834802361E+02  0.20805869394E+02  0.24601252786E+02  0.10500000000E+00 0. -1.
</event>
<event>
11    0  0.3483054E-009  0.9118800E+02  0.7816531E-02  0.1126479E+00
         25   -1    0    0    0    0  0.00000000000E+00  0.00000000000E+00  0.99999998245E-14  0.12500000000E+03  0.12500000000E+03 0.  0.
    3000001    1    3    3    0    0  0.52732020371E+02 -0.18307158303E+02 -0.21473250070E+02  0.59815704343E+02  0.10000000000E+01 0.  1.
    1000022    2    1    0    0    0  0.53711485261E+02 -0.18668471771E+02 -0.23933543769E+02  0.62500000313E+02  0.10000001727E+02 0.  0.
    3000022    2    3    3    0    0  0.97946488974E+00 -0.36131346797E+00 -0.24602936996E+01  0.26842959693E+01  0.25000174020E+00 0.  0.
    1000022    2    1    0    0    0 -0.53711485261E+02  0.18668471771E+02  0.23933543769E+02  0.62499999687E+02  0.99999978197E+01 0.  0.
    3000022    2    5    5    0    0 -0.44961092432E+02  0.12335412605E+02  0.21694207599E+02  0.51423373868E+02  0.24999962385E+00 0.  0.
        -13    1    4    4    0    0  0.38703843907E+00 -0.17244912834E+00 -0.86561488311E+00  0.96945942723E+00  0.10500000000E+00 0.  1.
         13    1    4    4    0    0  0.59242645067E+00 -0.18886433963E+00 -0.15946788164E+01  0.17148365420E+01  0.10500000000E+00 0. -1.
    3000001    1    5    5    0    0 -0.87503928285E+01  0.63330591660E+01  0.22393361700E+01  0.11076625819E+02  0.10000000000E+01 0. -1.
        -13    1    6    6    0    0 -0.24677080251E+02  0.67249254891E+01  0.11845810616E+02  0.28187180893E+02  0.10500000000E+00 0.  1.
         13    1    6    6    0    0 -0.20284012181E+02  0.56104871161E+01  0.98483969836E+01  0.23236192976E+02  0.10500000000E+00 0. -1.
</event>
<event>
11    0  0.3483054E-009  0.9118800E+02  0.7816531E-02  0.1126479E+00
         25   -1    0    0    0    0  0.00000000000E+00  0.00000000000E+00  0.99999998245E-14  0.12500000000E+03  0.12500000000E+03 0.  0.
    3000001    1    3    3    0    0 -0.38284199624E+02  0.30559221398E+02 -0.32433296202E+02  0.58757677420E+02  0.10000000000E+01 0. -1.
    1000022    2    1    0    0    0 -0.39014566400E+02  0.34051261758E+02 -0.33535432888E+02  0.62500000352E+02  0.99999983163E+01 0.  0.
    3000022    2    3    3    0    0 -0.73036677608E+00  0.34920403600E+01 -0.11021366858E+01  0.37423229317E+01  0.24998829401E+00 0.  0.
    1000022    2    1    0    0    0  0.39014566400E+02 -0.34051261758E+02  0.33535432888E+02  0.62499999648E+02  0.99999939201E+01 0.  0.
    3000022    2    5    5    0    0  0.15690755811E+02 -0.75252818495E+01  0.10853806404E+02  0.20510906655E+02  0.24998701104E+00 0.  0.
        -13    1    4    4    0    0 -0.24208657706E+00  0.14029408577E+01 -0.40042831163E+00  0.14826384569E+01  0.10500000000E+00 0.  1.
         13    1    4    4    0    0 -0.48828019902E+00  0.20890995023E+01 -0.70170837416E+00  0.22596844748E+01  0.10500000000E+00 0. -1.
    3000001    1    5    5    0    0  0.23323810589E+02 -0.26525979908E+02  0.22681626484E+02  0.41989092994E+02  0.10000000000E+01 0. -1.
        -13    1    6    6    0    0  0.10178413221E+02 -0.48825557598E+01  0.69738421971E+01  0.13269700315E+02  0.10500000000E+00 0.  1.
         13    1    6    6    0    0  0.55123425895E+01 -0.26427260897E+01  0.38799642072E+01  0.72412063399E+01  0.10500000000E+00 0. -1.
</event>
<event>
11    0  0.3483054E-009  0.9118800E+02  0.7816531E-02  0.1126479E+00
         25   -1    0    0    0    0  0.00000000000E+00  0.00000000000E+00  0.99999998245E-14  0.12500000000E+03  0.12500000000E+03 0.  0.
    3000001    1    3    3    0    0  0.35250421834E+02  0.66653593667E+01  0.34895597577E+02  0.50057187149E+02  0.10000000000E+01 0. -1.
    1000022    2    1    0    0    0  0.46761235134E+02  0.75730949641E+01  0.39525751510E+02  0.62500001597E+02  0.10000014430E+02 0.  0.
    3000022    2    3    3    0    0  0.11510813300E+02  0.90773559746E+00  0.46301539328E+01  0.12442814448E+02  0.24999842934E+00 0.  0.
    1000022    2    1    0    0    0 -0.46761235134E+02 -0.75730949641E+01 -0.39525751510E+02  0.62499998403E+02  0.99999944703E+01 0.  0.
    3000022    2    5    5    0    0 -0.10549168276E+02 -0.26350124308E+01 -0.14786084733E+02  0.18355354815E+02  0.25001372028E+00 0.  0.
        -13    1    4    4    0    0  0.68222513026E+01  0.55138905719E+00  0.28115725176E+01  0.74002099802E+01  0.10500000000E+00 0. -1.
         13    1    4    4    0    0  0.46885619971E+01  0.35634654028E+00  0.18185814151E+01  0.50426044680E+01  0.10500000000E+00 0.  1.
    3000001    1    5    5    0    0 -0.36212066858E+02 -0.49380825333E+01 -0.24739666777E+02  0.44144643588E+02  0.10000000000E+01 0. -1.
        -13    1    6    6    0    0 -0.28429002201E+01 -0.68495416729E+00 -0.40219191800E+01  0.49737413245E+01  0.10500000000E+00 0.  1.
         13    1    6    6    0    0 -0.77062680554E+01 -0.19500582636E+01 -0.10764165553E+02  0.13381613491E+02  0.10500000000E+00 0. -1.
</event>
<event>
11    0  0.3483054E-009  0.9118800E+02  0.7816531E-02  0.1126479E+00
         25   -1    0    0    0    0  0.00000000000E+00  0.00000000000E+00  0.99999998245E-14  0.12500000000E+03  0.12500000000E+03 0.  0.
    3000001    1    3    3    0    0 -0.29081338180E+02 -0.24825258552E+02  0.10624829428E+02  0.39697666089E+02  0.10000000000E+01 0.  1.
    1000022    2    1    0    0    0 -0.49920633850E+02 -0.33199792724E+02  0.14558647647E+02  0.62500001278E+02  0.10000000875E+02 0.  0.
    3000022    2    3    3    0    0 -0.20839295669E+02 -0.83745341724E+01  0.39338182186E+01  0.22802335189E+02  0.24999536142E+00 0.  0.
    1000022    2    1    0    0    0  0.49920633850E+02  0.33199792724E+02 -0.14558647647E+02  0.62499998722E+02  0.99999849044E+01 0.  0.
    3000022    2    5    5    0    0  0.38055726347E+02  0.20240495575E+02 -0.88971897094E+01  0.44012935174E+02  0.25001800385E+00 0.  0.
        -13    1    4    4    0    0 -0.10463405886E+02 -0.41409513032E+01  0.20044177811E+01  0.11430619234E+02  0.10500000000E+00 0.  1.
         13    1    4    4    0    0 -0.10375889783E+02 -0.42335828692E+01  0.19294004376E+01  0.11371715955E+02  0.10500000000E+00 0. -1.
    3000001    1    5    5    0    0  0.11864907503E+02  0.12959297150E+02 -0.56614579375E+01  0.18487063548E+02  0.10000000000E+01 0. -1.
        -13    1    6    6    0    0  0.24308632402E+02  0.12902819021E+02 -0.57353686113E+01  0.28112236233E+02  0.10500000000E+00 0.  1.
         13    1    6    6    0    0  0.13747093945E+02  0.73376765533E+01 -0.31618210981E+01  0.15900698941E+02  0.10500000000E+00 0. -1.
</event>
<event>
11    0  0.3483054E-009  0.9118800E+02  0.7816531E-02  0.1126479E+00
         25   -1    0    0    0    0  0.00000000000E+00  0.00000000000E+00  0.99999998245E-14  0.12500000000E+03  0.12500000000E+03 0.  0.
    3000001    1    3    3    0    0  0.13584515608E+02 -0.23707041880E+02  0.41074335850E+02  0.49342314139E+02  0.10000000000E+01 0. -1.
    1000022    2    1    0    0    0  0.18904524920E+02 -0.33240361159E+02  0.48414329127E+02  0.62499999159E+02  0.99999978822E+01 0.  0.
    3000022    2    3    3    0    0  0.53200093124E+01 -0.95333192789E+01  0.73399932765E+01  0.13157685020E+02  0.24999648526E+00 0.  0.
    1000022    2    1    0    0    0 -0.18904524920E+02  0.33240361159E+02 -0.48414329127E+02  0.62500000841E+02  0.10000008392E+02 0.  0.
    3000022    2    5    5    0    0 -0.62645587654E+01  0.15024722255E+02 -0.27761350044E+02  0.32182946398E+02  0.25001445883E+00 0.  0.
        -13    1    4    4    0    0  0.31579401868E+01 -0.57677327413E+01  0.43798659646E+01  0.79014921418E+01  0.10500000000E+00 0. -1.
         13    1    4    4    0    0  0.21620691256E+01 -0.37655865375E+01  0.29601273118E+01  0.52561928787E+01  0.10500000000E+00 0.  1.
    3000001    1    5    5    0    0 -0.12639966155E+02  0.18215638904E+02 -0.20652979083E+02  0.30317054443E+02  0.10000000000E+01 0. -1.
        -13    1    6    6    0    0 -0.41325204534E+01  0.10049922293E+02 -0.18533370878E+02  0.21484308797E+02  0.10500000000E+00 0. -1.
         13    1    6    6    0    0 -0.21320383119E+01  0.49747999618E+01 -0.92279791663E+01  0.10698637601E+02  0.10500000000E+00 0.  1.
</event>
<event>
11    0  0.3483054E-009  0.9118800E+02  0.7816531E-02  0.1126479E+00
         25   -1    0    0    0    0  0.00000000000E+00  0.00000000000E+00  0.99999998245E-14  0.12500000000E+03  0.12500000000E+03 0.  0.
    3000001    1    3    3    0    0 -0.68817766449E+01  0.95295122568E+01  0.86751413712E+01  0.14643378417E+02  0.10000000000E+01 0.  1.
    1000022    2    1    0    0    0 -0.42336316653E+02  0.28970863768E+02  0.34272078172E+02  0.62500000043E+02  0.10000000399E+02 0.  0.
    3000022    2    3    3    0    0 -0.35454540009E+02  0.19441351511E+02  0.25596936800E+02  0.47856621627E+02  0.25000831609E+00 0.  0.
    1000022    2    1    0    0    0  0.42336316653E+02 -0.28970863768E+02 -0.34272078172E+02  0.62499999957E+02  0.99999998555E+01 0.  0.
    3000022    2    5    5    0    0  0.32867144084E+02 -0.17352234720E+02 -0.22858561833E+02  0.43633995469E+02  0.25000298558E+00 0.  0.
        -13    1    4    4    0    0 -0.21719559465E+02  0.11921512846E+02  0.15612199653E+02  0.29285039438E+02  0.10500000000E+00 0. -1.
         13    1    4    4    0    0 -0.13734980544E+02  0.75198386653E+01  0.99847371470E+01  0.18571582188E+02  0.10500000000E+00 0.  1.
    3000001    1    5    5    0    0  0.94691725690E+01 -0.11618629049E+02 -0.11413516338E+02  0.18866004487E+02  0.10000000000E+01 0. -1.
        -13    1    6    6    0    0  0.21603284943E+02 -0.11395396960E+02 -0.14957618883E+02  0.28640851591E+02  0.10500000000E+00 0.  1.
         13    1    6    6    0    0  0.11263859141E+02 -0.59568377601E+01 -0.79009429502E+01  0.14993143878E+02  0.10500000000E+00 0. -1.
</event>
<event>
11    0  0.3483054E-009  0.9118800E+02  0.7816531E-02  0.1126479E+00
         25   -1    0    0    0    0  0.00000000000E+00  0.00000000000E+00  0.99999998245E-14  0.12500000000E+03  0.12500000000E+03 0.  0.
    3000001    1    3    3    0    0  0.11688559493E+02 -0.86531629922E+00  0.28639629645E+02  0.30961259366E+02  0.10000000000E+01 0.  1.
    1000022    2    1    0    0    0  0.32133690685E+02 -0.15292986663E+01  0.52643491145E+02  0.62499999564E+02  0.99999977082E+01 0.  0.
    3000022    2    3    3    0    0  0.20445131192E+02 -0.66398236711E+00  0.24003861500E+02  0.31538740199E+02  0.25000870245E+00 0.  0.
    1000022    2    1    0    0    0 -0.32133690685E+02  0.15292986663E+01 -0.52643491145E+02  0.62500000436E+02  0.10000003155E+02 0.  0.
    3000022    2    5    5    0    0 -0.45318157811E+01  0.21472634249E+01 -0.34905754957E+01  0.61151221840E+01  0.25001508939E+00 0.  0.
        -13    1    4    4    0    0  0.14773840596E+02 -0.45600034759E+00  0.17296456029E+02  0.22751982737E+02  0.10500000000E+00 0. -1.
         13    1    4    4    0    0  0.56712905960E+01 -0.20798201952E+00  0.67074054710E+01  0.87867574621E+01  0.10500000000E+00 0.  1.
    3000001    1    5    5    0    0 -0.27601874904E+02 -0.61796475852E+00 -0.49152915649E+02  0.56384878252E+02  0.10000000000E+01 0. -1.
        -13    1    6    6    0    0 -0.27238336768E+01  0.13572432534E+01 -0.21367674743E+01  0.37199703476E+01  0.10500000000E+00 0.  1.
         13    1    6    6    0    0 -0.18079821043E+01  0.79002017144E+00 -0.13538080214E+01  0.23951518364E+01  0.10500000000E+00 0. -1.
</event>
<event>
11    0  0.3483054E-009  0.9118800E+02  0.7816531E-02  0.1126479E+00
         25   -1    0    0    0    0  0.00000000000E+00  0.00000000000E+00  0.99999998245E-14  0.12500000000E+03  0.12500000000E+03 0.  0.
    3000001    1    3    3    0    0  0.30377482883E+01 -0.42201442136E+02  0.27106930356E+02  0.50259081829E+02  0.10000000000E+01 0.  1.
    1000022    2    1    0    0    0 -0.10689641359E+01 -0.51840492408E+02  0.33431577990E+02  0.62499998634E+02  0.10000004248E+02 0.  0.
    3000022    2    3    3    0    0 -0.41067124243E+01 -0.96390502719E+01  0.63246476344E+01  0.12240916805E+02  0.24999888910E+00 0.  0.
    1000022    2    1    0    0    0  0.10689641359E+01  0.51840492408E+02 -0.33431577990E+02  0.62500001366E+02  0.10000021321E+02 0.  0.
    3000022    2    5    5    0    0 -0.18872253696E+01  0.21388865550E+01 -0.29562982260E+01  0.41156596513E+01  0.24999974675E+00 0.  0.
        -13    1    4    4    0    0 -0.26568604028E+01 -0.61253507704E+01  0.39839501027E+01  0.77757130015E+01  0.10500000000E+00 0. -1.
         13    1    4    4    0    0 -0.14498520215E+01 -0.35136995015E+01  0.23406975317E+01  0.44652038034E+01  0.10500000000E+00 0.  1.
    3000001    1    5    5    0    0  0.29561895056E+01  0.49701605853E+02 -0.30475279764E+02  0.58384341715E+02  0.10000000000E+01 0.  1.
        -13    1    6    6    0    0 -0.50474009416E+00  0.53167332954E+00 -0.78604474467E+00  0.10799677924E+01  0.10500000000E+00 0.  1.
         13    1    6    6    0    0 -0.13824852755E+01  0.16072132254E+01 -0.21702534813E+01  0.30356918589E+01  0.10500000000E+00 0. -1.
</event>
<event>
11    0  0.3483054E-009  0.9118800E+02  0.7816531E-02  0.1126479E+00
         25   -1    0    0    0    0  0.00000000000E+00  0.00000000000E+00  0.99999998245E-14  0.12500000000E+03  0.12500000000E+03 0.  0.
    3000001    1    3    3    0    0  0.22765861867E+02 -0.18898015415E+01 -0.34519151034E+02  0.41405647013E+02  0.10000000000E+01 0.  1.
    1000022    2    1    0    0    0  0.38991829789E+02 -0.55607094617E+01 -0.47486477381E+02  0.62499998333E+02  0.99999988778E+01 0.  0.
    3000022    2    3    3    0    0  0.16225967921E+02 -0.36709079201E+01 -0.12967326347E+02  0.21094351320E+02  0.25001017089E+00 0.  0.
    1000022    2    1    0    0    0 -0.38991829789E+02  0.55607094617E+01  0.47486477381E+02  0.62500001667E+02  0.10000019714E+02 0.  0.
    3000022    2    5    5    0    0 -0.33130144707E+02  0.21881616363E+01  0.34863690011E+02  0.48144926194E+02  0.24999477829E+00 0.  0.
        -13    1    4    4    0    0  0.88224708110E+01 -0.20628485898E+01 -0.70431725074E+01  0.11476438449E+02  0.10500000000E+00 0. -1.
         13    1    4    4    0    0  0.74034971103E+01 -0.16080593304E+01 -0.59241538398E+01  0.96179128707E+01  0.10500000000E+00 0.  1.
    3000001    1    5    5    0    0 -0.58616850815E+01  0.33725478253E+01  0.12622787371E+02  0.14355075473E+02  0.10000000000E+01 0. -1.
        -13    1    6    6    0    0 -0.20586634780E+02  0.13889937984E+01  0.21742665067E+02  0.29974878558E+02  0.10500000000E+00 0.  1.
         13    1    6    6    0    0 -0.12543509927E+02  0.79916783796E+00  0.13121024943E+02  0.18170047636E+02  0.10500000000E+00 0. -1.
</event>
<event>
11    0  0.3483054E-009  0.9118800E+02  0.7816531E-02  0.1126479E+00
         25   -1    0    0    0    0  0.00000000000E+00  0.00000000000E+00  0.99999998245E-14  0.12500000000E+03  0.12500000000E+03 0.  0.
    3000001    1    3    3    0    0 -0.40197210828E+01 -0.66869365625E+01  0.98946847061E+01  0.12640334790E+02  0.10000000000E+01 0. -1.
    1000022    2    1    0    0    0 -0.88088667968E+01 -0.46171466856E+02  0.39960602508E+02  0.62499997508E+02  0.99999724916E+01 0.  0.
    3000022    2    3    3    0    0 -0.47891457140E+01 -0.39484530294E+02  0.30065917801E+02  0.49859662718E+02  0.25000780895E+00 0.  0.
    1000022    2    1    0    0    0  0.88088667968E+01  0.46171466856E+02 -0.39960602508E+02  0.62500002492E+02  0.10000003641E+02 0.  0.
    3000022    2    5    5    0    0  0.56065903789E+01  0.23827045556E+02 -0.27028952442E+02  0.36466268397E+02  0.25001018222E+00 0.  0.
        -13    1    4    4    0    0 -0.18595953143E+01 -0.15552022651E+02  0.11910764553E+02  0.19677419559E+02  0.10500000000E+00 0. -1.
         13    1    4    4    0    0 -0.29295503997E+01 -0.23932507642E+02  0.18155153248E+02  0.30182243158E+02  0.10500000000E+00 0.  1.
    3000001    1    5    5    0    0  0.32022764179E+01  0.22344421301E+02 -0.12931650065E+02  0.26033734095E+02  0.10000000000E+01 0. -1.
        -13    1    6    6    0    0  0.23771262231E+01  0.10042820730E+02 -0.11490735815E+02  0.15445290928E+02  0.10500000000E+00 0. -1.
         13    1    6    6    0    0  0.32294641557E+01  0.13784224826E+02 -0.15538216627E+02  0.21020977469E+02  0.10500000000E+00 0.  1.
</event>
<event>
11    0  0.3483054E-009  0.9118800E+02  0.7816531E-02  0.1126479E+00
         25   -1    0    0    0    0  0.00000000000E+00  0.00000000000E+00  0.99999998245E-14  0.12500000000E+03  0.12500000000E+03 0.  0.
    3000001    1    3    3    0    0 -0.40109231283E+02  0.10647941626E+02 -0.29829300626E+02  0.51116692683E+02  0.10000000000E+01 0. -1.
    1000022    2    1    0    0    0 -0.50829754031E+02  0.13649325475E+02 -0.32191335412E+02  0.62499997720E+02  0.99999829317E+01 0.  0.
    3000022    2    3    3    0    0 -0.10720522747E+02  0.30013838493E+01 -0.23620347859E+01  0.11383305037E+02  0.25002449203E+00 0.  0.
    1000022    2    1    0    0    0  0.50829754031E+02 -0.13649325475E+02  0.32191335412E+02  0.62500002280E+02  0.10000011433E+02 0.  0.
    3000022    2    5    5    0    0  0.25536863659E+02 -0.10436455414E+02  0.12594115760E+02  0.30326972341E+02  0.24998488405E+00 0.  0.
        -13    1    4    4    0    0 -0.51997621512E+01  0.14449042366E+01 -0.10766353121E+01  0.55041296566E+01  0.10500000000E+00 0. -1.
         13    1    4    4    0    0 -0.55207605962E+01  0.15564796127E+01 -0.12853994738E+01  0.58791753803E+01  0.10500000000E+00 0.  1.
    3000001    1    5    5    0    0  0.25292890372E+02 -0.32128700615E+01  0.19597219652E+02  0.32173029939E+02  0.10000000000E+01 0. -1.
        -13    1    6    6    0    0  0.13292510663E+02 -0.54454849978E+01  0.64846340179E+01  0.15760889884E+02  0.10500000000E+00 0. -1.
         13    1    6    6    0    0  0.12244352997E+02 -0.49909704161E+01  0.61094817422E+01  0.14566082457E+02  0.10500000000E+00 0.  1.
</event>
<event>
11    0  0.3483054E-009  0.9118800E+02  0.7816531E-02  0.1126479E+00
         25   -1    0    0    0    0  0.00000000000E+00  0.00000000000E+00  0.99999998245E-14  0.12500000000E+03  0.12500000000E+03 0.  0.
    3000001    1    3    3    0    0  0.36123359842E+02 -0.24939499285E+02  0.23912371591E+02  0.49996772555E+02  0.10000000000E+01 0.  1.
    1000022    2    1    0    0    0  0.43262321898E+02 -0.28427948335E+02  0.33562975061E+02  0.62500000106E+02  0.99999987889E+01 0.  0.
    3000022    2    3    3    0    0  0.71389620559E+01 -0.34884490502E+01  0.96506034706E+01  0.12503227551E+02  0.24999166462E+00 0.  0.
    1000022    2    1    0    0    0 -0.43262321898E+02  0.28427948335E+02 -0.33562975061E+02  0.62499999894E+02  0.99999974623E+01 0.  0.
    3000022    2    5    5    0    0 -0.23332959917E+02  0.13439106722E+02 -0.11849708012E+02  0.29419630975E+02  0.24999751421E+00 0.  0.
        -13    1    4    4    0    0  0.33030508195E+01 -0.16677236299E+01  0.44203507307E+01  0.57655851745E+01  0.10500000000E+00 0.  1.
         13    1    4    4    0    0  0.38359112364E+01 -0.18207254203E+01  0.52302527399E+01  0.67376423764E+01  0.10500000000E+00 0. -1.
    3000001    1    5    5    0    0 -0.19929361981E+02  0.14988841613E+02 -0.21713267050E+02  0.33080368919E+02  0.10000000000E+01 0.  1.
        -13    1    6    6    0    0 -0.12039245244E+02  0.69482036234E+01 -0.60444347271E+01  0.15158072958E+02  0.10500000000E+00 0.  1.
         13    1    6    6    0    0 -0.11293714673E+02  0.64909030987E+01 -0.58052732846E+01  0.14261558017E+02  0.10500000000E+00 0. -1.
</event>
<event>
11    0  0.3483054E-009  0.9118800E+02  0.7816531E-02  0.1126479E+00
         25   -1    0    0    0    0  0.00000000000E+00  0.00000000000E+00  0.99999998245E-14  0.12500000000E+03  0.12500000000E+03 0.  0.
    3000001    1    3    3    0    0 -0.44595157315E+01  0.23349257435E+02 -0.50184224503E+01  0.24315831617E+02  0.10000000000E+01 0.  1.
    1000022    2    1    0    0    0 -0.13412019016E+02  0.55182363426E+02 -0.24109631542E+02  0.62500000042E+02  0.10000009239E+02 0.  0.
    3000022    2    3    3    0    0 -0.89525032846E+01  0.31833105991E+02 -0.19091209091E+02  0.38184168425E+02  0.25000327363E+00 0.  0.
    1000022    2    1    0    0    0  0.13412019016E+02 -0.55182363426E+02  0.24109631542E+02  0.62499999958E+02  0.10000008714E+02 0.  0.
    3000022    2    5    5    0    0  0.11964794985E+02 -0.42205465050E+02  0.22509026518E+02  0.49306960683E+02  0.24999582335E+00 0.  0.
        -13    1    4    4    0    0 -0.65120761825E+01  0.23014801566E+02 -0.13801920251E+02  0.27615072966E+02  0.10500000000E+00 0.  1.
         13    1    4    4    0    0 -0.24404271021E+01  0.88183044250E+01 -0.52892888410E+01  0.10569095459E+02  0.10500000000E+00 0. -1.
    3000001    1    5    5    0    0  0.14472240308E+01 -0.12976898376E+02  0.16006050240E+01  0.13193039275E+02  0.10000000000E+01 0. -1.
        -13    1    6    6    0    0  0.75513754935E+01 -0.26463188886E+02  0.14161194261E+02  0.30949540962E+02  0.10500000000E+00 0.  1.
         13    1    6    6    0    0  0.44134194919E+01 -0.15742276164E+02  0.83478322567E+01  0.18357419721E+02  0.10500000000E+00 0. -1.
</event>
<event>
11    0  0.3483054E-009  0.9118800E+02  0.7816531E-02  0.1126479E+00
         25   -1    0    0    0    0  0.00000000000E+00  0.00000000000E+00  0.99999998245E-14  0.12500000000E+03  0.12500000000E+03 0.  0.
    3000001    1    3    3    0    0  0.11380241763E+02  0.20875613339E+02  0.33670808921E+02  0.41231353461E+02  0.10000000000E+01 0.  1.
    1000022    2    1    0    0    0  0.19847441701E+02  0.25222109910E+02  0.52689412487E+02  0.62499999179E+02  0.99999969323E+01 0.  0.
    3000022    2    3    3    0    0  0.84671999384E+01  0.43464965714E+01  0.19018603566E+02  0.21268645717E+02  0.25000357889E+00 0.  0.
    1000022    2    1    0    0    0 -0.19847441701E+02 -0.25222109910E+02 -0.52689412487E+02  0.62500000821E+02  0.10000007200E+02 0.  0.
    3000022    2    5    5    0    0 -0.45031446301E+01 -0.56053432715E+00 -0.76336265775E+01  0.88841019965E+01  0.25000653641E+00 0.  0.
        -13    1    4    4    0    0  0.41735251339E+01  0.21747870688E+01  0.95411240175E+01  0.10639176818E+02  0.10500000000E+00 0.  1.
         13    1    4    4    0    0  0.42936748044E+01  0.21717095027E+01  0.94774795489E+01  0.10629468900E+02  0.10500000000E+00 0. -1.
    3000001    1    5    5    0    0 -0.15344297071E+02 -0.24661575583E+02 -0.45055785910E+02  0.53615898825E+02  0.10000000000E+01 0.  1.
        -13    1    6    6    0    0 -0.22996495894E+01 -0.21838135269E+00 -0.38991311144E+01  0.45332468603E+01  0.10500000000E+00 0. -1.
         13    1    6    6    0    0 -0.22034950407E+01 -0.34215297446E+00 -0.37344954631E+01  0.43508551362E+01  0.10500000000E+00 0.  1.
</event>
<event>
11    0  0.3483054E-009  0.9118800E+02  0.7816531E-02  0.1126479E+00
         25   -1    0    0    0    0  0.00000000000E+00  0.00000000000E+00  0.99999998245E-14  0.12500000000E+03  0.12500000000E+03 0.  0.
    3000001    1    3    3    0    0  0.71473998196E+01 -0.26043301813E+02 -0.13338099326E+02  0.30137083256E+02  0.10000000000E+01 0. -1.
    1000022    2    1    0    0    0  0.46089920203E+01 -0.54782780151E+02 -0.27997387778E+02  0.62499999737E+02  0.10000021809E+02 0.  0.
    3000022    2    3    3    0    0 -0.25384077993E+01 -0.28739478338E+02 -0.14659288452E+02  0.32362916481E+02  0.24999194121E+00 0.  0.
    1000022    2    1    0    0    0 -0.46089920203E+01  0.54782780151E+02  0.27997387778E+02  0.62500000263E+02  0.10000025098E+02 0.  0.
    3000022    2    5    5    0    0  0.24060326949E+01  0.29024299719E+02  0.13448769095E+02  0.32080069436E+02  0.24999470574E+00 0.  0.
        -13    1    4    4    0    0 -0.17465754163E+01 -0.20277768721E+02 -0.10341945927E+02  0.22829921168E+02  0.10500000000E+00 0.  1.
         13    1    4    4    0    0 -0.79183238292E+00 -0.84617096168E+01 -0.43173425247E+01  0.95329953130E+01  0.10500000000E+00 0. -1.
    3000001    1    5    5    0    0 -0.70150247152E+01  0.25758480433E+02  0.14548618682E+02  0.30419930827E+02  0.10000000000E+01 0.  1.
        -13    1    6    6    0    0  0.17038701725E+01  0.20009842467E+02  0.92532397869E+01  0.22111771541E+02  0.10500000000E+00 0. -1.
         13    1    6    6    0    0  0.70216252244E+00  0.90144572513E+01  0.41955293085E+01  0.99682978950E+01  0.10500000000E+00 0.  1.
</event>
<event>
11    0  0.3483054E-009  0.9118800E+02  0.7816531E-02  0.1126479E+00
         25   -1    0    0    0    0  0.00000000000E+00  0.00000000000E+00  0.99999998245E-14  0.12500000000E+03  0.12500000000E+03 0.  0.
    3000001    1    3    3    0    0  0.34520619264E+02 -0.77646120792E+01 -0.52941824098E+01  0.35790930730E+02  0.10000000000E+01 0.  1.
    1000022    2    1    0    0    0  0.58255202104E+02 -0.10919006632E+02 -0.17127667131E+02  0.62500001660E+02  0.99999974017E+01 0.  0.
    3000022    2    3    3    0    0  0.23734582840E+02 -0.31543945527E+01 -0.11833484721E+02  0.26709070929E+02  0.24996335902E+00 0.  0.
    1000022    2    1    0    0    0 -0.58255202104E+02  0.10919006632E+02  0.17127667131E+02  0.62499998340E+02  0.99999766572E+01 0.  0.
    3000022    2    5    5    0    0 -0.45244798780E+01  0.94235746279E+00  0.43856998109E+01  0.63761908180E+01  0.24998152500E+00 0.  0.
        -13    1    4    4    0    0  0.11121176373E+02 -0.14603221478E+01 -0.54711307853E+01  0.12480280516E+02  0.10500000000E+00 0. -1.
         13    1    4    4    0    0  0.12613406467E+02 -0.16940724049E+01 -0.63623539360E+01  0.14228790413E+02  0.10500000000E+00 0.  1.
    3000001    1    5    5    0    0 -0.53730722226E+02  0.99766491691E+01  0.12741967320E+02  0.56123807522E+02  0.10000000000E+01 0.  1.
        -13    1    6    6    0    0 -0.32771996223E+01  0.65743124346E+00  0.32099917661E+01  0.46354423028E+01  0.10500000000E+00 0. -1.
         13    1    6    6    0    0 -0.12472802557E+01  0.28492621933E+00  0.11757080449E+01  0.17407485153E+01  0.10500000000E+00 0.  1.
</event>
<event>
11    0  0.3483054E-009  0.9118800E+02  0.7816531E-02  0.1126479E+00
         25   -1    0    0    0    0  0.00000000000E+00  0.00000000000E+00  0.99999998245E-14  0.12500000000E+03  0.12500000000E+03 0.  0.
    3000001    1    3    3    0    0 -0.32769732559E+01 -0.30509164401E+01 -0.38336918442E+02  0.38610438491E+02  0.10000000000E+01 0. -1.
    1000022    2    1    0    0    0 -0.14388657890E+01  0.18187638335E+01 -0.61651210517E+02  0.62499999865E+02  0.99999994124E+01 0.  0.
    3000022    2    3    3    0    0  0.18381074669E+01  0.48696802736E+01 -0.23314292075E+02  0.23889561374E+02  0.25000528943E+00 0.  0.
    1000022    2    1    0    0    0  0.14388657890E+01 -0.18187638335E+01  0.61651210517E+02  0.62500000135E+02  0.10000001102E+02 0.  0.
    3000022    2    5    5    0    0 -0.18521521493E+01  0.17278116749E+01  0.46373692661E+02  0.46443489034E+02  0.25000368573E+00 0.  0.
        -13    1    4    4    0    0  0.48204729650E+00  0.13896676989E+01 -0.66359536047E+01  0.67978269434E+01  0.10500000000E+00 0. -1.
         13    1    4    4    0    0  0.13560601704E+01  0.34800125747E+01 -0.16678338471E+02  0.17091734431E+02  0.10500000000E+00 0.  1.
    3000001    1    5    5    0    0  0.32910179383E+01 -0.35465755084E+01  0.15277517856E+02  0.16056511102E+02  0.10000000000E+01 0.  1.
        -13    1    6    6    0    0 -0.87682337271E+00  0.80947580729E+00  0.20635176280E+02  0.20669920064E+02  0.10500000000E+00 0. -1.
         13    1    6    6    0    0 -0.97532877660E+00  0.91833586765E+00  0.25738516380E+02  0.25773568970E+02  0.10500000000E+00 0.  1.
</event>
<event>
11    0  0.3483054E-009  0.9118800E+02  0.7816531E-02  0.1126479E+00
         25   -1    0    0    0    0  0.00000000000E+00  0.00000000000E+00  0.99999998245E-14  0.12500000000E+03  0.12500000000E+03 0.  0.
    3000001    1    3    3    0    0  0.77710422355E+00  0.75319918852E+01 -0.45114441574E+01  0.88706212363E+01  0.10000000000E+01 0. -1.
    1000022    2    1    0    0    0  0.17009526351E+02  0.37764406822E+02 -0.45725000477E+02  0.62499999016E+02  0.99999899523E+01 0.  0.
    3000022    2    3    3    0    0  0.16232422128E+02  0.30232414937E+02 -0.41213556320E+02  0.53629377779E+02  0.24999092434E+00 0.  0.
    1000022    2    1    0    0    0 -0.17009526351E+02 -0.37764406822E+02  0.45725000477E+02  0.62500000984E+02  0.10000002255E+02 0.  0.
    3000022    2    5    5    0    0 -0.19847408140E+01 -0.54351010772E+01  0.12415546209E+02  0.13699919694E+02  0.24998422506E+00 0.  0.
        -13    1    4    4    0    0  0.44906185075E+01  0.84323386668E+01 -0.11440656296E+02  0.14905355797E+02  0.10500000000E+00 0.  1.
         13    1    4    4    0    0  0.11741803620E+02  0.21800076270E+02 -0.29772900024E+02  0.38724021982E+02  0.10500000000E+00 0. -1.
    3000001    1    5    5    0    0 -0.15024785537E+02 -0.32329305745E+02  0.33309454268E+02  0.48800081291E+02  0.10000000000E+01 0.  1.
        -13    1    6    6    0    0 -0.78553090581E+00 -0.19836069226E+01  0.45442836674E+01  0.50212841263E+01  0.10500000000E+00 0.  1.
         13    1    6    6    0    0 -0.11992099082E+01 -0.34514941546E+01  0.78712625421E+01  0.86786355672E+01  0.10500000000E+00 0. -1.
</event>
<event>
11    0  0.3483054E-009  0.9118800E+02  0.7816531E-02  0.1126479E+00
         25   -1    0    0    0    0  0.00000000000E+00  0.00000000000E+00  0.99999998245E-14  0.12500000000E+03  0.12500000000E+03 0.  0.
    3000001    1    3    3    0    0  0.24233311823E+02 -0.13922336070E+02 -0.24787676634E+02  0.37369957940E+02  0.10000000000E+01 0.  1.
    1000022    2    1    0    0    0  0.33746526691E+02 -0.26902794369E+02 -0.44086975395E+02  0.62499999424E+02  0.10000005993E+02 0.  0.
    3000022    2    3    3    0    0  0.95132148681E+01 -0.12980458299E+02 -0.19299298761E+02  0.25130041483E+02  0.24999496724E+00 0.  0.
    1000022    2    1    0    0    0 -0.33746526691E+02  0.26902794369E+02  0.44086975395E+02  0.62500000576E+02  0.10000013199E+02 0.  0.
    3000022    2    5    5    0    0 -0.17098465400E+02  0.73849959681E+01  0.18774795247E+02  0.26447138513E+02  0.25002883594E+00 0.  0.
        -13    1    4    4    0    0  0.36756504754E+01 -0.49309874495E+01 -0.73205795485E+01  0.95617442745E+01  0.10500000000E+00 0.  1.
         13    1    4    4    0    0  0.58375643927E+01 -0.80494708500E+01 -0.11978719213E+02  0.15568297209E+02  0.10500000000E+00 0. -1.
    3000001    1    5    5    0    0 -0.16648061290E+02  0.19517798401E+02  0.25312180148E+02  0.36052862064E+02  0.10000000000E+01 0.  1.
        -13    1    6    6    0    0 -0.12998120256E+02  0.56171197241E+01  0.14245803382E+02  0.20086241639E+02  0.10500000000E+00 0.  1.
         13    1    6    6    0    0 -0.41003451441E+01  0.17678762441E+01  0.45289918655E+01  0.63608968733E+01  0.10500000000E+00 0. -1.
</event>
<event>
11    0  0.3483054E-009  0.9118800E+02  0.7816531E-02  0.1126479E+00
         25   -1    0    0    0    0  0.00000000000E+00  0.00000000000E+00  0.99999998245E-14  0.12500000000E+03  0.12500000000E+03 0.  0.
    3000001    1    3    3    0    0 -0.95890762610E+01 -0.11421238493E+02  0.89715535946E+01  0.17432264516E+02  0.10000000000E+01 0. -1.
    1000022    2    1    0    0    0 -0.44895607426E+02 -0.29295449849E+02  0.30535408966E+02  0.62500001633E+02  0.10000002768E+02 0.  0.
    3000022    2    3    3    0    0 -0.35306531165E+02 -0.17874211357E+02  0.21563855372E+02  0.45067737118E+02  0.24999168800E+00 0.  0.
    1000022    2    1    0    0    0  0.44895607426E+02  0.29295449849E+02 -0.30535408966E+02  0.62499998367E+02  0.99999823515E+01 0.  0.
    3000022    2    5    5    0    0  0.28418035770E+02  0.17653758335E+02 -0.24333662023E+02  0.41369427760E+02  0.25001074917E+00 0.  0.
        -13    1    4    4    0    0 -0.14193118346E+02 -0.72554171079E+01  0.86975318356E+01  0.18158848279E+02  0.10500000000E+00 0. -1.
         13    1    4    4    0    0 -0.21113412819E+02 -0.10618794249E+02  0.12866323536E+02  0.26908888839E+02  0.10500000000E+00 0.  1.
    3000001    1    5    5    0    0  0.16477571656E+02  0.11641691515E+02 -0.62017469434E+01  0.21130570607E+02  0.10000000000E+01 0. -1.
        -13    1    6    6    0    0  0.16743722012E+02  0.10467481156E+02 -0.14324348056E+02  0.24395047874E+02  0.10500000000E+00 0.  1.
         13    1    6    6    0    0  0.11674313758E+02  0.71862771785E+01 -0.10009313967E+02  0.16974379886E+02  0.10500000000E+00 0. -1.
</event>
<event>
11    0  0.3483054E-009  0.9118800E+02  0.7816531E-02  0.1126479E+00
         25   -1    0    0    0    0  0.00000000000E+00  0.00000000000E+00  0.99999998245E-14  0.12500000000E+03  0.12500000000E+03 0.  0.
    3000001    1    3    3    0    0  0.46063810939E+02 -0.15866265677E+02 -0.31225959226E+02  0.57876364730E+02  0.10000000000E+01 0.  1.
    1000022    2    1    0    0    0  0.50573250860E+02 -0.15158815402E+02 -0.31918751554E+02  0.62499999397E+02  0.99999918485E+01 0.  0.
    3000022    2    3    3    0    0  0.45094399213E+01  0.70745027562E+00 -0.69279232758E+00  0.46236346674E+01  0.25000406460E+00 0.  0.
    1000022    2    1    0    0    0 -0.50573250860E+02  0.15158815402E+02  0.31918751554E+02  0.62500000603E+02  0.99999993811E+01 0.  0.
    3000022    2    5    5    0    0 -0.25835138049E+02  0.59498598960E+01  0.10592779084E+02  0.28550388105E+02  0.25000284320E+00 0.  0.
        -13    1    4    4    0    0  0.30653944797E+01  0.51049838888E+00 -0.51307878937E+00  0.31514324942E+01  0.10500000000E+00 0. -1.
         13    1    4    4    0    0  0.14440454416E+01  0.19695188674E+00 -0.17971353821E+00  0.14722021732E+01  0.10500000000E+00 0.  1.
    3000001    1    5    5    0    0 -0.24738112811E+02  0.92089555058E+01  0.21325972470E+02  0.33949612498E+02  0.10000000000E+01 0. -1.
        -13    1    6    6    0    0 -0.10849003891E+02  0.25439235909E+01  0.45034430036E+01  0.12019336776E+02  0.10500000000E+00 0. -1.
         13    1    6    6    0    0 -0.14986134158E+02  0.34059363051E+01  0.60893360804E+01  0.16531051328E+02  0.10500000000E+00 0.  1.
</event>
<event>
11    0  0.3483054E-009  0.9118800E+02  0.7816531E-02  0.1126479E+00
         25   -1    0    0    0    0  0.00000000000E+00  0.00000000000E+00  0.99999998245E-14  0.12500000000E+03  0.12500000000E+03 0.  0.
    3000001    1    3    3    0    0  0.26796619979E+02 -0.16648350408E+02  0.21311612050E+02  0.38084264753E+02  0.10000000000E+01 0.  1.
    1000022    2    1    0    0    0  0.37604848718E+02 -0.31224450008E+02  0.37645171779E+02  0.62500000710E+02  0.10000010254E+02 0.  0.
    3000022    2    3    3    0    0  0.10808228739E+02 -0.14576099600E+02  0.16333559728E+02  0.24415735957E+02  0.25000176555E+00 0.  0.
    1000022    2    1    0    0    0 -0.37604848718E+02  0.31224450008E+02 -0.37645171779E+02  0.62499999290E+02  0.10000001375E+02 0.  0.
    3000022    2    5    5    0    0 -0.22432808379E+02  0.12234145950E+02 -0.18654650626E+02  0.31638010534E+02  0.25000338891E+00 0.  0.
        -13    1    4    4    0    0  0.59914209169E+01 -0.80555073441E+01  0.89491026906E+01  0.13449378690E+02  0.10500000000E+00 0.  1.
         13    1    4    4    0    0  0.48168078225E+01 -0.65205922564E+01  0.73844570378E+01  0.10966357267E+02  0.10500000000E+00 0. -1.
    3000001    1    5    5    0    0 -0.15172040340E+02  0.18990304058E+02 -0.18990521153E+02  0.30861988756E+02  0.10000000000E+01 0.  1.
        -13    1    6    6    0    0 -0.73102455747E+01  0.39942707201E+01 -0.60180560224E+01  0.10277252173E+02  0.10500000000E+00 0. -1.
         13    1    6    6    0    0 -0.15122562804E+02  0.82398752299E+01 -0.12636594603E+02  0.21360758360E+02  0.10500000000E+00 0.  1.
</event>
<event>
11    0  0.3483054E-009  0.9118800E+02  0.7816531E-02  0.1126479E+00
         25   -1    0    0    0    0  0.00000000000E+00  0.00000000000E+00  0.99999998245E-14  0.12500000000E+03  0.12500000000E+03 0.  0.
    3000001    1    3    3    0    0 -0.44047657224E+01  0.60699991564E+01 -0.10387364639E+02  0.12850844135E+02  0.10000000000E+01 0. -1.
    1000022    2    1    0    0    0 -0.31364811850E+01  0.26717849414E+02 -0.55520881696E+02  0.62500004211E+02  0.10000061528E+02 0.  0.
    3000022    2    3    3    0    0  0.12682845374E+01  0.20647850258E+02 -0.45133517056E+02  0.49649160076E+02  0.24993690400E+00 0.  0.
    1000022    2    1    0    0    0  0.31364811850E+01 -0.26717849414E+02  0.55520881696E+02  0.62499995789E+02  0.10000008888E+02 0.  0.
    3000022    2    5    5    0    0 -0.30769000649E+00 -0.22450703955E+02  0.49141108342E+02  0.54028139227E+02  0.25003593780E+00 0.  0.
        -13    1    4    4    0    0  0.33862875897E+00  0.56276648521E+01 -0.12215008350E+02  0.13453725696E+02  0.10500000000E+00 0.  1.
         13    1    4    4    0    0  0.92965577842E+00  0.15020185406E+02 -0.32918508707E+02  0.36195434380E+02  0.10500000000E+00 0. -1.
    3000001    1    5    5    0    0  0.34441711915E+01 -0.42671454591E+01  0.63797733536E+01  0.84718565621E+01  0.10000000000E+01 0.  1.
        -13    1    6    6    0    0 -0.12287185966E+00 -0.86918341118E+01  0.18877660552E+02  0.20783170371E+02  0.10500000000E+00 0.  1.
         13    1    6    6    0    0 -0.18481814683E+00 -0.13758869844E+02  0.30263447790E+02  0.33244968856E+02  0.10500000000E+00 0. -1.
</event>
<event>
11    0  0.3483054E-009  0.9118800E+02  0.7816531E-02  0.1126479E+00
         25   -1    0    0    0    0  0.00000000000E+00  0.00000000000E+00  0.99999998245E-14  0.12500000000E+03  0.12500000000E+03 0.  0.
    3000001    1    3    3    0    0 -0.25303340243E+02 -0.20774815994E+02  0.68737133137E+01  0.33467894193E+02  0.10000000000E+01 0.  1.
    1000022    2    1    0    0    0 -0.52057245464E+02 -0.31034181670E+02  0.11540045780E+02  0.62499999755E+02  0.10000003780E+02 0.  0.
    3000022    2    3    3    0    0 -0.26753905221E+02 -0.10259365676E+02  0.46663324661E+01  0.29032105562E+02  0.24993203999E+00 0.  0.
    1000022    2    1    0    0    0  0.52057245464E+02  0.31034181670E+02 -0.11540045780E+02  0.62500000245E+02  0.10000006838E+02 0.  0.
    3000022    2    5    5    0    0  0.16304122822E+02  0.12021127136E+02  0.42691712945E+00  0.20262691824E+02  0.25000619625E+00 0.  0.
        -13    1    4    4    0    0 -0.18195106084E+02 -0.70228741619E+01  0.32037396736E+01  0.19765060582E+02  0.10500000000E+00 0.  1.
         13    1    4    4    0    0 -0.85587991371E+01 -0.32364915143E+01  0.14625927925E+01  0.92670449804E+01  0.10500000000E+00 0. -1.
    3000001    1    5    5    0    0  0.35753122642E+02  0.19013054533E+02 -0.11966962909E+02  0.42237308420E+02  0.10000000000E+01 0.  1.
        -13    1    6    6    0    0  0.11562325722E+02  0.85480433898E+01  0.34182158154E+00  0.14383472769E+02  0.10500000000E+00 0.  1.
         13    1    6    6    0    0  0.47417971000E+01  0.34730837465E+01  0.85095547913E-01  0.58792190553E+01  0.10500000000E+00 0. -1.
</event>
<event>
11    0  0.3483054E-009  0.9118800E+02  0.7816531E-02  0.1126479E+00
         25   -1    0    0    0    0  0.00000000000E+00  0.00000000000E+00  0.99999998245E-14  0.12500000000E+03  0.12500000000E+03 0.  0.
    3000001    1    3    3    0    0 -0.48729327871E+01 -0.15719118770E+02 -0.82850034451E+01  0.18452031079E+02  0.10000000000E+01 0. -1.
    1000022    2    1    0    0    0 -0.20776336085E+01 -0.56513319177E+02 -0.24661246314E+02  0.62500008557E+02  0.10000109701E+02 0.  0.
    3000022    2    3    3    0    0  0.27952991786E+01 -0.40794200407E+02 -0.16376242869E+02  0.44047977478E+02  0.25001010308E+00 0.  0.
    1000022    2    1    0    0    0  0.20776336085E+01  0.56513319177E+02  0.24661246314E+02  0.62499991443E+02  0.10000002740E+02 0.  0.
    3000022    2    5    5    0    0  0.11797647564E+01  0.53733412657E+02  0.25207082620E+02  0.59364391659E+02  0.25000415124E+00 0.  0.
        -13    1    4    4    0    0  0.16521737229E+01 -0.24724752176E+02 -0.98743269799E+01  0.26675014648E+02  0.10500000000E+00 0. -1.
         13    1    4    4    0    0  0.11431254557E+01 -0.16069448231E+02 -0.65019158889E+01  0.17372962830E+02  0.10500000000E+00 0.  1.
    3000001    1    5    5    0    0  0.89786885210E+00  0.27799065199E+01 -0.54583630655E+00  0.31355997845E+01  0.10000000000E+01 0.  1.
        -13    1    6    6    0    0  0.71643677899E+00  0.34431626601E+02  0.16105013718E+02  0.38018846431E+02  0.10500000000E+00 0.  1.
         13    1    6    6    0    0  0.46332797737E+00  0.19301786056E+02  0.91020689026E+01  0.21345545228E+02  0.10500000000E+00 0. -1.
</event>
<event>
11    0  0.3483054E-009  0.9118800E+02  0.7816531E-02  0.1126479E+00
         25   -1    0    0    0    0  0.00000000000E+00  0.00000000000E+00  0.99999998245E-14  0.12500000000E+03  0.12500000000E+03 0.  0.
    3000001    1    3    3    0    0 -0.99759404051E+01  0.11163709124E+02  0.30193971376E+02  0.33716816217E+02  0.10000000000E+01 0. -1.
    1000022    2    1    0    0    0 -0.94373118622E+01  0.21133751982E+02  0.57188736279E+02  0.62500000745E+02  0.10000010398E+02 0.  0.
    3000022    2    3    3    0    0  0.53862854296E+00  0.99700428573E+01  0.26994764903E+02  0.28783184527E+02  0.25000823357E+00 0.  0.
    1000022    2    1    0    0    0  0.94373118622E+01 -0.21133751982E+02 -0.57188736279E+02  0.62499999255E+02  0.10000001086E+02 0.  0.
    3000022    2    5    5    0    0  0.11015704361E+02 -0.20131277665E+02 -0.53956569902E+02  0.58634358671E+02  0.24999641415E+00 0.  0.
        -13    1    4    4    0    0  0.36861859559E+00  0.73054875482E+01  0.19705274564E+02  0.21019393393E+02  0.10500000000E+00 0. -1.
         13    1    4    4    0    0  0.17000994736E+00  0.26645553090E+01  0.72894903387E+01  0.77637911342E+01  0.10500000000E+00 0.  1.
    3000001    1    5    5    0    0 -0.15783924991E+01 -0.10024743169E+01 -0.32321663771E+01  0.38656405843E+01  0.10000000000E+01 0. -1.
        -13    1    6    6    0    0  0.42955468681E+01 -0.78995763472E+01 -0.20995999931E+02  0.22840710748E+02  0.10500000000E+00 0. -1.
         13    1    6    6    0    0  0.67201574932E+01 -0.12231701317E+02 -0.32960569970E+02  0.35793647923E+02  0.10500000000E+00 0.  1.
</event>
<event>
11    0  0.3483054E-009  0.9118800E+02  0.7816531E-02  0.1126479E+00
         25   -1    0    0    0    0  0.00000000000E+00  0.00000000000E+00  0.99999998245E-14  0.12500000000E+03  0.12500000000E+03 0.  0.
    3000001    1    3    3    0    0  0.26188066256E+02 -0.21575009123E+01 -0.15016901361E+02  0.30281627283E+02  0.10000000000E+01 0.  1.
    1000022    2    1    0    0    0  0.50534689887E+02  0.41779589771E+01 -0.35143129701E+02  0.62500002507E+02  0.10000026249E+02 0.  0.
    3000022    2    3    3    0    0  0.24346623631E+02  0.63354598894E+01 -0.20126228340E+02  0.32218375223E+02  0.25000125955E+00 0.  0.
    1000022    2    1    0    0    0 -0.50534689887E+02 -0.41779589771E+01  0.35143129701E+02  0.62499997493E+02  0.99999949160E+01 0.  0.
    3000022    2    5    5    0    0 -0.20970402646E+02 -0.37171204271E+01  0.20204959309E+02  0.29357752746E+02  0.24998843422E+00 0.  0.
        -13    1    4    4    0    0  0.11178644777E+02  0.28454224315E+01 -0.92624990926E+01  0.14794034011E+02  0.10500000000E+00 0.  1.
         13    1    4    4    0    0  0.13167978853E+02  0.34900374579E+01 -0.10863729247E+02  0.17424341213E+02  0.10500000000E+00 0. -1.
    3000001    1    5    5    0    0 -0.29564287241E+02 -0.46083854999E+00  0.14938170392E+02  0.33142244747E+02  0.10000000000E+01 0.  1.
        -13    1    6    6    0    0 -0.15130140094E+02 -0.26845511602E+01  0.14631530738E+02  0.21218404062E+02  0.10500000000E+00 0.  1.
         13    1    6    6    0    0 -0.58402625520E+01 -0.10325692669E+01  0.55734285710E+01  0.81393486842E+01  0.10500000000E+00 0. -1.
</event>
<event>
11    0  0.3483054E-009  0.9118800E+02  0.7816531E-02  0.1126479E+00
         25   -1    0    0    0    0  0.00000000000E+00  0.00000000000E+00  0.99999998245E-14  0.12500000000E+03  0.12500000000E+03 0.  0.
    3000001    1    3    3    0    0 -0.56677196959E+01  0.63027263270E+01  0.67947443709E+01  0.10909443467E+02  0.10000000000E+01 0. -1.
    1000022    2    1    0    0    0 -0.25046955939E+02  0.50395961306E+02  0.25281357308E+02  0.62500000031E+02  0.10000002940E+02 0.  0.
    3000022    2    3    3    0    0 -0.19379236244E+02  0.44093234979E+02  0.18486612937E+02  0.51590556564E+02  0.25000078172E+00 0.  0.
    1000022    2    1    0    0    0  0.25046955939E+02 -0.50395961306E+02 -0.25281357308E+02  0.62499999969E+02  0.10000002547E+02 0.  0.
    3000022    2    5    5    0    0  0.73129147063E+01 -0.22644477052E+02 -0.14329101048E+02  0.27778349462E+02  0.24999898056E+00 0.  0.
        -13    1    4    4    0    0 -0.10752960024E+02  0.24381787492E+02  0.10289334727E+02  0.28565348671E+02  0.10500000000E+00 0.  1.
         13    1    4    4    0    0 -0.86262762201E+01  0.19711447488E+02  0.81972782101E+01  0.23025207893E+02  0.10500000000E+00 0. -1.
    3000001    1    5    5    0    0  0.17734041233E+02 -0.27751484254E+02 -0.10952256259E+02  0.34721650507E+02  0.10000000000E+01 0. -1.
        -13    1    6    6    0    0  0.56025145529E+01 -0.17383903772E+02 -0.11000709459E+02  0.21321700525E+02  0.10500000000E+00 0.  1.
         13    1    6    6    0    0  0.17104001534E+01 -0.52605732799E+01 -0.33283915890E+01  0.64566489363E+01  0.10500000000E+00 0. -1.
</event>
<event>
11    0  0.3483054E-009  0.9118800E+02  0.7816531E-02  0.1126479E+00
         25   -1    0    0    0    0  0.00000000000E+00  0.00000000000E+00  0.99999998245E-14  0.12500000000E+03  0.12500000000E+03 0.  0.
    3000001    1    3    3    0    0 -0.32432888460E+01 -0.35723632869E+01 -0.10553715846E+01  0.50392966943E+01  0.10000000000E+01 0. -1.
    1000022    2    1    0    0    0 -0.13580284364E+02 -0.59853335219E+02 -0.62772899744E+01  0.62499998144E+02  0.99999769218E+01 0.  0.
    3000022    2    3    3    0    0 -0.10336995518E+02 -0.56280971932E+02 -0.52219183898E+01  0.57460701450E+02  0.25000310053E+00 0.  0.
    1000022    2    1    0    0    0  0.13580284364E+02  0.59853335219E+02  0.62772899744E+01  0.62500001856E+02  0.10000000117E+02 0.  0.
    3000022    2    5    5    0    0  0.66001174971E+01  0.47342182776E+02  0.55235893509E+01  0.48118773481E+02  0.25000209809E+00 0.  0.
        -13    1    4    4    0    0 -0.44643690411E+01 -0.24076785664E+02 -0.21839167890E+01  0.24584603238E+02  0.10500000000E+00 0.  1.
         13    1    4    4    0    0 -0.58726264767E+01 -0.32204186268E+02 -0.30380016008E+01  0.32876098212E+02  0.10500000000E+00 0. -1.
    3000001    1    5    5    0    0  0.69801668666E+01  0.12511152443E+02  0.75370062348E+00  0.14381228374E+02  0.10000000000E+01 0.  1.
        -13    1    6    6    0    0  0.45707298067E+01  0.32604071902E+02  0.37623558211E+01  0.33137341805E+02  0.10500000000E+00 0. -1.
         13    1    6    6    0    0  0.20293876905E+01  0.14738110874E+02  0.17612335297E+01  0.14981431676E+02  0.10500000000E+00 0.  1.
</event>
<event>
11    0  0.3483054E-009  0.9118800E+02  0.7816531E-02  0.1126479E+00
         25   -1    0    0    0    0  0.00000000000E+00  0.00000000000E+00  0.99999998245E-14  0.12500000000E+03  0.12500000000E+03 0.  0.
    3000001    1    3    3    0    0  0.96329346667E+01  0.45700216309E+01  0.72911653821E+01  0.12955293151E+02  0.10000000000E+01 0. -1.
    1000022    2    1    0    0    0  0.43329347208E+02  0.36964013468E+02  0.23716646574E+02  0.62499998780E+02  0.99999950809E+01 0.  0.
    3000022    2    3    3    0    0  0.33696412541E+02  0.32393991837E+02  0.16425481192E+02  0.49544705629E+02  0.24999631015E+00 0.  0.
    1000022    2    1    0    0    0 -0.43329347208E+02 -0.36964013468E+02 -0.23716646574E+02  0.62500001220E+02  0.10000010334E+02 0.  0.
    3000022    2    5    5    0    0 -0.83071789541E+01 -0.49285846518E+01 -0.55890885195E+00  0.96785871437E+01  0.25000229720E+00 0.  0.
        -13    1    4    4    0    0  0.22472731495E+02  0.21530810967E+02  0.10926589358E+02  0.32984858068E+02  0.10500000000E+00 0. -1.
         13    1    4    4    0    0  0.11223681046E+02  0.10863180870E+02  0.54988918336E+01  0.16559847561E+02  0.10500000000E+00 0.  1.
    3000001    1    5    5    0    0 -0.35022168254E+02 -0.32035428816E+02 -0.23157737722E+02  0.52821414077E+02  0.10000000000E+01 0.  1.
        -13    1    6    6    0    0 -0.30527618364E+01 -0.17433761725E+01 -0.19687247483E+00  0.35225699539E+01  0.10500000000E+00 0.  1.
         13    1    6    6    0    0 -0.52544171176E+01 -0.31852084793E+01 -0.36203637712E+00  0.61560171898E+01  0.10500000000E+00 0. -1.
</event>
<event>
11    0  0.3483054E-009  0.9118800E+02  0.7816531E-02  0.1126479E+00
         25   -1    0    0    0    0  0.00000000000E+00  0.00000000000E+00  0.99999998245E-14  0.12500000000E+03  0.12500000000E+03 0.  0.
    3000001    1    3    3    0    0 -0.58119381587E+02 -0.60005480757E+01  0.10433354845E+02  0.59360963491E+02  0.10000000000E+01 0. -1.
    1000022    2    1    0    0    0 -0.60698334858E+02 -0.66778967553E+01  0.87958996359E+01  0.62500001447E+02  0.10000008548E+02 0.  0.
    3000022    2    3    3    0    0 -0.25789532709E+01 -0.67734867951E+00 -0.16374552092E+01  0.31390379566E+01  0.24999704751E+00 0.  0.
    1000022    2    1    0    0    0  0.60698334858E+02  0.66778967553E+01 -0.87958996359E+01  0.62499998553E+02  0.99999904561E+01 0.  0.
    3000022    2    5    5    0    0  0.57858440775E+02  0.67125456522E+01 -0.10273240094E+02  0.59146085349E+02  0.25002421559E+00 0.  0.
        -13    1    4    4    0    0 -0.18511055157E+01 -0.44465316328E+00 -0.11803282517E+01  0.22424334656E+01  0.10500000000E+00 0. -1.
         13    1    4    4    0    0 -0.72784775515E+00 -0.23269551623E+00 -0.45712695743E+00  0.89660449093E+00  0.10500000000E+00 0.  1.
    3000001    1    5    5    0    0  0.28398940829E+01 -0.34648896911E-01  0.14773404577E+01  0.33539132034E+01  0.10000000000E+01 0. -1.
        -13    1    6    6    0    0  0.26725332953E+02  0.30908174288E+01 -0.46776157665E+01  0.27307282693E+02  0.10500000000E+00 0. -1.
         13    1    6    6    0    0  0.31133107822E+02  0.36217282234E+01 -0.55956243271E+01  0.31838802656E+02  0.10500000000E+00 0.  1.
</event>
<event>
11    0  0.3483054E-009  0.9118800E+02  0.7816531E-02  0.1126479E+00
         25   -1    0    0    0    0  0.00000000000E+00  0.00000000000E+00  0.99999998245E-14  0.12500000000E+03  0.12500000000E+03 0.  0.
    3000001    1    3    3    0    0 -0.21983343509E+02 -0.43205968179E+02 -0.34508468582E+02  0.59513506719E+02  0.10000000000E+01 0. -1.
    1000022    2    1    0    0    0 -0.20957876584E+02 -0.45714857609E+02 -0.35737506856E+02  0.62499999824E+02  0.99999892273E+01 0.  0.
    3000022    2    3    3    0    0  0.10254669249E+01 -0.25088894295E+01 -0.12290382748E+01  0.29864931048E+01  0.24999480020E+00 0.  0.
    1000022    2    1    0    0    0  0.20957876584E+02  0.45714857609E+02  0.35737506856E+02  0.62500000176E+02  0.99999914302E+01 0.  0.
    3000022    2    5    5    0    0  0.39829239028E+01  0.59008046331E+01  0.95091448380E+01  0.11881477805E+02  0.25000228957E+00 0.  0.
        -13    1    4    4    0    0  0.31413659823E+00 -0.68821315961E+00 -0.31718456112E+00  0.82701281805E+00  0.10500000000E+00 0. -1.
         13    1    4    4    0    0  0.71133032666E+00 -0.18206762699E+01 -0.91185371371E+00  0.21594802867E+01  0.10500000000E+00 0.  1.
    3000001    1    5    5    0    0  0.16974952681E+02  0.39814052976E+02  0.26228362018E+02  0.50618522371E+02  0.10000000000E+01 0. -1.
        -13    1    6    6    0    0  0.21124469142E+01  0.31611918938E+01  0.51862522311E+01  0.64314697667E+01  0.10500000000E+00 0. -1.
         13    1    6    6    0    0  0.18704769886E+01  0.27396127393E+01  0.43228926068E+01  0.54500080382E+01  0.10500000000E+00 0.  1.
</event>
<event>
11    0  0.3483054E-009  0.9118800E+02  0.7816531E-02  0.1126479E+00
         25   -1    0    0    0    0  0.00000000000E+00  0.00000000000E+00  0.99999998245E-14  0.12500000000E+03  0.12500000000E+03 0.  0.
    3000001    1    3    3    0    0 -0.20054667123E+02 -0.64758828777E+00  0.56297790120E+01  0.20863927141E+02  0.10000000000E+01 0. -1.
    1000022    2    1    0    0    0 -0.59558528919E+02 -0.13369832396E+02  0.89598610745E+01  0.62499999691E+02  0.10000003280E+02 0.  0.
    3000022    2    3    3    0    0 -0.39503861795E+02 -0.12722244108E+02  0.33300820625E+01  0.41636072550E+02  0.24999786051E+00 0.  0.
    1000022    2    1    0    0    0  0.59558528919E+02  0.13369832396E+02 -0.89598610745E+01  0.62500000309E+02  0.10000007147E+02 0.  0.
    3000022    2    5    5    0    0  0.11476022269E+02  0.11597647597E+01  0.19375582307E+01  0.11698750867E+02  0.24999706638E+00 0.  0.
        -13    1    4    4    0    0 -0.17917409413E+02 -0.58037901870E+01  0.14522902876E+01  0.18890148561E+02  0.10500000000E+00 0.  1.
         13    1    4    4    0    0 -0.21586452383E+02 -0.69184539211E+01  0.18777917749E+01  0.22745923988E+02  0.10500000000E+00 0. -1.
    3000001    1    5    5    0    0  0.48082506650E+02  0.12210067636E+02 -0.10897419305E+02  0.50801249443E+02  0.10000000000E+01 0.  1.
        -13    1    6    6    0    0  0.41813782161E+01  0.47600975807E+00  0.73246454404E+00  0.42729425907E+01  0.10500000000E+00 0. -1.
         13    1    6    6    0    0  0.72946440528E+01  0.68375500158E+00  0.12050936867E+01  0.74258082761E+01  0.10500000000E+00 0.  1.
</event>
<event>
11    0  0.3483054E-009  0.9118800E+02  0.7816531E-02  0.1126479E+00
         25   -1    0    0    0    0  0.00000000000E+00  0.00000000000E+00  0.99999998245E-14  0.12500000000E+03  0.12500000000E+03 0.  0.
    3000001    1    3    3    0    0 -0.22392042313E+02 -0.39158704261E+02 -0.35090326523E+02  0.57158889893E+02  0.10000000000E+01 0.  1.
    1000022    2    1    0    0    0 -0.25868378297E+02 -0.40198917749E+02 -0.39001590940E+02  0.62499998951E+02  0.99999894545E+01 0.  0.
    3000022    2    3    3    0    0 -0.34763359836E+01 -0.10402134883E+01 -0.39112644172E+01  0.53411090576E+01  0.25000130377E+00 0.  0.
    1000022    2    1    0    0    0  0.25868378297E+02  0.40198917749E+02  0.39001590940E+02  0.62500001049E+02  0.10000002571E+02 0.  0.
    3000022    2    5    5    0    0  0.16320341469E+02  0.30253718741E+02  0.32170759490E+02  0.47081432735E+02  0.24999770865E+00 0.  0.
        -13    1    4    4    0    0 -0.24330136545E+01 -0.77484333606E+00 -0.27434348917E+01  0.37493196240E+01  0.10500000000E+00 0. -1.
         13    1    4    4    0    0 -0.10433223291E+01 -0.26537015224E+00 -0.11678295255E+01  0.15917894336E+01  0.10500000000E+00 0.  1.
    3000001    1    5    5    0    0  0.95480368279E+01  0.99451990081E+01  0.68308314494E+01  0.15418568314E+02  0.10000000000E+01 0. -1.
        -13    1    6    6    0    0  0.95792452008E+01  0.17877971094E+02  0.19020983081E+02  0.27806341209E+02  0.10500000000E+00 0. -1.
         13    1    6    6    0    0  0.67410962679E+01  0.12375747647E+02  0.13149776409E+02  0.19275091526E+02  0.10500000000E+00 0.  1.
</event>
<event>
11    0  0.3483054E-009  0.9118800E+02  0.7816531E-02  0.1126479E+00
         25   -1    0    0    0    0  0.00000000000E+00  0.00000000000E+00  0.99999998245E-14  0.12500000000E+03  0.12500000000E+03 0.  0.
    3000001    1    3    3    0    0 -0.48605237115E+02  0.19897045512E+02 -0.16411027784E+02  0.55033474613E+02  0.10000000000E+01 0.  1.
    1000022    2    1    0    0    0 -0.54759960042E+02  0.19558403757E+02 -0.20617118550E+02  0.62499999408E+02  0.99999983658E+01 0.  0.
    3000022    2    3    3    0    0 -0.61547229273E+01 -0.33864175469E+00 -0.42060907655E+01  0.74665247943E+01  0.25000085101E+00 0.  0.
    1000022    2    1    0    0    0  0.54759960042E+02 -0.19558403757E+02  0.20617118550E+02  0.62500000592E+02  0.10000005770E+02 0.  0.
    3000022    2    5    5    0    0  0.40228266342E+02 -0.10426666912E+02  0.17172428238E+02  0.44966471828E+02  0.25000250370E+00 0.  0.
        -13    1    4    4    0    0 -0.35248678572E+01 -0.12978279320E+00 -0.24218027289E+01  0.42799171069E+01  0.10500000000E+00 0.  1.
         13    1    4    4    0    0 -0.26298550701E+01 -0.20885896148E+00 -0.17842880367E+01  0.31866076874E+01  0.10500000000E+00 0. -1.
    3000001    1    5    5    0    0  0.14531693700E+02 -0.91317368446E+01  0.34446903118E+01  0.17533528765E+02  0.10000000000E+01 0. -1.
        -13    1    6    6    0    0  0.13014820894E+02 -0.33597223655E+01  0.56082833271E+01  0.14564929253E+02  0.10500000000E+00 0.  1.
         13    1    6    6    0    0  0.27213445448E+02 -0.70669445468E+01  0.11564144911E+02  0.30401542574E+02  0.10500000000E+00 0. -1.
</event>
<event>
11    0  0.3483054E-009  0.9118800E+02  0.7816531E-02  0.1126479E+00
         25   -1    0    0    0    0  0.00000000000E+00  0.00000000000E+00  0.99999998245E-14  0.12500000000E+03  0.12500000000E+03 0.  0.
    3000001    1    3    3    0    0  0.26067746303E+02 -0.75779141253E+01 -0.20232837129E+02  0.33872110624E+02  0.10000000000E+01 0.  1.
    1000022    2    1    0    0    0  0.41364362723E+02 -0.14433644356E+02 -0.43438570064E+02  0.62499999953E+02  0.10000001606E+02 0.  0.
    3000022    2    3    3    0    0  0.15296616420E+02 -0.68557302304E+01 -0.23205732935E+02  0.28627889330E+02  0.24999110143E+00 0.  0.
    1000022    2    1    0    0    0 -0.41364362723E+02  0.14433644356E+02  0.43438570064E+02  0.62500000047E+02  0.10000002188E+02 0.  0.
    3000022    2    5    5    0    0 -0.94413704455E+01 -0.87917851189E+00  0.10153296784E+02  0.13894759615E+02  0.24995683512E+00 0.  0.
        -13    1    4    4    0    0  0.11756852425E+02 -0.52777640827E+01 -0.17847552918E+02  0.22014189579E+02  0.10500000000E+00 0.  1.
         13    1    4    4    0    0  0.35397639952E+01 -0.15779661477E+01 -0.53581800162E+01  0.66136997506E+01  0.10500000000E+00 0. -1.
    3000001    1    5    5    0    0 -0.31922992277E+02  0.15312822868E+02  0.33285273280E+02  0.48605240432E+02  0.10000000000E+01 0. -1.
        -13    1    6    6    0    0 -0.56572209466E+01 -0.46852020085E+00  0.60408464245E+01  0.82901453872E+01  0.10500000000E+00 0. -1.
         13    1    6    6    0    0 -0.37841494989E+01 -0.41065831105E+00  0.41124503595E+01  0.56046142274E+01  0.10500000000E+00 0.  1.
</event>
<event>
11    0  0.3483054E-009  0.9118800E+02  0.7816531E-02  0.1126479E+00
         25   -1    0    0    0    0  0.00000000000E+00  0.00000000000E+00  0.99999998245E-14  0.12500000000E+03  0.12500000000E+03 0.  0.
    3000001    1    3    3    0    0 -0.11939005571E+02 -0.12739005789E+02  0.36112563607E+02  0.40124049805E+02  0.10000000000E+01 0.  1.
    1000022    2    1    0    0    0 -0.23425439851E+02 -0.23512711198E+02  0.52006262112E+02  0.62499997860E+02  0.99999806798E+01 0.  0.
    3000022    2    3    3    0    0 -0.11486434280E+02 -0.10773705409E+02  0.15893698505E+02  0.22375948055E+02  0.24999697540E+00 0.  0.
    1000022    2    1    0    0    0  0.23425439851E+02  0.23512711198E+02 -0.52006262112E+02  0.62500002140E+02  0.10000007425E+02 0.  0.
    3000022    2    5    5    0    0  0.10483425389E+00  0.45928138764E+01 -0.75772413025E+01  0.88646495244E+01  0.24999182005E+00 0.  0.
        -13    1    4    4    0    0 -0.29575164971E+01 -0.27376522863E+01  0.40868934194E+01  0.57406765013E+01  0.10500000000E+00 0. -1.
         13    1    4    4    0    0 -0.85289177827E+01 -0.80360531230E+01  0.11806805086E+02  0.16635271554E+02  0.10500000000E+00 0.  1.
    3000001    1    5    5    0    0  0.23320605597E+02  0.18919897322E+02 -0.44429020809E+02  0.53635352615E+02  0.10000000000E+01 0.  1.
        -13    1    6    6    0    0  0.47674461835E-01  0.11180524434E+01 -0.18573118520E+01  0.21709321583E+01  0.10500000000E+00 0. -1.
         13    1    6    6    0    0  0.57159792060E-01  0.34747614330E+01 -0.57199294505E+01  0.66937173661E+01  0.10500000000E+00 0.  1.
</event>
<event>
11    0  0.3483054E-009  0.9118800E+02  0.7816531E-02  0.1126479E+00
         25   -1    0    0    0    0  0.00000000000E+00  0.00000000000E+00  0.99999998245E-14  0.12500000000E+03  0.12500000000E+03 0.  0.
    3000001    1    3    3    0    0 -0.33179492277E+02 -0.30395647781E+02  0.29194219476E+02  0.53647707897E+02  0.10000000000E+01 0. -1.
    1000022    2    1    0    0    0 -0.35499133550E+02 -0.34880841944E+02  0.36460779897E+02  0.62500000715E+02  0.10000000058E+02 0.  0.
    3000022    2    3    3    0    0 -0.23196412724E+01 -0.44851941631E+01  0.72665604213E+01  0.88522928179E+01  0.24997092701E+00 0.  0.
    1000022    2    1    0    0    0  0.35499133550E+02  0.34880841944E+02 -0.36460779897E+02  0.62499999285E+02  0.99999911188E+01 0.  0.
    3000022    2    5    5    0    0  0.48226836719E+01  0.19309342242E+01 -0.12800390771E+01  0.53560974185E+01  0.24998947905E+00 0.  0.
        -13    1    4    4    0    0 -0.13835503997E+01 -0.25433990263E+01  0.41216216981E+01  0.50380433442E+01  0.10500000000E+00 0.  1.
         13    1    4    4    0    0 -0.93609087265E+00 -0.19417951369E+01  0.31449387232E+01  0.38142494738E+01  0.10500000000E+00 0. -1.
    3000001    1    5    5    0    0  0.30676449878E+02  0.32949907720E+02 -0.35180740820E+02  0.57143901866E+02  0.10000000000E+01 0. -1.
        -13    1    6    6    0    0  0.35447957015E+01  0.14507691881E+01 -0.92728786307E+00  0.39422323097E+01  0.10500000000E+00 0. -1.
         13    1    6    6    0    0  0.12778879704E+01  0.48016503602E+00 -0.35275121403E+00  0.14138651087E+01  0.10500000000E+00 0.  1.
</event>
<event>
11    0  0.3483054E-009  0.9118800E+02  0.7816531E-02  0.1126479E+00
         25   -1    0    0    0    0  0.00000000000E+00  0.00000000000E+00  0.99999998245E-14  0.12500000000E+03  0.12500000000E+03 0.  0.
    3000001    1    3    3    0    0 -0.24792409324E+02  0.76710855329E+01  0.29637070449E+02  0.39406408846E+02  0.10000000000E+01 0.  1.
    1000022    2    1    0    0    0 -0.34290182096E+02  0.17735079597E+02  0.48123809316E+02  0.62499994040E+02  0.99999297720E+01 0.  0.
    3000022    2    3    3    0    0 -0.94977727716E+01  0.10063994064E+02  0.18486738867E+02  0.23093585194E+02  0.24999805386E+00 0.  0.
    1000022    2    1    0    0    0  0.34290182096E+02 -0.17735079597E+02 -0.48123809316E+02  0.62500005960E+02  0.10000004273E+02 0.  0.
    3000022    2    5    5    0    0  0.33539961531E+02 -0.15518595000E+02 -0.46796417276E+02  0.59629883229E+02  0.24998745940E+00 0.  0.
        -13    1    4    4    0    0 -0.54738262598E+01  0.57050283247E+01  0.10568841313E+02  0.13199301262E+02  0.10500000000E+00 0.  1.
         13    1    4    4    0    0 -0.40239465119E+01  0.43589657395E+01  0.79178975536E+01  0.98942839315E+01  0.10500000000E+00 0. -1.
    3000001    1    5    5    0    0  0.75022056430E+00 -0.22164845973E+01 -0.13273920403E+01  0.28701227315E+01  0.10000000000E+01 0.  1.
        -13    1    6    6    0    0  0.16328240954E+02 -0.74987314716E+01 -0.22823956568E+02  0.29048002423E+02  0.10500000000E+00 0.  1.
         13    1    6    6    0    0  0.17211720577E+02 -0.80198635281E+01 -0.23972460708E+02  0.30581880806E+02  0.10500000000E+00 0. -1.
</event>
<event>
11    0  0.3483054E-009  0.9118800E+02  0.7816531E-02  0.1126479E+00
         25   -1    0    0    0    0  0.00000000000E+00  0.00000000000E+00  0.99999998245E-14  0.12500000000E+03  0.12500000000E+03 0.  0.
    3000001    1    3    3    0    0  0.29489730829E+02  0.22159098135E+02  0.13388214756E+02  0.39254479348E+02  0.10000000000E+01 0.  1.
    1000022    2    1    0    0    0  0.43342255748E+02  0.40463682228E+02  0.17040809366E+02  0.62499998915E+02  0.99999983855E+01 0.  0.
    3000022    2    3    3    0    0  0.13852524919E+02  0.18304584092E+02  0.36525946100E+01  0.23245519566E+02  0.24997419811E+00 0.  0.
    1000022    2    1    0    0    0 -0.43342255748E+02 -0.40463682228E+02 -0.17040809366E+02  0.62500001085E+02  0.10000011953E+02 0.  0.
    3000022    2    5    5    0    0 -0.25428242413E+02 -0.28769861935E+02 -0.78333598334E+01  0.39188320886E+02  0.24999927124E+00 0.  0.
        -13    1    4    4    0    0  0.89188570628E+01  0.11835696832E+02  0.24070865905E+01  0.15014487059E+02  0.10500000000E+00 0. -1.
         13    1    4    4    0    0  0.49336678563E+01  0.64688872605E+01  0.12455080195E+01  0.82310325070E+01  0.10500000000E+00 0.  1.
    3000001    1    5    5    0    0 -0.17914013335E+02 -0.11693820293E+02 -0.92074495329E+01  0.23311680199E+02  0.10000000000E+01 0. -1.
        -13    1    6    6    0    0 -0.15059392032E+02 -0.16944169368E+02 -0.46389658299E+01  0.23139170100E+02  0.10500000000E+00 0. -1.
         13    1    6    6    0    0 -0.10368850381E+02 -0.11825692566E+02 -0.31943940036E+01  0.16049150786E+02  0.10500000000E+00 0.  1.
</event>
<event>
11    0  0.3483054E-009  0.9118800E+02  0.7816531E-02  0.1126479E+00
         25   -1    0    0    0    0  0.00000000000E+00  0.00000000000E+00  0.99999998245E-14  0.12500000000E+03  0.12500000000E+03 0.  0.
    3000001    1    3    3    0    0  0.48899962164E+01  0.40030805900E+02 -0.46201186242E+02  0.61334550575E+02  0.10000000000E+01 0.  1.
    1000022    2    1    0    0    0  0.39171913266E+01  0.40017494171E+02 -0.46792155675E+02  0.62499999266E+02  0.99999923986E+01 0.  0.
    3000022    2    3    3    0    0 -0.97280488982E+00 -0.13311729590E-01 -0.59096943287E+00  0.11654486915E+01  0.24999845223E+00 0.  0.
    1000022    2    1    0    0    0 -0.39171913266E+01 -0.40017494171E+02  0.46792155675E+02  0.62500000734E+02  0.10000001570E+02 0.  0.
    3000022    2    5    5    0    0 -0.55316231411E+01 -0.38739566496E+02  0.44529150352E+02  0.59281199354E+02  0.24999797604E+00 0.  0.
        -13    1    4    4    0    0 -0.28819892505E+00 -0.45185912944E-01 -0.15745720706E+00  0.34773288482E+00  0.10500000000E+00 0.  1.
         13    1    4    4    0    0 -0.68460596477E+00  0.31874183355E-01 -0.43351222581E+00  0.81771580667E+00  0.10500000000E+00 0. -1.
    3000001    1    5    5    0    0  0.16144318145E+01 -0.12779276750E+01  0.22630053235E+01  0.32188013795E+01  0.10000000000E+01 0. -1.
        -13    1    6    6    0    0 -0.28977705040E+01 -0.19880320067E+02  0.22809065598E+02  0.30395537474E+02  0.10500000000E+00 0. -1.
         13    1    6    6    0    0 -0.26338526371E+01 -0.18859246428E+02  0.21720084754E+02  0.28885661880E+02  0.10500000000E+00 0.  1.
</event>
<event>
11    0  0.3483054E-009  0.9118800E+02  0.7816531E-02  0.1126479E+00
         25   -1    0    0    0    0  0.00000000000E+00  0.00000000000E+00  0.99999998245E-14  0.12500000000E+03  0.12500000000E+03 0.  0.
    3000001    1    3    3    0    0  0.53362073554E+01  0.11990990546E+02  0.28530682460E+02  0.31420674799E+02  0.10000000000E+01 0. -1.
    1000022    2    1    0    0    0  0.12764845754E+02  0.31771010800E+02  0.51321647993E+02  0.62500000406E+02  0.10000004187E+02 0.  0.
    3000022    2    3    3    0    0  0.74286383987E+01  0.19780020254E+02  0.22790965533E+02  0.31079325607E+02  0.25000114116E+00 0.  0.
    1000022    2    1    0    0    0 -0.12764845754E+02 -0.31771010800E+02 -0.51321647993E+02  0.62499999594E+02  0.99999991080E+01 0.  0.
    3000022    2    5    5    0    0 -0.11769714405E+01  0.26101214517E+00 -0.54193077942E+00  0.13452041537E+01  0.24999226703E+00 0.  0.
        -13    1    4    4    0    0  0.25141313029E+01  0.67866217045E+01  0.78727741624E+01  0.10694423237E+02  0.10500000000E+00 0.  1.
         13    1    4    4    0    0  0.49145070958E+01  0.12993398549E+02  0.14918191370E+02  0.20384902370E+02  0.10500000000E+00 0. -1.
    3000001    1    5    5    0    0 -0.11587874314E+02 -0.32032022945E+02 -0.50779717213E+02  0.61154795440E+02  0.10000000000E+01 0. -1.
        -13    1    6    6    0    0 -0.72675263991E+00  0.98994152926E-01 -0.34303474976E+00  0.81649683494E+00  0.10500000000E+00 0. -1.
         13    1    6    6    0    0 -0.45021880062E+00  0.16201799225E+00 -0.19889602966E+00  0.52870731871E+00  0.10500000000E+00 0.  1.
</event>
<event>
11    0  0.3483054E-009  0.9118800E+02  0.7816531E-02  0.1126479E+00
         25   -1    0    0    0    0  0.00000000000E+00  0.00000000000E+00  0.99999998245E-14  0.12500000000E+03  0.12500000000E+03 0.  0.
    3000001    1    3    3    0    0  0.20744021242E+01  0.46154293918E+02 -0.29956167358E+02  0.55071716462E+02  0.10000000000E+01 0. -1.
    1000022    2    1    0    0    0  0.91502525182E+00  0.53435957785E+02 -0.30822249334E+02  0.62499998510E+02  0.99999952060E+01 0.  0.
    3000022    2    3    3    0    0 -0.11593768724E+01  0.72816638665E+01 -0.86608197582E+00  0.74282820478E+01  0.24998559244E+00 0.  0.
    1000022    2    1    0    0    0 -0.91502525182E+00 -0.53435957785E+02  0.30822249334E+02  0.62500001490E+02  0.10000013833E+02 0.  0.
    3000022    2    5    5    0    0 -0.68062854879E+00 -0.30176678956E+02  0.11706515686E+02  0.32375920320E+02  0.24999802473E+00 0.  0.
        -13    1    4    4    0    0 -0.65598407688E+00  0.43318719542E+01 -0.56906317732E+00  0.44193085021E+01  0.10500000000E+00 0.  1.
         13    1    4    4    0    0 -0.50339279549E+00  0.29497919123E+01 -0.29701879850E+00  0.30089735457E+01  0.10500000000E+00 0. -1.
    3000001    1    5    5    0    0 -0.23439670303E+00 -0.23259278829E+02  0.19115733648E+02  0.30124081170E+02  0.10000000000E+01 0. -1.
        -13    1    6    6    0    0 -0.16180305197E+00 -0.70870467971E+01  0.27342679013E+01  0.75986616248E+01  0.10500000000E+00 0.  1.
         13    1    6    6    0    0 -0.51882549682E+00 -0.23089632159E+02  0.89722477850E+01  0.24777258695E+02  0.10500000000E+00 0. -1.
</event>
<event>
11    0  0.3483054E-009  0.9118800E+02  0.7816531E-02  0.1126479E+00
         25   -1    0    0    0    0  0.00000000000E+00  0.00000000000E+00  0.99999998245E-14  0.12500000000E+03  0.12500000000E+03 0.  0.
    3000001    1    3    3    0    0  0.17895854094E+02  0.48223650127E+02  0.23781510916E+02  0.56677528940E+02  0.10000000000E+01 0.  1.
    1000022    2    1    0    0    0  0.18554371338E+02  0.53990038732E+02  0.23389345713E+02  0.62500003208E+02  0.99999965044E+01 0.  0.
    3000022    2    3    3    0    0  0.65851724458E+00  0.57663886047E+01 -0.39216520241E+00  0.58224742679E+01  0.25006109776E+00 0.  0.
    1000022    2    1    0    0    0 -0.18554371338E+02 -0.53990038732E+02 -0.23389345713E+02  0.62499996792E+02  0.99999564022E+01 0.  0.
    3000022    2    5    5    0    0 -0.17589473797E+02 -0.53468924142E+02 -0.23531498878E+02  0.61009092636E+02  0.25001481847E+00 0.  0.
        -13    1    4    4    0    0  0.31734507885E+00  0.33487658799E+01 -0.22148175194E+00  0.33726873534E+01  0.10500000000E+00 0. -1.
         13    1    4    4    0    0  0.34117216573E+00  0.24176227248E+01 -0.17068345047E+00  0.24497869145E+01  0.10500000000E+00 0.  1.
    3000001    1    5    5    0    0 -0.96489754099E+00 -0.52111458945E+00  0.14215316434E+00  0.14909041559E+01  0.10000000000E+01 0.  1.
        -13    1    6    6    0    0 -0.70120150940E+01 -0.21384197919E+02 -0.94724232241E+01  0.24417004383E+02  0.10500000000E+00 0. -1.
         13    1    6    6    0    0 -0.10577458703E+02 -0.32084726223E+02 -0.14059075653E+02  0.36592088252E+02  0.10500000000E+00 0.  1.
</event>
<event>
11    0  0.3483054E-009  0.9118800E+02  0.7816531E-02  0.1126479E+00
         25   -1    0    0    0    0  0.00000000000E+00  0.00000000000E+00  0.99999998245E-14  0.12500000000E+03  0.12500000000E+03 0.  0.
    3000001    1    3    3    0    0  0.13752862406E+01 -0.63175179300E+00 -0.43744429088E+01  0.47356386406E+01  0.10000000000E+01 0. -1.
    1000022    2    1    0    0    0 -0.94369082761E+01  0.86935801563E+01 -0.60345806922E+02  0.62500000080E+02  0.10000001154E+02 0.  0.
    3000022    2    3    3    0    0 -0.10812194517E+02  0.93253319493E+01 -0.55971364014E+02  0.57764361439E+02  0.24999335199E+00 0.  0.
    1000022    2    1    0    0    0  0.94369082761E+01 -0.86935801563E+01  0.60345806922E+02  0.62499999920E+02  0.10000000160E+02 0.  0.
    3000022    2    5    5    0    0  0.59310728358E+01 -0.59364117652E+01  0.54169904628E+02  0.54816600359E+02  0.24999574962E+00 0.  0.
        -13    1    4    4    0    0 -0.77909462355E+01  0.67580111014E+01 -0.40321790888E+02  0.41620036073E+02  0.10500000000E+00 0.  1.
         13    1    4    4    0    0 -0.30212482813E+01  0.25673208479E+01 -0.15649573126E+02  0.16144325366E+02  0.10500000000E+00 0. -1.
    3000001    1    5    5    0    0  0.35058354402E+01 -0.27571683911E+01  0.61759022942E+01  0.76833995613E+01  0.10000000000E+01 0. -1.
        -13    1    6    6    0    0  0.38693544165E+01 -0.38066723832E+01  0.34817280363E+02  0.35238000725E+02  0.10500000000E+00 0. -1.
         13    1    6    6    0    0  0.20617184193E+01 -0.21297393820E+01  0.19352624266E+02  0.19578599634E+02  0.10500000000E+00 0.  1.
</event>
<event>
11    0  0.3483054E-009  0.9118800E+02  0.7816531E-02  0.1126479E+00
         25   -1    0    0    0    0  0.00000000000E+00  0.00000000000E+00  0.99999998245E-14  0.12500000000E+03  0.12500000000E+03 0.  0.
    3000001    1    3    3    0    0 -0.24764566931E+02 -0.44690290813E+02 -0.79080675038E+01  0.51711153534E+02  0.10000000000E+01 0. -1.
    1000022    2    1    0    0    0 -0.29371803849E+02 -0.52474497477E+02 -0.13783117711E+02  0.62500000715E+02  0.10000000441E+02 0.  0.
    3000022    2    3    3    0    0 -0.46072369174E+01 -0.77842066640E+01 -0.58750502076E+01  0.10788847181E+02  0.25000629897E+00 0.  0.
    1000022    2    1    0    0    0  0.29371803849E+02  0.52474497477E+02  0.13783117711E+02  0.62499999285E+02  0.99999914987E+01 0.  0.
    3000022    2    5    5    0    0  0.27905437066E+02  0.45494494741E+02  0.97803865117E+01  0.54260307131E+02  0.25000005397E+00 0.  0.
        -13    1    4    4    0    0 -0.12726245743E+01 -0.21962136633E+01 -0.16110038222E+01  0.30082031310E+01  0.10500000000E+00 0.  1.
         13    1    4    4    0    0 -0.33346123430E+01 -0.55879930008E+01 -0.42640463854E+01  0.77806440499E+01  0.10500000000E+00 0. -1.
    3000001    1    5    5    0    0  0.14663667825E+01  0.69800027361E+01  0.40027311998E+01  0.82396921541E+01  0.10000000000E+01 0. -1.
        -13    1    6    6    0    0  0.17621214780E+02  0.28725138198E+02  0.61151558966E+01  0.34249772722E+02  0.10500000000E+00 0.  1.
         13    1    6    6    0    0  0.10284222286E+02  0.16769356543E+02  0.36652306151E+01  0.20010534409E+02  0.10500000000E+00 0. -1.
</event>
<event>
11    0  0.3483054E-009  0.9118800E+02  0.7816531E-02  0.1126479E+00
         25   -1    0    0    0    0  0.00000000000E+00  0.00000000000E+00  0.99999998245E-14  0.12500000000E+03  0.12500000000E+03 0.  0.
    3000001    1    3    3    0    0  0.15177860385E+02 -0.21279785531E+02  0.33756650814E+02  0.42704896585E+02  0.10000000000E+01 0.  1.
    1000022    2    1    0    0    0  0.21058872482E+02 -0.36310510635E+02  0.45214163698E+02  0.62499999602E+02  0.10000002928E+02 0.  0.
    3000022    2    3    3    0    0  0.58810120965E+01 -0.15030725104E+02  0.11457512884E+02  0.19795103017E+02  0.25000310940E+00 0.  0.
    1000022    2    1    0    0    0 -0.21058872482E+02  0.36310510635E+02 -0.45214163698E+02  0.62500000398E+02  0.10000007909E+02 0.  0.
    3000022    2    5    5    0    0 -0.13513698376E+02  0.25154224594E+02 -0.36832259984E+02  0.46605074152E+02  0.25000497713E+00 0.  0.
        -13    1    4    4    0    0  0.28180669682E+01 -0.72802059821E+01  0.56170780990E+01  0.96179775394E+01  0.10500000000E+00 0. -1.
         13    1    4    4    0    0  0.30629451283E+01 -0.77505191215E+01  0.58404347849E+01  0.10177125478E+02  0.10500000000E+00 0.  1.
    3000001    1    5    5    0    0 -0.75451741059E+01  0.11156286041E+02 -0.83819037141E+01  0.15894926247E+02  0.10000000000E+01 0.  1.
        -13    1    6    6    0    0 -0.58699391594E+01  0.10848608350E+02 -0.15999628276E+02  0.20202663657E+02  0.10500000000E+00 0. -1.
         13    1    6    6    0    0 -0.76437592164E+01  0.14305616243E+02 -0.20832631708E+02  0.26402410495E+02  0.10500000000E+00 0.  1.
</event>
<event>
11    0  0.3483054E-009  0.9118800E+02  0.7816531E-02  0.1126479E+00
         25   -1    0    0    0    0  0.00000000000E+00  0.00000000000E+00  0.99999998245E-14  0.12500000000E+03  0.12500000000E+03 0.  0.
    3000001    1    3    3    0    0 -0.11629046665E+01 -0.12358031387E+01 -0.13292859863E+01  0.23762487021E+01  0.10000000000E+01 0.  1.
    1000022    2    1    0    0    0 -0.58740384112E+02 -0.43097263508E+01 -0.18364188976E+02  0.62500000690E+02  0.10000009131E+02 0.  0.
    3000022    2    3    3    0    0 -0.57577479445E+02 -0.30739232121E+01 -0.17034902990E+02  0.60123751988E+02  0.24997998654E+00 0.  0.
    1000022    2    1    0    0    0  0.58740384112E+02  0.43097263508E+01  0.18364188976E+02  0.62499999310E+02  0.10000000510E+02 0.  0.
    3000022    2    5    5    0    0  0.55750997683E+01  0.61417075767E+00  0.50686187521E+01  0.75638838845E+01  0.25000043773E+00 0.  0.
        -13    1    4    4    0    0 -0.40820068451E+02 -0.21375741718E+01 -0.12088443983E+02  0.42626150596E+02  0.10500000000E+00 0. -1.
         13    1    4    4    0    0 -0.16757410994E+02 -0.93634904033E+00 -0.49464590069E+01  0.17497601392E+02  0.10500000000E+00 0.  1.
    3000001    1    5    5    0    0  0.53165284344E+02  0.36955555932E+01  0.13295570224E+02  0.54936115426E+02  0.10000000000E+01 0.  1.
        -13    1    6    6    0    0  0.22553385525E+01  0.19086989273E+00  0.20090262014E+01  0.30282329138E+01  0.10500000000E+00 0.  1.
         13    1    6    6    0    0  0.33197612157E+01  0.42330086494E+00  0.30595925507E+01  0.45356509707E+01  0.10500000000E+00 0. -1.
</event>
<event>
11    0  0.3483054E-009  0.9118800E+02  0.7816531E-02  0.1126479E+00
         25   -1    0    0    0    0  0.00000000000E+00  0.00000000000E+00  0.99999998245E-14  0.12500000000E+03  0.12500000000E+03 0.  0.
    3000001    1    3    3    0    0  0.76917140048E+00 -0.10753603848E+02  0.28724886296E+02  0.30697731399E+02  0.10000000000E+01 0. -1.
    1000022    2    1    0    0    0  0.20174159575E+01 -0.12035736078E+02  0.60475789482E+02  0.62500000677E+02  0.10000003051E+02 0.  0.
    3000022    2    3    3    0    0  0.12482445570E+01 -0.12821322301E+01  0.31750903187E+02  0.31802269278E+02  0.25000102811E+00 0.  0.
    1000022    2    1    0    0    0 -0.20174159575E+01  0.12035736078E+02 -0.60475789482E+02  0.62499999323E+02  0.99999945877E+01 0.  0.
    3000022    2    5    5    0    0 -0.19341943395E+01  0.11648423188E+02 -0.60255486101E+02  0.61402060029E+02  0.25000020615E+00 0.  0.
        -13    1    4    4    0    0  0.73729251341E+00 -0.69488005795E+00  0.18789813936E+02  0.18817401290E+02  0.10500000000E+00 0.  1.
         13    1    4    4    0    0  0.51095204358E+00 -0.58725217214E+00  0.12961089251E+02  0.12984867988E+02  0.10500000000E+00 0. -1.
    3000001    1    5    5    0    0 -0.83221617942E-01  0.38731288959E+00 -0.22030338170E+00  0.10979392935E+01  0.10000000000E+01 0.  1.
        -13    1    6    6    0    0 -0.98727057348E+00  0.60357601464E+01 -0.30865691301E+02  0.31465966189E+02  0.10500000000E+00 0.  1.
         13    1    6    6    0    0 -0.94692376605E+00  0.56126630419E+01 -0.29389794800E+02  0.29936093840E+02  0.10500000000E+00 0. -1.
</event>
<event>
11    0  0.3483054E-009  0.9118800E+02  0.7816531E-02  0.1126479E+00
         25   -1    0    0    0    0  0.00000000000E+00  0.00000000000E+00  0.99999998245E-14  0.12500000000E+03  0.12500000000E+03 0.  0.
    3000001    1    3    3    0    0  0.29937595022E+01 -0.91429464335E+01 -0.13228554613E+01  0.97624798087E+01  0.10000000000E+01 0.  1.
    1000022    2    1    0    0    0  0.32312722514E+02 -0.47328455253E+02 -0.22850718577E+02  0.62500000275E+02  0.99999990986E+01 0.  0.
    3000022    2    3    3    0    0  0.29318963011E+02 -0.38185508820E+02 -0.21527863116E+02  0.52737520466E+02  0.24999741360E+00 0.  0.
    1000022    2    1    0    0    0 -0.32312722514E+02  0.47328455253E+02  0.22850718577E+02  0.62499999725E+02  0.99999956605E+01 0.  0.
    3000022    2    5    5    0    0 -0.22371235409E+02  0.39795805308E+02  0.17548650465E+02  0.48910080398E+02  0.25007504629E+00 0.  0.
        -13    1    4    4    0    0  0.19711610555E+02 -0.25596574588E+02 -0.14473689540E+02  0.35401001896E+02  0.10500000000E+00 0. -1.
         13    1    4    4    0    0  0.96073524558E+01 -0.12588934232E+02 -0.70541735756E+01  0.17336518570E+02  0.10500000000E+00 0.  1.
    3000001    1    5    5    0    0 -0.99414871049E+01  0.75326499452E+01  0.53020681125E+01  0.13589919327E+02  0.10000000000E+01 0.  1.
        -13    1    6    6    0    0 -0.10741487965E+02  0.18978408648E+02  0.84078145109E+01  0.23372246969E+02  0.10500000000E+00 0.  1.
         13    1    6    6    0    0 -0.11629747444E+02  0.20817396660E+02  0.91408359540E+01  0.25537833429E+02  0.10500000000E+00 0. -1.
</event>
<event>
11    0  0.3483054E-009  0.9118800E+02  0.7816531E-02  0.1126479E+00
         25   -1    0    0    0    0  0.00000000000E+00  0.00000000000E+00  0.99999998245E-14  0.12500000000E+03  0.12500000000E+03 0.  0.
    3000001    1    3    3    0    0 -0.41179447551E+00  0.25807510296E+01 -0.35500420865E+00  0.28206166976E+01  0.10000000000E+01 0. -1.
    1000022    2    1    0    0    0  0.14883650252E+02  0.54529118760E+02  0.24724525357E+02  0.62500000424E+02  0.10000003063E+02 0.  0.
    3000022    2    3    3    0    0  0.15295444727E+02  0.51948367731E+02  0.25079529566E+02  0.59679383726E+02  0.24999883879E+00 0.  0.
    1000022    2    1    0    0    0 -0.14883650252E+02 -0.54529118760E+02 -0.24724525357E+02  0.62499999576E+02  0.99999977629E+01 0.  0.
    3000022    2    5    5    0    0 -0.11011312868E+01 -0.22333974183E+02 -0.99769314134E+01  0.24487150558E+02  0.24997814811E+00 0.  0.
        -13    1    4    4    0    0  0.85549544604E+01  0.28878809791E+02  0.13900618999E+02  0.33172445408E+02  0.10500000000E+00 0.  1.
         13    1    4    4    0    0  0.67404902669E+01  0.23069557939E+02  0.11178910567E+02  0.26506938319E+02  0.10500000000E+00 0. -1.
    3000001    1    5    5    0    0 -0.13782518965E+02 -0.32195144577E+02 -0.14747593944E+02  0.38012849018E+02  0.10000000000E+01 0. -1.
        -13    1    6    6    0    0 -0.50879389369E+00 -0.11637386598E+02 -0.52179193241E+01  0.12764221290E+02  0.10500000000E+00 0. -1.
         13    1    6    6    0    0 -0.59233739314E+00 -0.10696587585E+02 -0.47590120893E+01  0.11722929268E+02  0.10500000000E+00 0.  1.
</event>
<event>
11    0  0.3483054E-009  0.9118800E+02  0.7816531E-02  0.1126479E+00
         25   -1    0    0    0    0  0.00000000000E+00  0.00000000000E+00  0.99999998245E-14  0.12500000000E+03  0.12500000000E+03 0.  0.
    3000001    1    3    3    0    0 -0.40933630728E+01  0.23175506795E+02  0.75010843151E+01  0.24720962812E+02  0.10000000000E+01 0. -1.
    1000022    2    1    0    0    0 -0.21029419785E+02  0.53616235314E+02  0.22120422786E+02  0.62499998254E+02  0.99999745880E+01 0.  0.
    3000022    2    3    3    0    0 -0.16936056712E+02  0.30440728519E+02  0.14619338471E+02  0.37779035442E+02  0.24998372271E+00 0.  0.
    1000022    2    1    0    0    0  0.21029419785E+02 -0.53616235314E+02 -0.22120422786E+02  0.62500001746E+02  0.99999964176E+01 0.  0.
    3000022    2    5    5    0    0  0.16411190139E+02 -0.35294742639E+02 -0.10577565986E+02  0.40336006574E+02  0.25000886822E+00 0.  0.
        -13    1    4    4    0    0 -0.10084164198E+02  0.18033003286E+02  0.86217814354E+01  0.22388070823E+02  0.10500000000E+00 0. -1.
         13    1    4    4    0    0 -0.68518925145E+01  0.12407725233E+02  0.59975570356E+01  0.15390964618E+02  0.10500000000E+00 0.  1.
    3000001    1    5    5    0    0  0.46182296464E+01 -0.18321492675E+02 -0.11542856800E+02  0.22163995172E+02  0.10000000000E+01 0.  1.
        -13    1    6    6    0    0  0.61452216475E+01 -0.13355581782E+02 -0.40103558833E+01  0.15239071269E+02  0.10500000000E+00 0.  1.
         13    1    6    6    0    0  0.10265968491E+02 -0.21939160857E+02 -0.65672101031E+01  0.25096935305E+02  0.10500000000E+00 0. -1.
</event>
<event>
11    0  0.3483054E-009  0.9118800E+02  0.7816531E-02  0.1126479E+00
         25   -1    0    0    0    0  0.00000000000E+00  0.00000000000E+00  0.99999998245E-14  0.12500000000E+03  0.12500000000E+03 0.  0.
    3000001    1    3    3    0    0  0.33379036014E+01  0.15396132041E+02 -0.94434624807E+00  0.15813736817E+02  0.10000000000E+01 0.  1.
    1000022    2    1    0    0    0  0.71594200062E+01  0.58186253187E+02 -0.19218545093E+02  0.62500001373E+02  0.10000017071E+02 0.  0.
    3000022    2    3    3    0    0  0.38215164048E+01  0.42790121146E+02 -0.18274198845E+02  0.46686264557E+02  0.24999901711E+00 0.  0.
    1000022    2    1    0    0    0 -0.71594200062E+01 -0.58186253187E+02  0.19218545093E+02  0.62499998627E+02  0.99999999058E+01 0.  0.
    3000022    2    5    5    0    0  0.23850295689E+01 -0.87091801653E+01  0.37463457807E+01  0.97793553832E+01  0.24999961039E+00 0.  0.
        -13    1    4    4    0    0  0.11680935214E+01  0.13646591763E+02 -0.58246824355E+01  0.14883946375E+02  0.10500000000E+00 0.  1.
         13    1    4    4    0    0  0.26534228834E+01  0.29143529383E+02 -0.12449516409E+02  0.31802318181E+02  0.10500000000E+00 0. -1.
    3000001    1    5    5    0    0 -0.95444495751E+01 -0.49477073021E+02  0.15472199312E+02  0.52720643244E+02  0.10000000000E+01 0. -1.
        -13    1    6    6    0    0  0.15827971333E+01 -0.58456219034E+01  0.25659799642E+01  0.65781319825E+01  0.10500000000E+00 0. -1.
         13    1    6    6    0    0  0.80223243563E+00 -0.28635582619E+01  0.11803658166E+01  0.32012234007E+01  0.10500000000E+00 0.  1.
</event>
<event>
11    0  0.3483054E-009  0.9118800E+02  0.7816531E-02  0.1126479E+00
         25   -1    0    0    0    0  0.00000000000E+00  0.00000000000E+00  0.99999998245E-14  0.12500000000E+03  0.12500000000E+03 0.  0.
    3000001    1    3    3    0    0  0.12842012343E+02 -0.94631777279E+00 -0.62282814504E+01  0.14338908193E+02  0.10000000000E+01 0. -1.
    1000022    2    1    0    0    0  0.60631027681E+02  0.24427485718E+01 -0.11142787279E+02  0.62499998509E+02  0.99999783485E+01 0.  0.
    3000022    2    3    3    0    0  0.47789015338E+02  0.33890663446E+01 -0.49145058284E+01  0.48161090315E+02  0.24999031960E+00 0.  0.
    1000022    2    1    0    0    0 -0.60631027681E+02 -0.24427485718E+01  0.11142787279E+02  0.62500001491E+02  0.99999969913E+01 0.  0.
    3000022    2    5    5    0    0 -0.72903672091E+01 -0.35620650012E+01  0.94753505859E+00  0.81730091515E+01  0.24998957415E+00 0.  0.
        -13    1    4    4    0    0  0.26280060068E+02  0.17969780025E+01 -0.26984898256E+01  0.26479493187E+02  0.10500000000E+00 0. -1.
         13    1    4    4    0    0  0.21508955270E+02  0.15920883421E+01 -0.22160160028E+01  0.21681597128E+02  0.10500000000E+00 0.  1.
    3000001    1    5    5    0    0 -0.53340660472E+02  0.11193164294E+01  0.10195252220E+02  0.54326992340E+02  0.10000000000E+01 0. -1.
        -13    1    6    6    0    0 -0.22593705085E+01 -0.10509379883E+01  0.28834975412E+00  0.25106565537E+01  0.10500000000E+00 0.  1.
         13    1    6    6    0    0 -0.50309967006E+01 -0.25111270129E+01  0.65918530448E+00  0.56623525978E+01  0.10500000000E+00 0. -1.
</event>
<event>
11    0  0.3483054E-009  0.9118800E+02  0.7816531E-02  0.1126479E+00
         25   -1    0    0    0    0  0.00000000000E+00  0.00000000000E+00  0.99999998245E-14  0.12500000000E+03  0.12500000000E+03 0.  0.
    3000001    1    3    3    0    0  0.66263010905E+01 -0.71630648724E+01  0.31606084611E+02  0.33093231165E+02  0.10000000000E+01 0.  1.
    1000022    2    1    0    0    0  0.83406996083E+01 -0.52709857857E+01  0.60900733717E+02  0.62500000564E+02  0.10000007108E+02 0.  0.
    3000022    2    3    3    0    0  0.17143985178E+01  0.18920790867E+01  0.29294649106E+02  0.29406769399E+02  0.24998942079E+00 0.  0.
    1000022    2    1    0    0    0 -0.83406996083E+01  0.52709857857E+01 -0.60900733717E+02  0.62499999436E+02  0.10000000059E+02 0.  0.
    3000022    2    5    5    0    0 -0.44416755595E+01  0.30226387616E+00 -0.75575333553E+01  0.87748878891E+01  0.25000364578E+00 0.  0.
        -13    1    4    4    0    0  0.88523325868E+00  0.10734892303E+01  0.15743624419E+02  0.15805339347E+02  0.10500000000E+00 0. -1.
         13    1    4    4    0    0  0.82916525913E+00  0.81858985642E+00  0.13551024687E+02  0.13601430052E+02  0.10500000000E+00 0.  1.
    3000001    1    5    5    0    0 -0.38990240487E+01  0.49687219095E+01 -0.53343200361E+02  0.53725111547E+02  0.10000000000E+01 0. -1.
        -13    1    6    6    0    0 -0.12489530413E+01  0.55309938419E-01 -0.20737906039E+01  0.24237523301E+01  0.10500000000E+00 0. -1.
         13    1    6    6    0    0 -0.31927225182E+01  0.24695393774E+00 -0.54837427513E+01  0.63511355590E+01  0.10500000000E+00 0.  1.
</event>
<event>
11    0  0.3483054E-009  0.9118800E+02  0.7816531E-02  0.1126479E+00
         25   -1    0    0    0    0  0.00000000000E+00  0.00000000000E+00  0.99999998245E-14  0.12500000000E+03  0.12500000000E+03 0.  0.
    3000001    1    3    3    0    0 -0.41328909507E+02  0.19608088854E+02  0.17376262212E+02  0.48943747282E+02  0.10000000000E+01 0. -1.
    1000022    2    1    0    0    0 -0.49490600771E+02  0.25950660683E+02  0.26143707729E+02  0.62500001146E+02  0.10000016741E+02 0.  0.
    3000022    2    3    3    0    0 -0.81616912641E+01  0.63425718289E+01  0.87674455177E+01  0.13556253864E+02  0.24999244500E+00 0.  0.
    1000022    2    1    0    0    0  0.49490600771E+02 -0.25950660683E+02 -0.26143707729E+02  0.62499998854E+02  0.10000002420E+02 0.  0.
    3000022    2    5    5    0    0  0.17112277008E+02 -0.38660087849E+01 -0.88190348135E+01  0.19637054592E+02  0.24997940855E+00 0.  0.
        -13    1    4    4    0    0 -0.35007530906E+01  0.26420073955E+01  0.37463645370E+01  0.57690334999E+01  0.10500000000E+00 0.  1.
         13    1    4    4    0    0 -0.46609381735E+01  0.37005644334E+01  0.50210809807E+01  0.77872203640E+01  0.10500000000E+00 0. -1.
    3000001    1    5    5    0    0  0.32378323764E+02 -0.22084651898E+02 -0.17324672916E+02  0.42862944262E+02  0.10000000000E+01 0. -1.
        -13    1    6    6    0    0  0.79411388139E+01 -0.17364285591E+01 -0.41274181570E+01  0.91172076561E+01  0.10500000000E+00 0.  1.
         13    1    6    6    0    0  0.91711381937E+01 -0.21295802259E+01 -0.46916166565E+01  0.10519846936E+02  0.10500000000E+00 0. -1.
</event>
<event>
11    0  0.3483054E-009  0.9118800E+02  0.7816531E-02  0.1126479E+00
         25   -1    0    0    0    0  0.00000000000E+00  0.00000000000E+00  0.99999998245E-14  0.12500000000E+03  0.12500000000E+03 0.  0.
    3000001    1    3    3    0    0 -0.23136144591E+02 -0.46221439744E+02  0.29771075125E+02  0.59657519163E+02  0.10000000000E+01 0.  1.
    1000022    2    1    0    0    0 -0.23894171741E+02 -0.48867704383E+02  0.29107836783E+02  0.62500001031E+02  0.99999995909E+01 0.  0.
    3000022    2    3    3    0    0 -0.75802714926E+00 -0.26462646387E+01 -0.66323834260E+00  0.28424818674E+01  0.24999274062E+00 0.  0.
    1000022    2    1    0    0    0  0.23894171741E+02  0.48867704383E+02 -0.29107836783E+02  0.62499998969E+02  0.99999867092E+01 0.  0.
    3000022    2    5    5    0    0  0.20646870822E+02  0.44554104475E+02 -0.22812678587E+02  0.54146489280E+02  0.24999352022E+00 0.  0.
        -13    1    4    4    0    0 -0.20144655522E+00 -0.69340513211E+00 -0.14131515970E+00  0.74322699507E+00  0.10500000000E+00 0.  1.
         13    1    4    4    0    0 -0.55658059404E+00 -0.19528595066E+01 -0.52192318290E+00  0.20992548723E+01  0.10500000000E+00 0. -1.
    3000001    1    5    5    0    0  0.32473009188E+01  0.43135999081E+01 -0.62951581951E+01  0.83535096891E+01  0.10000000000E+01 0.  1.
        -13    1    6    6    0    0  0.70212156975E+01  0.15161330865E+02 -0.78223604815E+01  0.18448950430E+02  0.10500000000E+00 0.  1.
         13    1    6    6    0    0  0.13625655124E+02  0.29392773610E+02 -0.14990318106E+02  0.35697538850E+02  0.10500000000E+00 0. -1.
</event>
<event>
11    0  0.3483054E-009  0.9118800E+02  0.7816531E-02  0.1126479E+00
         25   -1    0    0    0    0  0.00000000000E+00  0.00000000000E+00  0.99999998245E-14  0.12500000000E+03  0.12500000000E+03 0.  0.
    3000001    1    3    3    0    0  0.47928767632E+02  0.20336361273E+02 -0.20562755580E+02  0.55987152755E+02  0.10000000000E+01 0. -1.
    1000022    2    1    0    0    0  0.52361144625E+02  0.25092787006E+02 -0.20854562305E+02  0.62500001566E+02  0.10000000032E+02 0.  0.
    3000022    2    3    3    0    0  0.44323769926E+01  0.47564257325E+01 -0.29180672574E+00  0.65128488108E+01  0.24999382917E+00 0.  0.
    1000022    2    1    0    0    0 -0.52361144625E+02 -0.25092787006E+02  0.20854562305E+02  0.62499998434E+02  0.99999804630E+01 0.  0.
    3000022    2    5    5    0    0 -0.39877862196E+02 -0.14876620208E+02  0.17344814056E+02  0.45961536082E+02  0.25000440364E+00 0.  0.
        -13    1    4    4    0    0  0.30976079324E+01  0.32602023789E+01 -0.22203526843E+00  0.45038227224E+01  0.10500000000E+00 0. -1.
         13    1    4    4    0    0  0.13347690602E+01  0.14962233535E+01 -0.69771457310E-01  0.20090260884E+01  0.10500000000E+00 0.  1.
    3000001    1    5    5    0    0 -0.12483282428E+02 -0.10216166797E+02  0.35097482492E+01  0.16538462352E+02  0.10000000000E+01 0.  1.
        -13    1    6    6    0    0 -0.23334835369E+02 -0.87711068056E+01  0.10178251119E+02  0.26926839346E+02  0.10500000000E+00 0. -1.
         13    1    6    6    0    0 -0.16543026827E+02 -0.61055134028E+01  0.71665629371E+01  0.19034696736E+02  0.10500000000E+00 0.  1.
</event>
<event>
11    0  0.3483054E-009  0.9118800E+02  0.7816531E-02  0.1126479E+00
         25   -1    0    0    0    0  0.00000000000E+00  0.00000000000E+00  0.99999998245E-14  0.12500000000E+03  0.12500000000E+03 0.  0.
    3000001    1    3    3    0    0  0.10787051376E+00  0.35519726046E+01 -0.22817717487E+02  0.23114419239E+02  0.10000000000E+01 0.  1.
    1000022    2    1    0    0    0 -0.48636002893E+01 -0.21849309618E+01 -0.61463984841E+02  0.62500001151E+02  0.10000009012E+02 0.  0.
    3000022    2    3    3    0    0 -0.49714708030E+01 -0.57369035664E+01 -0.38646267355E+02  0.39385581913E+02  0.24999535742E+00 0.  0.
    1000022    2    1    0    0    0  0.48636002893E+01  0.21849309618E+01  0.61463984841E+02  0.62499998849E+02  0.99999946206E+01 0.  0.
    3000022    2    5    5    0    0  0.43375802868E+01  0.74037311653E+00  0.91733213512E+01  0.10177184201E+02  0.24999710226E+00 0.  0.
        -13    1    4    4    0    0 -0.18827421787E+01 -0.21070598391E+01 -0.14172764355E+02  0.14452082679E+02  0.10500000000E+00 0.  1.
         13    1    4    4    0    0 -0.30887286243E+01 -0.36298437273E+01 -0.24473502999E+02  0.24933499234E+02  0.10500000000E+00 0. -1.
    3000001    1    5    5    0    0  0.52602000247E+00  0.14445578453E+01  0.52290663490E+02  0.52322814648E+02  0.10000000000E+01 0. -1.
        -13    1    6    6    0    0  0.20727527134E+01  0.42241250426E+00  0.44062413159E+01  0.48888366376E+01  0.10500000000E+00 0. -1.
         13    1    6    6    0    0  0.22648275734E+01  0.31796061227E+00  0.47670800353E+01  0.52883475633E+01  0.10500000000E+00 0.  1.
</event>
<event>
11    0  0.3483054E-009  0.9118800E+02  0.7816531E-02  0.1126479E+00
         25   -1    0    0    0    0  0.00000000000E+00  0.00000000000E+00  0.99999998245E-14  0.12500000000E+03  0.12500000000E+03 0.  0.
    3000001    1    3    3    0    0  0.12380831494E+02 -0.10698863072E+02 -0.29768185725E+02  0.33983754073E+02  0.10000000000E+01 0. -1.
    1000022    2    1    0    0    0  0.19245463620E+02 -0.11760323961E+02 -0.57424359477E+02  0.62500000666E+02  0.99999966166E+01 0.  0.
    3000022    2    3    3    0    0  0.68646321261E+01 -0.10614608884E+01 -0.27656173752E+02  0.28516246594E+02  0.24999947691E+00 0.  0.
    1000022    2    1    0    0    0 -0.19245463620E+02  0.11760323961E+02  0.57424359477E+02  0.62499999334E+02  0.99999882884E+01 0.  0.
    3000022    2    5    5    0    0 -0.34363372636E+01 -0.16684219494E+01  0.72696398233E+01  0.82159722502E+01  0.24998252927E+00 0.  0.
        -13    1    4    4    0    0  0.39962222801E+01 -0.60569244595E+00 -0.16350191970E+02  0.16842697477E+02  0.10500000000E+00 0. -1.
         13    1    4    4    0    0  0.28684098460E+01 -0.45576844249E+00 -0.11305981782E+02  0.11673549116E+02  0.10500000000E+00 0.  1.
    3000001    1    5    5    0    0 -0.15809126356E+02  0.13428745910E+02  0.50154719654E+02  0.54284027084E+02  0.10000000000E+01 0.  1.
        -13    1    6    6    0    0 -0.11897281993E+01 -0.56583584253E+00  0.23945809668E+01  0.27350806927E+01  0.10500000000E+00 0.  1.
         13    1    6    6    0    0 -0.22466090642E+01 -0.11025861068E+01  0.48750588565E+01  0.54808915574E+01  0.10500000000E+00 0. -1.
</event>
<event>
11    0  0.3483054E-009  0.9118800E+02  0.7816531E-02  0.1126479E+00
         25   -1    0    0    0    0  0.00000000000E+00  0.00000000000E+00  0.99999998245E-14  0.12500000000E+03  0.12500000000E+03 0.  0.
    3000001    1    3    3    0    0 -0.40745887347E+02  0.62620036287E+01 -0.31081267307E+02  0.51638020901E+02  0.10000000000E+01 0. -1.
    1000022    2    1    0    0    0 -0.48386936261E+02  0.31560303714E+01 -0.38144374564E+02  0.62500004263E+02  0.10000054677E+02 0.  0.
    3000022    2    3    3    0    0 -0.76410489137E+01 -0.31059732573E+01 -0.70631072573E+01  0.10861983362E+02  0.25000010024E+00 0.  0.
    1000022    2    1    0    0    0  0.48386936261E+02 -0.31560303714E+01  0.38144374564E+02  0.62499995737E+02  0.10000001391E+02 0.  0.
    3000022    2    5    5    0    0  0.41694469016E+02 -0.47912821175E+01  0.35769834961E+02  0.55144616451E+02  0.24999931936E+00 0.  0.
        -13    1    4    4    0    0 -0.45163513024E+01 -0.18371391174E+01 -0.42586602067E+01  0.64745440750E+01  0.10500000000E+00 0.  1.
         13    1    4    4    0    0 -0.31246976113E+01 -0.12688341399E+01 -0.28044470507E+01  0.43874392869E+01  0.10500000000E+00 0. -1.
    3000001    1    5    5    0    0  0.66924672457E+01  0.16352517461E+01  0.23745396034E+01  0.73553792856E+01  0.10000000000E+01 0.  1.
        -13    1    6    6    0    0  0.11134167335E+02 -0.12816522757E+01  0.95069644901E+01  0.14697132837E+02  0.10500000000E+00 0.  1.
         13    1    6    6    0    0  0.30560301680E+02 -0.35096298418E+01  0.26262870470E+02  0.40447483615E+02  0.10500000000E+00 0. -1.
</event>
<event>
11    0  0.3483054E-009  0.9118800E+02  0.7816531E-02  0.1126479E+00
         25   -1    0    0    0    0  0.00000000000E+00  0.00000000000E+00  0.99999998245E-14  0.12500000000E+03  0.12500000000E+03 0.  0.
    3000001    1    3    3    0    0 -0.70450891592E+01  0.13822481738E+02  0.23956191419E+02  0.28558595728E+02  0.10000000000E+01 0.  1.
    1000022    2    1    0    0    0 -0.24924591853E+02  0.30673726352E+02  0.47372326236E+02  0.62500000084E+02  0.99999975036E+01 0.  0.
    3000022    2    3    3    0    0 -0.17879502694E+02  0.16851244614E+02  0.23416134817E+02  0.33941404356E+02  0.24999646298E+00 0.  0.
    1000022    2    1    0    0    0  0.24924591853E+02 -0.30673726352E+02 -0.47372326236E+02  0.62499999916E+02  0.99999964585E+01 0.  0.
    3000022    2    5    5    0    0  0.39018670671E+01 -0.70070083690E+01 -0.45055773784E+01  0.92024703757E+01  0.25000122000E+00 0.  0.
        -13    1    4    4    0    0 -0.90277358374E+01  0.84854501635E+01  0.11898940782E+02  0.17178436936E+02  0.10500000000E+00 0. -1.
         13    1    4    4    0    0 -0.88517668567E+01  0.83657944505E+01  0.11517194036E+02  0.16762967420E+02  0.10500000000E+00 0.  1.
    3000001    1    5    5    0    0  0.21022724786E+02 -0.23666717983E+02 -0.42866748857E+02  0.53297529541E+02  0.10000000000E+01 0.  1.
        -13    1    6    6    0    0  0.14857479860E+01 -0.26566330508E+01 -0.16411087784E+01  0.34596834056E+01  0.10500000000E+00 0.  1.
         13    1    6    6    0    0  0.24161190811E+01 -0.43503753183E+01 -0.28644686000E+01  0.57427869701E+01  0.10500000000E+00 0. -1.
</event>
<event>
11    0  0.3483054E-009  0.9118800E+02  0.7816531E-02  0.1126479E+00
         25   -1    0    0    0    0  0.00000000000E+00  0.00000000000E+00  0.99999998245E-14  0.12500000000E+03  0.12500000000E+03 0.  0.
    3000001    1    3    3    0    0 -0.12062108260E+02  0.30171593141E+02  0.14111384809E+02  0.35439394317E+02  0.10000000000E+01 0.  1.
    1000022    2    1    0    0    0 -0.28626651700E+02  0.50298403118E+02  0.21373709196E+02  0.62500000956E+02  0.10000006542E+02 0.  0.
    3000022    2    3    3    0    0 -0.16564543440E+02  0.20126809977E+02  0.72623243879E+01  0.27060606639E+02  0.24999379420E+00 0.  0.
    1000022    2    1    0    0    0  0.28626651700E+02 -0.50298403118E+02 -0.21373709196E+02  0.62499999044E+02  0.99999945976E+01 0.  0.
    3000022    2    5    5    0    0  0.21002830471E+02 -0.27487992610E+02 -0.11144238282E+02  0.36345084537E+02  0.24999523988E+00 0.  0.
        -13    1    4    4    0    0 -0.72801611989E+01  0.88059894617E+01  0.31199601426E+01  0.11844465956E+02  0.10500000000E+00 0.  1.
         13    1    4    4    0    0 -0.92843822411E+01  0.11320820515E+02  0.41423642454E+01  0.15216140683E+02  0.10500000000E+00 0. -1.
    3000001    1    5    5    0    0  0.76238212290E+01 -0.22810410509E+02 -0.10229470915E+02  0.26154914508E+02  0.10000000000E+01 0. -1.
        -13    1    6    6    0    0  0.52088074607E+01 -0.68481935556E+01 -0.27900639921E+01  0.90457123665E+01  0.10500000000E+00 0. -1.
         13    1    6    6    0    0  0.15794023010E+02 -0.20639799054E+02 -0.83541742895E+01  0.27299372170E+02  0.10500000000E+00 0.  1.
</event>
<event>
11    0  0.3483054E-009  0.9118800E+02  0.7816531E-02  0.1126479E+00
         25   -1    0    0    0    0  0.00000000000E+00  0.00000000000E+00  0.99999998245E-14  0.12500000000E+03  0.12500000000E+03 0.  0.
    3000001    1    3    3    0    0  0.28650996091E+01 -0.18739514791E+01  0.20658401926E+01  0.41216726723E+01  0.10000000000E+01 0. -1.
    1000022    2    1    0    0    0  0.57155929202E+02  0.23274189009E+01  0.23109150416E+02  0.62499999959E+02  0.10000002016E+02 0.  0.
    3000022    2    3    3    0    0  0.54290829592E+02  0.42013703800E+01  0.21043310224E+02  0.58378327287E+02  0.25000150203E+00 0.  0.
    1000022    2    1    0    0    0 -0.57155929202E+02 -0.23274189009E+01 -0.23109150416E+02  0.62500000041E+02  0.10000002525E+02 0.  0.
    3000022    2    5    5    0    0 -0.43791020011E+02 -0.46138655286E+01 -0.14292265750E+02  0.46295491684E+02  0.25000262466E+00 0.  0.
        -13    1    4    4    0    0  0.15363879471E+02  0.12133744371E+01  0.59209280482E+01  0.16510284185E+02  0.10500000000E+00 0.  1.
         13    1    4    4    0    0  0.38926950121E+02  0.29879959429E+01  0.15122382175E+02  0.41868043102E+02  0.10500000000E+00 0. -1.
    3000001    1    5    5    0    0 -0.13364909191E+02  0.22864466277E+01 -0.88168846664E+01  0.16204508357E+02  0.10000000000E+01 0.  1.
        -13    1    6    6    0    0 -0.33254339450E+02 -0.35234606681E+01 -0.10856880459E+02  0.35158907060E+02  0.10500000000E+00 0. -1.
         13    1    6    6    0    0 -0.10536680561E+02 -0.10904048605E+01 -0.34353852905E+01  0.11136584625E+02  0.10500000000E+00 0.  1.
</event>
<event>
11    0  0.3483054E-009  0.9118800E+02  0.7816531E-02  0.1126479E+00
         25   -1    0    0    0    0  0.00000000000E+00  0.00000000000E+00  0.99999998245E-14  0.12500000000E+03  0.12500000000E+03 0.  0.
    3000001    1    3    3    0    0  0.23019362897E+02  0.17024451112E+02  0.30730606504E+02  0.42013012031E+02  0.10000000000E+01 0.  1.
    1000022    2    1    0    0    0  0.33303347138E+02  0.18987311624E+02  0.48338588660E+02  0.62500000536E+02  0.99999990041E+01 0.  0.
    3000022    2    3    3    0    0  0.10283984241E+02  0.19628605126E+01  0.17607982156E+02  0.20486988505E+02  0.25001827067E+00 0.  0.
    1000022    2    1    0    0    0 -0.33303347138E+02 -0.18987311624E+02 -0.48338588660E+02  0.62499999464E+02  0.99999922984E+01 0.  0.
    3000022    2    5    5    0    0 -0.17291247789E+02 -0.10310121714E+02 -0.33054183156E+02  0.38703066848E+02  0.24999890036E+00 0.  0.
        -13    1    4    4    0    0  0.53977872864E+01  0.97569146276E+00  0.91439908520E+01  0.10663567654E+02  0.10500000000E+00 0.  1.
         13    1    4    4    0    0  0.48861969547E+01  0.98716904981E+00  0.84639913040E+01  0.98234208505E+01  0.10500000000E+00 0. -1.
    3000001    1    5    5    0    0 -0.16012099349E+02 -0.86771899106E+01 -0.15284405504E+02  0.23796932616E+02  0.10000000000E+01 0.  1.
        -13    1    6    6    0    0 -0.82073511682E+01 -0.49696194144E+01 -0.15787465659E+02  0.18474653643E+02  0.10500000000E+00 0. -1.
         13    1    6    6    0    0 -0.90838966210E+01 -0.53405022994E+01 -0.17266717497E+02  0.20228413204E+02  0.10500000000E+00 0.  1.
</event>
<event>
11    0  0.3483054E-009  0.9118800E+02  0.7816531E-02  0.1126479E+00
         25   -1    0    0    0    0  0.00000000000E+00  0.00000000000E+00  0.99999998245E-14  0.12500000000E+03  0.12500000000E+03 0.  0.
    3000001    1    3    3    0    0  0.15626822644E+02 -0.50943848862E+02 -0.29813745617E+02  0.61068263039E+02  0.10000000000E+01 0. -1.
    1000022    2    1    0    0    0  0.16230524525E+02 -0.50765680076E+02 -0.31075163048E+02  0.62499999227E+02  0.99999972501E+01 0.  0.
    3000022    2    3    3    0    0  0.60370188090E+00  0.17816878586E+00 -0.12614174306E+01  0.14317361886E+01  0.24998900423E+00 0.  0.
    1000022    2    1    0    0    0 -0.16230524525E+02  0.50765680076E+02  0.31075163048E+02  0.62500000773E+02  0.10000006910E+02 0.  0.
    3000022    2    5    5    0    0  0.34633073525E+00  0.62520190368E+01  0.64263138012E+01  0.89759508640E+01  0.24999565634E+00 0.  0.
        -13    1    4    4    0    0  0.41859596932E+00  0.11850940919E+00 -0.73107728379E+00  0.85718496281E+00  0.10500000000E+00 0. -1.
         13    1    4    4    0    0  0.18510591159E+00  0.59659376672E-01 -0.53034014678E+00  0.57455122575E+00  0.10500000000E+00 0.  1.
    3000001    1    5    5    0    0 -0.16576855260E+02  0.44513661040E+02  0.24648849247E+02  0.53524049909E+02  0.10000000000E+01 0. -1.
        -13    1    6    6    0    0  0.24413378996E+00  0.31818741126E+01  0.32757839857E+01  0.45744627987E+01  0.10500000000E+00 0.  1.
         13    1    6    6    0    0  0.10219694529E+00  0.30701449242E+01  0.31505298155E+01  0.44014880653E+01  0.10500000000E+00 0. -1.
</event>
<event>
11    0  0.3483054E-009  0.9118800E+02  0.7816531E-02  0.1126479E+00
         25   -1    0    0    0    0  0.00000000000E+00  0.00000000000E+00  0.99999998245E-14  0.12500000000E+03  0.12500000000E+03 0.  0.
    3000001    1    3    3    0    0  0.22862855471E+02 -0.40212728622E+02  0.75228710822E+01  0.46876084445E+02  0.10000000000E+01 0. -1.
    1000022    2    1    0    0    0  0.25139807693E+02 -0.55180571446E+02  0.11372982669E+02  0.62499998486E+02  0.99999840006E+01 0.  0.
    3000022    2    3    3    0    0  0.22769522216E+01 -0.14967842823E+02  0.38501115869E+01  0.15623914041E+02  0.25000104416E+00 0.  0.
    1000022    2    1    0    0    0 -0.25139807693E+02  0.55180571446E+02 -0.11372982669E+02  0.62500001514E+02  0.10000002928E+02 0.  0.
    3000022    2    5    5    0    0 -0.30574522506E+01  0.16531789763E+02 -0.13936580918E+01  0.16871658716E+02  0.24999587347E+00 0.  0.
        -13    1    4    4    0    0  0.13548623974E+01 -0.85275166427E+01  0.21622687081E+01  0.89017202368E+01  0.10500000000E+00 0. -1.
         13    1    4    4    0    0  0.92208982419E+00 -0.64403261807E+01  0.16878428788E+01  0.67221938042E+01  0.10500000000E+00 0.  1.
    3000001    1    5    5    0    0 -0.22082355443E+02  0.38648781683E+02 -0.99793245773E+01  0.45628342798E+02  0.10000000000E+01 0.  1.
        -13    1    6    6    0    0 -0.12309395351E+01  0.65046627418E+01 -0.49258604161E+00  0.66392405840E+01  0.10500000000E+00 0.  1.
         13    1    6    6    0    0 -0.18265127154E+01  0.10027127021E+02 -0.90107205020E+00  0.10232418132E+02  0.10500000000E+00 0. -1.
</event>
<event>
11    0  0.3483054E-009  0.9118800E+02  0.7816531E-02  0.1126479E+00
         25   -1    0    0    0    0  0.00000000000E+00  0.00000000000E+00  0.99999998245E-14  0.12500000000E+03  0.12500000000E+03 0.  0.
    3000001    1    3    3    0    0  0.55918978368E+01  0.25822797533E+01  0.30238172891E+00  0.62473134107E+01  0.10000000000E+01 0.  1.
    1000022    2    1    0    0    0  0.57597542035E+02  0.43981829344E+01  0.21666315000E+02  0.62499999320E+02  0.99999923830E+01 0.  0.
    3000022    2    3    3    0    0  0.52005644198E+02  0.18159031811E+01  0.21363933271E+02  0.56252685909E+02  0.24998861487E+00 0.  0.
    1000022    2    1    0    0    0 -0.57597542035E+02 -0.43981829344E+01 -0.21666315000E+02  0.62500000680E+02  0.10000000886E+02 0.  0.
    3000022    2    5    5    0    0 -0.32739800701E+01  0.13846682549E+01 -0.32981581985E+01  0.48555739180E+01  0.24999778999E+00 0.  0.
        -13    1    4    4    0    0  0.20946744821E+02  0.73311163128E+00  0.86734117967E+01  0.22683532980E+02  0.10500000000E+00 0.  1.
         13    1    4    4    0    0  0.31058899377E+02  0.10827915498E+01  0.12690521474E+02  0.33569152929E+02  0.10500000000E+00 0. -1.
    3000001    1    5    5    0    0 -0.54323561965E+02 -0.57828511893E+01 -0.18368156802E+02  0.57644426762E+02  0.10000000000E+01 0.  1.
        -13    1    6    6    0    0 -0.97768081713E+00  0.46179837137E+00 -0.98492095463E+00  0.14663600523E+01  0.10500000000E+00 0. -1.
         13    1    6    6    0    0 -0.22962992530E+01  0.92286988348E+00 -0.23132372439E+01  0.33892138657E+01  0.10500000000E+00 0.  1.
</event>
<event>
11    0  0.3483054E-009  0.9118800E+02  0.7816531E-02  0.1126479E+00
         25   -1    0    0    0    0  0.00000000000E+00  0.00000000000E+00  0.99999998245E-14  0.12500000000E+03  0.12500000000E+03 0.  0.
    3000001    1    3    3    0    0 -0.41843382773E+01  0.17597492762E+02  0.14970098654E+02  0.23500729607E+02  0.10000000000E+01 0.  1.
    1000022    2    1    0    0    0 -0.26045785295E+01  0.52493615052E+02  0.32309231934E+02  0.62499999266E+02  0.99999994785E+01 0.  0.
    3000022    2    3    3    0    0  0.15797597478E+01  0.34896122290E+02  0.17339133279E+02  0.38999269659E+02  0.24999869414E+00 0.  0.
    1000022    2    1    0    0    0  0.26045785295E+01 -0.52493615052E+02 -0.32309231934E+02  0.62500000734E+02  0.10000008649E+02 0.  0.
    3000022    2    5    5    0    0  0.58794783565E+01 -0.41580080584E+02 -0.26667000789E+02  0.49745982710E+02  0.24999510151E+00 0.  0.
        -13    1    4    4    0    0  0.79484564009E+00  0.18064815050E+02  0.89043998345E+01  0.20156107853E+02  0.10500000000E+00 0. -1.
         13    1    4    4    0    0  0.78491410770E+00  0.16831307240E+02  0.84347334446E+01  0.18843161806E+02  0.10500000000E+00 0.  1.
    3000001    1    5    5    0    0 -0.32748998270E+01 -0.10913534468E+02 -0.56422311448E+01  0.12754018024E+02  0.10000000000E+01 0.  1.
        -13    1    6    6    0    0  0.20688810233E+01 -0.14236802225E+02 -0.91349438091E+01  0.17041861098E+02  0.10500000000E+00 0.  1.
         13    1    6    6    0    0  0.38105973331E+01 -0.27343278359E+02 -0.17532056980E+02  0.32704121612E+02  0.10500000000E+00 0. -1.
</event>
<event>
11    0  0.3483054E-009  0.9118800E+02  0.7816531E-02  0.1126479E+00
         25   -1    0    0    0    0  0.00000000000E+00  0.00000000000E+00  0.99999998245E-14  0.12500000000E+03  0.12500000000E+03 0.  0.
    3000001    1    3    3    0    0 -0.19520682209E+02 -0.75507448484E+01 -0.38852386785E+02  0.44142708805E+02  0.10000000000E+01 0.  1.
    1000022    2    1    0    0    0 -0.32677214720E+02 -0.11241256763E+02 -0.51108547489E+02  0.62500001605E+02  0.10000017938E+02 0.  0.
    3000022    2    3    3    0    0 -0.13156532511E+02 -0.36905119147E+01 -0.12256160704E+02  0.18357292801E+02  0.24999577216E+00 0.  0.
    1000022    2    1    0    0    0  0.32677214720E+02  0.11241256763E+02  0.51108547489E+02  0.62499998395E+02  0.99999978712E+01 0.  0.
    3000022    2    5    5    0    0  0.10059398489E+01  0.13803380203E+01  0.21070722574E+00  0.17390116196E+01  0.25003169429E+00 0.  0.
        -13    1    4    4    0    0 -0.58315994534E+01 -0.17044549603E+01 -0.54409431121E+01  0.81564456625E+01  0.10500000000E+00 0.  1.
         13    1    4    4    0    0 -0.73249330571E+01 -0.19860569543E+01 -0.68152175916E+01  0.10200847138E+02  0.10500000000E+00 0. -1.
    3000001    1    5    5    0    0  0.31671274871E+02  0.98609187427E+01  0.50897840263E+02  0.60760986775E+02  0.10000000000E+01 0. -1.
        -13    1    6    6    0    0  0.33227967010E+00  0.52333185315E+00  0.12045522249E+00  0.64017221770E+00  0.10500000000E+00 0.  1.
         13    1    6    6    0    0  0.67366017883E+00  0.85700616719E+00  0.90252003251E-01  0.10988394019E+01  0.10500000000E+00 0. -1.
</event>
<event>
11    0  0.3483054E-009  0.9118800E+02  0.7816531E-02  0.1126479E+00
         25   -1    0    0    0    0  0.00000000000E+00  0.00000000000E+00  0.99999998245E-14  0.12500000000E+03  0.12500000000E+03 0.  0.
    3000001    1    3    3    0    0 -0.15982669881E+02  0.14511055272E+02  0.16284631441E+01  0.21671833191E+02  0.10000000000E+01 0.  1.
    1000022    2    1    0    0    0 -0.53249809719E+02  0.30500175653E+02  0.63597676904E+01  0.62500002746E+02  0.10000037406E+02 0.  0.
    3000022    2    3    3    0    0 -0.37267139838E+02  0.15989120381E+02  0.47313045464E+01  0.40828169555E+02  0.25000845224E+00 0.  0.
    1000022    2    1    0    0    0  0.53249809719E+02 -0.30500175653E+02 -0.63597676904E+01  0.62499997254E+02  0.10000003086E+02 0.  0.
    3000022    2    5    5    0    0  0.36930107420E+02 -0.21669155113E+02  0.12281751568E+00  0.42818952621E+02  0.25000407450E+00 0.  0.
        -13    1    4    4    0    0 -0.16263508068E+02  0.70476976292E+01  0.20828031955E+01  0.17847151893E+02  0.10500000000E+00 0.  1.
         13    1    4    4    0    0 -0.21003631770E+02  0.89414227522E+01  0.26485013509E+01  0.22981017662E+02  0.10500000000E+00 0. -1.
    3000001    1    5    5    0    0  0.16319702299E+02 -0.88310205408E+01 -0.64825852061E+01  0.19681044634E+02  0.10000000000E+01 0.  1.
        -13    1    6    6    0    0  0.88712498350E+01 -0.51833803545E+01  0.33541753161E-01  0.10275147473E+02  0.10500000000E+00 0. -1.
         13    1    6    6    0    0  0.28058857585E+02 -0.16485774758E+02  0.89275762524E-01  0.32543805148E+02  0.10500000000E+00 0.  1.
</event>
<event>
11    0  0.3483054E-009  0.9118800E+02  0.7816531E-02  0.1126479E+00
         25   -1    0    0    0    0  0.00000000000E+00  0.00000000000E+00  0.99999998245E-14  0.12500000000E+03  0.12500000000E+03 0.  0.
    3000001    1    3    3    0    0  0.47851607501E+00 -0.12301140362E+02 -0.26066584205E+01  0.12623062226E+02  0.10000000000E+01 0.  1.
    1000022    2    1    0    0    0 -0.14856128646E+02 -0.59737427339E+02 -0.41213786387E+01  0.62500006058E+02  0.10000010596E+02 0.  0.
    3000022    2    3    3    0    0 -0.15334644721E+02 -0.47436286977E+02 -0.15147202182E+01  0.49876943832E+02  0.24999557558E+00 0.  0.
    1000022    2    1    0    0    0  0.14856128646E+02  0.59737427339E+02  0.41213786387E+01  0.62499993942E+02  0.99999348698E+01 0.  0.
    3000022    2    5    5    0    0  0.13087271227E+02  0.41045006234E+02  0.64202262456E+01  0.43557444914E+02  0.24999501180E+00 0.  0.
        -13    1    4    4    0    0 -0.10544647880E+02 -0.32605010823E+02 -0.10900483524E+01  0.34285209057E+02  0.10500000000E+00 0.  1.
         13    1    4    4    0    0 -0.47899968412E+01 -0.14831276154E+02 -0.42467186577E+00  0.15591734775E+02  0.10500000000E+00 0. -1.
    3000001    1    5    5    0    0  0.17688574194E+01  0.18692421105E+02 -0.22988476070E+01  0.18942549028E+02  0.10000000000E+01 0.  1.
        -13    1    6    6    0    0  0.84644181397E+01  0.26520048010E+02  0.42057799537E+01  0.28154199170E+02  0.10500000000E+00 0.  1.
         13    1    6    6    0    0  0.46228530869E+01  0.14524958224E+02  0.22144462920E+01  0.15403245744E+02  0.10500000000E+00 0. -1.
</event>
<event>
11    0  0.3483054E-009  0.9118800E+02  0.7816531E-02  0.1126479E+00
         25   -1    0    0    0    0  0.00000000000E+00  0.00000000000E+00  0.99999998245E-14  0.12500000000E+03  0.12500000000E+03 0.  0.
    3000001    1    3    3    0    0  0.13591851181E+02 -0.27111291176E+02  0.24891843060E+02  0.39247476080E+02  0.10000000000E+01 0.  1.
    1000022    2    1    0    0    0  0.26498047064E+02 -0.37499652893E+02  0.41205324776E+02  0.62500005692E+02  0.10000072816E+02 0.  0.
    3000022    2    3    3    0    0  0.12906195883E+02 -0.10388361717E+02  0.16313481716E+02  0.23252529612E+02  0.24999262613E+00 0.  0.
    1000022    2    1    0    0    0 -0.26498047064E+02  0.37499652893E+02 -0.41205324776E+02  0.62499994308E+02  0.10000001662E+02 0.  0.
    3000022    2    5    5    0    0 -0.15861000097E+02  0.23956212711E+02 -0.19276568024E+02  0.34599422400E+02  0.25000803602E+00 0.  0.
        -13    1    4    4    0    0  0.69335593475E+01 -0.55756666287E+01  0.88547747088E+01  0.12553101757E+02  0.10500000000E+00 0.  1.
         13    1    4    4    0    0  0.59726365356E+01 -0.48126950886E+01  0.74587070075E+01  0.10699427855E+02  0.10500000000E+00 0. -1.
    3000001    1    5    5    0    0 -0.10637046967E+02  0.13543440182E+02 -0.21928756752E+02  0.27900571908E+02  0.10000000000E+01 0.  1.
        -13    1    6    6    0    0 -0.39440737370E+01  0.60035392389E+01 -0.48271012450E+01  0.86550639781E+01  0.10500000000E+00 0. -1.
         13    1    6    6    0    0 -0.11916926360E+02  0.17952673473E+02 -0.14449466779E+02  0.25944358421E+02  0.10500000000E+00 0.  1.
</event>
<event>
11    0  0.3483054E-009  0.9118800E+02  0.7816531E-02  0.1126479E+00
         25   -1    0    0    0    0  0.00000000000E+00  0.00000000000E+00  0.99999998245E-14  0.12500000000E+03  0.12500000000E+03 0.  0.
    3000001    1    3    3    0    0 -0.18095845173E+02  0.64476446202E+01 -0.74454710661E+01  0.20626845931E+02  0.10000000000E+01 0. -1.
    1000022    2    1    0    0    0 -0.46791184441E+02  0.21715851832E+02 -0.33841643377E+02  0.62500000210E+02  0.10000001883E+02 0.  0.
    3000022    2    3    3    0    0 -0.28695339269E+02  0.15268207211E+02 -0.26396172311E+02  0.41873154280E+02  0.24997894029E+00 0.  0.
    1000022    2    1    0    0    0  0.46791184441E+02 -0.21715851832E+02  0.33841643377E+02  0.62499999790E+02  0.99999992522E+01 0.  0.
    3000022    2    5    5    0    0  0.30596601607E+02 -0.19141986526E+02  0.22358364452E+02  0.42456173043E+02  0.24998079570E+00 0.  0.
        -13    1    4    4    0    0 -0.79711529504E+01  0.42817208217E+01 -0.73687770985E+01  0.11669717798E+02  0.10500000000E+00 0. -1.
         13    1    4    4    0    0 -0.20724186318E+02  0.10986486390E+02 -0.19027395212E+02  0.30203436482E+02  0.10500000000E+00 0.  1.
    3000001    1    5    5    0    0  0.16194582834E+02 -0.25738653053E+01  0.11483278925E+02  0.20043826747E+02  0.10000000000E+01 0.  1.
        -13    1    6    6    0    0  0.11113700298E+02 -0.69364656305E+01  0.80491780914E+01  0.15376253858E+02  0.10500000000E+00 0. -1.
         13    1    6    6    0    0  0.19482901309E+02 -0.12205520896E+02  0.14309186361E+02  0.27079919185E+02  0.10500000000E+00 0.  1.
</event>
<event>
11    0  0.3483054E-009  0.9118800E+02  0.7816531E-02  0.1126479E+00
         25   -1    0    0    0    0  0.00000000000E+00  0.00000000000E+00  0.99999998245E-14  0.12500000000E+03  0.12500000000E+03 0.  0.
    3000001    1    3    3    0    0 -0.18762887755E+01  0.66216335220E+00 -0.96541240806E+00  0.24271260766E+01  0.10000000000E+01 0. -1.
    1000022    2    1    0    0    0 -0.58283141003E+02  0.11743474913E+02  0.16474730702E+02  0.62499994674E+02  0.99999427183E+01 0.  0.
    3000022    2    3    3    0    0 -0.56406852227E+02  0.11081311561E+02  0.17440143110E+02  0.60072868598E+02  0.25001145406E+00 0.  0.
    1000022    2    1    0    0    0  0.58283141003E+02 -0.11743474913E+02 -0.16474730702E+02  0.62500005326E+02  0.10000009290E+02 0.  0.
    3000022    2    5    5    0    0  0.14326518500E+02 -0.54309269419E+01 -0.61842934325E+00  0.15335874712E+02  0.24999710607E+00 0.  0.
        -13    1    4    4    0    0 -0.23514687246E+02  0.45651888567E+01  0.72292143689E+01  0.25021071739E+02  0.10500000000E+00 0. -1.
         13    1    4    4    0    0 -0.32892164981E+02  0.65161227046E+01  0.10210928742E+02  0.35051796859E+02  0.10500000000E+00 0.  1.
    3000001    1    5    5    0    0  0.43956622503E+02 -0.63125479716E+01 -0.15856301359E+02  0.47164130614E+02  0.10000000000E+01 0. -1.
        -13    1    6    6    0    0  0.98373510769E+01 -0.36842486840E+01 -0.45013038533E+00  0.10514789914E+02  0.10500000000E+00 0. -1.
         13    1    6    6    0    0  0.44891674226E+01 -0.17466782579E+01 -0.16829895792E+00  0.48210847975E+01  0.10500000000E+00 0.  1.
</event>
<event>
11    0  0.3483054E-009  0.9118800E+02  0.7816531E-02  0.1126479E+00
         25   -1    0    0    0    0  0.00000000000E+00  0.00000000000E+00  0.99999998245E-14  0.12500000000E+03  0.12500000000E+03 0.  0.
    3000001    1    3    3    0    0  0.21446752093E+02  0.26233383149E+02 -0.15331218665E+02  0.37204836144E+02  0.10000000000E+01 0.  1.
    1000022    2    1    0    0    0  0.28686287087E+02  0.47266837838E+02 -0.27371390193E+02  0.62499999970E+02  0.99999984578E+01 0.  0.
    3000022    2    3    3    0    0  0.72395349940E+01  0.21033454688E+02 -0.12040171528E+02  0.25295163826E+02  0.24999895144E+00 0.  0.
    1000022    2    1    0    0    0 -0.28686287087E+02 -0.47266837838E+02  0.27371390193E+02  0.62500000030E+02  0.99999988321E+01 0.  0.
    3000022    2    5    5    0    0 -0.13175766697E+02 -0.25833053349E+02  0.93405584903E+01  0.30467294054E+02  0.25000131931E+00 0.  0.
        -13    1    4    4    0    0  0.22362704163E+01  0.64478804618E+01 -0.37452181747E+01  0.77854834147E+01  0.10500000000E+00 0. -1.
         13    1    4    4    0    0  0.50032645777E+01  0.14585574227E+02 -0.82949533537E+01  0.17509680411E+02  0.10500000000E+00 0.  1.
    3000001    1    5    5    0    0 -0.15510520390E+02 -0.21433784489E+02  0.18030831703E+02  0.32032705976E+02  0.10000000000E+01 0.  1.
        -13    1    6    6    0    0 -0.75654904921E+01 -0.14833717525E+02  0.52948626848E+01  0.17473477554E+02  0.10500000000E+00 0.  1.
         13    1    6    6    0    0 -0.56102762050E+01 -0.10999335824E+02  0.40456958056E+01  0.12993816499E+02  0.10500000000E+00 0. -1.
</event>
<event>
11    0  0.3483054E-009  0.9118800E+02  0.7816531E-02  0.1126479E+00
         25   -1    0    0    0    0  0.00000000000E+00  0.00000000000E+00  0.99999998245E-14  0.12500000000E+03  0.12500000000E+03 0.  0.
    3000001    1    3    3    0    0  0.95568979565E+01 -0.38428011080E+01 -0.10991054866E+02  0.15096513040E+02  0.10000000000E+01 0. -1.
    1000022    2    1    0    0    0  0.43353384186E+02 -0.28076562577E+02 -0.33740789749E+02  0.62500000404E+02  0.99999935520E+01 0.  0.
    3000022    2    3    3    0    0  0.33796486230E+02 -0.24233761469E+02 -0.22749734883E+02  0.47403487363E+02  0.25000110307E+00 0.  0.
    1000022    2    1    0    0    0 -0.43353384186E+02  0.28076562577E+02  0.33740789749E+02  0.62499999596E+02  0.99999885031E+01 0.  0.
    3000022    2    5    5    0    0 -0.27529820209E+02  0.22858785253E+02  0.25058536065E+02  0.43685326965E+02  0.24999682397E+00 0.  0.
        -13    1    4    4    0    0  0.24810247739E+02 -0.17812611110E+02 -0.16740609456E+02  0.34829535417E+02  0.10500000000E+00 0.  1.
         13    1    4    4    0    0  0.89862384909E+01 -0.64211503598E+01 -0.60091254270E+01  0.12573951947E+02  0.10500000000E+00 0. -1.
    3000001    1    5    5    0    0 -0.15823563978E+02  0.52177773247E+01  0.86822536840E+01  0.18814672631E+02  0.10000000000E+01 0. -1.
        -13    1    6    6    0    0 -0.11134960686E+02  0.93181302228E+01  0.10130565103E+02  0.17704639918E+02  0.10500000000E+00 0. -1.
         13    1    6    6    0    0 -0.16394859523E+02  0.13540655030E+02  0.14927970962E+02  0.25980687047E+02  0.10500000000E+00 0.  1.
</event>
<event>
11    0  0.3483054E-009  0.9118800E+02  0.7816531E-02  0.1126479E+00
         25   -1    0    0    0    0  0.00000000000E+00  0.00000000000E+00  0.99999998245E-14  0.12500000000E+03  0.12500000000E+03 0.  0.
    3000001    1    3    3    0    0 -0.25810281821E+00  0.37384088257E+00  0.55021798466E+00  0.12284599712E+01  0.10000000000E+01 0. -1.
    1000022    2    1    0    0    0 -0.19374818229E+02 -0.22557895158E+02  0.54055598945E+02  0.62499999953E+02  0.10000000073E+02 0.  0.
    3000022    2    3    3    0    0 -0.19116715411E+02 -0.22931736041E+02  0.53505380960E+02  0.61271539982E+02  0.24998819396E+00 0.  0.
    1000022    2    1    0    0    0  0.19374818229E+02  0.22557895158E+02 -0.54055598945E+02  0.62500000047E+02  0.10000000662E+02 0.  0.
    3000022    2    5    5    0    0  0.10944962184E+02  0.19373827404E+02 -0.40017798553E+02  0.45788907915E+02  0.25000308694E+00 0.  0.
        -13    1    4    4    0    0 -0.68545397888E+01 -0.81580777125E+01  0.19014351576E+02  0.21796686412E+02  0.10500000000E+00 0. -1.
         13    1    4    4    0    0 -0.12262175622E+02 -0.14773658328E+02  0.34491029384E+02  0.39474853570E+02  0.10500000000E+00 0.  1.
    3000001    1    5    5    0    0  0.84298560454E+01  0.31840677541E+01 -0.14037800392E+02  0.16711092132E+02  0.10000000000E+01 0.  1.
        -13    1    6    6    0    0  0.45261251884E+01  0.78822273687E+01 -0.16355046481E+02  0.18711330469E+02  0.10500000000E+00 0. -1.
         13    1    6    6    0    0  0.64188369956E+01  0.11491600035E+02 -0.23662752072E+02  0.27077577446E+02  0.10500000000E+00 0.  1.
</event>
<event>
11    0  0.3483054E-009  0.9118800E+02  0.7816531E-02  0.1126479E+00
         25   -1    0    0    0    0  0.00000000000E+00  0.00000000000E+00  0.99999998245E-14  0.12500000000E+03  0.12500000000E+03 0.  0.
    3000001    1    3    3    0    0  0.16377258398E+02 -0.68288211153E+01  0.49325474187E+00  0.17778939527E+02  0.10000000000E+01 0.  1.
    1000022    2    1    0    0    0  0.51629009437E+02 -0.32237157674E+02 -0.10072782797E+02  0.62499999321E+02  0.10000000575E+02 0.  0.
    3000022    2    3    3    0    0  0.35251751039E+02 -0.25408336558E+02 -0.10566037539E+02  0.44721059794E+02  0.25004367832E+00 0.  0.
    1000022    2    1    0    0    0 -0.51629009437E+02  0.32237157674E+02  0.10072782797E+02  0.62500000679E+02  0.10000009065E+02 0.  0.
    3000022    2    5    5    0    0 -0.30703410600E+02  0.16101839440E+02  0.15023657589E+01  0.34702856413E+02  0.24996896391E+00 0.  0.
        -13    1    4    4    0    0  0.26760650807E+02 -0.19307194265E+02 -0.80367072772E+01  0.33963213494E+02  0.10500000000E+00 0. -1.
         13    1    4    4    0    0  0.84911002320E+01 -0.61011422936E+01 -0.25293302614E+01  0.10757846300E+02  0.10500000000E+00 0.  1.
    3000001    1    5    5    0    0 -0.20925598837E+02  0.16135318233E+02  0.85704170378E+01  0.27797144267E+02  0.10000000000E+01 0.  1.
        -13    1    6    6    0    0 -0.15635874481E+02  0.81242188686E+01  0.77327424871E+00  0.17637813954E+02  0.10500000000E+00 0. -1.
         13    1    6    6    0    0 -0.15067536119E+02  0.79776205717E+01  0.72909151022E+00  0.17065042458E+02  0.10500000000E+00 0.  1.
</event>
<event>
11    0  0.3483054E-009  0.9118800E+02  0.7816531E-02  0.1126479E+00
         25   -1    0    0    0    0  0.00000000000E+00  0.00000000000E+00  0.99999998245E-14  0.12500000000E+03  0.12500000000E+03 0.  0.
    3000001    1    3    3    0    0 -0.11914371028E+02  0.93216595964E+01 -0.19636497907E+02  0.24808015331E+02  0.10000000000E+01 0. -1.
    1000022    2    1    0    0    0 -0.39612322136E+02  0.20612183719E+02 -0.42570550514E+02  0.62499999919E+02  0.10000001804E+02 0.  0.
    3000022    2    3    3    0    0 -0.27697951108E+02  0.11290524123E+02 -0.22934052608E+02  0.37691984588E+02  0.25000521492E+00 0.  0.
    1000022    2    1    0    0    0  0.39612322136E+02 -0.20612183719E+02  0.42570550514E+02  0.62500000081E+02  0.10000002819E+02 0.  0.
    3000022    2    5    5    0    0  0.15910891513E+02 -0.49899711427E+01  0.10727264509E+02  0.19829094267E+02  0.24998975533E+00 0.  0.
        -13    1    4    4    0    0 -0.16624678776E+02  0.68432720923E+01 -0.13800593145E+02  0.22664459259E+02  0.10500000000E+00 0.  1.
         13    1    4    4    0    0 -0.11073272332E+02  0.44472520305E+01 -0.91334594622E+01  0.15027525329E+02  0.10500000000E+00 0. -1.
    3000001    1    5    5    0    0  0.23701430623E+02 -0.15622212576E+02  0.31843286005E+02  0.42670905814E+02  0.10000000000E+01 0.  1.
        -13    1    6    6    0    0  0.99060884703E+01 -0.31443080754E+01  0.67435264027E+01  0.12389650334E+02  0.10500000000E+00 0.  1.
         13    1    6    6    0    0  0.60048030424E+01 -0.18456630673E+01  0.39837381066E+01  0.74394439334E+01  0.10500000000E+00 0. -1.
</event>
<event>
11    0  0.3483054E-009  0.9118800E+02  0.7816531E-02  0.1126479E+00
         25   -1    0    0    0    0  0.00000000000E+00  0.00000000000E+00  0.99999998245E-14  0.12500000000E+03  0.12500000000E+03 0.  0.
    3000001    1    3    3    0    0  0.20369800706E+02  0.16961702412E+02 -0.23083249283E+02  0.35163397546E+02  0.10000000000E+01 0.  1.
    1000022    2    1    0    0    0  0.39082370411E+02  0.22011544387E+02 -0.42359300786E+02  0.62500000044E+02  0.99999939585E+01 0.  0.
    3000022    2    3    3    0    0  0.18712569705E+02  0.50498419751E+01 -0.19276051502E+02  0.27336602498E+02  0.25001129407E+00 0.  0.
    1000022    2    1    0    0    0 -0.39082370411E+02 -0.22011544387E+02  0.42359300786E+02  0.62499999956E+02  0.99999934049E+01 0.  0.
    3000022    2    5    5    0    0 -0.12735263776E+02 -0.62835095789E+01  0.19954794660E+02  0.24493382088E+02  0.25000021261E+00 0.  0.
        -13    1    4    4    0    0  0.70222996064E+01  0.19154878818E+01 -0.73197822825E+01  0.10323372668E+02  0.10500000000E+00 0. -1.
         13    1    4    4    0    0  0.11690270099E+02  0.31343540934E+01 -0.11956269220E+02  0.17013229829E+02  0.10500000000E+00 0.  1.
    3000001    1    5    5    0    0 -0.26347106636E+02 -0.15728034809E+02  0.22404506125E+02  0.38006617868E+02  0.10000000000E+01 0. -1.
        -13    1    6    6    0    0 -0.54759035699E+01 -0.26785379781E+01  0.86731824737E+01  0.10601660475E+02  0.10500000000E+00 0. -1.
         13    1    6    6    0    0 -0.72593602058E+01 -0.36049716008E+01  0.11281612187E+02  0.13891721613E+02  0.10500000000E+00 0.  1.
</event>
<event>
11    0  0.3483054E-009  0.9118800E+02  0.7816531E-02  0.1126479E+00
         25   -1    0    0    0    0  0.00000000000E+00  0.00000000000E+00  0.99999998245E-14  0.12500000000E+03  0.12500000000E+03 0.  0.
    3000001    1    3    3    0    0  0.65254222122E+01 -0.15604826955E+01  0.42448075553E+01  0.80021642367E+01  0.10000000000E+01 0. -1.
    1000022    2    1    0    0    0  0.60218867382E+02  0.14361310072E+00  0.13413325924E+02  0.62500001110E+02  0.10000010649E+02 0.  0.
    3000022    2    3    3    0    0  0.53693445170E+02  0.17040957962E+01  0.91685183690E+01  0.54497836874E+02  0.24999630025E+00 0.  0.
    1000022    2    1    0    0    0 -0.60218867382E+02 -0.14361310072E+00 -0.13413325924E+02  0.62499998890E+02  0.99999967684E+01 0.  0.
    3000022    2    5    5    0    0 -0.33738662156E+02 -0.36369267966E+00 -0.12505574019E+02  0.35984461607E+02  0.24999843589E+00 0.  0.
        -13    1    4    4    0    0  0.28910376599E+02  0.98199148881E+00  0.49177989486E+01  0.29342289514E+02  0.10500000000E+00 0. -1.
         13    1    4    4    0    0  0.24783068570E+02  0.72210430743E+00  0.42507194203E+01  0.25155547360E+02  0.10500000000E+00 0.  1.
    3000001    1    5    5    0    0 -0.26480205226E+02  0.22007957894E+00 -0.90775190576E+00  0.26515537282E+02  0.10000000000E+01 0. -1.
        -13    1    6    6    0    0 -0.25051575693E+02 -0.25414868631E+00 -0.92577525978E+01  0.26708857041E+02  0.10500000000E+00 0. -1.
         13    1    6    6    0    0 -0.86870864623E+01 -0.10954399335E+00 -0.32478214207E+01  0.92756045663E+01  0.10500000000E+00 0.  1.
</event>
<event>
11    0  0.3483054E-009  0.9118800E+02  0.7816531E-02  0.1126479E+00
         25   -1    0    0    0    0  0.00000000000E+00  0.00000000000E+00  0.99999998245E-14  0.12500000000E+03  0.12500000000E+03 0.  0.
    3000001    1    3    3    0    0  0.32444127627E+02  0.31355452691E+02  0.20934240327E+02  0.49749655767E+02  0.10000000000E+01 0.  1.
    1000022    2    1    0    0    0  0.43615730055E+02  0.37207984686E+02  0.22792200162E+02  0.62500002671E+02  0.99999956526E+01 0.  0.
    3000022    2    3    3    0    0  0.11171602428E+02  0.58525319953E+01  0.18579598350E+01  0.12750346904E+02  0.24999969870E+00 0.  0.
    1000022    2    1    0    0    0 -0.43615730055E+02 -0.37207984686E+02 -0.22792200162E+02  0.62499997329E+02  0.99999622642E+01 0.  0.
    3000022    2    5    5    0    0 -0.11405615654E+02 -0.45390044021E+01 -0.40086825062E+01  0.12915985006E+02  0.25000767222E+00 0.  0.
        -13    1    4    4    0    0  0.75126639851E+01  0.38833440654E+01  0.12711372370E+01  0.85526192572E+01  0.10500000000E+00 0. -1.
         13    1    4    4    0    0  0.36589384433E+01  0.19691879299E+01  0.58682259799E+00  0.41977276468E+01  0.10500000000E+00 0.  1.
    3000001    1    5    5    0    0 -0.32210114401E+02 -0.32668980284E+02 -0.18783517655E+02  0.49584012323E+02  0.10000000000E+01 0. -1.
        -13    1    6    6    0    0 -0.35034889065E+01 -0.14360983254E+01 -0.12070337107E+01  0.39755211353E+01  0.10500000000E+00 0. -1.
         13    1    6    6    0    0 -0.79021267471E+01 -0.31029060767E+01 -0.28016487955E+01  0.89404638706E+01  0.10500000000E+00 0.  1.
</event>
<event>
11    0  0.3483054E-009  0.9118800E+02  0.7816531E-02  0.1126479E+00
         25   -1    0    0    0    0  0.00000000000E+00  0.00000000000E+00  0.99999998245E-14  0.12500000000E+03  0.12500000000E+03 0.  0.
    3000001    1    3    3    0    0 -0.66279501759E+01 -0.76115421168E+00  0.17272317614E+02  0.18542978051E+02  0.10000000000E+01 0. -1.
    1000022    2    1    0    0    0 -0.34165830768E+02 -0.82671490230E+01  0.50701086348E+02  0.62500001434E+02  0.10000013869E+02 0.  0.
    3000022    2    3    3    0    0 -0.27537880592E+02 -0.75059948113E+01  0.33428768734E+02  0.43957023382E+02  0.24999993448E+00 0.  0.
    1000022    2    1    0    0    0  0.34165830768E+02  0.82671490230E+01 -0.50701086348E+02  0.62499998566E+02  0.99999959463E+01 0.  0.
    3000022    2    5    5    0    0  0.15582561089E+02  0.82986790421E+01 -0.20834371341E+02  0.27309665072E+02  0.24998654459E+00 0.  0.
        -13    1    4    4    0    0 -0.63854579511E+01 -0.17343681379E+01  0.77631748217E+01  0.10200981051E+02  0.10500000000E+00 0. -1.
         13    1    4    4    0    0 -0.21152422641E+02 -0.57716266735E+01  0.25665593912E+02  0.33756042332E+02  0.10500000000E+00 0.  1.
    3000001    1    5    5    0    0  0.18583269679E+02 -0.31530019066E-01 -0.29866715007E+02  0.35190333494E+02  0.10000000000E+01 0.  1.
        -13    1    6    6    0    0  0.86772683848E+01  0.45977999534E+01 -0.11491058153E+02  0.15115892084E+02  0.10500000000E+00 0.  1.
         13    1    6    6    0    0  0.69052927039E+01  0.37008790887E+01 -0.93433131878E+01  0.12193772988E+02  0.10500000000E+00 0. -1.
</event>
<event>
11    0  0.3483054E-009  0.9118800E+02  0.7816531E-02  0.1126479E+00
         25   -1    0    0    0    0  0.00000000000E+00  0.00000000000E+00  0.99999998245E-14  0.12500000000E+03  0.12500000000E+03 0.  0.
    3000001    1    3    3    0    0 -0.28572485607E+01 -0.66123244101E+01  0.21608420187E+01  0.75865632319E+01  0.10000000000E+01 0.  1.
    1000022    2    1    0    0    0 -0.44366615056E+02 -0.41813707159E+02  0.94587071889E+01  0.62500005941E+02  0.10000048154E+02 0.  0.
    3000022    2    3    3    0    0 -0.41509366495E+02 -0.35201382749E+02  0.72978651703E+01  0.54913442709E+02  0.24999977494E+00 0.  0.
    1000022    2    1    0    0    0  0.44366615056E+02  0.41813707159E+02 -0.94587071889E+01  0.62499994059E+02  0.99999738895E+01 0.  0.
    3000022    2    5    5    0    0  0.32978480408E+02  0.30874575338E+02 -0.25884367639E+01  0.45250216336E+02  0.25000262685E+00 0.  0.
        -13    1    4    4    0    0 -0.31500639282E+02 -0.26739760405E+02  0.55383377811E+01  0.41689198506E+02  0.10500000000E+00 0.  1.
         13    1    4    4    0    0 -0.10008727213E+02 -0.84616223442E+01  0.17595273891E+01  0.13224244203E+02  0.10500000000E+00 0. -1.
    3000001    1    5    5    0    0  0.11388134648E+02  0.10939131821E+02 -0.68702704251E+01  0.17249777722E+02  0.10000000000E+01 0.  1.
        -13    1    6    6    0    0  0.11173763210E+02  0.10523051814E+02 -0.84877930662E+00  0.15372672346E+02  0.10500000000E+00 0.  1.
         13    1    6    6    0    0  0.21804717198E+02  0.20351523524E+02 -0.17396574572E+01  0.29877543990E+02  0.10500000000E+00 0. -1.
</event>
<event>
11    0  0.3483054E-009  0.9118800E+02  0.7816531E-02  0.1126479E+00
         25   -1    0    0    0    0  0.00000000000E+00  0.00000000000E+00  0.99999998245E-14  0.12500000000E+03  0.12500000000E+03 0.  0.
    3000001    1    3    3    0    0  0.53234562079E+02  0.16105507768E+02  0.61972891061E+01  0.55970638486E+02  0.10000000000E+01 0. -1.
    1000022    2    1    0    0    0  0.58473350758E+02  0.16948052817E+02  0.99940348150E+01  0.62500000445E+02  0.10000004029E+02 0.  0.
    3000022    2    3    3    0    0  0.52387886782E+01  0.84254504979E+00  0.37967457088E+01  0.65293619589E+01  0.25000127349E+00 0.  0.
    1000022    2    1    0    0    0 -0.58473350758E+02 -0.16948052817E+02 -0.99940348150E+01  0.62499999555E+02  0.99999984714E+01 0.  0.
    3000022    2    5    5    0    0 -0.39077862196E+02 -0.13741440659E+02 -0.10766895060E+02  0.42800642941E+02  0.25000344467E+00 0.  0.
        -13    1    4    4    0    0  0.18552029845E+01  0.28583875087E+00  0.14129252059E+01  0.23517790166E+01  0.10500000000E+00 0.  1.
         13    1    4    4    0    0  0.33835856937E+01  0.55670629891E+00  0.23838205029E+01  0.41775829423E+01  0.10500000000E+00 0. -1.
    3000001    1    5    5    0    0 -0.19395488561E+02 -0.32066121586E+01  0.77286024474E+00  0.19699356614E+02  0.10000000000E+01 0.  1.
        -13    1    6    6    0    0 -0.23746969116E+02 -0.82958520022E+01 -0.65743375612E+01  0.25999473879E+02  0.10500000000E+00 0.  1.
         13    1    6    6    0    0 -0.15330893080E+02 -0.54455886567E+01 -0.41925574985E+01  0.16801169062E+02  0.10500000000E+00 0. -1.
</event>
<event>
11    0  0.3483054E-009  0.9118800E+02  0.7816531E-02  0.1126479E+00
         25   -1    0    0    0    0  0.00000000000E+00  0.00000000000E+00  0.99999998245E-14  0.12500000000E+03  0.12500000000E+03 0.  0.
    3000001    1    3    3    0    0 -0.15975356958E+02  0.13700649907E+01 -0.22420522991E+02  0.27582040519E+02  0.10000000000E+01 0.  1.
    1000022    2    1    0    0    0 -0.38175684060E+02  0.13216102109E+02 -0.46628337825E+02  0.62500000178E+02  0.99999962742E+01 0.  0.
    3000022    2    3    3    0    0 -0.22200327102E+02  0.11846037118E+02 -0.24207814834E+02  0.34917959659E+02  0.24997765022E+00 0.  0.
    1000022    2    1    0    0    0  0.38175684060E+02 -0.13216102109E+02  0.46628337825E+02  0.62499999822E+02  0.99999940525E+01 0.  0.
    3000022    2    5    5    0    0  0.30552349799E+01 -0.30807618528E+00  0.86239140467E+01  0.91577154359E+01  0.24997360082E+00 0.  0.
        -13    1    4    4    0    0 -0.98768805942E+01  0.52102222945E+01 -0.10798313656E+02  0.15534277886E+02  0.10500000000E+00 0. -1.
         13    1    4    4    0    0 -0.12323446508E+02  0.66358148240E+01 -0.13409501178E+02  0.19383681772E+02  0.10500000000E+00 0.  1.
    3000001    1    5    5    0    0  0.35120449080E+02 -0.12908025924E+02  0.38004423779E+02  0.53342284386E+02  0.10000000000E+01 0. -1.
        -13    1    6    6    0    0  0.10168612192E+01 -0.97980766807E-01  0.30368341359E+01  0.32057750293E+01  0.10500000000E+00 0.  1.
         13    1    6    6    0    0  0.20383737607E+01 -0.21009541847E+00  0.55870799108E+01  0.59519404066E+01  0.10500000000E+00 0. -1.
</event>
<event>
11    0  0.3483054E-009  0.9118800E+02  0.7816531E-02  0.1126479E+00
         25   -1    0    0    0    0  0.00000000000E+00  0.00000000000E+00  0.99999998245E-14  0.12500000000E+03  0.12500000000E+03 0.  0.
    3000001    1    3    3    0    0  0.43620567077E+01 -0.38009528886E+00 -0.18479521459E+02  0.19017484705E+02  0.10000000000E+01 0.  1.
    1000022    2    1    0    0    0  0.21529418360E+02 -0.13451650860E+02 -0.56229779523E+02  0.62499991042E+02  0.99999004621E+01 0.  0.
    3000022    2    3    3    0    0  0.17167361652E+02 -0.13071555572E+02 -0.37750258064E+02  0.43482506337E+02  0.25000457733E+00 0.  0.
    1000022    2    1    0    0    0 -0.21529418360E+02  0.13451650860E+02  0.56229779523E+02  0.62500008958E+02  0.10000012434E+02 0.  0.
    3000022    2    5    5    0    0 -0.98244589195E+01  0.50162604594E+01  0.13773625019E+02  0.17648175750E+02  0.24999821524E+00 0.  0.
        -13    1    4    4    0    0  0.61393818896E+01 -0.46080116502E+01 -0.13474935887E+02  0.15508407510E+02  0.10500000000E+00 0. -1.
         13    1    4    4    0    0  0.11027979762E+02 -0.84635439214E+01 -0.24275322177E+02  0.27974098827E+02  0.10500000000E+00 0.  1.
    3000001    1    5    5    0    0 -0.11704959440E+02  0.84353904011E+01  0.42456154505E+02  0.44851833207E+02  0.10000000000E+01 0. -1.
        -13    1    6    6    0    0 -0.67757578258E+01  0.35132983302E+01  0.95346589014E+01  0.12213717888E+02  0.10500000000E+00 0.  1.
         13    1    6    6    0    0 -0.30487010938E+01  0.15029621292E+01  0.42389661171E+01  0.54344578628E+01  0.10500000000E+00 0. -1.
</event>
<event>
11    0  0.3483054E-009  0.9118800E+02  0.7816531E-02  0.1126479E+00
         25   -1    0    0    0    0  0.00000000000E+00  0.00000000000E+00  0.99999998245E-14  0.12500000000E+03  0.12500000000E+03 0.  0.
    3000001    1    3    3    0    0  0.21654411657E+01 -0.13087960285E+01 -0.26016119022E+01  0.37643680713E+01  0.10000000000E+01 0.  1.
    1000022    2    1    0    0    0  0.52905584066E+02  0.75887845479E+01 -0.30816550158E+02  0.62499998487E+02  0.99999785441E+01 0.  0.
    3000022    2    3    3    0    0  0.50740142901E+02  0.88975805764E+01 -0.28214938256E+02  0.58735630415E+02  0.24999565337E+00 0.  0.
    1000022    2    1    0    0    0 -0.52905584066E+02 -0.75887845479E+01  0.30816550158E+02  0.62500001513E+02  0.99999974597E+01 0.  0.
    3000022    2    5    5    0    0 -0.40671521206E+02 -0.22318558387E+01  0.20542563160E+02  0.45620315850E+02  0.24999867999E+00 0.  0.
        -13    1    4    4    0    0  0.26591931899E+02  0.47148025669E+01 -0.14842318569E+02  0.30816645678E+02  0.10500000000E+00 0. -1.
         13    1    4    4    0    0  0.24148211002E+02  0.41827780095E+01 -0.13372619687E+02  0.27918984737E+02  0.10500000000E+00 0.  1.
    3000001    1    5    5    0    0 -0.12234062860E+02 -0.53569287093E+01  0.10273986998E+02  0.16879685663E+02  0.10000000000E+01 0.  1.
        -13    1    6    6    0    0 -0.17583247443E+02 -0.93873211566E+00  0.89478502738E+01  0.19751629253E+02  0.10500000000E+00 0.  1.
         13    1    6    6    0    0 -0.23088273763E+02 -0.12931237230E+01  0.11594712886E+02  0.25868686597E+02  0.10500000000E+00 0. -1.
</event>
<event>
11    0  0.3483054E-009  0.9118800E+02  0.7816531E-02  0.1126479E+00
         25   -1    0    0    0    0  0.00000000000E+00  0.00000000000E+00  0.99999998245E-14  0.12500000000E+03  0.12500000000E+03 0.  0.
    3000001    1    3    3    0    0  0.23939612476E+01  0.10797366526E+02 -0.17255132049E+02  0.20519594450E+02  0.10000000000E+01 0.  1.
    1000022    2    1    0    0    0  0.96105715481E+01  0.43068592358E+02 -0.43115926400E+02  0.62500002430E+02  0.10000023065E+02 0.  0.
    3000022    2    3    3    0    0  0.72166103006E+01  0.32271225832E+02 -0.25860794350E+02  0.41980407980E+02  0.24997767249E+00 0.  0.
    1000022    2    1    0    0    0 -0.96105715481E+01 -0.43068592358E+02  0.43115926400E+02  0.62499997570E+02  0.99999926863E+01 0.  0.
    3000022    2    5    5    0    0 -0.88971512708E+01 -0.27584541495E+02  0.33198635987E+02  0.44071284952E+02  0.24999136867E+00 0.  0.
        -13    1    4    4    0    0  0.23393613317E+01  0.10704191164E+02 -0.85656255433E+01  0.13908029547E+02  0.10500000000E+00 0.  1.
         13    1    4    4    0    0  0.48772489689E+01  0.21567034668E+02 -0.17295168807E+02  0.28072378434E+02  0.10500000000E+00 0. -1.
    3000001    1    5    5    0    0 -0.71342027736E+00 -0.15484050863E+02  0.99172904127E+01  0.18428712618E+02  0.10000000000E+01 0.  1.
        -13    1    6    6    0    0 -0.44585549434E+01 -0.13647071991E+02  0.16382342858E+02  0.21783330063E+02  0.10500000000E+00 0. -1.
         13    1    6    6    0    0 -0.44385963274E+01 -0.13937469504E+02  0.16816293129E+02  0.22287954889E+02  0.10500000000E+00 0.  1.
</event>
<event>
11    0  0.3483054E-009  0.9118800E+02  0.7816531E-02  0.1126479E+00
         25   -1    0    0    0    0  0.00000000000E+00  0.00000000000E+00  0.99999998245E-14  0.12500000000E+03  0.12500000000E+03 0.  0.
    3000001    1    3    3    0    0  0.17747826465E+02 -0.39165593162E+02 -0.55848732253E+01  0.43371878457E+02  0.10000000000E+01 0.  1.
    1000022    2    1    0    0    0  0.19192353722E+02 -0.58048047770E+02 -0.82660597358E+01  0.62499999469E+02  0.99999949396E+01 0.  0.
    3000022    2    3    3    0    0  0.14445272573E+01 -0.18882454608E+02 -0.26811865104E+01  0.19128121012E+02  0.25000265582E+00 0.  0.
    1000022    2    1    0    0    0 -0.19192353722E+02  0.58048047770E+02  0.82660597358E+01  0.62500000531E+02  0.10000001576E+02 0.  0.
    3000022    2    5    5    0    0  0.93658724782E+00  0.82731310472E+00  0.88659879625E-02  0.12744504004E+01  0.25000514280E+00 0.  0.
        -13    1    4    4    0    0  0.10611747914E+01 -0.13284704117E+02 -0.18846994229E+01  0.13460036119E+02  0.10500000000E+00 0. -1.
         13    1    4    4    0    0  0.38335246593E+00 -0.55977504911E+01 -0.79648708755E+00  0.56680848930E+01  0.10500000000E+00 0.  1.
    3000001    1    5    5    0    0 -0.20128940970E+02  0.57220734665E+02  0.82571937478E+01  0.61225550130E+02  0.10000000000E+01 0.  1.
        -13    1    6    6    0    0  0.60131592145E+00  0.52360430583E+00 -0.52903759586E-01  0.80595664540E+00  0.10500000000E+00 0.  1.
         13    1    6    6    0    0  0.33527132636E+00  0.30370879889E+00  0.61769747548E-01  0.46849375505E+00  0.10500000000E+00 0. -1.
</event>
<event>
11    0  0.3483054E-009  0.9118800E+02  0.7816531E-02  0.1126479E+00
         25   -1    0    0    0    0  0.00000000000E+00  0.00000000000E+00  0.99999998245E-14  0.12500000000E+03  0.12500000000E+03 0.  0.
    3000001    1    3    3    0    0  0.26578264033E+02 -0.37795047596E+02  0.42999280995E+01  0.46415074313E+02  0.10000000000E+01 0. -1.
    1000022    2    1    0    0    0  0.32962292978E+02 -0.50999476659E+02  0.10899137371E+02  0.62499999875E+02  0.99999705534E+01 0.  0.
    3000022    2    3    3    0    0  0.63840289446E+01 -0.13204429064E+02  0.65992092718E+01  0.16084925563E+02  0.24998975457E+00 0.  0.
    1000022    2    1    0    0    0 -0.32962292978E+02  0.50999476659E+02 -0.10899137371E+02  0.62500000125E+02  0.99999721145E+01 0.  0.
    3000022    2    5    5    0    0 -0.51576035928E+01  0.81827171554E+01 -0.55592021168E+01  0.11159075369E+02  0.25000012319E+00 0.  0.
        -13    1    4    4    0    0  0.32137568987E+01 -0.65035564525E+01  0.32351380520E+01  0.79436530104E+01  0.10500000000E+00 0. -1.
         13    1    4    4    0    0  0.31702720459E+01 -0.67008726112E+01  0.33640712198E+01  0.81412725522E+01  0.10500000000E+00 0.  1.
    3000001    1    5    5    0    0 -0.27804689385E+02  0.42816759504E+02 -0.53399352545E+01  0.51340924755E+02  0.10000000000E+01 0. -1.
        -13    1    6    6    0    0 -0.16142696183E+01  0.25052440170E+01 -0.17568764048E+01  0.34611780779E+01  0.10500000000E+00 0.  1.
         13    1    6    6    0    0 -0.35433339745E+01  0.56774731384E+01 -0.38023257120E+01  0.76978972916E+01  0.10500000000E+00 0. -1.
</event>
<event>
11    0  0.3483054E-009  0.9118800E+02  0.7816531E-02  0.1126479E+00
         25   -1    0    0    0    0  0.00000000000E+00  0.00000000000E+00  0.99999998245E-14  0.12500000000E+03  0.12500000000E+03 0.  0.
    3000001    1    3    3    0    0  0.64959807951E+01  0.72775510356E+01  0.28090924872E+01  0.10200564502E+02  0.10000000000E+01 0.  1.
    1000022    2    1    0    0    0  0.32819154335E+02  0.52197655651E+02 -0.21349122569E+01  0.62499999917E+02  0.99999996265E+01 0.  0.
    3000022    2    3    3    0    0  0.26323173540E+02  0.44920104615E+02 -0.49440047441E+01  0.52299435414E+02  0.24999576407E+00 0.  0.
    1000022    2    1    0    0    0 -0.32819154335E+02 -0.52197655651E+02  0.21349122569E+01  0.62500000083E+02  0.10000000667E+02 0.  0.
    3000022    2    5    5    0    0 -0.12145124994E+02 -0.21169264951E+02 -0.38992701089E+01  0.24716566207E+02  0.24999603569E+00 0.  0.
        -13    1    4    4    0    0  0.10412827286E+02  0.17773562576E+02 -0.20189361508E+01  0.20698155157E+02  0.10500000000E+00 0. -1.
         13    1    4    4    0    0  0.15910346254E+02  0.27146542039E+02 -0.29250685933E+01  0.31601280257E+02  0.10500000000E+00 0.  1.
    3000001    1    5    5    0    0 -0.20674029341E+02 -0.31028390700E+02  0.60341823658E+01  0.37783433876E+02  0.10000000000E+01 0.  1.
        -13    1    6    6    0    0 -0.66420742944E+01 -0.11485362836E+02 -0.20702430298E+01  0.13428612795E+02  0.10500000000E+00 0. -1.
         13    1    6    6    0    0 -0.55030506996E+01 -0.96839021151E+01 -0.18290270791E+01  0.11287953412E+02  0.10500000000E+00 0.  1.
</event>
<event>
11    0  0.3483054E-009  0.9118800E+02  0.7816531E-02  0.1126479E+00
         25   -1    0    0    0    0  0.00000000000E+00  0.00000000000E+00  0.99999998245E-14  0.12500000000E+03  0.12500000000E+03 0.  0.
    3000001    1    3    3    0    0 -0.17810330761E+02  0.51507046120E+02  0.59797692413E+01  0.54835584450E+02  0.10000000000E+01 0. -1.
    1000022    2    1    0    0    0 -0.16648090824E+02  0.59072422159E+02  0.62880899567E+01  0.62500000746E+02  0.10000001510E+02 0.  0.
    3000022    2    3    3    0    0  0.11622399375E+01  0.75653760385E+01  0.30832071545E+00  0.76644162956E+01  0.24999842585E+00 0.  0.
    1000022    2    1    0    0    0  0.16648090824E+02 -0.59072422159E+02 -0.62880899567E+01  0.62499999254E+02  0.99999921839E+01 0.  0.
    3000022    2    5    5    0    0  0.43783310197E+01 -0.30781024476E+02 -0.58836536668E+01  0.31643658622E+02  0.25000040307E+00 0.  0.
        -13    1    4    4    0    0  0.84633953358E+00  0.56070695350E+01  0.25587236622E+00  0.56773246379E+01  0.10500000000E+00 0. -1.
         13    1    4    4    0    0  0.31590040393E+00  0.19583065036E+01  0.52448349232E-01  0.19870916578E+01  0.10500000000E+00 0. -1.
    3000001    1    5    5    0    0  0.12269759804E+02 -0.28291397683E+02 -0.40443628993E+00  0.30856340632E+02  0.10000000000E+01 0.  1.
        -13    1    6    6    0    0  0.29034284634E+01 -0.20039109204E+02 -0.38110680584E+01  0.20604151506E+02  0.10500000000E+00 0.  1.
         13    1    6    6    0    0  0.14749025563E+01 -0.10741915271E+02 -0.20725856085E+01  0.11039507115E+02  0.10500000000E+00 0. -1.
</event>
<event>
11    0  0.3483054E-009  0.9118800E+02  0.7816531E-02  0.1126479E+00
         25   -1    0    0    0    0  0.00000000000E+00  0.00000000000E+00  0.99999998245E-14  0.12500000000E+03  0.12500000000E+03 0.  0.
    3000001    1    3    3    0    0  0.48084816470E+02 -0.25428483088E+02 -0.75875149257E+01  0.54930207627E+02  0.10000000000E+01 0. -1.
    1000022    2    1    0    0    0  0.52250416710E+02 -0.31178952767E+02 -0.10198865125E+02  0.62500001146E+02  0.10000007571E+02 0.  0.
    3000022    2    3    3    0    0  0.41656002394E+01 -0.57504696787E+01 -0.26113501991E+01  0.75697935193E+01  0.24999436250E+00 0.  0.
    1000022    2    1    0    0    0 -0.52250416710E+02  0.31178952767E+02  0.10198865125E+02  0.62499998854E+02  0.99999932476E+01 0.  0.
    3000022    2    5    5    0    0 -0.15215545051E+02  0.13587804405E+02  0.60438736227E+01  0.21277502886E+02  0.24996188409E+00 0.  0.
        -13    1    4    4    0    0  0.10689296711E+01 -0.15157197218E+01 -0.70629428983E+00  0.19874339085E+01  0.10500000000E+00 0.  1.
         13    1    4    4    0    0  0.30966705683E+01 -0.42347499569E+01 -0.19050559093E+01  0.55823596108E+01  0.10500000000E+00 0. -1.
    3000001    1    5    5    0    0 -0.37034871659E+02  0.17591148362E+02  0.41549915021E+01  0.41222495968E+02  0.10000000000E+01 0.  1.
        -13    1    6    6    0    0 -0.77935326038E+01  0.70087960572E+01  0.31648149839E+01  0.10949404162E+02  0.10500000000E+00 0.  1.
         13    1    6    6    0    0 -0.74220124472E+01  0.65790083478E+01  0.28790586389E+01  0.10328098724E+02  0.10500000000E+00 0. -1.
</event>
<event>
11    0  0.3483054E-009  0.9118800E+02  0.7816531E-02  0.1126479E+00
         25   -1    0    0    0    0  0.00000000000E+00  0.00000000000E+00  0.99999998245E-14  0.12500000000E+03  0.12500000000E+03 0.  0.
    3000001    1    3    3    0    0  0.89609842317E+01  0.43332241810E+01  0.28244430786E+01  0.10394880899E+02  0.10000000000E+01 0.  1.
    1000022    2    1    0    0    0  0.45455933241E+02  0.41493543158E+02  0.42771450321E+01  0.62500000205E+02  0.10000003267E+02 0.  0.
    3000022    2    3    3    0    0  0.36494949009E+02  0.37160318977E+02  0.14527019535E+01  0.52105119305E+02  0.25001042049E+00 0.  0.
    1000022    2    1    0    0    0 -0.45455933241E+02 -0.41493543158E+02 -0.42771450321E+01  0.62499999795E+02  0.10000000710E+02 0.  0.
    3000022    2    5    5    0    0 -0.16457322651E+02 -0.18119714795E+02  0.25807235299E+01  0.24614836081E+02  0.24997647805E+00 0.  0.
        -13    1    4    4    0    0  0.14239520763E+02  0.14587727924E+02  0.56534916354E+00  0.20393538247E+02  0.10500000000E+00 0. -1.
         13    1    4    4    0    0  0.22255428246E+02  0.22572591053E+02  0.88735278999E+00  0.31711581059E+02  0.10500000000E+00 0.  1.
    3000001    1    5    5    0    0 -0.28998610590E+02 -0.23373828363E+02 -0.68578685620E+01  0.37885163715E+02  0.10000000000E+01 0. -1.
        -13    1    6    6    0    0 -0.89519998843E+01 -0.99367867054E+01  0.13707111175E+01  0.13444995572E+02  0.10500000000E+00 0.  1.
         13    1    6    6    0    0 -0.75053227664E+01 -0.81829280899E+01  0.12100124124E+01  0.11169840509E+02  0.10500000000E+00 0. -1.
</event>
<event>
11    0  0.3483054E-009  0.9118800E+02  0.7816531E-02  0.1126479E+00
         25   -1    0    0    0    0  0.00000000000E+00  0.00000000000E+00  0.99999998245E-14  0.12500000000E+03  0.12500000000E+03 0.  0.
    3000001    1    3    3    0    0  0.25092020875E+02 -0.39582170468E+01  0.20347465059E+02  0.32562191697E+02  0.10000000000E+01 0.  1.
    1000022    2    1    0    0    0  0.50764990845E+02  0.60456684668E+00  0.35054254616E+02  0.62500002958E+02  0.99999903280E+01 0.  0.
    3000022    2    3    3    0    0  0.25672969970E+02  0.45627838935E+01  0.14706789558E+02  0.29937811262E+02  0.25000023542E+00 0.  0.
    1000022    2    1    0    0    0 -0.50764990845E+02 -0.60456684668E+00 -0.35054254616E+02  0.62499997042E+02  0.99999533467E+01 0.  0.
    3000022    2    5    5    0    0 -0.12440572907E+02 -0.37220317532E+01 -0.11833090780E+02  0.17570028784E+02  0.24999886815E+00 0.  0.
        -13    1    4    4    0    0  0.76665637964E+01  0.13998362644E+01  0.43648419268E+01  0.89330068878E+01  0.10500000000E+00 0. -1.
         13    1    4    4    0    0  0.18006406174E+02  0.31629476291E+01  0.10341947631E+02  0.21004804374E+02  0.10500000000E+00 0.  1.
    3000001    1    5    5    0    0 -0.38324417938E+02  0.31174649065E+01 -0.23221163837E+02  0.44929968258E+02  0.10000000000E+01 0. -1.
        -13    1    6    6    0    0 -0.45373379114E+01 -0.13808500255E+01 -0.42488037152E+01  0.63684802054E+01  0.10500000000E+00 0. -1.
         13    1    6    6    0    0 -0.79032349954E+01 -0.23411817277E+01 -0.75842870644E+01  0.11201548578E+02  0.10500000000E+00 0.  1.
</event>
<event>
11    0  0.3483054E-009  0.9118800E+02  0.7816531E-02  0.1126479E+00
         25   -1    0    0    0    0  0.00000000000E+00  0.00000000000E+00  0.99999998245E-14  0.12500000000E+03  0.12500000000E+03 0.  0.
    3000001    1    3    3    0    0 -0.17184522029E+02  0.19708526637E+02  0.10095448783E+02  0.28047315481E+02  0.10000000000E+01 0. -1.
    1000022    2    1    0    0    0 -0.45180632601E+02  0.39041938955E+02  0.15514108079E+02  0.62499999198E+02  0.99999895307E+01 0.  0.
    3000022    2    3    3    0    0 -0.27996110572E+02  0.19333412318E+02  0.54186592954E+01  0.34452683716E+02  0.25001535388E+00 0.  0.
    1000022    2    1    0    0    0  0.45180632601E+02 -0.39041938955E+02 -0.15514108079E+02  0.62500000802E+02  0.99999995599E+01 0.  0.
    3000022    2    5    5    0    0  0.40605623111E+02 -0.38200239005E+02 -0.14860592590E+02  0.57697266880E+02  0.25000998625E+00 0.  0.
        -13    1    4    4    0    0 -0.18338579404E+02  0.12694063720E+02  0.35016282494E+01  0.22576872540E+02  0.10500000000E+00 0.  1.
         13    1    4    4    0    0 -0.96575311676E+01  0.66393485980E+01  0.19170310459E+01  0.11875811176E+02  0.10500000000E+00 0. -1.
    3000001    1    5    5    0    0  0.45750094898E+01 -0.84169995087E+00 -0.65351548841E+00  0.48027339228E+01  0.10000000000E+01 0. -1.
        -13    1    6    6    0    0  0.11900970090E+02 -0.11162105615E+02 -0.43867120140E+01  0.16896152170E+02  0.10500000000E+00 0. -1.
         13    1    6    6    0    0  0.28704653021E+02 -0.27038133390E+02 -0.10473880576E+02  0.40801114710E+02  0.10500000000E+00 0.  1.
</event>
<event>
11    0  0.3483054E-009  0.9118800E+02  0.7816531E-02  0.1126479E+00
         25   -1    0    0    0    0  0.00000000000E+00  0.00000000000E+00  0.99999998245E-14  0.12500000000E+03  0.12500000000E+03 0.  0.
    3000001    1    3    3    0    0  0.11569374227E+02  0.20809410832E+02  0.64793063784E+01  0.24695412738E+02  0.10000000000E+01 0.  1.
    1000022    2    1    0    0    0  0.21441412936E+02  0.51817298929E+02  0.25719318299E+02  0.62500000193E+02  0.10000001671E+02 0.  0.
    3000022    2    3    3    0    0  0.98720387099E+01  0.31007888097E+02  0.19240011921E+02  0.37804587455E+02  0.25000285388E+00 0.  0.
    1000022    2    1    0    0    0 -0.21441412936E+02 -0.51817298929E+02 -0.25719318299E+02  0.62499999807E+02  0.99999992562E+01 0.  0.
    3000022    2    5    5    0    0 -0.92203809159E+01 -0.31101540199E+02 -0.10857525431E+02  0.34209203236E+02  0.25000107014E+00 0.  0.
        -13    1    4    4    0    0  0.72571032443E+01  0.22686394761E+02  0.14067667546E+02  0.27663122563E+02  0.10500000000E+00 0.  1.
         13    1    4    4    0    0  0.26149354656E+01  0.83214933363E+01  0.51723443748E+01  0.10141464893E+02  0.10500000000E+00 0. -1.
    3000001    1    5    5    0    0 -0.12221032021E+02 -0.20715758729E+02 -0.14861792868E+02  0.28290796571E+02  0.10000000000E+01 0. -1.
        -13    1    6    6    0    0 -0.51035364254E+01 -0.17113408504E+02 -0.59137603564E+01  0.18812188103E+02  0.10500000000E+00 0. -1.
         13    1    6    6    0    0 -0.41168444904E+01 -0.13988131695E+02 -0.49437650748E+01  0.15397015133E+02  0.10500000000E+00 0.  1.
</event>
<event>
11    0  0.3483054E-009  0.9118800E+02  0.7816531E-02  0.1126479E+00
         25   -1    0    0    0    0  0.00000000000E+00  0.00000000000E+00  0.99999998245E-14  0.12500000000E+03  0.12500000000E+03 0.  0.
    3000001    1    3    3    0    0 -0.31507500164E+01  0.69532423901E+01  0.55263207389E+01  0.94770789968E+01  0.10000000000E+01 0.  1.
    1000022    2    1    0    0    0 -0.35212562404E+02  0.28907124557E+02  0.41601726496E+02  0.62500000096E+02  0.99999981673E+01 0.  0.
    3000022    2    3    3    0    0 -0.32061812388E+02  0.21953882166E+02  0.36075405757E+02  0.53022921099E+02  0.25001116507E+00 0.  0.
    1000022    2    1    0    0    0  0.35212562404E+02 -0.28907124557E+02 -0.41601726496E+02  0.62499999904E+02  0.99999969725E+01 0.  0.
    3000022    2    5    5    0    0  0.93747324170E+01 -0.13229813732E+02 -0.11902018890E+02  0.20115519667E+02  0.24999709526E+00 0.  0.
        -13    1    4    4    0    0 -0.11013479967E+02  0.75674146372E+01  0.12475871038E+02  0.18281709122E+02  0.10500000000E+00 0. -1.
         13    1    4    4    0    0 -0.21048332421E+02  0.14386467529E+02  0.23599534719E+02  0.34741211977E+02  0.10500000000E+00 0.  1.
    3000001    1    5    5    0    0  0.25837829987E+02 -0.15677310825E+02 -0.29699707605E+02  0.42384480237E+02  0.10000000000E+01 0.  1.
        -13    1    6    6    0    0  0.34764379123E+01 -0.49911469116E+01 -0.44219503945E+01  0.75207604896E+01  0.10500000000E+00 0. -1.
         13    1    6    6    0    0  0.58982945047E+01 -0.82386668204E+01 -0.74800684959E+01  0.12594759178E+02  0.10500000000E+00 0.  1.
</event>
<event>
11    0  0.3483054E-009  0.9118800E+02  0.7816531E-02  0.1126479E+00
         25   -1    0    0    0    0  0.00000000000E+00  0.00000000000E+00  0.99999998245E-14  0.12500000000E+03  0.12500000000E+03 0.  0.
    3000001    1    3    3    0    0  0.41692178088E+02  0.10383135340E+02 -0.42860254646E+00  0.42979424303E+02  0.10000000000E+01 0.  1.
    1000022    2    1    0    0    0  0.59789413208E+02  0.14016100461E+02  0.59182052495E+01  0.62499998727E+02  0.99999841798E+01 0.  0.
    3000022    2    3    3    0    0  0.18097235120E+02  0.36329651213E+01  0.63468077959E+01  0.19520574424E+02  0.25000422023E+00 0.  0.
    1000022    2    1    0    0    0 -0.59789413208E+02 -0.14016100461E+02 -0.59182052495E+01  0.62500001273E+02  0.10000000090E+02 0.  0.
    3000022    2    5    5    0    0 -0.25821373164E+02 -0.29837891039E+01 -0.63896421588E+01  0.26768196237E+02  0.24998679132E+00 0.  0.
        -13    1    4    4    0    0  0.67870567723E+01  0.13983209510E+01  0.23310720339E+01  0.73119329141E+01  0.10500000000E+00 0. -1.
         13    1    4    4    0    0  0.11310178347E+02  0.22346441703E+01  0.40157357621E+01  0.12208641510E+02  0.10500000000E+00 0.  1.
    3000001    1    5    5    0    0 -0.33968040045E+02 -0.11032311357E+02  0.47143690937E+00  0.35731805036E+02  0.10000000000E+01 0.  1.
        -13    1    6    6    0    0 -0.11494649580E+02 -0.12769020125E+01 -0.28867545413E+01  0.11920646983E+02  0.10500000000E+00 0. -1.
         13    1    6    6    0    0 -0.14326723584E+02 -0.17068870914E+01 -0.35028876175E+01  0.14847549254E+02  0.10500000000E+00 0.  1.
</event>
<event>
11    0  0.3483054E-009  0.9118800E+02  0.7816531E-02  0.1126479E+00
         25   -1    0    0    0    0  0.00000000000E+00  0.00000000000E+00  0.99999998245E-14  0.12500000000E+03  0.12500000000E+03 0.  0.
    3000001    1    3    3    0    0 -0.11185544918E+01  0.96176636582E+01  0.42733498436E+01  0.10630716687E+02  0.10000000000E+01 0. -1.
    1000022    2    1    0    0    0  0.10837937767E+02  0.49391917900E+02  0.35344410312E+02  0.62499997628E+02  0.99999957174E+01 0.  0.
    3000022    2    3    3    0    0  0.11956492259E+02  0.39774254241E+02  0.31071060468E+02  0.51869280941E+02  0.24999821461E+00 0.  0.
    1000022    2    1    0    0    0 -0.10837937767E+02 -0.49391917900E+02 -0.35344410312E+02  0.62500002372E+02  0.10000025370E+02 0.  0.
    3000022    2    5    5    0    0 -0.14774254289E+01 -0.26811079729E+01  0.16232061611E+00  0.30757068659E+01  0.24999776474E+00 0.  0.
        -13    1    4    4    0    0  0.54851419029E+01  0.18304251910E+02  0.14214145708E+02  0.23815654156E+02  0.10500000000E+00 0.  1.
         13    1    4    4    0    0  0.64713503558E+01  0.21470002332E+02  0.16856914761E+02  0.28053626785E+02  0.10500000000E+00 0. -1.
    3000001    1    5    5    0    0 -0.93605123380E+01 -0.46710809927E+02 -0.35506730928E+02  0.59424295506E+02  0.10000000000E+01 0.  1.
        -13    1    6    6    0    0 -0.86124818270E+00 -0.16885448679E+01  0.93506585910E-01  0.19007105736E+01  0.10500000000E+00 0.  1.
         13    1    6    6    0    0 -0.61617724624E+00 -0.99256310500E+00  0.68814030200E-01  0.11749962923E+01  0.10500000000E+00 0. -1.
</event>
<event>
11    0  0.3483054E-009  0.9118800E+02  0.7816531E-02  0.1126479E+00
         25   -1    0    0    0    0  0.00000000000E+00  0.00000000000E+00  0.99999998245E-14  0.12500000000E+03  0.12500000000E+03 0.  0.
    3000001    1    3    3    0    0 -0.53464498794E+02 -0.14476055436E+01 -0.13381365264E+02  0.55141718593E+02  0.10000000000E+01 0. -1.
    1000022    2    1    0    0    0 -0.59967163598E+02 -0.48713872411E+01 -0.13654993838E+02  0.62499999780E+02  0.99999996031E+01 0.  0.
    3000022    2    3    3    0    0 -0.65026648046E+01 -0.34237816975E+01 -0.27362857385E+00  0.73582811865E+01  0.24999750042E+00 0.  0.
    1000022    2    1    0    0    0  0.59967163598E+02  0.48713872411E+01  0.13654993838E+02  0.62500000220E+02  0.10000002357E+02 0.  0.
    3000022    2    5    5    0    0  0.38727325317E+02  0.18065723360E+01  0.40953335278E+01  0.38985942172E+02  0.25000115647E+00 0.  0.
        -13    1    4    4    0    0 -0.23827622895E+01 -0.12105527781E+01 -0.55676042300E-01  0.26752792337E+01  0.10500000000E+00 0. -1.
         13    1    4    4    0    0 -0.41199025151E+01 -0.22132289194E+01 -0.21795253155E+00  0.46830019527E+01  0.10500000000E+00 0.  1.
    3000001    1    5    5    0    0  0.21239838282E+02  0.30648149052E+01  0.95596603102E+01  0.23514058048E+02  0.10000000000E+01 0.  1.
        -13    1    6    6    0    0  0.19950670157E+02  0.99505060326E+00  0.21313793712E+01  0.20089130604E+02  0.10500000000E+00 0.  1.
         13    1    6    6    0    0  0.18776655160E+02  0.81152173270E+00  0.19639541567E+01  0.18896811568E+02  0.10500000000E+00 0. -1.
</event>
<event>
11    0  0.3483054E-009  0.9118800E+02  0.7816531E-02  0.1126479E+00
         25   -1    0    0    0    0  0.00000000000E+00  0.00000000000E+00  0.99999998245E-14  0.12500000000E+03  0.12500000000E+03 0.  0.
    3000001    1    3    3    0    0  0.65060685444E+01 -0.72356377176E+01  0.10849535334E+02  0.14608073043E+02  0.10000000000E+01 0. -1.
    1000022    2    1    0    0    0  0.41913921639E+02 -0.26703239384E+02  0.36556942508E+02  0.62500001977E+02  0.10000019046E+02 0.  0.
    3000022    2    3    3    0    0  0.35407853095E+02 -0.19467601666E+02  0.25707407174E+02  0.47891928934E+02  0.24999600848E+00 0.  0.
    1000022    2    1    0    0    0 -0.41913921639E+02  0.26703239384E+02 -0.36556942508E+02  0.62499998023E+02  0.99999943282E+01 0.  0.
    3000022    2    5    5    0    0 -0.35575040188E+02  0.25931726873E+02 -0.29875263089E+02  0.53203682115E+02  0.25000590712E+00 0.  0.
        -13    1    4    4    0    0  0.20760605967E+02 -0.11352972178E+02  0.15095868013E+02  0.28067579045E+02  0.10500000000E+00 0.  1.
         13    1    4    4    0    0  0.14647247128E+02 -0.81146294887E+01  0.10611539161E+02  0.19824349889E+02  0.10500000000E+00 0. -1.
    3000001    1    5    5    0    0 -0.63388814510E+01  0.77151251124E+00 -0.66816794188E+01  0.92963159080E+01  0.10000000000E+01 0. -1.
        -13    1    6    6    0    0 -0.19085124977E+02  0.13959854890E+02 -0.16112754953E+02  0.28613833038E+02  0.10500000000E+00 0.  1.
         13    1    6    6    0    0 -0.16489915211E+02  0.11971871982E+02 -0.13762508136E+02  0.24589849077E+02  0.10500000000E+00 0. -1.
</event>
<event>
11    0  0.3483054E-009  0.9118800E+02  0.7816531E-02  0.1126479E+00
         25   -1    0    0    0    0  0.00000000000E+00  0.00000000000E+00  0.99999998245E-14  0.12500000000E+03  0.12500000000E+03 0.  0.
    3000001    1    3    3    0    0 -0.35562149899E+01  0.18632763201E+02  0.50178473794E+01  0.19647018142E+02  0.10000000000E+01 0.  1.
    1000022    2    1    0    0    0 -0.15783888620E+02  0.59602944880E+02  0.21465876343E+01  0.62500004293E+02  0.10000025988E+02 0.  0.
    3000022    2    3    3    0    0 -0.12227673630E+02  0.40970181680E+02 -0.28712597450E+01  0.42852986151E+02  0.25000052665E+00 0.  0.
    1000022    2    1    0    0    0  0.15783888620E+02 -0.59602944880E+02 -0.21465876343E+01  0.62499995707E+02  0.99999723282E+01 0.  0.
    3000022    2    5    5    0    0  0.89028259743E+01 -0.43644769404E+02  0.20594267667E+01  0.44591814761E+02  0.24999680876E+00 0.  0.
        -13    1    4    4    0    0 -0.61531168629E+01  0.20472649701E+02 -0.13815843676E+01  0.21422185539E+02  0.10500000000E+00 0. -1.
         13    1    4    4    0    0 -0.60745567670E+01  0.20497531978E+02 -0.14896753774E+01  0.21430800612E+02  0.10500000000E+00 0.  1.
    3000001    1    5    5    0    0  0.68810626455E+01 -0.15958175476E+02 -0.42060144011E+01  0.17908180946E+02  0.10000000000E+01 0. -1.
        -13    1    6    6    0    0  0.56475817037E+01 -0.27415471087E+02  0.12688745117E+01  0.28020069621E+02  0.10500000000E+00 0. -1.
         13    1    6    6    0    0  0.32552442706E+01 -0.16229298317E+02  0.79055225502E+00  0.16571745140E+02  0.10500000000E+00 0.  1.
</event>
<event>
11    0  0.3483054E-009  0.9118800E+02  0.7816531E-02  0.1126479E+00
         25   -1    0    0    0    0  0.00000000000E+00  0.00000000000E+00  0.99999998245E-14  0.12500000000E+03  0.12500000000E+03 0.  0.
    3000001    1    3    3    0    0  0.45699889205E+01 -0.86980654323E+01  0.12857822566E+01  0.99596373935E+01  0.10000000000E+01 0.  1.
    1000022    2    1    0    0    0  0.84040872435E+01 -0.61096124704E+02  0.16984629225E+01  0.62500000263E+02  0.10000006016E+02 0.  0.
    3000022    2    3    3    0    0  0.38340983229E+01 -0.52398059272E+02  0.41268066597E+00  0.52540362870E+02  0.24999944668E+00 0.  0.
    1000022    2    1    0    0    0 -0.84040872435E+01  0.61096124704E+02 -0.16984629225E+01  0.62499999737E+02  0.10000002729E+02 0.  0.
    3000022    2    5    5    0    0  0.51416772317E+00  0.32112674082E+02 -0.16265646536E+01  0.32158924427E+02  0.25000515495E+00 0.  0.
        -13    1    4    4    0    0  0.11205241166E+01 -0.15918508968E+02  0.10976353742E+00  0.15958620714E+02  0.10500000000E+00 0. -1.
         13    1    4    4    0    0  0.27135742063E+01 -0.36479550303E+02  0.30291712855E+00  0.36581742155E+02  0.10500000000E+00 0.  1.
    3000001    1    5    5    0    0 -0.89182549666E+01  0.28983450622E+02 -0.71898268891E-01  0.30341075310E+02  0.10000000000E+01 0. -1.
        -13    1    6    6    0    0  0.30259609445E+00  0.17019712971E+02 -0.80169632982E+00  0.17041594292E+02  0.10500000000E+00 0. -1.
         13    1    6    6    0    0  0.21157162872E+00  0.15092961111E+02 -0.82486832383E+00  0.15117330134E+02  0.10500000000E+00 0.  1.
</event>
<event>
11    0  0.3483054E-009  0.9118800E+02  0.7816531E-02  0.1126479E+00
         25   -1    0    0    0    0  0.00000000000E+00  0.00000000000E+00  0.99999998245E-14  0.12500000000E+03  0.12500000000E+03 0.  0.
    3000001    1    3    3    0    0 -0.21493677007E+02 -0.46049847409E+02  0.60762142626E+01  0.51190692293E+02  0.10000000000E+01 0. -1.
    1000022    2    1    0    0    0 -0.29480304714E+02 -0.53402720454E+02  0.92364229555E+01  0.62499997408E+02  0.99999624535E+01 0.  0.
    3000022    2    3    3    0    0 -0.79866277075E+01 -0.73528730452E+01  0.31602086928E+01  0.11309305115E+02  0.24999810828E+00 0.  0.
    1000022    2    1    0    0    0  0.29480304714E+02  0.53402720454E+02 -0.92364229555E+01  0.62500002592E+02  0.99999948537E+01 0.  0.
    3000022    2    5    5    0    0  0.10849397226E+02  0.12447944144E+02  0.20598830954E+00  0.16515618863E+02  0.25000333874E+00 0.  0.
        -13    1    4    4    0    0 -0.55847489697E+01 -0.51182552872E+01  0.21599548328E+01  0.78779685275E+01  0.10500000000E+00 0.  1.
         13    1    4    4    0    0 -0.24018787378E+01 -0.22346177580E+01  0.10002538600E+01  0.34313365879E+01  0.10500000000E+00 0. -1.
    3000001    1    5    5    0    0  0.18630907488E+02  0.40954776310E+02 -0.94424112650E+01  0.45984383729E+02  0.10000000000E+01 0. -1.
        -13    1    6    6    0    0  0.73085831764E+01  0.84631710004E+01  0.14490015399E+00  0.11183589427E+02  0.10500000000E+00 0.  1.
         13    1    6    6    0    0  0.35408140499E+01  0.39847731438E+01  0.61088155552E-01  0.53320294360E+01  0.10500000000E+00 0. -1.
</event>
<event>
11    0  0.3483054E-009  0.9118800E+02  0.7816531E-02  0.1126479E+00
         25   -1    0    0    0    0  0.00000000000E+00  0.00000000000E+00  0.99999998245E-14  0.12500000000E+03  0.12500000000E+03 0.  0.
    3000001    1    3    3    0    0  0.14336254155E+02 -0.75658265025E+01  0.27085270850E+02  0.31581352265E+02  0.10000000000E+01 0. -1.
    1000022    2    1    0    0    0  0.20977780518E+02 -0.96654633341E+01  0.57208053316E+02  0.62500001576E+02  0.10000018798E+02 0.  0.
    3000022    2    3    3    0    0  0.66415263625E+01 -0.20996368316E+01  0.30122782466E+02  0.30918649311E+02  0.25000902970E+00 0.  0.
    1000022    2    1    0    0    0 -0.20977780518E+02  0.96654633341E+01 -0.57208053316E+02  0.62499998424E+02  0.99999990945E+01 0.  0.
    3000022    2    5    5    0    0 -0.29456135865E+01  0.31645650568E+01 -0.38496125183E+01  0.57942321652E+01  0.24999688665E+00 0.  0.
        -13    1    4    4    0    0  0.17133385790E+01 -0.52741056469E+00  0.76409286737E+01  0.78491086747E+01  0.10500000000E+00 0. -1.
         13    1    4    4    0    0  0.49281877835E+01 -0.15722262669E+01  0.22481853792E+02  0.23069540637E+02  0.10500000000E+00 0.  1.
    3000001    1    5    5    0    0 -0.18032166931E+02  0.65008982773E+01 -0.53358440797E+02  0.56705766258E+02  0.10000000000E+01 0.  1.
        -13    1    6    6    0    0 -0.14221866101E+01  0.14295357221E+01 -0.18030925265E+01  0.27070934217E+01  0.10500000000E+00 0.  1.
         13    1    6    6    0    0 -0.15234269765E+01  0.17350293347E+01 -0.20465199918E+01  0.30871387435E+01  0.10500000000E+00 0. -1.
</event>
<event>
11    0  0.3483054E-009  0.9118800E+02  0.7816531E-02  0.1126479E+00
         25   -1    0    0    0    0  0.00000000000E+00  0.00000000000E+00  0.99999998245E-14  0.12500000000E+03  0.12500000000E+03 0.  0.
    3000001    1    3    3    0    0 -0.70897226129E+01 -0.12140234095E+01 -0.45688528088E+01  0.85797689686E+01  0.10000000000E+01 0.  1.
    1000022    2    1    0    0    0 -0.34896098911E+02 -0.19515484462E+02 -0.46985722444E+02  0.62500000399E+02  0.10000004162E+02 0.  0.
    3000022    2    3    3    0    0 -0.27806376299E+02 -0.18301461053E+02 -0.42416869636E+02  0.53920231431E+02  0.24997664296E+00 0.  0.
    1000022    2    1    0    0    0  0.34896098911E+02  0.19515484462E+02  0.46985722444E+02  0.62499999601E+02  0.99999991721E+01 0.  0.
    3000022    2    5    5    0    0  0.74625788523E+01  0.50979024261E+01  0.17569011388E+02  0.19758829940E+02  0.25001433093E+00 0.  0.
        -13    1    4    4    0    0 -0.13393160862E+02 -0.88048493946E+01 -0.20532016451E+02  0.26047588281E+02  0.10500000000E+00 0. -1.
         13    1    4    4    0    0 -0.14413215436E+02 -0.94966116581E+01 -0.21884853185E+02  0.27872643149E+02  0.10500000000E+00 0.  1.
    3000001    1    5    5    0    0  0.27433520059E+02  0.14417582036E+02  0.29416711056E+02  0.42741169661E+02  0.10000000000E+01 0. -1.
        -13    1    6    6    0    0  0.49692070355E+01  0.34015258078E+01  0.11820759992E+02  0.13266679621E+02  0.10500000000E+00 0. -1.
         13    1    6    6    0    0  0.24933718168E+01  0.16963766183E+01  0.57482513964E+01  0.64921503189E+01  0.10500000000E+00 0.  1.
</event>
<event>
11    0  0.3483054E-009  0.9118800E+02  0.7816531E-02  0.1126479E+00
         25   -1    0    0    0    0  0.00000000000E+00  0.00000000000E+00  0.99999998245E-14  0.12500000000E+03  0.12500000000E+03 0.  0.
    3000001    1    3    3    0    0 -0.45574050145E+02 -0.33315917388E+02  0.91263661463E+01  0.57194710918E+02  0.10000000000E+01 0.  1.
    1000022    2    1    0    0    0 -0.50689567509E+02 -0.33568459855E+02  0.10487002293E+02  0.62500003341E+02  0.99999724616E+01 0.  0.
    3000022    2    3    3    0    0 -0.51155173647E+01 -0.25254246689E+00  0.13606361472E+01  0.53052924229E+01  0.25000272240E+00 0.  0.
    1000022    2    1    0    0    0  0.50689567509E+02  0.33568459855E+02 -0.10487002293E+02  0.62499996659E+02  0.99999306956E+01 0.  0.
    3000022    2    5    5    0    0  0.34690564190E+02  0.18723516692E+02 -0.98918221373E+01  0.40643769076E+02  0.24999673379E+00 0.  0.
        -13    1    4    4    0    0 -0.30999630130E+01 -0.13618140449E+00  0.76173595208E+00  0.31968082078E+01  0.10500000000E+00 0.  1.
         13    1    4    4    0    0 -0.20155543517E+01 -0.11636106240E+00  0.59890019509E+00  0.21084842151E+01  0.10500000000E+00 0. -1.
    3000001    1    5    5    0    0  0.15999003319E+02  0.14844943163E+02 -0.59518015610E+00  0.21856227582E+02  0.10000000000E+01 0.  1.
        -13    1    6    6    0    0  0.25885812182E+02  0.13972358500E+02 -0.73518682612E+01  0.30321000417E+02  0.10500000000E+00 0.  1.
         13    1    6    6    0    0  0.88047520088E+01  0.47511581916E+01 -0.25399538762E+01  0.10322768659E+02  0.10500000000E+00 0. -1.
</event>
<event>
11    0  0.3483054E-009  0.9118800E+02  0.7816531E-02  0.1126479E+00
         25   -1    0    0    0    0  0.00000000000E+00  0.00000000000E+00  0.99999998245E-14  0.12500000000E+03  0.12500000000E+03 0.  0.
    3000001    1    3    3    0    0 -0.95525840112E+01  0.43799301510E+01  0.18997855813E+02  0.21733710564E+02  0.10000000000E+01 0. -1.
    1000022    2    1    0    0    0 -0.31066378643E+02  0.23641265513E+02  0.47772594057E+02  0.62500001278E+02  0.10000004990E+02 0.  0.
    3000022    2    3    3    0    0 -0.21513794632E+02  0.19261335362E+02  0.28774738244E+02  0.40766290714E+02  0.24999629377E+00 0.  0.
    1000022    2    1    0    0    0  0.31066378643E+02 -0.23641265513E+02 -0.47772594057E+02  0.62499998722E+02  0.99999890088E+01 0.  0.
    3000022    2    5    5    0    0  0.28879153351E+02 -0.24165542498E+02 -0.43213214140E+02  0.57318612221E+02  0.24997632081E+00 0.  0.
        -13    1    4    4    0    0 -0.11272995171E+02  0.10139715789E+02  0.15027303289E+02  0.21347719446E+02  0.10500000000E+00 0. -1.
         13    1    4    4    0    0 -0.10240799461E+02  0.91216195733E+01  0.13747434955E+02  0.19418571268E+02  0.10500000000E+00 0.  1.
    3000001    1    5    5    0    0  0.21872252929E+01  0.52427698524E+00 -0.45593799171E+01  0.51813865005E+01  0.10000000000E+01 0.  1.
        -13    1    6    6    0    0  0.15184802695E+02 -0.12791487203E+02 -0.22810222528E+02  0.30240992949E+02  0.10500000000E+00 0. -1.
         13    1    6    6    0    0  0.13694350655E+02 -0.11374055295E+02 -0.20402991612E+02  0.27077619272E+02  0.10500000000E+00 0.  1.
</event>
<event>
11    0  0.3483054E-009  0.9118800E+02  0.7816531E-02  0.1126479E+00
         25   -1    0    0    0    0  0.00000000000E+00  0.00000000000E+00  0.99999998245E-14  0.12500000000E+03  0.12500000000E+03 0.  0.
    3000001    1    3    3    0    0 -0.39416805109E+01 -0.27355159281E+02  0.21298845352E+02  0.34906767221E+02  0.10000000000E+01 0. -1.
    1000022    2    1    0    0    0 -0.14320042130E+02 -0.49953581290E+02  0.33253965434E+02  0.62499999331E+02  0.99999904514E+01 0.  0.
    3000022    2    3    3    0    0 -0.10378361619E+02 -0.22598422010E+02  0.11955120082E+02  0.27593232110E+02  0.24998977289E+00 0.  0.
    1000022    2    1    0    0    0  0.14320042130E+02  0.49953581290E+02 -0.33253965434E+02  0.62500000669E+02  0.99999988082E+01 0.  0.
    3000022    2    5    5    0    0  0.29411914625E+01  0.89784532614E+01 -0.18611637878E+01  0.96327390156E+01  0.25000022299E+00 0.  0.
        -13    1    4    4    0    0 -0.39872478334E+01 -0.86383477248E+01  0.46388081421E+01  0.10585308814E+02  0.10500000000E+00 0. -1.
         13    1    4    4    0    0 -0.63911137858E+01 -0.13960074285E+02  0.73163119398E+01  0.17007923297E+02  0.10500000000E+00 0.  1.
    3000001    1    5    5    0    0  0.11378850668E+02  0.40975128029E+02 -0.31392801646E+02  0.52867261653E+02  0.10000000000E+01 0.  1.
        -13    1    6    6    0    0  0.11320163961E+01  0.36516502330E+01 -0.77106121244E+00  0.39014831716E+01  0.10500000000E+00 0. -1.
         13    1    6    6    0    0  0.18091750663E+01  0.53268030284E+01 -0.10901025754E+01  0.57312558440E+01  0.10500000000E+00 0.  1.
</event>
<event>
11    0  0.3483054E-009  0.9118800E+02  0.7816531E-02  0.1126479E+00
         25   -1    0    0    0    0  0.00000000000E+00  0.00000000000E+00  0.99999998245E-14  0.12500000000E+03  0.12500000000E+03 0.  0.
    3000001    1    3    3    0    0  0.35115717200E+02 -0.26100887930E+02  0.34283461353E+02  0.55594295279E+02  0.10000000000E+01 0. -1.
    1000022    2    1    0    0    0  0.41317675763E+02 -0.28817700149E+02  0.35617977404E+02  0.62500002569E+02  0.99999917248E+01 0.  0.
    3000022    2    3    3    0    0  0.62019585630E+01 -0.27168122191E+01  0.13345160503E+01  0.69057072903E+01  0.25000287874E+00 0.  0.
    1000022    2    1    0    0    0 -0.41317675763E+02  0.28817700149E+02 -0.35617977404E+02  0.62499997431E+02  0.99999596112E+01 0.  0.
    3000022    2    5    5    0    0 -0.19601854102E+02  0.10420999614E+02 -0.20684664726E+02  0.30343826507E+02  0.25007010620E+00 0.  0.
        -13    1    4    4    0    0  0.32221198146E+01 -0.14827906235E+01  0.68133466479E+00  0.36133040362E+01  0.10500000000E+00 0. -1.
         13    1    4    4    0    0  0.29798387484E+01 -0.12340215957E+01  0.65318138549E+00  0.32924032540E+01  0.10500000000E+00 0.  1.
    3000001    1    5    5    0    0 -0.21715821661E+02  0.18396700534E+02 -0.14933312677E+02  0.32156170924E+02  0.10000000000E+01 0. -1.
        -13    1    6    6    0    0 -0.67932866234E+01  0.36688949805E+01 -0.72273738686E+01  0.10576175659E+02  0.10500000000E+00 0. -1.
         13    1    6    6    0    0 -0.12808567478E+02  0.67521046340E+01 -0.13457290858E+02  0.19767650848E+02  0.10500000000E+00 0.  1.
</event>
<event>
11    0  0.3483054E-009  0.9118800E+02  0.7816531E-02  0.1126479E+00
         25   -1    0    0    0    0  0.00000000000E+00  0.00000000000E+00  0.99999998245E-14  0.12500000000E+03  0.12500000000E+03 0.  0.
    3000001    1    3    3    0    0 -0.99867724371E+01 -0.10765414136E+01 -0.31658109347E+01  0.10579079544E+02  0.10000000000E+01 0.  1.
    1000022    2    1    0    0    0 -0.48311622828E+02 -0.11274820822E+02 -0.36675816155E+02  0.62500000184E+02  0.10000002375E+02 0.  0.
    3000022    2    3    3    0    0 -0.38324850391E+02 -0.10198279408E+02 -0.33510005220E+02  0.51920920640E+02  0.24997965810E+00 0.  0.
    1000022    2    1    0    0    0  0.48311622828E+02  0.11274820822E+02  0.36675816155E+02  0.62499999816E+02  0.10000000073E+02 0.  0.
    3000022    2    5    5    0    0  0.27857143534E+02  0.65902979608E+01  0.27073435429E+02  0.39401597420E+02  0.25000048043E+00 0.  0.
        -13    1    4    4    0    0 -0.13866738691E+02 -0.36312912840E+01 -0.12129832836E+02  0.18778087973E+02  0.10500000000E+00 0. -1.
         13    1    4    4    0    0 -0.24458111700E+02 -0.65669881242E+01 -0.21380172385E+02  0.33142832667E+02  0.10500000000E+00 0.  1.
    3000001    1    5    5    0    0  0.20454479294E+02  0.46845228610E+01  0.96023807266E+01  0.23098402396E+02  0.10000000000E+01 0. -1.
        -13    1    6    6    0    0  0.68075301397E+01  0.15874783935E+01  0.66074261365E+01  0.96193377839E+01  0.10500000000E+00 0. -1.
         13    1    6    6    0    0  0.21049613395E+02  0.50028195673E+01  0.20466009292E+02  0.29782259636E+02  0.10500000000E+00 0.  1.
</event>
<event>
11    0  0.3483054E-009  0.9118800E+02  0.7816531E-02  0.1126479E+00
         25   -1    0    0    0    0  0.00000000000E+00  0.00000000000E+00  0.99999998245E-14  0.12500000000E+03  0.12500000000E+03 0.  0.
    3000001    1    3    3    0    0 -0.35982539512E+02 -0.38759849730E+02 -0.11597598744E+02  0.54153239953E+02  0.10000000000E+01 0.  1.
    1000022    2    1    0    0    0 -0.38452005143E+02 -0.45659487686E+02 -0.15585403813E+02  0.62499997841E+02  0.99999701414E+01 0.  0.
    3000022    2    3    3    0    0 -0.24694656316E+01 -0.68996379561E+01 -0.39878050694E+01  0.83467578880E+01  0.25002707517E+00 0.  0.
    1000022    2    1    0    0    0  0.38452005143E+02  0.45659487686E+02  0.15585403813E+02  0.62500002159E+02  0.99999971247E+01 0.  0.
    3000022    2    5    5    0    0  0.12978066269E+01  0.24317192045E+01  0.30692058520E+01  0.41328054920E+01  0.24999268495E+00 0.  0.
        -13    1    4    4    0    0 -0.16980071577E+01 -0.46252412019E+01 -0.26417985196E+01  0.55916195240E+01  0.10500000000E+00 0. -1.
         13    1    4    4    0    0 -0.77145847389E+00 -0.22743967542E+01 -0.13460065499E+01  0.27551383640E+01  0.10500000000E+00 0.  1.
    3000001    1    5    5    0    0  0.37154198516E+02  0.43227768482E+02  0.12516197961E+02  0.58367196667E+02  0.10000000000E+01 0. -1.
        -13    1    6    6    0    0  0.70238341204E+00  0.13154334387E+01  0.17595419083E+01  0.23088352727E+01  0.10500000000E+00 0. -1.
         13    1    6    6    0    0  0.59542321482E+00  0.11162857658E+01  0.13096639437E+01  0.18239702193E+01  0.10500000000E+00 0.  1.
</event>
<event>
11    0  0.3483054E-009  0.9118800E+02  0.7816531E-02  0.1126479E+00
         25   -1    0    0    0    0  0.00000000000E+00  0.00000000000E+00  0.99999998245E-14  0.12500000000E+03  0.12500000000E+03 0.  0.
    3000001    1    3    3    0    0  0.13292881051E+01 -0.30661855939E+01  0.11556007536E+01  0.36747672123E+01  0.10000000000E+01 0. -1.
    1000022    2    1    0    0    0  0.16694354502E+02 -0.57214685356E+02 -0.15938258243E+02  0.62499998073E+02  0.99999995357E+01 0.  0.
    3000022    2    3    3    0    0  0.15365066397E+02 -0.54148499762E+02 -0.17093858996E+02  0.58825230861E+02  0.24995717932E+00 0.  0.
    1000022    2    1    0    0    0 -0.16694354502E+02  0.57214685356E+02  0.15938258243E+02  0.62500001927E+02  0.10000023620E+02 0.  0.
    3000022    2    5    5    0    0 -0.72746702379E+01  0.10560371178E+02  0.35582097923E+01  0.13310357867E+02  0.25000628726E+00 0.  0.
        -13    1    4    4    0    0  0.90713425862E+01 -0.31831654152E+02 -0.99975274302E+01  0.34576076152E+02  0.10500000000E+00 0.  1.
         13    1    4    4    0    0  0.62937238110E+01 -0.22316845610E+02 -0.70963315661E+01  0.24249154709E+02  0.10500000000E+00 0. -1.
    3000001    1    5    5    0    0 -0.94196842644E+01  0.46654314178E+02  0.12380048450E+02  0.49189644059E+02  0.10000000000E+01 0.  1.
        -13    1    6    6    0    0 -0.22036268260E+01  0.31295824294E+01  0.10387057365E+01  0.39673910796E+01  0.10500000000E+00 0. -1.
         13    1    6    6    0    0 -0.50710434119E+01  0.74307887486E+01  0.25195040557E+01  0.93429667878E+01  0.10500000000E+00 0.  1.
</event>
<event>
11    0  0.3483054E-009  0.9118800E+02  0.7816531E-02  0.1126479E+00
         25   -1    0    0    0    0  0.00000000000E+00  0.00000000000E+00  0.99999998245E-14  0.12500000000E+03  0.12500000000E+03 0.  0.
    3000001    1    3    3    0    0 -0.25144461598E+02 -0.12519700632E+02  0.12360459736E+02  0.30704524388E+02  0.10000000000E+01 0.  1.
    1000022    2    1    0    0    0 -0.48336834500E+02 -0.33139509631E+02  0.19276212462E+02  0.62500008347E+02  0.10000100420E+02 0.  0.
    3000022    2    3    3    0    0 -0.23192372901E+02 -0.20619808999E+02  0.69157527263E+01  0.31795483959E+02  0.24996093908E+00 0.  0.
    1000022    2    1    0    0    0  0.48336834500E+02  0.33139509631E+02 -0.19276212462E+02  0.62499991653E+02  0.99999960867E+01 0.  0.
    3000022    2    5    5    0    0  0.16867778084E+02  0.60957619325E+01 -0.63687191883E+01  0.19034267411E+02  0.25000150324E+00 0.  0.
        -13    1    4    4    0    0 -0.84326393907E+01 -0.74194636662E+01  0.24981427847E+01  0.11506936628E+02  0.10500000000E+00 0. -1.
         13    1    4    4    0    0 -0.14759733511E+02 -0.13200345333E+02  0.44176099416E+01  0.20288547331E+02  0.10500000000E+00 0.  1.
    3000001    1    5    5    0    0  0.31469056416E+02  0.27043747699E+02 -0.12907493274E+02  0.43465724242E+02  0.10000000000E+01 0.  1.
        -13    1    6    6    0    0  0.96296474611E+01  0.34723305094E+01 -0.35657649530E+01  0.10840336438E+02  0.10500000000E+00 0. -1.
         13    1    6    6    0    0  0.72381306225E+01  0.26234314231E+01 -0.28029542353E+01  0.81939309727E+01  0.10500000000E+00 0.  1.
</event>
<event>
11    0  0.3483054E-009  0.9118800E+02  0.7816531E-02  0.1126479E+00
         25   -1    0    0    0    0  0.00000000000E+00  0.00000000000E+00  0.99999998245E-14  0.12500000000E+03  0.12500000000E+03 0.  0.
    3000001    1    3    3    0    0 -0.10821677004E+01 -0.30556111659E+01 -0.56485746462E+01  0.65889484793E+01  0.10000000000E+01 0.  1.
    1000022    2    1    0    0    0 -0.34834155023E+02 -0.30389450089E+02 -0.40857216908E+02  0.62500006270E+02  0.10000078867E+02 0.  0.
    3000022    2    3    3    0    0 -0.33751987323E+02 -0.27333838923E+02 -0.35208642262E+02  0.55911057790E+02  0.24998961935E+00 0.  0.
    1000022    2    1    0    0    0  0.34834155023E+02  0.30389450089E+02  0.40857216908E+02  0.62499993730E+02  0.10000000498E+02 0.  0.
    3000022    2    5    5    0    0  0.17132864679E+02  0.87070028041E+01  0.14992763381E+02  0.24376062187E+02  0.25000797884E+00 0.  0.
        -13    1    4    4    0    0 -0.10741509780E+02 -0.87504760713E+01 -0.11191961601E+02  0.17810724109E+02  0.10500000000E+00 0.  1.
         13    1    4    4    0    0 -0.23010477543E+02 -0.18583362852E+02 -0.24016680661E+02  0.38100333681E+02  0.10500000000E+00 0. -1.
    3000001    1    5    5    0    0  0.17701290344E+02  0.21682447285E+02  0.25864453527E+02  0.38123931544E+02  0.10000000000E+01 0. -1.
        -13    1    6    6    0    0  0.93075705253E+01  0.47607784494E+01  0.82331617718E+01  0.13307586494E+02  0.10500000000E+00 0. -1.
         13    1    6    6    0    0  0.78252941537E+01  0.39462243547E+01  0.67596016089E+01  0.11068475693E+02  0.10500000000E+00 0.  1.
</event>
<event>
11    0  0.3483054E-009  0.9118800E+02  0.7816531E-02  0.1126479E+00
         25   -1    0    0    0    0  0.00000000000E+00  0.00000000000E+00  0.99999998245E-14  0.12500000000E+03  0.12500000000E+03 0.  0.
    3000001    1    3    3    0    0  0.13698668982E+01 -0.34721970998E+01 -0.24279758746E+02  0.24585348743E+02  0.10000000000E+01 0.  1.
    1000022    2    1    0    0    0  0.28459174904E+01  0.34081987804E+01 -0.61534823847E+02  0.62500002227E+02  0.10000033360E+02 0.  0.
    3000022    2    3    3    0    0  0.14760505923E+01  0.68803958802E+01 -0.37255065101E+02  0.37914653484E+02  0.25000071173E+00 0.  0.
    1000022    2    1    0    0    0 -0.28459174904E+01 -0.34081987804E+01  0.61534823847E+02  0.62499997773E+02  0.10000005523E+02 0.  0.
    3000022    2    5    5    0    0 -0.40923849359E+00 -0.44440629921E+01  0.56858188087E+02  0.57033614944E+02  0.25001810552E+00 0.  0.
        -13    1    4    4    0    0  0.97879729601E+00  0.47880460610E+01 -0.25855275950E+02  0.26313299844E+02  0.10500000000E+00 0. -1.
         13    1    4    4    0    0  0.49725329626E+00  0.20923498192E+01 -0.11399789151E+02  0.11601353641E+02  0.10500000000E+00 0.  1.
    3000001    1    5    5    0    0 -0.24366789968E+01  0.10358642117E+01  0.46766357598E+01  0.54663828286E+01  0.10000000000E+01 0. -1.
        -13    1    6    6    0    0 -0.18354445154E+00 -0.20854977800E+01  0.25824633179E+02  0.25909567603E+02  0.10500000000E+00 0.  1.
         13    1    6    6    0    0 -0.22569404205E+00 -0.23585652121E+01  0.31033554909E+02  0.31124047342E+02  0.10500000000E+00 0. -1.
</event>
<event>
11    0  0.3483054E-009  0.9118800E+02  0.7816531E-02  0.1126479E+00
         25   -1    0    0    0    0  0.00000000000E+00  0.00000000000E+00  0.99999998245E-14  0.12500000000E+03  0.12500000000E+03 0.  0.
    3000001    1    3    3    0    0 -0.67524131067E+01  0.38889279118E+02  0.17404942506E+02  0.43149775627E+02  0.10000000000E+01 0. -1.
    1000022    2    1    0    0    0 -0.14508550558E+02  0.56334651807E+02  0.20546519661E+02  0.62499987665E+02  0.99998977194E+01 0.  0.
    3000022    2    3    3    0    0 -0.77561374515E+01  0.17445372690E+02  0.31415771551E+01  0.19350212038E+02  0.25000487175E+00 0.  0.
    1000022    2    1    0    0    0  0.14508550558E+02 -0.56334651807E+02 -0.20546519661E+02  0.62500012335E+02  0.10000051907E+02 0.  0.
    3000022    2    5    5    0    0 -0.85007868952E-01 -0.17221397455E+02 -0.70998622937E+01  0.18629393374E+02  0.24999256297E+00 0.  0.
        -13    1    4    4    0    0 -0.19821283450E+01  0.44033131985E+01  0.81189541235E+00  0.48977749092E+01  0.10500000000E+00 0. -1.
         13    1    4    4    0    0 -0.57740091065E+01  0.13042059491E+02  0.23296817427E+01  0.14452437129E+02  0.10500000000E+00 0.  1.
    3000001    1    5    5    0    0  0.14593558427E+02 -0.39113254353E+02 -0.13446657367E+02  0.43870618960E+02  0.10000000000E+01 0. -1.
        -13    1    6    6    0    0 -0.82870399624E-01 -0.10699249380E+02 -0.44678515305E+01  0.11595409742E+02  0.10500000000E+00 0. -1.
         13    1    6    6    0    0 -0.21374693278E-02 -0.65221480751E+01 -0.26320107632E+01  0.70339836323E+01  0.10500000000E+00 0.  1.
</event>
<event>
11    0  0.3483054E-009  0.9118800E+02  0.7816531E-02  0.1126479E+00
         25   -1    0    0    0    0  0.00000000000E+00  0.00000000000E+00  0.99999998245E-14  0.12500000000E+03  0.12500000000E+03 0.  0.
    3000001    1    3    3    0    0 -0.38759650296E+01 -0.93813433904E+01 -0.24704969302E+02  0.26727667630E+02  0.10000000000E+01 0.  1.
    1000022    2    1    0    0    0 -0.13442917389E+02 -0.30656674152E+02 -0.51823799826E+02  0.62499999747E+02  0.10000002101E+02 0.  0.
    3000022    2    3    3    0    0 -0.95669523591E+01 -0.21275330762E+02 -0.27118830524E+02  0.35772332117E+02  0.24999933868E+00 0.  0.
    1000022    2    1    0    0    0  0.13442917389E+02  0.30656674152E+02  0.51823799826E+02  0.62500000253E+02  0.10000005262E+02 0.  0.
    3000022    2    5    5    0    0  0.40760175648E+01  0.15832323662E+02  0.32535410212E+02  0.36412797381E+02  0.25000749666E+00 0.  0.
        -13    1    4    4    0    0 -0.57575138160E+01 -0.12713698481E+02 -0.16145992186E+02  0.21342239411E+02  0.10500000000E+00 0.  1.
         13    1    4    4    0    0 -0.38094385431E+01 -0.85616322806E+01 -0.10972838338E+02  0.14430092706E+02  0.10500000000E+00 0. -1.
    3000001    1    5    5    0    0  0.93668998239E+01  0.14824350490E+02  0.19288389614E+02  0.26087202872E+02  0.10000000000E+01 0.  1.
        -13    1    6    6    0    0  0.14172550084E+01  0.56955103515E+01  0.11607069582E+02  0.13007018844E+02  0.10500000000E+00 0. -1.
         13    1    6    6    0    0  0.26587625564E+01  0.10136813311E+02  0.20928340630E+02  0.23405778537E+02  0.10500000000E+00 0.  1.
</event>
<event>
11    0  0.3483054E-009  0.9118800E+02  0.7816531E-02  0.1126479E+00
         25   -1    0    0    0    0  0.00000000000E+00  0.00000000000E+00  0.99999998245E-14  0.12500000000E+03  0.12500000000E+03 0.  0.
    3000001    1    3    3    0    0 -0.14904659850E+01 -0.66972808562E+00 -0.19994435484E-01  0.19158351543E+01  0.10000000000E+01 0.  1.
    1000022    2    1    0    0    0 -0.55011571702E+02  0.19589632808E+02 -0.19905358094E+02  0.62499996849E+02  0.99999795298E+01 0.  0.
    3000022    2    3    3    0    0 -0.53521105717E+02  0.20259360893E+02 -0.19885363659E+02  0.60584161694E+02  0.24999884992E+00 0.  0.
    1000022    2    1    0    0    0  0.55011571702E+02 -0.19589632808E+02  0.19905358094E+02  0.62500003151E+02  0.10000018921E+02 0.  0.
    3000022    2    5    5    0    0  0.45688084537E+02 -0.19826342632E+02  0.15705160192E+02  0.52222595556E+02  0.24999838855E+00 0.  0.
        -13    1    4    4    0    0 -0.39437991308E+02  0.14959232716E+02 -0.14673659143E+02  0.44659389825E+02  0.10500000000E+00 0. -1.
         13    1    4    4    0    0 -0.14083114408E+02  0.53001281779E+01 -0.52117045156E+01  0.15924771870E+02  0.10500000000E+00 0.  1.
    3000001    1    5    5    0    0  0.93234871651E+01  0.23670982390E+00  0.42001979021E+01  0.10277407595E+02  0.10000000000E+01 0. -1.
        -13    1    6    6    0    0  0.13986106741E+02 -0.60613968730E+01  0.47576301023E+01  0.15968650006E+02  0.10500000000E+00 0.  1.
         13    1    6    6    0    0  0.31701977795E+02 -0.13764945759E+02  0.10947530090E+02  0.36253945550E+02  0.10500000000E+00 0. -1.
</event>
<event>
11    0  0.3483054E-009  0.9118800E+02  0.7816531E-02  0.1126479E+00
         25   -1    0    0    0    0  0.00000000000E+00  0.00000000000E+00  0.99999998245E-14  0.12500000000E+03  0.12500000000E+03 0.  0.
    3000001    1    3    3    0    0  0.56633015794E+01  0.93863146007E+01  0.95454766854E+01  0.14570244051E+02  0.10000000000E+01 0.  1.
    1000022    2    1    0    0    0  0.37807526845E+02  0.28900726383E+02  0.39263072721E+02  0.62499999837E+02  0.10000001424E+02 0.  0.
    3000022    2    3    3    0    0  0.32144225266E+02  0.19514411783E+02  0.29717596036E+02  0.47929755786E+02  0.24998074755E+00 0.  0.
    1000022    2    1    0    0    0 -0.37807526845E+02 -0.28900726383E+02 -0.39263072721E+02  0.62500000163E+02  0.10000003460E+02 0.  0.
    3000022    2    5    5    0    0 -0.25864132659E+02 -0.21976188001E+02 -0.22321725875E+02  0.40623000152E+02  0.24999618936E+00 0.  0.
        -13    1    4    4    0    0  0.16118266150E+02  0.98634994203E+01  0.14947546178E+02  0.24094133855E+02  0.10500000000E+00 0. -1.
         13    1    4    4    0    0  0.16025959116E+02  0.96509123625E+01  0.14770049858E+02  0.23835621931E+02  0.10500000000E+00 0.  1.
    3000001    1    5    5    0    0 -0.11943394187E+02 -0.69245383824E+01 -0.16941346846E+02  0.21877000010E+02  0.10000000000E+01 0. -1.
        -13    1    6    6    0    0 -0.83551011595E+01 -0.71159158585E+01 -0.72778029993E+01  0.13168956503E+02  0.10500000000E+00 0. -1.
         13    1    6    6    0    0 -0.17509031499E+02 -0.14860272143E+02 -0.15043922876E+02  0.27454043649E+02  0.10500000000E+00 0.  1.
</event>
<event>
11    0  0.3483054E-009  0.9118800E+02  0.7816531E-02  0.1126479E+00
         25   -1    0    0    0    0  0.00000000000E+00  0.00000000000E+00  0.99999998245E-14  0.12500000000E+03  0.12500000000E+03 0.  0.
    3000001    1    3    3    0    0  0.48406404748E+02 -0.14548484192E+02 -0.18935388760E+02  0.53985066087E+02  0.10000000000E+01 0. -1.
    1000022    2    1    0    0    0  0.55103382026E+02 -0.13712480301E+02 -0.24121250977E+02  0.62499998541E+02  0.10000012113E+02 0.  0.
    3000022    2    3    3    0    0  0.66969772785E+01  0.83600389055E+00 -0.51858622166E+01  0.85149324548E+01  0.25000121399E+00 0.  0.
    1000022    2    1    0    0    0 -0.55103382026E+02  0.13712480301E+02  0.24121250977E+02  0.62500001459E+02  0.10000030345E+02 0.  0.
    3000022    2    5    5    0    0 -0.31888325049E+02  0.11327813801E+02  0.18099871566E+02  0.38377760377E+02  0.25000186582E+00 0.  0.
        -13    1    4    4    0    0  0.35692562034E+01  0.40144313492E+00 -0.28239807930E+01  0.45701902538E+01  0.10500000000E+00 0.  1.
         13    1    4    4    0    0  0.31277210751E+01  0.43456075563E+00 -0.23618814235E+01  0.39447422010E+01  0.10500000000E+00 0. -1.
    3000001    1    5    5    0    0 -0.23215056977E+02  0.23846665004E+01  0.60213794110E+01  0.24122241081E+02  0.10000000000E+01 0. -1.
        -13    1    6    6    0    0 -0.11272085310E+02  0.39646727296E+01  0.64400580530E+01  0.13574384325E+02  0.10500000000E+00 0. -1.
         13    1    6    6    0    0 -0.20616239739E+02  0.73631410715E+01  0.11659813513E+02  0.24803376052E+02  0.10500000000E+00 0.  1.
</event>
<event>
11    0  0.3483054E-009  0.9118800E+02  0.7816531E-02  0.1126479E+00
         25   -1    0    0    0    0  0.00000000000E+00  0.00000000000E+00  0.99999998245E-14  0.12500000000E+03  0.12500000000E+03 0.  0.
    3000001    1    3    3    0    0 -0.20416393612E+02  0.32563948447E+02  0.27133780075E+02  0.47058281819E+02  0.10000000000E+01 0.  1.
    1000022    2    1    0    0    0 -0.27361809131E+02  0.45809027516E+02  0.30969571967E+02  0.62500001655E+02  0.10000010910E+02 0.  0.
    3000022    2    3    3    0    0 -0.69454155195E+01  0.13245079069E+02  0.38357918921E+01  0.15441719836E+02  0.24999158851E+00 0.  0.
    1000022    2    1    0    0    0  0.27361809131E+02 -0.45809027516E+02 -0.30969571967E+02  0.62499998345E+02  0.99999902167E+01 0.  0.
    3000022    2    5    5    0    0  0.31009358209E+01 -0.12711903547E+02 -0.55308587768E+01  0.14207786575E+02  0.25001160394E+00 0.  0.
        -13    1    4    4    0    0 -0.47384518865E+01  0.89516039674E+01  0.26315493772E+01  0.10465190729E+02  0.10500000000E+00 0.  1.
         13    1    4    4    0    0 -0.22069636329E+01  0.42934751013E+01  0.12042425149E+01  0.49765291075E+01  0.10500000000E+00 0. -1.
    3000001    1    5    5    0    0  0.24260873310E+02 -0.33097123969E+02 -0.25438713191E+02  0.48292211770E+02  0.10000000000E+01 0.  1.
        -13    1    6    6    0    0  0.19831971543E+01 -0.78827513766E+01 -0.34528165422E+01  0.88319764092E+01  0.10500000000E+00 0.  1.
         13    1    6    6    0    0  0.11177386666E+01 -0.48291521699E+01 -0.20780422346E+01  0.53758101655E+01  0.10500000000E+00 0. -1.
</event>
<event>
11    0  0.3483054E-009  0.9118800E+02  0.7816531E-02  0.1126479E+00
         25   -1    0    0    0    0  0.00000000000E+00  0.00000000000E+00  0.99999998245E-14  0.12500000000E+03  0.12500000000E+03 0.  0.
    3000001    1    3    3    0    0 -0.35489713050E+02  0.47682876945E+02  0.13562392056E+02  0.60976347582E+02  0.10000000000E+01 0.  1.
    1000022    2    1    0    0    0 -0.35130662534E+02  0.48521301324E+02  0.14757024033E+02  0.62500001842E+02  0.10000016979E+02 0.  0.
    3000022    2    3    3    0    0  0.35905051600E+00  0.83842437942E+00  0.11946319770E+01  0.15236542598E+01  0.25000805944E+00 0.  0.
    1000022    2    1    0    0    0  0.35130662534E+02 -0.48521301324E+02 -0.14757024033E+02  0.62499998158E+02  0.99999939591E+01 0.  0.
    3000022    2    5    5    0    0  0.33110513976E+02 -0.41241465472E+02 -0.14642464753E+02  0.54878309759E+02  0.24999575152E+00 0.  0.
        -13    1    4    4    0    0  0.14604240549E+00  0.34658680694E+00  0.60370878954E+00  0.71898546684E+00  0.10500000000E+00 0. -1.
         13    1    4    4    0    0  0.21300811051E+00  0.49183757247E+00  0.59092318747E+00  0.80466879294E+00  0.10500000000E+00 0.  1.
    3000001    1    5    5    0    0  0.20201485575E+01 -0.72798358520E+01 -0.11455928036E+00  0.76216883992E+01  0.10000000000E+01 0. -1.
        -13    1    6    6    0    0  0.18299019472E+02 -0.22850062759E+02 -0.80466771149E+01  0.30360163361E+02  0.10500000000E+00 0.  1.
         13    1    6    6    0    0  0.14811494504E+02 -0.18391402714E+02 -0.65957876381E+01  0.24518146398E+02  0.10500000000E+00 0. -1.
</event>
<event>
11    0  0.3483054E-009  0.9118800E+02  0.7816531E-02  0.1126479E+00
         25   -1    0    0    0    0  0.00000000000E+00  0.00000000000E+00  0.99999998245E-14  0.12500000000E+03  0.12500000000E+03 0.  0.
    3000001    1    3    3    0    0 -0.13259307199E+02  0.13530735220E+02 -0.94243399440E+01  0.21182733685E+02  0.10000000000E+01 0.  1.
    1000022    2    1    0    0    0 -0.41784831029E+02  0.42957362029E+02 -0.14660908228E+02  0.62499994275E+02  0.99999998864E+01 0.  0.
    3000022    2    3    3    0    0 -0.28525523829E+02  0.29426626809E+02 -0.52365682836E+01  0.41317260590E+02  0.25000030551E+00 0.  0.
    1000022    2    1    0    0    0  0.41784831029E+02 -0.42957362029E+02  0.14660908228E+02  0.62500005725E+02  0.10000071452E+02 0.  0.
    3000022    2    5    5    0    0  0.98104858141E+01 -0.10072630073E+02 -0.80395663929E+00  0.14085892153E+02  0.25000591032E+00 0.  0.
        -13    1    4    4    0    0 -0.11716334031E+02  0.12016426467E+02 -0.21026918249E+01  0.16914470907E+02  0.10500000000E+00 0. -1.
         13    1    4    4    0    0 -0.16809189798E+02  0.17410200342E+02 -0.31338764586E+01  0.24402789682E+02  0.10500000000E+00 0.  1.
    3000001    1    5    5    0    0  0.31974345214E+02 -0.32884731955E+02  0.15464864867E+02  0.48414113573E+02  0.10000000000E+01 0. -1.
        -13    1    6    6    0    0  0.40899324698E+01 -0.42919884672E+01 -0.33375804247E+00  0.59389504158E+01  0.10500000000E+00 0.  1.
         13    1    6    6    0    0  0.57205533442E+01 -0.57806416062E+01 -0.47019859682E+00  0.81469417369E+01  0.10500000000E+00 0. -1.
</event>
<event>
11    0  0.3483054E-009  0.9118800E+02  0.7816531E-02  0.1126479E+00
         25   -1    0    0    0    0  0.00000000000E+00  0.00000000000E+00  0.99999998245E-14  0.12500000000E+03  0.12500000000E+03 0.  0.
    3000001    1    3    3    0    0 -0.13661120292E+02  0.52625981263E+02 -0.29753772937E+02  0.61987152827E+02  0.10000000000E+01 0.  1.
    1000022    2    1    0    0    0 -0.13840501006E+02  0.52218150950E+02 -0.29798576655E+02  0.62499999383E+02  0.99999997723E+01 0.  0.
    3000022    2    3    3    0    0 -0.17938071413E+00 -0.40783031306E+00 -0.44803717705E-01  0.51284655627E+00  0.25000242460E+00 0.  0.
    1000022    2    1    0    0    0  0.13840501006E+02 -0.52218150950E+02  0.29798576655E+02  0.62500000617E+02  0.10000007487E+02 0.  0.
    3000022    2    5    5    0    0  0.10579248275E+02 -0.48464759669E+02  0.28699732654E+02  0.57310475242E+02  0.24998834221E+00 0.  0.
        -13    1    4    4    0    0 -0.32946962768E-01 -0.23715189595E+00 -0.40924147412E-01  0.26462484757E+00  0.10500000000E+00 0. -1.
         13    1    4    4    0    0 -0.14643375136E+00 -0.17067841711E+00 -0.38795702928E-02  0.24822170870E+00  0.10500000000E+00 0.  1.
    3000001    1    5    5    0    0  0.32612527308E+01 -0.37533912813E+01  0.10988440006E+01  0.51895253754E+01  0.10000000000E+01 0.  1.
        -13    1    6    6    0    0  0.51715502337E+01 -0.23522403730E+02  0.13867778858E+02  0.27791630476E+02  0.10500000000E+00 0. -1.
         13    1    6    6    0    0  0.54076980415E+01 -0.24942355939E+02  0.14831953796E+02  0.29518844766E+02  0.10500000000E+00 0.  1.
</event>
<event>
11    0  0.3483054E-009  0.9118800E+02  0.7816531E-02  0.1126479E+00
         25   -1    0    0    0    0  0.00000000000E+00  0.00000000000E+00  0.99999998245E-14  0.12500000000E+03  0.12500000000E+03 0.  0.
    3000001    1    3    3    0    0 -0.54774935558E+01 -0.14605734079E+01  0.89734024085E+01  0.10661058161E+02  0.10000000000E+01 0. -1.
    1000022    2    1    0    0    0 -0.46898627004E+02 -0.13170753043E+02  0.37858948615E+02  0.62499999852E+02  0.10000002038E+02 0.  0.
    3000022    2    3    3    0    0 -0.41421133448E+02 -0.11710179635E+02  0.28885546206E+02  0.51838941691E+02  0.24998561360E+00 0.  0.
    1000022    2    1    0    0    0  0.46898627004E+02  0.13170753043E+02 -0.37858948615E+02  0.62500000148E+02  0.10000003883E+02 0.  0.
    3000022    2    5    5    0    0  0.39985937172E+02  0.95260207519E+01 -0.35396605902E+02  0.54245759672E+02  0.24998037831E+00 0.  0.
        -13    1    4    4    0    0 -0.22546023631E+02 -0.63047490347E+01  0.15717504135E+02  0.28197943244E+02  0.10500000000E+00 0.  1.
         13    1    4    4    0    0 -0.18875109817E+02 -0.54054306002E+01  0.13168042072E+02  0.23640998447E+02  0.10500000000E+00 0. -1.
    3000001    1    5    5    0    0  0.69126898320E+01  0.36447322908E+01 -0.24623427130E+01  0.82542404751E+01  0.10000000000E+01 0. -1.
        -13    1    6    6    0    0  0.28089158978E+02  0.67191879304E+01 -0.24918447690E+02  0.38145620965E+02  0.10500000000E+00 0. -1.
         13    1    6    6    0    0  0.11896778194E+02  0.28068328215E+01 -0.10478158212E+02  0.16100138707E+02  0.10500000000E+00 0.  1.
</event>
<event>
11    0  0.3483054E-009  0.9118800E+02  0.7816531E-02  0.1126479E+00
         25   -1    0    0    0    0  0.00000000000E+00  0.00000000000E+00  0.99999998245E-14  0.12500000000E+03  0.12500000000E+03 0.  0.
    3000001    1    3    3    0    0  0.14735849323E+02  0.27915311138E+02  0.87874780077E+00  0.31594019195E+02  0.10000000000E+01 0. -1.
    1000022    2    1    0    0    0  0.36628303583E+02  0.49457483321E+02  0.43098425027E+01  0.62500000107E+02  0.99999995547E+01 0.  0.
    3000022    2    3    3    0    0  0.21892454260E+02  0.21542172183E+02  0.34310947019E+01  0.30905980912E+02  0.25001872105E+00 0.  0.
    1000022    2    1    0    0    0 -0.36628303583E+02 -0.49457483321E+02 -0.43098425027E+01  0.62499999893E+02  0.99999982223E+01 0.  0.
    3000022    2    5    5    0    0 -0.28075411140E+02 -0.31498611837E+02 -0.36806567816E+00  0.42197028715E+02  0.25000344702E+00 0.  0.
        -13    1    4    4    0    0  0.16462729880E+02  0.16233841355E+02  0.25846184428E+01  0.23264787937E+02  0.10500000000E+00 0.  1.
         13    1    4    4    0    0  0.54297243795E+01  0.53083308285E+01  0.84647625918E+00  0.76411929749E+01  0.10500000000E+00 0. -1.
    3000001    1    5    5    0    0 -0.85528924437E+01 -0.17958871484E+02 -0.39417768246E+01  0.20302971178E+02  0.10000000000E+01 0.  1.
        -13    1    6    6    0    0 -0.13501165865E+02 -0.15111844134E+02 -0.24015847335E+00  0.20266179066E+02  0.10500000000E+00 0.  1.
         13    1    6    6    0    0 -0.14574245274E+02 -0.16386767703E+02 -0.12790720481E+00  0.21930849649E+02  0.10500000000E+00 0. -1.
</event>
<event>
11    0  0.3483054E-009  0.9118800E+02  0.7816531E-02  0.1126479E+00
         25   -1    0    0    0    0  0.00000000000E+00  0.00000000000E+00  0.99999998245E-14  0.12500000000E+03  0.12500000000E+03 0.  0.
    3000001    1    3    3    0    0  0.21239303544E+02  0.14337882365E+02  0.18306595692E+02  0.31508956371E+02  0.10000000000E+01 0.  1.
    1000022    2    1    0    0    0  0.39152317598E+02  0.21487296400E+02  0.42563390548E+02  0.62500000084E+02  0.99999957869E+01 0.  0.
    3000022    2    3    3    0    0  0.17913014054E+02  0.71494140349E+01  0.24256794856E+02  0.30991043713E+02  0.25000045908E+00 0.  0.
    1000022    2    1    0    0    0 -0.39152317598E+02 -0.21487296400E+02 -0.42563390548E+02  0.62499999916E+02  0.99999947354E+01 0.  0.
    3000022    2    5    5    0    0 -0.30827321415E+01 -0.35951511621E+01 -0.85764458761E+01  0.98003199898E+01  0.24999740452E+00 0.  0.
        -13    1    4    4    0    0  0.12487599295E+02  0.49826725179E+01  0.16833706879E+02  0.21544184224E+02  0.10500000000E+00 0.  1.
         13    1    4    4    0    0  0.54254147582E+01  0.21667415170E+01  0.74230879769E+01  0.94468594895E+01  0.10500000000E+00 0. -1.
    3000001    1    5    5    0    0 -0.36069585456E+02 -0.17892145238E+02 -0.33986944672E+02  0.52699679926E+02  0.10000000000E+01 0. -1.
        -13    1    6    6    0    0 -0.17622313782E+01 -0.19981071842E+01 -0.49355343187E+01  0.56096716269E+01  0.10500000000E+00 0.  1.
         13    1    6    6    0    0 -0.13205007633E+01 -0.15970439779E+01 -0.36409115573E+01  0.41906483629E+01  0.10500000000E+00 0. -1.
</event>
<event>
11    0  0.3483054E-009  0.9118800E+02  0.7816531E-02  0.1126479E+00
         25   -1    0    0    0    0  0.00000000000E+00  0.00000000000E+00  0.99999998245E-14  0.12500000000E+03  0.12500000000E+03 0.  0.
    3000001    1    3    3    0    0  0.45531640376E+02 -0.24709307255E+02 -0.12102487017E+02  0.53208555067E+02  0.10000000000E+01 0. -1.
    1000022    2    1    0    0    0  0.54462582035E+02 -0.25018117291E+02 -0.14634568517E+02  0.62500003549E+02  0.10000040664E+02 0.  0.
    3000022    2    3    3    0    0  0.89309416586E+01 -0.30881003598E+00 -0.25320815004E+01  0.92914484818E+01  0.24999123485E+00 0.  0.
    1000022    2    1    0    0    0 -0.54462582035E+02  0.25018117291E+02  0.14634568517E+02  0.62499996451E+02  0.99999962999E+01 0.  0.
    3000022    2    5    5    0    0 -0.52688665704E+02  0.22332525035E+02  0.12718337910E+02  0.58622997011E+02  0.24998252736E+00 0.  0.
        -13    1    4    4    0    0  0.45742024427E+01 -0.90708768129E-01 -0.12891985193E+01  0.47544309743E+01  0.10500000000E+00 0. -1.
         13    1    4    4    0    0  0.43567392159E+01 -0.21810126785E+00 -0.12428829811E+01  0.45370175075E+01  0.10500000000E+00 0.  1.
    3000001    1    5    5    0    0 -0.17739163307E+01  0.26855922565E+01  0.19162306076E+01  0.38769994401E+01  0.10000000000E+01 0.  1.
        -13    1    6    6    0    0 -0.26097642067E+02  0.11120811941E+02  0.62633315515E+01  0.29051673391E+02  0.10500000000E+00 0. -1.
         13    1    6    6    0    0 -0.26591023637E+02  0.11211713093E+02  0.64550063581E+01  0.29571323620E+02  0.10500000000E+00 0.  1.
</event>
<event>
11    0  0.3483054E-009  0.9118800E+02  0.7816531E-02  0.1126479E+00
         25   -1    0    0    0    0  0.00000000000E+00  0.00000000000E+00  0.99999998245E-14  0.12500000000E+03  0.12500000000E+03 0.  0.
    3000001    1    3    3    0    0  0.40385724515E+01  0.47542651286E+01  0.28869465270E+01  0.69460466893E+01  0.10000000000E+01 0.  1.
    1000022    2    1    0    0    0  0.49487761820E+02  0.36698479312E+02  0.32300254878E+01  0.62500000940E+02  0.10000004952E+02 0.  0.
    3000022    2    3    3    0    0  0.45449189368E+02  0.31944214184E+02  0.34307896081E+00  0.55553954250E+02  0.24999127807E+00 0.  0.
    1000022    2    1    0    0    0 -0.49487761820E+02 -0.36698479312E+02 -0.32300254878E+01  0.62499999060E+02  0.99999932075E+01 0.  0.
    3000022    2    5    5    0    0 -0.46906713200E+02 -0.36309222589E+02 -0.17660411137E+01  0.59344593694E+02  0.25002269988E+00 0.  0.
        -13    1    4    4    0    0  0.16480407593E+02  0.11609976825E+02  0.17880858640E+00  0.20160317305E+02  0.10500000000E+00 0. -1.
         13    1    4    4    0    0  0.28968781775E+02  0.20334237358E+02  0.16427037441E+00  0.35393636945E+02  0.10500000000E+00 0.  1.
    3000001    1    5    5    0    0 -0.25810486201E+01 -0.38925672334E+00 -0.14639843741E+01  0.31554053660E+01  0.10000000000E+01 0. -1.
        -13    1    6    6    0    0 -0.26267247175E+02 -0.20272976675E+02 -0.10342281098E+01  0.33197025623E+02  0.10500000000E+00 0.  1.
         13    1    6    6    0    0 -0.20639466024E+02 -0.16036245914E+02 -0.73181300395E+00  0.26147568072E+02  0.10500000000E+00 0. -1.
</event>
<event>
11    0  0.3483054E-009  0.9118800E+02  0.7816531E-02  0.1126479E+00
         25   -1    0    0    0    0  0.00000000000E+00  0.00000000000E+00  0.99999998245E-14  0.12500000000E+03  0.12500000000E+03 0.  0.
    3000001    1    3    3    0    0 -0.59171149513E+01 -0.80952511718E+01  0.38574700956E+01  0.10790061002E+02  0.10000000000E+01 0.  1.
    1000022    2    1    0    0    0 -0.40449848914E+02 -0.46539860389E+02  0.20250999245E+01  0.62499999836E+02  0.10000003376E+02 0.  0.
    3000022    2    3    3    0    0 -0.34532733963E+02 -0.38444609218E+02 -0.18323701710E+01  0.51709938834E+02  0.25000188005E+00 0.  0.
    1000022    2    1    0    0    0  0.40449848914E+02  0.46539860389E+02 -0.20250999245E+01  0.62500000164E+02  0.10000005429E+02 0.  0.
    3000022    2    5    5    0    0  0.30954789085E+02  0.28734581003E+02 -0.51099013920E+00  0.42239776483E+02  0.24998730960E+00 0.  0.
        -13    1    4    4    0    0 -0.20862009495E+02 -0.23162947630E+02 -0.11522647396E+01  0.31194299513E+02  0.10500000000E+00 0.  1.
         13    1    4    4    0    0 -0.13670724468E+02 -0.15281661588E+02 -0.68010543147E+00  0.20515639321E+02  0.10500000000E+00 0. -1.
    3000001    1    5    5    0    0  0.94950598286E+01  0.17805279387E+02 -0.15141097853E+01  0.20260223682E+02  0.10000000000E+01 0. -1.
        -13    1    6    6    0    0  0.11248048656E+02  0.10499240464E+02 -0.22670638002E+00  0.15388796889E+02  0.10500000000E+00 0.  1.
         13    1    6    6    0    0  0.19706740429E+02  0.18235340539E+02 -0.28428375917E+00  0.26850979594E+02  0.10500000000E+00 0. -1.
</event>
<event>
11    0  0.3483054E-009  0.9118800E+02  0.7816531E-02  0.1126479E+00
         25   -1    0    0    0    0  0.00000000000E+00  0.00000000000E+00  0.99999998245E-14  0.12500000000E+03  0.12500000000E+03 0.  0.
    3000001    1    3    3    0    0  0.32669874808E-02  0.15698869160E+02  0.13463942396E+02  0.20705850584E+02  0.10000000000E+01 0.  1.
    1000022    2    1    0    0    0  0.37185682222E+01  0.36994662297E+02  0.49232280604E+02  0.62499998313E+02  0.99999773757E+01 0.  0.
    3000022    2    3    3    0    0  0.37153012347E+01  0.21295793137E+02  0.35768338209E+02  0.41794147729E+02  0.24999514877E+00 0.  0.
    1000022    2    1    0    0    0 -0.37185682222E+01 -0.36994662297E+02 -0.49232280604E+02  0.62500001687E+02  0.99999984627E+01 0.  0.
    3000022    2    5    5    0    0 -0.38966570843E+00 -0.33418036540E+02 -0.44220394307E+02  0.55429439615E+02  0.24999566157E+00 0.  0.
        -13    1    4    4    0    0  0.22191357554E+01  0.12368788556E+02  0.20746471200E+02  0.24255691828E+02  0.10500000000E+00 0. -1.
         13    1    4    4    0    0  0.14961654794E+01  0.89270045816E+01  0.15021867009E+02  0.17538455901E+02  0.10500000000E+00 0.  1.
    3000001    1    5    5    0    0 -0.33289025138E+01 -0.35766257572E+01 -0.50118862974E+01  0.70705620718E+01  0.10000000000E+01 0.  1.
        -13    1    6    6    0    0 -0.29577669331E+00 -0.25454368093E+02 -0.33652212698E+02  0.42195909557E+02  0.10500000000E+00 0. -1.
         13    1    6    6    0    0 -0.93889015121E-01 -0.79636684471E+01 -0.10568181609E+02  0.13233530058E+02  0.10500000000E+00 0.  1.
</event>
<event>
11    0  0.3483054E-009  0.9118800E+02  0.7816531E-02  0.1126479E+00
         25   -1    0    0    0    0  0.00000000000E+00  0.00000000000E+00  0.99999998245E-14  0.12500000000E+03  0.12500000000E+03 0.  0.
    3000001    1    3    3    0    0  0.10321559136E+02 -0.32886913776E+02 -0.22671553278E+00  0.34483837962E+02  0.10000000000E+01 0. -1.
    1000022    2    1    0    0    0  0.11696001240E+02 -0.60364351001E+02  0.50595091223E+01  0.62499999786E+02  0.10000001195E+02 0.  0.
    3000022    2    3    3    0    0  0.13744421044E+01 -0.27477437225E+02  0.52862246551E+01  0.28016161823E+02  0.25000929247E+00 0.  0.
    1000022    2    1    0    0    0 -0.11696001240E+02  0.60364351001E+02 -0.50595091223E+01  0.62500000214E+02  0.10000003874E+02 0.  0.
    3000022    2    5    5    0    0 -0.69789310390E+01  0.53162083330E+02 -0.47166030047E+01  0.53825843455E+02  0.24999458667E+00 0.  0.
        -13    1    4    4    0    0  0.72230676183E+00 -0.13304026362E+02  0.25976475654E+01  0.13574890142E+02  0.10500000000E+00 0. -1.
         13    1    4    4    0    0  0.65213534259E+00 -0.14173410863E+02  0.26885770897E+01  0.14441271681E+02  0.10500000000E+00 0.  1.
    3000001    1    5    5    0    0 -0.47170702012E+01  0.72022676711E+01 -0.34290611757E+00  0.86741567599E+01  0.10000000000E+01 0.  1.
        -13    1    6    6    0    0 -0.34706800808E+01  0.26850282819E+02 -0.24231693826E+01  0.27182091210E+02  0.10500000000E+00 0. -1.
         13    1    6    6    0    0 -0.35082509581E+01  0.26311800510E+02 -0.22934336222E+01  0.26643752244E+02  0.10500000000E+00 0.  1.
</event>
<event>
11    0  0.3483054E-009  0.9118800E+02  0.7816531E-02  0.1126479E+00
         25   -1    0    0    0    0  0.00000000000E+00  0.00000000000E+00  0.99999998245E-14  0.12500000000E+03  0.12500000000E+03 0.  0.
    3000001    1    3    3    0    0  0.20938648813E+01 -0.68638962447E+01  0.10835194803E+02  0.13034522938E+02  0.10000000000E+01 0.  1.
    1000022    2    1    0    0    0  0.15079478399E+02 -0.15540216848E+02  0.57769896876E+02  0.62500000343E+02  0.10000002463E+02 0.  0.
    3000022    2    3    3    0    0  0.12985613518E+02 -0.86763206036E+01  0.46934702073E+02  0.49465477405E+02  0.24999705129E+00 0.  0.
    1000022    2    1    0    0    0 -0.15079478399E+02  0.15540216848E+02 -0.57769896876E+02  0.62499999657E+02  0.99999981801E+01 0.  0.
    3000022    2    5    5    0    0 -0.11357671586E+02  0.71091476910E+01 -0.24080532885E+02  0.27558505425E+02  0.24994491383E+00 0.  0.
        -13    1    4    4    0    0  0.75092708297E+01 -0.50950277914E+01  0.27258430909E+02  0.28729454175E+02  0.10500000000E+00 0. -1.
         13    1    4    4    0    0  0.54763426880E+01 -0.35812928122E+01  0.19676271164E+02  0.20736023230E+02  0.10500000000E+00 0.  1.
    3000001    1    5    5    0    0 -0.37218068129E+01  0.84310691573E+01 -0.33689363991E+02  0.34941494233E+02  0.10000000000E+01 0.  1.
        -13    1    6    6    0    0 -0.53437872449E+01  0.33362844224E+01 -0.11459685485E+02  0.13077548405E+02  0.10500000000E+00 0.  1.
         13    1    6    6    0    0 -0.60138843412E+01  0.37728632685E+01 -0.12620847400E+02  0.14480957020E+02  0.10500000000E+00 0. -1.
</event>
<event>
11    0  0.3483054E-009  0.9118800E+02  0.7816531E-02  0.1126479E+00
         25   -1    0    0    0    0  0.00000000000E+00  0.00000000000E+00  0.99999998245E-14  0.12500000000E+03  0.12500000000E+03 0.  0.
    3000001    1    3    3    0    0  0.97616582898E+01  0.22606385513E+01 -0.22689403636E+02  0.24823567362E+02  0.10000000000E+01 0.  1.
    1000022    2    1    0    0    0  0.34578145416E+02  0.76967728537E+01 -0.50511004422E+02  0.62499999717E+02  0.99999972094E+01 0.  0.
    3000022    2    3    3    0    0  0.24816487126E+02  0.54361343023E+01 -0.27821600786E+02  0.37676432355E+02  0.24999058644E+00 0.  0.
    1000022    2    1    0    0    0 -0.34578145416E+02 -0.76967728537E+01  0.50511004422E+02  0.62500000283E+02  0.10000000745E+02 0.  0.
    3000022    2    5    5    0    0 -0.26388520037E+01  0.20858222936E+01  0.41003316676E+01  0.53093701326E+01  0.24999376556E+00 0.  0.
        -13    1    4    4    0    0  0.16252262296E+02  0.36161482942E+01 -0.18247401738E+02  0.24702049579E+02  0.10500000000E+00 0.  1.
         13    1    4    4    0    0  0.85642248302E+01  0.18199860082E+01 -0.95741990481E+01  0.12974382776E+02  0.10500000000E+00 0. -1.
    3000001    1    5    5    0    0 -0.31939293412E+02 -0.97825951472E+01  0.46410672754E+02  0.57190630150E+02  0.10000000000E+01 0. -1.
        -13    1    6    6    0    0 -0.18102266426E+01  0.14844722125E+01  0.28821171422E+01  0.37145931767E+01  0.10500000000E+00 0.  1.
         13    1    6    6    0    0 -0.82862536112E+00  0.60135008102E+00  0.12182145254E+01  0.15947769559E+01  0.10500000000E+00 0. -1.
</event>
<event>
11    0  0.3483054E-009  0.9118800E+02  0.7816531E-02  0.1126479E+00
         25   -1    0    0    0    0  0.00000000000E+00  0.00000000000E+00  0.99999998245E-14  0.12500000000E+03  0.12500000000E+03 0.  0.
    3000001    1    3    3    0    0  0.10811115736E+02  0.27279159895E+02  0.17967242080E+02  0.34421716633E+02  0.10000000000E+01 0.  1.
    1000022    2    1    0    0    0  0.24090247680E+02  0.50993564228E+02  0.25011325468E+02  0.62499998796E+02  0.99999910922E+01 0.  0.
    3000022    2    3    3    0    0  0.13279131945E+02  0.23714404333E+02  0.70440833879E+01  0.28078282163E+02  0.25000069705E+00 0.  0.
    1000022    2    1    0    0    0 -0.24090247680E+02 -0.50993564228E+02 -0.25011325468E+02  0.62500001204E+02  0.10000006144E+02 0.  0.
    3000022    2    5    5    0    0 -0.24108963285E+02 -0.44538528498E+02 -0.20946088470E+02  0.54806238250E+02  0.24999492641E+00 0.  0.
        -13    1    4    4    0    0  0.51310824054E+01  0.91281269631E+01  0.27749247247E+01  0.10833371624E+02  0.10500000000E+00 0. -1.
         13    1    4    4    0    0  0.81480495393E+01  0.14586277370E+02  0.42691586631E+01  0.17244910539E+02  0.10500000000E+00 0.  1.
    3000001    1    5    5    0    0  0.18715604660E-01 -0.64550357303E+01 -0.40652369973E+01  0.76937629543E+01  0.10000000000E+01 0. -1.
        -13    1    6    6    0    0 -0.11128471747E+02 -0.20528037076E+02 -0.97283402929E+01  0.25296142383E+02  0.10500000000E+00 0. -1.
         13    1    6    6    0    0 -0.12980491539E+02 -0.24010491422E+02 -0.11217748177E+02  0.29510095867E+02  0.10500000000E+00 0.  1.
</event>
<event>
11    0  0.3483054E-009  0.9118800E+02  0.7816531E-02  0.1126479E+00
         25   -1    0    0    0    0  0.00000000000E+00  0.00000000000E+00  0.99999998245E-14  0.12500000000E+03  0.12500000000E+03 0.  0.
    3000001    1    3    3    0    0  0.93606715358E+01  0.40183340109E+01 -0.60793012229E+01  0.11904918445E+02  0.10000000000E+01 0.  1.
    1000022    2    1    0    0    0  0.38308580968E+02  0.12820930843E+02 -0.46629673411E+02  0.62500000800E+02  0.10000000706E+02 0.  0.
    3000022    2    3    3    0    0  0.28947909433E+02  0.88025968325E+01 -0.40550372188E+02  0.50595082355E+02  0.25000486056E+00 0.  0.
    1000022    2    1    0    0    0 -0.38308580968E+02 -0.12820930843E+02  0.46629673411E+02  0.62499999200E+02  0.99999907005E+01 0.  0.
    3000022    2    5    5    0    0 -0.20859354419E+02 -0.52840610528E+01  0.31677579068E+02  0.38295763234E+02  0.24999620483E+00 0.  0.
        -13    1    4    4    0    0  0.14107804180E+02  0.42353301474E+01 -0.19813096994E+02  0.24688823337E+02  0.10500000000E+00 0.  1.
         13    1    4    4    0    0  0.14840105253E+02  0.45672666851E+01 -0.20737275194E+02  0.25906259019E+02  0.10500000000E+00 0. -1.
    3000001    1    5    5    0    0 -0.17449226550E+02 -0.75368697906E+01  0.14952094343E+02  0.24204235965E+02  0.10000000000E+01 0. -1.
        -13    1    6    6    0    0 -0.48470577323E+01 -0.12371228652E+01  0.73774820888E+01  0.89141858077E+01  0.10500000000E+00 0.  1.
         13    1    6    6    0    0 -0.16012296686E+02 -0.40469381876E+01  0.24300096979E+02  0.29381577426E+02  0.10500000000E+00 0. -1.
</event>
<event>
11    0  0.3483054E-009  0.9118800E+02  0.7816531E-02  0.1126479E+00
         25   -1    0    0    0    0  0.00000000000E+00  0.00000000000E+00  0.99999998245E-14  0.12500000000E+03  0.12500000000E+03 0.  0.
    3000001    1    3    3    0    0  0.12728891437E+02  0.60263781356E+01 -0.42870242992E+02  0.45135348064E+02  0.10000000000E+01 0. -1.
    1000022    2    1    0    0    0  0.22743751789E+02  0.10124430062E+02 -0.56448801115E+02  0.62500001865E+02  0.10000037813E+02 0.  0.
    3000022    2    3    3    0    0  0.10014860352E+02  0.40980519265E+01 -0.13578558122E+02  0.17364653800E+02  0.25000694111E+00 0.  0.
    1000022    2    1    0    0    0 -0.22743751789E+02 -0.10124430062E+02  0.56448801115E+02  0.62499998135E+02  0.10000014504E+02 0.  0.
    3000022    2    5    5    0    0  0.33434259881E+00 -0.78656027629E+00  0.10955362034E+00  0.89719737946E+00  0.24999820072E+00 0.  0.
        -13    1    4    4    0    0  0.73178832447E+01  0.30231116319E+01 -0.99712325397E+01  0.12732914925E+02  0.10500000000E+00 0.  1.
         13    1    4    4    0    0  0.26969771069E+01  0.10749402946E+01 -0.36073255827E+01  0.46317388756E+01  0.10500000000E+00 0. -1.
    3000001    1    5    5    0    0 -0.23078094388E+02 -0.93378697858E+01  0.56339247494E+02  0.61602800756E+02  0.10000000000E+01 0. -1.
        -13    1    6    6    0    0  0.23095643143E+00 -0.53373899753E+00  0.20525465787E-01  0.59132434877E+00  0.10500000000E+00 0.  1.
         13    1    6    6    0    0  0.10338616738E+00 -0.25282127876E+00  0.89028154557E-01  0.30587303069E+00  0.10500000000E+00 0. -1.
</event>
<event>
11    0  0.3483054E-009  0.9118800E+02  0.7816531E-02  0.1126479E+00
         25   -1    0    0    0    0  0.00000000000E+00  0.00000000000E+00  0.99999998245E-14  0.12500000000E+03  0.12500000000E+03 0.  0.
    3000001    1    3    3    0    0  0.14381286869E+02 -0.24734235251E+01  0.38438989669E+02  0.41127790638E+02  0.10000000000E+01 0.  1.
    1000022    2    1    0    0    0  0.21737749523E+02  0.33455038705E+01  0.57641370187E+02  0.62500000941E+02  0.10000020508E+02 0.  0.
    3000022    2    3    3    0    0  0.73564626543E+01  0.58189273956E+01  0.19202380517E+02  0.21372210303E+02  0.24999380434E+00 0.  0.
    1000022    2    1    0    0    0 -0.21737749523E+02 -0.33455038705E+01 -0.57641370187E+02  0.62499999059E+02  0.10000008742E+02 0.  0.
    3000022    2    5    5    0    0 -0.18276629351E+02  0.12498153095E+01 -0.43624587173E+02  0.47315582136E+02  0.24997630509E+00 0.  0.
        -13    1    4    4    0    0  0.31073171834E+01  0.24693936549E+01  0.82733408512E+01  0.91767379248E+01  0.10500000000E+00 0. -1.
         13    1    4    4    0    0  0.42491454709E+01  0.33495337407E+01  0.10929039666E+02  0.12195472379E+02  0.10500000000E+00 0.  1.
    3000001    1    5    5    0    0 -0.34611201720E+01 -0.45953191800E+01 -0.14016783014E+02  0.15184416922E+02  0.10000000000E+01 0.  1.
        -13    1    6    6    0    0 -0.80599464001E+01  0.48485515047E+00 -0.19225280520E+02  0.20852344151E+02  0.10500000000E+00 0. -1.
         13    1    6    6    0    0 -0.10216682951E+02  0.76496015901E+00 -0.24399306652E+02  0.26463237986E+02  0.10500000000E+00 0.  1.
</event>
<event>
11    0  0.3483054E-009  0.9118800E+02  0.7816531E-02  0.1126479E+00
         25   -1    0    0    0    0  0.00000000000E+00  0.00000000000E+00  0.99999998245E-14  0.12500000000E+03  0.12500000000E+03 0.  0.
    3000001    1    3    3    0    0 -0.24504539412E+02 -0.29867018997E+02 -0.71021994828E+01  0.39293161149E+02  0.10000000000E+01 0. -1.
    1000022    2    1    0    0    0 -0.38865556244E+02 -0.47771739835E+02 -0.36850322791E+01  0.62499999866E+02  0.99999965694E+01 0.  0.
    3000022    2    3    3    0    0 -0.14361016832E+02 -0.17904720838E+02  0.34171672037E+01  0.23206838718E+02  0.24999767738E+00 0.  0.
    1000022    2    1    0    0    0  0.38865556244E+02  0.47771739835E+02  0.36850322791E+01  0.62500000134E+02  0.99999982404E+01 0.  0.
    3000022    2    5    5    0    0  0.20876431871E+02  0.19629645242E+02 -0.14448090136E+01  0.28693176038E+02  0.24999607884E+00 0.  0.
        -13    1    4    4    0    0 -0.86162211785E+01 -0.10755832478E+02  0.21148568695E+01  0.13943128927E+02  0.10500000000E+00 0. -1.
         13    1    4    4    0    0 -0.57447956531E+01 -0.71488883603E+01  0.13023103342E+01  0.92637097910E+01  0.10500000000E+00 0.  1.
    3000001    1    5    5    0    0  0.17989124373E+02  0.28142094593E+02  0.51298412928E+01  0.33806824096E+02  0.10000000000E+01 0.  1.
        -13    1    6    6    0    0  0.12121616215E+02  0.11437602693E+02 -0.89812582982E+00  0.16690416113E+02  0.10500000000E+00 0. -1.
         13    1    6    6    0    0  0.87548156559E+01  0.81920425492E+01 -0.54668318380E+00  0.12002759924E+02  0.10500000000E+00 0.  1.
</event>
<event>
11    0  0.3483054E-009  0.9118800E+02  0.7816531E-02  0.1126479E+00
         25   -1    0    0    0    0  0.00000000000E+00  0.00000000000E+00  0.99999998245E-14  0.12500000000E+03  0.12500000000E+03 0.  0.
    3000001    1    3    3    0    0  0.19595498582E+01  0.34153747181E+00 -0.46163622947E+00  0.22736735693E+01  0.10000000000E+01 0.  1.
    1000022    2    1    0    0    0  0.48058419019E+02  0.28269081623E+02  0.26410177826E+02  0.62499999658E+02  0.99999925048E+01 0.  0.
    3000022    2    3    3    0    0  0.46098869161E+02  0.27927544151E+02  0.26871814055E+02  0.60226326089E+02  0.25000669601E+00 0.  0.
    1000022    2    1    0    0    0 -0.48058419019E+02 -0.28269081623E+02 -0.26410177826E+02  0.62500000342E+02  0.99999967766E+01 0.  0.
    3000022    2    5    5    0    0 -0.23845204945E+02 -0.18436399653E+02 -0.17593780539E+02  0.34901264290E+02  0.25000874201E+00 0.  0.
        -13    1    4    4    0    0  0.23102196269E+02  0.13988915907E+02  0.13540410787E+02  0.30211835264E+02  0.10500000000E+00 0.  1.
         13    1    4    4    0    0  0.22996672891E+02  0.13938628244E+02  0.13331403268E+02  0.30014490825E+02  0.10500000000E+00 0. -1.
    3000001    1    5    5    0    0 -0.24213214074E+02 -0.98326819697E+01 -0.88163972862E+01  0.27598736051E+02  0.10000000000E+01 0. -1.
        -13    1    6    6    0    0 -0.14310002924E+02 -0.11070562773E+02 -0.10487851525E+02  0.20912665981E+02  0.10500000000E+00 0. -1.
         13    1    6    6    0    0 -0.95352020206E+01 -0.73658368795E+01 -0.71059290142E+01  0.13988598309E+02  0.10500000000E+00 0.  1.
</event>
<event>
11    0  0.3483054E-009  0.9118800E+02  0.7816531E-02  0.1126479E+00
         25   -1    0    0    0    0  0.00000000000E+00  0.00000000000E+00  0.99999998245E-14  0.12500000000E+03  0.12500000000E+03 0.  0.
    3000001    1    3    3    0    0  0.45340634027E+02 -0.19884458744E+02  0.27928343674E-01  0.49519345447E+02  0.10000000000E+01 0.  1.
    1000022    2    1    0    0    0  0.58120022622E+02 -0.20586479446E+02 -0.21236531178E+01  0.62500000491E+02  0.99999996617E+01 0.  0.
    3000022    2    3    3    0    0  0.12779388595E+02 -0.70202070153E+00 -0.21515814615E+01  0.12980655043E+02  0.24999330132E+00 0.  0.
    1000022    2    1    0    0    0 -0.58120022622E+02  0.20586479446E+02  0.21236531178E+01  0.62499999509E+02  0.99999935291E+01 0.  0.
    3000022    2    5    5    0    0 -0.48675483144E+02  0.20464203689E+02  0.34212950074E+01  0.52913647138E+02  0.25000402466E+00 0.  0.
        -13    1    4    4    0    0  0.82368370028E+01 -0.50741506843E+00 -0.14041693286E+01  0.83717184834E+01  0.10500000000E+00 0.  1.
         13    1    4    4    0    0  0.45425515919E+01 -0.19460563310E+00 -0.74741213288E+00  0.46089365599E+01  0.10500000000E+00 0. -1.
    3000001    1    5    5    0    0 -0.94445394782E+01  0.12227575648E+00 -0.12976418897E+01  0.95863523715E+01  0.10000000000E+01 0.  1.
        -13    1    6    6    0    0 -0.16480811503E+02  0.69878827636E+01  0.11646579322E+01  0.17939205847E+02  0.10500000000E+00 0.  1.
         13    1    6    6    0    0 -0.32194671641E+02  0.13476320926E+02  0.22566370752E+01  0.34974441291E+02  0.10500000000E+00 0. -1.
</event>
<event>
11    0  0.3483054E-009  0.9118800E+02  0.7816531E-02  0.1126479E+00
         25   -1    0    0    0    0  0.00000000000E+00  0.00000000000E+00  0.99999998245E-14  0.12500000000E+03  0.12500000000E+03 0.  0.
    3000001    1    3    3    0    0  0.22770842451E+02  0.39510181609E+02  0.13417997359E+02  0.47545855444E+02  0.10000000000E+01 0.  1.
    1000022    2    1    0    0    0  0.31871106780E+02  0.48304734744E+02  0.21380719691E+02  0.62499999389E+02  0.99999951512E+01 0.  0.
    3000022    2    3    3    0    0  0.91002643286E+01  0.87945531347E+01  0.79627223314E+01  0.14954143945E+02  0.24999701688E+00 0.  0.
    1000022    2    1    0    0    0 -0.31871106780E+02 -0.48304734744E+02 -0.21380719691E+02  0.62500000611E+02  0.10000002791E+02 0.  0.
    3000022    2    5    5    0    0 -0.13061434211E+02 -0.28691021576E+02 -0.10898207476E+02  0.33355797264E+02  0.25000441575E+00 0.  0.
        -13    1    4    4    0    0  0.50468265804E+01  0.49682434197E+01  0.44437461391E+01  0.83613280021E+01  0.10500000000E+00 0.  1.
         13    1    4    4    0    0  0.40534377483E+01  0.38263097151E+01  0.35189761923E+01  0.65928159429E+01  0.10500000000E+00 0. -1.
    3000001    1    5    5    0    0 -0.18809672569E+02 -0.19613713168E+02 -0.10482512215E+02  0.29144203347E+02  0.10000000000E+01 0. -1.
        -13    1    6    6    0    0 -0.92683010800E+01 -0.20354413362E+02 -0.77772913139E+01  0.23679122310E+02  0.10500000000E+00 0.  1.
         13    1    6    6    0    0 -0.37931331306E+01 -0.83366082146E+01 -0.31209161617E+01  0.96766749537E+01  0.10500000000E+00 0. -1.
</event>
<event>
11    0  0.3483054E-009  0.9118800E+02  0.7816531E-02  0.1126479E+00
         25   -1    0    0    0    0  0.00000000000E+00  0.00000000000E+00  0.99999998245E-14  0.12500000000E+03  0.12500000000E+03 0.  0.
    3000001    1    3    3    0    0 -0.20502182295E+02  0.51804525248E+02 -0.17973652173E+02  0.58549982813E+02  0.10000000000E+01 0.  1.
    1000022    2    1    0    0    0 -0.23079202418E+02  0.53425123799E+02 -0.20478199510E+02  0.62499999583E+02  0.99999927737E+01 0.  0.
    3000022    2    3    3    0    0 -0.25770201227E+01  0.16205985514E+01 -0.25045473374E+01  0.39500167695E+01  0.25000547298E+00 0.  0.
    1000022    2    1    0    0    0  0.23079202418E+02 -0.53425123799E+02  0.20478199510E+02  0.62500000417E+02  0.99999979881E+01 0.  0.
    3000022    2    5    5    0    0  0.23801321928E+02 -0.51822948689E+02  0.19786403219E+02  0.60362945486E+02  0.24999806060E+00 0.  0.
        -13    1    4    4    0    0 -0.13106702853E+01  0.84304597486E+00 -0.13670269782E+01  0.20756615504E+01  0.10500000000E+00 0.  1.
         13    1    4    4    0    0 -0.12663498374E+01  0.77755257652E+00 -0.11375203592E+01  0.18743552191E+01  0.10500000000E+00 0. -1.
    3000001    1    5    5    0    0 -0.72211951031E+00 -0.16021751100E+01  0.69179629138E+00  0.21370549312E+01  0.10000000000E+01 0.  1.
        -13    1    6    6    0    0  0.14193522736E+02 -0.31044252859E+02  0.11818642678E+02  0.36123303600E+02  0.10500000000E+00 0.  1.
         13    1    6    6    0    0  0.96077991925E+01 -0.20778695830E+02  0.79677605407E+01  0.24239641886E+02  0.10500000000E+00 0. -1.
</event>
<event>
11    0  0.3483054E-009  0.9118800E+02  0.7816531E-02  0.1126479E+00
         25   -1    0    0    0    0  0.00000000000E+00  0.00000000000E+00  0.99999998245E-14  0.12500000000E+03  0.12500000000E+03 0.  0.
    3000001    1    3    3    0    0  0.29583820561E+01  0.51802936961E+01 -0.16464860998E+02  0.17540784328E+02  0.10000000000E+01 0. -1.
    1000022    2    1    0    0    0 -0.38151373313E+00  0.28951600751E+02 -0.54478521773E+02  0.62499997516E+02  0.99999808065E+01 0.  0.
    3000022    2    3    3    0    0 -0.33398957893E+01  0.23771307055E+02 -0.38013660776E+02  0.44959213188E+02  0.25000389573E+00 0.  0.
    1000022    2    1    0    0    0  0.38151373313E+00 -0.28951600751E+02  0.54478521773E+02  0.62500002484E+02  0.10000011856E+02 0.  0.
    3000022    2    5    5    0    0  0.21012082887E+01 -0.27893585616E+02  0.47055733528E+02  0.54742778063E+02  0.24999472586E+00 0.  0.
        -13    1    4    4    0    0 -0.10161843686E+01  0.69240870080E+01 -0.11095176487E+02  0.13118291727E+02  0.10500000000E+00 0. -1.
         13    1    4    4    0    0 -0.23237114206E+01  0.16847220047E+02 -0.26918484289E+02  0.31840921461E+02  0.10500000000E+00 0.  1.
    3000001    1    5    5    0    0 -0.17196945556E+01 -0.10580151353E+01  0.74227882449E+01  0.77572244211E+01  0.10000000000E+01 0.  1.
        -13    1    6    6    0    0  0.10526101576E+01 -0.14114651557E+02  0.23678623423E+02  0.27586583858E+02  0.10500000000E+00 0. -1.
         13    1    6    6    0    0  0.10485981311E+01 -0.13778934059E+02  0.23377110105E+02  0.27156194205E+02  0.10500000000E+00 0.  1.
</event>
<event>
11    0  0.3483054E-009  0.9118800E+02  0.7816531E-02  0.1126479E+00
         25   -1    0    0    0    0  0.00000000000E+00  0.00000000000E+00  0.99999998245E-14  0.12500000000E+03  0.12500000000E+03 0.  0.
    3000001    1    3    3    0    0 -0.16093971045E+01  0.11285966561E+02  0.44140829982E+02  0.45600176225E+02  0.10000000000E+01 0. -1.
    1000022    2    1    0    0    0 -0.99266433262E-01  0.20616418420E+02  0.58148111017E+02  0.62500005876E+02  0.10000067869E+02 0.  0.
    3000022    2    3    3    0    0  0.15101306712E+01  0.93304518583E+01  0.14007281036E+02  0.16899829651E+02  0.24998742614E+00 0.  0.
    1000022    2    1    0    0    0  0.99266433262E-01 -0.20616418420E+02 -0.58148111017E+02  0.62499994124E+02  0.99999944179E+01 0.  0.
    3000022    2    5    5    0    0  0.32928392934E+01 -0.12708226385E+02 -0.44305904819E+02  0.46210577889E+02  0.24999695254E+00 0.  0.
        -13    1    4    4    0    0  0.44866231219E+00  0.29428167887E+01  0.44871843170E+01  0.53858440951E+01  0.10500000000E+00 0.  1.
         13    1    4    4    0    0  0.10614683590E+01  0.63876350696E+01  0.95200967185E+01  0.11513985556E+02  0.10500000000E+00 0. -1.
    3000001    1    5    5    0    0 -0.31935728601E+01 -0.79081920340E+01 -0.13842206198E+02  0.16289416235E+02  0.10000000000E+01 0. -1.
        -13    1    6    6    0    0  0.95427396609E+00 -0.36618726111E+01 -0.12922838466E+02  0.13465909878E+02  0.10500000000E+00 0. -1.
         13    1    6    6    0    0  0.23385653273E+01 -0.90463537743E+01 -0.31383066353E+02  0.32744668010E+02  0.10500000000E+00 0.  1.
</event>
<event>
11    0  0.3483054E-009  0.9118800E+02  0.7816531E-02  0.1126479E+00
         25   -1    0    0    0    0  0.00000000000E+00  0.00000000000E+00  0.99999998245E-14  0.12500000000E+03  0.12500000000E+03 0.  0.
    3000001    1    3    3    0    0  0.13950727560E+02 -0.19331567742E+02  0.45223056078E+02  0.51131762260E+02  0.10000000000E+01 0.  1.
    1000022    2    1    0    0    0  0.20341565811E+02 -0.20380647907E+02  0.54562807010E+02  0.62500000175E+02  0.10000000209E+02 0.  0.
    3000022    2    3    3    0    0  0.63908382511E+01 -0.10490801657E+01  0.93397509327E+01  0.11368237914E+02  0.25000609829E+00 0.  0.
    1000022    2    1    0    0    0 -0.20341565811E+02  0.20380647907E+02 -0.54562807010E+02  0.62499999825E+02  0.99999980265E+01 0.  0.
    3000022    2    5    5    0    0 -0.18880216778E+02  0.15946270406E+02 -0.50528962281E+02  0.56249308014E+02  0.24999480473E+00 0.  0.
        -13    1    4    4    0    0  0.45632101976E+01 -0.77414530833E+00  0.66131652926E+01  0.80726184384E+01  0.10500000000E+00 0.  1.
         13    1    4    4    0    0  0.18276280535E+01 -0.27493485740E+00  0.27265856402E+01  0.32956194760E+01  0.10500000000E+00 0. -1.
    3000001    1    5    5    0    0 -0.14613490332E+01  0.44343775014E+01 -0.40338447300E+01  0.62506918119E+01  0.10000000000E+01 0. -1.
        -13    1    6    6    0    0 -0.11924756779E+02  0.99939886838E+01 -0.31822968137E+02  0.35423042784E+02  0.10500000000E+00 0. -1.
         13    1    6    6    0    0 -0.69554599995E+01  0.59522817222E+01 -0.18705994143E+02  0.20826265229E+02  0.10500000000E+00 0.  1.
</event>
<event>
11    0  0.3483054E-009  0.9118800E+02  0.7816531E-02  0.1126479E+00
         25   -1    0    0    0    0  0.00000000000E+00  0.00000000000E+00  0.99999998245E-14  0.12500000000E+03  0.12500000000E+03 0.  0.
    3000001    1    3    3    0    0 -0.15945563413E+02 -0.39927318175E+01  0.51403816658E+02  0.53977358837E+02  0.10000000000E+01 0.  1.
    1000022    2    1    0    0    0 -0.14995344319E+02 -0.64958143282E+01  0.59491125811E+02  0.62499999804E+02  0.99999985091E+01 0.  0.
    3000022    2    3    3    0    0  0.95021909362E+00 -0.25030825107E+01  0.80873091523E+01  0.85226409670E+01  0.25000269229E+00 0.  0.
    1000022    2    1    0    0    0  0.14995344319E+02  0.64958143282E+01 -0.59491125811E+02  0.62500000196E+02  0.10000000965E+02 0.  0.
    3000022    2    5    5    0    0 -0.11013439130E+01 -0.16198597782E+00 -0.12095693624E+01  0.16627624305E+01  0.25004596813E+00 0.  0.
        -13    1    4    4    0    0  0.22603652006E+00 -0.69904680506E+00  0.22029965435E+01  0.23246457181E+01  0.10500000000E+00 0.  1.
         13    1    4    4    0    0  0.72418257357E+00 -0.18040357056E+01  0.58843126088E+01  0.61979952489E+01  0.10500000000E+00 0. -1.
    3000001    1    5    5    0    0  0.16096688232E+02  0.66578003060E+01 -0.58281556448E+02  0.60837237766E+02  0.10000000000E+01 0.  1.
        -13    1    6    6    0    0 -0.84382052615E+00 -0.13829608712E+00 -0.89661106000E+00  0.12434207980E+01  0.10500000000E+00 0.  1.
         13    1    6    6    0    0 -0.25752338684E+00 -0.23689890702E-01 -0.31295830239E+00  0.41934163247E+00  0.10500000000E+00 0. -1.
</event>
<event>
11    0  0.3483054E-009  0.9118800E+02  0.7816531E-02  0.1126479E+00
         25   -1    0    0    0    0  0.00000000000E+00  0.00000000000E+00  0.99999998245E-14  0.12500000000E+03  0.12500000000E+03 0.  0.
    3000001    1    3    3    0    0  0.78002993163E+01  0.24351299397E+01  0.36511191199E+02  0.37427818665E+02  0.10000000000E+01 0.  1.
    1000022    2    1    0    0    0  0.18475152906E+02  0.93508648171E+01  0.58116092636E+02  0.62499997621E+02  0.99999765862E+01 0.  0.
    3000022    2    3    3    0    0  0.10674853589E+02  0.69157348774E+01  0.21604901437E+02  0.25072178956E+02  0.25000697439E+00 0.  0.
    1000022    2    1    0    0    0 -0.18475152906E+02 -0.93508648171E+01 -0.58116092636E+02  0.62500002379E+02  0.10000006319E+02 0.  0.
    3000022    2    5    5    0    0 -0.56752217621E+01  0.12077793598E+01 -0.96543727822E+01  0.11266600234E+02  0.24998797839E+00 0.  0.
        -13    1    4    4    0    0  0.59673881744E+01  0.39182334939E+01  0.12027741991E+02  0.13987132578E+02  0.10500000000E+00 0. -1.
         13    1    4    4    0    0  0.47074654149E+01  0.29975013835E+01  0.95771594453E+01  0.11085046379E+02  0.10500000000E+00 0.  1.
    3000001    1    5    5    0    0 -0.12799931143E+02 -0.10558644177E+02 -0.48461719853E+02  0.51233402144E+02  0.10000000000E+01 0.  1.
        -13    1    6    6    0    0 -0.42718074682E+01  0.91665932530E+00 -0.73106195681E+01  0.85173227504E+01  0.10500000000E+00 0. -1.
         13    1    6    6    0    0 -0.14034142939E+01  0.29112003450E+00 -0.23437532140E+01  0.27492774839E+01  0.10500000000E+00 0.  1.
</event>
<event>
11    0  0.3483054E-009  0.9118800E+02  0.7816531E-02  0.1126479E+00
         25   -1    0    0    0    0  0.00000000000E+00  0.00000000000E+00  0.99999998245E-14  0.12500000000E+03  0.12500000000E+03 0.  0.
    3000001    1    3    3    0    0 -0.20854705009E+01 -0.38153563437E+02 -0.26081816514E+01  0.38312481017E+02  0.10000000000E+01 0. -1.
    1000022    2    1    0    0    0 -0.96445385246E+01 -0.60935221195E+02  0.36339832868E+00  0.62500003181E+02  0.10000001694E+02 0.  0.
    3000022    2    3    3    0    0 -0.75590680237E+01 -0.22781657758E+02  0.29715799801E+01  0.24187522165E+02  0.25000256826E+00 0.  0.
    1000022    2    1    0    0    0  0.96445385246E+01  0.60935221195E+02 -0.36339832868E+00  0.62499996819E+02  0.99999619283E+01 0.  0.
    3000022    2    5    5    0    0  0.28953006079E+01  0.36415229530E+02 -0.41589170803E+01  0.36766979772E+02  0.25000596319E+00 0.  0.
        -13    1    4    4    0    0 -0.34212814156E+01 -0.10183720282E+02  0.13835006364E+01  0.10832286200E+02  0.10500000000E+00 0. -1.
         13    1    4    4    0    0 -0.41377866082E+01 -0.12597937476E+02  0.15880793436E+01  0.13355235964E+02  0.10500000000E+00 0.  1.
    3000001    1    5    5    0    0  0.67492379167E+01  0.24519991665E+02  0.37955187517E+01  0.25733017046E+02  0.10000000000E+01 0. -1.
        -13    1    6    6    0    0  0.10977506706E+01  0.13272653655E+02 -0.15572883346E+01  0.13409122400E+02  0.10500000000E+00 0. -1.
         13    1    6    6    0    0  0.17975499373E+01  0.23142575875E+02 -0.26016287458E+01  0.23357857372E+02  0.10500000000E+00 0.  1.
</event>
<event>
11    0  0.3483054E-009  0.9118800E+02  0.7816531E-02  0.1126479E+00
         25   -1    0    0    0    0  0.00000000000E+00  0.00000000000E+00  0.99999998245E-14  0.12500000000E+03  0.12500000000E+03 0.  0.
    3000001    1    3    3    0    0  0.95050674858E+01 -0.13453931412E+02 -0.25127143845E+01  0.16693361313E+02  0.10000000000E+01 0.  1.
    1000022    2    1    0    0    0  0.24406780707E+02 -0.52637277021E+02 -0.20973219387E+02  0.62500002467E+02  0.10000025008E+02 0.  0.
    3000022    2    3    3    0    0  0.14901713221E+02 -0.39183345609E+02 -0.18460505003E+02  0.45806641154E+02  0.24999750379E+00 0.  0.
    1000022    2    1    0    0    0 -0.24406780707E+02  0.52637277021E+02  0.20973219387E+02  0.62499997533E+02  0.99999941732E+01 0.  0.
    3000022    2    5    5    0    0 -0.60341263070E+01  0.18055158316E+02  0.11342443491E+02  0.22161068343E+02  0.25000728681E+00 0.  0.
        -13    1    4    4    0    0  0.55894083791E+01 -0.14787110603E+02 -0.70174448426E+01  0.17296117574E+02  0.10500000000E+00 0. -1.
         13    1    4    4    0    0  0.93123048422E+01 -0.24396235007E+02 -0.11443060160E+02  0.28510523580E+02  0.10500000000E+00 0.  1.
    3000001    1    5    5    0    0 -0.18372654400E+02  0.34582118706E+02  0.96307758965E+01  0.40338929191E+02  0.10000000000E+01 0. -1.
        -13    1    6    6    0    0 -0.41787622889E+01  0.12489866844E+02  0.77911512827E+01  0.15302675954E+02  0.10500000000E+00 0. -1.
         13    1    6    6    0    0 -0.18553640181E+01  0.55652914716E+01  0.35512922083E+01  0.68583923883E+01  0.10500000000E+00 0.  1.
</event>
<event>
11    0  0.3483054E-009  0.9118800E+02  0.7816531E-02  0.1126479E+00
         25   -1    0    0    0    0  0.00000000000E+00  0.00000000000E+00  0.99999998245E-14  0.12500000000E+03  0.12500000000E+03 0.  0.
    3000001    1    3    3    0    0  0.44262121789E+02  0.24549326269E+02 -0.18663307263E+02  0.53954831883E+02  0.10000000000E+01 0. -1.
    1000022    2    1    0    0    0  0.48666328439E+02  0.31383161236E+02 -0.21282286225E+02  0.62499999508E+02  0.99999949332E+01 0.  0.
    3000022    2    3    3    0    0  0.44042066500E+01  0.68338349670E+01 -0.26189789623E+01  0.85451676254E+01  0.25000473582E+00 0.  0.
    1000022    2    1    0    0    0 -0.48666328439E+02 -0.31383161236E+02  0.21282286225E+02  0.62500000492E+02  0.10000001077E+02 0.  0.
    3000022    2    5    5    0    0 -0.19961635439E+02 -0.73460619273E+01  0.88186353100E+01  0.23027425993E+02  0.25000777428E+00 0.  0.
        -13    1    4    4    0    0  0.15268777711E+01  0.24220214462E+01 -0.87098822310E+00  0.29945265232E+01  0.10500000000E+00 0.  1.
         13    1    4    4    0    0  0.28773288789E+01  0.44118135209E+01 -0.17479907392E+01  0.55506411021E+01  0.10500000000E+00 0. -1.
    3000001    1    5    5    0    0 -0.28704693000E+02 -0.24037099309E+02  0.12463650915E+02  0.39472574499E+02  0.10000000000E+01 0. -1.
        -13    1    6    6    0    0 -0.93897499728E+01 -0.33951705684E+01  0.41000309787E+01  0.10794251561E+02  0.10500000000E+00 0.  1.
         13    1    6    6    0    0 -0.10571885466E+02 -0.39508913589E+01  0.47186043313E+01  0.12233174431E+02  0.10500000000E+00 0. -1.
</event>
<event>
11    0  0.3483054E-009  0.9118800E+02  0.7816531E-02  0.1126479E+00
         25   -1    0    0    0    0  0.00000000000E+00  0.00000000000E+00  0.99999998245E-14  0.12500000000E+03  0.12500000000E+03 0.  0.
    3000001    1    3    3    0    0  0.32762846852E+02  0.37897105181E+02  0.19036805902E+01  0.50141985548E+02  0.10000000000E+01 0.  1.
    1000022    2    1    0    0    0  0.36546403720E+02  0.49653195056E+02  0.22738820409E+01  0.62499999639E+02  0.10000000562E+02 0.  0.
    3000022    2    3    3    0    0  0.37835568676E+01  0.11756089876E+02  0.37020145075E+00  0.12358014091E+02  0.25002285120E+00 0.  0.
    1000022    2    1    0    0    0 -0.36546403720E+02 -0.49653195056E+02 -0.22738820409E+01  0.62500000361E+02  0.10000005068E+02 0.  0.
    3000022    2    5    5    0    0 -0.11036912607E+02 -0.17539102670E+02  0.36697934179E+01  0.21046697180E+02  0.25003215758E+00 0.  0.
        -13    1    4    4    0    0  0.29005697006E+01  0.90408691508E+01  0.28807091141E+00  0.94997173347E+01  0.10500000000E+00 0.  1.
         13    1    4    4    0    0  0.88298716697E+00  0.27152207249E+01  0.82130539344E-01  0.28582967563E+01  0.10500000000E+00 0. -1.
    3000001    1    5    5    0    0 -0.25509491113E+02 -0.32114092386E+02 -0.59436754588E+01  0.41453303181E+02  0.10000000000E+01 0. -1.
        -13    1    6    6    0    0 -0.45244638409E+01 -0.71324784386E+01  0.14389832864E+01  0.85688225342E+01  0.10500000000E+00 0. -1.
         13    1    6    6    0    0 -0.65124487660E+01 -0.10406624231E+02  0.22308101315E+01  0.12477874645E+02  0.10500000000E+00 0.  1.
</event>
<event>
11    0  0.3483054E-009  0.9118800E+02  0.7816531E-02  0.1126479E+00
         25   -1    0    0    0    0  0.00000000000E+00  0.00000000000E+00  0.99999998245E-14  0.12500000000E+03  0.12500000000E+03 0.  0.
    3000001    1    3    3    0    0 -0.63797712922E+01  0.27601504336E+02  0.33369199694E+02  0.43784106838E+02  0.10000000000E+01 0.  1.
    1000022    2    1    0    0    0 -0.53399839095E+01  0.34989332738E+02  0.50531974233E+02  0.62499995420E+02  0.10000008701E+02 0.  0.
    3000022    2    3    3    0    0  0.10397873828E+01  0.73878284016E+01  0.17162774538E+02  0.18715888581E+02  0.24997850486E+00 0.  0.
    1000022    2    1    0    0    0  0.53399839095E+01 -0.34989332738E+02 -0.50531974233E+02  0.62500004580E+02  0.10000065956E+02 0.  0.
    3000022    2    5    5    0    0  0.30128214688E+01 -0.12323071809E+02 -0.26427246253E+02  0.29315475346E+02  0.25011650045E+00 0.  0.
        -13    1    4    4    0    0  0.23879709635E+00  0.17862012414E+01  0.41091362436E+01  0.44881582633E+01  0.10500000000E+00 0.  1.
         13    1    4    4    0    0  0.80099028643E+00  0.56016271602E+01  0.13053638295E+02  0.14227730318E+02  0.10500000000E+00 0. -1.
    3000001    1    5    5    0    0  0.23271624407E+01 -0.22666260928E+02 -0.24104727980E+02  0.33184529234E+02  0.10000000000E+01 0. -1.
        -13    1    6    6    0    0  0.11114639456E+01 -0.45121278197E+01 -0.95465511818E+01  0.10618018366E+02  0.10500000000E+00 0. -1.
         13    1    6    6    0    0  0.19013575232E+01 -0.78109439897E+01 -0.16880695071E+02  0.18697456980E+02  0.10500000000E+00 0.  1.
</event>
<event>
11    0  0.3483054E-009  0.9118800E+02  0.7816531E-02  0.1126479E+00
         25   -1    0    0    0    0  0.00000000000E+00  0.00000000000E+00  0.99999998245E-14  0.12500000000E+03  0.12500000000E+03 0.  0.
    3000001    1    3    3    0    0  0.71281842013E+01  0.77046830783E+00 -0.15454559828E+01  0.74022338260E+01  0.10000000000E+01 0. -1.
    1000022    2    1    0    0    0  0.57251292287E+02  0.21518747576E+02  0.80921799862E+01  0.62499997695E+02  0.99999684581E+01 0.  0.
    3000022    2    3    3    0    0  0.50123108086E+02  0.20748279268E+02  0.96376359689E+01  0.55097763869E+02  0.24999903690E+00 0.  0.
    1000022    2    1    0    0    0 -0.57251292287E+02 -0.21518747576E+02 -0.80921799862E+01  0.62500002305E+02  0.99999972710E+01 0.  0.
    3000022    2    5    5    0    0 -0.45012768043E+02 -0.20621919429E+02 -0.82041083349E+01  0.50187475986E+02  0.25000887383E+00 0.  0.
        -13    1    4    4    0    0  0.32758512658E+02  0.13517837279E+02  0.63364302972E+01  0.36000186808E+02  0.10500000000E+00 0. -1.
         13    1    4    4    0    0  0.17364595428E+02  0.72304419884E+01  0.33012056717E+01  0.19097577061E+02  0.10500000000E+00 0.  1.
    3000001    1    5    5    0    0 -0.12238524245E+02 -0.89682814644E+00  0.11192834876E+00  0.12312526319E+02  0.10000000000E+01 0.  1.
        -13    1    6    6    0    0 -0.32165598325E+02 -0.14777197539E+02 -0.58835719572E+01  0.35883404614E+02  0.10500000000E+00 0.  1.
         13    1    6    6    0    0 -0.12847169717E+02 -0.58447218904E+01 -0.23205363778E+01  0.14304071371E+02  0.10500000000E+00 0. -1.
</event>
<event>
11    0  0.3483054E-009  0.9118800E+02  0.7816531E-02  0.1126479E+00
         25   -1    0    0    0    0  0.00000000000E+00  0.00000000000E+00  0.99999998245E-14  0.12500000000E+03  0.12500000000E+03 0.  0.
    3000001    1    3    3    0    0 -0.61053607573E+00 -0.92582433252E+01  0.17798564030E+02  0.20096683938E+02  0.10000000000E+01 0. -1.
    1000022    2    1    0    0    0 -0.86551602634E+01 -0.16670837992E+02  0.58765820239E+02  0.62499998896E+02  0.99999797531E+01 0.  0.
    3000022    2    3    3    0    0 -0.80446241876E+01 -0.74125946673E+01  0.40967256209E+02  0.42403314958E+02  0.25000022677E+00 0.  0.
    1000022    2    1    0    0    0  0.86551602634E+01  0.16670837992E+02 -0.58765820239E+02  0.62500001104E+02  0.99999935512E+01 0.  0.
    3000022    2    5    5    0    0  0.14557457161E+01  0.12244684795E+02 -0.28361584111E+02  0.30927228396E+02  0.25000322246E+00 0.  0.
        -13    1    4    4    0    0 -0.32252930579E+01 -0.29073448768E+01  0.16104222625E+02  0.16679693669E+02  0.10500000000E+00 0.  1.
         13    1    4    4    0    0 -0.48193311297E+01 -0.45052497905E+01  0.24863033584E+02  0.25723621289E+02  0.10500000000E+00 0. -1.
    3000001    1    5    5    0    0  0.71994145473E+01  0.44261531970E+01 -0.30404236128E+02  0.31572772708E+02  0.10000000000E+01 0. -1.
        -13    1    6    6    0    0  0.76054484304E+00  0.59324265259E+01 -0.13855636594E+02  0.15091779331E+02  0.10500000000E+00 0.  1.
         13    1    6    6    0    0  0.69520087308E+00  0.63122582696E+01 -0.14505947517E+02  0.15835449065E+02  0.10500000000E+00 0. -1.
</event>
<event>
11    0  0.3483054E-009  0.9118800E+02  0.7816531E-02  0.1126479E+00
         25   -1    0    0    0    0  0.00000000000E+00  0.00000000000E+00  0.99999998245E-14  0.12500000000E+03  0.12500000000E+03 0.  0.
    3000001    1    3    3    0    0 -0.48520221875E+01 -0.57469645753E+01 -0.48577310219E+01  0.90092880862E+01  0.10000000000E+01 0.  1.
    1000022    2    1    0    0    0 -0.49888038601E+02 -0.24248475755E+02 -0.27008240708E+02  0.62500000047E+02  0.99999983939E+01 0.  0.
    3000022    2    3    3    0    0 -0.45036016414E+02 -0.18501511180E+02 -0.22150509686E+02  0.53490711961E+02  0.24999285542E+00 0.  0.
    1000022    2    1    0    0    0  0.49888038601E+02  0.24248475755E+02  0.27008240708E+02  0.62499999953E+02  0.99999978008E+01 0.  0.
    3000022    2    5    5    0    0  0.28808317315E+02  0.19152101023E+02  0.17973592959E+02  0.38985056941E+02  0.25000134447E+00 0.  0.
        -13    1    4    4    0    0 -0.12244815448E+02 -0.50271758182E+01 -0.60622540531E+01  0.14559187865E+02  0.10500000000E+00 0.  1.
         13    1    4    4    0    0 -0.32791200965E+02 -0.13474335361E+02 -0.16088255633E+02  0.38931524097E+02  0.10500000000E+00 0. -1.
    3000001    1    5    5    0    0  0.21079721286E+02  0.50963747315E+01  0.90346477489E+01  0.23514943012E+02  0.10000000000E+01 0.  1.
        -13    1    6    6    0    0  0.21494511597E+02  0.14282852608E+02  0.13439818718E+02  0.29097313615E+02  0.10500000000E+00 0. -1.
         13    1    6    6    0    0  0.73138057180E+01  0.48692484157E+01  0.45337742411E+01  0.98877433261E+01  0.10500000000E+00 0.  1.
</event>
<event>
11    0  0.3483054E-009  0.9118800E+02  0.7816531E-02  0.1126479E+00
         25   -1    0    0    0    0  0.00000000000E+00  0.00000000000E+00  0.99999998245E-14  0.12500000000E+03  0.12500000000E+03 0.  0.
    3000001    1    3    3    0    0 -0.45039178888E+01 -0.37498825317E+01  0.53685734265E+01  0.80105228285E+01  0.10000000000E+01 0.  1.
    1000022    2    1    0    0    0 -0.12261285376E+02 -0.38033139441E+02  0.47004162109E+02  0.62500000690E+02  0.10000000791E+02 0.  0.
    3000022    2    3    3    0    0 -0.77573674874E+01 -0.34283256910E+02  0.41635588682E+02  0.54489477861E+02  0.24999598475E+00 0.  0.
    1000022    2    1    0    0    0  0.12261285376E+02  0.38033139441E+02 -0.47004162109E+02  0.62499999310E+02  0.99999921701E+01 0.  0.
    3000022    2    5    5    0    0  0.13282158987E+02  0.37282765045E+02 -0.45143527644E+02  0.60036829549E+02  0.24999463257E+00 0.  0.
        -13    1    4    4    0    0 -0.49578159721E+01 -0.21981749127E+02  0.26604970967E+02  0.34865638371E+02  0.10500000000E+00 0. -1.
         13    1    4    4    0    0 -0.27995515153E+01 -0.12301507783E+02  0.15030617715E+02  0.19623839490E+02  0.10500000000E+00 0.  1.
    3000001    1    5    5    0    0 -0.10208736109E+01  0.75037439598E+00 -0.18606344648E+01  0.24631697617E+01  0.10000000000E+01 0.  1.
        -13    1    6    6    0    0  0.63112043110E+01  0.17851856043E+02 -0.21521757121E+02  0.28665608639E+02  0.10500000000E+00 0.  1.
         13    1    6    6    0    0  0.69709546761E+01  0.19430909002E+02 -0.23621770523E+02  0.31371220910E+02  0.10500000000E+00 0. -1.
</event>
<event>
11    0  0.3483054E-009  0.9118800E+02  0.7816531E-02  0.1126479E+00
         25   -1    0    0    0    0  0.00000000000E+00  0.00000000000E+00  0.99999998245E-14  0.12500000000E+03  0.12500000000E+03 0.  0.
    3000001    1    3    3    0    0  0.29179600441E+02  0.15274645544E+02 -0.31380056808E+02  0.45502437777E+02  0.10000000000E+01 0.  1.
    1000022    2    1    0    0    0  0.37431019463E+02  0.26183442248E+02 -0.41468015776E+02  0.62500001669E+02  0.10000000511E+02 0.  0.
    3000022    2    3    3    0    0  0.82514190218E+01  0.10908796704E+02 -0.10087958968E+02  0.16997563892E+02  0.25000142074E+00 0.  0.
    1000022    2    1    0    0    0 -0.37431019463E+02 -0.26183442248E+02  0.41468015776E+02  0.62499998331E+02  0.99999796523E+01 0.  0.
    3000022    2    5    5    0    0 -0.30796302127E+02 -0.25217703757E+02  0.33391877848E+02  0.51955989189E+02  0.24999786565E+00 0.  0.
        -13    1    4    4    0    0  0.55100210605E+01  0.72061651489E+01 -0.67226605426E+01  0.11291339071E+02  0.10500000000E+00 0. -1.
         13    1    4    4    0    0  0.27413979614E+01  0.37026315551E+01 -0.33652984258E+01  0.57062248212E+01  0.10500000000E+00 0.  1.
    3000001    1    5    5    0    0 -0.66347173359E+01 -0.96573849078E+00  0.80761379278E+01  0.10544009142E+02  0.10000000000E+01 0. -1.
        -13    1    6    6    0    0 -0.14968197555E+02 -0.12236076307E+02  0.16304655665E+02  0.25290735909E+02  0.10500000000E+00 0. -1.
         13    1    6    6    0    0 -0.15828104572E+02 -0.12981627449E+02  0.17087222183E+02  0.26665253280E+02  0.10500000000E+00 0.  1.
</event>
<event>
11    0  0.3483054E-009  0.9118800E+02  0.7816531E-02  0.1126479E+00
         25   -1    0    0    0    0  0.00000000000E+00  0.00000000000E+00  0.99999998245E-14  0.12500000000E+03  0.12500000000E+03 0.  0.
    3000001    1    3    3    0    0  0.74732088046E+01 -0.24956323411E+02 -0.74767015147E+01  0.27121356780E+02  0.10000000000E+01 0.  1.
    1000022    2    1    0    0    0  0.26391852267E+02 -0.54600461767E+02 -0.11336214556E+02  0.62499999405E+02  0.99999936959E+01 0.  0.
    3000022    2    3    3    0    0  0.18918643463E+02 -0.29644138356E+02 -0.38595130411E+01  0.35378642625E+02  0.25000753061E+00 0.  0.
    1000022    2    1    0    0    0 -0.26391852267E+02  0.54600461767E+02  0.11336214556E+02  0.62500000595E+02  0.10000001135E+02 0.  0.
    3000022    2    5    5    0    0 -0.26776378579E+02  0.52199325772E+02  0.11767776395E+02  0.59835500610E+02  0.25002219332E+00 0.  0.
        -13    1    4    4    0    0  0.63032914263E+01 -0.99671186828E+01 -0.13177927045E+01  0.11866867331E+02  0.10500000000E+00 0. -1.
         13    1    4    4    0    0  0.12615352036E+02 -0.19677019673E+02 -0.25417203367E+01  0.23511775294E+02  0.10500000000E+00 0.  1.
    3000001    1    5    5    0    0  0.38452631184E+00  0.24011359950E+01 -0.43156183925E+00  0.26644999854E+01  0.10000000000E+01 0.  1.
        -13    1    6    6    0    0 -0.16244117074E+02  0.31530031923E+02  0.71131939534E+01  0.36174891925E+02  0.10500000000E+00 0. -1.
         13    1    6    6    0    0 -0.10532261505E+02  0.20669293849E+02  0.46545824416E+01  0.23660608684E+02  0.10500000000E+00 0.  1.
</event>
<event>
11    0  0.3483054E-009  0.9118800E+02  0.7816531E-02  0.1126479E+00
         25   -1    0    0    0    0  0.00000000000E+00  0.00000000000E+00  0.99999998245E-14  0.12500000000E+03  0.12500000000E+03 0.  0.
    3000001    1    3    3    0    0  0.48890044265E+02  0.28278476738E+02 -0.89116428653E+01  0.57186764670E+02  0.10000000000E+01 0. -1.
    1000022    2    1    0    0    0  0.53870303250E+02  0.28088691097E+02 -0.10736193162E+02  0.62500001214E+02  0.10000008414E+02 0.  0.
    3000022    2    3    3    0    0  0.49802589859E+01 -0.18978564091E+00 -0.18245502965E+01  0.53132365443E+01  0.25000126889E+00 0.  0.
    1000022    2    1    0    0    0 -0.53870303250E+02 -0.28088691097E+02  0.10736193162E+02  0.62499998786E+02  0.99999932407E+01 0.  0.
    3000022    2    5    5    0    0 -0.18777482175E+02 -0.15245369881E+02  0.42376021780E+01  0.24556769144E+02  0.24999787592E+00 0.  0.
        -13    1    4    4    0    0  0.37393443176E+01 -0.15333573809E+00 -0.13437889978E+01  0.39778136765E+01  0.10500000000E+00 0. -1.
         13    1    4    4    0    0  0.12409146683E+01 -0.36449902824E-01 -0.48076129874E+00  0.13354228678E+01  0.10500000000E+00 0.  1.
    3000001    1    5    5    0    0 -0.35092821075E+02 -0.12843321216E+02  0.64985909838E+01  0.37943229642E+02  0.10000000000E+01 0. -1.
        -13    1    6    6    0    0 -0.11035843615E+02 -0.90283826708E+01  0.25343136702E+01  0.14482241150E+02  0.10500000000E+00 0. -1.
         13    1    6    6    0    0 -0.77416385600E+01 -0.62169872101E+01  0.17032885078E+01  0.10074527994E+02  0.10500000000E+00 0.  1.
</event>
<event>
11    0  0.3483054E-009  0.9118800E+02  0.7816531E-02  0.1126479E+00
         25   -1    0    0    0    0  0.00000000000E+00  0.00000000000E+00  0.99999998245E-14  0.12500000000E+03  0.12500000000E+03 0.  0.
    3000001    1    3    3    0    0  0.15072992238E+02 -0.18405435168E+02  0.14972916578E+02  0.28127270923E+02  0.10000000000E+01 0.  1.
    1000022    2    1    0    0    0  0.41284138617E+02 -0.33496884351E+02  0.31302213068E+02  0.62499999325E+02  0.10000000506E+02 0.  0.
    3000022    2    3    3    0    0  0.26211146379E+02 -0.15091449182E+02  0.16329296490E+02  0.34372728402E+02  0.25000200000E+00 0.  0.
    1000022    2    1    0    0    0 -0.41284138617E+02  0.33496884351E+02 -0.31302213068E+02  0.62500000675E+02  0.10000008944E+02 0.  0.
    3000022    2    5    5    0    0 -0.25469823176E+02  0.23129980319E+02 -0.25048724501E+02  0.42558300865E+02  0.24998236264E+00 0.  0.
        -13    1    4    4    0    0  0.15311131594E+02 -0.88658361806E+01  0.94981715914E+01  0.20081336869E+02  0.10500000000E+00 0.  1.
         13    1    4    4    0    0  0.10900014785E+02 -0.62256130019E+01  0.68311248986E+01  0.14291391533E+02  0.10500000000E+00 0. -1.
    3000001    1    5    5    0    0 -0.15814315441E+02  0.10366904031E+02 -0.62534885662E+01  0.19941699810E+02  0.10000000000E+01 0.  1.
        -13    1    6    6    0    0 -0.12974110336E+02  0.11692510561E+02 -0.12732479757E+02  0.21614102063E+02  0.10500000000E+00 0. -1.
         13    1    6    6    0    0 -0.12495712841E+02  0.11437469759E+02 -0.12316244744E+02  0.20944198803E+02  0.10500000000E+00 0.  1.
</event>
<event>
11    0  0.3483054E-009  0.9118800E+02  0.7816531E-02  0.1126479E+00
         25   -1    0    0    0    0  0.00000000000E+00  0.00000000000E+00  0.99999998245E-14  0.12500000000E+03  0.12500000000E+03 0.  0.
    3000001    1    3    3    0    0 -0.18758719795E+01 -0.10304385691E+01 -0.11298071311E+01  0.26186186209E+01  0.10000000000E+01 0. -1.
    1000022    2    1    0    0    0 -0.61665097969E+02  0.34200305277E+00  0.18837430032E+01  0.62499994088E+02  0.99999749792E+01 0.  0.
    3000022    2    3    3    0    0 -0.59789225990E+02  0.13724416218E+01  0.30135501343E+01  0.59881375467E+02  0.25000580057E+00 0.  0.
    1000022    2    1    0    0    0  0.61665097969E+02 -0.34200305277E+00 -0.18837430032E+01  0.62500005912E+02  0.10000048885E+02 0.  0.
    3000022    2    5    5    0    0  0.54842633991E+02  0.19377390784E+01 -0.37379608392E+01  0.55004583129E+02  0.24995627783E+00 0.  0.
        -13    1    4    4    0    0 -0.38377181329E+02  0.93843610362E+00  0.19282343370E+01  0.38437193208E+02  0.10500000000E+00 0. -1.
         13    1    4    4    0    0 -0.21412044661E+02  0.43400551822E+00  0.10853157973E+01  0.21444182258E+02  0.10500000000E+00 0.  1.
    3000001    1    5    5    0    0  0.68224639781E+01 -0.22797421312E+01  0.18542178360E+01  0.74954227833E+01  0.10000000000E+01 0. -1.
        -13    1    6    6    0    0  0.40825903915E+02  0.14488873576E+01 -0.28113275115E+01  0.40948361291E+02  0.10500000000E+00 0. -1.
         13    1    6    6    0    0  0.14016730077E+02  0.48885172082E+00 -0.92663332771E+00  0.14056221838E+02  0.10500000000E+00 0.  1.
</event>
<event>
11    0  0.3483054E-009  0.9118800E+02  0.7816531E-02  0.1126479E+00
         25   -1    0    0    0    0  0.00000000000E+00  0.00000000000E+00  0.99999998245E-14  0.12500000000E+03  0.12500000000E+03 0.  0.
    3000001    1    3    3    0    0  0.98441524642E+01  0.86451622826E+00  0.80646114192E+01  0.12794244151E+02  0.10000000000E+01 0. -1.
    1000022    2    1    0    0    0  0.37674291790E+02 -0.94879731316E+01  0.47925735442E+02  0.62500002338E+02  0.10000013934E+02 0.  0.
    3000022    2    3    3    0    0  0.27830139326E+02 -0.10352489360E+02  0.39861124022E+02  0.49705758188E+02  0.24999569560E+00 0.  0.
    1000022    2    1    0    0    0 -0.37674291790E+02  0.94879731316E+01 -0.47925735442E+02  0.62499997662E+02  0.99999847036E+01 0.  0.
    3000022    2    5    5    0    0 -0.35212437408E+02  0.85874012244E+01 -0.39453035910E+02  0.53574842531E+02  0.25000329117E+00 0.  0.
        -13    1    4    4    0    0  0.16535631422E+02 -0.62186921398E+01  0.23708225047E+02  0.29566707601E+02  0.10500000000E+00 0. -1.
         13    1    4    4    0    0  0.11294507903E+02 -0.41337972201E+01  0.16152898975E+02  0.20139050587E+02  0.10500000000E+00 0.  1.
    3000001    1    5    5    0    0 -0.24618543813E+01  0.90057190723E+00 -0.84726995319E+01  0.89251551310E+01  0.10000000000E+01 0. -1.
        -13    1    6    6    0    0 -0.14520837419E+02  0.36072700286E+01 -0.16291892107E+02  0.22120214507E+02  0.10500000000E+00 0. -1.
         13    1    6    6    0    0 -0.20691599990E+02  0.49801311958E+01 -0.23161143803E+02  0.31454628024E+02  0.10500000000E+00 0.  1.
</event>
<event>
11    0  0.3483054E-009  0.9118800E+02  0.7816531E-02  0.1126479E+00
         25   -1    0    0    0    0  0.00000000000E+00  0.00000000000E+00  0.99999998245E-14  0.12500000000E+03  0.12500000000E+03 0.  0.
    3000001    1    3    3    0    0  0.37276473357E+02 -0.36098913647E+02 -0.23806648952E+02  0.57100118798E+02  0.10000000000E+01 0. -1.
    1000022    2    1    0    0    0  0.42364396486E+02 -0.37878101152E+02 -0.24015774026E+02  0.62499999354E+02  0.99999940336E+01 0.  0.
    3000022    2    3    3    0    0  0.50879231292E+01 -0.17791875048E+01 -0.20912507455E+00  0.53998805561E+01  0.25001355454E+00 0.  0.
    1000022    2    1    0    0    0 -0.42364396486E+02  0.37878101152E+02  0.24015774026E+02  0.62500000646E+02  0.10000002108E+02 0.  0.
    3000022    2    5    5    0    0 -0.27203037814E+02  0.25486978513E+02  0.20622844451E+02  0.42602295046E+02  0.24997984413E+00 0.  0.
        -13    1    4    4    0    0  0.14122228475E+01 -0.53123299921E+00 -0.40366214555E-01  0.15130222410E+01  0.10500000000E+00 0. -1.
         13    1    4    4    0    0  0.36757002817E+01 -0.12479545056E+01 -0.16875885999E+00  0.38868583151E+01  0.10500000000E+00 0.  1.
    3000001    1    5    5    0    0 -0.15161358672E+02  0.12391122640E+02  0.33929295754E+01  0.19897705600E+02  0.10000000000E+01 0.  1.
        -13    1    6    6    0    0 -0.19152728340E+02  0.17916272326E+02  0.14463487088E+02  0.29950347255E+02  0.10500000000E+00 0. -1.
         13    1    6    6    0    0 -0.80503094739E+01  0.75707061868E+01  0.61593573630E+01  0.12651947791E+02  0.10500000000E+00 0.  1.
</event>
<event>
11    0  0.3483054E-009  0.9118800E+02  0.7816531E-02  0.1126479E+00
         25   -1    0    0    0    0  0.00000000000E+00  0.00000000000E+00  0.99999998245E-14  0.12500000000E+03  0.12500000000E+03 0.  0.
    3000001    1    3    3    0    0 -0.13278000313E+02 -0.11312697923E+02 -0.49548151142E+02  0.52538573527E+02  0.10000000000E+01 0.  1.
    1000022    2    1    0    0    0 -0.13953441827E+02 -0.17128303403E+02 -0.57603582646E+02  0.62499997793E+02  0.99999837073E+01 0.  0.
    3000022    2    3    3    0    0 -0.67544151408E+00 -0.58156054798E+01 -0.80554315043E+01  0.99614242664E+01  0.25001671741E+00 0.  0.
    1000022    2    1    0    0    0  0.13953441827E+02  0.17128303403E+02  0.57603582646E+02  0.62500002207E+02  0.10000011295E+02 0.  0.
    3000022    2    5    5    0    0  0.23927773794E+00  0.62893458927E+01  0.21000610869E+02  0.21924900981E+02  0.25000111778E+00 0.  0.
        -13    1    4    4    0    0 -0.34959616686E+00 -0.26926834633E+01 -0.36402766197E+01  0.45426204531E+01  0.10500000000E+00 0.  1.
         13    1    4    4    0    0 -0.32584534722E+00 -0.31229220165E+01 -0.44151548846E+01  0.54188038132E+01  0.10500000000E+00 0. -1.
    3000001    1    5    5    0    0  0.13714164089E+02  0.10838957510E+02  0.36602971777E+02  0.40575101226E+02  0.10000000000E+01 0. -1.
        -13    1    6    6    0    0  0.16746702100E+00  0.27036738297E+01  0.89987671911E+01  0.93982303302E+01  0.10500000000E+00 0. -1.
         13    1    6    6    0    0  0.71810716939E-01  0.35856720630E+01  0.12001843678E+02  0.12526670651E+02  0.10500000000E+00 0.  1.
</event>
<event>
11    0  0.3483054E-009  0.9118800E+02  0.7816531E-02  0.1126479E+00
         25   -1    0    0    0    0  0.00000000000E+00  0.00000000000E+00  0.99999998245E-14  0.12500000000E+03  0.12500000000E+03 0.  0.
    3000001    1    3    3    0    0  0.24791927361E+02 -0.15492528026E+02  0.54618645791E+02  0.61958490580E+02  0.10000000000E+01 0.  1.
    1000022    2    1    0    0    0  0.25060745533E+02 -0.15368598922E+02  0.54240348039E+02  0.62499998795E+02  0.99999847235E+01 0.  0.
    3000022    2    3    3    0    0  0.26881817197E+00  0.12392910377E+00 -0.37829775189E+00  0.54150821499E+00  0.25000065094E+00 0.  0.
    1000022    2    1    0    0    0 -0.25060745533E+02  0.15368598922E+02 -0.54240348039E+02  0.62500001205E+02  0.99999997854E+01 0.  0.
    3000022    2    5    5    0    0 -0.54023658398E+01 -0.70359202174E+00 -0.71742096525E+01  0.90117913215E+01  0.25000056959E+00 0.  0.
        -13    1    4    4    0    0  0.12295007600E+00  0.68318374997E-02 -0.10037135894E+00  0.19042795196E+00  0.10500000000E+00 0.  1.
         13    1    4    4    0    0  0.14586809597E+00  0.11709726627E+00 -0.27792639295E+00  0.35108026303E+00  0.10500000000E+00 0. -1.
    3000001    1    5    5    0    0 -0.19658379693E+02  0.16072190944E+02 -0.47066138387E+02  0.53488209883E+02  0.10000000000E+01 0.  1.
        -13    1    6    6    0    0 -0.12575889048E+01 -0.15213661425E+00 -0.16754195097E+01  0.21030289909E+01  0.10500000000E+00 0. -1.
         13    1    6    6    0    0 -0.41447769349E+01 -0.55145540749E+00 -0.54987901428E+01  0.69087623307E+01  0.10500000000E+00 0.  1.
</event>
<event>
11    0  0.3483054E-009  0.9118800E+02  0.7816531E-02  0.1126479E+00
         25   -1    0    0    0    0  0.00000000000E+00  0.00000000000E+00  0.99999998245E-14  0.12500000000E+03  0.12500000000E+03 0.  0.
    3000001    1    3    3    0    0  0.55936547883E+02 -0.16345233470E+02 -0.80806045577E+01  0.58841823700E+02  0.10000000000E+01 0.  1.
    1000022    2    1    0    0    0  0.57932576038E+02 -0.18686763149E+02 -0.10043475581E+02  0.62499999050E+02  0.99999998056E+01 0.  0.
    3000022    2    3    3    0    0  0.19960281549E+01 -0.23415296787E+01 -0.19628710235E+01  0.36581753504E+01  0.24998921536E+00 0.  0.
    1000022    2    1    0    0    0 -0.57932576038E+02  0.18686763149E+02  0.10043475581E+02  0.62500000950E+02  0.10000011678E+02 0.  0.
    3000022    2    5    5    0    0 -0.15402342616E+02  0.84654923773E+01  0.59468428038E+01  0.18555973697E+02  0.25000247123E+00 0.  0.
        -13    1    4    4    0    0  0.92348584451E+00 -0.11572812157E+01 -0.88776798919E+00  0.17295325726E+01  0.10500000000E+00 0. -1.
         13    1    4    4    0    0  0.10725423104E+01 -0.11842484630E+01 -0.10751030343E+01  0.19286427777E+01  0.10500000000E+00 0.  1.
    3000001    1    5    5    0    0 -0.42530233422E+02  0.10221270772E+02  0.40966327774E+01  0.43944027253E+02  0.10000000000E+01 0.  1.
        -13    1    6    6    0    0 -0.54665399437E+01  0.29915478879E+01  0.20494486646E+01  0.65607684421E+01  0.10500000000E+00 0.  1.
         13    1    6    6    0    0 -0.99358026727E+01  0.54739444894E+01  0.38973941391E+01  0.11995205255E+02  0.10500000000E+00 0. -1.
</event>
<event>
11    0  0.3483054E-009  0.9118800E+02  0.7816531E-02  0.1126479E+00
         25   -1    0    0    0    0  0.00000000000E+00  0.00000000000E+00  0.99999998245E-14  0.12500000000E+03  0.12500000000E+03 0.  0.
    3000001    1    3    3    0    0 -0.38313460352E+02  0.37926025855E+02 -0.13137704023E+02  0.55496882330E+02  0.10000000000E+01 0. -1.
    1000022    2    1    0    0    0 -0.40121585485E+02  0.44050824179E+02 -0.16001039340E+02  0.62500000131E+02  0.10000001186E+02 0.  0.
    3000022    2    3    3    0    0 -0.18081251330E+01  0.61247983238E+01 -0.28633353168E+01  0.70031178011E+01  0.24999759233E+00 0.  0.
    1000022    2    1    0    0    0  0.40121585485E+02 -0.44050824179E+02  0.16001039340E+02  0.62499999869E+02  0.99999995521E+01 0.  0.
    3000022    2    5    5    0    0  0.30074311085E+01 -0.33534265840E+01 -0.14083148951E+01  0.47260936403E+01  0.24999705314E+00 0.  0.
        -13    1    4    4    0    0 -0.55990534748E+00  0.20796147953E+01 -0.94840807535E+00  0.23555879462E+01  0.10500000000E+00 0.  1.
         13    1    4    4    0    0 -0.12482197855E+01  0.40451835285E+01 -0.19149272415E+01  0.46475298549E+01  0.10500000000E+00 0. -1.
    3000001    1    5    5    0    0  0.37114154377E+02 -0.40697397595E+02  0.17409354235E+02  0.57773906229E+02  0.10000000000E+01 0. -1.
        -13    1    6    6    0    0  0.13761469870E+01 -0.16139999859E+01 -0.70658856249E+00  0.22380949222E+01  0.10500000000E+00 0. -1.
         13    1    6    6    0    0  0.16312841215E+01 -0.17394265981E+01 -0.70172633260E+00  0.24879987181E+01  0.10500000000E+00 0.  1.
</event>
<event>
11    0  0.3483054E-009  0.9118800E+02  0.7816531E-02  0.1126479E+00
         25   -1    0    0    0    0  0.00000000000E+00  0.00000000000E+00  0.99999998245E-14  0.12500000000E+03  0.12500000000E+03 0.  0.
    3000001    1    3    3    0    0  0.21399874527E+02 -0.27918226282E+02  0.19934370103E+02  0.40444543512E+02  0.10000000000E+01 0.  1.
    1000022    2    1    0    0    0  0.38096485191E+02 -0.37837178119E+02  0.30385122769E+02  0.62499999604E+02  0.10000001645E+02 0.  0.
    3000022    2    3    3    0    0  0.16696610664E+02 -0.99189518369E+01  0.10450752667E+02  0.22055456092E+02  0.24999785863E+00 0.  0.
    1000022    2    1    0    0    0 -0.38096485191E+02  0.37837178119E+02 -0.30385122769E+02  0.62500000396E+02  0.10000006597E+02 0.  0.
    3000022    2    5    5    0    0 -0.21112625809E+01  0.32428069945E+01  0.31337480632E+00  0.38902357390E+01  0.25000689340E+00 0.  0.
        -13    1    4    4    0    0  0.10314199238E+02 -0.61872508850E+01  0.65090681206E+01  0.13676394709E+02  0.10500000000E+00 0. -1.
         13    1    4    4    0    0  0.63824114261E+01 -0.37317009519E+01  0.39416845461E+01  0.83790613834E+01  0.10500000000E+00 0.  1.
    3000001    1    5    5    0    0 -0.35985222610E+02  0.34594371124E+02 -0.30698497576E+02  0.58609764657E+02  0.10000000000E+01 0.  1.
        -13    1    6    6    0    0 -0.10515913048E+01  0.15310288749E+01  0.20022836671E+00  0.18710986310E+01  0.10500000000E+00 0.  1.
         13    1    6    6    0    0 -0.10596712761E+01  0.17117781197E+01  0.11314643960E+00  0.20191371081E+01  0.10500000000E+00 0. -1.
</event>
<event>
11    0  0.3483054E-009  0.9118800E+02  0.7816531E-02  0.1126479E+00
         25   -1    0    0    0    0  0.00000000000E+00  0.00000000000E+00  0.99999998245E-14  0.12500000000E+03  0.12500000000E+03 0.  0.
    3000001    1    3    3    0    0 -0.12089049089E+01 -0.47273169388E+02 -0.85961689344E-05  0.47299196558E+02  0.10000000000E+01 0.  1.
    1000022    2    1    0    0    0  0.16753696275E+01 -0.61509657893E+02  0.44727134533E+01  0.62499998839E+02  0.99999905895E+01 0.  0.
    3000022    2    3    3    0    0  0.28842745364E+01 -0.14236488505E+02  0.44727220495E+01  0.15200802281E+02  0.25000580390E+00 0.  0.
    1000022    2    1    0    0    0 -0.16753696275E+01  0.61509657893E+02 -0.44727134533E+01  0.62500001161E+02  0.10000005098E+02 0.  0.
    3000022    2    5    5    0    0 -0.89975530951E+00  0.29014582679E+02 -0.70655753853E+01  0.29877088603E+02  0.25000046734E+00 0.  0.
        -13    1    4    4    0    0  0.18878897254E+01 -0.93821331605E+01  0.30026115840E+01  0.10030715407E+02  0.10500000000E+00 0.  1.
         13    1    4    4    0    0  0.99638481106E+00 -0.48543553444E+01  0.14701104655E+01  0.51700868738E+01  0.10500000000E+00 0. -1.
    3000001    1    5    5    0    0 -0.77561431796E+00  0.32495075214E+02  0.25928619320E+01  0.32622912557E+02  0.10000000000E+01 0. -1.
        -13    1    6    6    0    0 -0.33809473098E+00  0.11260900105E+02 -0.28047616946E+01  0.11610335585E+02  0.10500000000E+00 0. -1.
         13    1    6    6    0    0 -0.56166057854E+00  0.17753682574E+02 -0.42608136907E+01  0.18266753018E+02  0.10500000000E+00 0.  1.
</event>
<event>
11    0  0.3483054E-009  0.9118800E+02  0.7816531E-02  0.1126479E+00
         25   -1    0    0    0    0  0.00000000000E+00  0.00000000000E+00  0.99999998245E-14  0.12500000000E+03  0.12500000000E+03 0.  0.
    3000001    1    3    3    0    0  0.51947036992E+01 -0.16862897244E+02 -0.13507354868E+02  0.22243895466E+02  0.10000000000E+01 0. -1.
    1000022    2    1    0    0    0  0.13790191153E+01 -0.48322396194E+02 -0.38331374536E+02  0.62500000281E+02  0.10000004682E+02 0.  0.
    3000022    2    3    3    0    0 -0.38156845840E+01 -0.31459498950E+02 -0.24824019668E+02  0.40256104815E+02  0.24999867532E+00 0.  0.
    1000022    2    1    0    0    0 -0.13790191153E+01  0.48322396194E+02  0.38331374536E+02  0.62499999719E+02  0.10000001171E+02 0.  0.
    3000022    2    5    5    0    0  0.20482309132E+01  0.38866822577E+02  0.27317093105E+02  0.47551143220E+02  0.24999744741E+00 0.  0.
        -13    1    4    4    0    0 -0.15726752050E+01 -0.13352714010E+02 -0.10589935961E+02  0.17115082453E+02  0.10500000000E+00 0. -1.
         13    1    4    4    0    0 -0.22430093790E+01 -0.18106784940E+02 -0.14234083708E+02  0.23141022362E+02  0.10500000000E+00 0.  1.
    3000001    1    5    5    0    0 -0.34272500285E+01  0.94555736165E+01  0.11014281431E+02  0.14948856499E+02  0.10000000000E+01 0.  1.
        -13    1    6    6    0    0  0.74296926523E+00  0.15279294649E+02  0.10730859165E+02  0.18686123507E+02  0.10500000000E+00 0. -1.
         13    1    6    6    0    0  0.13052616480E+01  0.23587527929E+02  0.16586233940E+02  0.28865019713E+02  0.10500000000E+00 0.  1.
</event>
<event>
11    0  0.3483054E-009  0.9118800E+02  0.7816531E-02  0.1126479E+00
         25   -1    0    0    0    0  0.00000000000E+00  0.00000000000E+00  0.99999998245E-14  0.12500000000E+03  0.12500000000E+03 0.  0.
    3000001    1    3    3    0    0 -0.18693602855E+01  0.25521382003E+02  0.21899753658E+02  0.33696211323E+02  0.10000000000E+01 0. -1.
    1000022    2    1    0    0    0  0.14353915980E+01  0.51422200579E+02  0.34057979140E+02  0.62500008874E+02  0.10000105235E+02 0.  0.
    3000022    2    3    3    0    0  0.33047518836E+01  0.25900818576E+02  0.12158225481E+02  0.28803797551E+02  0.25003714482E+00 0.  0.
    1000022    2    1    0    0    0 -0.14353915980E+01 -0.51422200579E+02 -0.34057979140E+02  0.62499991126E+02  0.99999943104E+01 0.  0.
    3000022    2    5    5    0    0 -0.44795253837E+01 -0.12278696071E+02 -0.97979093731E+01  0.16336892435E+02  0.25000294766E+00 0.  0.
        -13    1    4    4    0    0  0.18682755799E+01  0.15140281990E+02  0.71185145803E+01  0.16834573568E+02  0.10500000000E+00 0.  1.
         13    1    4    4    0    0  0.14364763037E+01  0.10760536586E+02  0.50397109009E+01  0.11969223983E+02  0.10500000000E+00 0. -1.
    3000001    1    5    5    0    0  0.30441337857E+01 -0.39143504508E+02 -0.24260069767E+02  0.46163098691E+02  0.10000000000E+01 0.  1.
        -13    1    6    6    0    0 -0.12511148448E+01 -0.33623821144E+01 -0.27275281148E+01  0.45079193044E+01  0.10500000000E+00 0.  1.
         13    1    6    6    0    0 -0.32284105390E+01 -0.89163139570E+01 -0.70703812583E+01  0.11828973131E+02  0.10500000000E+00 0. -1.
</event>
<event>
11    0  0.3483054E-009  0.9118800E+02  0.7816531E-02  0.1126479E+00
         25   -1    0    0    0    0  0.00000000000E+00  0.00000000000E+00  0.99999998245E-14  0.12500000000E+03  0.12500000000E+03 0.  0.
    3000001    1    3    3    0    0  0.43224076211E+02 -0.20624749214E+02 -0.19423185415E+01  0.47942399249E+02  0.10000000000E+01 0. -1.
    1000022    2    1    0    0    0  0.54679213614E+02 -0.28470025946E+02  0.24272006951E+01  0.62500000060E+02  0.99999962707E+01 0.  0.
    3000022    2    3    3    0    0  0.11455137403E+02 -0.78452767322E+01  0.43695192366E+01  0.14557600811E+02  0.25000615288E+00 0.  0.
    1000022    2    1    0    0    0 -0.54679213614E+02  0.28470025946E+02 -0.24272006951E+01  0.62499999940E+02  0.99999955229E+01 0.  0.
    3000022    2    5    5    0    0 -0.39772022379E+02  0.24526633329E+02  0.70912777809E+00  0.46732588861E+02  0.24998569891E+00 0.  0.
        -13    1    4    4    0    0  0.41971985256E+01 -0.28305435031E+01  0.15448989415E+01  0.52939767402E+01  0.10500000000E+00 0. -1.
         13    1    4    4    0    0  0.72579388778E+01 -0.50147332291E+01  0.28246202951E+01  0.92636240707E+01  0.10500000000E+00 0.  1.
    3000001    1    5    5    0    0 -0.14907191235E+02  0.39433926172E+01 -0.31363284732E+01  0.15767411079E+02  0.10000000000E+01 0.  1.
        -13    1    6    6    0    0 -0.30317291013E+02  0.18695126166E+02  0.52323949356E+00  0.35622053300E+02  0.10500000000E+00 0.  1.
         13    1    6    6    0    0 -0.94547313669E+01  0.58315071625E+01  0.18588828453E+00  0.11110535561E+02  0.10500000000E+00 0. -1.
</event>
<event>
11    0  0.3483054E-009  0.9118800E+02  0.7816531E-02  0.1126479E+00
         25   -1    0    0    0    0  0.00000000000E+00  0.00000000000E+00  0.99999998245E-14  0.12500000000E+03  0.12500000000E+03 0.  0.
    3000001    1    3    3    0    0  0.13354494744E+02  0.22289421414E+02  0.72410207685E+01  0.26992465960E+02  0.10000000000E+01 0. -1.
    1000022    2    1    0    0    0  0.20880757022E+02  0.56257454460E+02  0.14329788804E+02  0.62500000191E+02  0.99999990302E+01 0.  0.
    3000022    2    3    3    0    0  0.75262622777E+01  0.33968033046E+02  0.70887680356E+01  0.35507534231E+02  0.24992403373E+00 0.  0.
    1000022    2    1    0    0    0 -0.20880757022E+02 -0.56257454460E+02 -0.14329788804E+02  0.62499999809E+02  0.99999966459E+01 0.  0.
    3000022    2    5    5    0    0  0.88454152397E+00 -0.51229486848E+01 -0.19272731231E+01  0.55501245080E+01  0.24996685482E+00 0.  0.
        -13    1    4    4    0    0  0.33886439283E+01  0.15232136175E+02  0.32459119629E+01  0.15938878555E+02  0.10500000000E+00 0.  1.
         13    1    4    4    0    0  0.41376183494E+01  0.18735896871E+02  0.38428560727E+01  0.19568655676E+02  0.10500000000E+00 0. -1.
    3000001    1    5    5    0    0 -0.21765298545E+02 -0.51134505775E+02 -0.12402515681E+02  0.56949875301E+02  0.10000000000E+01 0.  1.
        -13    1    6    6    0    0  0.24390050461E+00 -0.16767370865E+01 -0.60079775274E+00  0.18008102768E+01  0.10500000000E+00 0. -1.
         13    1    6    6    0    0  0.64064101935E+00 -0.34462115983E+01 -0.13264753704E+01  0.37493142312E+01  0.10500000000E+00 0.  1.
</event>
<event>
11    0  0.3483054E-009  0.9118800E+02  0.7816531E-02  0.1126479E+00
         25   -1    0    0    0    0  0.00000000000E+00  0.00000000000E+00  0.99999998245E-14  0.12500000000E+03  0.12500000000E+03 0.  0.
    3000001    1    3    3    0    0  0.56408400558E+01 -0.44960173618E+02 -0.11247138209E+02  0.46698334083E+02  0.10000000000E+01 0. -1.
    1000022    2    1    0    0    0  0.27816455735E+01 -0.58927938195E+02 -0.18055733749E+02  0.62500008457E+02  0.10000104189E+02 0.  0.
    3000022    2    3    3    0    0 -0.28591944823E+01 -0.13967764578E+02 -0.68085955402E+01  0.15801674373E+02  0.24999876377E+00 0.  0.
    1000022    2    1    0    0    0 -0.27816455735E+01  0.58927938195E+02  0.18055733749E+02  0.62499991543E+02  0.99999984817E+01 0.  0.
    3000022    2    5    5    0    0 -0.49677158110E+01  0.18771428474E+02  0.35806414609E+01  0.19746600183E+02  0.24999633232E+00 0.  0.
        -13    1    4    4    0    0 -0.18388027648E+01 -0.89870966035E+01 -0.44441794363E+01  0.10193667487E+02  0.10500000000E+00 0. -1.
         13    1    4    4    0    0 -0.10203917176E+01 -0.49806679744E+01 -0.23644161039E+01  0.56080068867E+01  0.10500000000E+00 0.  1.
    3000001    1    5    5    0    0  0.21860702375E+01  0.40156509722E+02  0.14475092288E+02  0.42753391361E+02  0.10000000000E+01 0. -1.
        -13    1    6    6    0    0 -0.28357550130E+01  0.10622270915E+02  0.19649831007E+01  0.11168989635E+02  0.10500000000E+00 0.  1.
         13    1    6    6    0    0 -0.21319607980E+01  0.81491575590E+01  0.16156583602E+01  0.85776105473E+01  0.10500000000E+00 0. -1.
</event>
<event>
11    0  0.3483054E-009  0.9118800E+02  0.7816531E-02  0.1126479E+00
         25   -1    0    0    0    0  0.00000000000E+00  0.00000000000E+00  0.99999998245E-14  0.12500000000E+03  0.12500000000E+03 0.  0.
    3000001    1    3    3    0    0 -0.11543951626E+02 -0.13994836327E+02  0.21315601219E+02  0.28008447267E+02  0.10000000000E+01 0.  1.
    1000022    2    1    0    0    0 -0.23299014298E+02 -0.21892704291E+02  0.52764716111E+02  0.62499999225E+02  0.10000003422E+02 0.  0.
    3000022    2    3    3    0    0 -0.11755062672E+02 -0.78978679635E+01  0.31449114892E+02  0.34491551958E+02  0.25002442342E+00 0.  0.
    1000022    2    1    0    0    0  0.23299014298E+02  0.21892704291E+02 -0.52764716111E+02  0.62500000775E+02  0.10000013108E+02 0.  0.
    3000022    2    5    5    0    0 -0.80725051720E+00  0.27269656752E-01 -0.22173873990E+01  0.23731209706E+01  0.24999846426E+00 0.  0.
        -13    1    4    4    0    0 -0.52300043964E+01 -0.34341102801E+01  0.13887529889E+02  0.15232221467E+02  0.10500000000E+00 0.  1.
         13    1    4    4    0    0 -0.65250582751E+01 -0.44637576834E+01  0.17561585003E+02  0.19259330491E+02  0.10500000000E+00 0. -1.
    3000001    1    5    5    0    0  0.24106264815E+02  0.21865434634E+02 -0.50547328712E+02  0.60126879804E+02  0.10000000000E+01 0. -1.
        -13    1    6    6    0    0 -0.48381633152E+00  0.62907746116E-02 -0.11326649534E+01  0.12361523826E+01  0.10500000000E+00 0.  1.
         13    1    6    6    0    0 -0.32343418568E+00  0.20978882140E-01 -0.10847224456E+01  0.11369685879E+01  0.10500000000E+00 0.  1.
</event>
<event>
11    0  0.3483054E-009  0.9118800E+02  0.7816531E-02  0.1126479E+00
         25   -1    0    0    0    0  0.00000000000E+00  0.00000000000E+00  0.99999998245E-14  0.12500000000E+03  0.12500000000E+03 0.  0.
    3000001    1    3    3    0    0  0.37151129258E+02 -0.17674757731E+02  0.17106161962E+02  0.44567075774E+02  0.10000000000E+01 0. -1.
    1000022    2    1    0    0    0  0.50589707166E+02 -0.20749464374E+02  0.28572554373E+02  0.62500002095E+02  0.10000032779E+02 0.  0.
    3000022    2    3    3    0    0  0.13438577908E+02 -0.30747066426E+01  0.11466392411E+02  0.17932926322E+02  0.24998877465E+00 0.  0.
    1000022    2    1    0    0    0 -0.50589707166E+02  0.20749464374E+02 -0.28572554373E+02  0.62499997905E+02  0.10000006588E+02 0.  0.
    3000022    2    5    5    0    0 -0.29832236183E+02  0.70494347742E+01 -0.14578441297E+02  0.33944812501E+02  0.24999758436E+00 0.  0.
        -13    1    4    4    0    0  0.84507569927E+01 -0.18779107453E+01  0.71668979040E+01  0.11239096631E+02  0.10500000000E+00 0. -1.
         13    1    4    4    0    0  0.49878209157E+01 -0.11967958973E+01  0.42994945073E+01  0.66938296905E+01  0.10500000000E+00 0.  1.
    3000001    1    5    5    0    0 -0.20757470983E+02  0.13700029599E+02 -0.13994113076E+02  0.28555185403E+02  0.10000000000E+01 0.  1.
        -13    1    6    6    0    0 -0.13824804296E+02  0.31989400048E+01 -0.67619754462E+01  0.15719216517E+02  0.10500000000E+00 0. -1.
         13    1    6    6    0    0 -0.16007431887E+02  0.38504947695E+01 -0.78164658509E+01  0.18225595984E+02  0.10500000000E+00 0.  1.
</event>
<event>
11    0  0.3483054E-009  0.9118800E+02  0.7816531E-02  0.1126479E+00
         25   -1    0    0    0    0  0.00000000000E+00  0.00000000000E+00  0.99999998245E-14  0.12500000000E+03  0.12500000000E+03 0.  0.
    3000001    1    3    3    0    0 -0.42348669400E+02  0.30485805874E+02 -0.28100194095E+02  0.59274067415E+02  0.10000000000E+01 0. -1.
    1000022    2    1    0    0    0 -0.42749727593E+02  0.31978421416E+02 -0.30920719167E+02  0.62499992344E+02  0.99999761855E+01 0.  0.
    3000022    2    3    3    0    0 -0.40105819240E+00  0.14926155414E+01 -0.28205250712E+01  0.32259249283E+01  0.24996227270E+00 0.  0.
    1000022    2    1    0    0    0  0.42749727593E+02 -0.31978421416E+02  0.30920719167E+02  0.62500007656E+02  0.10000071891E+02 0.  0.
    3000022    2    5    5    0    0  0.14202444628E+02 -0.69086587454E+01  0.52843704680E+01  0.16656112320E+02  0.25001463464E+00 0.  0.
        -13    1    4    4    0    0 -0.24534715002E+00  0.75043467418E+00 -0.13288638006E+01  0.15492744833E+01  0.10500000000E+00 0.  1.
         13    1    4    4    0    0 -0.15571104238E+00  0.74218086721E+00 -0.14916612706E+01  0.16766504450E+01  0.10500000000E+00 0. -1.
    3000001    1    5    5    0    0  0.28547282965E+02 -0.25069762670E+02  0.25636348698E+02  0.45843895336E+02  0.10000000000E+01 0. -1.
        -13    1    6    6    0    0  0.45311291833E+01 -0.21911319400E+01  0.16324831510E+01  0.52922790074E+01  0.10500000000E+00 0.  1.
         13    1    6    6    0    0  0.96713154443E+01 -0.47175268054E+01  0.36518873170E+01  0.11363833313E+02  0.10500000000E+00 0. -1.
</event>
<event>
11    0  0.3483054E-009  0.9118800E+02  0.7816531E-02  0.1126479E+00
         25   -1    0    0    0    0  0.00000000000E+00  0.00000000000E+00  0.99999998245E-14  0.12500000000E+03  0.12500000000E+03 0.  0.
    3000001    1    3    3    0    0 -0.36756347753E+01 -0.17962304063E+02  0.12772898281E+02  0.22367422488E+02  0.10000000000E+01 0.  1.
    1000022    2    1    0    0    0  0.41129857751E-01 -0.45061192581E+02  0.42139497374E+02  0.62499999543E+02  0.99999967719E+01 0.  0.
    3000022    2    3    3    0    0  0.37167646330E+01 -0.27098888518E+02  0.29366599093E+02  0.40132577055E+02  0.25000107546E+00 0.  0.
    1000022    2    1    0    0    0 -0.41129857751E-01  0.45061192581E+02 -0.42139497374E+02  0.62500000457E+02  0.10000002484E+02 0.  0.
    3000022    2    5    5    0    0  0.31921387790E+01  0.38842790542E+02 -0.37106177244E+02  0.53813409553E+02  0.25006200152E+00 0.  0.
        -13    1    4    4    0    0  0.19725355713E+01 -0.14555662989E+02  0.15862430108E+02  0.21619110425E+02  0.10500000000E+00 0. -1.
         13    1    4    4    0    0  0.17442290617E+01 -0.12543225529E+02  0.13504168985E+02  0.18513466630E+02  0.10500000000E+00 0.  1.
    3000001    1    5    5    0    0 -0.32332686368E+01  0.62184020394E+01 -0.50333201297E+01  0.86865909038E+01  0.10000000000E+01 0.  1.
        -13    1    6    6    0    0  0.20686885243E+01  0.25486166933E+02 -0.24412438752E+02  0.35352544010E+02  0.10500000000E+00 0. -1.
         13    1    6    6    0    0  0.11234502547E+01  0.13356623609E+02 -0.12693738492E+02  0.18460865543E+02  0.10500000000E+00 0.  1.
</event>
<event>
11    0  0.3483054E-009  0.9118800E+02  0.7816531E-02  0.1126479E+00
         25   -1    0    0    0    0  0.00000000000E+00  0.00000000000E+00  0.99999998245E-14  0.12500000000E+03  0.12500000000E+03 0.  0.
    3000001    1    3    3    0    0  0.12125294192E+01  0.11962994939E+02 -0.26182051394E+02  0.28828515236E+02  0.10000000000E+01 0.  1.
    1000022    2    1    0    0    0  0.91310263994E+01  0.32627216224E+02 -0.51559086170E+02  0.62500002225E+02  0.10000001489E+02 0.  0.
    3000022    2    3    3    0    0  0.79184969802E+01  0.20664221285E+02 -0.25377034776E+02  0.33671486989E+02  0.25001257802E+00 0.  0.
    1000022    2    1    0    0    0 -0.91310263994E+01 -0.32627216224E+02  0.51559086170E+02  0.62499997775E+02  0.99999736767E+01 0.  0.
    3000022    2    5    5    0    0 -0.87379485868E+01 -0.17037001696E+02  0.22844598933E+02  0.29808545123E+02  0.24997931050E+00 0.  0.
        -13    1    4    4    0    0  0.59371879007E+01  0.15539520197E+02 -0.19104959132E+02  0.25332535929E+02  0.10500000000E+00 0. -1.
         13    1    4    4    0    0  0.19813090794E+01  0.51247010872E+01 -0.62720756438E+01  0.83389510602E+01  0.10500000000E+00 0.  1.
    3000001    1    5    5    0    0 -0.39307781260E+00 -0.15590214528E+02  0.28714487237E+02  0.32691452652E+02  0.10000000000E+01 0. -1.
        -13    1    6    6    0    0 -0.31081004021E+01 -0.61383283338E+01  0.81383662528E+01  0.10657550990E+02  0.10500000000E+00 0.  1.
         13    1    6    6    0    0 -0.56298481847E+01 -0.10898673362E+02  0.14706232681E+02  0.19150994133E+02  0.10500000000E+00 0. -1.
</event>
<event>
11    0  0.3483054E-009  0.9118800E+02  0.7816531E-02  0.1126479E+00
         25   -1    0    0    0    0  0.00000000000E+00  0.00000000000E+00  0.99999998245E-14  0.12500000000E+03  0.12500000000E+03 0.  0.
    3000001    1    3    3    0    0  0.11081736404E+02 -0.55149192002E+01 -0.26445994136E+02  0.29216601810E+02  0.10000000000E+01 0.  1.
    1000022    2    1    0    0    0  0.32665006111E+02 -0.95969068620E+01 -0.51450431280E+02  0.62499999101E+02  0.99999881584E+01 0.  0.
    3000022    2    3    3    0    0  0.21583269707E+02 -0.40819876618E+01 -0.25004437144E+02  0.33283397291E+02  0.25000756681E+00 0.  0.
    1000022    2    1    0    0    0 -0.32665006111E+02  0.95969068620E+01  0.51450431280E+02  0.62500000899E+02  0.99999993920E+01 0.  0.
    3000022    2    5    5    0    0 -0.26452907315E+02  0.72880324785E+01  0.47098469692E+02  0.54508715518E+02  0.24999452231E+00 0.  0.
        -13    1    4    4    0    0  0.82450364728E+01 -0.15340855793E+01 -0.94624869818E+01  0.12644513825E+02  0.10500000000E+00 0.  1.
         13    1    4    4    0    0  0.13338233235E+02 -0.25479020825E+01 -0.15541950162E+02  0.20638883465E+02  0.10500000000E+00 0. -1.
    3000001    1    5    5    0    0 -0.62120987960E+01  0.23088743835E+01  0.43519615885E+01  0.79912853809E+01  0.10000000000E+01 0.  1.
        -13    1    6    6    0    0 -0.81015674206E+01  0.22580286625E+01  0.14356874918E+02  0.16639259915E+02  0.10500000000E+00 0.  1.
         13    1    6    6    0    0 -0.18351339895E+02  0.50300038159E+01  0.32741594773E+02  0.37869455603E+02  0.10500000000E+00 0. -1.
</event>
<event>
11    0  0.3483054E-009  0.9118800E+02  0.7816531E-02  0.1126479E+00
         25   -1    0    0    0    0  0.00000000000E+00  0.00000000000E+00  0.99999998245E-14  0.12500000000E+03  0.12500000000E+03 0.  0.
    3000001    1    3    3    0    0  0.88317348806E+01 -0.46347563596E+01 -0.41814199730E+01  0.10861159262E+02  0.10000000000E+01 0.  1.
    1000022    2    1    0    0    0  0.55271628966E+02 -0.61543318050E+01 -0.26709946981E+02  0.62500000294E+02  0.10000000025E+02 0.  0.
    3000022    2    3    3    0    0  0.46439894085E+02 -0.15195754454E+01 -0.22528527008E+02  0.51638841032E+02  0.25000363224E+00 0.  0.
    1000022    2    1    0    0    0 -0.55271628966E+02  0.61543318050E+01  0.26709946981E+02  0.62499999706E+02  0.99999963511E+01 0.  0.
    3000022    2    5    5    0    0 -0.10153635876E+02  0.38776799610E+01  0.21924758803E+01  0.11090634477E+02  0.24999846946E+00 0.  0.
        -13    1    4    4    0    0  0.25870784949E+02 -0.84920410752E+00 -0.12476589648E+02  0.28734908661E+02  0.10500000000E+00 0.  1.
         13    1    4    4    0    0  0.20569109136E+02 -0.67037133785E+00 -0.10051937361E+02  0.22903932372E+02  0.10500000000E+00 0. -1.
    3000001    1    5    5    0    0 -0.45117993090E+02  0.22766518440E+01  0.24517471101E+02  0.51409365230E+02  0.10000000000E+01 0.  1.
        -13    1    6    6    0    0 -0.56849538239E+01  0.22417465360E+01  0.12316398320E+01  0.62347485264E+01  0.10500000000E+00 0. -1.
         13    1    6    6    0    0 -0.44686820517E+01  0.16359334250E+01  0.96083604830E+00  0.48558859502E+01  0.10500000000E+00 0.  1.
</event>
<event>
11    0  0.3483054E-009  0.9118800E+02  0.7816531E-02  0.1126479E+00
         25   -1    0    0    0    0  0.00000000000E+00  0.00000000000E+00  0.99999998245E-14  0.12500000000E+03  0.12500000000E+03 0.  0.
    3000001    1    3    3    0    0  0.15107025240E+02 -0.39977557749E+01  0.13374895762E+02  0.20593496534E+02  0.10000000000E+01 0. -1.
    1000022    2    1    0    0    0  0.51087795967E+02 -0.18496654762E+02  0.29226032344E+02  0.62499999296E+02  0.99999905676E+01 0.  0.
    3000022    2    3    3    0    0  0.35980770726E+02 -0.14498898987E+02  0.15851136583E+02  0.41906502763E+02  0.25001789771E+00 0.  0.
    1000022    2    1    0    0    0 -0.51087795967E+02  0.18496654762E+02 -0.29226032344E+02  0.62500000704E+02  0.99999993626E+01 0.  0.
    3000022    2    5    5    0    0 -0.27207521959E+02  0.10209613222E+02 -0.21158649930E+02  0.35947690009E+02  0.24999373920E+00 0.  0.
        -13    1    4    4    0    0  0.25889594966E+02 -0.10456513399E+02  0.11373399156E+02  0.30149212814E+02  0.10500000000E+00 0. -1.
         13    1    4    4    0    0  0.10091175760E+02 -0.40423855877E+01  0.44777374270E+01  0.11757289948E+02  0.10500000000E+00 0.  1.
    3000001    1    5    5    0    0 -0.23880274008E+02  0.82870415401E+01 -0.80673824137E+01  0.26552310694E+02  0.10000000000E+01 0. -1.
        -13    1    6    6    0    0 -0.15080634924E+02  0.57289346094E+01 -0.11731966050E+02  0.19947338014E+02  0.10500000000E+00 0. -1.
         13    1    6    6    0    0 -0.12126887035E+02  0.44806786123E+01 -0.94266838807E+01  0.16000351995E+02  0.10500000000E+00 0.  1.
</event>
<event>
11    0  0.3483054E-009  0.9118800E+02  0.7816531E-02  0.1126479E+00
         25   -1    0    0    0    0  0.00000000000E+00  0.00000000000E+00  0.99999998245E-14  0.12500000000E+03  0.12500000000E+03 0.  0.
    3000001    1    3    3    0    0 -0.32485599171E+02 -0.23778350835E+02  0.57322109255E+01  0.40676557918E+02  0.10000000000E+01 0. -1.
    1000022    2    1    0    0    0 -0.49190432403E+02 -0.33850049042E+02  0.15515336949E+02  0.62499999778E+02  0.99999915761E+01 0.  0.
    3000022    2    3    3    0    0 -0.16704833232E+02 -0.10071698206E+02  0.97831260239E+01  0.21823441861E+02  0.25000354174E+00 0.  0.
    1000022    2    1    0    0    0  0.49190432403E+02  0.33850049042E+02 -0.15515336949E+02  0.62500000222E+02  0.99999943449E+01 0.  0.
    3000022    2    5    5    0    0  0.44006803767E+02  0.32463548990E+02 -0.16110074479E+02  0.57009453713E+02  0.25004429197E+00 0.  0.
        -13    1    4    4    0    0 -0.75637760129E+01 -0.46289182255E+01  0.44117158388E+01  0.99051427629E+01  0.10500000000E+00 0.  1.
         13    1    4    4    0    0 -0.91410572192E+01 -0.54427799807E+01  0.53714101851E+01  0.11918299098E+02  0.10500000000E+00 0. -1.
    3000001    1    5    5    0    0  0.51836286365E+01  0.13865000516E+01  0.59473752924E+00  0.54905465086E+01  0.10000000000E+01 0. -1.
        -13    1    6    6    0    0  0.16910984446E+02  0.12473484515E+02 -0.61265710414E+01  0.21888698193E+02  0.10500000000E+00 0.  1.
         13    1    6    6    0    0  0.27095819321E+02  0.19990064475E+02 -0.99835034373E+01  0.35120755520E+02  0.10500000000E+00 0. -1.
</event>
<event>
11    0  0.3483054E-009  0.9118800E+02  0.7816531E-02  0.1126479E+00
         25   -1    0    0    0    0  0.00000000000E+00  0.00000000000E+00  0.99999998245E-14  0.12500000000E+03  0.12500000000E+03 0.  0.
    3000001    1    3    3    0    0 -0.25411806506E+02  0.10502029538E+02 -0.15374620136E+02  0.31518748050E+02  0.10000000000E+01 0.  1.
    1000022    2    1    0    0    0 -0.50193372401E+02  0.27373058389E+02 -0.23186009896E+02  0.62499999322E+02  0.99999950908E+01 0.  0.
    3000022    2    3    3    0    0 -0.24781565895E+02  0.16871028851E+02 -0.78113897600E+01  0.30981251272E+02  0.24999539795E+00 0.  0.
    1000022    2    1    0    0    0  0.50193372401E+02 -0.27373058389E+02  0.23186009896E+02  0.62500000678E+02  0.10000003564E+02 0.  0.
    3000022    2    5    5    0    0  0.29428923927E+02 -0.19697787623E+02  0.18068057289E+02  0.39756528194E+02  0.24987807008E+00 0.  0.
        -13    1    4    4    0    0 -0.13587979864E+02  0.92250808858E+01 -0.42138380267E+01  0.16955906642E+02  0.10500000000E+00 0.  1.
         13    1    4    4    0    0 -0.11193586031E+02  0.76459479654E+01 -0.35975517334E+01  0.14025344630E+02  0.10500000000E+00 0. -1.
    3000001    1    5    5    0    0  0.20764448474E+02 -0.76752707660E+01  0.51179526068E+01  0.22743472484E+02  0.10000000000E+01 0.  1.
        -13    1    6    6    0    0  0.10160585314E+02 -0.68520712450E+01  0.62931805616E+01  0.13776919861E+02  0.10500000000E+00 0. -1.
         13    1    6    6    0    0  0.19268338613E+02 -0.12845716378E+02  0.11774876728E+02  0.25979608333E+02  0.10500000000E+00 0.  1.
</event>
<event>
11    0  0.3483054E-009  0.9118800E+02  0.7816531E-02  0.1126479E+00
         25   -1    0    0    0    0  0.00000000000E+00  0.00000000000E+00  0.99999998245E-14  0.12500000000E+03  0.12500000000E+03 0.  0.
    3000001    1    3    3    0    0  0.19798458913E+02 -0.38673197211E+02 -0.10957751932E+02  0.44818160217E+02  0.10000000000E+01 0. -1.
    1000022    2    1    0    0    0  0.22267387325E+02 -0.54502789381E+02 -0.18435276397E+02  0.62500000275E+02  0.10000001498E+02 0.  0.
    3000022    2    3    3    0    0  0.24689284120E+01 -0.15829592171E+02 -0.74775244646E+01  0.17681840058E+02  0.24999987337E+00 0.  0.
    1000022    2    1    0    0    0 -0.22267387325E+02  0.54502789381E+02  0.18435276397E+02  0.62499999725E+02  0.99999980579E+01 0.  0.
    3000022    2    5    5    0    0 -0.65977135784E+01  0.18798034098E+02  0.15086849776E+01  0.19980854364E+02  0.25000066585E+00 0.  0.
        -13    1    4    4    0    0  0.81418225624E+00 -0.51202543224E+01 -0.23658542356E+01  0.56998410799E+01  0.10500000000E+00 0. -1.
         13    1    4    4    0    0  0.16547461557E+01 -0.10709337848E+02 -0.51116702290E+01  0.11981998978E+02  0.10500000000E+00 0.  1.
    3000001    1    5    5    0    0 -0.15669673747E+02  0.35704755283E+02  0.16926591419E+02  0.42519145361E+02  0.10000000000E+01 0. -1.
        -13    1    6    6    0    0 -0.48611401773E+01  0.13928909549E+02  0.11347000357E+01  0.14796748772E+02  0.10500000000E+00 0. -1.
         13    1    6    6    0    0 -0.17365734010E+01  0.48691245492E+01  0.37398494189E+00  0.51841055921E+01  0.10500000000E+00 0.  1.
</event>
<event>
11    0  0.3483054E-009  0.9118800E+02  0.7816531E-02  0.1126479E+00
         25   -1    0    0    0    0  0.00000000000E+00  0.00000000000E+00  0.99999998245E-14  0.12500000000E+03  0.12500000000E+03 0.  0.
    3000001    1    3    3    0    0 -0.12202403094E+01 -0.19402209008E+02  0.80007263003E+01  0.21046289985E+02  0.10000000000E+01 0. -1.
    1000022    2    1    0    0    0 -0.17028506657E+02 -0.55341542714E+02  0.21297743031E+02  0.62500000804E+02  0.99999926679E+01 0.  0.
    3000022    2    3    3    0    0 -0.15808266347E+02 -0.35939333705E+02  0.13297016730E+02  0.41453710818E+02  0.24998916049E+00 0.  0.
    1000022    2    1    0    0    0  0.17028506657E+02  0.55341542714E+02 -0.21297743031E+02  0.62499999196E+02  0.99999826226E+01 0.  0.
    3000022    2    5    5    0    0  0.14157562800E+01  0.28153496507E+01 -0.38535641969E+01  0.49842769354E+01  0.25000009751E+00 0.  0.
        -13    1    4    4    0    0 -0.76214386523E+01 -0.17205136363E+02  0.64220916647E+01  0.19883594513E+02  0.10500000000E+00 0. -1.
         13    1    4    4    0    0 -0.81868276949E+01 -0.18734197342E+02  0.68749250658E+01  0.21570116305E+02  0.10500000000E+00 0.  1.
    3000001    1    5    5    0    0  0.15612750377E+02  0.52526193063E+02 -0.17444178834E+02  0.57515722261E+02  0.10000000000E+01 0. -1.
        -13    1    6    6    0    0  0.10438508732E+01  0.20946148430E+01 -0.29025425771E+01  0.37299885252E+01  0.10500000000E+00 0.  1.
         13    1    6    6    0    0  0.37190540680E+00  0.72073480770E+00 -0.95102161978E+00  0.12542884102E+01  0.10500000000E+00 0. -1.
</event>
<event>
11    0  0.3483054E-009  0.9118800E+02  0.7816531E-02  0.1126479E+00
         25   -1    0    0    0    0  0.00000000000E+00  0.00000000000E+00  0.99999998245E-14  0.12500000000E+03  0.12500000000E+03 0.  0.
    3000001    1    3    3    0    0 -0.43505521837E+01  0.12313686426E+01  0.47182354565E+01  0.66109998381E+01  0.10000000000E+01 0. -1.
    1000022    2    1    0    0    0 -0.30329238678E+02 -0.12656021182E+02  0.52213144218E+02  0.62500002208E+02  0.10000012793E+02 0.  0.
    3000022    2    3    3    0    0 -0.25978686494E+02 -0.13887389824E+02  0.47494908762E+02  0.55889002370E+02  0.24995894506E+00 0.  0.
    1000022    2    1    0    0    0  0.30329238678E+02  0.12656021182E+02 -0.52213144218E+02  0.62499997792E+02  0.99999851968E+01 0.  0.
    3000022    2    5    5    0    0  0.28164754185E+02  0.14050479835E+02 -0.49250271270E+02  0.58449303510E+02  0.24999763964E+00 0.  0.
        -13    1    4    4    0    0 -0.74785931605E+01 -0.39504683604E+01  0.13628890883E+02  0.16040363076E+02  0.10500000000E+00 0. -1.
         13    1    4    4    0    0 -0.18500093334E+02 -0.99369214637E+01  0.33866017879E+02  0.39848639293E+02  0.10500000000E+00 0.  1.
    3000001    1    5    5    0    0  0.21644844925E+01 -0.13944586533E+01 -0.29628729488E+01  0.40506942818E+01  0.10000000000E+01 0.  1.
        -13    1    6    6    0    0  0.85889448942E+01  0.43338068234E+01 -0.15086712328E+02  0.17893344289E+02  0.10500000000E+00 0. -1.
         13    1    6    6    0    0  0.19575809291E+02  0.97166730114E+01 -0.34163558942E+02  0.40555959222E+02  0.10500000000E+00 0.  1.
</event>
<event>
11    0  0.3483054E-009  0.9118800E+02  0.7816531E-02  0.1126479E+00
         25   -1    0    0    0    0  0.00000000000E+00  0.00000000000E+00  0.99999998245E-14  0.12500000000E+03  0.12500000000E+03 0.  0.
    3000001    1    3    3    0    0  0.44878666438E+01 -0.17213415356E+00 -0.34213940945E+01  0.57338045597E+01  0.10000000000E+01 0.  1.
    1000022    2    1    0    0    0  0.59376424169E+02  0.10975082520E+02 -0.12658502861E+02  0.62499999300E+02  0.10000001719E+02 0.  0.
    3000022    2    3    3    0    0  0.54888557525E+02  0.11147216674E+02 -0.92371087662E+01  0.56766194740E+02  0.25000029508E+00 0.  0.
    1000022    2    1    0    0    0 -0.59376424169E+02 -0.10975082520E+02  0.12658502861E+02  0.62500000700E+02  0.10000010468E+02 0.  0.
    3000022    2    5    5    0    0 -0.22864050576E+02 -0.27829236979E+01  0.15868294455E+00  0.23034694550E+02  0.24999935904E+00 0.  0.
        -13    1    4    4    0    0  0.41055491513E+02  0.83653896869E+01 -0.69047389939E+01  0.42464332958E+02  0.10500000000E+00 0. -1.
         13    1    4    4    0    0  0.13833066012E+02  0.27818269867E+01 -0.23323697724E+01  0.14301861782E+02  0.10500000000E+00 0.  1.
    3000001    1    5    5    0    0 -0.36512373593E+02 -0.81921588222E+01  0.12499819916E+02  0.39465306150E+02  0.10000000000E+01 0. -1.
        -13    1    6    6    0    0 -0.10494529627E+02 -0.13187963300E+01  0.12581988938E+00  0.10578337842E+02  0.10500000000E+00 0. -1.
         13    1    6    6    0    0 -0.12369520949E+02 -0.14641273678E+01  0.32863055165E-01  0.12456356708E+02  0.10500000000E+00 0.  1.
</event>
<event>
11    0  0.3483054E-009  0.9118800E+02  0.7816531E-02  0.1126479E+00
         25   -1    0    0    0    0  0.00000000000E+00  0.00000000000E+00  0.99999998245E-14  0.12500000000E+03  0.12500000000E+03 0.  0.
    3000001    1    3    3    0    0 -0.19297577904E-01  0.22659906860E+00 -0.39545781987E-01  0.10262959628E+01  0.10000000000E+01 0. -1.
    1000022    2    1    0    0    0 -0.42132604820E+01  0.61174651609E+02  0.67941424157E+01  0.62499999556E+02  0.10000000499E+02 0.  0.
    3000022    2    3    3    0    0 -0.41939629041E+01  0.60948052541E+02  0.68336881977E+01  0.61473703593E+02  0.25001157242E+00 0.  0.
    1000022    2    1    0    0    0  0.42132604820E+01 -0.61174651609E+02 -0.67941424157E+01  0.62500000444E+02  0.10000006045E+02 0.  0.
    3000022    2    5    5    0    0  0.23206325176E+01 -0.44037549904E+02 -0.92412051925E+01  0.45057225099E+02  0.25004690088E+00 0.  0.
        -13    1    4    4    0    0 -0.12082728040E+01  0.17113919633E+02  0.18931722884E+01  0.17260976064E+02  0.10500000000E+00 0. -1.
         13    1    4    4    0    0 -0.29856901000E+01  0.43834132907E+02  0.49405159092E+01  0.44212727529E+02  0.10500000000E+00 0.  1.
    3000001    1    5    5    0    0  0.18926279644E+01 -0.17137101706E+02  0.24470627768E+01  0.17442775344E+02  0.10000000000E+01 0.  1.
        -13    1    6    6    0    0  0.17145957785E+01 -0.31831755328E+02 -0.66688734080E+01  0.32568165185E+02  0.10500000000E+00 0. -1.
         13    1    6    6    0    0  0.60603673914E+00 -0.12205794575E+02 -0.25723317845E+01  0.12489059915E+02  0.10500000000E+00 0.  1.
</event>
<event>
11    0  0.3483054E-009  0.9118800E+02  0.7816531E-02  0.1126479E+00
         25   -1    0    0    0    0  0.00000000000E+00  0.00000000000E+00  0.99999998245E-14  0.12500000000E+03  0.12500000000E+03 0.  0.
    3000001    1    3    3    0    0  0.52396404588E+01  0.60752915943E+01  0.14203696608E+02  0.16343438972E+02  0.10000000000E+01 0.  1.
    1000022    2    1    0    0    0  0.19785088668E+02  0.71769164882E+01  0.57993899295E+02  0.62499998532E+02  0.99999798609E+01 0.  0.
    3000022    2    3    3    0    0  0.14545448209E+02  0.11016248939E+01  0.43790202687E+02  0.46156559560E+02  0.24999615887E+00 0.  0.
    1000022    2    1    0    0    0 -0.19785088668E+02 -0.71769164882E+01 -0.57993899295E+02  0.62500001468E+02  0.99999982107E+01 0.  0.
    3000022    2    5    5    0    0 -0.14075863914E+02 -0.37948600288E+00 -0.40080858684E+02  0.42483075320E+02  0.25000248397E+00 0.  0.
        -13    1    4    4    0    0  0.82056613113E+01  0.63130469262E+00  0.24911336816E+02  0.26235799018E+02  0.10500000000E+00 0. -1.
         13    1    4    4    0    0  0.63397868976E+01  0.47032020129E+00  0.18878865871E+02  0.19920760542E+02  0.10500000000E+00 0.  1.
    3000001    1    5    5    0    0 -0.57092247535E+01 -0.67974304853E+01 -0.17913040611E+02  0.20016926148E+02  0.10000000000E+01 0. -1.
        -13    1    6    6    0    0 -0.82017182184E+01 -0.15652860156E+00 -0.23341152778E+02  0.24740919969E+02  0.10500000000E+00 0.  1.
         13    1    6    6    0    0 -0.58741456957E+01 -0.22295740132E+00 -0.16739705906E+02  0.17742155351E+02  0.10500000000E+00 0. -1.
</event>
<event>
11    0  0.3483054E-009  0.9118800E+02  0.7816531E-02  0.1126479E+00
         25   -1    0    0    0    0  0.00000000000E+00  0.00000000000E+00  0.99999998245E-14  0.12500000000E+03  0.12500000000E+03 0.  0.
    3000001    1    3    3    0    0 -0.77760307087E+01 -0.13178580213E+02 -0.87064236209E+01  0.17633588468E+02  0.10000000000E+01 0.  1.
    1000022    2    1    0    0    0 -0.13350211647E+02 -0.47201905018E+02 -0.37416598823E+02  0.62499998909E+02  0.10000000393E+02 0.  0.
    3000022    2    3    3    0    0 -0.55741809382E+01 -0.34023324805E+02 -0.28710175202E+02  0.44866410441E+02  0.25000360558E+00 0.  0.
    1000022    2    1    0    0    0  0.13350211647E+02  0.47201905018E+02  0.37416598823E+02  0.62500001091E+02  0.10000014028E+02 0.  0.
    3000022    2    5    5    0    0  0.13139949872E+02  0.35714063418E+02  0.32163725750E+02  0.49826903989E+02  0.24999704615E+00 0.  0.
        -13    1    4    4    0    0 -0.38242366885E+01 -0.23601677164E+02 -0.19880887931E+02  0.31095412542E+02  0.10500000000E+00 0.  1.
         13    1    4    4    0    0 -0.17499442497E+01 -0.10421647641E+02 -0.88292872711E+01  0.13770997899E+02  0.10500000000E+00 0. -1.
    3000001    1    5    5    0    0  0.21026177449E+00  0.11487841600E+02  0.52528730726E+01  0.12673097102E+02  0.10000000000E+01 0.  1.
        -13    1    6    6    0    0  0.61228070103E+01  0.16685692147E+02  0.15108144427E+02  0.23327411797E+02  0.10500000000E+00 0. -1.
         13    1    6    6    0    0  0.70171428621E+01  0.19028371271E+02  0.17055581324E+02  0.26499492192E+02  0.10500000000E+00 0.  1.
</event>
<event>
11    0  0.3483054E-009  0.9118800E+02  0.7816531E-02  0.1126479E+00
         25   -1    0    0    0    0  0.00000000000E+00  0.00000000000E+00  0.99999998245E-14  0.12500000000E+03  0.12500000000E+03 0.  0.
    3000001    1    3    3    0    0  0.69725439295E+00 -0.17557448399E+01  0.29390143694E+01  0.36340898579E+01  0.10000000000E+01 0.  1.
    1000022    2    1    0    0    0 -0.13793618903E+02 -0.49881798125E+02  0.33582620324E+02  0.62500001044E+02  0.10000001801E+02 0.  0.
    3000022    2    3    3    0    0 -0.14490873296E+02 -0.48126053285E+02  0.30643605955E+02  0.58865911186E+02  0.25000032454E+00 0.  0.
    1000022    2    1    0    0    0  0.13793618903E+02  0.49881798125E+02 -0.33582620324E+02  0.62499998956E+02  0.99999887547E+01 0.  0.
    3000022    2    5    5    0    0  0.13020688267E+02  0.41901827369E+02 -0.31894850598E+02  0.54246156113E+02  0.24999715692E+00 0.  0.
        -13    1    4    4    0    0 -0.10654629328E+02 -0.35338807185E+02  0.22540574351E+02  0.43248594618E+02  0.10500000000E+00 0. -1.
         13    1    4    4    0    0 -0.38362439674E+01 -0.12787246100E+02  0.81030316044E+01  0.15617316568E+02  0.10500000000E+00 0.  1.
    3000001    1    5    5    0    0  0.77293063554E+00  0.79799707562E+01 -0.16877697268E+01  0.82538428436E+01  0.10000000000E+01 0.  1.
        -13    1    6    6    0    0  0.83957515814E+01  0.26969235386E+02 -0.20600386900E+02  0.34960195471E+02  0.10500000000E+00 0. -1.
         13    1    6    6    0    0  0.46249366860E+01  0.14932591982E+02 -0.11294463698E+02  0.19285960642E+02  0.10500000000E+00 0.  1.
</event>
<event>
11    0  0.3483054E-009  0.9118800E+02  0.7816531E-02  0.1126479E+00
         25   -1    0    0    0    0  0.00000000000E+00  0.00000000000E+00  0.99999998245E-14  0.12500000000E+03  0.12500000000E+03 0.  0.
    3000001    1    3    3    0    0  0.36804544366E+02 -0.94921984006E+01  0.21786502046E+02  0.43821547073E+02  0.10000000000E+01 0.  1.
    1000022    2    1    0    0    0  0.50046103490E+02 -0.19490985301E+02  0.30360154574E+02  0.62500001206E+02  0.10000009122E+02 0.  0.
    3000022    2    3    3    0    0  0.13241559124E+02 -0.99987869002E+01  0.85736525278E+01  0.18678454133E+02  0.25000723133E+00 0.  0.
    1000022    2    1    0    0    0 -0.50046103490E+02  0.19490985301E+02 -0.30360154574E+02  0.62499998794E+02  0.99999940473E+01 0.  0.
    3000022    2    5    5    0    0 -0.34909875014E+00  0.17451737464E+01 -0.15251775315E+01  0.23571520963E+01  0.24999632024E+00 0.  0.
        -13    1    4    4    0    0  0.57871548351E+01 -0.44435849810E+01  0.38042232084E+01  0.82292009204E+01  0.10500000000E+00 0.  1.
         13    1    4    4    0    0  0.74544042892E+01 -0.55552019192E+01  0.47694293194E+01  0.10449253213E+02  0.10500000000E+00 0. -1.
    3000001    1    5    5    0    0 -0.49697004740E+02  0.17745811554E+02 -0.28834977042E+02  0.60142846698E+02  0.10000000000E+01 0.  1.
        -13    1    6    6    0    0 -0.68228187433E-01  0.61120629389E+00 -0.50673875141E+00  0.80376450620E+00  0.10500000000E+00 0.  1.
         13    1    6    6    0    0 -0.28087056270E+00  0.11339674525E+01 -0.10184387801E+01  0.15533875901E+01  0.10500000000E+00 0. -1.
</event>
<event>
11    0  0.3483054E-009  0.9118800E+02  0.7816531E-02  0.1126479E+00
         25   -1    0    0    0    0  0.00000000000E+00  0.00000000000E+00  0.99999998245E-14  0.12500000000E+03  0.12500000000E+03 0.  0.
    3000001    1    3    3    0    0 -0.21879353284E+02  0.12267432531E+02 -0.53015381773E+01  0.25657402598E+02  0.10000000000E+01 0.  1.
    1000022    2    1    0    0    0 -0.57448820119E+02  0.18821821391E+02 -0.12313494478E+02  0.62500000290E+02  0.99999998259E+01 0.  0.
    3000022    2    3    3    0    0 -0.35569466835E+02  0.65543888605E+01 -0.70119563009E+01  0.36842597693E+02  0.24997865732E+00 0.  0.
    1000022    2    1    0    0    0  0.57448820119E+02 -0.18821821391E+02  0.12313494478E+02  0.62499999710E+02  0.99999961989E+01 0.  0.
    3000022    2    5    5    0    0  0.30710263550E+02 -0.57754738572E+01  0.34466761329E+01  0.31439123050E+02  0.24999233151E+00 0.  0.
        -13    1    4    4    0    0 -0.20634141796E+02  0.37443117513E+01 -0.40970612811E+01  0.21367840656E+02  0.10500000000E+00 0.  1.
         13    1    4    4    0    0 -0.14935325039E+02  0.28100771092E+01 -0.29148950199E+01  0.15474757037E+02  0.10500000000E+00 0. -1.
    3000001    1    5    5    0    0  0.26738556568E+02 -0.13046347534E+02  0.88668183454E+01  0.31060876660E+02  0.10000000000E+01 0. -1.
        -13    1    6    6    0    0  0.11666737945E+02 -0.21509578537E+01  0.13523518834E+01  0.11940656372E+02  0.10500000000E+00 0.  1.
         13    1    6    6    0    0  0.19043525605E+02 -0.36245160035E+01  0.20943242494E+01  0.19498466678E+02  0.10500000000E+00 0. -1.
</event>
<event>
11    0  0.3483054E-009  0.9118800E+02  0.7816531E-02  0.1126479E+00
         25   -1    0    0    0    0  0.00000000000E+00  0.00000000000E+00  0.99999998245E-14  0.12500000000E+03  0.12500000000E+03 0.  0.
    3000001    1    3    3    0    0  0.28794279063E+02  0.61383099135E+01 -0.52820665242E+02  0.60479848148E+02  0.10000000000E+01 0. -1.
    1000022    2    1    0    0    0  0.28167166834E+02  0.54973619291E+01 -0.54613548194E+02  0.62499999927E+02  0.10000003446E+02 0.  0.
    3000022    2    3    3    0    0 -0.62711222958E+00 -0.64094798438E+00 -0.17928829518E+01  0.20201517791E+01  0.24999972943E+00 0.  0.
    1000022    2    1    0    0    0 -0.28167166834E+02 -0.54973619291E+01  0.54613548194E+02  0.62500000073E+02  0.10000004356E+02 0.  0.
    3000022    2    5    5    0    0 -0.24137598822E+02 -0.77744264018E+01  0.42463807370E+02  0.49460113452E+02  0.25000722430E+00 0.  0.
        -13    1    4    4    0    0 -0.22877686087E+00 -0.21816004659E+00 -0.77382220414E+00  0.84247163847E+00  0.10500000000E+00 0. -1.
         13    1    4    4    0    0 -0.39833536871E+00 -0.42278793778E+00 -0.10190607476E+01  0.11776801406E+01  0.10500000000E+00 0.  1.
    3000001    1    5    5    0    0 -0.40295680119E+01  0.22770644727E+01  0.12149740824E+02  0.13039886621E+02  0.10000000000E+01 0.  1.
        -13    1    6    6    0    0 -0.17015954353E+02 -0.55263315840E+01  0.29941522210E+02  0.34879633320E+02  0.10500000000E+00 0.  1.
         13    1    6    6    0    0 -0.71216444685E+01 -0.22480948178E+01  0.12522285160E+02  0.14580480132E+02  0.10500000000E+00 0. -1.
</event>
<event>
11    0  0.3483054E-009  0.9118800E+02  0.7816531E-02  0.1126479E+00
         25   -1    0    0    0    0  0.00000000000E+00  0.00000000000E+00  0.99999998245E-14  0.12500000000E+03  0.12500000000E+03 0.  0.
    3000001    1    3    3    0    0 -0.19120109811E+02  0.44866434269E+02  0.28903895263E+01  0.48866449378E+02  0.10000000000E+01 0.  1.
    1000022    2    1    0    0    0 -0.19627850180E+02  0.58224750164E+02  0.55566200912E+01  0.62499999673E+02  0.99999949002E+01 0.  0.
    3000022    2    3    3    0    0 -0.50774036888E+00  0.13358315895E+02  0.26662305649E+01  0.13633550295E+02  0.25000880404E+00 0.  0.
    1000022    2    1    0    0    0  0.19627850180E+02 -0.58224750164E+02 -0.55566200912E+01  0.62500000327E+02  0.99999989821E+01 0.  0.
    3000022    2    5    5    0    0  0.56649442524E+01 -0.30764255795E+02 -0.49470486199E+01  0.31671230155E+02  0.25000292466E+00 0.  0.
        -13    1    4    4    0    0 -0.13537853003E+00  0.46690572024E+01  0.97009299454E+00  0.47718474330E+01  0.10500000000E+00 0. -1.
         13    1    4    4    0    0 -0.37236183885E+00  0.86892586922E+01  0.16961375704E+01  0.88617028622E+01  0.10500000000E+00 0.  1.
    3000001    1    5    5    0    0  0.13962905927E+02 -0.27460494369E+02 -0.60957147133E+00  0.30828770171E+02  0.10000000000E+01 0. -1.
        -13    1    6    6    0    0  0.43006918401E+01 -0.23246761427E+02 -0.37273922055E+01  0.23933498382E+02  0.10500000000E+00 0.  1.
         13    1    6    6    0    0  0.13642524123E+01 -0.75174943684E+01 -0.12196564144E+01  0.77377317731E+01  0.10500000000E+00 0. -1.
</event>
<event>
11    0  0.3483054E-009  0.9118800E+02  0.7816531E-02  0.1126479E+00
         25   -1    0    0    0    0  0.00000000000E+00  0.00000000000E+00  0.99999998245E-14  0.12500000000E+03  0.12500000000E+03 0.  0.
    3000001    1    3    3    0    0 -0.18542384312E+02 -0.12435891995E+02 -0.18919136991E+02  0.29281481694E+02  0.10000000000E+01 0.  1.
    1000022    2    1    0    0    0 -0.46291457758E+02 -0.20054674129E+02 -0.35512824906E+02  0.62499999415E+02  0.10000008916E+02 0.  0.
    3000022    2    3    3    0    0 -0.27749073445E+02 -0.76187821349E+01 -0.16593687915E+02  0.33218517721E+02  0.25004540098E+00 0.  0.
    1000022    2    1    0    0    0  0.46291457758E+02  0.20054674129E+02  0.35512824906E+02  0.62500000585E+02  0.10000016228E+02 0.  0.
    3000022    2    5    5    0    0  0.32548855786E+02  0.10190300173E+02  0.20078561552E+02  0.39578799312E+02  0.24998083013E+00 0.  0.
        -13    1    4    4    0    0 -0.14133341587E+02 -0.38867204556E+01 -0.83745719853E+01  0.16882014727E+02  0.10500000000E+00 0. -1.
         13    1    4    4    0    0 -0.13615731859E+02 -0.37320616793E+01 -0.82191159295E+01  0.16336502994E+02  0.10500000000E+00 0.  1.
    3000001    1    5    5    0    0  0.13742601972E+02  0.98643739560E+01  0.15434263354E+02  0.22921201273E+02  0.10000000000E+01 0. -1.
        -13    1    6    6    0    0  0.18375888672E+02  0.56865280878E+01  0.11303436335E+02  0.22311176217E+02  0.10500000000E+00 0. -1.
         13    1    6    6    0    0  0.14172967114E+02  0.45037720856E+01  0.87751252171E+01  0.17267623096E+02  0.10500000000E+00 0.  1.
</event>
<event>
11    0  0.3483054E-009  0.9118800E+02  0.7816531E-02  0.1126479E+00
         25   -1    0    0    0    0  0.00000000000E+00  0.00000000000E+00  0.99999998245E-14  0.12500000000E+03  0.12500000000E+03 0.  0.
    3000001    1    3    3    0    0  0.18375832180E+02 -0.44110373111E+01  0.22967596829E+02  0.29759686869E+02  0.10000000000E+01 0. -1.
    1000022    2    1    0    0    0  0.43489895318E+02 -0.14992943498E+02  0.41110713278E+02  0.62499999645E+02  0.99999929961E+01 0.  0.
    3000022    2    3    3    0    0  0.25114063138E+02 -0.10581906187E+02  0.18143116449E+02  0.32740312776E+02  0.25000065644E+00 0.  0.
    1000022    2    1    0    0    0 -0.43489895318E+02  0.14992943498E+02 -0.41110713278E+02  0.62500000355E+02  0.99999974294E+01 0.  0.
    3000022    2    5    5    0    0 -0.24406225228E+02  0.76220471749E+01 -0.16283924297E+02  0.30314816996E+02  0.25001196381E+00 0.  0.
        -13    1    4    4    0    0  0.70304732389E+01 -0.30055302146E+01  0.50931445142E+01  0.91875955438E+01  0.10500000000E+00 0. -1.
         13    1    4    4    0    0  0.18083589899E+02 -0.75763759727E+01  0.13049971935E+02  0.23552717233E+02  0.10500000000E+00 0.  1.
    3000001    1    5    5    0    0 -0.19083670090E+02  0.73708963236E+01 -0.24826788981E+02  0.32185183359E+02  0.10000000000E+01 0.  1.
        -13    1    6    6    0    0 -0.74955731204E+01  0.23868002775E+01 -0.50327882170E+01  0.93391870206E+01  0.10500000000E+00 0.  1.
         13    1    6    6    0    0 -0.16910652108E+02  0.52352468974E+01 -0.11251136080E+02  0.20975629976E+02  0.10500000000E+00 0. -1.
</event>
<event>
11    0  0.3483054E-009  0.9118800E+02  0.7816531E-02  0.1126479E+00
         25   -1    0    0    0    0  0.00000000000E+00  0.00000000000E+00  0.99999998245E-14  0.12500000000E+03  0.12500000000E+03 0.  0.
    3000001    1    3    3    0    0 -0.10328313019E+02 -0.77636271307E+01 -0.10577627838E+01  0.13002569675E+02  0.10000000000E+01 0. -1.
    1000022    2    1    0    0    0 -0.54080555757E+02 -0.27689042696E+02  0.10717301187E+02  0.62499999570E+02  0.99999902557E+01 0.  0.
    3000022    2    3    3    0    0 -0.43752242737E+02 -0.19925415565E+02  0.11775063971E+02  0.49497429894E+02  0.25000931467E+00 0.  0.
    1000022    2    1    0    0    0  0.54080555757E+02  0.27689042696E+02 -0.10717301187E+02  0.62500000430E+02  0.99999956349E+01 0.  0.
    3000022    2    5    5    0    0  0.23483614336E+02  0.12560495099E+02 -0.96780280006E+01  0.28336776557E+02  0.25000045776E+00 0.  0.
        -13    1    4    4    0    0 -0.15849728408E+02 -0.72819827066E+01  0.42798246158E+01  0.17960208420E+02  0.10500000000E+00 0. -1.
         13    1    4    4    0    0 -0.27902514329E+02 -0.12643432859E+02  0.74952393553E+01  0.31537221474E+02  0.10500000000E+00 0.  1.
    3000001    1    5    5    0    0  0.30596941420E+02  0.15128547597E+02 -0.10392731866E+01  0.34163223873E+02  0.10000000000E+01 0.  1.
        -13    1    6    6    0    0  0.95361084014E+01  0.51562121418E+01 -0.39828134655E+01  0.11549792864E+02  0.10500000000E+00 0. -1.
         13    1    6    6    0    0  0.13947505935E+02  0.74042829571E+01 -0.56952145351E+01  0.16786983693E+02  0.10500000000E+00 0.  1.
</event>
<event>
11    0  0.3483054E-009  0.9118800E+02  0.7816531E-02  0.1126479E+00
         25   -1    0    0    0    0  0.00000000000E+00  0.00000000000E+00  0.99999998245E-14  0.12500000000E+03  0.12500000000E+03 0.  0.
    3000001    1    3    3    0    0 -0.18197665918E+02  0.74261871502E+01  0.94722472732E+01  0.21840942490E+02  0.10000000000E+01 0.  1.
    1000022    2    1    0    0    0 -0.52907480931E+02  0.27760179777E+02  0.15375999822E+02  0.62500004284E+02  0.10000002259E+02 0.  0.
    3000022    2    3    3    0    0 -0.34709815013E+02  0.20333992627E+02  0.59037525491E+01  0.40659061793E+02  0.24999473392E+00 0.  0.
    1000022    2    1    0    0    0  0.52907480931E+02 -0.27760179777E+02 -0.15375999822E+02  0.62499995716E+02  0.99999487110E+01 0.  0.
    3000022    2    5    5    0    0  0.73607154090E+01 -0.32053801015E+00 -0.13000420120E+01  0.74856850495E+01  0.24999095790E+00 0.  0.
        -13    1    4    4    0    0 -0.16960873292E+02  0.99317950837E+01  0.28161558639E+01  0.19855818675E+02  0.10500000000E+00 0.  1.
         13    1    4    4    0    0 -0.17748941721E+02  0.10402197543E+02  0.30875966851E+01  0.20803243118E+02  0.10500000000E+00 0. -1.
    3000001    1    5    5    0    0  0.45546765522E+02 -0.27439641767E+02 -0.14075957810E+02  0.55014310667E+02  0.10000000000E+01 0. -1.
        -13    1    6    6    0    0  0.41108589734E+01 -0.12080678669E+00 -0.69331608252E+00  0.41719860941E+01  0.10500000000E+00 0. -1.
         13    1    6    6    0    0  0.32498564355E+01 -0.19973122346E+00 -0.60672592944E+00  0.33136989554E+01  0.10500000000E+00 0.  1.
</event>
<event>
11    0  0.3483054E-009  0.9118800E+02  0.7816531E-02  0.1126479E+00
         25   -1    0    0    0    0  0.00000000000E+00  0.00000000000E+00  0.99999998245E-14  0.12500000000E+03  0.12500000000E+03 0.  0.
    3000001    1    3    3    0    0  0.25628144530E+02  0.25360219787E+02  0.15262298733E+01  0.36100857570E+02  0.10000000000E+01 0. -1.
    1000022    2    1    0    0    0  0.49255008403E+02  0.37130443055E+02  0.12343812992E+01  0.62499996345E+02  0.10000009581E+02 0.  0.
    3000022    2    3    3    0    0  0.23626863873E+02  0.11770223269E+02 -0.29184857414E+00  0.26399138774E+02  0.25000034196E+00 0.  0.
    1000022    2    1    0    0    0 -0.49255008403E+02 -0.37130443055E+02 -0.12343812992E+01  0.62500003655E+02  0.10000055274E+02 0.  0.
    3000022    2    5    5    0    0 -0.47361928669E+02 -0.34487178467E+02  0.68908361080E+00  0.58592278509E+02  0.24999752460E+00 0.  0.
        -13    1    4    4    0    0  0.90628534033E+01  0.44514884947E+01 -0.88818470360E-01  0.10098018387E+02  0.10500000000E+00 0.  1.
         13    1    4    4    0    0  0.14564010470E+02  0.73187347738E+01 -0.20303010378E+00  0.16301120387E+02  0.10500000000E+00 0. -1.
    3000001    1    5    5    0    0 -0.18930797343E+01 -0.26432645880E+01 -0.19234649100E+01  0.39077251467E+01  0.10000000000E+01 0.  1.
        -13    1    6    6    0    0 -0.26104577173E+02 -0.18932336557E+02  0.40502008838E+00  0.32249920669E+02  0.10500000000E+00 0.  1.
         13    1    6    6    0    0 -0.21257351496E+02 -0.15554841910E+02  0.28406352241E+00  0.26342357840E+02  0.10500000000E+00 0. -1.
</event>
<event>
11    0  0.3483054E-009  0.9118800E+02  0.7816531E-02  0.1126479E+00
         25   -1    0    0    0    0  0.00000000000E+00  0.00000000000E+00  0.99999998245E-14  0.12500000000E+03  0.12500000000E+03 0.  0.
    3000001    1    3    3    0    0 -0.31606047709E+01  0.32077530440E+01 -0.54864570624E+01  0.71680062225E+01  0.10000000000E+01 0. -1.
    1000022    2    1    0    0    0 -0.48090433667E+02  0.18663603200E+02 -0.33841247636E+02  0.62499999471E+02  0.99999998838E+01 0.  0.
    3000022    2    3    3    0    0 -0.44929828896E+02  0.15455850156E+02 -0.28354790574E+02  0.55331993249E+02  0.24999948025E+00 0.  0.
    1000022    2    1    0    0    0  0.48090433667E+02 -0.18663603200E+02  0.33841247636E+02  0.62500000529E+02  0.10000006492E+02 0.  0.
    3000022    2    5    5    0    0  0.30745300458E+02 -0.16382055069E+02  0.20009959393E+02  0.40175940809E+02  0.25003288751E+00 0.  0.
        -13    1    4    4    0    0 -0.22064677722E+02  0.76299574362E+01 -0.13998246632E+02  0.27221832915E+02  0.10500000000E+00 0. -1.
         13    1    4    4    0    0 -0.22865151174E+02  0.78258927196E+01 -0.14356543941E+02  0.28110160334E+02  0.10500000000E+00 0.  1.
    3000001    1    5    5    0    0  0.17345133209E+02 -0.22815481311E+01  0.13831288243E+02  0.22324059720E+02  0.10000000000E+01 0.  1.
        -13    1    6    6    0    0  0.89213013864E+01 -0.48022757945E+01  0.58145289559E+01  0.11682090704E+02  0.10500000000E+00 0.  1.
         13    1    6    6    0    0  0.21823999071E+02 -0.11579779274E+02  0.14195430437E+02  0.28493850105E+02  0.10500000000E+00 0. -1.
</event>
<event>
11    0  0.3483054E-009  0.9118800E+02  0.7816531E-02  0.1126479E+00
         25   -1    0    0    0    0  0.00000000000E+00  0.00000000000E+00  0.99999998245E-14  0.12500000000E+03  0.12500000000E+03 0.  0.
    3000001    1    3    3    0    0  0.16542452211E+02 -0.60863994069E+01 -0.12738284391E+02  0.21770642437E+02  0.10000000000E+01 0.  1.
    1000022    2    1    0    0    0  0.45863973992E+02 -0.28836731823E+02 -0.29515901680E+02  0.62499995643E+02  0.99999895379E+01 0.  0.
    3000022    2    3    3    0    0  0.29321521781E+02 -0.22750332416E+02 -0.16777617290E+02  0.40729353206E+02  0.25001210590E+00 0.  0.
    1000022    2    1    0    0    0 -0.45863973992E+02  0.28836731823E+02  0.29515901680E+02  0.62500004357E+02  0.10000044003E+02 0.  0.
    3000022    2    5    5    0    0 -0.44874263282E+02  0.26011460800E+02  0.28508432622E+02  0.59186897424E+02  0.24999626033E+00 0.  0.
        -13    1    4    4    0    0  0.11658867955E+02 -0.90498399470E+01 -0.66034089266E+01  0.16169255997E+02  0.10500000000E+00 0.  1.
         13    1    4    4    0    0  0.17662653827E+02 -0.13700492469E+02 -0.10174208363E+02  0.24560097209E+02  0.10500000000E+00 0. -1.
    3000001    1    5    5    0    0 -0.98971071026E+00  0.28252710233E+01  0.10074690581E+01  0.33131069328E+01  0.10000000000E+01 0.  1.
        -13    1    6    6    0    0 -0.30230095903E+02  0.17465548368E+02  0.19207571475E+02  0.39847784193E+02  0.10500000000E+00 0.  1.
         13    1    6    6    0    0 -0.14644167379E+02  0.85459124317E+01  0.93008611470E+01  0.19339113232E+02  0.10500000000E+00 0. -1.
</event>
<event>
11    0  0.3483054E-009  0.9118800E+02  0.7816531E-02  0.1126479E+00
         25   -1    0    0    0    0  0.00000000000E+00  0.00000000000E+00  0.99999998245E-14  0.12500000000E+03  0.12500000000E+03 0.  0.
    3000001    1    3    3    0    0 -0.17924816570E+02 -0.25751244123E+02 -0.95041296387E+01  0.32798690570E+02  0.10000000000E+01 0. -1.
    1000022    2    1    0    0    0 -0.39708426088E+02 -0.42151970027E+02 -0.21276803129E+02  0.62500000233E+02  0.99999999133E+01 0.  0.
    3000022    2    3    3    0    0 -0.21783609519E+02 -0.16400725904E+02 -0.11772673490E+02  0.29701309663E+02  0.25000154975E+00 0.  0.
    1000022    2    1    0    0    0  0.39708426088E+02  0.42151970027E+02  0.21276803129E+02  0.62499999767E+02  0.99999969947E+01 0.  0.
    3000022    2    5    5    0    0 -0.48801419901E+00  0.86634519464E+00  0.92727545473E+00  0.13824089591E+01  0.25000581318E+00 0.  0.
        -13    1    4    4    0    0 -0.59003698073E+01 -0.44595720094E+01 -0.31566956807E+01  0.80422570830E+01  0.10500000000E+00 0. -1.
         13    1    4    4    0    0 -0.15883239711E+02 -0.11941153894E+02 -0.86159778094E+01  0.21659052580E+02  0.10500000000E+00 0.  1.
    3000001    1    5    5    0    0  0.40196440287E+02  0.41285624832E+02  0.20349527674E+02  0.61117590807E+02  0.10000000000E+01 0. -1.
        -13    1    6    6    0    0 -0.19879057304E+00  0.42825929329E+00  0.51658536133E+00  0.70767870518E+00  0.10500000000E+00 0. -1.
         13    1    6    6    0    0 -0.28922362597E+00  0.43808590135E+00  0.41069009340E+00  0.67473025395E+00  0.10500000000E+00 0.  1.
</event>
<event>
11    0  0.3483054E-009  0.9118800E+02  0.7816531E-02  0.1126479E+00
         25   -1    0    0    0    0  0.00000000000E+00  0.00000000000E+00  0.99999998245E-14  0.12500000000E+03  0.12500000000E+03 0.  0.
    3000001    1    3    3    0    0 -0.98159184281E+01  0.53834774097E+02  0.22734637023E+02  0.59265494828E+02  0.10000000000E+01 0. -1.
    1000022    2    1    0    0    0 -0.92165984798E+01  0.55429679698E+02  0.25472630924E+02  0.62499999819E+02  0.99999986065E+01 0.  0.
    3000022    2    3    3    0    0  0.59931994828E+00  0.15949056012E+01  0.27379939010E+01  0.32345049903E+01  0.25000730586E+00 0.  0.
    1000022    2    1    0    0    0  0.92165984798E+01 -0.55429679698E+02 -0.25472630924E+02  0.62500000181E+02  0.10000000874E+02 0.  0.
    3000022    2    5    5    0    0  0.58206909142E+01 -0.24285709706E+02 -0.63014101649E+01  0.25757453176E+02  0.24997075355E+00 0.  0.
        -13    1    4    4    0    0  0.24904244538E+00  0.74226205936E+00  0.11452001253E+01  0.13912165293E+01  0.10500000000E+00 0.  1.
         13    1    4    4    0    0  0.35027750290E+00  0.85264354185E+00  0.15927937757E+01  0.18432884610E+01  0.10500000000E+00 0. -1.
    3000001    1    5    5    0    0  0.33959075657E+01 -0.31143969992E+02 -0.19171220759E+02  0.36742547006E+02  0.10000000000E+01 0. -1.
        -13    1    6    6    0    0  0.33036859591E+01 -0.14049566739E+02 -0.36213953270E+01  0.14880530756E+02  0.10500000000E+00 0.  1.
         13    1    6    6    0    0  0.25170049550E+01 -0.10236142967E+02 -0.26800148379E+01  0.10876922419E+02  0.10500000000E+00 0. -1.
</event>
<event>
11    0  0.3483054E-009  0.9118800E+02  0.7816531E-02  0.1126479E+00
         25   -1    0    0    0    0  0.00000000000E+00  0.00000000000E+00  0.99999998245E-14  0.12500000000E+03  0.12500000000E+03 0.  0.
    3000001    1    3    3    0    0 -0.11617786027E+02 -0.27822752201E+02  0.35129787659E+02  0.46305296384E+02  0.10000000000E+01 0.  1.
    1000022    2    1    0    0    0 -0.20999621867E+02 -0.35968879217E+02  0.45513798177E+02  0.62499999311E+02  0.99999849364E+01 0.  0.
    3000022    2    3    3    0    0 -0.93818358397E+01 -0.81461270162E+01  0.10384010518E+02  0.16194702928E+02  0.24999878207E+00 0.  0.
    1000022    2    1    0    0    0  0.20999621867E+02  0.35968879217E+02 -0.45513798177E+02  0.62500000689E+02  0.99999935461E+01 0.  0.
    3000022    2    5    5    0    0  0.21638437827E+02  0.32733734767E+02 -0.43133434374E+02  0.58311877329E+02  0.24998671287E+00 0.  0.
        -13    1    4    4    0    0 -0.27202126297E+01 -0.23080299648E+01  0.29683596326E+01  0.46420623625E+01  0.10500000000E+00 0. -1.
         13    1    4    4    0    0 -0.66616232100E+01 -0.58380970514E+01  0.74156508852E+01  0.11552640565E+02  0.10500000000E+00 0.  1.
    3000001    1    5    5    0    0 -0.63881595965E+00  0.32351444502E+01 -0.23803638031E+01  0.41881233601E+01  0.10000000000E+01 0. -1.
        -13    1    6    6    0    0  0.12366353488E+02  0.18592328905E+02 -0.24570043746E+02  0.33200895581E+02  0.10500000000E+00 0.  1.
         13    1    6    6    0    0  0.92720843384E+01  0.14141405862E+02 -0.18563390627E+02  0.25110981747E+02  0.10500000000E+00 0. -1.
</event>
<event>
11    0  0.3483054E-009  0.9118800E+02  0.7816531E-02  0.1126479E+00
         25   -1    0    0    0    0  0.00000000000E+00  0.00000000000E+00  0.99999998245E-14  0.12500000000E+03  0.12500000000E+03 0.  0.
    3000001    1    3    3    0    0  0.34413377793E+02  0.30284112735E+02  0.28317133243E+01  0.45939380226E+02  0.10000000000E+01 0.  1.
    1000022    2    1    0    0    0  0.48704659052E+02  0.37863026923E+02 -0.70536599104E+00  0.62499998968E+02  0.99999854345E+01 0.  0.
    3000022    2    3    3    0    0  0.14291281259E+02  0.75789141887E+01 -0.35370793153E+01  0.16560618742E+02  0.25000544931E+00 0.  0.
    1000022    2    1    0    0    0 -0.48704659052E+02 -0.37863026923E+02  0.70536599104E+00  0.62500001032E+02  0.99999983358E+01 0.  0.
    3000022    2    5    5    0    0 -0.39778047896E+02 -0.34983499150E+02  0.17988480203E+01  0.53004119300E+02  0.25000279454E+00 0.  0.
        -13    1    4    4    0    0  0.91738790705E+01  0.49252921961E+01 -0.22541478718E+01  0.10654143234E+02  0.10500000000E+00 0. -1.
         13    1    4    4    0    0  0.51174021884E+01  0.26536219926E+01 -0.12829314435E+01  0.59064755079E+01  0.10500000000E+00 0.  1.
    3000001    1    5    5    0    0 -0.89266111558E+01 -0.28795277736E+01 -0.10934820293E+01  0.94958817323E+01  0.10000000000E+01 0.  1.
        -13    1    6    6    0    0 -0.20204760103E+02 -0.17756719187E+02  0.98057846246E+00  0.26916648496E+02  0.10500000000E+00 0. -1.
         13    1    6    6    0    0 -0.19573287792E+02 -0.17226779963E+02  0.81826955784E+00  0.26087470804E+02  0.10500000000E+00 0.  1.
</event>
<event>
11    0  0.3483054E-009  0.9118800E+02  0.7816531E-02  0.1126479E+00
         25   -1    0    0    0    0  0.00000000000E+00  0.00000000000E+00  0.99999998245E-14  0.12500000000E+03  0.12500000000E+03 0.  0.
    3000001    1    3    3    0    0 -0.38362854646E+02 -0.35842048444E+02  0.31364336928E+01  0.52604165895E+02  0.10000000000E+01 0. -1.
    1000022    2    1    0    0    0 -0.46455011434E+02 -0.40597807570E+02  0.11563834191E-01  0.62500001369E+02  0.99999985256E+01 0.  0.
    3000022    2    3    3    0    0 -0.80921567885E+01 -0.47557591261E+01 -0.31248698586E+01  0.98958354734E+01  0.25000345732E+00 0.  0.
    1000022    2    1    0    0    0  0.46455011434E+02  0.40597807570E+02 -0.11563834191E-01  0.62499998631E+02  0.99999814171E+01 0.  0.
    3000022    2    5    5    0    0  0.40494378393E+02  0.34234626934E+02 -0.32962397683E+01  0.53129389791E+02  0.25000026563E+00 0.  0.
        -13    1    4    4    0    0 -0.26924260212E+01 -0.15313988235E+01 -0.10625088155E+01  0.32763226672E+01  0.10500000000E+00 0. -1.
         13    1    4    4    0    0 -0.53997307673E+01 -0.32243603026E+01 -0.20623610430E+01  0.66195128062E+01  0.10500000000E+00 0.  1.
    3000001    1    5    5    0    0  0.59606330411E+01  0.63631806355E+01  0.32846759341E+01  0.93706088405E+01  0.10000000000E+01 0. -1.
        -13    1    6    6    0    0  0.16346669952E+02  0.13758592439E+02 -0.13710315518E+01  0.21410353498E+02  0.10500000000E+00 0.  1.
         13    1    6    6    0    0  0.24147708442E+02  0.20476034496E+02 -0.19252082165E+01  0.31719036293E+02  0.10500000000E+00 0. -1.
</event>
<event>
11    0  0.3483054E-009  0.9118800E+02  0.7816531E-02  0.1126479E+00
         25   -1    0    0    0    0  0.00000000000E+00  0.00000000000E+00  0.99999998245E-14  0.12500000000E+03  0.12500000000E+03 0.  0.
    3000001    1    3    3    0    0  0.23801624965E+02  0.38157650265E+02  0.29750977062E+02  0.53931848298E+02  0.10000000000E+01 0. -1.
    1000022    2    1    0    0    0  0.28222791882E+02  0.45422201215E+02  0.30766015245E+02  0.62499999819E+02  0.99999969263E+01 0.  0.
    3000022    2    3    3    0    0  0.44211669165E+01  0.72645509495E+01  0.10150381834E+01  0.85681515207E+01  0.25000113302E+00 0.  0.
    1000022    2    1    0    0    0 -0.28222791882E+02 -0.45422201215E+02 -0.30766015245E+02  0.62500000181E+02  0.99999991886E+01 0.  0.
    3000022    2    5    5    0    0 -0.22712801403E+02 -0.40681820273E+02 -0.23540590482E+02  0.52202526241E+02  0.24999464043E+00 0.  0.
        -13    1    4    4    0    0  0.13999021521E+01  0.22795692584E+01  0.27076428509E+00  0.26908177823E+01  0.10500000000E+00 0. -1.
         13    1    4    4    0    0  0.30212647644E+01  0.49849816911E+01  0.74427389835E+00  0.58773337384E+01  0.10500000000E+00 0.  1.
    3000001    1    5    5    0    0 -0.55099904784E+01 -0.47403809411E+01 -0.72254247636E+01  0.10297473940E+02  0.10000000000E+01 0.  1.
        -13    1    6    6    0    0 -0.11111464482E+02 -0.19765950348E+02 -0.11441425615E+02  0.25398320441E+02  0.10500000000E+00 0.  1.
         13    1    6    6    0    0 -0.11601336922E+02 -0.20915869925E+02 -0.12099164867E+02  0.26804205800E+02  0.10500000000E+00 0. -1.
</event>
<event>
11    0  0.3483054E-009  0.9118800E+02  0.7816531E-02  0.1126479E+00
         25   -1    0    0    0    0  0.00000000000E+00  0.00000000000E+00  0.99999998245E-14  0.12500000000E+03  0.12500000000E+03 0.  0.
    3000001    1    3    3    0    0  0.13719051445E+01 -0.21366084545E+02 -0.64838831273E+01  0.22392687041E+02  0.10000000000E+01 0. -1.
    1000022    2    1    0    0    0  0.83068061347E+01 -0.60861739927E+02 -0.57528653644E+01  0.62499999736E+02  0.10000004599E+02 0.  0.
    3000022    2    3    3    0    0  0.69349009902E+01 -0.39495655382E+02  0.73101776290E+00  0.40107312695E+02  0.24999766619E+00 0.  0.
    1000022    2    1    0    0    0 -0.83068061347E+01  0.60861739927E+02  0.57528653644E+01  0.62500000264E+02  0.10000007899E+02 0.  0.
    3000022    2    5    5    0    0 -0.55701528220E+01  0.31795168259E+02  0.78221194921E+01  0.33214565787E+02  0.24999992215E+00 0.  0.
        -13    1    4    4    0    0  0.15920355053E+01 -0.90624778561E+01  0.16276264777E+00  0.92032928141E+01  0.10500000000E+00 0.  1.
         13    1    4    4    0    0  0.53428654848E+01 -0.30433177526E+02  0.56825511513E+00  0.30904019881E+02  0.10500000000E+00 0. -1.
    3000001    1    5    5    0    0 -0.27366533127E+01  0.29066571668E+02 -0.20692541277E+01  0.29285434477E+02  0.10000000000E+01 0. -1.
        -13    1    6    6    0    0 -0.38287095412E+01  0.21739951699E+02  0.53962235916E+01  0.22724761180E+02  0.10500000000E+00 0.  1.
         13    1    6    6    0    0 -0.17414432809E+01  0.10055216560E+02  0.24258959006E+01  0.10489804607E+02  0.10500000000E+00 0. -1.
</event>
<event>
11    0  0.3483054E-009  0.9118800E+02  0.7816531E-02  0.1126479E+00
         25   -1    0    0    0    0  0.00000000000E+00  0.00000000000E+00  0.99999998245E-14  0.12500000000E+03  0.12500000000E+03 0.  0.
    3000001    1    3    3    0    0  0.50247195673E+01 -0.27792832609E+02 -0.54465527340E+02  0.61361087177E+02  0.10000000000E+01 0.  1.
    1000022    2    1    0    0    0  0.53796153370E+01 -0.28829089485E+02 -0.54278849145E+02  0.62499999675E+02  0.99999916593E+01 0.  0.
    3000022    2    3    3    0    0  0.35489576975E+00 -0.10362568767E+01  0.18667819522E+00  0.11389124980E+01  0.24998721489E+00 0.  0.
    1000022    2    1    0    0    0 -0.53796153370E+01  0.28829089485E+02  0.54278849145E+02  0.62500000325E+02  0.99999957173E+01 0.  0.
    3000022    2    5    5    0    0 -0.16204972315E+01  0.97229009424E+01  0.96447548274E+01  0.13792918857E+02  0.25000178861E+00 0.  0.
        -13    1    4    4    0    0  0.20697998985E+00 -0.73603087741E+00  0.15036530568E+00  0.78626769860E+00  0.10500000000E+00 0. -1.
         13    1    4    4    0    0  0.14791577990E+00 -0.30022599926E+00  0.36312889544E-01  0.35264479936E+00  0.10500000000E+00 0.  1.
    3000001    1    5    5    0    0 -0.37591181055E+01  0.19106188543E+02  0.44634094318E+02  0.48707081468E+02  0.10000000000E+01 0.  1.
        -13    1    6    6    0    0 -0.86511565215E+00  0.48696498000E+01  0.48987026717E+01  0.69620562431E+01  0.10500000000E+00 0. -1.
         13    1    6    6    0    0 -0.75538157940E+00  0.48532511424E+01  0.47460521557E+01  0.68308626136E+01  0.10500000000E+00 0.  1.
</event>
<event>
11    0  0.3483054E-009  0.9118800E+02  0.7816531E-02  0.1126479E+00
         25   -1    0    0    0    0  0.00000000000E+00  0.00000000000E+00  0.99999998245E-14  0.12500000000E+03  0.12500000000E+03 0.  0.
    3000001    1    3    3    0    0  0.51152765897E+02 -0.14365240846E+02 -0.16364528727E+01  0.53166188329E+02  0.10000000000E+01 0. -1.
    1000022    2    1    0    0    0  0.60241810068E+02 -0.13309341185E+02  0.18889224050E+00  0.62499999775E+02  0.10000002428E+02 0.  0.
    3000022    2    3    3    0    0  0.90890441714E+01  0.10558996606E+01  0.18253451132E+01  0.93338114460E+01  0.25000657031E+00 0.  0.
    1000022    2    1    0    0    0 -0.60241810068E+02  0.13309341185E+02 -0.18889224050E+00  0.62500000225E+02  0.10000005238E+02 0.  0.
    3000022    2    5    5    0    0 -0.11477425535E+02  0.58050047075E+01  0.23883336512E+01  0.13084189413E+02  0.24999681320E+00 0.  0.
        -13    1    4    4    0    0  0.39338312616E+01  0.41150815591E+00  0.83767377994E+00  0.40443899069E+01  0.10500000000E+00 0. -1.
         13    1    4    4    0    0  0.51552129097E+01  0.64439150470E+00  0.98767133331E+00  0.52894215391E+01  0.10500000000E+00 0.  1.
    3000001    1    5    5    0    0 -0.48764384533E+02  0.75043364777E+01 -0.25772258917E+01  0.49415810812E+02  0.10000000000E+01 0. -1.
        -13    1    6    6    0    0 -0.44070502343E+01  0.22831593541E+01  0.96041379599E+00  0.50565134296E+01  0.10500000000E+00 0.  1.
         13    1    6    6    0    0 -0.70703753005E+01  0.35218453534E+01  0.14279198552E+01  0.80276759835E+01  0.10500000000E+00 0. -1.
</event>
<event>
11    0  0.3483054E-009  0.9118800E+02  0.7816531E-02  0.1126479E+00
         25   -1    0    0    0    0  0.00000000000E+00  0.00000000000E+00  0.99999998245E-14  0.12500000000E+03  0.12500000000E+03 0.  0.
    3000001    1    3    3    0    0 -0.64819320817E+01 -0.19217142751E+02  0.79861214160E+01  0.21819536070E+02  0.10000000000E+01 0.  1.
    1000022    2    1    0    0    0 -0.29836543428E+02 -0.47962591613E+02  0.24811684889E+02  0.62500007768E+02  0.10000087297E+02 0.  0.
    3000022    2    3    3    0    0 -0.23354611347E+02 -0.28745448862E+02  0.16825563473E+02  0.40680471698E+02  0.24997991744E+00 0.  0.
    1000022    2    1    0    0    0  0.29836543428E+02  0.47962591613E+02 -0.24811684889E+02  0.62499992232E+02  0.99999901993E+01 0.  0.
    3000022    2    5    5    0    0  0.47743908022E+01  0.11550127685E+02 -0.17206227384E+01  0.12618370618E+02  0.24995476284E+00 0.  0.
        -13    1    4    4    0    0 -0.99046772098E+01 -0.12124496877E+02  0.71669285275E+01  0.17218651070E+02  0.10500000000E+00 0. -1.
         13    1    4    4    0    0 -0.13449934137E+02 -0.16620951985E+02  0.96586349459E+01  0.23461820628E+02  0.10500000000E+00 0.  1.
    3000001    1    5    5    0    0  0.25062152626E+02  0.36412463928E+02 -0.23091062151E+02  0.49881621614E+02  0.10000000000E+01 0.  1.
        -13    1    6    6    0    0  0.13948505683E+01  0.33190946590E+01 -0.45880397444E+00  0.36309122201E+01  0.10500000000E+00 0.  1.
         13    1    6    6    0    0  0.33795402339E+01  0.82310330257E+01 -0.12618187639E+01  0.89874583980E+01  0.10500000000E+00 0. -1.
</event>
<event>
11    0  0.3483054E-009  0.9118800E+02  0.7816531E-02  0.1126479E+00
         25   -1    0    0    0    0  0.00000000000E+00  0.00000000000E+00  0.99999998245E-14  0.12500000000E+03  0.12500000000E+03 0.  0.
    3000001    1    3    3    0    0  0.24117477765E+01 -0.34369602086E+02  0.95981326540E+01  0.35780025507E+02  0.10000000000E+01 0. -1.
    1000022    2    1    0    0    0 -0.28540022038E+01 -0.60458158104E+02  0.11954743907E+02  0.62499999198E+02  0.99999893977E+01 0.  0.
    3000022    2    3    3    0    0 -0.52657499803E+01 -0.26088556018E+02  0.23566112527E+01  0.26719973690E+02  0.24999889587E+00 0.  0.
    1000022    2    1    0    0    0  0.28540022038E+01  0.60458158104E+02 -0.11954743907E+02  0.62500000802E+02  0.99999994279E+01 0.  0.
    3000022    2    5    5    0    0  0.59677962450E+01  0.44648244165E+02 -0.10746951392E+02  0.46310255441E+02  0.24999167222E+00 0.  0.
        -13    1    4    4    0    0 -0.20166709642E+01 -0.10103533769E+02  0.97005712437E+00  0.10348931936E+02  0.10500000000E+00 0. -1.
         13    1    4    4    0    0 -0.32490790161E+01 -0.15985022249E+02  0.13865541283E+01  0.16371041754E+02  0.10500000000E+00 0.  1.
    3000001    1    5    5    0    0 -0.31137940412E+01  0.15809913939E+02 -0.12077925149E+01  0.16189745361E+02  0.10000000000E+01 0.  1.
        -13    1    6    6    0    0  0.35075207462E+01  0.26708266433E+02 -0.64404064027E+01  0.27697004482E+02  0.10500000000E+00 0.  1.
         13    1    6    6    0    0  0.24602754988E+01  0.17939977732E+02 -0.43065449891E+01  0.18613250960E+02  0.10500000000E+00 0. -1.
</event>
<event>
11    0  0.3483054E-009  0.9118800E+02  0.7816531E-02  0.1126479E+00
         25   -1    0    0    0    0  0.00000000000E+00  0.00000000000E+00  0.99999998245E-14  0.12500000000E+03  0.12500000000E+03 0.  0.
    3000001    1    3    3    0    0  0.43409453563E+02  0.80224739791E+01  0.15732305487E+02  0.46874792622E+02  0.10000000000E+01 0.  1.
    1000022    2    1    0    0    0  0.57392447622E+02  0.14860650571E+02  0.17073900135E+02  0.62500001691E+02  0.10000008307E+02 0.  0.
    3000022    2    3    3    0    0  0.13982994059E+02  0.68381765915E+01  0.13415946480E+01  0.15625209070E+02  0.25000063216E+00 0.  0.
    1000022    2    1    0    0    0 -0.57392447622E+02 -0.14860650571E+02 -0.17073900135E+02  0.62499998309E+02  0.99999871672E+01 0.  0.
    3000022    2    5    5    0    0 -0.11711904866E+02 -0.13497346003E+01 -0.72749612945E+01  0.13855614879E+02  0.25000552588E+00 0.  0.
        -13    1    4    4    0    0  0.10552506757E+02  0.51725740004E+01  0.10333971813E+01  0.11797875037E+02  0.10500000000E+00 0. -1.
         13    1    4    4    0    0  0.34304873019E+01  0.16656025911E+01  0.30819746668E+00  0.38273340328E+01  0.10500000000E+00 0.  1.
    3000001    1    5    5    0    0 -0.45680542756E+02 -0.13510915970E+02 -0.97989388404E+01  0.48644383429E+02  0.10000000000E+01 0.  1.
        -13    1    6    6    0    0 -0.48207484006E+01 -0.50777780190E+00 -0.30419575333E+01  0.57238085287E+01  0.10500000000E+00 0. -1.
         13    1    6    6    0    0 -0.68911564656E+01 -0.84195679844E+00 -0.42330037612E+01  0.81318063507E+01  0.10500000000E+00 0.  1.
</event>
<event>
11    0  0.3483054E-009  0.9118800E+02  0.7816531E-02  0.1126479E+00
         25   -1    0    0    0    0  0.00000000000E+00  0.00000000000E+00  0.99999998245E-14  0.12500000000E+03  0.12500000000E+03 0.  0.
    3000001    1    3    3    0    0 -0.19655628773E+02  0.20710368242E+02  0.59970612484E+01  0.29192941592E+02  0.10000000000E+01 0.  1.
    1000022    2    1    0    0    0 -0.39214930024E+02  0.41871314907E+02  0.22698731062E+02  0.62500001163E+02  0.10000000232E+02 0.  0.
    3000022    2    3    3    0    0 -0.19559301251E+02  0.21160946665E+02  0.16701669814E+02  0.33307059570E+02  0.25002693408E+00 0.  0.
    1000022    2    1    0    0    0  0.39214930024E+02 -0.41871314907E+02 -0.22698731062E+02  0.62499998837E+02  0.99999857005E+01 0.  0.
    3000022    2    5    5    0    0  0.25082466519E+01 -0.39253290382E+00 -0.23947802991E+01  0.34989787001E+01  0.24999183132E+00 0.  0.
        -13    1    4    4    0    0 -0.11354558261E+02  0.12252556547E+02  0.96113261447E+01  0.19272772258E+02  0.10500000000E+00 0. -1.
         13    1    4    4    0    0 -0.82047429901E+01  0.89083901173E+01  0.70903436689E+01  0.14034287312E+02  0.10500000000E+00 0.  1.
    3000001    1    5    5    0    0  0.36706683372E+02 -0.41478782003E+02 -0.20303950763E+02  0.59001020137E+02  0.10000000000E+01 0. -1.
        -13    1    6    6    0    0  0.12934166723E+01 -0.19844593431E+00 -0.13266821652E+01  0.18663917179E+01  0.10500000000E+00 0. -1.
         13    1    6    6    0    0  0.12148299796E+01 -0.19408696951E+00 -0.10680981338E+01  0.16325869822E+01  0.10500000000E+00 0.  1.
</event>
<event>
11    0  0.3483054E-009  0.9118800E+02  0.7816531E-02  0.1126479E+00
         25   -1    0    0    0    0  0.00000000000E+00  0.00000000000E+00  0.99999998245E-14  0.12500000000E+03  0.12500000000E+03 0.  0.
    3000001    1    3    3    0    0  0.78067955494E+01  0.45158801272E+02 -0.17236768637E+01  0.45871935331E+02  0.10000000000E+01 0. -1.
    1000022    2    1    0    0    0  0.60645053699E+01  0.61085670615E+02 -0.61654530666E+01  0.62500002387E+02  0.10000005349E+02 0.  0.
    3000022    2    3    3    0    0 -0.17422901795E+01  0.15926869343E+02 -0.44417762029E+01  0.16628067056E+02  0.24999208105E+00 0.  0.
    1000022    2    1    0    0    0 -0.60645053699E+01 -0.61085670615E+02  0.61654530666E+01  0.62499997613E+02  0.99999755077E+01 0.  0.
    3000022    2    5    5    0    0 -0.55815942960E+01 -0.46452018160E+02  0.87512016508E+01  0.47598216409E+02  0.24997800250E+00 0.  0.
        -13    1    4    4    0    0 -0.12097660743E+01  0.11122466700E+02 -0.31489621602E+01  0.11623243400E+02  0.10500000000E+00 0.  1.
         13    1    4    4    0    0 -0.53252410518E+00  0.48044026426E+01 -0.12928140428E+01  0.50048236556E+01  0.10500000000E+00 0. -1.
    3000001    1    5    5    0    0 -0.48291107397E+00 -0.14633652455E+02 -0.25857485841E+01  0.14901781203E+02  0.10000000000E+01 0.  1.
        -13    1    6    6    0    0 -0.40674939794E+01 -0.33527546775E+02  0.63228124495E+01  0.34360295142E+02  0.10500000000E+00 0. -1.
         13    1    6    6    0    0 -0.15141003166E+01 -0.12924471385E+02  0.24283892013E+01  0.13237921267E+02  0.10500000000E+00 0.  1.
</event>
<event>
11    0  0.3483054E-009  0.9118800E+02  0.7816531E-02  0.1126479E+00
         25   -1    0    0    0    0  0.00000000000E+00  0.00000000000E+00  0.99999998245E-14  0.12500000000E+03  0.12500000000E+03 0.  0.
    3000001    1    3    3    0    0 -0.44709077563E+01  0.48477532462E+01  0.15748679088E+01  0.68534616532E+01  0.10000000000E+01 0.  1.
    1000022    2    1    0    0    0 -0.45042158995E+02  0.40363081787E+02 -0.12176846539E+02  0.62499999160E+02  0.99999922515E+01 0.  0.
    3000022    2    3    3    0    0 -0.40571251239E+02  0.35515328541E+02 -0.13751714448E+02  0.55646537507E+02  0.24999550532E+00 0.  0.
    1000022    2    1    0    0    0  0.45042158995E+02 -0.40363081787E+02  0.12176846539E+02  0.62500000840E+02  0.10000002755E+02 0.  0.
    3000022    2    5    5    0    0  0.24697653976E+02 -0.26168866627E+02  0.33045073536E+01  0.36135383811E+02  0.25000366409E+00 0.  0.
        -13    1    4    4    0    0 -0.17196207920E+02  0.15081008973E+02 -0.58970282909E+01  0.23620591994E+02  0.10500000000E+00 0. -1.
         13    1    4    4    0    0 -0.23375043319E+02  0.20434319568E+02 -0.78546861574E+01  0.32025945513E+02  0.10500000000E+00 0.  1.
    3000001    1    5    5    0    0  0.20344505020E+02 -0.14194215160E+02  0.88723391859E+01  0.26364617030E+02  0.10000000000E+01 0.  1.
        -13    1    6    6    0    0  0.99236113117E+01 -0.10432133278E+02  0.13499753870E+01  0.14461705457E+02  0.10500000000E+00 0. -1.
         13    1    6    6    0    0  0.14774042664E+02 -0.15736733350E+02  0.19545319665E+01  0.21673678353E+02  0.10500000000E+00 0.  1.
</event>
<event>
11    0  0.3483054E-009  0.9118800E+02  0.7816531E-02  0.1126479E+00
         25   -1    0    0    0    0  0.00000000000E+00  0.00000000000E+00  0.99999998245E-14  0.12500000000E+03  0.12500000000E+03 0.  0.
    3000001    1    3    3    0    0 -0.35332300200E+01 -0.32944134993E+02  0.10035117050E+02  0.34633846437E+02  0.10000000000E+01 0. -1.
    1000022    2    1    0    0    0 -0.11227854259E+02 -0.55527593761E+02  0.24430954639E+02  0.62499999499E+02  0.10000000631E+02 0.  0.
    3000022    2    3    3    0    0 -0.76946242392E+01 -0.22583458768E+02  0.14395837589E+02  0.27866153062E+02  0.24998892285E+00 0.  0.
    1000022    2    1    0    0    0  0.11227854259E+02  0.55527593761E+02 -0.24430954639E+02  0.62500000501E+02  0.10000006899E+02 0.  0.
    3000022    2    5    5    0    0  0.13544294132E+01  0.15431468816E+02 -0.23735069686E+01  0.15673568313E+02  0.24999894606E+00 0.  0.
        -13    1    4    4    0    0 -0.53900125736E+01 -0.15723156175E+02  0.99880818746E+01  0.19391819930E+02  0.10500000000E+00 0.  1.
         13    1    4    4    0    0 -0.23046116656E+01 -0.68603025924E+01  0.44077557149E+01  0.84743331319E+01  0.10500000000E+00 0. -1.
    3000001    1    5    5    0    0  0.98734248460E+01  0.40096124944E+02 -0.22057447671E+02  0.46826432188E+02  0.10000000000E+01 0. -1.
        -13    1    6    6    0    0  0.68378797360E+00  0.76371283562E+01 -0.12420915565E+01  0.77683403605E+01  0.10500000000E+00 0.  1.
         13    1    6    6    0    0  0.67064143958E+00  0.77943404603E+01 -0.11314154121E+01  0.79052279529E+01  0.10500000000E+00 0. -1.
</event>
<event>
11    0  0.3483054E-009  0.9118800E+02  0.7816531E-02  0.1126479E+00
         25   -1    0    0    0    0  0.00000000000E+00  0.00000000000E+00  0.99999998245E-14  0.12500000000E+03  0.12500000000E+03 0.  0.
    3000001    1    3    3    0    0  0.81972958782E+01  0.94193694869E+01 -0.23509882960E+02  0.26638971039E+02  0.10000000000E+01 0. -1.
    1000022    2    1    0    0    0  0.17338969609E+02  0.11198138725E+02 -0.58139589611E+02  0.62499998644E+02  0.99999886212E+01 0.  0.
    3000022    2    3    3    0    0  0.91416737312E+01  0.17787692385E+01 -0.34629706651E+02  0.35861027605E+02  0.24999912330E+00 0.  0.
    1000022    2    1    0    0    0 -0.17338969609E+02 -0.11198138725E+02  0.58139589611E+02  0.62500001356E+02  0.10000005567E+02 0.  0.
    3000022    2    5    5    0    0 -0.93440088014E+01 -0.17898508089E+01  0.16402833527E+02  0.18963900379E+02  0.25000696489E+00 0.  0.
        -13    1    4    4    0    0  0.43028241115E+01  0.88620199620E+00 -0.16152913138E+02  0.16739990357E+02  0.10500000000E+00 0.  1.
         13    1    4    4    0    0  0.48388496198E+01  0.89256724233E+00 -0.18476793513E+02  0.19121037248E+02  0.10500000000E+00 0. -1.
    3000001    1    5    5    0    0 -0.79949608081E+01 -0.94082879166E+01  0.41736756084E+02  0.43536100976E+02  0.10000000000E+01 0. -1.
        -13    1    6    6    0    0 -0.61314299991E+01 -0.11737822201E+01  0.10650824756E+02  0.12345982808E+02  0.10500000000E+00 0. -1.
         13    1    6    6    0    0 -0.32125788023E+01 -0.61606858875E+00  0.57520087716E+01  0.66179175709E+01  0.10500000000E+00 0.  1.
</event>
<event>
11    0  0.3483054E-009  0.9118800E+02  0.7816531E-02  0.1126479E+00
         25   -1    0    0    0    0  0.00000000000E+00  0.00000000000E+00  0.99999998245E-14  0.12500000000E+03  0.12500000000E+03 0.  0.
    3000001    1    3    3    0    0 -0.35684238816E+02 -0.28726486247E+02 -0.37031587257E+02  0.58914466532E+02  0.10000000000E+01 0. -1.
    1000022    2    1    0    0    0 -0.37695857427E+02 -0.28125926912E+02 -0.39927492775E+02  0.62500000064E+02  0.99999948418E+01 0.  0.
    3000022    2    3    3    0    0 -0.20116186111E+01  0.60055933441E+00 -0.28959055182E+01  0.35855335321E+01  0.25000197706E+00 0.  0.
    1000022    2    1    0    0    0  0.37695857427E+02  0.28125926912E+02  0.39927492775E+02  0.62499999936E+02  0.99999940452E+01 0.  0.
    3000022    2    5    5    0    0  0.22325862130E+01  0.51022781235E+01  0.28795028871E+01  0.62746892348E+01  0.25000973650E+00 0.  0.
        -13    1    4    4    0    0 -0.84016737996E+00  0.28382788823E+00 -0.11293311801E+01  0.14397407443E+01  0.10500000000E+00 0.  1.
         13    1    4    4    0    0 -0.11714512312E+01  0.31673144619E+00 -0.17665743381E+01  0.21457927877E+01  0.10500000000E+00 0. -1.
    3000001    1    5    5    0    0  0.35463271214E+02  0.23023648789E+02  0.37047989888E+02  0.56225310701E+02  0.10000000000E+01 0. -1.
        -13    1    6    6    0    0  0.12912110815E+01  0.27977356666E+01  0.16213198522E+01  0.34834256100E+01  0.10500000000E+00 0. -1.
         13    1    6    6    0    0  0.94137513152E+00  0.23045424569E+01  0.12581830350E+01  0.27912636248E+01  0.10500000000E+00 0.  1.
</event>
<event>
11    0  0.3483054E-009  0.9118800E+02  0.7816531E-02  0.1126479E+00
         25   -1    0    0    0    0  0.00000000000E+00  0.00000000000E+00  0.99999998245E-14  0.12500000000E+03  0.12500000000E+03 0.  0.
    3000001    1    3    3    0    0 -0.19660266737E+02 -0.40355384142E+00 -0.13391845133E+02  0.23812401390E+02  0.10000000000E+01 0. -1.
    1000022    2    1    0    0    0 -0.56547205233E+02 -0.47743710172E+01 -0.24204711072E+02  0.62500007160E+02  0.10000090928E+02 0.  0.
    3000022    2    3    3    0    0 -0.36886938496E+02 -0.43708171758E+01 -0.10812865939E+02  0.38687605770E+02  0.24999200016E+00 0.  0.
    1000022    2    1    0    0    0  0.56547205233E+02  0.47743710172E+01  0.24204711072E+02  0.62499992840E+02  0.10000001432E+02 0.  0.
    3000022    2    5    5    0    0  0.15837742389E+02  0.41229245521E+01  0.10859208045E+02  0.19642237432E+02  0.25000226198E+00 0.  0.
        -13    1    4    4    0    0 -0.12318216054E+02 -0.14130963383E+01 -0.36377029702E+01  0.12922043024E+02  0.10500000000E+00 0.  1.
         13    1    4    4    0    0 -0.24568722443E+02 -0.29577208375E+01 -0.71751629693E+01  0.25765562747E+02  0.10500000000E+00 0. -1.
    3000001    1    5    5    0    0  0.40709462844E+02  0.65144646516E+00  0.13345503027E+02  0.42857755408E+02  0.10000000000E+01 0. -1.
        -13    1    6    6    0    0  0.68614484169E+01  0.18193651647E+01  0.46414013675E+01  0.84819334845E+01  0.10500000000E+00 0.  1.
         13    1    6    6    0    0  0.89762939720E+01  0.23035593874E+01  0.62178066778E+01  0.11160303948E+02  0.10500000000E+00 0. -1.
</event>
<event>
11    0  0.3483054E-009  0.9118800E+02  0.7816531E-02  0.1126479E+00
         25   -1    0    0    0    0  0.00000000000E+00  0.00000000000E+00  0.99999998245E-14  0.12500000000E+03  0.12500000000E+03 0.  0.
    3000001    1    3    3    0    0 -0.71659173211E+01  0.18464303674E+02  0.70757777388E+01  0.21055818954E+02  0.10000000000E+01 0. -1.
    1000022    2    1    0    0    0 -0.28993837027E+02  0.53601959646E+02  0.96144329240E+01  0.62500000895E+02  0.10000006397E+02 0.  0.
    3000022    2    3    3    0    0 -0.21827919706E+02  0.35137655972E+02  0.25386551852E+01  0.41444181940E+02  0.25000135945E+00 0.  0.
    1000022    2    1    0    0    0  0.28993837027E+02 -0.53601959646E+02 -0.96144329240E+01  0.62499999105E+02  0.99999952131E+01 0.  0.
    3000022    2    5    5    0    0  0.25310688822E+02 -0.37877539682E+02 -0.64194236757E+01  0.46006635349E+02  0.25002958754E+00 0.  0.
        -13    1    4    4    0    0 -0.89912831327E+01  0.14507370145E+02  0.98564209179E+00  0.17096475550E+02  0.10500000000E+00 0. -1.
         13    1    4    4    0    0 -0.12836636574E+02  0.20630285826E+02  0.15530130934E+01  0.24347706390E+02  0.10500000000E+00 0.  1.
    3000001    1    5    5    0    0  0.36831482054E+01 -0.15724419964E+02 -0.31950092483E+01  0.16493363756E+02  0.10000000000E+01 0.  1.
        -13    1    6    6    0    0  0.12315223719E+02 -0.18479624467E+02 -0.30668182053E+01  0.22418243789E+02  0.10500000000E+00 0.  1.
         13    1    6    6    0    0  0.12995465103E+02 -0.19397915215E+02 -0.33526054704E+01  0.23588391560E+02  0.10500000000E+00 0. -1.
</event>
<event>
11    0  0.3483054E-009  0.9118800E+02  0.7816531E-02  0.1126479E+00
         25   -1    0    0    0    0  0.00000000000E+00  0.00000000000E+00  0.99999998245E-14  0.12500000000E+03  0.12500000000E+03 0.  0.
    3000001    1    3    3    0    0 -0.48009339698E+02  0.37465609180E+02  0.11697683149E+02  0.62019386973E+02  0.10000000000E+01 0.  1.
    1000022    2    1    0    0    0 -0.47902625000E+02  0.37069988978E+02  0.11721995145E+02  0.62500006430E+02  0.10000003444E+02 0.  0.
    3000022    2    3    3    0    0  0.10671469782E+00 -0.39562020220E+00  0.24311995909E-01  0.48061945705E+00  0.25000123645E+00 0.  0.
    1000022    2    1    0    0    0  0.47902625000E+02 -0.37069988978E+02 -0.11721995145E+02  0.62499993570E+02  0.99999230672E+01 0.  0.
    3000022    2    5    5    0    0  0.26048685669E+02 -0.17800343867E+02 -0.14292218101E+01  0.31583087679E+02  0.24997091189E+00 0.  0.
        -13    1    4    4    0    0  0.57099597469E-01 -0.27596734353E+00  0.67825755229E-01  0.30829153702E+00  0.10500000000E+00 0.  1.
         13    1    4    4    0    0  0.49615100352E-01 -0.11965285867E+00 -0.43513759320E-01  0.17232792003E+00  0.10500000000E+00 0. -1.
    3000001    1    5    5    0    0  0.21853939331E+02 -0.19269645111E+02 -0.10292773334E+02  0.30916905891E+02  0.10000000000E+01 0.  1.
        -13    1    6    6    0    0  0.17715100292E+02 -0.12050882424E+02 -0.99407402041E+00  0.21448723825E+02  0.10500000000E+00 0. -1.
         13    1    6    6    0    0  0.83335853769E+01 -0.57494614429E+01 -0.43514778966E+00  0.10134363854E+02  0.10500000000E+00 0.  1.
</event>
<event>
11    0  0.3483054E-009  0.9118800E+02  0.7816531E-02  0.1126479E+00
         25   -1    0    0    0    0  0.00000000000E+00  0.00000000000E+00  0.99999998245E-14  0.12500000000E+03  0.12500000000E+03 0.  0.
    3000001    1    3    3    0    0 -0.13436369137E+02  0.41520236535E+01  0.18375237873E+02  0.23160843743E+02  0.10000000000E+01 0. -1.
    1000022    2    1    0    0    0 -0.36644446760E+02  0.22808437601E+02  0.44081845527E+02  0.62499995071E+02  0.99999987324E+01 0.  0.
    3000022    2    3    3    0    0 -0.23208077623E+02  0.18656413948E+02  0.25706607654E+02  0.39339151328E+02  0.25000355259E+00 0.  0.
    1000022    2    1    0    0    0  0.36644446760E+02 -0.22808437601E+02 -0.44081845527E+02  0.62500004929E+02  0.10000060348E+02 0.  0.
    3000022    2    5    5    0    0  0.70563349793E+01 -0.86194748687E+01 -0.14675119529E+02  0.18425765786E+02  0.25000250976E+00 0.  0.
        -13    1    4    4    0    0 -0.10743934611E+02  0.87227411487E+01  0.11939324411E+02  0.18277768914E+02  0.10500000000E+00 0.  1.
         13    1    4    4    0    0 -0.12464143012E+02  0.99336727991E+01  0.13767283243E+02  0.21061382414E+02  0.10500000000E+00 0. -1.
    3000001    1    5    5    0    0  0.29588111780E+02 -0.14188962733E+02 -0.29406725998E+02  0.44074239143E+02  0.10000000000E+01 0. -1.
        -13    1    6    6    0    0  0.24277104511E+01 -0.30449151765E+01 -0.50886329886E+01  0.64086267764E+01  0.10500000000E+00 0. -1.
         13    1    6    6    0    0  0.46286245282E+01 -0.55745596922E+01 -0.95864865405E+01  0.12017139010E+02  0.10500000000E+00 0.  1.
</event>
<event>
11    0  0.3483054E-009  0.9118800E+02  0.7816531E-02  0.1126479E+00
         25   -1    0    0    0    0  0.00000000000E+00  0.00000000000E+00  0.99999998245E-14  0.12500000000E+03  0.12500000000E+03 0.  0.
    3000001    1    3    3    0    0 -0.24497037390E+02  0.20198480373E+02  0.27892422485E+02  0.42273758791E+02  0.10000000000E+01 0.  1.
    1000022    2    1    0    0    0 -0.30187224670E+02  0.32813674053E+02  0.42640876905E+02  0.62499997865E+02  0.99999805899E+01 0.  0.
    3000022    2    3    3    0    0 -0.56901872804E+01  0.12615193680E+02  0.14748454419E+02  0.20226239074E+02  0.24999287651E+00 0.  0.
    1000022    2    1    0    0    0  0.30187224670E+02 -0.32813674053E+02 -0.42640876905E+02  0.62500002135E+02  0.10000007278E+02 0.  0.
    3000022    2    5    5    0    0  0.13810279057E+02 -0.88193554524E+01 -0.18501690493E+02  0.24715984438E+02  0.24999483428E+00 0.  0.
        -13    1    4    4    0    0 -0.25760047501E+01  0.58693066547E+01  0.68551120287E+01  0.93855285949E+01  0.10500000000E+00 0. -1.
         13    1    4    4    0    0 -0.31141825303E+01  0.67458870252E+01  0.78933423905E+01  0.10840710479E+02  0.10500000000E+00 0.  1.
    3000001    1    5    5    0    0  0.16376945613E+02 -0.23994318600E+02 -0.24139186412E+02  0.37784017697E+02  0.10000000000E+01 0. -1.
        -13    1    6    6    0    0  0.51998459828E+01 -0.33644536350E+01 -0.69209594900E+01  0.92880919336E+01  0.10500000000E+00 0.  1.
         13    1    6    6    0    0  0.86104330740E+01 -0.54549018175E+01 -0.11580731003E+02  0.15427892504E+02  0.10500000000E+00 0. -1.
</event>
<event>
11    0  0.3483054E-009  0.9118800E+02  0.7816531E-02  0.1126479E+00
         25   -1    0    0    0    0  0.00000000000E+00  0.00000000000E+00  0.99999998245E-14  0.12500000000E+03  0.12500000000E+03 0.  0.
    3000001    1    3    3    0    0 -0.30508456651E+01 -0.18667821266E+02 -0.17327409494E+02  0.25671663948E+02  0.10000000000E+01 0.  1.
    1000022    2    1    0    0    0 -0.18221441394E+02 -0.40646858541E+02 -0.42685621885E+02  0.62500002173E+02  0.99999960077E+01 0.  0.
    3000022    2    3    3    0    0 -0.15170595729E+02 -0.21979037275E+02 -0.25358212391E+02  0.36828338225E+02  0.25001282540E+00 0.  0.
    1000022    2    1    0    0    0  0.18221441394E+02  0.40646858541E+02  0.42685621885E+02  0.62499997827E+02  0.99999688477E+01 0.  0.
    3000022    2    5    5    0    0  0.17151171844E+02  0.35033015991E+02  0.40684484457E+02  0.56362795200E+02  0.25000431492E+00 0.  0.
        -13    1    4    4    0    0 -0.99735949976E+01 -0.14364678992E+02 -0.16566136301E+02  0.24088679845E+02  0.10500000000E+00 0. -1.
         13    1    4    4    0    0 -0.51970007316E+01 -0.76143582828E+01 -0.87920760907E+01  0.12739658380E+02  0.10500000000E+00 0.  1.
    3000001    1    5    5    0    0  0.10702695498E+01  0.56138425492E+01  0.20011374281E+01  0.61372026268E+01  0.10000000000E+01 0. -1.
        -13    1    6    6    0    0  0.10701826881E+02  0.21977256446E+02  0.25452132126E+02  0.35289530377E+02  0.10500000000E+00 0. -1.
         13    1    6    6    0    0  0.64493449632E+01  0.13055759545E+02  0.15232352332E+02  0.21073264823E+02  0.10500000000E+00 0.  1.
</event>
<event>
11    0  0.3483054E-009  0.9118800E+02  0.7816531E-02  0.1126479E+00
         25   -1    0    0    0    0  0.00000000000E+00  0.00000000000E+00  0.99999998245E-14  0.12500000000E+03  0.12500000000E+03 0.  0.
    3000001    1    3    3    0    0 -0.32311363478E+02  0.18778851945E+01 -0.17282838258E+02  0.36704865629E+02  0.10000000000E+01 0.  1.
    1000022    2    1    0    0    0 -0.52749171501E+02  0.11167156300E+02 -0.29984487691E+02  0.62499999934E+02  0.10000000788E+02 0.  0.
    3000022    2    3    3    0    0 -0.20437808023E+02  0.92892711058E+01 -0.12701649433E+02  0.25795134305E+02  0.25000201806E+00 0.  0.
    1000022    2    1    0    0    0  0.52749171501E+02 -0.11167156300E+02  0.29984487691E+02  0.62500000066E+02  0.10000001613E+02 0.  0.
    3000022    2    5    5    0    0  0.37787471692E+02 -0.12321487152E+02  0.20526565769E+02  0.44733817922E+02  0.25000219386E+00 0.  0.
        -13    1    4    4    0    0 -0.81328852174E+01  0.37573968495E+01 -0.50345263945E+01  0.10277126741E+02  0.10500000000E+00 0.  1.
         13    1    4    4    0    0 -0.12304922806E+02  0.55318742563E+01 -0.76671230386E+01  0.15518007563E+02  0.10500000000E+00 0. -1.
    3000001    1    5    5    0    0  0.14961699810E+02  0.11543308513E+01  0.94579219213E+01  0.17766182144E+02  0.10000000000E+01 0. -1.
        -13    1    6    6    0    0  0.20553485551E+02 -0.67158408464E+01  0.11240907866E+02  0.24370418979E+02  0.10500000000E+00 0. -1.
         13    1    6    6    0    0  0.17233986141E+02 -0.56056463052E+01  0.92856579036E+01  0.20363398943E+02  0.10500000000E+00 0.  1.
</event>
<event>
11    0  0.3483054E-009  0.9118800E+02  0.7816531E-02  0.1126479E+00
         25   -1    0    0    0    0  0.00000000000E+00  0.00000000000E+00  0.99999998245E-14  0.12500000000E+03  0.12500000000E+03 0.  0.
    3000001    1    3    3    0    0 -0.24448028669E+02  0.12494471782E+02  0.11731220959E+02  0.29873725514E+02  0.10000000000E+01 0. -1.
    1000022    2    1    0    0    0 -0.45730296833E+02  0.34717468354E+02  0.22576251773E+02  0.62499998773E+02  0.10000002254E+02 0.  0.
    3000022    2    3    3    0    0 -0.21282268164E+02  0.22222996573E+02  0.10845030814E+02  0.32626273259E+02  0.24999700618E+00 0.  0.
    1000022    2    1    0    0    0  0.45730296833E+02 -0.34717468354E+02 -0.22576251773E+02  0.62500001227E+02  0.10000017594E+02 0.  0.
    3000022    2    5    5    0    0  0.31551555329E-01 -0.20691822617E+01 -0.11477238757E+01  0.23795578438E+01  0.25002940734E+00 0.  0.
        -13    1    4    4    0    0 -0.14723804055E+02  0.15408744191E+02  0.74674869400E+01  0.22583050937E+02  0.10500000000E+00 0. -1.
         13    1    4    4    0    0 -0.65584641092E+01  0.68142523813E+01  0.33775438738E+01  0.10043222322E+02  0.10500000000E+00 0.  1.
    3000001    1    5    5    0    0  0.45698745278E+02 -0.32648286093E+02 -0.21428527897E+02  0.60120443383E+02  0.10000000000E+01 0. -1.
        -13    1    6    6    0    0 -0.44248213163E-01 -0.12146796238E+01 -0.65553807712E+00  0.13849764126E+01  0.10500000000E+00 0.  1.
         13    1    6    6    0    0  0.75799768492E-01 -0.85450263791E+00 -0.49218579859E+00  0.99458143127E+00  0.10500000000E+00 0. -1.
</event>
<event>
11    0  0.3483054E-009  0.9118800E+02  0.7816531E-02  0.1126479E+00
         25   -1    0    0    0    0  0.00000000000E+00  0.00000000000E+00  0.99999998245E-14  0.12500000000E+03  0.12500000000E+03 0.  0.
    3000001    1    3    3    0    0  0.35757662105E+01  0.89391293677E+00  0.72197686824E+01  0.81676339388E+01  0.10000000000E+01 0. -1.
    1000022    2    1    0    0    0  0.47955726898E+01 -0.12547839974E+01  0.61495350002E+02  0.62500000517E+02  0.99999996251E+01 0.  0.
    3000022    2    3    3    0    0  0.12198064792E+01 -0.21486969341E+01  0.54275581319E+02  0.54332366578E+02  0.25000817336E+00 0.  0.
    1000022    2    1    0    0    0 -0.47955726898E+01  0.12547839974E+01 -0.61495350002E+02  0.62499999483E+02  0.99999931594E+01 0.  0.
    3000022    2    5    5    0    0 -0.38054530833E+01 -0.19388794988E+01 -0.98763469896E+01  0.10763152890E+02  0.25000679637E+00 0.  0.
        -13    1    4    4    0    0  0.41983236575E+00 -0.86481585880E+00  0.21175780104E+02  0.21197850214E+02  0.10500000000E+00 0. -1.
         13    1    4    4    0    0  0.79997411349E+00 -0.12838810753E+01  0.33099801216E+02  0.33134516365E+02  0.10500000000E+00 0.  1.
    3000001    1    5    5    0    0 -0.99011960648E+00  0.31936634962E+01 -0.51619003012E+02  0.51736846593E+02  0.10000000000E+01 0.  1.
        -13    1    6    6    0    0 -0.21201405381E+01 -0.11373609465E+01 -0.56658108214E+01  0.61563806809E+01  0.10500000000E+00 0.  1.
         13    1    6    6    0    0 -0.16853125452E+01 -0.80151855228E+00 -0.42105361682E+01  0.46067722093E+01  0.10500000000E+00 0. -1.
</event>
<event>
11    0  0.3483054E-009  0.9118800E+02  0.7816531E-02  0.1126479E+00
         25   -1    0    0    0    0  0.00000000000E+00  0.00000000000E+00  0.99999998245E-14  0.12500000000E+03  0.12500000000E+03 0.  0.
    3000001    1    3    3    0    0  0.17717322938E+02 -0.14918338681E+02 -0.13200145353E+02  0.26677784737E+02  0.10000000000E+01 0.  1.
    1000022    2    1    0    0    0  0.33020076643E+02 -0.42577948930E+02 -0.30050671996E+02  0.62499999716E+02  0.99999940249E+01 0.  0.
    3000022    2    3    3    0    0  0.15302753705E+02 -0.27659610249E+02 -0.16850526642E+02  0.35822214979E+02  0.25005565525E+00 0.  0.
    1000022    2    1    0    0    0 -0.33020076643E+02  0.42577948930E+02  0.30050671996E+02  0.62500000284E+02  0.99999975766E+01 0.  0.
    3000022    2    5    5    0    0 -0.46365286903E+01  0.22228458133E+01  0.10241046620E+01  0.52487841126E+01  0.25000499338E+00 0.  0.
        -13    1    4    4    0    0  0.42382742486E+01 -0.76629947311E+01 -0.47121243864E+01  0.99448277053E+01  0.10500000000E+00 0. -1.
         13    1    4    4    0    0  0.11064479456E+02 -0.19996615518E+02 -0.12138402256E+02  0.25877387274E+02  0.10500000000E+00 0.  1.
    3000001    1    5    5    0    0 -0.28383547953E+02  0.40355103117E+02  0.29026567334E+02  0.57251216172E+02  0.10000000000E+01 0.  1.
        -13    1    6    6    0    0 -0.12882040833E+01  0.64741710507E+00  0.25758120082E+00  0.14683295758E+01  0.10500000000E+00 0.  1.
         13    1    6    6    0    0 -0.33483246070E+01  0.15754287082E+01  0.76652346115E+00  0.37804545368E+01  0.10500000000E+00 0. -1.
</event>
<event>
11    0  0.3483054E-009  0.9118800E+02  0.7816531E-02  0.1126479E+00
         25   -1    0    0    0    0  0.00000000000E+00  0.00000000000E+00  0.99999998245E-14  0.12500000000E+03  0.12500000000E+03 0.  0.
    3000001    1    3    3    0    0  0.14285887492E+02  0.90393116807E+01  0.19621012570E+01  0.17048330664E+02  0.10000000000E+01 0.  1.
    1000022    2    1    0    0    0  0.42386751582E+02  0.44758006414E+02  0.25168355557E+01  0.62499996665E+02  0.99999637044E+01 0.  0.
    3000022    2    3    3    0    0  0.28100864090E+02  0.35718694734E+02  0.55473429873E+00  0.45451666001E+02  0.24999209881E+00 0.  0.
    1000022    2    1    0    0    0 -0.42386751582E+02 -0.44758006414E+02 -0.25168355557E+01  0.62500003335E+02  0.10000005388E+02 0.  0.
    3000022    2    5    5    0    0 -0.29889631210E+02 -0.24609584915E+02 -0.14076192307E+01  0.38743588046E+02  0.24999844017E+00 0.  0.
        -13    1    4    4    0    0  0.14847082022E+02  0.18868042583E+02  0.22564765136E+00  0.24010431428E+02  0.10500000000E+00 0.  1.
         13    1    4    4    0    0  0.13253782068E+02  0.16850652150E+02  0.32908664737E+00  0.21441234573E+02  0.10500000000E+00 0. -1.
    3000001    1    5    5    0    0 -0.12497120372E+02 -0.20148421500E+02 -0.11092163250E+01  0.23756415289E+02  0.10000000000E+01 0.  1.
        -13    1    6    6    0    0 -0.21496290364E+02 -0.17647929137E+02 -0.10194847625E+01  0.27831461989E+02  0.10500000000E+00 0.  1.
         13    1    6    6    0    0 -0.83933408460E+01 -0.69616557772E+01 -0.38813446813E+00  0.10912126057E+02  0.10500000000E+00 0. -1.
</event>
<event>
11    0  0.3483054E-009  0.9118800E+02  0.7816531E-02  0.1126479E+00
         25   -1    0    0    0    0  0.00000000000E+00  0.00000000000E+00  0.99999998245E-14  0.12500000000E+03  0.12500000000E+03 0.  0.
    3000001    1    3    3    0    0  0.26813681506E+01 -0.76847539536E+01 -0.16075867967E+02  0.18046570571E+02  0.10000000000E+01 0. -1.
    1000022    2    1    0    0    0  0.10773064028E+02 -0.11781523620E+02 -0.59593514958E+02  0.62499997443E+02  0.99999723967E+01 0.  0.
    3000022    2    3    3    0    0  0.80916958775E+01 -0.40967696663E+01 -0.43517646991E+02  0.44453426872E+02  0.24999425100E+00 0.  0.
    1000022    2    1    0    0    0 -0.10773064028E+02  0.11781523620E+02  0.59593514958E+02  0.62500002557E+02  0.10000004360E+02 0.  0.
    3000022    2    5    5    0    0 -0.28954793853E+01  0.26467736050E+01  0.40153535884E+01  0.56191444510E+01  0.25001706908E+00 0.  0.
        -13    1    4    4    0    0  0.22764010300E+01 -0.11775828585E+01 -0.12138164615E+02  0.12406239086E+02  0.10500000000E+00 0. -1.
         13    1    4    4    0    0  0.58152948474E+01 -0.29191868078E+01 -0.31379482376E+02  0.32047187785E+02  0.10500000000E+00 0.  1.
    3000001    1    5    5    0    0 -0.78775846428E+01  0.91347500149E+01  0.55578161370E+02  0.56880858106E+02  0.10000000000E+01 0.  1.
        -13    1    6    6    0    0 -0.21213566225E+01  0.19822097762E+01  0.29647128422E+01  0.41508862612E+01  0.10500000000E+00 0.  1.
         13    1    6    6    0    0 -0.77412276278E+00  0.66456382881E+00  0.10506407462E+01  0.14682581898E+01  0.10500000000E+00 0. -1.
</event>
<event>
11    0  0.3483054E-009  0.9118800E+02  0.7816531E-02  0.1126479E+00
         25   -1    0    0    0    0  0.00000000000E+00  0.00000000000E+00  0.99999998245E-14  0.12500000000E+03  0.12500000000E+03 0.  0.
    3000001    1    3    3    0    0 -0.15646181654E+02 -0.20573821908E+02  0.22854330510E+02  0.34516743348E+02  0.10000000000E+01 0. -1.
    1000022    2    1    0    0    0 -0.24616308355E+02 -0.43478660625E+02  0.36192448097E+02  0.62500000658E+02  0.10000010812E+02 0.  0.
    3000022    2    3    3    0    0 -0.89701267008E+01 -0.22904838717E+02  0.13338117587E+02  0.27983257311E+02  0.24999854322E+00 0.  0.
    1000022    2    1    0    0    0  0.24616308355E+02  0.43478660625E+02 -0.36192448097E+02  0.62499999342E+02  0.10000002585E+02 0.  0.
    3000022    2    5    5    0    0  0.89504983281E+01  0.20406192390E+02 -0.10771153638E+02  0.24750845627E+02  0.25000070560E+00 0.  0.
        -13    1    4    4    0    0 -0.27244208570E+01 -0.68402144397E+01  0.39735487597E+01  0.83672646267E+01  0.10500000000E+00 0.  1.
         13    1    4    4    0    0 -0.62457058438E+01 -0.16064624277E+02  0.93645688271E+01  0.19615992684E+02  0.10500000000E+00 0. -1.
    3000001    1    5    5    0    0  0.15665810027E+02  0.23072468235E+02 -0.25421294459E+02  0.37749153715E+02  0.10000000000E+01 0. -1.
        -13    1    6    6    0    0  0.39850523061E+01  0.92475418704E+01 -0.48838971991E+01  0.11192012749E+02  0.10500000000E+00 0.  1.
         13    1    6    6    0    0  0.49654460220E+01  0.11158650520E+02 -0.58872564389E+01  0.13558832877E+02  0.10500000000E+00 0. -1.
</event>
<event>
11    0  0.3483054E-009  0.9118800E+02  0.7816531E-02  0.1126479E+00
         25   -1    0    0    0    0  0.00000000000E+00  0.00000000000E+00  0.99999998245E-14  0.12500000000E+03  0.12500000000E+03 0.  0.
    3000001    1    3    3    0    0 -0.92159548218E+01 -0.59495444670E+01 -0.25818737453E+02  0.28070235238E+02  0.10000000000E+01 0.  1.
    1000022    2    1    0    0    0 -0.18485644219E+02 -0.23420082879E+02 -0.54000282129E+02  0.62500001643E+02  0.10000020552E+02 0.  0.
    3000022    2    3    3    0    0 -0.92696893968E+01 -0.17470538412E+02 -0.28181544676E+02  0.34429766404E+02  0.25000083242E+00 0.  0.
    1000022    2    1    0    0    0  0.18485644219E+02  0.23420082879E+02  0.54000282129E+02  0.62499998357E+02  0.10000000019E+02 0.  0.
    3000022    2    5    5    0    0 -0.42089689925E-01  0.47520717735E+01  0.51630197263E+01  0.70216263422E+01  0.25001222581E+00 0.  0.
        -13    1    4    4    0    0 -0.33470361374E+01 -0.63516221571E+01 -0.10135408479E+02  0.12421082279E+02  0.10500000000E+00 0. -1.
         13    1    4    4    0    0 -0.59226532595E+01 -0.11118916255E+02 -0.18046136197E+02  0.22008684126E+02  0.10500000000E+00 0.  1.
    3000001    1    5    5    0    0  0.18527733909E+02  0.18668011105E+02  0.48837262403E+02  0.55478372015E+02  0.10000000000E+01 0. -1.
        -13    1    6    6    0    0 -0.68492167026E-02  0.35584242079E+01  0.38795392869E+01  0.52653850604E+01  0.10500000000E+00 0. -1.
         13    1    6    6    0    0 -0.35240473223E-01  0.11936475656E+01  0.12834804394E+01  0.17562412819E+01  0.10500000000E+00 0.  1.
</event>
<event>
11    0  0.3483054E-009  0.9118800E+02  0.7816531E-02  0.1126479E+00
         25   -1    0    0    0    0  0.00000000000E+00  0.00000000000E+00  0.99999998245E-14  0.12500000000E+03  0.12500000000E+03 0.  0.
    3000001    1    3    3    0    0  0.13290300354E+02 -0.97002325889E+01  0.56682368619E+02  0.59030648887E+02  0.10000000000E+01 0.  1.
    1000022    2    1    0    0    0  0.12792188338E+02 -0.12095388617E+02  0.59129617634E+02  0.62500001577E+02  0.10000000366E+02 0.  0.
    3000022    2    3    3    0    0 -0.49811201556E+00 -0.23951560279E+01  0.24472490146E+01  0.34693526895E+01  0.24998473277E+00 0.  0.
    1000022    2    1    0    0    0 -0.12792188338E+02  0.12095388617E+02 -0.59129617634E+02  0.62499998423E+02  0.99999806555E+01 0.  0.
    3000022    2    5    5    0    0 -0.12771528605E+02  0.70157857957E+01 -0.36860455855E+02  0.39636963673E+02  0.24998032962E+00 0.  0.
        -13    1    4    4    0    0 -0.19872186617E+00 -0.11589247835E+01  0.12514535835E+01  0.17203947528E+01  0.10500000000E+00 0.  1.
         13    1    4    4    0    0 -0.29939014939E+00 -0.12362312444E+01  0.11957954310E+01  0.17489579366E+01  0.10500000000E+00 0. -1.
    3000001    1    5    5    0    0 -0.20659733314E-01  0.50796028211E+01 -0.22269161779E+02  0.22863034750E+02  0.10000000000E+01 0. -1.
        -13    1    6    6    0    0 -0.63221324376E+01  0.34461694786E+01 -0.18387014117E+02  0.19746866986E+02  0.10500000000E+00 0. -1.
         13    1    6    6    0    0 -0.64493961672E+01  0.35696163170E+01 -0.18473441738E+02  0.19890096687E+02  0.10500000000E+00 0.  1.
</event>
<event>
11    0  0.3483054E-009  0.9118800E+02  0.7816531E-02  0.1126479E+00
         25   -1    0    0    0    0  0.00000000000E+00  0.00000000000E+00  0.99999998245E-14  0.12500000000E+03  0.12500000000E+03 0.  0.
    3000001    1    3    3    0    0  0.72123337625E+01 -0.10749357864E+02 -0.10163498030E+02  0.16488272954E+02  0.10000000000E+01 0. -1.
    1000022    2    1    0    0    0  0.33053864061E+02 -0.26706057237E+02 -0.44726709140E+02  0.62499999765E+02  0.10000001879E+02 0.  0.
    3000022    2    3    3    0    0  0.25841530299E+02 -0.15956699374E+02 -0.34563211110E+02  0.46011726811E+02  0.24999770038E+00 0.  0.
    1000022    2    1    0    0    0 -0.33053864061E+02  0.26706057237E+02  0.44726709140E+02  0.62500000235E+02  0.10000004814E+02 0.  0.
    3000022    2    5    5    0    0 -0.67545337669E+01  0.10269529419E+02  0.93664211760E+01  0.15455721246E+02  0.25002537917E+00 0.  0.
        -13    1    4    4    0    0  0.76078224140E+01 -0.47108255293E+01 -0.10248808607E+02  0.13605878947E+02  0.10500000000E+00 0.  1.
         13    1    4    4    0    0  0.18233707885E+02 -0.11245873844E+02 -0.24314402503E+02  0.32405847864E+02  0.10500000000E+00 0. -1.
    3000001    1    5    5    0    0 -0.26299330294E+02  0.16436527818E+02  0.35360287964E+02  0.47044278989E+02  0.10000000000E+01 0. -1.
        -13    1    6    6    0    0 -0.33649319214E+01  0.51596764292E+01  0.46141208963E+01  0.76971530019E+01  0.10500000000E+00 0.  1.
         13    1    6    6    0    0 -0.33896018456E+01  0.51098529902E+01  0.47523002797E+01  0.77585682443E+01  0.10500000000E+00 0. -1.
</event>
<event>
11    0  0.3483054E-009  0.9118800E+02  0.7816531E-02  0.1126479E+00
         25   -1    0    0    0    0  0.00000000000E+00  0.00000000000E+00  0.99999998245E-14  0.12500000000E+03  0.12500000000E+03 0.  0.
    3000001    1    3    3    0    0 -0.10822627933E+02  0.44359185816E+01 -0.56459404025E+02  0.57666896500E+02  0.10000000000E+01 0. -1.
    1000022    2    1    0    0    0 -0.12751076379E+02  0.22739497589E+01 -0.60319889938E+02  0.62499999592E+02  0.10000001529E+02 0.  0.
    3000022    2    3    3    0    0 -0.19284484463E+01 -0.21619688227E+01 -0.38604859127E+01  0.48331030926E+01  0.25002284052E+00 0.  0.
    1000022    2    1    0    0    0  0.12751076379E+02 -0.22739497589E+01  0.60319889938E+02  0.62500000408E+02  0.10000006627E+02 0.  0.
    3000022    2    5    5    0    0  0.13740796161E+01 -0.41464456721E+01  0.10951063181E+02  0.11792768659E+02  0.25000269205E+00 0.  0.
        -13    1    4    4    0    0 -0.10637050008E+01 -0.12531422978E+01 -0.21014994323E+01  0.26700484661E+01  0.10500000000E+00 0. -1.
         13    1    4    4    0    0 -0.86474344555E+00 -0.90882652490E+00 -0.17589864804E+01  0.21630546265E+01  0.10500000000E+00 0.  1.
    3000001    1    5    5    0    0  0.11376996763E+02  0.18724959131E+01  0.49368826757E+02  0.50707231749E+02  0.10000000000E+01 0. -1.
        -13    1    6    6    0    0  0.79873355012E+00 -0.25291169218E+01  0.67791327443E+01  0.72802522932E+01  0.10500000000E+00 0.  1.
         13    1    6    6    0    0  0.57534606595E+00 -0.16173287503E+01  0.41719304369E+01  0.45125163659E+01  0.10500000000E+00 0. -1.
</event>
<event>
11    0  0.3483054E-009  0.9118800E+02  0.7816531E-02  0.1126479E+00
         25   -1    0    0    0    0  0.00000000000E+00  0.00000000000E+00  0.99999998245E-14  0.12500000000E+03  0.12500000000E+03 0.  0.
    3000001    1    3    3    0    0  0.24022680357E+02  0.99694557539E+01 -0.18043628130E+02  0.31670992022E+02  0.10000000000E+01 0. -1.
    1000022    2    1    0    0    0  0.50243517571E+02  0.23442520887E+02 -0.27060802755E+02  0.62499999656E+02  0.10000003394E+02 0.  0.
    3000022    2    3    3    0    0  0.26220837214E+02  0.13473065133E+02 -0.90171746247E+01  0.30829007634E+02  0.24997046842E+00 0.  0.
    1000022    2    1    0    0    0 -0.50243517571E+02 -0.23442520887E+02  0.27060802755E+02  0.62500000344E+02  0.10000007688E+02 0.  0.
    3000022    2    5    5    0    0 -0.16667144093E+02 -0.70640829518E+01  0.14092359693E+02  0.22942363905E+02  0.24999936455E+00 0.  0.
        -13    1    4    4    0    0  0.92822882229E+01  0.47618001022E+01 -0.31318377939E+01  0.10892889783E+02  0.10500000000E+00 0. -1.
         13    1    4    4    0    0  0.16938548991E+02  0.87112650306E+01 -0.58853368308E+01  0.19936117851E+02  0.10500000000E+00 0.  1.
    3000001    1    5    5    0    0 -0.33576373479E+02 -0.16378437935E+02  0.12968443062E+02  0.39557636439E+02  0.10000000000E+01 0. -1.
        -13    1    6    6    0    0 -0.46616172601E+01 -0.20099738282E+01  0.39215774913E+01  0.64156422352E+01  0.10500000000E+00 0. -1.
         13    1    6    6    0    0 -0.12005526832E+02 -0.50541091236E+01  0.10170782202E+02  0.16526721670E+02  0.10500000000E+00 0.  1.
</event>
<event>
11    0  0.3483054E-009  0.9118800E+02  0.7816531E-02  0.1126479E+00
         25   -1    0    0    0    0  0.00000000000E+00  0.00000000000E+00  0.99999998245E-14  0.12500000000E+03  0.12500000000E+03 0.  0.
    3000001    1    3    3    0    0  0.14938389117E+01  0.20091203881E+02  0.16316205179E+02  0.25944297630E+02  0.10000000000E+01 0.  1.
    1000022    2    1    0    0    0 -0.76821620017E+01  0.49317438509E+02  0.36263264277E+02  0.62500000909E+02  0.10000021174E+02 0.  0.
    3000022    2    3    3    0    0 -0.91760009134E+01  0.29226234628E+02  0.19947059098E+02  0.36555703279E+02  0.24998450233E+00 0.  0.
    1000022    2    1    0    0    0  0.76821620017E+01 -0.49317438509E+02 -0.36263264277E+02  0.62499999091E+02  0.10000009808E+02 0.  0.
    3000022    2    5    5    0    0  0.93434539942E+01 -0.44958201818E+02 -0.31043692273E+02  0.55428452759E+02  0.25000413233E+00 0.  0.
        -13    1    4    4    0    0 -0.63990993064E+01  0.20278296616E+02  0.13803337345E+02  0.25351546944E+02  0.10500000000E+00 0.  1.
         13    1    4    4    0    0 -0.27769016071E+01  0.89479380119E+01  0.61437217536E+01  0.11204156335E+02  0.10500000000E+00 0. -1.
    3000001    1    5    5    0    0 -0.16612919926E+01 -0.43592366911E+01 -0.52195720038E+01  0.70715463314E+01  0.10000000000E+01 0. -1.
        -13    1    6    6    0    0  0.50666092115E+01 -0.24277094908E+02 -0.16689249283E+02  0.29892974638E+02  0.10500000000E+00 0.  1.
         13    1    6    6    0    0  0.42768447827E+01 -0.20681106910E+02 -0.14354442991E+02  0.25535478122E+02  0.10500000000E+00 0. -1.
</event>
<event>
11    0  0.3483054E-009  0.9118800E+02  0.7816531E-02  0.1126479E+00
         25   -1    0    0    0    0  0.00000000000E+00  0.00000000000E+00  0.99999998245E-14  0.12500000000E+03  0.12500000000E+03 0.  0.
    3000001    1    3    3    0    0 -0.29294495716E+00  0.49737315446E+00  0.23468280472E+00  0.11782498977E+01  0.10000000000E+01 0.  1.
    1000022    2    1    0    0    0 -0.43763946920E+02  0.29459656170E+00  0.43484261042E+02  0.62500004979E+02  0.99999913451E+01 0.  0.
    3000022    2    3    3    0    0 -0.43471001962E+02 -0.20277659276E+00  0.43249578237E+02  0.61321755081E+02  0.24999717831E+00 0.  0.
    1000022    2    1    0    0    0  0.43763946920E+02 -0.29459656170E+00 -0.43484261042E+02  0.62499995021E+02  0.99999291082E+01 0.  0.
    3000022    2    5    5    0    0  0.35709220382E+02  0.35970450241E+01 -0.34620354506E+02  0.49867009115E+02  0.24999751022E+00 0.  0.
        -13    1    4    4    0    0 -0.18529607598E+02 -0.38875575501E-01  0.18498161483E+02  0.26182835452E+02  0.10500000000E+00 0.  1.
         13    1    4    4    0    0 -0.24941394364E+02 -0.16390101726E+00  0.24751416754E+02  0.35138919630E+02  0.10500000000E+00 0. -1.
    3000001    1    5    5    0    0  0.80547265371E+01 -0.38916415858E+01 -0.88639065358E+01  0.12632985906E+02  0.10000000000E+01 0. -1.
        -13    1    6    6    0    0  0.22593354234E+02  0.23192580806E+01 -0.21852251497E+02  0.31517781236E+02  0.10500000000E+00 0.  1.
         13    1    6    6    0    0  0.13115866149E+02  0.12777869436E+01 -0.12768103009E+02  0.18349227879E+02  0.10500000000E+00 0. -1.
</event>
<event>
11    0  0.3483054E-009  0.9118800E+02  0.7816531E-02  0.1126479E+00
         25   -1    0    0    0    0  0.00000000000E+00  0.00000000000E+00  0.99999998245E-14  0.12500000000E+03  0.12500000000E+03 0.  0.
    3000001    1    3    3    0    0  0.94807284221E+01 -0.12646522768E+01  0.11107467983E+02  0.14692154430E+02  0.10000000000E+01 0.  1.
    1000022    2    1    0    0    0  0.25059559924E+02 -0.58019588533E+01  0.56076790020E+02  0.62499994437E+02  0.99999327736E+01 0.  0.
    3000022    2    3    3    0    0  0.15578831502E+02 -0.45373065765E+01  0.44969322037E+02  0.47807840007E+02  0.24999940024E+00 0.  0.
    1000022    2    1    0    0    0 -0.25059559924E+02  0.58019588533E+01 -0.56076790020E+02  0.62500005563E+02  0.10000002315E+02 0.  0.
    3000022    2    5    5    0    0 -0.49386040230E+01  0.34388080687E+01 -0.22314505976E+02  0.23113089310E+02  0.25001979838E+00 0.  0.
        -13    1    4    4    0    0  0.45407524428E+01 -0.12882970880E+01  0.13165715578E+02  0.13986609090E+02  0.10500000000E+00 0.  1.
         13    1    4    4    0    0  0.11038079059E+02 -0.32490094885E+01  0.31803606459E+02  0.33821230917E+02  0.10500000000E+00 0. -1.
    3000001    1    5    5    0    0 -0.20120955901E+02  0.23631507846E+01 -0.33762284045E+02  0.39386916253E+02  0.10000000000E+01 0. -1.
        -13    1    6    6    0    0 -0.24489927871E+01  0.16994064827E+01 -0.11312902659E+02  0.11699501683E+02  0.10500000000E+00 0.  1.
         13    1    6    6    0    0 -0.24896112358E+01  0.17394015860E+01 -0.11001603317E+02  0.11413587628E+02  0.10500000000E+00 0. -1.
</event>
<event>
11    0  0.3483054E-009  0.9118800E+02  0.7816531E-02  0.1126479E+00
         25   -1    0    0    0    0  0.00000000000E+00  0.00000000000E+00  0.99999998245E-14  0.12500000000E+03  0.12500000000E+03 0.  0.
    3000001    1    3    3    0    0  0.18273062423E+01 -0.16779713257E+02  0.14064542514E+02  0.21993389489E+02  0.10000000000E+01 0. -1.
    1000022    2    1    0    0    0 -0.40002743185E+01 -0.40434330727E+02  0.46425343611E+02  0.62500000913E+02  0.10000014438E+02 0.  0.
    3000022    2    3    3    0    0 -0.58275805607E+01 -0.23654617470E+02  0.32360801097E+02  0.40506611424E+02  0.24999713370E+00 0.  0.
    1000022    2    1    0    0    0  0.40002743185E+01  0.40434330727E+02 -0.46425343611E+02  0.62499999087E+02  0.10000003025E+02 0.  0.
    3000022    2    5    5    0    0  0.51524413941E+01  0.32773939618E+02 -0.41997856467E+02  0.53521595926E+02  0.25002438936E+00 0.  0.
        -13    1    4    4    0    0 -0.31532888847E+01 -0.12591265552E+02  0.17166399125E+02  0.21521605027E+02  0.10500000000E+00 0. -1.
         13    1    4    4    0    0 -0.26742916760E+01 -0.11063351918E+02  0.15194401972E+02  0.18985006398E+02  0.10500000000E+00 0.  1.
    3000001    1    5    5    0    0 -0.11521670757E+01  0.76603911096E+01 -0.44274871436E+01  0.89784031614E+01  0.10000000000E+01 0.  1.
        -13    1    6    6    0    0  0.29271049712E+01  0.19035324923E+02 -0.24385891452E+02  0.31074012701E+02  0.10500000000E+00 0.  1.
         13    1    6    6    0    0  0.22253364229E+01  0.13738614695E+02 -0.17611965015E+02  0.22447583224E+02  0.10500000000E+00 0. -1.
</event>
<event>
11    0  0.3483054E-009  0.9118800E+02  0.7816531E-02  0.1126479E+00
         25   -1    0    0    0    0  0.00000000000E+00  0.00000000000E+00  0.99999998245E-14  0.12500000000E+03  0.12500000000E+03 0.  0.
    3000001    1    3    3    0    0 -0.28555836909E+01  0.11554886928E+01 -0.48116943183E+01  0.58001650449E+01  0.10000000000E+01 0. -1.
    1000022    2    1    0    0    0 -0.32567529137E+02 -0.16928918470E+02 -0.49588497732E+02  0.62499989648E+02  0.99998681998E+01 0.  0.
    3000022    2    3    3    0    0 -0.29711945446E+02 -0.18084407163E+02 -0.44776803414E+02  0.56699824603E+02  0.25000287244E+00 0.  0.
    1000022    2    1    0    0    0  0.32567529137E+02  0.16928918470E+02  0.49588497732E+02  0.62500010352E+02  0.99999976004E+01 0.  0.
    3000022    2    5    5    0    0  0.25050448041E+02  0.80452242125E+01  0.32832183087E+02  0.42074521071E+02  0.24999488063E+00 0.  0.
        -13    1    4    4    0    0 -0.18927831026E+02 -0.11544715545E+02 -0.28451448951E+02  0.36069921219E+02  0.10500000000E+00 0.  1.
         13    1    4    4    0    0 -0.10784114420E+02 -0.65396916180E+01 -0.16325354463E+02  0.20629903384E+02  0.10500000000E+00 0. -1.
    3000001    1    5    5    0    0  0.75170810963E+01  0.88836942577E+01  0.16756314645E+02  0.20425489281E+02  0.10000000000E+01 0. -1.
        -13    1    6    6    0    0  0.84172483688E+01  0.26708716691E+01  0.10949356637E+02  0.14067091431E+02  0.10500000000E+00 0. -1.
         13    1    6    6    0    0  0.16633199672E+02  0.53743525434E+01  0.21882826450E+02  0.28007429640E+02  0.10500000000E+00 0.  1.
</event>
<event>
11    0  0.3483054E-009  0.9118800E+02  0.7816531E-02  0.1126479E+00
         25   -1    0    0    0    0  0.00000000000E+00  0.00000000000E+00  0.99999998245E-14  0.12500000000E+03  0.12500000000E+03 0.  0.
    3000001    1    3    3    0    0 -0.54641840909E+02 -0.11211540175E+02  0.10594842624E+02  0.56786266836E+02  0.10000000000E+01 0.  1.
    1000022    2    1    0    0    0 -0.58483170782E+02 -0.14376665241E+02  0.13389555151E+02  0.62500000442E+02  0.10000004996E+02 0.  0.
    3000022    2    3    3    0    0 -0.38413298736E+01 -0.31651250659E+01  0.27947125265E+01  0.57137336057E+01  0.25000346046E+00 0.  0.
    1000022    2    1    0    0    0  0.58483170782E+02  0.14376665241E+02 -0.13389555151E+02  0.62499999558E+02  0.99999994703E+01 0.  0.
    3000022    2    5    5    0    0  0.37001239941E+02  0.10366320279E+02 -0.37988522972E+01  0.38614066446E+02  0.24999090357E+00 0.  0.
        -13    1    4    4    0    0 -0.26789547388E+01 -0.21540210460E+01  0.19576757517E+01  0.39572875190E+01  0.10500000000E+00 0. -1.
         13    1    4    4    0    0 -0.11623751348E+01 -0.10111040200E+01  0.83703677475E+00  0.17564460867E+01  0.10500000000E+00 0.  1.
    3000001    1    5    5    0    0  0.21481930841E+02  0.40103449620E+01 -0.95907028536E+01  0.23885933111E+02  0.10000000000E+01 0. -1.
        -13    1    6    6    0    0  0.12369713054E+02  0.34966632700E+01 -0.13156400212E+01  0.12922011791E+02  0.10500000000E+00 0.  1.
         13    1    6    6    0    0  0.24631526887E+02  0.68696570089E+01 -0.24832122759E+01  0.25692054656E+02  0.10500000000E+00 0. -1.
</event>
<event>
11    0  0.3483054E-009  0.9118800E+02  0.7816531E-02  0.1126479E+00
         25   -1    0    0    0    0  0.00000000000E+00  0.00000000000E+00  0.99999998245E-14  0.12500000000E+03  0.12500000000E+03 0.  0.
    3000001    1    3    3    0    0 -0.46387380507E+01  0.44650284501E+01  0.22361962829E+02  0.23291881661E+02  0.10000000000E+01 0. -1.
    1000022    2    1    0    0    0 -0.69713107697E+01  0.49245843143E+00  0.61297703527E+02  0.62500000824E+02  0.99999978095E+01 0.  0.
    3000022    2    3    3    0    0 -0.23325727190E+01 -0.39725700186E+01  0.38935740698E+02  0.39208119163E+02  0.24999308244E+00 0.  0.
    1000022    2    1    0    0    0  0.69713107697E+01 -0.49245843143E+00 -0.61297703527E+02  0.62499999176E+02  0.99999875040E+01 0.  0.
    3000022    2    5    5    0    0  0.68846913077E+01  0.11898802965E+01 -0.20577765283E+02  0.21732964243E+02  0.25004249745E+00 0.  0.
        -13    1    4    4    0    0 -0.13330900868E+01 -0.23780945325E+01  0.23308742099E+02  0.23467870504E+02  0.10500000000E+00 0.  1.
         13    1    4    4    0    0 -0.99948263211E+00 -0.15944754862E+01  0.15626998600E+02  0.15740248659E+02  0.10500000000E+00 0. -1.
    3000001    1    5    5    0    0  0.86619461999E-01 -0.16823387280E+01 -0.40719938245E+02  0.40767034932E+02  0.10000000000E+01 0. -1.
        -13    1    6    6    0    0  0.47521989569E+01  0.86938644962E+00 -0.14249733703E+02  0.15046765876E+02  0.10500000000E+00 0.  1.
         13    1    6    6    0    0  0.21324923507E+01  0.32049384692E+00 -0.63280315800E+01  0.66861983675E+01  0.10500000000E+00 0. -1.
</event>
<event>
11    0  0.3483054E-009  0.9118800E+02  0.7816531E-02  0.1126479E+00
         25   -1    0    0    0    0  0.00000000000E+00  0.00000000000E+00  0.99999998245E-14  0.12500000000E+03  0.12500000000E+03 0.  0.
    3000001    1    3    3    0    0  0.20586643435E+01 -0.15051327019E+01  0.23565324596E+02  0.23723997274E+02  0.10000000000E+01 0.  1.
    1000022    2    1    0    0    0 -0.65962992039E+01 -0.23008681478E+00  0.61340735641E+02  0.62499999069E+02  0.99999965786E+01 0.  0.
    3000022    2    3    3    0    0 -0.86549635474E+01  0.12750458871E+01  0.37775411045E+02  0.38776001795E+02  0.24999924023E+00 0.  0.
    1000022    2    1    0    0    0  0.65962992039E+01  0.23008681478E+00 -0.61340735641E+02  0.62500000931E+02  0.10000008215E+02 0.  0.
    3000022    2    5    5    0    0  0.80057649160E+01 -0.28071614952E+01 -0.43456655700E+02  0.44277712760E+02  0.24999001903E+00 0.  0.
        -13    1    4    4    0    0 -0.45739387411E+01  0.64259426752E+00  0.20208559840E+02  0.20729948355E+02  0.10500000000E+00 0.  1.
         13    1    4    4    0    0 -0.40810248063E+01  0.63245161957E+00  0.17566851205E+02  0.18046053440E+02  0.10500000000E+00 0. -1.
    3000001    1    5    5    0    0 -0.14094657121E+01  0.30372483100E+01 -0.17884079940E+02  0.18222288171E+02  0.10000000000E+01 0. -1.
        -13    1    6    6    0    0  0.42773401785E+01 -0.15582565434E+01 -0.23115509146E+02  0.23559745129E+02  0.10500000000E+00 0. -1.
         13    1    6    6    0    0  0.37284247375E+01 -0.12489049518E+01 -0.20341146554E+02  0.20717967630E+02  0.10500000000E+00 0.  1.
</event>
<event>
11    0  0.3483054E-009  0.9118800E+02  0.7816531E-02  0.1126479E+00
         25   -1    0    0    0    0  0.00000000000E+00  0.00000000000E+00  0.99999998245E-14  0.12500000000E+03  0.12500000000E+03 0.  0.
    3000001    1    3    3    0    0  0.14633279905E+02  0.27220645173E+02  0.31591130406E+02  0.44205157219E+02  0.10000000000E+01 0. -1.
    1000022    2    1    0    0    0  0.15281993402E+02  0.41464080951E+02  0.43051605385E+02  0.62500000252E+02  0.99999986922E+01 0.  0.
    3000022    2    3    3    0    0  0.64871349668E+00  0.14243435778E+02  0.11460474979E+02  0.18294843033E+02  0.25000580877E+00 0.  0.
    1000022    2    1    0    0    0 -0.15281993402E+02 -0.41464080951E+02 -0.43051605385E+02  0.62499999748E+02  0.99999955445E+01 0.  0.
    3000022    2    5    5    0    0 -0.15095350820E+02 -0.41524781933E+02 -0.41340877515E+02  0.60508741375E+02  0.24999644682E+00 0.  0.
        -13    1    4    4    0    0  0.27852775449E+00  0.75726267267E+01  0.61058851602E+01  0.97321689177E+01  0.10500000000E+00 0.  1.
         13    1    4    4    0    0  0.37018574219E+00  0.66708090508E+01  0.53545898184E+01  0.85626741150E+01  0.10500000000E+00 0. -1.
    3000001    1    5    5    0    0 -0.18664258233E+00  0.60700981681E-01 -0.17107278697E+01  0.19912583727E+01  0.10000000000E+01 0.  1.
        -13    1    6    6    0    0 -0.56240588562E+01 -0.15297266762E+02 -0.15253784430E+02  0.22323202567E+02  0.10500000000E+00 0. -1.
         13    1    6    6    0    0 -0.94712919637E+01 -0.26227515171E+02 -0.26087093085E+02  0.38185538808E+02  0.10500000000E+00 0.  1.
</event>
<event>
11    0  0.3483054E-009  0.9118800E+02  0.7816531E-02  0.1126479E+00
         25   -1    0    0    0    0  0.00000000000E+00  0.00000000000E+00  0.99999998245E-14  0.12500000000E+03  0.12500000000E+03 0.  0.
    3000001    1    3    3    0    0 -0.10752592000E+02 -0.12656634940E+01  0.42123265503E+01  0.11660353072E+02  0.10000000000E+01 0. -1.
    1000022    2    1    0    0    0 -0.57482507424E+02 -0.20925648335E+02  0.80080296432E+01  0.62500001568E+02  0.10000011960E+02 0.  0.
    3000022    2    3    3    0    0 -0.46729915424E+02 -0.19659984841E+02  0.37957030929E+01  0.50839648496E+02  0.24999539705E+00 0.  0.
    1000022    2    1    0    0    0  0.57482507424E+02  0.20925648335E+02 -0.80080296432E+01  0.62499998432E+02  0.99999923631E+01 0.  0.
    3000022    2    5    5    0    0  0.27890902204E+02  0.15278536365E+02 -0.52352560603E+01  0.32230521290E+02  0.24999484867E+00 0.  0.
        -13    1    4    4    0    0 -0.34463558621E+02 -0.14530722793E+02  0.27850214992E+01  0.37505281594E+02  0.10500000000E+00 0. -1.
         13    1    4    4    0    0 -0.12266356804E+02 -0.51292620489E+01  0.10106815937E+01  0.13334366902E+02  0.10500000000E+00 0.  1.
    3000001    1    5    5    0    0  0.29591605220E+02  0.56471119706E+01 -0.27727735829E+01  0.30269477142E+02  0.10000000000E+01 0.  1.
        -13    1    6    6    0    0  0.20995481974E+02  0.11475612243E+02 -0.39280665076E+01  0.24247487935E+02  0.10500000000E+00 0.  1.
         13    1    6    6    0    0  0.68954202299E+01  0.38029241216E+01 -0.13071895527E+01  0.79830333551E+01  0.10500000000E+00 0. -1.
</event>
<event>
11    0  0.3483054E-009  0.9118800E+02  0.7816531E-02  0.1126479E+00
         25   -1    0    0    0    0  0.00000000000E+00  0.00000000000E+00  0.99999998245E-14  0.12500000000E+03  0.12500000000E+03 0.  0.
    3000001    1    3    3    0    0  0.39111335221E+00  0.51179262428E+00 -0.19340234719E+00  0.12051165141E+01  0.10000000000E+01 0. -1.
    1000022    2    1    0    0    0  0.55465737757E+01  0.22748549261E+02 -0.57078796518E+02  0.62499999591E+02  0.99999981390E+01 0.  0.
    3000022    2    3    3    0    0  0.51554604234E+01  0.22236756637E+02 -0.56885394171E+02  0.61294883077E+02  0.25000705609E+00 0.  0.
    1000022    2    1    0    0    0 -0.55465737757E+01 -0.22748549261E+02  0.57078796518E+02  0.62500000409E+02  0.10000003250E+02 0.  0.
    3000022    2    5    5    0    0  0.14823872202E+01 -0.40629571215E+01  0.19066266329E+02  0.19552240308E+02  0.24999378784E+00 0.  0.
        -13    1    4    4    0    0  0.29154680111E+01  0.12281903830E+02 -0.31473997748E+02  0.33911188045E+02  0.10500000000E+00 0.  1.
         13    1    4    4    0    0  0.22399924123E+01  0.99548528073E+01 -0.25411396423E+02  0.27383695032E+02  0.10500000000E+00 0. -1.
    3000001    1    5    5    0    0 -0.70289609958E+01 -0.18685592140E+02  0.38012530189E+02  0.42947760101E+02  0.10000000000E+01 0. -1.
        -13    1    6    6    0    0  0.67680476446E+00 -0.18577315715E+01  0.90212257576E+01  0.92359498943E+01  0.10500000000E+00 0.  1.
         13    1    6    6    0    0  0.80558245572E+00 -0.22052255500E+01  0.10045040571E+02  0.10316290414E+02  0.10500000000E+00 0. -1.
</event>
<event>
11    0  0.3483054E-009  0.9118800E+02  0.7816531E-02  0.1126479E+00
         25   -1    0    0    0    0  0.00000000000E+00  0.00000000000E+00  0.99999998245E-14  0.12500000000E+03  0.12500000000E+03 0.  0.
    3000001    1    3    3    0    0 -0.10956998284E+02  0.58609831135E+01  0.60631407294E+01  0.13862489313E+02  0.10000000000E+01 0. -1.
    1000022    2    1    0    0    0 -0.52824814519E+02  0.30329811610E+02  0.97924143521E+01  0.62500001438E+02  0.10000014983E+02 0.  0.
    3000022    2    3    3    0    0 -0.41867816236E+02  0.24468828497E+02  0.37292736227E+01  0.48637512125E+02  0.24999934705E+00 0.  0.
    1000022    2    1    0    0    0  0.52824814519E+02 -0.30329811610E+02 -0.97924143521E+01  0.62499998562E+02  0.99999970023E+01 0.  0.
    3000022    2    5    5    0    0  0.32721448598E+02 -0.23954140057E+02 -0.77561672357E+01  0.41288190259E+02  0.25000098444E+00 0.  0.
        -13    1    4    4    0    0 -0.22886210252E+02  0.13368878376E+02  0.21050510100E+01  0.26588489869E+02  0.10500000000E+00 0.  1.
         13    1    4    4    0    0 -0.18981605983E+02  0.11099950121E+02  0.16242226127E+01  0.22049022257E+02  0.10500000000E+00 0. -1.
    3000001    1    5    5    0    0  0.20103365922E+02 -0.63756715528E+01 -0.20362471164E+01  0.21211808302E+02  0.10000000000E+01 0. -1.
        -13    1    6    6    0    0  0.22382689073E+02 -0.16446377444E+02 -0.53196574558E+01  0.28280344439E+02  0.10500000000E+00 0.  1.
         13    1    6    6    0    0  0.10338759525E+02 -0.75077626136E+01 -0.24365097799E+01  0.13007845820E+02  0.10500000000E+00 0. -1.
</event>
<event>
11    0  0.3483054E-009  0.9118800E+02  0.7816531E-02  0.1126479E+00
         25   -1    0    0    0    0  0.00000000000E+00  0.00000000000E+00  0.99999998245E-14  0.12500000000E+03  0.12500000000E+03 0.  0.
    3000001    1    3    3    0    0  0.41854266791E+01  0.27780046890E+02 -0.89641070763E+01  0.29505999685E+02  0.10000000000E+01 0. -1.
    1000022    2    1    0    0    0 -0.14564990576E+01  0.59184817327E+02 -0.17357595177E+02  0.62500000312E+02  0.99999968557E+01 0.  0.
    3000022    2    3    3    0    0 -0.56419257367E+01  0.31404770437E+02 -0.83934881010E+01  0.32994000627E+02  0.25000538317E+00 0.  0.
    1000022    2    1    0    0    0  0.14564990576E+01 -0.59184817327E+02  0.17357595177E+02  0.62499999688E+02  0.99999929574E+01 0.  0.
    3000022    2    5    5    0    0  0.25863724084E+01 -0.57489518310E+02  0.17691203633E+02  0.60206106241E+02  0.25000984370E+00 0.  0.
        -13    1    4    4    0    0 -0.25144852728E+01  0.13624458682E+02 -0.36466034614E+01  0.14326801889E+02  0.10500000000E+00 0. -1.
         13    1    4    4    0    0 -0.31274404639E+01  0.17780311755E+02 -0.47468846396E+01  0.18667198739E+02  0.10500000000E+00 0.  1.
    3000001    1    5    5    0    0 -0.11298733508E+01 -0.16952990166E+01 -0.33360845608E+00  0.22938934470E+01  0.10000000000E+01 0. -1.
        -13    1    6    6    0    0  0.19534670492E+01 -0.43778300536E+02  0.13462788774E+02  0.45843356530E+02  0.10500000000E+00 0. -1.
         13    1    6    6    0    0  0.63290535921E+00 -0.13711217774E+02  0.42284148592E+01  0.14362749711E+02  0.10500000000E+00 0.  1.
</event>
<event>
11    0  0.3483054E-009  0.9118800E+02  0.7816531E-02  0.1126479E+00
         25   -1    0    0    0    0  0.00000000000E+00  0.00000000000E+00  0.99999998245E-14  0.12500000000E+03  0.12500000000E+03 0.  0.
    3000001    1    3    3    0    0 -0.22019777787E+01 -0.11127537936E+02 -0.29537426518E+01  0.11764157526E+02  0.10000000000E+01 0.  1.
    1000022    2    1    0    0    0  0.82097818285E+01 -0.58130517833E+02 -0.18965561081E+02  0.62499999930E+02  0.99999931462E+01 0.  0.
    3000022    2    3    3    0    0  0.10411759607E+02 -0.47002979897E+02 -0.16011818430E+02  0.50735842404E+02  0.25003532263E+00 0.  0.
    1000022    2    1    0    0    0 -0.82097818285E+01  0.58130517833E+02  0.18965561081E+02  0.62500000070E+02  0.99999940240E+01 0.  0.
    3000022    2    5    5    0    0 -0.19603073597E+01  0.22485228950E+02  0.24386710370E+01  0.22703258430E+02  0.25000203556E+00 0.  0.
        -13    1    4    4    0    0  0.61979195009E+01 -0.28162290894E+02 -0.95386622372E+01  0.30373112070E+02  0.10500000000E+00 0.  1.
         13    1    4    4    0    0  0.42138401063E+01 -0.18840689003E+02 -0.64731561925E+01  0.20362730334E+02  0.10500000000E+00 0. -1.
    3000001    1    5    5    0    0 -0.62494744689E+01  0.35645288882E+02  0.16526890045E+02  0.39796741640E+02  0.10000000000E+01 0. -1.
        -13    1    6    6    0    0 -0.52778754457E+00  0.61204889599E+01  0.70040821536E+00  0.61838937142E+01  0.10500000000E+00 0. -1.
         13    1    6    6    0    0 -0.14325198151E+01  0.16364739990E+02  0.17382628216E+01  0.16519364716E+02  0.10500000000E+00 0.  1.
</event>
<event>
11    0  0.3483054E-009  0.9118800E+02  0.7816531E-02  0.1126479E+00
         25   -1    0    0    0    0  0.00000000000E+00  0.00000000000E+00  0.99999998245E-14  0.12500000000E+03  0.12500000000E+03 0.  0.
    3000001    1    3    3    0    0 -0.11884421863E+02 -0.74009771719E+01 -0.35402937270E+01  0.14475759939E+02  0.10000000000E+01 0.  1.
    1000022    2    1    0    0    0 -0.44678797150E+02 -0.42469216315E+02 -0.25339445237E+01  0.62500000243E+02  0.99999953194E+01 0.  0.
    3000022    2    3    3    0    0 -0.32794375287E+02 -0.35068239143E+02  0.10063492033E+01  0.48024240305E+02  0.24994218664E+00 0.  0.
    1000022    2    1    0    0    0  0.44678797150E+02  0.42469216315E+02  0.25339445237E+01  0.62499999757E+02  0.99999922805E+01 0.  0.
    3000022    2    5    5    0    0  0.33245630313E+02  0.26233900116E+02 -0.70198965691E+00  0.42356165315E+02  0.25000107170E+00 0.  0.
        -13    1    4    4    0    0 -0.13501909347E+02 -0.14531641344E+02  0.40955310289E+00  0.19840587565E+02  0.10500000000E+00 0.  1.
         13    1    4    4    0    0 -0.19292465940E+02 -0.20536597798E+02  0.59679610040E+00  0.28183652739E+02  0.10500000000E+00 0. -1.
    3000001    1    5    5    0    0  0.11433166838E+02  0.16235316199E+02  0.32359341806E+01  0.20143834442E+02  0.10000000000E+01 0.  1.
        -13    1    6    6    0    0  0.10279260363E+02  0.81636305297E+01 -0.19199655056E+00  0.13128440300E+02  0.10500000000E+00 0.  1.
         13    1    6    6    0    0  0.22966369949E+02  0.18070269586E+02 -0.50999310635E+00  0.29227725015E+02  0.10500000000E+00 0. -1.
</event>
<event>
11    0  0.3483054E-009  0.9118800E+02  0.7816531E-02  0.1126479E+00
         25   -1    0    0    0    0  0.00000000000E+00  0.00000000000E+00  0.99999998245E-14  0.12500000000E+03  0.12500000000E+03 0.  0.
    3000001    1    3    3    0    0  0.36113979811E+01 -0.25206886598E+02  0.93110123462E+00  0.25500907374E+02  0.10000000000E+01 0.  1.
    1000022    2    1    0    0    0  0.59760561985E+01 -0.59866081895E+02  0.13659762658E+02  0.62499998554E+02  0.99999847130E+01 0.  0.
    3000022    2    3    3    0    0  0.23646582174E+01 -0.34659195297E+02  0.12728661423E+02  0.36999091181E+02  0.24999895397E+00 0.  0.
    1000022    2    1    0    0    0 -0.59760561985E+01  0.59866081895E+02 -0.13659762658E+02  0.62500001446E+02  0.10000002783E+02 0.  0.
    3000022    2    5    5    0    0 -0.57354262327E+01  0.52298928943E+02 -0.85293526179E+01  0.53299957219E+02  0.25000175321E+00 0.  0.
        -13    1    4    4    0    0  0.18057022974E+01 -0.26508850778E+02  0.97198191447E+01  0.28292501473E+02  0.10500000000E+00 0. -1.
         13    1    4    4    0    0  0.55895592004E+00 -0.81503445183E+01  0.30088422788E+01  0.87065897081E+01  0.10500000000E+00 0.  1.
    3000001    1    5    5    0    0 -0.24062996577E+00  0.75671529524E+01 -0.51304100402E+01  0.92000442263E+01  0.10000000000E+01 0.  1.
        -13    1    6    6    0    0 -0.43416315741E+01  0.39762419577E+02 -0.64878783838E+01  0.40521640715E+02  0.10500000000E+00 0.  1.
         13    1    6    6    0    0 -0.13937946586E+01  0.12536509366E+02 -0.20414742340E+01  0.12778316504E+02  0.10500000000E+00 0. -1.
</event>
<event>
11    0  0.3483054E-009  0.9118800E+02  0.7816531E-02  0.1126479E+00
         25   -1    0    0    0    0  0.00000000000E+00  0.00000000000E+00  0.99999998245E-14  0.12500000000E+03  0.12500000000E+03 0.  0.
    3000001    1    3    3    0    0  0.50915430747E+02 -0.22769151524E+02 -0.19065377601E+02  0.58951708816E+02  0.10000000000E+01 0. -1.
    1000022    2    1    0    0    0  0.52308567899E+02 -0.25885939216E+02 -0.19999548186E+02  0.62499999773E+02  0.99999959594E+01 0.  0.
    3000022    2    3    3    0    0  0.13931371525E+01 -0.31167876923E+01 -0.93417058477E+00  0.35482909569E+01  0.24999477769E+00 0.  0.
    1000022    2    1    0    0    0 -0.52308567899E+02  0.25885939216E+02  0.19999548186E+02  0.62500000227E+02  0.99999988007E+01 0.  0.
    3000022    2    5    5    0    0 -0.18719417192E+01 -0.31056762341E+00 -0.65199462951E+00  0.20219343549E+01  0.25000697978E+00 0.  0.
        -13    1    4    4    0    0  0.76021161754E+00 -0.16136392672E+01 -0.54746151487E+00  0.18688211521E+01  0.10500000000E+00 0.  1.
         13    1    4    4    0    0  0.63292553496E+00 -0.15031484250E+01 -0.38670906990E+00  0.16794698048E+01  0.10500000000E+00 0. -1.
    3000001    1    5    5    0    0 -0.50436626180E+02  0.26196506840E+02  0.20651542815E+02  0.60478065872E+02  0.10000000000E+01 0. -1.
        -13    1    6    6    0    0 -0.11112030093E+01 -0.23801532229E+00 -0.35227147835E+00  0.11943800132E+01  0.10500000000E+00 0.  1.
         13    1    6    6    0    0 -0.76073870986E+00 -0.72552301113E-01 -0.29972315116E+00  0.82755434167E+00  0.10500000000E+00 0. -1.
</event>
<event>
11    0  0.3483054E-009  0.9118800E+02  0.7816531E-02  0.1126479E+00
         25   -1    0    0    0    0  0.00000000000E+00  0.00000000000E+00  0.99999998245E-14  0.12500000000E+03  0.12500000000E+03 0.  0.
    3000001    1    3    3    0    0 -0.19136382280E+02 -0.25474904055E+02  0.22409063409E+02  0.38965856673E+02  0.10000000000E+01 0. -1.
    1000022    2    1    0    0    0 -0.35839315633E+02 -0.40071928379E+02  0.30266053927E+02  0.62500000021E+02  0.99999996663E+01 0.  0.
    3000022    2    3    3    0    0 -0.16702933352E+02 -0.14597024324E+02  0.78569905177E+01  0.23534143348E+02  0.25000289836E+00 0.  0.
    1000022    2    1    0    0    0  0.35839315633E+02  0.40071928379E+02 -0.30266053927E+02  0.62499999979E+02  0.99999994003E+01 0.  0.
    3000022    2    5    5    0    0  0.23046487498E+02  0.28009147016E+02 -0.15220431425E+02  0.39336712164E+02  0.24997717164E+00 0.  0.
        -13    1    4    4    0    0 -0.44100052697E+01 -0.38131550049E+01  0.20526511176E+01  0.61816421104E+01  0.10500000000E+00 0. -1.
         13    1    4    4    0    0 -0.12292928083E+02 -0.10783869319E+02  0.58043394001E+01  0.17352501238E+02  0.10500000000E+00 0.  1.
    3000001    1    5    5    0    0  0.12792828135E+02  0.12062781363E+02 -0.15045622502E+02  0.23163287814E+02  0.10000000000E+01 0.  1.
        -13    1    6    6    0    0  0.15504717033E+02  0.18800191102E+02 -0.10177067578E+02  0.26408846344E+02  0.10500000000E+00 0.  1.
         13    1    6    6    0    0  0.75417704642E+01  0.92089559146E+01 -0.50433638471E+01  0.12927865820E+02  0.10500000000E+00 0. -1.
</event>
<event>
11    0  0.3483054E-009  0.9118800E+02  0.7816531E-02  0.1126479E+00
         25   -1    0    0    0    0  0.00000000000E+00  0.00000000000E+00  0.99999998245E-14  0.12500000000E+03  0.12500000000E+03 0.  0.
    3000001    1    3    3    0    0  0.80518284901E+00 -0.10715407942E+02 -0.23952644069E+02  0.26271609100E+02  0.10000000000E+01 0. -1.
    1000022    2    1    0    0    0  0.65433161708E+01 -0.34222399807E+02 -0.50914265303E+02  0.62500000782E+02  0.10000002564E+02 0.  0.
    3000022    2    3    3    0    0  0.57381333218E+01 -0.23506991865E+02 -0.26961621234E+02  0.36228391682E+02  0.25000747739E+00 0.  0.
    1000022    2    1    0    0    0 -0.65433161708E+01  0.34222399807E+02  0.50914265303E+02  0.62499999218E+02  0.99999927899E+01 0.  0.
    3000022    2    5    5    0    0 -0.35394129945E+01  0.82822472826E+01  0.70471686956E+01  0.11438887674E+02  0.25000040723E+00 0.  0.
        -13    1    4    4    0    0  0.13865819575E+01 -0.57089015926E+01 -0.65160917464E+01  0.87740893298E+01  0.10500000000E+00 0. -1.
         13    1    4    4    0    0  0.43515513643E+01 -0.17798090272E+02 -0.20445529487E+02  0.27454302352E+02  0.10500000000E+00 0.  1.
    3000001    1    5    5    0    0 -0.30039031763E+01  0.25940152525E+02  0.43867096608E+02  0.51061111544E+02  0.10000000000E+01 0.  1.
        -13    1    6    6    0    0 -0.22571977090E+01  0.51493210368E+01  0.44367694357E+01  0.71628483624E+01  0.10500000000E+00 0. -1.
         13    1    6    6    0    0 -0.12822152855E+01  0.31329262458E+01  0.26103992599E+01  0.42760393118E+01  0.10500000000E+00 0.  1.
</event>
<event>
11    0  0.3483054E-009  0.9118800E+02  0.7816531E-02  0.1126479E+00
         25   -1    0    0    0    0  0.00000000000E+00  0.00000000000E+00  0.99999998245E-14  0.12500000000E+03  0.12500000000E+03 0.  0.
    3000001    1    3    3    0    0 -0.25086091989E+02  0.44164712673E+00  0.11492617178E+02  0.27614983488E+02  0.10000000000E+01 0. -1.
    1000022    2    1    0    0    0 -0.54372133668E+02  0.11822609074E+02  0.26648583114E+02  0.62499999431E+02  0.99999970981E+01 0.  0.
    3000022    2    3    3    0    0 -0.29286041680E+02  0.11380961948E+02  0.15155965936E+02  0.34885015943E+02  0.25000358284E+00 0.  0.
    1000022    2    1    0    0    0  0.54372133668E+02 -0.11822609074E+02 -0.26648583114E+02  0.62500000569E+02  0.10000004207E+02 0.  0.
    3000022    2    5    5    0    0  0.17544456678E+02  0.75017097043E+00 -0.94377768089E+01  0.19937523617E+02  0.25000058014E+00 0.  0.
        -13    1    4    4    0    0 -0.93878080769E+01  0.36572195999E+01  0.48043378198E+01  0.11162386957E+02  0.10500000000E+00 0. -1.
         13    1    4    4    0    0 -0.19898233603E+02  0.77237423476E+01  0.10351628116E+02  0.23722628986E+02  0.10500000000E+00 0.  1.
    3000001    1    5    5    0    0  0.36827676991E+02 -0.12572780045E+02 -0.17210806305E+02  0.42562476951E+02  0.10000000000E+01 0. -1.
        -13    1    6    6    0    0  0.71468631186E+01  0.24179890822E+00 -0.38425547510E+01  0.81186434311E+01  0.10500000000E+00 0. -1.
         13    1    6    6    0    0  0.10397593559E+02  0.50837206221E+00 -0.55952220579E+01  0.11818880186E+02  0.10500000000E+00 0.  1.
</event>
<event>
11    0  0.3483054E-009  0.9118800E+02  0.7816531E-02  0.1126479E+00
         25   -1    0    0    0    0  0.00000000000E+00  0.00000000000E+00  0.99999998245E-14  0.12500000000E+03  0.12500000000E+03 0.  0.
    3000001    1    3    3    0    0 -0.14329662761E+02  0.22257814904E+02  0.22050284390E+02  0.34466862358E+02  0.10000000000E+01 0. -1.
    1000022    2    1    0    0    0 -0.22446555214E+02  0.46177572801E+02  0.34205758838E+02  0.62500000373E+02  0.10000001912E+02 0.  0.
    3000022    2    3    3    0    0 -0.81168924531E+01  0.23919757896E+02  0.12155474448E+02  0.28033138015E+02  0.25001397196E+00 0.  0.
    1000022    2    1    0    0    0  0.22446555214E+02 -0.46177572801E+02 -0.34205758838E+02  0.62499999627E+02  0.99999972452E+01 0.  0.
    3000022    2    5    5    0    0  0.65371901394E+01 -0.11683440742E+02 -0.40513111244E+01  0.13989755755E+02  0.25000353979E+00 0.  0.
        -13    1    4    4    0    0 -0.45343406872E+01  0.13170515265E+02  0.67309973496E+01  0.15470619513E+02  0.10500000000E+00 0.  1.
         13    1    4    4    0    0 -0.35825517658E+01  0.10749242632E+02  0.54244770988E+01  0.12562518502E+02  0.10500000000E+00 0. -1.
    3000001    1    5    5    0    0  0.15909365075E+02 -0.34494132058E+02 -0.30154447714E+02  0.48510243871E+02  0.10000000000E+01 0. -1.
        -13    1    6    6    0    0  0.41257000190E+01 -0.74740217712E+01 -0.26163726486E+01  0.89296602914E+01  0.10500000000E+00 0.  1.
         13    1    6    6    0    0  0.24114901204E+01 -0.42094189711E+01 -0.14349384759E+01  0.50600954640E+01  0.10500000000E+00 0. -1.
</event>
<event>
11    0  0.3483054E-009  0.9118800E+02  0.7816531E-02  0.1126479E+00
         25   -1    0    0    0    0  0.00000000000E+00  0.00000000000E+00  0.99999998245E-14  0.12500000000E+03  0.12500000000E+03 0.  0.
    3000001    1    3    3    0    0  0.10334747628E+02  0.51314419327E+02  0.16761526798E+02  0.54972042167E+02  0.10000000000E+01 0. -1.
    1000022    2    1    0    0    0  0.13738158964E+02  0.57980340912E+02  0.15993508921E+02  0.62499994804E+02  0.10000003947E+02 0.  0.
    3000022    2    3    3    0    0  0.34034113360E+01  0.66659215855E+01 -0.76801787770E+00  0.75279526376E+01  0.25000029480E+00 0.  0.
    1000022    2    1    0    0    0 -0.13738158964E+02 -0.57980340912E+02 -0.15993508921E+02  0.62500005196E+02  0.10000068892E+02 0.  0.
    3000022    2    5    5    0    0  0.99440338951E+00 -0.11377512089E+02 -0.45199555070E+01  0.12285321330E+02  0.25000590593E+00 0.  0.
        -13    1    4    4    0    0  0.10525245311E+01  0.19921475823E+01 -0.19749598006E+00  0.22641752451E+01  0.10500000000E+00 0. -1.
         13    1    4    4    0    0  0.23508868049E+01  0.46737740032E+01 -0.57052189764E+00  0.52637773925E+01  0.10500000000E+00 0.  1.
    3000001    1    5    5    0    0 -0.14732562353E+02 -0.46602828823E+02 -0.11473553414E+02  0.50214683866E+02  0.10000000000E+01 0. -1.
        -13    1    6    6    0    0  0.69155585458E+00 -0.73181864568E+01 -0.28816840819E+01  0.78961529028E+01  0.10500000000E+00 0.  1.
         13    1    6    6    0    0  0.30284753492E+00 -0.40593256319E+01 -0.16382714252E+01  0.43891684267E+01  0.10500000000E+00 0. -1.
</event>
<event>
11    0  0.3483054E-009  0.9118800E+02  0.7816531E-02  0.1126479E+00
         25   -1    0    0    0    0  0.00000000000E+00  0.00000000000E+00  0.99999998245E-14  0.12500000000E+03  0.12500000000E+03 0.  0.
    3000001    1    3    3    0    0 -0.50334328379E+01  0.18203292302E+02 -0.12711092555E+02  0.22787434492E+02  0.10000000000E+01 0. -1.
    1000022    2    1    0    0    0 -0.25183940134E+02  0.43655381477E+02 -0.35584087089E+02  0.62500003854E+02  0.10000002761E+02 0.  0.
    3000022    2    3    3    0    0 -0.20150507296E+02  0.25452089175E+02 -0.22872994534E+02  0.39712569362E+02  0.24999751598E+00 0.  0.
    1000022    2    1    0    0    0  0.25183940134E+02 -0.43655381477E+02  0.35584087089E+02  0.62499996146E+02  0.99999545831E+01 0.  0.
    3000022    2    5    5    0    0  0.48122986059E+01 -0.17054166904E+02  0.10152732986E+02  0.20424086568E+02  0.24999674560E+00 0.  0.
        -13    1    4    4    0    0 -0.92230852434E+01  0.11633521413E+02 -0.10379322821E+02  0.18114786476E+02  0.10500000000E+00 0.  1.
         13    1    4    4    0    0 -0.10927422052E+02  0.13818567762E+02 -0.12493671713E+02  0.21597782886E+02  0.10500000000E+00 0. -1.
    3000001    1    5    5    0    0  0.20371641528E+02 -0.26601214573E+02  0.25431354103E+02  0.42075909578E+02  0.10000000000E+01 0. -1.
        -13    1    6    6    0    0  0.36638575801E+01 -0.12944902456E+02  0.77271167524E+01  0.15514951185E+02  0.10500000000E+00 0. -1.
         13    1    6    6    0    0  0.11484410259E+01 -0.41092644477E+01  0.24256162336E+01  0.49091353825E+01  0.10500000000E+00 0.  1.
</event>
<event>
11    0  0.3483054E-009  0.9118800E+02  0.7816531E-02  0.1126479E+00
         25   -1    0    0    0    0  0.00000000000E+00  0.00000000000E+00  0.99999998245E-14  0.12500000000E+03  0.12500000000E+03 0.  0.
    3000001    1    3    3    0    0 -0.29993679389E+02 -0.11597622636E+02 -0.75170206270E+01  0.33039843420E+02  0.10000000000E+01 0.  1.
    1000022    2    1    0    0    0 -0.55002970346E+02 -0.27141890454E+02 -0.66513787448E+01  0.62499998473E+02  0.10000000280E+02 0.  0.
    3000022    2    3    3    0    0 -0.25009290957E+02 -0.15544267818E+02  0.86564188226E+00  0.29460155053E+02  0.25000742111E+00 0.  0.
    1000022    2    1    0    0    0  0.55002970346E+02  0.27141890454E+02  0.66513787448E+01  0.62500001527E+02  0.10000019363E+02 0.  0.
    3000022    2    5    5    0    0  0.20238605200E+02  0.49750949195E+01  0.93684838324E+00  0.20863674052E+02  0.25000032186E+00 0.  0.
        -13    1    4    4    0    0 -0.58596377017E+01 -0.36514172488E+01  0.19156348298E+00  0.69076713506E+01  0.10500000000E+00 0.  1.
         13    1    4    4    0    0 -0.19149653255E+02 -0.11892850570E+02  0.67407839928E+00  0.22552483703E+02  0.10500000000E+00 0. -1.
    3000001    1    5    5    0    0  0.34764365147E+02  0.22166795535E+02  0.57145303615E+01  0.41636327475E+02  0.10000000000E+01 0.  1.
        -13    1    6    6    0    0  0.59609248282E+01  0.15060278491E+01  0.25608760525E+00  0.61544577788E+01  0.10500000000E+00 0.  1.
         13    1    6    6    0    0  0.14277680372E+02  0.34690670704E+01  0.68076077799E+00  0.14709216273E+02  0.10500000000E+00 0. -1.
</event>
<event>
11    0  0.3483054E-009  0.9118800E+02  0.7816531E-02  0.1126479E+00
         25   -1    0    0    0    0  0.00000000000E+00  0.00000000000E+00  0.99999998245E-14  0.12500000000E+03  0.12500000000E+03 0.  0.
    3000001    1    3    3    0    0  0.16821271817E+01 -0.44524415012E+01 -0.11021871999E+01  0.49868430695E+01  0.10000000000E+01 0. -1.
    1000022    2    1    0    0    0  0.11483001526E+02 -0.58372999794E+02  0.16339630407E+02  0.62500000224E+02  0.10000003863E+02 0.  0.
    3000022    2    3    3    0    0  0.98008743442E+01 -0.53920558292E+02  0.17441817607E+02  0.57513157155E+02  0.25000001050E+00 0.  0.
    1000022    2    1    0    0    0 -0.11483001526E+02  0.58372999794E+02 -0.16339630407E+02  0.62499999776E+02  0.10000001059E+02 0.  0.
    3000022    2    5    5    0    0 -0.75652282642E+01  0.52044294775E+02 -0.16041720832E+02  0.54984003191E+02  0.25000472883E+00 0.  0.
        -13    1    4    4    0    0  0.43173272110E+01 -0.24047175113E+02  0.78179932483E+01  0.25652251141E+02  0.10500000000E+00 0.  1.
         13    1    4    4    0    0  0.54835471332E+01 -0.29873383179E+02  0.96238243588E+01  0.31860906014E+02  0.10500000000E+00 0. -1.
    3000001    1    5    5    0    0 -0.39177732617E+01  0.63287050186E+01 -0.29790957496E+00  0.75159965845E+01  0.10000000000E+01 0. -1.
        -13    1    6    6    0    0 -0.52848680113E+01  0.36027716635E+02 -0.11114088309E+02  0.38071776683E+02  0.10500000000E+00 0.  1.
         13    1    6    6    0    0 -0.22803602529E+01  0.16016578139E+02 -0.49276325236E+01  0.16912226508E+02  0.10500000000E+00 0. -1.
</event>
<event>
11    0  0.3483054E-009  0.9118800E+02  0.7816531E-02  0.1126479E+00
         25   -1    0    0    0    0  0.00000000000E+00  0.00000000000E+00  0.99999998245E-14  0.12500000000E+03  0.12500000000E+03 0.  0.
    3000001    1    3    3    0    0  0.93535854053E+01  0.16993078745E+00 -0.23746055718E+01  0.97034626824E+01  0.10000000000E+01 0. -1.
    1000022    2    1    0    0    0  0.59563203934E+02 -0.16063063770E+02 -0.67286869626E+00  0.62499999619E+02  0.99999959768E+01 0.  0.
    3000022    2    3    3    0    0  0.50209618529E+02 -0.16232994557E+02  0.17017368756E+01  0.52796536936E+02  0.24999802516E+00 0.  0.
    1000022    2    1    0    0    0 -0.59563203934E+02  0.16063063770E+02  0.67286869626E+00  0.62500000381E+02  0.10000000741E+02 0.  0.
    3000022    2    5    5    0    0 -0.58063714321E+02  0.15432918562E+02 -0.80487989406E+00  0.60085607501E+02  0.25000213736E+00 0.  0.
        -13    1    4    4    0    0  0.28866992376E+02 -0.93627787584E+01  0.10373129565E+01  0.30365307805E+02  0.10500000000E+00 0.  1.
         13    1    4    4    0    0  0.21342626152E+02 -0.68702157986E+01  0.66442391905E+00  0.22431229131E+02  0.10500000000E+00 0. -1.
    3000001    1    5    5    0    0 -0.14994896128E+01  0.63014520774E+00  0.14777485903E+01  0.24143928798E+01  0.10000000000E+01 0.  1.
        -13    1    6    6    0    0 -0.38091251066E+02  0.10172928493E+02 -0.55774224955E+00  0.39430368795E+02  0.10500000000E+00 0. -1.
         13    1    6    6    0    0 -0.19972463255E+02  0.52599900689E+01 -0.24713764451E+00  0.20655238706E+02  0.10500000000E+00 0.  1.
</event>
<event>
11    0  0.3483054E-009  0.9118800E+02  0.7816531E-02  0.1126479E+00
         25   -1    0    0    0    0  0.00000000000E+00  0.00000000000E+00  0.99999998245E-14  0.12500000000E+03  0.12500000000E+03 0.  0.
    3000001    1    3    3    0    0  0.27669516009E+02 -0.17297893933E+02  0.16459680910E+02  0.36561459850E+02  0.10000000000E+01 0.  1.
    1000022    2    1    0    0    0  0.50380421216E+02 -0.29193325317E+02  0.20391478880E+02  0.62500003386E+02  0.10000046365E+02 0.  0.
    3000022    2    3    3    0    0  0.22710905207E+02 -0.11895431385E+02  0.39317979706E+01  0.25938543536E+02  0.25000469759E+00 0.  0.
    1000022    2    1    0    0    0 -0.50380421216E+02  0.29193325317E+02 -0.20391478880E+02  0.62499996614E+02  0.10000004045E+02 0.  0.
    3000022    2    5    5    0    0 -0.18085939852E+02  0.14523333865E+02 -0.45442040602E+01  0.23637697468E+02  0.25000825952E+00 0.  0.
        -13    1    4    4    0    0  0.94730220771E+01 -0.49206651510E+01  0.16910220804E+01  0.10808407537E+02  0.10500000000E+00 0.  1.
         13    1    4    4    0    0  0.13237883129E+02 -0.69747662338E+01  0.22407758902E+01  0.15130135999E+02  0.10500000000E+00 0. -1.
    3000001    1    5    5    0    0 -0.32294481364E+02  0.14669991452E+02 -0.15847274820E+02  0.38862299147E+02  0.10000000000E+01 0.  1.
        -13    1    6    6    0    0 -0.74880587117E+01  0.60610571093E+01 -0.19408066041E+01  0.98277765454E+01  0.10500000000E+00 0. -1.
         13    1    6    6    0    0 -0.10597881140E+02  0.84622767560E+01 -0.26033974561E+01  0.13809920922E+02  0.10500000000E+00 0.  1.
</event>
<event>
11    0  0.3483054E-009  0.9118800E+02  0.7816531E-02  0.1126479E+00
         25   -1    0    0    0    0  0.00000000000E+00  0.00000000000E+00  0.99999998245E-14  0.12500000000E+03  0.12500000000E+03 0.  0.
    3000001    1    3    3    0    0  0.17837875991E+02 -0.93514740012E+00 -0.36005387737E+02  0.40205127367E+02  0.10000000000E+01 0. -1.
    1000022    2    1    0    0    0  0.20746177710E+02 -0.26546155544E+01 -0.58041359266E+02  0.62499999693E+02  0.99999851455E+01 0.  0.
    3000022    2    3    3    0    0  0.29083017184E+01 -0.17194681543E+01 -0.22035971529E+02  0.22294872326E+02  0.25000235951E+00 0.  0.
    1000022    2    1    0    0    0 -0.20746177710E+02  0.26546155544E+01  0.58041359266E+02  0.62500000307E+02  0.99999889852E+01 0.  0.
    3000022    2    5    5    0    0 -0.81553454624E+01 -0.37884018862E+01  0.23348977707E+02  0.25021968493E+02  0.24999773802E+00 0.  0.
        -13    1    4    4    0    0  0.75742602906E+00 -0.47698485390E+00 -0.57122484262E+01  0.57829072121E+01  0.10500000000E+00 0.  1.
         13    1    4    4    0    0  0.21508756894E+01 -0.12424833004E+01 -0.16323723103E+02  0.16511965114E+02  0.10500000000E+00 0. -1.
    3000001    1    5    5    0    0 -0.12590832247E+02  0.64430174406E+01  0.34692381559E+02  0.37478031814E+02  0.10000000000E+01 0.  1.
        -13    1    6    6    0    0 -0.27194795712E+01 -0.13111607183E+01  0.79304787781E+01  0.84863555321E+01  0.10500000000E+00 0.  1.
         13    1    6    6    0    0 -0.54358658912E+01 -0.24772411679E+01  0.15418498928E+02  0.16535612961E+02  0.10500000000E+00 0. -1.
</event>
<event>
11    0  0.3483054E-009  0.9118800E+02  0.7816531E-02  0.1126479E+00
         25   -1    0    0    0    0  0.00000000000E+00  0.00000000000E+00  0.99999998245E-14  0.12500000000E+03  0.12500000000E+03 0.  0.
    3000001    1    3    3    0    0  0.33336181159E+01 -0.99414182308E+00  0.66981173704E+01  0.76135474001E+01  0.10000000000E+01 0.  1.
    1000022    2    1    0    0    0  0.37106470276E+02 -0.27396280826E+02  0.40973205874E+02  0.62500000006E+02  0.10000003089E+02 0.  0.
    3000022    2    3    3    0    0  0.33772852160E+02 -0.26402139003E+02  0.34275088503E+02  0.54886452606E+02  0.25000165409E+00 0.  0.
    1000022    2    1    0    0    0 -0.37106470276E+02  0.27396280826E+02 -0.40973205874E+02  0.62499999994E+02  0.10000003009E+02 0.  0.
    3000022    2    5    5    0    0 -0.30011487245E+01 -0.24317345451E+00 -0.44860883465E+01  0.54086509422E+01  0.24997873153E+00 0.  0.
        -13    1    4    4    0    0  0.20052936728E+02 -0.15662004867E+02  0.20424081447E+02  0.32627791771E+02  0.10500000000E+00 0.  1.
         13    1    4    4    0    0  0.13719915432E+02 -0.10740134136E+02  0.13851007056E+02  0.22258660835E+02  0.10500000000E+00 0. -1.
    3000001    1    5    5    0    0 -0.34105321551E+02  0.27639454281E+02 -0.36487117527E+02  0.57091349051E+02  0.10000000000E+01 0. -1.
        -13    1    6    6    0    0 -0.87889869599E+00 -0.31772947630E-01 -0.12813777847E+01  0.15576990933E+01  0.10500000000E+00 0.  1.
         13    1    6    6    0    0 -0.21222500285E+01 -0.21140050688E+00 -0.32047105618E+01  0.38509518489E+01  0.10500000000E+00 0. -1.
</event>
<event>
11    0  0.3483054E-009  0.9118800E+02  0.7816531E-02  0.1126479E+00
         25   -1    0    0    0    0  0.00000000000E+00  0.00000000000E+00  0.99999998245E-14  0.12500000000E+03  0.12500000000E+03 0.  0.
    3000001    1    3    3    0    0 -0.46090564865E+01  0.13899225992E+02  0.16760937197E+01  0.14772988020E+02  0.10000000000E+01 0. -1.
    1000022    2    1    0    0    0 -0.71901367771E+01  0.58047333259E+02  0.19622910357E+02  0.62500004266E+02  0.10000047852E+02 0.  0.
    3000022    2    3    3    0    0 -0.25810802906E+01  0.44148107267E+02  0.17946816637E+02  0.47727016246E+02  0.25000332738E+00 0.  0.
    1000022    2    1    0    0    0  0.71901367771E+01 -0.58047333259E+02 -0.19622910357E+02  0.62499995734E+02  0.99999945259E+01 0.  0.
    3000022    2    5    5    0    0  0.12155385031E+00 -0.12969208132E+02 -0.85488666324E+01  0.15535789427E+02  0.24999506782E+00 0.  0.
        -13    1    4    4    0    0 -0.95095078966E+00  0.15370521670E+02  0.62720864520E+01  0.16628509773E+02  0.10500000000E+00 0. -1.
         13    1    4    4    0    0 -0.16301295010E+01  0.28777585597E+02  0.11674730185E+02  0.31098506473E+02  0.10500000000E+00 0.  1.
    3000001    1    5    5    0    0  0.70685829268E+01 -0.45078125127E+02 -0.11074043724E+02  0.46964206307E+02  0.10000000000E+01 0.  1.
        -13    1    6    6    0    0  0.63656457083E-01 -0.95777611004E+01 -0.62895541234E+01  0.11458929964E+02  0.10500000000E+00 0.  1.
         13    1    6    6    0    0  0.57897393230E-01 -0.33914470312E+01 -0.22593125090E+01  0.40768594637E+01  0.10500000000E+00 0. -1.
</event>
<event>
11    0  0.3483054E-009  0.9118800E+02  0.7816531E-02  0.1126479E+00
         25   -1    0    0    0    0  0.00000000000E+00  0.00000000000E+00  0.99999998245E-14  0.12500000000E+03  0.12500000000E+03 0.  0.
    3000001    1    3    3    0    0  0.65463479277E+01  0.15044612676E+01  0.18441081923E+02  0.19651757616E+02  0.10000000000E+01 0.  1.
    1000022    2    1    0    0    0  0.28091000437E+02  0.15807284857E+02  0.52604898374E+02  0.62499997576E+02  0.99999901953E+01 0.  0.
    3000022    2    3    3    0    0  0.21544652510E+02  0.14302823590E+02  0.34163816451E+02  0.42848239960E+02  0.24999755641E+00 0.  0.
    1000022    2    1    0    0    0 -0.28091000437E+02 -0.15807284857E+02 -0.52604898374E+02  0.62500002424E+02  0.10000020497E+02 0.  0.
    3000022    2    5    5    0    0 -0.23358035141E+02 -0.12914194693E+02 -0.35009810073E+02  0.44024124542E+02  0.25002025694E+00 0.  0.
        -13    1    4    4    0    0  0.10095516475E+02  0.66213852160E+01  0.15954840592E+02  0.20008252257E+02  0.10500000000E+00 0.  1.
         13    1    4    4    0    0  0.11449136035E+02  0.76814383737E+01  0.18208975859E+02  0.22839987703E+02  0.10500000000E+00 0. -1.
    3000001    1    5    5    0    0 -0.47329652965E+01 -0.28930901641E+01 -0.17595088301E+02  0.18475877882E+02  0.10000000000E+01 0. -1.
        -13    1    6    6    0    0 -0.89004520648E+01 -0.49835945566E+01 -0.13336113638E+02  0.16790390515E+02  0.10500000000E+00 0. -1.
         13    1    6    6    0    0 -0.14457583076E+02 -0.79306001365E+01 -0.21673696435E+02  0.27233734028E+02  0.10500000000E+00 0.  1.
</event>
<event>
11    0  0.3483054E-009  0.9118800E+02  0.7816531E-02  0.1126479E+00
         25   -1    0    0    0    0  0.00000000000E+00  0.00000000000E+00  0.99999998245E-14  0.12500000000E+03  0.12500000000E+03 0.  0.
    3000001    1    3    3    0    0 -0.22456429147E+02  0.17061492925E+02 -0.81862828078E+01  0.29383685560E+02  0.10000000000E+01 0.  1.
    1000022    2    1    0    0    0 -0.43303139202E+02  0.34826318645E+02 -0.26799544154E+02  0.62500001020E+02  0.10000011280E+02 0.  0.
    3000022    2    3    3    0    0 -0.20846710054E+02  0.17764825720E+02 -0.18613261347E+02  0.33116315461E+02  0.24999754351E+00 0.  0.
    1000022    2    1    0    0    0  0.43303139202E+02 -0.34826318645E+02  0.26799544154E+02  0.62499998980E+02  0.99999985239E+01 0.  0.
    3000022    2    5    5    0    0  0.35241782571E+01 -0.76754044550E+00 -0.10483174734E+00  0.36169662033E+01  0.25000819359E+00 0.  0.
        -13    1    4    4    0    0 -0.74827202360E+01  0.63668416755E+01 -0.66075704700E+01  0.11840556894E+02  0.10500000000E+00 0.  1.
         13    1    4    4    0    0 -0.13363989818E+02  0.11397984045E+02 -0.12005690877E+02  0.21275758566E+02  0.10500000000E+00 0. -1.
    3000001    1    5    5    0    0  0.39778960945E+02 -0.34058778199E+02  0.26904375902E+02  0.58883032776E+02  0.10000000000E+01 0.  1.
        -13    1    6    6    0    0  0.26393117229E+01 -0.57801634271E+00 -0.10545860548E+00  0.27059593087E+01  0.10500000000E+00 0. -1.
         13    1    6    6    0    0  0.88486653427E+00 -0.18952410279E+00  0.62685814045E-03  0.91100689458E+00  0.10500000000E+00 0.  1.
</event>
<event>
11    0  0.3483054E-009  0.9118800E+02  0.7816531E-02  0.1126479E+00
         25   -1    0    0    0    0  0.00000000000E+00  0.00000000000E+00  0.99999998245E-14  0.12500000000E+03  0.12500000000E+03 0.  0.
    3000001    1    3    3    0    0  0.36491160026E+02 -0.29843835328E+02 -0.14089131844E+01  0.47172495201E+02  0.10000000000E+01 0. -1.
    1000022    2    1    0    0    0  0.50781727671E+02 -0.34826018784E+02 -0.38229192178E+01  0.62499999854E+02  0.99999910356E+01 0.  0.
    3000022    2    3    3    0    0  0.14290567646E+02 -0.49821834560E+01 -0.24140060334E+01  0.15327504653E+02  0.24999624754E+00 0.  0.
    1000022    2    1    0    0    0 -0.50781727671E+02  0.34826018784E+02  0.38229192178E+01  0.62500000146E+02  0.99999928622E+01 0.  0.
    3000022    2    5    5    0    0 -0.49178564299E+00 -0.45531945129E+00 -0.55358273591E+00  0.90450626642E+00  0.25001763763E+00 0.  0.
        -13    1    4    4    0    0  0.48233291798E+01 -0.16684426856E+01 -0.76069740184E+00  0.51611908421E+01  0.10500000000E+00 0.  1.
         13    1    4    4    0    0  0.94672384661E+01 -0.33137407704E+01 -0.16533086316E+01  0.10166313811E+02  0.10500000000E+00 0. -1.
    3000001    1    5    5    0    0 -0.50289942029E+02  0.35281338236E+02  0.43765019537E+01  0.61595493880E+02  0.10000000000E+01 0. -1.
        -13    1    6    6    0    0 -0.31808854824E+00 -0.33598992087E+00 -0.42098317577E+00  0.63428809363E+00  0.10500000000E+00 0. -1.
         13    1    6    6    0    0 -0.17369709476E+00 -0.11932953042E+00 -0.13259956014E+00  0.27021817279E+00  0.10500000000E+00 0.  1.
</event>
<event>
11    0  0.3483054E-009  0.9118800E+02  0.7816531E-02  0.1126479E+00
         25   -1    0    0    0    0  0.00000000000E+00  0.00000000000E+00  0.99999998245E-14  0.12500000000E+03  0.12500000000E+03 0.  0.
    3000001    1    3    3    0    0 -0.15825145749E+02  0.69506169952E+01 -0.42095524612E+01  0.17817593735E+02  0.10000000000E+01 0. -1.
    1000022    2    1    0    0    0 -0.51781143560E+02  0.33432710366E+02 -0.26864495562E+01  0.62499999560E+02  0.99999991501E+01 0.  0.
    3000022    2    3    3    0    0 -0.35955997811E+02  0.26482093371E+02  0.15231029051E+01  0.44682405825E+02  0.24999991864E+00 0.  0.
    1000022    2    1    0    0    0  0.51781143560E+02 -0.33432710366E+02  0.26864495562E+01  0.62500000440E+02  0.10000004654E+02 0.  0.
    3000022    2    5    5    0    0  0.32029086359E+02 -0.24782195860E+02 -0.14362201043E+01  0.40523386279E+02  0.25000537429E+00 0.  0.
        -13    1    4    4    0    0 -0.14201186582E+02  0.10528315871E+02  0.57395184436E+00  0.17687837096E+02  0.10500000000E+00 0. -1.
         13    1    4    4    0    0 -0.21754811229E+02  0.15953777500E+02  0.94915106070E+00  0.26994568729E+02  0.10500000000E+00 0.  1.
    3000001    1    5    5    0    0  0.19752057201E+02 -0.86505145059E+01  0.41226696604E+01  0.21976614162E+02  0.10000000000E+01 0.  1.
        -13    1    6    6    0    0  0.18800291692E+02 -0.14507263199E+02 -0.89849946618E+00  0.23764048046E+02  0.10500000000E+00 0. -1.
         13    1    6    6    0    0  0.13228794667E+02 -0.10274932661E+02 -0.53772063810E+00  0.16759338233E+02  0.10500000000E+00 0.  1.
</event>
<event>
11    0  0.3483054E-009  0.9118800E+02  0.7816531E-02  0.1126479E+00
         25   -1    0    0    0    0  0.00000000000E+00  0.00000000000E+00  0.99999998245E-14  0.12500000000E+03  0.12500000000E+03 0.  0.
    3000001    1    3    3    0    0 -0.33640811656E+02 -0.10855096910E+02  0.28701183595E+02  0.45544431905E+02  0.10000000000E+01 0. -1.
    1000022    2    1    0    0    0 -0.47022998442E+02 -0.19072463101E+02  0.35090292686E+02  0.62499998813E+02  0.99999989791E+01 0.  0.
    3000022    2    3    3    0    0 -0.13382186786E+02 -0.82173661910E+01  0.63891090912E+01  0.16955566908E+02  0.25000778663E+00 0.  0.
    1000022    2    1    0    0    0  0.47022998442E+02  0.19072463101E+02 -0.35090292686E+02  0.62500001187E+02  0.10000013821E+02 0.  0.
    3000022    2    5    5    0    0  0.96250571591E+01  0.27066293603E+01 -0.11882612965E+02  0.15531469975E+02  0.25000179519E+00 0.  0.
        -13    1    4    4    0    0 -0.47189280156E+01 -0.29131343420E+01  0.23164165372E+01  0.60109436767E+01  0.10500000000E+00 0.  1.
         13    1    4    4    0    0 -0.86632587702E+01 -0.53042318490E+01  0.40726925540E+01  0.10944623231E+02  0.10500000000E+00 0. -1.
    3000001    1    5    5    0    0  0.37397941283E+02  0.16365833741E+02 -0.23207679721E+02  0.46968531213E+02  0.10000000000E+01 0. -1.
        -13    1    6    6    0    0  0.46814407554E+01  0.13638792231E+01 -0.58725640775E+01  0.76337466506E+01  0.10500000000E+00 0. -1.
         13    1    6    6    0    0  0.49436164038E+01  0.13427501372E+01 -0.60100488872E+01  0.78977233242E+01  0.10500000000E+00 0.  1.
</event>
<event>
11    0  0.3483054E-009  0.9118800E+02  0.7816531E-02  0.1126479E+00
         25   -1    0    0    0    0  0.00000000000E+00  0.00000000000E+00  0.99999998245E-14  0.12500000000E+03  0.12500000000E+03 0.  0.
    3000001    1    3    3    0    0  0.33054965808E+02  0.57598253540E+01  0.11608859447E+02  0.35518614421E+02  0.10000000000E+01 0.  1.
    1000022    2    1    0    0    0  0.57528641024E+02  0.16656646138E+02  0.14807488162E+02  0.62500000750E+02  0.99999994724E+01 0.  0.
    3000022    2    3    3    0    0  0.24473675215E+02  0.10896820784E+02  0.31986287150E+01  0.26981386329E+02  0.25000168565E+00 0.  0.
    1000022    2    1    0    0    0 -0.57528641024E+02 -0.16656646138E+02 -0.14807488162E+02  0.62499999250E+02  0.99999901006E+01 0.  0.
    3000022    2    5    5    0    0 -0.42008275904E+02 -0.98179532262E+01 -0.14482974178E+02  0.45507213619E+02  0.25000065994E+00 0.  0.
        -13    1    4    4    0    0  0.63478371117E+01  0.28085934798E+01  0.80200444233E+00  0.69883810326E+01  0.10500000000E+00 0.  1.
         13    1    4    4    0    0  0.18125838104E+02  0.80882273040E+01  0.23966242727E+01  0.19993005296E+02  0.10500000000E+00 0. -1.
    3000001    1    5    5    0    0 -0.15520365120E+02 -0.68386929116E+01 -0.32451398393E+00  0.16992785631E+02  0.10000000000E+01 0.  1.
        -13    1    6    6    0    0 -0.21136224242E+02 -0.49543247881E+01 -0.73581064800E+01  0.22922435850E+02  0.10500000000E+00 0.  1.
         13    1    6    6    0    0 -0.20872051662E+02 -0.48636284382E+01 -0.71248676978E+01  0.22584777769E+02  0.10500000000E+00 0. -1.
</event>
<event>
11    0  0.3483054E-009  0.9118800E+02  0.7816531E-02  0.1126479E+00
         25   -1    0    0    0    0  0.00000000000E+00  0.00000000000E+00  0.99999998245E-14  0.12500000000E+03  0.12500000000E+03 0.  0.
    3000001    1    3    3    0    0  0.19210521519E+02 -0.14486581854E+02  0.20498258683E+02  0.31624101566E+02  0.10000000000E+01 0.  1.
    1000022    2    1    0    0    0  0.44657083515E+02 -0.25408829153E+02  0.34152399128E+02  0.62499999227E+02  0.99999915038E+01 0.  0.
    3000022    2    3    3    0    0  0.25446561997E+02 -0.10922247299E+02  0.13654140446E+02  0.30875897661E+02  0.25000305085E+00 0.  0.
    1000022    2    1    0    0    0 -0.44657083515E+02  0.25408829153E+02 -0.34152399128E+02  0.62500000773E+02  0.10000001172E+02 0.  0.
    3000022    2    5    5    0    0 -0.31569352558E+02  0.17814688387E+02 -0.29198964223E+02  0.46547063961E+02  0.25001684522E+00 0.  0.
        -13    1    4    4    0    0  0.68403582714E+01 -0.29092085693E+01  0.36936780843E+01  0.83011010457E+01  0.10500000000E+00 0.  1.
         13    1    4    4    0    0  0.18606203725E+02 -0.80130387295E+01  0.99604623614E+01  0.22574796615E+02  0.10500000000E+00 0. -1.
    3000001    1    5    5    0    0 -0.13087730958E+02  0.75941407653E+01 -0.49534349056E+01  0.15952936813E+02  0.10000000000E+01 0.  1.
        -13    1    6    6    0    0 -0.81711783359E+01  0.46009589574E+01 -0.75922115656E+01  0.12066054872E+02  0.10500000000E+00 0. -1.
         13    1    6    6    0    0 -0.23398174222E+02  0.13213729430E+02 -0.21606752657E+02  0.34481009088E+02  0.10500000000E+00 0.  1.
</event>
<event>
11    0  0.3483054E-009  0.9118800E+02  0.7816531E-02  0.1126479E+00
         25   -1    0    0    0    0  0.00000000000E+00  0.00000000000E+00  0.99999998245E-14  0.12500000000E+03  0.12500000000E+03 0.  0.
    3000001    1    3    3    0    0 -0.18777785031E+02 -0.21499737058E+02 -0.43204418360E+02  0.51792525234E+02  0.10000000000E+01 0. -1.
    1000022    2    1    0    0    0 -0.23249943430E+02 -0.29231650534E+02 -0.49103975857E+02  0.62499997822E+02  0.10000001015E+02 0.  0.
    3000022    2    3    3    0    0 -0.44721583993E+01 -0.77319134752E+01 -0.58995574969E+01  0.10707472588E+02  0.25000764471E+00 0.  0.
    1000022    2    1    0    0    0  0.23249943430E+02  0.29231650534E+02  0.49103975857E+02  0.62500002178E+02  0.10000028242E+02 0.  0.
    3000022    2    5    5    0    0  0.12704491613E+02  0.21251862440E+02  0.26314674355E+02  0.36132677039E+02  0.24999851215E+00 0.  0.
        -13    1    4    4    0    0 -0.25568515749E+01 -0.44956147566E+01 -0.34788795873E+01  0.62339129123E+01  0.10500000000E+00 0.  1.
         13    1    4    4    0    0 -0.19153068244E+01 -0.32362987186E+01 -0.24206779096E+01  0.44735596754E+01  0.10500000000E+00 0. -1.
    3000001    1    5    5    0    0  0.10545451818E+02  0.79797880936E+01  0.22789301502E+02  0.26367325140E+02  0.10000000000E+01 0.  1.
        -13    1    6    6    0    0  0.72569798031E+01  0.12245661175E+02  0.15075993554E+02  0.20734429824E+02  0.10500000000E+00 0.  1.
         13    1    6    6    0    0  0.54475118096E+01  0.90062012656E+01  0.11238680801E+02  0.15398247215E+02  0.10500000000E+00 0. -1.
</event>
<event>
11    0  0.3483054E-009  0.9118800E+02  0.7816531E-02  0.1126479E+00
         25   -1    0    0    0    0  0.00000000000E+00  0.00000000000E+00  0.99999998245E-14  0.12500000000E+03  0.12500000000E+03 0.  0.
    3000001    1    3    3    0    0  0.12339299173E+02  0.30517159477E+01  0.20489218816E+01  0.12913920984E+02  0.10000000000E+01 0.  1.
    1000022    2    1    0    0    0  0.53131093187E+02  0.14415730228E+02  0.27848240813E+02  0.62499993973E+02  0.99999194499E+01 0.  0.
    3000022    2    3    3    0    0  0.40791794014E+02  0.11364014280E+02  0.25799318931E+02  0.49586072989E+02  0.24999541170E+00 0.  0.
    1000022    2    1    0    0    0 -0.53131093187E+02 -0.14415730228E+02 -0.27848240813E+02  0.62500006027E+02  0.99999947840E+01 0.  0.
    3000022    2    5    5    0    0 -0.45538642182E+02 -0.10186922525E+02 -0.20083620142E+02  0.50803106394E+02  0.24999788385E+00 0.  0.
        -13    1    4    4    0    0  0.17439793830E+02  0.48662774559E+01  0.10955346986E+02  0.21162649118E+02  0.10500000000E+00 0. -1.
         13    1    4    4    0    0  0.23352000184E+02  0.64977368246E+01  0.14843971945E+02  0.28423423871E+02  0.10500000000E+00 0.  1.
    3000001    1    5    5    0    0 -0.75924510053E+01 -0.42288077030E+01 -0.77646206712E+01  0.11696899633E+02  0.10000000000E+01 0.  1.
        -13    1    6    6    0    0 -0.27690775995E+02 -0.61799588665E+01 -0.12144894860E+02  0.30862282206E+02  0.10500000000E+00 0.  1.
         13    1    6    6    0    0 -0.17847866187E+02 -0.40069636587E+01 -0.79387252817E+01  0.19940824188E+02  0.10500000000E+00 0. -1.
</event>
<event>
11    0  0.3483054E-009  0.9118800E+02  0.7816531E-02  0.1126479E+00
         25   -1    0    0    0    0  0.00000000000E+00  0.00000000000E+00  0.99999998245E-14  0.12500000000E+03  0.12500000000E+03 0.  0.
    3000001    1    3    3    0    0  0.14179784103E+02 -0.36900002174E+02 -0.37758173281E+02  0.54675004227E+02  0.10000000000E+01 0.  1.
    1000022    2    1    0    0    0  0.16385921191E+02 -0.38908149507E+02 -0.44987858378E+02  0.62499998822E+02  0.99999969985E+01 0.  0.
    3000022    2    3    3    0    0  0.22061370874E+01 -0.20081473327E+01 -0.72296850969E+01  0.78249945950E+01  0.24999450819E+00 0.  0.
    1000022    2    1    0    0    0 -0.16385921191E+02  0.38908149507E+02  0.44987858378E+02  0.62500001178E+02  0.10000011727E+02 0.  0.
    3000022    2    5    5    0    0 -0.14154078297E+02  0.23298770143E+02  0.24716644283E+02  0.36798717792E+02  0.25000780629E+00 0.  0.
        -13    1    4    4    0    0  0.59925313008E+00 -0.59379209012E+00 -0.20021338629E+01  0.21751455963E+01  0.10500000000E+00 0.  1.
         13    1    4    4    0    0  0.16068839573E+01 -0.14143552426E+01 -0.52275512340E+01  0.56498489987E+01  0.10500000000E+00 0. -1.
    3000001    1    5    5    0    0 -0.22318428936E+01  0.15609379364E+02  0.20271214095E+02  0.25701283386E+02  0.10000000000E+01 0.  1.
        -13    1    6    6    0    0 -0.87458170252E+01  0.14474943601E+02  0.15393910323E+02  0.22869123458E+02  0.10500000000E+00 0.  1.
         13    1    6    6    0    0 -0.54082612721E+01  0.88238265423E+01  0.93227339600E+01  0.13929594335E+02  0.10500000000E+00 0. -1.
</event>
<event>
11    0  0.3483054E-009  0.9118800E+02  0.7816531E-02  0.1126479E+00
         25   -1    0    0    0    0  0.00000000000E+00  0.00000000000E+00  0.99999998245E-14  0.12500000000E+03  0.12500000000E+03 0.  0.
    3000001    1    3    3    0    0 -0.49099840690E+01 -0.46626979301E+02  0.82305507933E+01  0.47612236963E+02  0.10000000000E+01 0.  1.
    1000022    2    1    0    0    0 -0.10718176060E+02 -0.60306473939E+02  0.73824084341E+01  0.62500000237E+02  0.99999989141E+01 0.  0.
    3000022    2    3    3    0    0 -0.58081919914E+01 -0.13679494638E+02 -0.84814235918E+00  0.14887763274E+02  0.24996412130E+00 0.  0.
    1000022    2    1    0    0    0  0.10718176060E+02  0.60306473939E+02 -0.73824084341E+01  0.62499999763E+02  0.99999959550E+01 0.  0.
    3000022    2    5    5    0    0 -0.74644203926E+00  0.38866430459E+01  0.14952845144E+01  0.42381064001E+01  0.25000038968E+00 0.  0.
        -13    1    4    4    0    0 -0.22460379070E+01 -0.51811886455E+01 -0.36585303041E+00  0.56598829935E+01  0.10500000000E+00 0. -1.
         13    1    4    4    0    0 -0.35621540845E+01 -0.84983059927E+01 -0.48228932877E+00  0.92278802801E+01  0.10500000000E+00 0.  1.
    3000001    1    5    5    0    0  0.11464618100E+02  0.56419830893E+02 -0.88776929485E+01  0.58261893363E+02  0.10000000000E+01 0.  1.
        -13    1    6    6    0    0 -0.54388268575E+00  0.27614663438E+01  0.10187258811E+01  0.29950512792E+01  0.10500000000E+00 0. -1.
         13    1    6    6    0    0 -0.20255935351E+00  0.11251767021E+01  0.47655863333E+00  0.12430551209E+01  0.10500000000E+00 0.  1.
</event>
<event>
11    0  0.3483054E-009  0.9118800E+02  0.7816531E-02  0.1126479E+00
         25   -1    0    0    0    0  0.00000000000E+00  0.00000000000E+00  0.99999998245E-14  0.12500000000E+03  0.12500000000E+03 0.  0.
    3000001    1    3    3    0    0  0.52814124832E+02 -0.89974661127E+01  0.14295473055E+02  0.55458513576E+02  0.10000000000E+01 0.  1.
    1000022    2    1    0    0    0  0.57812516771E+02 -0.97939248704E+01  0.19184418616E+02  0.62500002020E+02  0.10000013751E+02 0.  0.
    3000022    2    3    3    0    0  0.49983919399E+01 -0.79645875770E+00  0.48889455606E+01  0.70414884439E+01  0.25000454647E+00 0.  0.
    1000022    2    1    0    0    0 -0.57812516771E+02  0.97939248704E+01 -0.19184418616E+02  0.62499997980E+02  0.99999885039E+01 0.  0.
    3000022    2    5    5    0    0 -0.33494354392E-01 -0.44031716281E+00 -0.89563209228E+00  0.10293964379E+01  0.24999821200E+00 0.  0.
        -13    1    4    4    0    0  0.14948703439E+01 -0.25797170593E+00  0.14099449304E+01  0.20736818591E+01  0.10500000000E+00 0.  1.
         13    1    4    4    0    0  0.35035215960E+01 -0.53848705177E+00  0.34790006303E+01  0.49678065848E+01  0.10500000000E+00 0. -1.
    3000001    1    5    5    0    0 -0.57779022417E+02  0.10234242033E+02 -0.18288786524E+02  0.61470601542E+02  0.10000000000E+01 0.  1.
        -13    1    6    6    0    0  0.22185891393E-01 -0.23649706099E+00 -0.35808907483E+00  0.44235264117E+00  0.10500000000E+00 0. -1.
         13    1    6    6    0    0 -0.55680245785E-01 -0.20382010182E+00 -0.53754301745E+00  0.58704379673E+00  0.10500000000E+00 0.  1.
</event>
<event>
11    0  0.3483054E-009  0.9118800E+02  0.7816531E-02  0.1126479E+00
         25   -1    0    0    0    0  0.00000000000E+00  0.00000000000E+00  0.99999998245E-14  0.12500000000E+03  0.12500000000E+03 0.  0.
    3000001    1    3    3    0    0 -0.48140495573E+01  0.66118541867E+01 -0.22623052995E+01  0.85445722067E+01  0.10000000000E+01 0. -1.
    1000022    2    1    0    0    0 -0.15125221181E+02  0.52028713952E+02 -0.29504079233E+02  0.62499999728E+02  0.99999941690E+01 0.  0.
    3000022    2    3    3    0    0 -0.10311171623E+02  0.45416859765E+02 -0.27241773933E+02  0.53955427522E+02  0.25000161829E+00 0.  0.
    1000022    2    1    0    0    0  0.15125221181E+02 -0.52028713952E+02  0.29504079233E+02  0.62500000272E+02  0.99999975663E+01 0.  0.
    3000022    2    5    5    0    0  0.63937197654E+01 -0.12872878538E+02  0.38908112483E+01  0.14892668265E+02  0.25000318937E+00 0.  0.
        -13    1    4    4    0    0 -0.36926642509E+01  0.16249932817E+02 -0.98143343696E+01  0.19339810494E+02  0.10500000000E+00 0.  1.
         13    1    4    4    0    0 -0.66185073725E+01  0.29166926948E+02 -0.17427439564E+02  0.34615617027E+02  0.10500000000E+00 0. -1.
    3000001    1    5    5    0    0  0.87315014152E+01 -0.39155835414E+02  0.25613267985E+02  0.47607332007E+02  0.10000000000E+01 0. -1.
        -13    1    6    6    0    0  0.30672405329E+01 -0.62399697042E+01  0.19457148845E+01  0.72209429999E+01  0.10500000000E+00 0. -1.
         13    1    6    6    0    0  0.33264792325E+01 -0.66329088336E+01  0.19450963638E+01  0.76717252652E+01  0.10500000000E+00 0.  1.
</event>
<event>
11    0  0.3483054E-009  0.9118800E+02  0.7816531E-02  0.1126479E+00
         25   -1    0    0    0    0  0.00000000000E+00  0.00000000000E+00  0.99999998245E-14  0.12500000000E+03  0.12500000000E+03 0.  0.
    3000001    1    3    3    0    0 -0.42211796619E+01  0.83019467501E+01  0.36146187466E+02  0.37340159961E+02  0.10000000000E+01 0.  1.
    1000022    2    1    0    0    0  0.59657996023E+00  0.16419809675E+02  0.59466663228E+02  0.62500000844E+02  0.10000000633E+02 0.  0.
    3000022    2    3    3    0    0  0.48177596221E+01  0.81178629249E+01  0.23320475762E+02  0.25159840883E+02  0.24999453636E+00 0.  0.
    1000022    2    1    0    0    0 -0.59657996023E+00 -0.16419809675E+02 -0.59466663228E+02  0.62499999156E+02  0.99999900791E+01 0.  0.
    3000022    2    5    5    0    0 -0.21574490378E+01 -0.17116116995E+02 -0.53529802604E+02  0.56241607171E+02  0.25012612375E+00 0.  0.
        -13    1    4    4    0    0  0.11614572895E+01  0.20001266351E+01  0.57374948637E+01  0.61870317522E+01  0.10500000000E+00 0.  1.
         13    1    4    4    0    0  0.36563023327E+01  0.61177362898E+01  0.17582980898E+02  0.18972809131E+02  0.10500000000E+00 0. -1.
    3000001    1    5    5    0    0  0.15608690776E+01  0.69630731953E+00 -0.59368606242E+01  0.62583919846E+01  0.10000000000E+01 0. -1.
        -13    1    6    6    0    0 -0.98980957179E+00 -0.73904566479E+01 -0.23239079474E+02  0.24406237159E+02  0.10500000000E+00 0. -1.
         13    1    6    6    0    0 -0.11676394660E+01 -0.97256603467E+01 -0.30290723129E+02  0.31835370012E+02  0.10500000000E+00 0.  1.
</event>
<event>
11    0  0.3483054E-009  0.9118800E+02  0.7816531E-02  0.1126479E+00
         25   -1    0    0    0    0  0.00000000000E+00  0.00000000000E+00  0.99999998245E-14  0.12500000000E+03  0.12500000000E+03 0.  0.
    3000001    1    3    3    0    0  0.39578423229E+02  0.15845651917E+02  0.43246891603E+02  0.60735738270E+02  0.10000000000E+01 0.  1.
    1000022    2    1    0    0    0  0.39092603001E+02  0.16570057302E+02  0.44759940505E+02  0.62499995756E+02  0.99999393557E+01 0.  0.
    3000022    2    3    3    0    0 -0.48582022791E+00  0.72440538523E+00  0.15130489027E+01  0.17642574860E+01  0.25000607786E+00 0.  0.
    1000022    2    1    0    0    0 -0.39092603001E+02 -0.16570057302E+02 -0.44759940505E+02  0.62500004244E+02  0.99999924020E+01 0.  0.
    3000022    2    5    5    0    0 -0.87245116930E+01 -0.47052667973E+01 -0.16940666476E+02  0.19629195633E+02  0.25000126895E+00 0.  0.
        -13    1    4    4    0    0 -0.14525300395E+00  0.28324838311E+00  0.65394550204E+00  0.73484542682E+00  0.10500000000E+00 0.  1.
         13    1    4    4    0    0 -0.34056722396E+00  0.44115700212E+00  0.85910340067E+00  0.10294120592E+01  0.10500000000E+00 0.  1.
    3000001    1    5    5    0    0 -0.30368091308E+02 -0.11864790505E+02 -0.27819274029E+02  0.42870808610E+02  0.10000000000E+01 0.  1.
        -13    1    6    6    0    0 -0.55437294352E+01 -0.30464635286E+01 -0.10748763043E+02  0.12472401855E+02  0.10500000000E+00 0. -1.
         13    1    6    6    0    0 -0.31807822578E+01 -0.16588032687E+01 -0.61919034336E+01  0.71567937784E+01  0.10500000000E+00 0.  1.
</event>
<event>
11    0  0.3483054E-009  0.9118800E+02  0.7816531E-02  0.1126479E+00
         25   -1    0    0    0    0  0.00000000000E+00  0.00000000000E+00  0.99999998245E-14  0.12500000000E+03  0.12500000000E+03 0.  0.
    3000001    1    3    3    0    0 -0.35976929981E+02  0.89710474182E+01 -0.18601910476E+02  0.41495183528E+02  0.10000000000E+01 0.  1.
    1000022    2    1    0    0    0 -0.56238956359E+02  0.13812926146E+02 -0.21275169216E+02  0.62499999978E+02  0.10000001548E+02 0.  0.
    3000022    2    3    3    0    0 -0.20262026378E+02  0.48418787281E+01 -0.26732587406E+01  0.21004816450E+02  0.24999850442E+00 0.  0.
    1000022    2    1    0    0    0  0.56238956359E+02 -0.13812926146E+02  0.21275169216E+02  0.62500000022E+02  0.10000001827E+02 0.  0.
    3000022    2    5    5    0    0  0.25086751267E+02 -0.14115395157E+01  0.73586044684E+01  0.26182992342E+02  0.24999066966E+00 0.  0.
        -13    1    4    4    0    0 -0.11951490563E+02  0.29029825198E+01 -0.15331109619E+01  0.12394631435E+02  0.10500000000E+00 0.  1.
         13    1    4    4    0    0 -0.83105358151E+01  0.19388962083E+01 -0.11401477787E+01  0.86101850153E+01  0.10500000000E+00 0. -1.
    3000001    1    5    5    0    0  0.31152205092E+02 -0.12401386631E+02  0.13916564748E+02  0.36317007680E+02  0.10000000000E+01 0. -1.
        -13    1    6    6    0    0  0.17299452562E+02 -0.97633911699E+00  0.50238481940E+01  0.18040908312E+02  0.10500000000E+00 0.  1.
         13    1    6    6    0    0  0.77872987043E+01 -0.43520039872E+00  0.23347562744E+01  0.81420840304E+01  0.10500000000E+00 0. -1.
</event>
<event>
11    0  0.3483054E-009  0.9118800E+02  0.7816531E-02  0.1126479E+00
         25   -1    0    0    0    0  0.00000000000E+00  0.00000000000E+00  0.99999998245E-14  0.12500000000E+03  0.12500000000E+03 0.  0.
    3000001    1    3    3    0    0  0.14589466523E+02 -0.31913050844E+02  0.48938952857E+02  0.60227206928E+02  0.10000000000E+01 0. -1.
    1000022    2    1    0    0    0  0.16362813458E+02 -0.31716733399E+02  0.50324518699E+02  0.62500000536E+02  0.10000002149E+02 0.  0.
    3000022    2    3    3    0    0  0.17733469349E+01  0.19631744430E+00  0.13855658421E+01  0.22727936087E+01  0.24999638952E+00 0.  0.
    1000022    2    1    0    0    0 -0.16362813458E+02  0.31716733399E+02 -0.50324518699E+02  0.62499999464E+02  0.99999954451E+01 0.  0.
    3000022    2    5    5    0    0 -0.15747778589E+02  0.22909244193E+02 -0.41697080768E+02  0.50115217703E+02  0.25000171399E+00 0.  0.
        -13    1    4    4    0    0  0.11183218385E+01  0.18208135264E+00  0.89010576413E+00  0.14446835725E+01  0.10500000000E+00 0. -1.
         13    1    4    4    0    0  0.65502509638E+00  0.14236091666E-01  0.49546007795E+00  0.82811003618E+00  0.10500000000E+00 0.  1.
    3000001    1    5    5    0    0 -0.61503486899E+00  0.88074892064E+01 -0.86274379309E+01  0.12384781761E+02  0.10000000000E+01 0. -1.
        -13    1    6    6    0    0 -0.79842123769E+01  0.11500627918E+02 -0.20963378693E+02  0.25208854814E+02  0.10500000000E+00 0.  1.
         13    1    6    6    0    0 -0.77635662121E+01  0.11408616275E+02 -0.20733702075E+02  0.24906362889E+02  0.10500000000E+00 0. -1.
</event>
<event>
11    0  0.3483054E-009  0.9118800E+02  0.7816531E-02  0.1126479E+00
         25   -1    0    0    0    0  0.00000000000E+00  0.00000000000E+00  0.99999998245E-14  0.12500000000E+03  0.12500000000E+03 0.  0.
    3000001    1    3    3    0    0  0.23955906097E+01  0.27994788051E+01  0.40999112057E+01  0.56022502482E+01  0.10000000000E+01 0. -1.
    1000022    2    1    0    0    0  0.13605980950E+02  0.80694960639E+01  0.59632294736E+02  0.62500001145E+02  0.10000004169E+02 0.  0.
    3000022    2    3    3    0    0  0.11210390340E+02  0.52700172588E+01  0.55532383530E+02  0.56897750897E+02  0.25000624180E+00 0.  0.
    1000022    2    1    0    0    0 -0.13605980950E+02 -0.80694960639E+01 -0.59632294736E+02  0.62499998855E+02  0.99999898547E+01 0.  0.
    3000022    2    5    5    0    0 -0.77170941010E+01 -0.23533619082E+01 -0.44779748569E+02  0.45501431102E+02  0.24999365656E+00 0.  0.
        -13    1    4    4    0    0  0.73144840314E+01  0.34415056510E+01  0.35978309614E+02  0.36875404072E+02  0.10500000000E+00 0. -1.
         13    1    4    4    0    0  0.38959063089E+01  0.18285116078E+01  0.19554073916E+02  0.20022346825E+02  0.10500000000E+00 0.  1.
    3000001    1    5    5    0    0 -0.58888868489E+01 -0.57161341557E+01 -0.14852546166E+02  0.16998567752E+02  0.10000000000E+01 0.  1.
        -13    1    6    6    0    0 -0.56739026108E+01 -0.17168134483E+01 -0.33069481922E+02  0.33596759946E+02  0.10500000000E+00 0.  1.
         13    1    6    6    0    0 -0.20431914902E+01 -0.63654845994E+00 -0.11710266647E+02  0.11904671157E+02  0.10500000000E+00 0. -1.
</event>
<event>
11    0  0.3483054E-009  0.9118800E+02  0.7816531E-02  0.1126479E+00
         25   -1    0    0    0    0  0.00000000000E+00  0.00000000000E+00  0.99999998245E-14  0.12500000000E+03  0.12500000000E+03 0.  0.
    3000001    1    3    3    0    0  0.91398907053E+00 -0.16242481374E+02  0.98809511734E+00  0.16328806116E+02  0.10000000000E+01 0. -1.
    1000022    2    1    0    0    0 -0.71076075863E+01 -0.60656878820E+02 -0.87449600984E+01  0.62500004639E+02  0.10000060947E+02 0.  0.
    3000022    2    3    3    0    0 -0.80215966568E+01 -0.44414397446E+02 -0.97330552157E+01  0.46171198523E+02  0.24999160384E+00 0.  0.
    1000022    2    1    0    0    0  0.71076075863E+01  0.60656878820E+02  0.87449600984E+01  0.62499995361E+02  0.10000002965E+02 0.  0.
    3000022    2    5    5    0    0  0.83315757413E+01  0.58307475013E+02  0.73935995004E+01  0.59362484922E+02  0.25001166106E+00 0.  0.
        -13    1    4    4    0    0 -0.35091785712E+01 -0.19407863851E+02 -0.41858877335E+01  0.20162147570E+02  0.10500000000E+00 0.  1.
         13    1    4    4    0    0 -0.45124180856E+01 -0.25006533595E+02 -0.55471674822E+01  0.26009050953E+02  0.10500000000E+00 0. -1.
    3000001    1    5    5    0    0 -0.12239681550E+01  0.23494038072E+01  0.13513605980E+01  0.31375104397E+01  0.10000000000E+01 0. -1.
        -13    1    6    6    0    0  0.58858507011E+01  0.41291676404E+02  0.52771140443E+01  0.42041702349E+02  0.10500000000E+00 0.  1.
         13    1    6    6    0    0  0.24457250402E+01  0.17015798608E+02  0.21164854561E+01  0.17320782573E+02  0.10500000000E+00 0. -1.
</event>
<event>
11    0  0.3483054E-009  0.9118800E+02  0.7816531E-02  0.1126479E+00
         25   -1    0    0    0    0  0.00000000000E+00  0.00000000000E+00  0.99999998245E-14  0.12500000000E+03  0.12500000000E+03 0.  0.
    3000001    1    3    3    0    0  0.45335537142E+02 -0.11981183411E+02  0.11787560488E+01  0.46917471689E+02  0.10000000000E+01 0. -1.
    1000022    2    1    0    0    0  0.59394234817E+02 -0.16190643506E+02 -0.40544247599E+01  0.62500000769E+02  0.99999834687E+01 0.  0.
    3000022    2    3    3    0    0  0.14058697675E+02 -0.42094600943E+01 -0.52331808088E+01  0.15582529079E+02  0.24999308389E+00 0.  0.
    1000022    2    1    0    0    0 -0.59394234817E+02  0.16190643506E+02  0.40544247599E+01  0.62499999231E+02  0.99999738589E+01 0.  0.
    3000022    2    5    5    0    0 -0.49914712784E+02  0.15817661750E+02  0.61847230451E+01  0.52725613105E+02  0.25000524943E+00 0.  0.
        -13    1    4    4    0    0  0.75735520934E+01 -0.22615774945E+01 -0.28894773705E+01  0.84162657129E+01  0.10500000000E+00 0. -1.
         13    1    4    4    0    0  0.64851455813E+01 -0.19478825998E+01 -0.23437034383E+01  0.71662633666E+01  0.10500000000E+00 0.  1.
    3000001    1    5    5    0    0 -0.94795220327E+01  0.37298175591E+00 -0.21302982851E+01  0.97743861261E+01  0.10000000000E+01 0.  1.
        -13    1    6    6    0    0 -0.27682101218E+02  0.88016749288E+01  0.33703597596E+01  0.29242752253E+02  0.10500000000E+00 0.  1.
         13    1    6    6    0    0 -0.22232611566E+02  0.70159868210E+01  0.28143632855E+01  0.23482860852E+02  0.10500000000E+00 0. -1.
</event>
<event>
11    0  0.3483054E-009  0.9118800E+02  0.7816531E-02  0.1126479E+00
         25   -1    0    0    0    0  0.00000000000E+00  0.00000000000E+00  0.99999998245E-14  0.12500000000E+03  0.12500000000E+03 0.  0.
    3000001    1    3    3    0    0  0.37089489899E+02  0.18971794292E+00  0.92182113363E+01  0.38231422601E+02  0.10000000000E+01 0.  1.
    1000022    2    1    0    0    0  0.59158100122E+02  0.80518339096E+01  0.15547900098E+02  0.62500000768E+02  0.10000002960E+02 0.  0.
    3000022    2    3    3    0    0  0.22068610222E+02  0.78621159667E+01  0.63296887621E+01  0.24268578166E+02  0.25000354706E+00 0.  0.
    1000022    2    1    0    0    0 -0.59158100122E+02 -0.80518339096E+01 -0.15547900098E+02  0.62499999232E+02  0.99999933622E+01 0.  0.
    3000022    2    5    5    0    0 -0.42194739580E+02 -0.92157258035E+01 -0.82560960537E+01  0.43972164727E+02  0.24999693572E+00 0.  0.
        -13    1    4    4    0    0  0.13150943053E+02  0.46950677426E+01  0.37077795942E+01  0.14448170085E+02  0.10500000000E+00 0.  1.
         13    1    4    4    0    0  0.89176671697E+01  0.31670482241E+01  0.26219091679E+01  0.98204080815E+01  0.10500000000E+00 0. -1.
    3000001    1    5    5    0    0 -0.16963360542E+02  0.11638918940E+01 -0.72918040446E+01  0.18527834505E+02  0.10000000000E+01 0.  1.
        -13    1    6    6    0    0 -0.17195346335E+02 -0.37091443706E+01 -0.33171462366E+01  0.17901177941E+02  0.10500000000E+00 0.  1.
         13    1    6    6    0    0 -0.24999393245E+02 -0.55065814330E+01 -0.49389498171E+01  0.26070986786E+02  0.10500000000E+00 0. -1.
</event>
<event>
11    0  0.3483054E-009  0.9118800E+02  0.7816531E-02  0.1126479E+00
         25   -1    0    0    0    0  0.00000000000E+00  0.00000000000E+00  0.99999998245E-14  0.12500000000E+03  0.12500000000E+03 0.  0.
    3000001    1    3    3    0    0  0.18651017708E+02 -0.29168789574E+01  0.19472864688E+01  0.19004225030E+02  0.10000000000E+01 0.  1.
    1000022    2    1    0    0    0  0.59851383945E+02 -0.12598214059E+02 -0.80837397266E+01  0.62499999995E+02  0.99999996904E+01 0.  0.
    3000022    2    3    3    0    0  0.41200366236E+02 -0.96813351013E+01 -0.10031026195E+02  0.43495774964E+02  0.25005174050E+00 0.  0.
    1000022    2    1    0    0    0 -0.59851383945E+02  0.12598214059E+02  0.80837397266E+01  0.62500000005E+02  0.99999997573E+01 0.  0.
    3000022    2    5    5    0    0 -0.40096439403E+02  0.79012942527E+01  0.71192671167E+00  0.40874493847E+02  0.25000776502E+00 0.  0.
        -13    1    4    4    0    0  0.28128603227E+02 -0.66470680023E+01 -0.68149385050E+01  0.29696064459E+02  0.10500000000E+00 0. -1.
         13    1    4    4    0    0  0.13071763009E+02 -0.30342670990E+01 -0.32160876904E+01  0.13799710505E+02  0.10500000000E+00 0.  1.
    3000001    1    5    5    0    0 -0.19754944541E+02  0.46969198059E+01  0.73718130149E+01  0.21625506159E+02  0.10000000000E+01 0.  1.
        -13    1    6    6    0    0 -0.27732688694E+02  0.54165868624E+01  0.48440378438E+00  0.28261052837E+02  0.10500000000E+00 0.  1.
         13    1    6    6    0    0 -0.12363750710E+02  0.24847073903E+01  0.22752292729E+00  0.12613441010E+02  0.10500000000E+00 0. -1.
</event>
<event>
11    0  0.3483054E-009  0.9118800E+02  0.7816531E-02  0.1126479E+00
         25   -1    0    0    0    0  0.00000000000E+00  0.00000000000E+00  0.99999998245E-14  0.12500000000E+03  0.12500000000E+03 0.  0.
    3000001    1    3    3    0    0 -0.13076395822E+02  0.86906119692E+01  0.13281567145E+01  0.15788694194E+02  0.10000000000E+01 0. -1.
    1000022    2    1    0    0    0 -0.47741916730E+02  0.37554776259E+02 -0.10798063949E+02  0.62499999935E+02  0.99999986961E+01 0.  0.
    3000022    2    3    3    0    0 -0.34665520908E+02  0.28864164290E+02 -0.12126220663E+02  0.46711305741E+02  0.25007296749E+00 0.  0.
    1000022    2    1    0    0    0  0.47741916730E+02 -0.37554776259E+02  0.10798063949E+02  0.62500000065E+02  0.99999995056E+01 0.  0.
    3000022    2    5    5    0    0  0.24641444664E+02 -0.13243731706E+02  0.38875713831E+01  0.28244874836E+02  0.25003720390E+00 0.  0.
        -13    1    4    4    0    0 -0.25645247572E+02  0.21386273155E+02 -0.89961658208E+01  0.34583137899E+02  0.10500000000E+00 0. -1.
         13    1    4    4    0    0 -0.90202733364E+01  0.74778911348E+01 -0.31300548423E+01  0.12128167842E+02  0.10500000000E+00 0.  1.
    3000001    1    5    5    0    0  0.23100472066E+02 -0.24311044553E+02  0.69104925655E+01  0.34255125229E+02  0.10000000000E+01 0. -1.
        -13    1    6    6    0    0  0.18407001186E+02 -0.99140814567E+01  0.28842563933E+01  0.21105370495E+02  0.10500000000E+00 0.  1.
         13    1    6    6    0    0  0.62344434779E+01 -0.33296502488E+01  0.10033149898E+01  0.71395043405E+01  0.10500000000E+00 0. -1.
</event>
<event>
11    0  0.3483054E-009  0.9118800E+02  0.7816531E-02  0.1126479E+00
         25   -1    0    0    0    0  0.00000000000E+00  0.00000000000E+00  0.99999998245E-14  0.12500000000E+03  0.12500000000E+03 0.  0.
    3000001    1    3    3    0    0 -0.23700742047E+02 -0.13545492021E+02  0.31307007135E+02  0.41549178372E+02  0.10000000000E+01 0. -1.
    1000022    2    1    0    0    0 -0.40317111329E+02 -0.20753596148E+02  0.41833822897E+02  0.62499997901E+02  0.99999890251E+01 0.  0.
    3000022    2    3    3    0    0 -0.16616369283E+02 -0.72081041274E+01  0.10526815762E+02  0.20950819529E+02  0.24999124553E+00 0.  0.
    1000022    2    1    0    0    0  0.40317111329E+02  0.20753596148E+02 -0.41833822897E+02  0.62500002099E+02  0.10000015259E+02 0.  0.
    3000022    2    5    5    0    0  0.27248107847E+02  0.16964608201E+02 -0.24173046834E+02  0.40182782451E+02  0.24999917182E+00 0.  0.
        -13    1    4    4    0    0 -0.41934278108E+01 -0.17947578373E+01  0.26331168014E+01  0.52678574002E+01  0.10500000000E+00 0.  1.
         13    1    4    4    0    0 -0.12422941472E+02 -0.54133462901E+01  0.78936989605E+01  0.15682962129E+02  0.10500000000E+00 0. -1.
    3000001    1    5    5    0    0  0.13069003482E+02  0.37889879477E+01 -0.17660776063E+02  0.22317219648E+02  0.10000000000E+01 0.  1.
        -13    1    6    6    0    0  0.87493744002E+01  0.54143719799E+01 -0.78022867684E+01  0.12913314065E+02  0.10500000000E+00 0. -1.
         13    1    6    6    0    0  0.18498733447E+02  0.11550236221E+02 -0.16370760065E+02  0.27269468385E+02  0.10500000000E+00 0.  1.
</event>
<event>
11    0  0.3483054E-009  0.9118800E+02  0.7816531E-02  0.1126479E+00
         25   -1    0    0    0    0  0.00000000000E+00  0.00000000000E+00  0.99999998245E-14  0.12500000000E+03  0.12500000000E+03 0.  0.
    3000001    1    3    3    0    0  0.19287433224E+02  0.46489275034E+02  0.46358289242E+01  0.50554413095E+02  0.10000000000E+01 0.  1.
    1000022    2    1    0    0    0  0.23228683209E+02  0.57146813451E+02  0.95914899472E+00  0.62500000541E+02  0.10000004482E+02 0.  0.
    3000022    2    3    3    0    0  0.39412499848E+01  0.10657538417E+02 -0.36766799295E+01  0.11945587447E+02  0.25001515876E+00 0.  0.
    1000022    2    1    0    0    0 -0.23228683209E+02 -0.57146813451E+02 -0.95914899472E+00  0.62499999459E+02  0.99999977157E+01 0.  0.
    3000022    2    5    5    0    0 -0.23221472094E+02 -0.50641665205E+02 -0.23939101642E+01  0.55763862189E+02  0.24999876243E+00 0.  0.
        -13    1    4    4    0    0  0.16507650885E+01  0.43624354768E+01 -0.15655863798E+01  0.49211740855E+01  0.10500000000E+00 0. -1.
         13    1    4    4    0    0  0.22904848962E+01  0.62951029406E+01 -0.21110935497E+01  0.70244133611E+01  0.10500000000E+00 0.  1.
    3000001    1    5    5    0    0 -0.72111143795E-02 -0.65051482465E+01  0.14347611695E+01  0.67361372702E+01  0.10000000000E+01 0.  1.
        -13    1    6    6    0    0 -0.16750465046E+02 -0.36588284084E+02 -0.17593457309E+01  0.40278864605E+02  0.10500000000E+00 0.  1.
         13    1    6    6    0    0 -0.64710070480E+01 -0.14053381121E+02 -0.63456443333E+00  0.15484997583E+02  0.10500000000E+00 0. -1.
</event>
<event>
11    0  0.3483054E-009  0.9118800E+02  0.7816531E-02  0.1126479E+00
         25   -1    0    0    0    0  0.00000000000E+00  0.00000000000E+00  0.99999998245E-14  0.12500000000E+03  0.12500000000E+03 0.  0.
    3000001    1    3    3    0    0  0.16568920500E+02  0.62193305893E+01  0.81062890907E+01  0.19491565416E+02  0.10000000000E+01 0.  1.
    1000022    2    1    0    0    0  0.50983057997E+02  0.30672028465E+02  0.16315777259E+02  0.62500000478E+02  0.99999969651E+01 0.  0.
    3000022    2    3    3    0    0  0.34414137497E+02  0.24452697876E+02  0.82094881679E+01  0.43008435062E+02  0.24999499419E+00 0.  0.
    1000022    2    1    0    0    0 -0.50983057997E+02 -0.30672028465E+02 -0.16315777259E+02  0.62499999522E+02  0.99999909914E+01 0.  0.
    3000022    2    5    5    0    0 -0.34031156888E+02 -0.24743547401E+02 -0.14107531802E+02  0.44378460213E+02  0.25000044366E+00 0.  0.
        -13    1    4    4    0    0  0.82107686435E+01  0.58460943242E+01  0.19758334453E+01  0.10271732248E+02  0.10500000000E+00 0.  1.
         13    1    4    4    0    0  0.26203368853E+02  0.18606603551E+02  0.62336547226E+01  0.32736702815E+02  0.10500000000E+00 0. -1.
    3000001    1    5    5    0    0 -0.16951901109E+02 -0.59284810643E+01 -0.22082454568E+01  0.18121539309E+02  0.10000000000E+01 0.  1.
        -13    1    6    6    0    0 -0.24960045143E+02 -0.18179215251E+02 -0.10377817704E+02  0.32576031772E+02  0.10500000000E+00 0. -1.
         13    1    6    6    0    0 -0.90711117452E+01 -0.65643321493E+01 -0.37297140978E+01  0.11802428441E+02  0.10500000000E+00 0.  1.
</event>
<event>
11    0  0.3483054E-009  0.9118800E+02  0.7816531E-02  0.1126479E+00
         25   -1    0    0    0    0  0.00000000000E+00  0.00000000000E+00  0.99999998245E-14  0.12500000000E+03  0.12500000000E+03 0.  0.
    3000001    1    3    3    0    0 -0.39234788155E+01 -0.97413204075E+00  0.20954300380E+02  0.21364112985E+02  0.10000000000E+01 0. -1.
    1000022    2    1    0    0    0  0.21482740609E+01 -0.38497685884E+01  0.61537095392E+02  0.62500000233E+02  0.10000006010E+02 0.  0.
    3000022    2    3    3    0    0  0.60717528764E+01 -0.28756365477E+01  0.40582795013E+02  0.41135887248E+02  0.25000015929E+00 0.  0.
    1000022    2    1    0    0    0 -0.21482740609E+01  0.38497685884E+01 -0.61537095392E+02  0.62499999767E+02  0.10000003096E+02 0.  0.
    3000022    2    5    5    0    0 -0.59427483934E+01  0.90862395733E+00 -0.35070877197E+02  0.35583293565E+02  0.24999519181E+00 0.  0.
        -13    1    4    4    0    0  0.39947723224E+01 -0.18427654402E+01  0.26359162499E+02  0.26723967951E+02  0.10500000000E+00 0. -1.
         13    1    4    4    0    0  0.20769805540E+01 -0.10328711075E+01  0.14223632513E+02  0.14411919297E+02  0.10500000000E+00 0.  1.
    3000001    1    5    5    0    0  0.37944743325E+01  0.29411446311E+01 -0.26466218195E+02  0.26916706202E+02  0.10000000000E+01 0.  1.
        -13    1    6    6    0    0 -0.21460945967E+01  0.31045447703E+00 -0.12986308341E+02  0.13166523206E+02  0.10500000000E+00 0.  1.
         13    1    6    6    0    0 -0.37966537967E+01  0.59816948030E+00 -0.22084568856E+02  0.22416770359E+02  0.10500000000E+00 0. -1.
</event>
<event>
11    0  0.3483054E-009  0.9118800E+02  0.7816531E-02  0.1126479E+00
         25   -1    0    0    0    0  0.00000000000E+00  0.00000000000E+00  0.99999998245E-14  0.12500000000E+03  0.12500000000E+03 0.  0.
    3000001    1    3    3    0    0  0.15409842078E+02 -0.70960497333E-01  0.46523262579E+01  0.16128000740E+02  0.10000000000E+01 0. -1.
    1000022    2    1    0    0    0  0.52237528566E+02  0.10585792447E+01  0.32808071459E+02  0.62500005473E+02  0.10000057526E+02 0.  0.
    3000022    2    3    3    0    0  0.36827686488E+02  0.11295397420E+01  0.28155745201E+02  0.46372004733E+02  0.24996600281E+00 0.  0.
    1000022    2    1    0    0    0 -0.52237528566E+02 -0.10585792447E+01 -0.32808071459E+02  0.62499994527E+02  0.99999891180E+01 0.  0.
    3000022    2    5    5    0    0 -0.43969035342E+02  0.20370400349E+01 -0.29642296164E+02  0.53067445978E+02  0.24999945503E+00 0.  0.
        -13    1    4    4    0    0  0.16285911255E+02  0.43325653995E+00  0.12447699222E+02  0.20503045080E+02  0.10500000000E+00 0.  1.
         13    1    4    4    0    0  0.20541775233E+02  0.69628320207E+00  0.15708045980E+02  0.25868959653E+02  0.10500000000E+00 0. -1.
    3000001    1    5    5    0    0 -0.82684932243E+01 -0.30956192796E+01 -0.31657752949E+01  0.94325485497E+01  0.10000000000E+01 0.  1.
        -13    1    6    6    0    0 -0.19734402365E+02  0.93709238196E+00 -0.13229510384E+02  0.23777210703E+02  0.10500000000E+00 0.  1.
         13    1    6    6    0    0 -0.24234632977E+02  0.10999476530E+01 -0.16412785780E+02  0.29290235274E+02  0.10500000000E+00 0. -1.
</event>
<event>
11    0  0.3483054E-009  0.9118800E+02  0.7816531E-02  0.1126479E+00
         25   -1    0    0    0    0  0.00000000000E+00  0.00000000000E+00  0.99999998245E-14  0.12500000000E+03  0.12500000000E+03 0.  0.
    3000001    1    3    3    0    0  0.17376671960E+01 -0.49473783636E+01  0.67246947035E+01  0.85858930119E+01  0.10000000000E+01 0.  1.
    1000022    2    1    0    0    0  0.26648738765E+02 -0.16803649218E+02  0.53044623665E+02  0.62500000291E+02  0.10000001594E+02 0.  0.
    3000022    2    3    3    0    0  0.24911071569E+02 -0.11856270855E+02  0.46319928961E+02  0.53914107280E+02  0.24999897489E+00 0.  0.
    1000022    2    1    0    0    0 -0.26648738765E+02  0.16803649218E+02 -0.53044623665E+02  0.62499999709E+02  0.99999979510E+01 0.  0.
    3000022    2    5    5    0    0 -0.21310551700E+01  0.40319430307E+01 -0.34938093549E+01  0.57504051146E+01  0.24998886717E+00 0.  0.
        -13    1    4    4    0    0  0.17984437889E+02 -0.85414702719E+01  0.33495969981E+02  0.38966495230E+02  0.10500000000E+00 0.  1.
         13    1    4    4    0    0  0.69266336801E+01 -0.33148005827E+01  0.12823958980E+02  0.14947612049E+02  0.10500000000E+00 0. -1.
    3000001    1    5    5    0    0 -0.24517683595E+02  0.12771706187E+02 -0.49550814310E+02  0.56749594594E+02  0.10000000000E+01 0. -1.
        -13    1    6    6    0    0 -0.10749578858E+01  0.20298166687E+01 -0.16742813713E+01  0.28442808010E+01  0.10500000000E+00 0. -1.
         13    1    6    6    0    0 -0.10560972842E+01  0.20021263620E+01 -0.18195279836E+01  0.29061243136E+01  0.10500000000E+00 0. -1.
</event>
<event>
11    0  0.3483054E-009  0.9118800E+02  0.7816531E-02  0.1126479E+00
         25   -1    0    0    0    0  0.00000000000E+00  0.00000000000E+00  0.99999998245E-14  0.12500000000E+03  0.12500000000E+03 0.  0.
    3000001    1    3    3    0    0  0.12467257892E+02  0.19399233650E+02  0.54274410162E+02  0.58978592590E+02  0.10000000000E+01 0.  1.
    1000022    2    1    0    0    0  0.12568867503E+02  0.18228730135E+02  0.57584607053E+02  0.62499999849E+02  0.99999989533E+01 0.  0.
    3000022    2    3    3    0    0  0.10160961124E+00 -0.11705035148E+01  0.33101968912E+01  0.35214072589E+01  0.25000526513E+00 0.  0.
    1000022    2    1    0    0    0 -0.12568867503E+02 -0.18228730135E+02 -0.57584607053E+02  0.62500000151E+02  0.10000000839E+02 0.  0.
    3000022    2    5    5    0    0 -0.10209834243E+02 -0.97047999201E+01 -0.44484995348E+02  0.46662631334E+02  0.24999025543E+00 0.  0.
        -13    1    4    4    0    0  0.29131412090E-01 -0.78137254018E+00  0.22899275644E+01  0.24220208372E+01  0.10500000000E+00 0. -1.
         13    1    4    4    0    0  0.72478199145E-01 -0.38913097464E+00  0.10202693269E+01  0.10993864217E+01  0.10500000000E+00 0.  1.
    3000001    1    5    5    0    0 -0.23590332593E+01 -0.85239302146E+01 -0.13099611705E+02  0.15837368817E+02  0.10000000000E+01 0. -1.
        -13    1    6    6    0    0 -0.67505190596E+01 -0.64077196824E+01 -0.29211248345E+02  0.30658382769E+02  0.10500000000E+00 0.  1.
         13    1    6    6    0    0 -0.34593151839E+01 -0.32970802377E+01 -0.15273747003E+02  0.16004248565E+02  0.10500000000E+00 0. -1.
</event>
<event>
11    0  0.3483054E-009  0.9118800E+02  0.7816531E-02  0.1126479E+00
         25   -1    0    0    0    0  0.00000000000E+00  0.00000000000E+00  0.99999998245E-14  0.12500000000E+03  0.12500000000E+03 0.  0.
    3000001    1    3    3    0    0 -0.32848887654E+02 -0.34705126369E+02  0.40709499723E+01  0.47969447048E+02  0.10000000000E+01 0. -1.
    1000022    2    1    0    0    0 -0.41399236161E+02 -0.44512650354E+02  0.10534575258E+02  0.62499999228E+02  0.99999915691E+01 0.  0.
    3000022    2    3    3    0    0 -0.85503485063E+01 -0.98075239855E+01  0.64636252854E+01  0.14530552180E+02  0.25001704315E+00 0.  0.
    1000022    2    1    0    0    0  0.41399236161E+02  0.44512650354E+02 -0.10534575258E+02  0.62500000772E+02  0.10000001218E+02 0.  0.
    3000022    2    5    5    0    0  0.97015128762E+01  0.17068985667E+02 -0.24288423356E+01  0.19784625330E+02  0.25000118091E+00 0.  0.
        -13    1    4    4    0    0 -0.60966814818E+01 -0.69772799931E+01  0.46481554096E+01  0.10366693538E+02  0.10500000000E+00 0. -1.
         13    1    4    4    0    0 -0.24536670246E+01 -0.28302439924E+01  0.18154698758E+01  0.41638586424E+01  0.10500000000E+00 0.  1.
    3000001    1    5    5    0    0  0.31697723285E+02  0.27443664688E+02 -0.81057329221E+01  0.42715375442E+02  0.10000000000E+01 0. -1.
        -13    1    6    6    0    0  0.72931699355E+01  0.12790887780E+02 -0.18385427748E+01  0.14838746660E+02  0.10500000000E+00 0.  1.
         13    1    6    6    0    0  0.24083429407E+01  0.42780978865E+01 -0.59029956083E+00  0.49458786700E+01  0.10500000000E+00 0. -1.
</event>
<event>
11    0  0.3483054E-009  0.9118800E+02  0.7816531E-02  0.1126479E+00
         25   -1    0    0    0    0  0.00000000000E+00  0.00000000000E+00  0.99999998245E-14  0.12500000000E+03  0.12500000000E+03 0.  0.
    3000001    1    3    3    0    0  0.85171972819E+01 -0.97646002588E+01  0.25642384986E+02  0.28747555992E+02  0.10000000000E+01 0. -1.
    1000022    2    1    0    0    0  0.24155489921E+02 -0.12127157758E+02  0.55458942636E+02  0.62500000163E+02  0.10000002675E+02 0.  0.
    3000022    2    3    3    0    0  0.15638292639E+02 -0.23625574990E+01  0.29816557650E+02  0.33752444171E+02  0.25000565637E+00 0.  0.
    1000022    2    1    0    0    0 -0.24155489921E+02  0.12127157758E+02 -0.55458942636E+02  0.62499999837E+02  0.10000000633E+02 0.  0.
    3000022    2    5    5    0    0 -0.61187216838E+00 -0.14482026614E+01 -0.24456336149E+01  0.29180958660E+01  0.24996240940E+00 0.  0.
        -13    1    4    4    0    0  0.68488964775E+01 -0.10225669946E+01  0.13193952359E+02  0.14901155327E+02  0.10500000000E+00 0. -1.
         13    1    4    4    0    0  0.87893961618E+01 -0.13399905043E+01  0.16622605291E+02  0.18851288844E+02  0.10500000000E+00 0.  1.
    3000001    1    5    5    0    0 -0.23543617753E+02  0.13575360419E+02 -0.53013309021E+02  0.59581903971E+02  0.10000000000E+01 0.  1.
        -13    1    6    6    0    0 -0.43439365919E+00 -0.87871847920E+00 -0.15465450343E+01  0.18340312320E+01  0.10500000000E+00 0. -1.
         13    1    6    6    0    0 -0.17747850920E+00 -0.56948418221E+00 -0.89908858061E+00  0.10840646341E+01  0.10500000000E+00 0.  1.
</event>
<event>
11    0  0.3483054E-009  0.9118800E+02  0.7816531E-02  0.1126479E+00
         25   -1    0    0    0    0  0.00000000000E+00  0.00000000000E+00  0.99999998245E-14  0.12500000000E+03  0.12500000000E+03 0.  0.
    3000001    1    3    3    0    0 -0.63140715166E-01 -0.64784277200E+00 -0.66730045952E+00  0.13671053033E+01  0.10000000000E+01 0. -1.
    1000022    2    1    0    0    0 -0.51300828776E+02 -0.21491225663E+02 -0.26694609950E+02  0.62499998591E+02  0.99999904948E+01 0.  0.
    3000022    2    3    3    0    0 -0.51237688061E+02 -0.20843382891E+02 -0.26027309491E+02  0.61132893288E+02  0.25002850377E+00 0.  0.
    1000022    2    1    0    0    0  0.51300828776E+02  0.21491225663E+02  0.26694609950E+02  0.62500001409E+02  0.10000008104E+02 0.  0.
    3000022    2    5    5    0    0  0.11129078850E+02  0.43008416418E+01  0.10480701303E+02  0.15882733916E+02  0.25000388975E+00 0.  0.
        -13    1    4    4    0    0 -0.16707852040E+02 -0.68190367314E+01 -0.85440416456E+01  0.19966553392E+02  0.10500000000E+00 0.  1.
         13    1    4    4    0    0 -0.34529836021E+02 -0.14024346159E+02 -0.17483267845E+02  0.41166339895E+02  0.10500000000E+00 0. -1.
    3000001    1    5    5    0    0  0.40171749926E+02  0.17190384021E+02  0.16213908647E+02  0.46617267493E+02  0.10000000000E+01 0.  1.
        -13    1    6    6    0    0  0.49320256559E+01  0.19209991413E+01  0.45633889438E+01  0.69893246042E+01  0.10500000000E+00 0. -1.
         13    1    6    6    0    0  0.61970531940E+01  0.23798425004E+01  0.59173123597E+01  0.88934093113E+01  0.10500000000E+00 0.  1.
</event>
<event>
11    0  0.3483054E-009  0.9118800E+02  0.7816531E-02  0.1126479E+00
         25   -1    0    0    0    0  0.00000000000E+00  0.00000000000E+00  0.99999998245E-14  0.12500000000E+03  0.12500000000E+03 0.  0.
    3000001    1    3    3    0    0  0.14896742850E+01  0.10987318664E+02 -0.71908162259E+01  0.13253231262E+02  0.10000000000E+01 0. -1.
    1000022    2    1    0    0    0 -0.23031869425E-01  0.59003454206E+02 -0.18023366857E+02  0.62499999671E+02  0.10000003363E+02 0.  0.
    3000022    2    3    3    0    0 -0.15127061544E+01  0.48016135542E+02 -0.10832550631E+02  0.49246768408E+02  0.24998634231E+00 0.  0.
    1000022    2    1    0    0    0  0.23031869425E-01 -0.59003454206E+02  0.18023366857E+02  0.62500000329E+02  0.10000007481E+02 0.  0.
    3000022    2    5    5    0    0  0.26645029047E+01 -0.54201798296E+02  0.16607279019E+02  0.56752081273E+02  0.24999647033E+00 0.  0.
        -13    1    4    4    0    0 -0.36892102563E+00  0.12777483552E+02 -0.28752339080E+01  0.13102602172E+02  0.10500000000E+00 0. -1.
         13    1    4    4    0    0 -0.11437851288E+01  0.35238651990E+02 -0.79573167228E+01  0.36144166237E+02  0.10500000000E+00 0.  1.
    3000001    1    5    5    0    0 -0.26414710352E+01 -0.48016559103E+01  0.14160878376E+01  0.57479190560E+01  0.10000000000E+01 0. -1.
        -13    1    6    6    0    0  0.11372934379E+01 -0.23127132380E+02  0.70178356941E+01  0.24195427901E+02  0.10500000000E+00 0. -1.
         13    1    6    6    0    0  0.15272094667E+01 -0.31074665916E+02  0.95894433250E+01  0.32556653373E+02  0.10500000000E+00 0.  1.
</event>
<event>
11    0  0.3483054E-009  0.9118800E+02  0.7816531E-02  0.1126479E+00
         25   -1    0    0    0    0  0.00000000000E+00  0.00000000000E+00  0.99999998245E-14  0.12500000000E+03  0.12500000000E+03 0.  0.
    3000001    1    3    3    0    0 -0.56732357410E+01  0.97657393803E+01 -0.63096448809E+01  0.12975626688E+02  0.10000000000E+01 0. -1.
    1000022    2    1    0    0    0 -0.26846362124E+02  0.54077588034E+02 -0.12693978930E+02  0.62499998852E+02  0.10000003427E+02 0.  0.
    3000022    2    3    3    0    0 -0.21173126383E+02  0.44311848654E+02 -0.63843340495E+01  0.49524372164E+02  0.25001012598E+00 0.  0.
    1000022    2    1    0    0    0  0.26846362124E+02 -0.54077588034E+02  0.12693978930E+02  0.62500001148E+02  0.10000017778E+02 0.  0.
    3000022    2    5    5    0    0  0.74279848976E+00  0.19373135402E+00  0.73804450813E+00  0.10938409487E+01  0.24999378224E+00 0.  0.
        -13    1    4    4    0    0 -0.10861840645E+02  0.22665361123E+02 -0.33292356661E+01  0.25353362935E+02  0.10500000000E+00 0. -1.
         13    1    4    4    0    0 -0.10311285738E+02  0.21646487531E+02 -0.30550983834E+01  0.24171009229E+02  0.10500000000E+00 0.  1.
    3000001    1    5    5    0    0  0.26103563634E+02 -0.54271319388E+02  0.11955934422E+02  0.61406160199E+02  0.10000000000E+01 0.  1.
        -13    1    6    6    0    0  0.22774663611E+00  0.85116772512E-01  0.18431100613E+00  0.32265917343E+00  0.10500000000E+00 0.  1.
         13    1    6    6    0    0  0.51505185365E+00  0.10861458151E+00  0.55373350200E+00  0.77118177527E+00  0.10500000000E+00 0. -1.
</event>
<event>
11    0  0.3483054E-009  0.9118800E+02  0.7816531E-02  0.1126479E+00
         25   -1    0    0    0    0  0.00000000000E+00  0.00000000000E+00  0.99999998245E-14  0.12500000000E+03  0.12500000000E+03 0.  0.
    3000001    1    3    3    0    0  0.33667938254E+02  0.32346022751E+01  0.27066942919E+02  0.43331421822E+02  0.10000000000E+01 0.  1.
    1000022    2    1    0    0    0  0.49737207415E+02 -0.12985007628E+01  0.36479776748E+02  0.62499999618E+02  0.99999967484E+01 0.  0.
    3000022    2    3    3    0    0  0.16069269161E+02 -0.45331030379E+01  0.94128338292E+01  0.19168577796E+02  0.24999898667E+00 0.  0.
    1000022    2    1    0    0    0 -0.49737207415E+02  0.12985007628E+01 -0.36479776748E+02  0.62500000382E+02  0.10000001525E+02 0.  0.
    3000022    2    5    5    0    0 -0.32923953762E+01  0.23706237156E+01 -0.46486937195E+01  0.61751580856E+01  0.24999994224E+00 0.  0.
        -13    1    4    4    0    0  0.96098695314E+01 -0.27471547914E+01  0.56949575194E+01  0.11503913161E+02  0.10500000000E+00 0.  1.
         13    1    4    4    0    0  0.64593996300E+01 -0.17859482465E+01  0.37178763099E+01  0.76646646355E+01  0.10500000000E+00 0. -1.
    3000001    1    5    5    0    0 -0.46444812039E+02 -0.10721229528E+01 -0.31831083028E+02  0.56324842296E+02  0.10000000000E+01 0.  1.
        -13    1    6    6    0    0 -0.18531070786E+01  0.12998550452E+01 -0.26836997079E+01  0.35123920774E+01  0.10500000000E+00 0. -1.
         13    1    6    6    0    0 -0.14392882976E+01  0.10707686704E+01 -0.19649940116E+01  0.26627660082E+01  0.10500000000E+00 0.  1.
</event>
<event>
11    0  0.3483054E-009  0.9118800E+02  0.7816531E-02  0.1126479E+00
         25   -1    0    0    0    0  0.00000000000E+00  0.00000000000E+00  0.99999998245E-14  0.12500000000E+03  0.12500000000E+03 0.  0.
    3000001    1    3    3    0    0 -0.11501979984E+02  0.15685926160E+02 -0.17631380202E+02  0.26271836458E+02  0.10000000000E+01 0. -1.
    1000022    2    1    0    0    0 -0.35944918582E+02  0.29667683847E+02 -0.40423276441E+02  0.62500000103E+02  0.10000004896E+02 0.  0.
    3000022    2    3    3    0    0 -0.24442938598E+02  0.13981757688E+02 -0.22791896239E+02  0.36228163646E+02  0.25002320589E+00 0.  0.
    1000022    2    1    0    0    0  0.35944918582E+02 -0.29667683847E+02  0.40423276441E+02  0.62499999897E+02  0.10000003603E+02 0.  0.
    3000022    2    5    5    0    0  0.13345350406E+02 -0.10393995214E+02  0.86729914399E+01  0.19010965038E+02  0.24999434946E+00 0.  0.
        -13    1    4    4    0    0 -0.76510592982E+01  0.44020665140E+01 -0.70882368527E+01  0.11321264269E+02  0.10500000000E+00 0.  1.
         13    1    4    4    0    0 -0.16791879300E+02  0.95796911736E+01 -0.15703659387E+02  0.24906899376E+02  0.10500000000E+00 0. -1.
    3000001    1    5    5    0    0  0.22599568176E+02 -0.19273688633E+02  0.31750285002E+02  0.43489034859E+02  0.10000000000E+01 0.  1.
        -13    1    6    6    0    0  0.85717036312E+01 -0.66085289884E+01  0.55230138972E+01  0.12151603435E+02  0.10500000000E+00 0.  1.
         13    1    6    6    0    0  0.47736467753E+01 -0.37854662257E+01  0.31499775428E+01  0.68593616030E+01  0.10500000000E+00 0. -1.
</event>
<event>
11    0  0.3483054E-009  0.9118800E+02  0.7816531E-02  0.1126479E+00
         25   -1    0    0    0    0  0.00000000000E+00  0.00000000000E+00  0.99999998245E-14  0.12500000000E+03  0.12500000000E+03 0.  0.
    3000001    1    3    3    0    0  0.20158090652E+02 -0.14299654234E+02 -0.18180280325E+02  0.30697741328E+02  0.10000000000E+01 0.  1.
    1000022    2    1    0    0    0  0.40737741889E+02 -0.20204980573E+02 -0.41694654869E+02  0.62499993376E+02  0.10000003656E+02 0.  0.
    3000022    2    3    3    0    0  0.20579651237E+02 -0.59053263393E+01 -0.23514374544E+02  0.31802252048E+02  0.25000176611E+00 0.  0.
    1000022    2    1    0    0    0 -0.40737741889E+02  0.20204980573E+02  0.41694654869E+02  0.62500006624E+02  0.10000086455E+02 0.  0.
    3000022    2    5    5    0    0 -0.38114414086E+02  0.16563973826E+02  0.34758013989E+02  0.54178001721E+02  0.25008799316E+00 0.  0.
        -13    1    4    4    0    0  0.14198952432E+02 -0.40616824819E+01 -0.16288979946E+02  0.21987482971E+02  0.10500000000E+00 0.  1.
         13    1    4    4    0    0  0.63806988059E+01 -0.18436438574E+01 -0.72253945985E+01  0.98147690766E+01  0.10500000000E+00 0. -1.
    3000001    1    5    5    0    0 -0.26233278034E+01  0.36410067474E+01  0.69366408806E+01  0.83220049030E+01  0.10000000000E+01 0.  1.
        -13    1    6    6    0    0 -0.19663514102E+02  0.85893080910E+01  0.18017659619E+02  0.28019227032E+02  0.10500000000E+00 0. -1.
         13    1    6    6    0    0 -0.18450899984E+02  0.79746657351E+01  0.16740354369E+02  0.26158774689E+02  0.10500000000E+00 0.  1.
</event>
<event>
11    0  0.3483054E-009  0.9118800E+02  0.7816531E-02  0.1126479E+00
         25   -1    0    0    0    0  0.00000000000E+00  0.00000000000E+00  0.99999998245E-14  0.12500000000E+03  0.12500000000E+03 0.  0.
    3000001    1    3    3    0    0  0.26452677993E+02  0.10121978829E+02  0.14930031680E+02  0.32032865535E+02  0.10000000000E+01 0.  1.
    1000022    2    1    0    0    0  0.54257391120E+02  0.10636095040E+02  0.27372599687E+02  0.62500001727E+02  0.99999996692E+01 0.  0.
    3000022    2    3    3    0    0  0.27804713127E+02  0.51411621173E+00  0.12442568008E+02  0.30467136192E+02  0.25000316876E+00 0.  0.
    1000022    2    1    0    0    0 -0.54257391120E+02 -0.10636095040E+02 -0.27372599687E+02  0.62499998273E+02  0.99999780796E+01 0.  0.
    3000022    2    5    5    0    0 -0.13933981698E+02  0.15828687409E+01 -0.62065149856E+01  0.15337687420E+02  0.25001547565E+00 0.  0.
        -13    1    4    4    0    0  0.16762727585E+02  0.33217863573E+00  0.75656745111E+01  0.18394288096E+02  0.10500000000E+00 0.  1.
         13    1    4    4    0    0  0.11041985542E+02  0.18193757600E+00  0.48768934966E+01  0.12072848096E+02  0.10500000000E+00 0. -1.
    3000001    1    5    5    0    0 -0.40323409422E+02 -0.12218963781E+02 -0.21166084702E+02  0.47162310852E+02  0.10000000000E+01 0. -1.
        -13    1    6    6    0    0 -0.83490578086E+01  0.90104665845E+00 -0.36702292095E+01  0.91651655098E+01  0.10500000000E+00 0.  1.
         13    1    6    6    0    0 -0.55849238891E+01  0.68182208248E+00 -0.25362857761E+01  0.61725219107E+01  0.10500000000E+00 0. -1.
</event>
<event>
11    0  0.3483054E-009  0.9118800E+02  0.7816531E-02  0.1126479E+00
         25   -1    0    0    0    0  0.00000000000E+00  0.00000000000E+00  0.99999998245E-14  0.12500000000E+03  0.12500000000E+03 0.  0.
    3000001    1    3    3    0    0 -0.78758591872E+01  0.30193997832E+00  0.23062043720E+00  0.79481766131E+01  0.10000000000E+01 0.  1.
    1000022    2    1    0    0    0 -0.57715600538E+02 -0.18068477830E+02 -0.12193828992E+02  0.62500000739E+02  0.10000009515E+02 0.  0.
    3000022    2    3    3    0    0 -0.49839741351E+02 -0.18370417809E+02 -0.12424449429E+02  0.54551824126E+02  0.25000689704E+00 0.  0.
    1000022    2    1    0    0    0  0.57715600538E+02  0.18068477830E+02  0.12193828992E+02  0.62499999261E+02  0.10000000277E+02 0.  0.
    3000022    2    5    5    0    0  0.31315986106E+02  0.11954586288E+02  0.11278991665E+02  0.35367799953E+02  0.25000281397E+00 0.  0.
        -13    1    4    4    0    0 -0.19997543331E+02 -0.73086589071E+01 -0.49554769115E+01  0.21860604079E+02  0.10500000000E+00 0.  1.
         13    1    4    4    0    0 -0.29842198020E+02 -0.11061758902E+02 -0.74689725175E+01  0.32691220047E+02  0.10500000000E+00 0. -1.
    3000001    1    5    5    0    0  0.26399614432E+02  0.61138915421E+01  0.91483732654E+00  0.27132199308E+02  0.10000000000E+01 0. -1.
        -13    1    6    6    0    0  0.11650240366E+02  0.44063426065E+01  0.42395481513E+01  0.13157839841E+02  0.10500000000E+00 0. -1.
         13    1    6    6    0    0  0.19665745740E+02  0.75482436818E+01  0.70394435139E+01  0.22209960112E+02  0.10500000000E+00 0.  1.
</event>
<event>
11    0  0.3483054E-009  0.9118800E+02  0.7816531E-02  0.1126479E+00
         25   -1    0    0    0    0  0.00000000000E+00  0.00000000000E+00  0.99999998245E-14  0.12500000000E+03  0.12500000000E+03 0.  0.
    3000001    1    3    3    0    0 -0.62445452212E+01  0.74958347936E+01 -0.10833320698E+02  0.14613101027E+02  0.10000000000E+01 0.  1.
    1000022    2    1    0    0    0 -0.20328037095E+02  0.18210813217E+02 -0.55329804128E+02  0.62499999462E+02  0.99999948859E+01 0.  0.
    3000022    2    3    3    0    0 -0.14083491874E+02  0.10714978424E+02 -0.44496483430E+02  0.47886898435E+02  0.24999624831E+00 0.  0.
    1000022    2    1    0    0    0  0.20328037095E+02 -0.18210813217E+02  0.55329804128E+02  0.62500000538E+02  0.10000001616E+02 0.  0.
    3000022    2    5    5    0    0  0.14798011700E+02 -0.10848203646E+02  0.45152998238E+02  0.48739310923E+02  0.25001354369E+00 0.  0.
        -13    1    4    4    0    0 -0.85357933695E+01  0.65529287008E+01 -0.26946089905E+02  0.29015572184E+02  0.10500000000E+00 0. -1.
         13    1    4    4    0    0 -0.55476985041E+01  0.41620497231E+01 -0.17550393525E+02  0.18871326251E+02  0.10500000000E+00 0.  1.
    3000001    1    5    5    0    0  0.55300253945E+01 -0.73626095713E+01  0.10176805890E+02  0.13760689615E+02  0.10000000000E+01 0. -1.
        -13    1    6    6    0    0  0.51722950542E+01 -0.38370743101E+01  0.15734314168E+02  0.17001630590E+02  0.10500000000E+00 0. -1.
         13    1    6    6    0    0  0.96257166461E+01 -0.70111293361E+01  0.29418684070E+02  0.31737680333E+02  0.10500000000E+00 0.  1.
</event>
<event>
11    0  0.3483054E-009  0.9118800E+02  0.7816531E-02  0.1126479E+00
         25   -1    0    0    0    0  0.00000000000E+00  0.00000000000E+00  0.99999998245E-14  0.12500000000E+03  0.12500000000E+03 0.  0.
    3000001    1    3    3    0    0  0.17283802633E+02  0.17051986338E+02 -0.17983592438E+02  0.30230938929E+02  0.10000000000E+01 0.  1.
    1000022    2    1    0    0    0  0.41841879386E+02  0.34850675461E+02 -0.28998920566E+02  0.62500001743E+02  0.10000018658E+02 0.  0.
    3000022    2    3    3    0    0  0.24558076753E+02  0.17798689124E+02 -0.11015328129E+02  0.32269062814E+02  0.24998564542E+00 0.  0.
    1000022    2    1    0    0    0 -0.41841879386E+02 -0.34850675461E+02  0.28998920566E+02  0.62499998257E+02  0.99999968726E+01 0.  0.
    3000022    2    5    5    0    0 -0.34594529042E+01 -0.28175248361E+01  0.59472958586E+01  0.74390247524E+01  0.25000127763E+00 0.  0.
        -13    1    4    4    0    0  0.14411543081E+02  0.10501111927E+02 -0.64280059529E+01  0.18955110424E+02  0.10500000000E+00 0.  1.
         13    1    4    4    0    0  0.10146533672E+02  0.72975771968E+01 -0.45873221758E+01  0.13313952390E+02  0.10500000000E+00 0. -1.
    3000001    1    5    5    0    0 -0.38382426482E+02 -0.32033150625E+02  0.23051624708E+02  0.55060973505E+02  0.10000000000E+01 0.  1.
        -13    1    6    6    0    0 -0.12484354431E+01 -0.94465123828E+00  0.21034743270E+01  0.26242306038E+01  0.10500000000E+00 0. -1.
         13    1    6    6    0    0 -0.22110174612E+01 -0.18728735978E+01  0.38438215316E+01  0.48147941486E+01  0.10500000000E+00 0.  1.
</event>
<event>
11    0  0.3483054E-009  0.9118800E+02  0.7816531E-02  0.1126479E+00
         25   -1    0    0    0    0  0.00000000000E+00  0.00000000000E+00  0.99999998245E-14  0.12500000000E+03  0.12500000000E+03 0.  0.
    3000001    1    3    3    0    0  0.13746991587E+02  0.24809709297E+02 -0.10728810937E+02  0.30341536500E+02  0.10000000000E+01 0. -1.
    1000022    2    1    0    0    0  0.32270730687E+02  0.44210709766E+02 -0.28465118633E+02  0.62500001072E+02  0.10000011908E+02 0.  0.
    3000022    2    3    3    0    0  0.18523739100E+02  0.19401000469E+02 -0.17736307696E+02  0.32158464572E+02  0.25000697378E+00 0.  0.
    1000022    2    1    0    0    0 -0.32270730687E+02 -0.44210709766E+02  0.28465118633E+02  0.62499998928E+02  0.99999985054E+01 0.  0.
    3000022    2    5    5    0    0 -0.10269245900E+02 -0.16460690230E+02  0.51029731943E+01  0.20062765788E+02  0.25000286932E+00 0.  0.
        -13    1    4    4    0    0  0.10147085013E+02  0.10531423539E+02 -0.96788330167E+01  0.17537532597E+02  0.10500000000E+00 0. -1.
         13    1    4    4    0    0  0.83766540863E+01  0.88695769299E+01 -0.80574746796E+01  0.14620931975E+02  0.10500000000E+00 0.  1.
    3000001    1    5    5    0    0 -0.22001484787E+02 -0.27750019536E+02  0.23362145439E+02  0.42437233140E+02  0.10000000000E+01 0. -1.
        -13    1    6    6    0    0 -0.25183290431E+01 -0.40190194509E+01  0.12691859112E+01  0.49108407012E+01  0.10500000000E+00 0.  1.
         13    1    6    6    0    0 -0.77509168568E+01 -0.12441670779E+02  0.38337872830E+01  0.15151925086E+02  0.10500000000E+00 0. -1.
</event>
<event>
11    0  0.3483054E-009  0.9118800E+02  0.7816531E-02  0.1126479E+00
         25   -1    0    0    0    0  0.00000000000E+00  0.00000000000E+00  0.99999998245E-14  0.12500000000E+03  0.12500000000E+03 0.  0.
    3000001    1    3    3    0    0 -0.10130571541E+02 -0.47893348374E+02  0.28639449767E+02  0.56724063511E+02  0.10000000000E+01 0.  1.
    1000022    2    1    0    0    0 -0.10399957858E+02 -0.53657538728E+02  0.28617466943E+02  0.62499999717E+02  0.99999982294E+01 0.  0.
    3000022    2    3    3    0    0 -0.26938631747E+00 -0.57641903541E+01 -0.21982823458E-01  0.57759362066E+01  0.24999278273E+00 0.  0.
    1000022    2    1    0    0    0  0.10399957858E+02  0.53657538728E+02 -0.28617466943E+02  0.62500000283E+02  0.10000001763E+02 0.  0.
    3000022    2    5    5    0    0  0.41014184680E+01  0.67847442172E+01 -0.66167768963E+01  0.10329502621E+02  0.25000071416E+00 0.  0.
        -13    1    4    4    0    0 -0.18804803935E+00 -0.28699437588E+01  0.30247452432E-01  0.28781728843E+01  0.10500000000E+00 0. -1.
         13    1    4    4    0    0 -0.81338278114E-01 -0.28942465953E+01 -0.52230275890E-01  0.28977633222E+01  0.10500000000E+00 0.  1.
    3000001    1    5    5    0    0  0.62985393900E+01  0.46872794511E+02 -0.22000690047E+02  0.52170497662E+02  0.10000000000E+01 0.  1.
        -13    1    6    6    0    0  0.12071847568E+01  0.19192215301E+01 -0.18790851586E+01  0.29466408589E+01  0.10500000000E+00 0.  1.
         13    1    6    6    0    0  0.28942337113E+01  0.48655226871E+01 -0.47376917378E+01  0.73828617620E+01  0.10500000000E+00 0. -1.
</event>
<event>
11    0  0.3483054E-009  0.9118800E+02  0.7816531E-02  0.1126479E+00
         25   -1    0    0    0    0  0.00000000000E+00  0.00000000000E+00  0.99999998245E-14  0.12500000000E+03  0.12500000000E+03 0.  0.
    3000001    1    3    3    0    0 -0.41759931092E+02 -0.23803622041E+02  0.87139506044E+01  0.48861408108E+02  0.10000000000E+01 0.  1.
    1000022    2    1    0    0    0 -0.54258904851E+02 -0.25960580329E+02  0.13721134268E+02  0.62500000273E+02  0.10000001094E+02 0.  0.
    3000022    2    3    3    0    0 -0.12498973758E+02 -0.21569582876E+01  0.50071836636E+01  0.13638592165E+02  0.24998787558E+00 0.  0.
    1000022    2    1    0    0    0  0.54258904851E+02  0.25960580329E+02 -0.13721134268E+02  0.62499999727E+02  0.99999976837E+01 0.  0.
    3000022    2    5    5    0    0  0.24695629986E+02  0.17007237449E+02 -0.83907460344E+01  0.31138197991E+02  0.24997804205E+00 0.  0.
        -13    1    4    4    0    0 -0.84461185243E+01 -0.14201844414E+01  0.33416120465E+01  0.91940871240E+01  0.10500000000E+00 0.  1.
         13    1    4    4    0    0 -0.40528552340E+01 -0.73677384614E+00  0.16655716171E+01  0.44445050411E+01  0.10500000000E+00 0. -1.
    3000001    1    5    5    0    0  0.29563274865E+02  0.89533428799E+01 -0.53303882336E+01  0.31361801737E+02  0.10000000000E+01 0.  1.
        -13    1    6    6    0    0  0.15506329965E+02  0.10736549039E+02 -0.53150020856E+01  0.19595408299E+02  0.10500000000E+00 0. -1.
         13    1    6    6    0    0  0.91893000216E+01  0.62706884100E+01 -0.30757439488E+01  0.11542789691E+02  0.10500000000E+00 0.  1.
</event>
<event>
11    0  0.3483054E-009  0.9118800E+02  0.7816531E-02  0.1126479E+00
         25   -1    0    0    0    0  0.00000000000E+00  0.00000000000E+00  0.99999998245E-14  0.12500000000E+03  0.12500000000E+03 0.  0.
    3000001    1    3    3    0    0  0.16051810046E+01  0.25213584454E+01 -0.27462773446E+01  0.41804178883E+01  0.10000000000E+01 0. -1.
    1000022    2    1    0    0    0 -0.87842548473E+01  0.47779327664E+02 -0.38029232402E+02  0.62499999323E+02  0.10000005650E+02 0.  0.
    3000022    2    3    3    0    0 -0.10389435852E+02  0.45257969219E+02 -0.35282955057E+02  0.58319581434E+02  0.25001194191E+00 0.  0.
    1000022    2    1    0    0    0  0.87842548473E+01 -0.47779327664E+02  0.38029232402E+02  0.62500000677E+02  0.10000014115E+02 0.  0.
    3000022    2    5    5    0    0  0.58834544982E+01 -0.36175015460E+02  0.33550648894E+02  0.49688583322E+02  0.24998204876E+00 0.  0.
        -13    1    4    4    0    0 -0.52899917780E+01  0.22897629730E+02 -0.17782037090E+02  0.29470278729E+02  0.10500000000E+00 0.  1.
         13    1    4    4    0    0 -0.50994440738E+01  0.22360339489E+02 -0.17500917967E+02  0.28849302706E+02  0.10500000000E+00 0. -1.
    3000001    1    5    5    0    0  0.29008003491E+01 -0.11604312204E+02  0.44785835082E+01  0.12811417355E+02  0.10000000000E+01 0. -1.
        -13    1    6    6    0    0  0.33012134259E+01 -0.20702258905E+02  0.19180172671E+02  0.28414284833E+02  0.10500000000E+00 0.  1.
         13    1    6    6    0    0  0.25822410723E+01 -0.15472756555E+02  0.14370476222E+02  0.21274298489E+02  0.10500000000E+00 0. -1.
</event>
<event>
11    0  0.3483054E-009  0.9118800E+02  0.7816531E-02  0.1126479E+00
         25   -1    0    0    0    0  0.00000000000E+00  0.00000000000E+00  0.99999998245E-14  0.12500000000E+03  0.12500000000E+03 0.  0.
    3000001    1    3    3    0    0 -0.18971425444E+01  0.20511052732E+01  0.43613022758E+00  0.29993986482E+01  0.10000000000E+01 0. -1.
    1000022    2    1    0    0    0 -0.52406071653E+02  0.23178740903E+02 -0.22860439373E+02  0.62500000001E+02  0.99999967920E+01 0.  0.
    3000022    2    3    3    0    0 -0.50508929109E+02  0.21127635630E+02 -0.23296569600E+02  0.59500601353E+02  0.24999835244E+00 0.  0.
    1000022    2    1    0    0    0  0.52406071653E+02 -0.23178740903E+02  0.22860439373E+02  0.62499999999E+02  0.99999967829E+01 0.  0.
    3000022    2    5    5    0    0  0.19509513311E+02 -0.13872462309E+02  0.10349059772E+02  0.26081254942E+02  0.25000211713E+00 0.  0.
        -13    1    4    4    0    0 -0.34028093001E+02  0.14276923463E+02 -0.15665576396E+02  0.40089437084E+02  0.10500000000E+00 0. -1.
         13    1    4    4    0    0 -0.16480836107E+02  0.68507121671E+01 -0.76309932044E+01  0.19411164269E+02  0.10500000000E+00 0.  1.
    3000001    1    5    5    0    0  0.32896558342E+02 -0.93062785941E+01  0.12511379601E+02  0.36418745057E+02  0.10000000000E+01 0.  1.
        -13    1    6    6    0    0  0.99722097024E+01 -0.71727801353E+01  0.53228843990E+01  0.13387974624E+02  0.10500000000E+00 0.  1.
         13    1    6    6    0    0  0.95373036089E+01 -0.66996821735E+01  0.50261753729E+01  0.12693280318E+02  0.10500000000E+00 0. -1.
</event>
<event>
11    0  0.3483054E-009  0.9118800E+02  0.7816531E-02  0.1126479E+00
         25   -1    0    0    0    0  0.00000000000E+00  0.00000000000E+00  0.99999998245E-14  0.12500000000E+03  0.12500000000E+03 0.  0.
    3000001    1    3    3    0    0  0.28142444194E+02 -0.23554360783E+02  0.15379554343E+02  0.39803715516E+02  0.10000000000E+01 0. -1.
    1000022    2    1    0    0    0  0.42007526292E+02 -0.33450450842E+02  0.30375738397E+02  0.62499995820E+02  0.99999533868E+01 0.  0.
    3000022    2    3    3    0    0  0.13865082098E+02 -0.98960900589E+01  0.14996184053E+02  0.22696280304E+02  0.25000690129E+00 0.  0.
    1000022    2    1    0    0    0 -0.42007526292E+02  0.33450450842E+02 -0.30375738397E+02  0.62500004180E+02  0.10000005632E+02 0.  0.
    3000022    2    5    5    0    0 -0.77337018149E-01  0.36480847430E+00  0.59902458680E+00  0.74859573200E+00  0.24999775413E+00 0.  0.
        -13    1    4    4    0    0  0.83279651620E+01 -0.59482921645E+01  0.90929856393E+01  0.13690529437E+02  0.10500000000E+00 0.  1.
         13    1    4    4    0    0  0.55371169355E+01 -0.39477978943E+01  0.59031984139E+01  0.90057508674E+01  0.10500000000E+00 0. -1.
    3000001    1    5    5    0    0 -0.41930189274E+02  0.33085642367E+02 -0.30974762983E+02  0.61751408448E+02  0.10000000000E+01 0. -1.
        -13    1    6    6    0    0 -0.10389705617E+00  0.21473698374E+00  0.39387579055E+00  0.47230256070E+00  0.10500000000E+00 0.  1.
         13    1    6    6    0    0  0.26560038023E-01  0.15007149056E+00  0.20514879626E+00  0.27629317129E+00  0.10500000000E+00 0. -1.
</event>
<event>
11    0  0.3483054E-009  0.9118800E+02  0.7816531E-02  0.1126479E+00
         25   -1    0    0    0    0  0.00000000000E+00  0.00000000000E+00  0.99999998245E-14  0.12500000000E+03  0.12500000000E+03 0.  0.
    3000001    1    3    3    0    0 -0.90573742419E+01  0.17095190450E+02 -0.46214260407E+01  0.19915801348E+02  0.10000000000E+01 0. -1.
    1000022    2    1    0    0    0 -0.39579559380E+02  0.44646210282E+02 -0.15697920089E+02  0.62499996823E+02  0.99999647243E+01 0.  0.
    3000022    2    3    3    0    0 -0.30522185138E+02  0.27551019833E+02 -0.11076494049E+02  0.42584195476E+02  0.25000894048E+00 0.  0.
    1000022    2    1    0    0    0  0.39579559380E+02 -0.44646210282E+02  0.15697920089E+02  0.62500003177E+02  0.10000004433E+02 0.  0.
    3000022    2    5    5    0    0  0.35320443231E+02 -0.34184395538E+02  0.12546323096E+02  0.50730457658E+02  0.25000514945E+00 0.  0.
        -13    1    4    4    0    0 -0.21331446311E+02  0.19223773624E+02 -0.77769716168E+01  0.29750233387E+02  0.10500000000E+00 0. -1.
         13    1    4    4    0    0 -0.91907388275E+01  0.83272462082E+01 -0.32995224318E+01  0.12833962088E+02  0.10500000000E+00 0.  1.
    3000001    1    5    5    0    0  0.42591161485E+01 -0.10461814744E+02  0.31515969933E+01  0.11769545519E+02  0.10000000000E+01 0. -1.
        -13    1    6    6    0    0  0.11030197406E+02 -0.10635626533E+02  0.39519402233E+01  0.15824369279E+02  0.10500000000E+00 0. -1.
         13    1    6    6    0    0  0.24290245825E+02 -0.23548769005E+02  0.85943828727E+01  0.34906088378E+02  0.10500000000E+00 0.  1.
</event>
<event>
11    0  0.3483054E-009  0.9118800E+02  0.7816531E-02  0.1126479E+00
         25   -1    0    0    0    0  0.00000000000E+00  0.00000000000E+00  0.99999998245E-14  0.12500000000E+03  0.12500000000E+03 0.  0.
    3000001    1    3    3    0    0  0.67963452552E+01 -0.39178586557E+02  0.13394087314E+02  0.41970865233E+02  0.10000000000E+01 0. -1.
    1000022    2    1    0    0    0  0.13337205603E+02 -0.54814168393E+02  0.24975488138E+02  0.62500006327E+02  0.10000083665E+02 0.  0.
    3000022    2    3    3    0    0  0.65408603475E+01 -0.15635581835E+02  0.11581400824E+02  0.20529141094E+02  0.25003117815E+00 0.  0.
    1000022    2    1    0    0    0 -0.13337205603E+02  0.54814168393E+02 -0.24975488138E+02  0.62499993673E+02  0.10000004577E+02 0.  0.
    3000022    2    5    5    0    0 -0.73462570588E+00  0.50820738525E+01  0.58198803138E+00  0.51738143519E+01  0.24999061936E+00 0.  0.
        -13    1    4    4    0    0  0.45433202250E+01 -0.10911156845E+02  0.80246875893E+01  0.14286417965E+02  0.10500000000E+00 0.  1.
         13    1    4    4    0    0  0.19975401224E+01 -0.47244249901E+01  0.35567132348E+01  0.62427231288E+01  0.10500000000E+00 0. -1.
    3000001    1    5    5    0    0 -0.12602579897E+02  0.49732094540E+02 -0.25557476169E+02  0.57326179321E+02  0.10000000000E+01 0. -1.
        -13    1    6    6    0    0 -0.49464135457E+00  0.36819967434E+01  0.43083852347E+00  0.37414458331E+01  0.10500000000E+00 0. -1.
         13    1    6    6    0    0 -0.23998435132E+00  0.14000771090E+01  0.15114950790E+00  0.14323685189E+01  0.10500000000E+00 0.  1.
</event>
<event>
11    0  0.3483054E-009  0.9118800E+02  0.7816531E-02  0.1126479E+00
         25   -1    0    0    0    0  0.00000000000E+00  0.00000000000E+00  0.99999998245E-14  0.12500000000E+03  0.12500000000E+03 0.  0.
    3000001    1    3    3    0    0 -0.26982879578E+02  0.41755770174E+02  0.82914764103E+00  0.49732359878E+02  0.10000000000E+01 0. -1.
    1000022    2    1    0    0    0 -0.37327779446E+02  0.49118782242E+02 -0.48202137573E+00  0.62499997201E+02  0.99999709104E+01 0.  0.
    3000022    2    3    3    0    0 -0.10344899868E+02  0.73630120675E+01 -0.13111690168E+01  0.12767637323E+02  0.24999729611E+00 0.  0.
    1000022    2    1    0    0    0  0.37327779446E+02 -0.49118782242E+02  0.48202137573E+00  0.62500002799E+02  0.10000005902E+02 0.  0.
    3000022    2    5    5    0    0  0.10862945387E+02 -0.16051747664E+02  0.46398096147E+01  0.19931194728E+02  0.25000898916E+00 0.  0.
        -13    1    4    4    0    0 -0.78134140526E+01  0.55865449952E+01 -0.99982402216E+00  0.96576186100E+01  0.10500000000E+00 0. -1.
         13    1    4    4    0    0 -0.25314858149E+01  0.17764670723E+01 -0.31134499461E+00  0.31100187130E+01  0.10500000000E+00 0.  1.
    3000001    1    5    5    0    0  0.26464834059E+02 -0.33067034578E+02 -0.41577882390E+01  0.42568808071E+02  0.10000000000E+01 0.  1.
        -13    1    6    6    0    0  0.27095624225E+01 -0.39760959228E+01  0.11725523608E+01  0.49534807305E+01  0.10500000000E+00 0. -1.
         13    1    6    6    0    0  0.81533829647E+01 -0.12075651741E+02  0.34672572540E+01  0.14977713998E+02  0.10500000000E+00 0.  1.
</event>
<event>
11    0  0.3483054E-009  0.9118800E+02  0.7816531E-02  0.1126479E+00
         25   -1    0    0    0    0  0.00000000000E+00  0.00000000000E+00  0.99999998245E-14  0.12500000000E+03  0.12500000000E+03 0.  0.
    3000001    1    3    3    0    0 -0.11756859350E+02  0.13932061032E+02  0.11112802060E+02  0.21373358089E+02  0.10000000000E+01 0.  1.
    1000022    2    1    0    0    0 -0.44304106944E+02  0.34649663851E+02  0.25353438556E+02  0.62499999879E+02  0.10000002057E+02 0.  0.
    3000022    2    3    3    0    0 -0.32547247595E+02  0.20717602819E+02  0.14240636496E+02  0.41126641791E+02  0.25008914126E+00 0.  0.
    1000022    2    1    0    0    0  0.44304106944E+02 -0.34649663851E+02 -0.25353438556E+02  0.62500000121E+02  0.10000003565E+02 0.  0.
    3000022    2    5    5    0    0  0.32432118928E+02 -0.26705778674E+02 -0.14195585539E+02  0.44346568072E+02  0.24999652326E+00 0.  0.
        -13    1    4    4    0    0 -0.10424279697E+02  0.66857531654E+01  0.45408043698E+01  0.13190710061E+02  0.10500000000E+00 0.  1.
         13    1    4    4    0    0 -0.22122967898E+02  0.14031849654E+02  0.96998321264E+01  0.27935931729E+02  0.10500000000E+00 0. -1.
    3000001    1    5    5    0    0  0.11871988016E+02 -0.79438851774E+01 -0.11157853017E+02  0.18153432048E+02  0.10000000000E+01 0. -1.
        -13    1    6    6    0    0  0.10523018078E+02 -0.86019277888E+01 -0.46101270034E+01  0.14352399351E+02  0.10500000000E+00 0. -1.
         13    1    6    6    0    0  0.21909100850E+02 -0.18103850885E+02 -0.95854585358E+01  0.29994168721E+02  0.10500000000E+00 0.  1.
</event>
<event>
11    0  0.3483054E-009  0.9118800E+02  0.7816531E-02  0.1126479E+00
         25   -1    0    0    0    0  0.00000000000E+00  0.00000000000E+00  0.99999998245E-14  0.12500000000E+03  0.12500000000E+03 0.  0.
    3000001    1    3    3    0    0  0.41238362804E+01 -0.11925421823E+02 -0.36446126204E+02  0.38581625505E+02  0.10000000000E+01 0. -1.
    1000022    2    1    0    0    0  0.10677198857E+01 -0.24222678465E+02 -0.56730695788E+02  0.62499999979E+02  0.99999987500E+01 0.  0.
    3000022    2    3    3    0    0 -0.30561163947E+01 -0.12297256642E+02 -0.20284569584E+02  0.23918374474E+02  0.25001186009E+00 0.  0.
    1000022    2    1    0    0    0 -0.10677198857E+01  0.24222678465E+02  0.56730695788E+02  0.62500000021E+02  0.99999990169E+01 0.  0.
    3000022    2    5    5    0    0  0.25355418969E+01  0.17183680954E+02  0.45705026066E+02  0.48894987186E+02  0.25000077575E+00 0.  0.
        -13    1    4    4    0    0 -0.17044911286E+01 -0.70839994629E+01 -0.11730856676E+02  0.13809864654E+02  0.10500000000E+00 0. -1.
         13    1    4    4    0    0 -0.13516252661E+01 -0.52132571794E+01 -0.85537129078E+01  0.10108509820E+02  0.10500000000E+00 0.  1.
    3000001    1    5    5    0    0 -0.36032617825E+01  0.70389975116E+01  0.11025669721E+02  0.13605012835E+02  0.10000000000E+01 0. -1.
        -13    1    6    6    0    0  0.16619195524E+01  0.11498193001E+02  0.30453884150E+02  0.32594792586E+02  0.10500000000E+00 0.  1.
         13    1    6    6    0    0  0.87362234450E+00  0.56854879526E+01  0.15251141917E+02  0.16300194601E+02  0.10500000000E+00 0. -1.
</event>
<event>
11    0  0.3483054E-009  0.9118800E+02  0.7816531E-02  0.1126479E+00
         25   -1    0    0    0    0  0.00000000000E+00  0.00000000000E+00  0.99999998245E-14  0.12500000000E+03  0.12500000000E+03 0.  0.
    3000001    1    3    3    0    0  0.71102308255E+01  0.12396592195E+02  0.43441951106E+01  0.14970067187E+02  0.10000000000E+01 0. -1.
    1000022    2    1    0    0    0  0.13583646935E+02  0.55260741363E+02  0.23832434402E+02  0.62499998494E+02  0.99999941067E+01 0.  0.
    3000022    2    3    3    0    0  0.64734161096E+01  0.42864149168E+02  0.19488239292E+02  0.47529931306E+02  0.24999851155E+00 0.  0.
    1000022    2    1    0    0    0 -0.13583646935E+02 -0.55260741363E+02 -0.23832434402E+02  0.62500001506E+02  0.10000012936E+02 0.  0.
    3000022    2    5    5    0    0 -0.99291366206E+01 -0.41085277013E+02 -0.12872105916E+02  0.44185306977E+02  0.25000132807E+00 0.  0.
        -13    1    4    4    0    0  0.27659365087E+01  0.18725693920E+02  0.85360476760E+01  0.20764805621E+02  0.10500000000E+00 0.  1.
         13    1    4    4    0    0  0.37074796009E+01  0.24138455248E+02  0.10952191616E+02  0.26765125685E+02  0.10500000000E+00 0. -1.
    3000001    1    5    5    0    0 -0.36545103145E+01 -0.14175464349E+02 -0.10960328486E+02  0.18314694529E+02  0.10000000000E+01 0. -1.
        -13    1    6    6    0    0 -0.51171590604E+01 -0.21405523503E+02 -0.66603579201E+01  0.22994632981E+02  0.10500000000E+00 0.  1.
         13    1    6    6    0    0 -0.48119775602E+01 -0.19679753510E+02 -0.62117479957E+01  0.21190673997E+02  0.10500000000E+00 0. -1.
</event>
<event>
11    0  0.3483054E-009  0.9118800E+02  0.7816531E-02  0.1126479E+00
         25   -1    0    0    0    0  0.00000000000E+00  0.00000000000E+00  0.99999998245E-14  0.12500000000E+03  0.12500000000E+03 0.  0.
    3000001    1    3    3    0    0 -0.59075192209E+01  0.20362668750E+02 -0.17404797935E+02  0.27449299684E+02  0.10000000000E+01 0. -1.
    1000022    2    1    0    0    0 -0.69720959707E+01  0.40180225711E+02 -0.46294591016E+02  0.62499999165E+02  0.10000003896E+02 0.  0.
    3000022    2    3    3    0    0 -0.10645767499E+01  0.19817556961E+02 -0.28889793080E+02  0.35050699481E+02  0.25000467657E+00 0.  0.
    1000022    2    1    0    0    0  0.69720959707E+01 -0.40180225711E+02  0.46294591016E+02  0.62500000835E+02  0.10000014335E+02 0.  0.
    3000022    2    5    5    0    0 -0.32702062197E+00 -0.39034113055E+01  0.96264941219E+01  0.10395934811E+02  0.25001842141E+00 0.  0.
        -13    1    4    4    0    0 -0.63945287044E+00  0.10739890964E+02 -0.15704158068E+02  0.19036432531E+02  0.10500000000E+00 0. -1.
         13    1    4    4    0    0 -0.42512387942E+00  0.90776659962E+01 -0.13185635013E+02  0.16014266950E+02  0.10500000000E+00 0.  1.
    3000001    1    5    5    0    0  0.72991165927E+01 -0.36276814405E+02  0.36668096894E+02  0.52104066024E+02  0.10000000000E+01 0.  1.
        -13    1    6    6    0    0 -0.56773825176E-01 -0.10458642219E+01  0.26268128814E+01  0.28298809431E+01  0.10500000000E+00 0.  1.
         13    1    6    6    0    0 -0.27024679680E+00 -0.28575470836E+01  0.69996812404E+01  0.75660538680E+01  0.10500000000E+00 0. -1.
</event>
<event>
11    0  0.3483054E-009  0.9118800E+02  0.7816531E-02  0.1126479E+00
         25   -1    0    0    0    0  0.00000000000E+00  0.00000000000E+00  0.99999998245E-14  0.12500000000E+03  0.12500000000E+03 0.  0.
    3000001    1    3    3    0    0 -0.83982219339E+01  0.18305996604E+02  0.28482377342E+02  0.34898215748E+02  0.10000000000E+01 0. -1.
    1000022    2    1    0    0    0 -0.12948685848E+02  0.39442959247E+02  0.45638082919E+02  0.62500002762E+02  0.10000011674E+02 0.  0.
    3000022    2    3    3    0    0 -0.45504639143E+01  0.21136962643E+02  0.17155705577E+02  0.27601787015E+02  0.25000195636E+00 0.  0.
    1000022    2    1    0    0    0  0.12948685848E+02 -0.39442959247E+02 -0.45638082919E+02  0.62499997238E+02  0.99999771427E+01 0.  0.
    3000022    2    5    5    0    0  0.58055791452E+01 -0.55072637614E+01 -0.83433780031E+01  0.11563267698E+02  0.25000000535E+00 0.  0.
        -13    1    4    4    0    0 -0.22426326025E+01  0.10608403184E+02  0.85337076443E+01  0.13798652480E+02  0.10500000000E+00 0.  1.
         13    1    4    4    0    0 -0.23078313118E+01  0.10528559459E+02  0.86219979324E+01  0.13803134535E+02  0.10500000000E+00 0. -1.
    3000001    1    5    5    0    0  0.71431067030E+01 -0.33935695486E+02 -0.37294704915E+02  0.50936729540E+02  0.10000000000E+01 0.  1.
        -13    1    6    6    0    0  0.28821619207E+01 -0.28078719232E+01 -0.41348723144E+01  0.57705455661E+01  0.10500000000E+00 0.  1.
         13    1    6    6    0    0  0.29234172245E+01 -0.26993918382E+01 -0.42085056888E+01  0.57927221319E+01  0.10500000000E+00 0. -1.
</event>
<event>
11    0  0.3483054E-009  0.9118800E+02  0.7816531E-02  0.1126479E+00
         25   -1    0    0    0    0  0.00000000000E+00  0.00000000000E+00  0.99999998245E-14  0.12500000000E+03  0.12500000000E+03 0.  0.
    3000001    1    3    3    0    0  0.15249649277E+02  0.18948440943E+02  0.85723637407E+01  0.25808538071E+02  0.10000000000E+01 0. -1.
    1000022    2    1    0    0    0  0.26613211517E+02  0.49796584640E+02  0.24865379958E+02  0.62500000140E+02  0.10000001401E+02 0.  0.
    3000022    2    3    3    0    0  0.11363562240E+02  0.30848143697E+02  0.16293016218E+02  0.36691462069E+02  0.24999001098E+00 0.  0.
    1000022    2    1    0    0    0 -0.26613211517E+02 -0.49796584640E+02 -0.24865379958E+02  0.62499999860E+02  0.99999996503E+01 0.  0.
    3000022    2    5    5    0    0 -0.43966386177E+01 -0.68647763623E+01 -0.55123324333E-01  0.81560479647E+01  0.24998836514E+00 0.  0.
        -13    1    4    4    0    0  0.69711133880E+01  0.18745570864E+02  0.99201862882E+01  0.22325186895E+02  0.10500000000E+00 0. -1.
         13    1    4    4    0    0  0.43924488519E+01  0.12102572832E+02  0.63728299295E+01  0.14366275175E+02  0.10500000000E+00 0.  1.
    3000001    1    5    5    0    0 -0.22216572899E+02 -0.42931808277E+02 -0.24810256634E+02  0.54343951895E+02  0.10000000000E+01 0.  1.
        -13    1    6    6    0    0 -0.22545175509E+01 -0.36451303873E+01 -0.32534518818E-01  0.42874127889E+01  0.10500000000E+00 0.  1.
         13    1    6    6    0    0 -0.21421210669E+01 -0.32196459750E+01 -0.22588805515E-01  0.38686351758E+01  0.10500000000E+00 0. -1.
</event>
<event>
11    0  0.3483054E-009  0.9118800E+02  0.7816531E-02  0.1126479E+00
         25   -1    0    0    0    0  0.00000000000E+00  0.00000000000E+00  0.99999998245E-14  0.12500000000E+03  0.12500000000E+03 0.  0.
    3000001    1    3    3    0    0  0.78493190800E+01  0.17347236750E+02  0.49471377910E+01  0.19698035567E+02  0.10000000000E+01 0.  1.
    1000022    2    1    0    0    0  0.10953290963E+02  0.57834143094E+02  0.18479375415E+02  0.62500000250E+02  0.10000001258E+02 0.  0.
    3000022    2    3    3    0    0  0.31039718832E+01  0.40486906344E+02  0.13532237624E+02  0.42801964683E+02  0.24999767154E+00 0.  0.
    1000022    2    1    0    0    0 -0.10953290963E+02 -0.57834143094E+02 -0.18479375415E+02  0.62499999750E+02  0.99999981342E+01 0.  0.
    3000022    2    5    5    0    0 -0.12549202314E+02 -0.45008125491E+02 -0.15069666873E+02  0.49095531356E+02  0.25000102995E+00 0.  0.
        -13    1    4    4    0    0  0.18452034521E+01  0.24795840462E+02  0.83144232698E+01  0.26217916380E+02  0.10500000000E+00 0. -1.
         13    1    4    4    0    0  0.12587684311E+01  0.15691065882E+02  0.52178143538E+01  0.16584048303E+02  0.10500000000E+00 0.  1.
    3000001    1    5    5    0    0  0.15959113505E+01 -0.12826017603E+02 -0.34097085415E+01  0.13404468394E+02  0.10000000000E+01 0.  1.
        -13    1    6    6    0    0 -0.93995678864E+01 -0.33783105468E+02 -0.11328042546E+02  0.36850857038E+02  0.10500000000E+00 0. -1.
         13    1    6    6    0    0 -0.31496344274E+01 -0.11225020023E+02 -0.37416243277E+01  0.12244674318E+02  0.10500000000E+00 0.  1.
</event>
<event>
11    0  0.3483054E-009  0.9118800E+02  0.7816531E-02  0.1126479E+00
         25   -1    0    0    0    0  0.00000000000E+00  0.00000000000E+00  0.99999998245E-14  0.12500000000E+03  0.12500000000E+03 0.  0.
    3000001    1    3    3    0    0  0.34929686944E+02 -0.72947144200E+01  0.28473091866E+02  0.45661940923E+02  0.10000000000E+01 0. -1.
    1000022    2    1    0    0    0  0.48781304808E+02 -0.42163116263E+01  0.37534749081E+02  0.62499993367E+02  0.99999399879E+01 0.  0.
    3000022    2    3    3    0    0  0.13851617865E+02  0.30784027936E+01  0.90616572149E+01  0.16838052444E+02  0.24999478451E+00 0.  0.
    1000022    2    1    0    0    0 -0.48781304808E+02  0.42163116263E+01 -0.37534749081E+02  0.62500006633E+02  0.10000022902E+02 0.  0.
    3000022    2    5    5    0    0 -0.26817767073E+01 -0.16252087413E+01 -0.77053191954E+00  0.32387417561E+01  0.24999792619E+00 0.  0.
        -13    1    4    4    0    0  0.75452601823E+01  0.16889678521E+01  0.50157279878E+01  0.92169472100E+01  0.10500000000E+00 0. -1.
         13    1    4    4    0    0  0.63063576823E+01  0.13894349415E+01  0.40459292272E+01  0.76211052339E+01  0.10500000000E+00 0.  1.
    3000001    1    5    5    0    0 -0.46099528101E+02  0.58415203676E+01 -0.36764217161E+02  0.59261264877E+02  0.10000000000E+01 0.  1.
        -13    1    6    6    0    0 -0.10859288629E+01 -0.71412831462E+00 -0.27532913533E+00  0.13326859636E+01  0.10500000000E+00 0. -1.
         13    1    6    6    0    0 -0.15958478444E+01 -0.91108042667E+00 -0.49520278421E+00  0.19060557924E+01  0.10500000000E+00 0.  1.
</event>
<event>
11    0  0.3483054E-009  0.9118800E+02  0.7816531E-02  0.1126479E+00
         25   -1    0    0    0    0  0.00000000000E+00  0.00000000000E+00  0.99999998245E-14  0.12500000000E+03  0.12500000000E+03 0.  0.
    3000001    1    3    3    0    0 -0.22904962931E+01 -0.45570994776E-01  0.10974347902E+02  0.11255432549E+02  0.10000000000E+01 0.  1.
    1000022    2    1    0    0    0 -0.12267548016E+02 -0.20570162346E+02  0.56856183628E+02  0.62500000665E+02  0.10000007657E+02 0.  0.
    3000022    2    3    3    0    0 -0.99770517234E+01 -0.20524591351E+02  0.45881835726E+02  0.51244568116E+02  0.25000127755E+00 0.  0.
    1000022    2    1    0    0    0  0.12267548016E+02  0.20570162346E+02 -0.56856183628E+02  0.62499999335E+02  0.99999993414E+01 0.  0.
    3000022    2    5    5    0    0 -0.79743185752E+00  0.22253047318E+00 -0.72876776496E+01  0.73388118306E+01  0.24999236370E+00 0.  0.
        -13    1    4    4    0    0 -0.24664320182E+01 -0.50962088608E+01  0.11436348712E+02  0.12761493977E+02  0.10500000000E+00 0.  1.
         13    1    4    4    0    0 -0.75106197052E+01 -0.15428382490E+02  0.34445487014E+02  0.38483074140E+02  0.10500000000E+00 0. -1.
    3000001    1    5    5    0    0  0.13064979874E+02  0.20347631873E+02 -0.49568505979E+02  0.55161187504E+02  0.10000000000E+01 0. -1.
        -13    1    6    6    0    0 -0.19268020316E+00  0.68326618027E-01 -0.21771179988E+01  0.21892149205E+01  0.10500000000E+00 0.  1.
         13    1    6    6    0    0 -0.60475165435E+00  0.15420385516E+00 -0.51105596508E+01  0.51495969101E+01  0.10500000000E+00 0. -1.
</event>
<event>
11    0  0.3483054E-009  0.9118800E+02  0.7816531E-02  0.1126479E+00
         25   -1    0    0    0    0  0.00000000000E+00  0.00000000000E+00  0.99999998245E-14  0.12500000000E+03  0.12500000000E+03 0.  0.
    3000001    1    3    3    0    0 -0.16565401950E+02  0.96149032180E+01 -0.20646628330E+02  0.28180528154E+02  0.10000000000E+01 0.  1.
    1000022    2    1    0    0    0 -0.27912937337E+02  0.27443636806E+02 -0.47686106878E+02  0.62500000864E+02  0.10000002348E+02 0.  0.
    3000022    2    3    3    0    0 -0.11347535386E+02  0.17828733588E+02 -0.27039478548E+02  0.34319472710E+02  0.25001247166E+00 0.  0.
    1000022    2    1    0    0    0  0.27912937337E+02 -0.27443636806E+02  0.47686106878E+02  0.62499999136E+02  0.99999915454E+01 0.  0.
    3000022    2    5    5    0    0  0.22297759024E+02 -0.20972745004E+02  0.42691585611E+02  0.52532656919E+02  0.24994086090E+00 0.  0.
        -13    1    4    4    0    0 -0.51039324871E+01  0.78968587564E+01 -0.12013489558E+02  0.15255997555E+02  0.10500000000E+00 0. -1.
         13    1    4    4    0    0 -0.62436028993E+01  0.99318748312E+01 -0.15025988991E+02  0.19063475155E+02  0.10500000000E+00 0.  1.
    3000001    1    5    5    0    0  0.56151783129E+01 -0.64708918013E+01  0.49945212670E+01  0.99673422173E+01  0.10000000000E+01 0.  1.
        -13    1    6    6    0    0  0.13539184610E+02 -0.12728137225E+02  0.25809248846E+02  0.31803197136E+02  0.10500000000E+00 0. -1.
         13    1    6    6    0    0  0.87585744135E+01 -0.82446077794E+01  0.16882336765E+02  0.20729459782E+02  0.10500000000E+00 0.  1.
</event>
<event>
11    0  0.3483054E-009  0.9118800E+02  0.7816531E-02  0.1126479E+00
         25   -1    0    0    0    0  0.00000000000E+00  0.00000000000E+00  0.99999998245E-14  0.12500000000E+03  0.12500000000E+03 0.  0.
    3000001    1    3    3    0    0 -0.23100866135E+02 -0.39497875306E+02 -0.21326667317E+02  0.50493157049E+02  0.10000000000E+01 0. -1.
    1000022    2    1    0    0    0 -0.32258022004E+02 -0.45770220083E+02 -0.25898974660E+02  0.62500001271E+02  0.10000012016E+02 0.  0.
    3000022    2    3    3    0    0 -0.91571558684E+01 -0.62723447777E+01 -0.45723073429E+01  0.12006844222E+02  0.25000226230E+00 0.  0.
    1000022    2    1    0    0    0  0.32258022004E+02  0.45770220083E+02  0.25898974660E+02  0.62499998729E+02  0.99999961311E+01 0.  0.
    3000022    2    5    5    0    0  0.12792978061E+02  0.24297008565E+02  0.16396753638E+02  0.31983135310E+02  0.25000299866E+00 0.  0.
        -13    1    4    4    0    0 -0.44922672682E+01 -0.30040663015E+01 -0.22596699005E+01  0.58584991774E+01  0.10500000000E+00 0. -1.
         13    1    4    4    0    0 -0.46648886002E+01 -0.32682784762E+01 -0.23126374424E+01  0.61483450448E+01  0.10500000000E+00 0.  1.
    3000001    1    5    5    0    0  0.19465043943E+02  0.21473211518E+02  0.95022210222E+01  0.30516863419E+02  0.10000000000E+01 0. -1.
        -13    1    6    6    0    0  0.93566262357E+01  0.17794442439E+02  0.12043468399E+02  0.23435972186E+02  0.10500000000E+00 0. -1.
         13    1    6    6    0    0  0.34363518253E+01  0.65025661268E+01  0.43532852386E+01  0.85471631241E+01  0.10500000000E+00 0.  1.
</event>
<event>
11    0  0.3483054E-009  0.9118800E+02  0.7816531E-02  0.1126479E+00
         25   -1    0    0    0    0  0.00000000000E+00  0.00000000000E+00  0.99999998245E-14  0.12500000000E+03  0.12500000000E+03 0.  0.
    3000001    1    3    3    0    0  0.17432101159E+02 -0.26215565618E+02 -0.28265026016E+02  0.42320748188E+02  0.10000000000E+01 0.  1.
    1000022    2    1    0    0    0  0.24763361020E+02 -0.33221528671E+02 -0.45709474057E+02  0.62499998995E+02  0.99999919728E+01 0.  0.
    3000022    2    3    3    0    0  0.73312598611E+01 -0.70059630526E+01 -0.17444448041E+02  0.20179250806E+02  0.25001239183E+00 0.  0.
    1000022    2    1    0    0    0 -0.24763361020E+02  0.33221528671E+02  0.45709474057E+02  0.62500001005E+02  0.10000004542E+02 0.  0.
    3000022    2    5    5    0    0 -0.36393857702E+01  0.57442520315E+00  0.32888296583E+01  0.49450988126E+01  0.25001729312E+00 0.  0.
        -13    1    4    4    0    0  0.20354687489E+01 -0.18935003632E+01 -0.47932038121E+01  0.55420487581E+01  0.10500000000E+00 0.  1.
         13    1    4    4    0    0  0.52957911123E+01 -0.51124626894E+01 -0.12651244229E+02  0.14637202048E+02  0.10500000000E+00 0. -1.
    3000001    1    5    5    0    0 -0.21123975250E+02  0.32647103468E+02  0.42420644399E+02  0.57554902193E+02  0.10000000000E+01 0. -1.
        -13    1    6    6    0    0 -0.21526750238E+01  0.40349489953E+00  0.19653237594E+01  0.29445441704E+01  0.10500000000E+00 0.  1.
         13    1    6    6    0    0 -0.14867107463E+01  0.17093030362E+00  0.13235058989E+01  0.20005546422E+01  0.10500000000E+00 0. -1.
</event>
<event>
11    0  0.3483054E-009  0.9118800E+02  0.7816531E-02  0.1126479E+00
         25   -1    0    0    0    0  0.00000000000E+00  0.00000000000E+00  0.99999998245E-14  0.12500000000E+03  0.12500000000E+03 0.  0.
    3000001    1    3    3    0    0 -0.23715026316E+01 -0.18476406738E+02 -0.51164420780E+01  0.19343722760E+02  0.10000000000E+01 0.  1.
    1000022    2    1    0    0    0 -0.18901416275E+02 -0.58287107016E+02 -0.71832861763E+01  0.62499999771E+02  0.99999994802E+01 0.  0.
    3000022    2    3    3    0    0 -0.16529913643E+02 -0.39810700278E+02 -0.20668440982E+01  0.43156277011E+02  0.24999849071E+00 0.  0.
    1000022    2    1    0    0    0  0.18901416275E+02  0.58287107016E+02  0.71832861763E+01  0.62500000229E+02  0.10000002344E+02 0.  0.
    3000022    2    5    5    0    0  0.91106132957E+01  0.15503404048E+02  0.43793977668E+01  0.18509468830E+02  0.24999969990E+00 0.  0.
        -13    1    4    4    0    0 -0.59230947673E+01 -0.14126194133E+02 -0.75571077826E+00  0.15336705516E+02  0.10500000000E+00 0.  1.
         13    1    4    4    0    0 -0.10606818876E+02 -0.25684506145E+02 -0.13111333200E+01  0.27819571495E+02  0.10500000000E+00 0. -1.
    3000001    1    5    5    0    0  0.97908029794E+01  0.42783702968E+02  0.28038884094E+01  0.43990531400E+02  0.10000000000E+01 0.  1.
        -13    1    6    6    0    0  0.22632028370E+01  0.38725756336E+01  0.11169511556E+01  0.46235845405E+01  0.10500000000E+00 0.  1.
         13    1    6    6    0    0  0.68474104587E+01  0.11630828415E+02  0.32624466112E+01  0.13885884289E+02  0.10500000000E+00 0. -1.
</event>
<event>
11    0  0.3483054E-009  0.9118800E+02  0.7816531E-02  0.1126479E+00
         25   -1    0    0    0    0  0.00000000000E+00  0.00000000000E+00  0.99999998245E-14  0.12500000000E+03  0.12500000000E+03 0.  0.
    3000001    1    3    3    0    0 -0.81407082779E-01 -0.36485190214E+00 -0.42742120512E+00  0.11499708302E+01  0.10000000000E+01 0. -1.
    1000022    2    1    0    0    0 -0.29168977831E+02 -0.54332096521E+02  0.18558151942E+01  0.62499998780E+02  0.99999908689E+01 0.  0.
    3000022    2    3    3    0    0 -0.29087570748E+02 -0.53967244619E+02  0.22832363993E+01  0.61350027950E+02  0.24999438693E+00 0.  0.
    1000022    2    1    0    0    0  0.29168977831E+02  0.54332096521E+02 -0.18558151942E+01  0.62500001220E+02  0.10000006116E+02 0.  0.
    3000022    2    5    5    0    0  0.50907331005E+01  0.19060823103E+02  0.21819918321E+00  0.19731717019E+02  0.25000952009E+00 0.  0.
        -13    1    4    4    0    0 -0.91149562416E+01 -0.16830652248E+02  0.74336975900E+00  0.19155075202E+02  0.10500000000E+00 0.  1.
         13    1    4    4    0    0 -0.19972614507E+02 -0.37136592371E+02  0.15398666403E+01  0.42194952749E+02  0.10500000000E+00 0. -1.
    3000001    1    5    5    0    0  0.24078244731E+02  0.35271273418E+02 -0.20740143774E+01  0.42768284201E+02  0.10000000000E+01 0.  1.
        -13    1    6    6    0    0  0.37836934196E+01  0.14048795741E+02  0.17303924435E+00  0.14550806344E+02  0.10500000000E+00 0. -1.
         13    1    6    6    0    0  0.13070396809E+01  0.50120273620E+01  0.45159938865E-01  0.51809106753E+01  0.10500000000E+00 0.  1.
</event>
<event>
11    0  0.3483054E-009  0.9118800E+02  0.7816531E-02  0.1126479E+00
         25   -1    0    0    0    0  0.00000000000E+00  0.00000000000E+00  0.99999998245E-14  0.12500000000E+03  0.12500000000E+03 0.  0.
    3000001    1    3    3    0    0  0.13674737691E+02  0.23923083538E+02  0.32907439087E+01  0.27769432337E+02  0.10000000000E+01 0. -1.
    1000022    2    1    0    0    0  0.28610380318E+02  0.51607796167E+02  0.18009206564E+02  0.62500000660E+02  0.10000003718E+02 0.  0.
    3000022    2    3    3    0    0  0.14935642627E+02  0.27684712629E+02  0.14718462655E+02  0.34730568323E+02  0.24999813435E+00 0.  0.
    1000022    2    1    0    0    0 -0.28610380318E+02 -0.51607796167E+02 -0.18009206564E+02  0.62499999340E+02  0.99999954621E+01 0.  0.
    3000022    2    5    5    0    0 -0.96789661617E+01 -0.27060919857E+02 -0.69230452617E+01  0.29562929783E+02  0.24998443649E+00 0.  0.
        -13    1    4    4    0    0  0.62864210793E+01  0.11547462021E+02  0.61064224238E+01  0.14496978613E+02  0.10500000000E+00 0. -1.
         13    1    4    4    0    0  0.86492215480E+01  0.16137250609E+02  0.86120402315E+01  0.20233589710E+02  0.10500000000E+00 0.  1.
    3000001    1    5    5    0    0 -0.18931414156E+02 -0.24546876310E+02 -0.11086161302E+02  0.32937069556E+02  0.10000000000E+01 0. -1.
        -13    1    6    6    0    0 -0.69945527658E+01 -0.19507680742E+02 -0.49551313136E+01  0.21308161057E+02  0.10500000000E+00 0. -1.
         13    1    6    6    0    0 -0.26844133959E+01 -0.75532391149E+01 -0.19679139481E+01  0.82547687257E+01  0.10500000000E+00 0.  1.
</event>
<event>
11    0  0.3483054E-009  0.9118800E+02  0.7816531E-02  0.1126479E+00
         25   -1    0    0    0    0  0.00000000000E+00  0.00000000000E+00  0.99999998245E-14  0.12500000000E+03  0.12500000000E+03 0.  0.
    3000001    1    3    3    0    0  0.30165426445E+02  0.44306321904E+02 -0.49118211658E+01  0.53834274402E+02  0.10000000000E+01 0.  1.
    1000022    2    1    0    0    0  0.36232576966E+02  0.49883966626E+02 -0.22450156326E+01  0.62499999260E+02  0.10000002617E+02 0.  0.
    3000022    2    3    3    0    0  0.60671505203E+01  0.55776447228E+01  0.26668055332E+01  0.86657248575E+01  0.24999893164E+00 0.  0.
    1000022    2    1    0    0    0 -0.36232576966E+02 -0.49883966626E+02  0.22450156326E+01  0.62500000740E+02  0.10000011867E+02 0.  0.
    3000022    2    5    5    0    0 -0.29926801447E+02 -0.45871256616E+02  0.33758936919E+01  0.54874810139E+02  0.25000236290E+00 0.  0.
        -13    1    4    4    0    0  0.35293316246E+01  0.33159975541E+01  0.15280245838E+01  0.50791638705E+01  0.10500000000E+00 0.  1.
         13    1    4    4    0    0  0.25378188957E+01  0.22616471687E+01  0.11387809493E+01  0.35865609870E+01  0.10500000000E+00 0. -1.
    3000001    1    5    5    0    0 -0.63057755182E+01 -0.40127100105E+01 -0.11308780593E+01  0.76251906009E+01  0.10000000000E+01 0.  1.
        -13    1    6    6    0    0 -0.83818759341E+01 -0.12897361256E+02  0.97746167983E+00  0.15413118694E+02  0.10500000000E+00 0.  1.
         13    1    6    6    0    0 -0.21544925513E+02 -0.32973895360E+02  0.23984320121E+01  0.39461691445E+02  0.10500000000E+00 0. -1.
</event>
<event>
11    0  0.3483054E-009  0.9118800E+02  0.7816531E-02  0.1126479E+00
         25   -1    0    0    0    0  0.00000000000E+00  0.00000000000E+00  0.99999998245E-14  0.12500000000E+03  0.12500000000E+03 0.  0.
    3000001    1    3    3    0    0 -0.96136997773E+01 -0.15223557230E+02 -0.12391960317E+02  0.21880141650E+02  0.10000000000E+01 0. -1.
    1000022    2    1    0    0    0 -0.38183066631E+02 -0.39113810148E+02 -0.28607921963E+02  0.62499999090E+02  0.99999982799E+01 0.  0.
    3000022    2    3    3    0    0 -0.28569366854E+02 -0.23890252918E+02 -0.16215961646E+02  0.40619857440E+02  0.24999884671E+00 0.  0.
    1000022    2    1    0    0    0  0.38183066631E+02  0.39113810148E+02  0.28607921963E+02  0.62500000910E+02  0.10000009650E+02 0.  0.
    3000022    2    5    5    0    0  0.16895197501E+01  0.59532343172E+01  0.23330819950E+01  0.66182510378E+01  0.24999876247E+00 0.  0.
        -13    1    4    4    0    0 -0.17366492742E+02 -0.14470685648E+02 -0.97901787876E+01  0.24634415742E+02  0.10500000000E+00 0.  1.
         13    1    4    4    0    0 -0.11202874112E+02 -0.94195672698E+01 -0.64257828587E+01  0.15985441698E+02  0.10500000000E+00 0. -1.
    3000001    1    5    5    0    0  0.36493546881E+02  0.33160575831E+02  0.26274839968E+02  0.55881749872E+02  0.10000000000E+01 0. -1.
        -13    1    6    6    0    0  0.68620428304E+00  0.23092534950E+01  0.96667826973E+00  0.25978875841E+01  0.10500000000E+00 0.  1.
         13    1    6    6    0    0  0.10033154671E+01  0.36439808222E+01  0.13664037253E+01  0.40203634537E+01  0.10500000000E+00 0. -1.
</event>
<event>
11    0  0.3483054E-009  0.9118800E+02  0.7816531E-02  0.1126479E+00
         25   -1    0    0    0    0  0.00000000000E+00  0.00000000000E+00  0.99999998245E-14  0.12500000000E+03  0.12500000000E+03 0.  0.
    3000001    1    3    3    0    0  0.15537014146E+00  0.13584199117E+00  0.56314674464E+00  0.11660734040E+01  0.10000000000E+01 0.  1.
    1000022    2    1    0    0    0  0.51941760980E+02 -0.15833851877E+02  0.29284683864E+02  0.62500000348E+02  0.99999967801E+01 0.  0.
    3000022    2    3    3    0    0  0.51786390838E+02 -0.15969693869E+02  0.28721537119E+02  0.61333926945E+02  0.25000326680E+00 0.  0.
    1000022    2    1    0    0    0 -0.51941760980E+02  0.15833851877E+02 -0.29284683864E+02  0.62499999652E+02  0.99999924239E+01 0.  0.
    3000022    2    5    5    0    0 -0.30040453903E+02  0.12264231320E+02 -0.21666213424E+02  0.39017015718E+02  0.24994160811E+00 0.  0.
        -13    1    4    4    0    0  0.38720999342E+02 -0.11911597709E+02  0.21471222004E+02  0.45850041978E+02  0.10500000000E+00 0.  1.
         13    1    4    4    0    0  0.13065391496E+02 -0.40580961593E+01  0.72503151157E+01  0.15483884967E+02  0.10500000000E+00 0. -1.
    3000001    1    5    5    0    0 -0.21901307076E+02  0.35696205573E+01 -0.76184704397E+01  0.23482983933E+02  0.10000000000E+01 0.  1.
        -13    1    6    6    0    0 -0.19700208496E+02  0.80941123442E+01 -0.14255325081E+02  0.25628854590E+02  0.10500000000E+00 0.  1.
         13    1    6    6    0    0 -0.10340245407E+02  0.41701189760E+01 -0.74108883436E+01  0.13388161128E+02  0.10500000000E+00 0. -1.
</event>
<event>
11    0  0.3483054E-009  0.9118800E+02  0.7816531E-02  0.1126479E+00
         25   -1    0    0    0    0  0.00000000000E+00  0.00000000000E+00  0.99999998245E-14  0.12500000000E+03  0.12500000000E+03 0.  0.
    3000001    1    3    3    0    0  0.27311807044E+01  0.44597528860E+02 -0.20765311728E+02  0.49280798488E+02  0.10000000000E+01 0. -1.
    1000022    2    1    0    0    0 -0.32489085968E+00  0.54417649893E+02 -0.29066543157E+02  0.62500000178E+02  0.99999958599E+01 0.  0.
    3000022    2    3    3    0    0 -0.30560715641E+01  0.98201210322E+01 -0.83012314295E+01  0.13219201689E+02  0.24999913423E+00 0.  0.
    1000022    2    1    0    0    0  0.32489085968E+00 -0.54417649893E+02  0.29066543157E+02  0.62499999822E+02  0.99999936377E+01 0.  0.
    3000022    2    5    5    0    0  0.38987973087E+01 -0.32503810504E+02  0.20800012474E+02  0.38786613443E+02  0.25009134699E+00 0.  0.
        -13    1    4    4    0    0 -0.18709188057E+01  0.61852556917E+01 -0.52539089853E+01  0.83290041287E+01  0.10500000000E+00 0.  1.
         13    1    4    4    0    0 -0.11851527584E+01  0.36348653405E+01 -0.30473224442E+01  0.48901975607E+01  0.10500000000E+00 0. -1.
    3000001    1    5    5    0    0 -0.35739064490E+01 -0.21913839388E+02  0.82665306832E+01  0.23713386379E+02  0.10000000000E+01 0.  1.
        -13    1    6    6    0    0  0.15816524488E+01 -0.13649358451E+02  0.87708809358E+01  0.16301717332E+02  0.10500000000E+00 0.  1.
         13    1    6    6    0    0  0.23171448599E+01 -0.18854452054E+02  0.12029131538E+02  0.22484896111E+02  0.10500000000E+00 0. -1.
</event>
<event>
11    0  0.3483054E-009  0.9118800E+02  0.7816531E-02  0.1126479E+00
         25   -1    0    0    0    0  0.00000000000E+00  0.00000000000E+00  0.99999998245E-14  0.12500000000E+03  0.12500000000E+03 0.  0.
    3000001    1    3    3    0    0  0.17745160331E+01  0.23853960891E+02  0.15887831319E+02  0.28732969589E+02  0.10000000000E+01 0. -1.
    1000022    2    1    0    0    0 -0.41286317603E+01  0.46992625982E+02  0.39760505873E+02  0.62499995906E+02  0.99999582062E+01 0.  0.
    3000022    2    3    3    0    0 -0.59031477935E+01  0.23138665091E+02  0.23872674554E+02  0.33767026318E+02  0.24999988018E+00 0.  0.
    1000022    2    1    0    0    0  0.41286317603E+01 -0.46992625982E+02 -0.39760505873E+02  0.62500004094E+02  0.10000009376E+02 0.  0.
    3000022    2    5    5    0    0  0.53278805339E+01 -0.31304105876E+02 -0.31383684040E+02  0.44646740953E+02  0.24999630305E+00 0.  0.
        -13    1    4    4    0    0 -0.30664271806E+01  0.12287842191E+02  0.12643738196E+02  0.17896066102E+02  0.10500000000E+00 0. -1.
         13    1    4    4    0    0 -0.28367206129E+01  0.10850822900E+02  0.11228936358E+02  0.15870960216E+02  0.10500000000E+00 0.  1.
    3000001    1    5    5    0    0 -0.11992487736E+01 -0.15688520106E+02 -0.83768218335E+01  0.17853263140E+02  0.10000000000E+01 0.  1.
        -13    1    6    6    0    0  0.18143371169E+01 -0.10453732037E+02 -0.10544085927E+02  0.14958646520E+02  0.10500000000E+00 0. -1.
         13    1    6    6    0    0  0.35135434170E+01 -0.20850373839E+02 -0.20839598113E+02  0.29688094433E+02  0.10500000000E+00 0.  1.
</event>
<event>
11    0  0.3483054E-009  0.9118800E+02  0.7816531E-02  0.1126479E+00
         25   -1    0    0    0    0  0.00000000000E+00  0.00000000000E+00  0.99999998245E-14  0.12500000000E+03  0.12500000000E+03 0.  0.
    3000001    1    3    3    0    0  0.89007114924E+01  0.13395437715E+02  0.24996954082E+01  0.16306713151E+02  0.10000000000E+01 0. -1.
    1000022    2    1    0    0    0  0.40215716937E+02  0.46521467120E+02 -0.49698246686E+01  0.62499998805E+02  0.99999950801E+01 0.  0.
    3000022    2    3    3    0    0  0.31315005444E+02  0.33126029404E+02 -0.74695200768E+01  0.46193285653E+02  0.25003838300E+00 0.  0.
    1000022    2    1    0    0    0 -0.40215716937E+02 -0.46521467120E+02  0.49698246686E+01  0.62500001195E+02  0.10000010024E+02 0.  0.
    3000022    2    5    5    0    0 -0.26946837292E+02 -0.29457986520E+02 -0.13821358361E+01  0.39948439399E+02  0.25000217320E+00 0.  0.
        -13    1    4    4    0    0  0.21625584741E+02  0.22806913668E+02 -0.51403070218E+01  0.31847370499E+02  0.10500000000E+00 0.  1.
         13    1    4    4    0    0  0.96894207039E+01  0.10319115736E+02 -0.23292130550E+01  0.14345915154E+02  0.10500000000E+00 0. -1.
    3000001    1    5    5    0    0 -0.13268879644E+02 -0.17063480599E+02  0.63519605047E+01  0.22551561796E+02  0.10000000000E+01 0. -1.
        -13    1    6    6    0    0 -0.20714345985E+02 -0.22635631465E+02 -0.10696852847E+01  0.30701973764E+02  0.10500000000E+00 0.  1.
         13    1    6    6    0    0 -0.62324913073E+01 -0.68223550555E+01 -0.31245055144E+00  0.92464656354E+01  0.10500000000E+00 0. -1.
</event>
<event>
11    0  0.3483054E-009  0.9118800E+02  0.7816531E-02  0.1126479E+00
         25   -1    0    0    0    0  0.00000000000E+00  0.00000000000E+00  0.99999998245E-14  0.12500000000E+03  0.12500000000E+03 0.  0.
    3000001    1    3    3    0    0  0.39152066605E+02  0.36212500390E+02  0.17640717881E+02  0.56182065032E+02  0.10000000000E+01 0.  1.
    1000022    2    1    0    0    0  0.44543274175E+02  0.39327344108E+02  0.16598388271E+02  0.62499997793E+02  0.99999981041E+01 0.  0.
    3000022    2    3    3    0    0  0.53912075700E+01  0.31148437183E+01 -0.10423296102E+01  0.63179327605E+01  0.24990577875E+00 0.  0.
    1000022    2    1    0    0    0 -0.44543274175E+02 -0.39327344108E+02 -0.16598388271E+02  0.62500002207E+02  0.10000025695E+02 0.  0.
    3000022    2    5    5    0    0 -0.39914013877E+02 -0.31268536594E+02 -0.15844924227E+02  0.53122255275E+02  0.24999449825E+00 0.  0.
        -13    1    4    4    0    0  0.26694665831E+01  0.16196410557E+01 -0.53301784591E+00  0.31692936140E+01  0.10500000000E+00 0. -1.
         13    1    4    4    0    0  0.27217409869E+01  0.14952026626E+01 -0.50931176429E+00  0.31486391465E+01  0.10500000000E+00 0.  1.
    3000001    1    5    5    0    0 -0.46292602974E+01 -0.80588075147E+01 -0.75346404416E+00  0.93777469323E+01  0.10000000000E+01 0. -1.
        -13    1    6    6    0    0 -0.13816027504E+02 -0.10784408744E+02 -0.55259429520E+01  0.18377517745E+02  0.10500000000E+00 0. -1.
         13    1    6    6    0    0 -0.26097986374E+02 -0.20484127849E+02 -0.10318981275E+02  0.34744737530E+02  0.10500000000E+00 0.  1.
</event>
<event>
11    0  0.3483054E-009  0.9118800E+02  0.7816531E-02  0.1126479E+00
         25   -1    0    0    0    0  0.00000000000E+00  0.00000000000E+00  0.99999998245E-14  0.12500000000E+03  0.12500000000E+03 0.  0.
    3000001    1    3    3    0    0  0.59243723664E+02  0.39409126092E+01  0.38757113636E+01  0.59509417106E+02  0.10000000000E+01 0. -1.
    1000022    2    1    0    0    0  0.61405894563E+02  0.54301552013E+01  0.24656584475E+01  0.62499999955E+02  0.10000002508E+02 0.  0.
    3000022    2    3    3    0    0  0.21621708996E+01  0.14892425921E+01 -0.14100529161E+01  0.29905828488E+01  0.25002010321E+00 0.  0.
    1000022    2    1    0    0    0 -0.61405894563E+02 -0.54301552013E+01 -0.24656584475E+01  0.62500000045E+02  0.10000003069E+02 0.  0.
    3000022    2    5    5    0    0 -0.49563818131E+02 -0.92402283201E+00 -0.10710940308E+00  0.49573176895E+02  0.25001817839E+00 0.  0.
        -13    1    4    4    0    0  0.83183225912E+00  0.64334003967E+00 -0.59344886228E+00  0.12120387230E+01  0.10500000000E+00 0.  1.
         13    1    4    4    0    0  0.13303386405E+01  0.84590255243E+00 -0.81660405381E+00  0.17785441258E+01  0.10500000000E+00 0. -1.
    3000001    1    5    5    0    0 -0.11842076432E+02 -0.45061323693E+01 -0.23585490444E+01  0.12926823150E+02  0.10000000000E+01 0. -1.
        -13    1    6    6    0    0 -0.31038850139E+02 -0.56615276962E+00 -0.12581059151E+00  0.31044445562E+02  0.10500000000E+00 0. -1.
         13    1    6    6    0    0 -0.18524967992E+02 -0.35787006239E+00  0.18701188437E-01  0.18528731333E+02  0.10500000000E+00 0.  1.
</event>
<event>
11    0  0.3483054E-009  0.9118800E+02  0.7816531E-02  0.1126479E+00
         25   -1    0    0    0    0  0.00000000000E+00  0.00000000000E+00  0.99999998245E-14  0.12500000000E+03  0.12500000000E+03 0.  0.
    3000001    1    3    3    0    0  0.85393770894E+01 -0.14358642824E+02 -0.24183412221E+01  0.16909759285E+02  0.10000000000E+01 0.  1.
    1000022    2    1    0    0    0  0.20355719362E+02 -0.54545696693E+02 -0.20412290329E+02  0.62499998888E+02  0.99999963022E+01 0.  0.
    3000022    2    3    3    0    0  0.11816342272E+02 -0.40187053869E+02 -0.17993949107E+02  0.45590239602E+02  0.24999836058E+00 0.  0.
    1000022    2    1    0    0    0 -0.20355719362E+02  0.54545696693E+02  0.20412290329E+02  0.62500001112E+02  0.10000010208E+02 0.  0.
    3000022    2    5    5    0    0 -0.68708911779E+01  0.30977820152E+02  0.13351653937E+02  0.34426205822E+02  0.24999492616E+00 0.  0.
        -13    1    4    4    0    0  0.83052422654E+01 -0.28347753788E+02 -0.12725877463E+02  0.32164128717E+02  0.10500000000E+00 0.  1.
         13    1    4    4    0    0  0.35111000068E+01 -0.11839300081E+02 -0.52680716438E+01  0.13426110885E+02  0.10500000000E+00 0. -1.
    3000001    1    5    5    0    0 -0.13484828184E+02  0.23567876540E+02  0.70606363922E+01  0.28073795291E+02  0.10000000000E+01 0. -1.
        -13    1    6    6    0    0 -0.26404731003E+01  0.12170779590E+02  0.52660315018E+01  0.13521911359E+02  0.10500000000E+00 0. -1.
         13    1    6    6    0    0 -0.42304180776E+01  0.18807040563E+02  0.80856224349E+01  0.20904294463E+02  0.10500000000E+00 0.  1.
</event>
<event>
11    0  0.3483054E-009  0.9118800E+02  0.7816531E-02  0.1126479E+00
         25   -1    0    0    0    0  0.00000000000E+00  0.00000000000E+00  0.99999998245E-14  0.12500000000E+03  0.12500000000E+03 0.  0.
    3000001    1    3    3    0    0  0.71793530764E+01 -0.11860821858E+02  0.11665986377E+01  0.13949306725E+02  0.10000000000E+01 0.  1.
    1000022    2    1    0    0    0  0.18773396509E+02 -0.58469502410E+02 -0.59268334651E+01  0.62500004210E+02  0.10000002138E+02 0.  0.
    3000022    2    3    3    0    0  0.11594043433E+02 -0.46608680552E+02 -0.70934321028E+01  0.48550697484E+02  0.25000260484E+00 0.  0.
    1000022    2    1    0    0    0 -0.18773396509E+02  0.58469502410E+02  0.59268334651E+01  0.62499995790E+02  0.99999495135E+01 0.  0.
    3000022    2    5    5    0    0 -0.11284694877E+02  0.30476593906E+02  0.78746764725E+01  0.33440097803E+02  0.24999387399E+00 0.  0.
        -13    1    4    4    0    0  0.33271522002E+01 -0.13501433037E+02 -0.20233151729E+01  0.14052169409E+02  0.10500000000E+00 0. -1.
         13    1    4    4    0    0  0.82668912327E+01 -0.33107247515E+02 -0.50701169300E+01  0.34498528075E+02  0.10500000000E+00 0.  1.
    3000001    1    5    5    0    0 -0.74887016323E+01  0.27992908504E+02 -0.19478430074E+01  0.29059897987E+02  0.10000000000E+01 0.  1.
        -13    1    6    6    0    0 -0.61726345314E+01  0.16489203664E+02  0.42898605212E+01  0.18122063426E+02  0.10500000000E+00 0. -1.
         13    1    6    6    0    0 -0.51120603456E+01  0.13987390242E+02  0.35848159513E+01  0.15318034377E+02  0.10500000000E+00 0.  1.
</event>
<event>
11    0  0.3483054E-009  0.9118800E+02  0.7816531E-02  0.1126479E+00
         25   -1    0    0    0    0  0.00000000000E+00  0.00000000000E+00  0.99999998245E-14  0.12500000000E+03  0.12500000000E+03 0.  0.
    3000001    1    3    3    0    0  0.10883942896E+02 -0.24748809723E+02  0.15536394714E+02  0.31198451185E+02  0.10000000000E+01 0. -1.
    1000022    2    1    0    0    0  0.30430135794E+02 -0.45334148746E+02  0.28724065262E+02  0.62500000520E+02  0.99999966456E+01 0.  0.
    3000022    2    3    3    0    0  0.19546192897E+02 -0.20585339023E+02  0.13187670547E+02  0.31301549335E+02  0.24999357878E+00 0.  0.
    1000022    2    1    0    0    0 -0.30430135794E+02  0.45334148746E+02 -0.28724065262E+02  0.62499999480E+02  0.99999901445E+01 0.  0.
    3000022    2    5    5    0    0 -0.19051049748E+02  0.19633883284E+02 -0.15106144499E+02  0.31252039387E+02  0.24998986300E+00 0.  0.
        -13    1    4    4    0    0  0.14431441087E+02 -0.15152491817E+02  0.97304596917E+01  0.23077204573E+02  0.10500000000E+00 0. -1.
         13    1    4    4    0    0  0.51147518106E+01 -0.54328472063E+01  0.34572108556E+01  0.82243447612E+01  0.10500000000E+00 0.  1.
    3000001    1    5    5    0    0 -0.11379086046E+02  0.25700265462E+02 -0.13617920762E+02  0.31247960093E+02  0.10000000000E+01 0.  1.
        -13    1    6    6    0    0 -0.44480583838E+01  0.45945950074E+01 -0.35437832520E+01  0.73119731540E+01  0.10500000000E+00 0. -1.
         13    1    6    6    0    0 -0.14602991364E+02  0.15039288276E+02 -0.11562361247E+02  0.23940066233E+02  0.10500000000E+00 0.  1.
</event>
<event>
11    0  0.3483054E-009  0.9118800E+02  0.7816531E-02  0.1126479E+00
         25   -1    0    0    0    0  0.00000000000E+00  0.00000000000E+00  0.99999998245E-14  0.12500000000E+03  0.12500000000E+03 0.  0.
    3000001    1    3    3    0    0  0.41396048267E+01  0.18196299762E+02  0.25716650049E+00  0.18689777628E+02  0.10000000000E+01 0. -1.
    1000022    2    1    0    0    0  0.73029333464E+01  0.59557237018E+02  0.14347566686E+02  0.62500000822E+02  0.10000005812E+02 0.  0.
    3000022    2    3    3    0    0  0.31633285197E+01  0.41360937256E+02  0.14090400185E+02  0.43810223195E+02  0.25000189983E+00 0.  0.
    1000022    2    1    0    0    0 -0.73029333464E+01 -0.59557237018E+02 -0.14347566686E+02  0.62499999178E+02  0.99999955369E+01 0.  0.
    3000022    2    5    5    0    0 -0.67639966109E+00 -0.59022537419E+01  0.15400655690E+01  0.61423463016E+01  0.25000079546E+00 0.  0.
        -13    1    4    4    0    0  0.22334412350E+01  0.29603975167E+02  0.10113287433E+02  0.31363565058E+02  0.10500000000E+00 0. -1.
         13    1    4    4    0    0  0.92988728464E+00  0.11756962089E+02  0.39771127523E+01  0.12446658136E+02  0.10500000000E+00 0.  1.
    3000001    1    5    5    0    0 -0.66265336853E+01 -0.53654983276E+02 -0.15887632255E+02  0.56357652876E+02  0.10000000000E+01 0.  1.
        -13    1    6    6    0    0 -0.20076361605E+00 -0.16058660900E+01  0.45426250975E+00  0.16841886344E+01  0.10500000000E+00 0. -1.
         13    1    6    6    0    0 -0.47563604503E+00 -0.42963876518E+01  0.10858030592E+01  0.44581576672E+01  0.10500000000E+00 0.  1.
</event>
<event>
11    0  0.3483054E-009  0.9118800E+02  0.7816531E-02  0.1126479E+00
         25   -1    0    0    0    0  0.00000000000E+00  0.00000000000E+00  0.99999998245E-14  0.12500000000E+03  0.12500000000E+03 0.  0.
    3000001    1    3    3    0    0 -0.35681204837E+02 -0.99193338510E+01 -0.26894485588E+02  0.45780508054E+02  0.10000000000E+01 0. -1.
    1000022    2    1    0    0    0 -0.51413762631E+02 -0.10194027170E+02 -0.32541620793E+02  0.62500001886E+02  0.99999987089E+01 0.  0.
    3000022    2    3    3    0    0 -0.15732557794E+02 -0.27469331904E+00 -0.56471352050E+01  0.16719493832E+02  0.25001365271E+00 0.  0.
    1000022    2    1    0    0    0  0.51413762631E+02  0.10194027170E+02  0.32541620793E+02  0.62499998114E+02  0.99999751337E+01 0.  0.
    3000022    2    5    5    0    0  0.39331309787E+02  0.84292680918E+01  0.19837519602E+02  0.44850799028E+02  0.24999871578E+00 0.  0.
        -13    1    4    4    0    0 -0.92469627541E+01 -0.12521453144E+00 -0.32625072488E+01  0.98069861529E+01  0.10500000000E+00 0. -1.
         13    1    4    4    0    0 -0.64855950398E+01 -0.14947878761E+00 -0.23846279562E+01  0.69125076794E+01  0.10500000000E+00 0.  1.
    3000001    1    5    5    0    0  0.12082452844E+02  0.17647590783E+01  0.12704101191E+02  0.17649199086E+02  0.10000000000E+01 0.  1.
        -13    1    6    6    0    0  0.12589412262E+02  0.27190687220E+01  0.63002189397E+01  0.14338424582E+02  0.10500000000E+00 0.  1.
         13    1    6    6    0    0  0.26741897525E+02  0.57101993698E+01  0.13537300662E+02  0.30512374446E+02  0.10500000000E+00 0. -1.
</event>
<event>
11    0  0.3483054E-009  0.9118800E+02  0.7816531E-02  0.1126479E+00
         25   -1    0    0    0    0  0.00000000000E+00  0.00000000000E+00  0.99999998245E-14  0.12500000000E+03  0.12500000000E+03 0.  0.
    3000001    1    3    3    0    0  0.11989180664E+02  0.38671310246E+02 -0.27036019656E+02  0.48694527906E+02  0.10000000000E+01 0. -1.
    1000022    2    1    0    0    0  0.19742803231E+02  0.49065906302E+02 -0.31764896345E+02  0.62500000208E+02  0.99999972728E+01 0.  0.
    3000022    2    3    3    0    0  0.77536225673E+01  0.10394596057E+02 -0.47288766890E+01  0.13805472302E+02  0.25000129238E+00 0.  0.
    1000022    2    1    0    0    0 -0.19742803231E+02 -0.49065906302E+02  0.31764896345E+02  0.62499999792E+02  0.99999946755E+01 0.  0.
    3000022    2    5    5    0    0 -0.35248824913E+01 -0.59460044927E+01  0.82536849763E+01  0.10768733181E+02  0.25006523955E+00 0.  0.
        -13    1    4    4    0    0  0.40684332386E+01  0.54774569129E+01 -0.25583757794E+01  0.72877290618E+01  0.10500000000E+00 0. -1.
         13    1    4    4    0    0  0.36851893288E+01  0.49171391440E+01 -0.21705009095E+01  0.65177432405E+01  0.10500000000E+00 0.  1.
    3000001    1    5    5    0    0 -0.16217920740E+02 -0.43119901810E+02  0.23511211369E+02  0.51731266612E+02  0.10000000000E+01 0.  1.
        -13    1    6    6    0    0 -0.90872092957E+00 -0.15211766595E+01  0.20726251442E+01  0.27288371417E+01  0.10500000000E+00 0.  1.
         13    1    6    6    0    0 -0.26161615617E+01 -0.44248278332E+01  0.61810598321E+01  0.80398960390E+01  0.10500000000E+00 0. -1.
</event>
<event>
11    0  0.3483054E-009  0.9118800E+02  0.7816531E-02  0.1126479E+00
         25   -1    0    0    0    0  0.00000000000E+00  0.00000000000E+00  0.99999998245E-14  0.12500000000E+03  0.12500000000E+03 0.  0.
    3000001    1    3    3    0    0 -0.40087967634E+01 -0.33482714711E+02  0.50414756796E+02  0.60661440295E+02  0.10000000000E+01 0.  1.
    1000022    2    1    0    0    0 -0.55703012327E+01 -0.33850016951E+02  0.51277657184E+02  0.62500001013E+02  0.10000004844E+02 0.  0.
    3000022    2    3    3    0    0 -0.15615044693E+01 -0.36730224078E+00  0.86290038861E+00  0.18385607181E+01  0.25000257967E+00 0.  0.
    1000022    2    1    0    0    0  0.55703012327E+01  0.33850016951E+02 -0.51277657184E+02  0.62499998987E+02  0.99999921793E+01 0.  0.
    3000022    2    5    5    0    0  0.51232677599E+01  0.32435648334E+02 -0.51045357679E+02  0.60696047609E+02  0.24999883584E+00 0.  0.
        -13    1    4    4    0    0 -0.88597887151E+00 -0.25202192874E+00  0.54971207302E+00  0.10778135166E+01  0.10500000000E+00 0.  1.
         13    1    4    4    0    0 -0.67552559781E+00 -0.11528031204E+00  0.31318831559E+00  0.76074720155E+00  0.10500000000E+00 0. -1.
    3000001    1    5    5    0    0  0.44703347285E+00  0.14143686177E+01 -0.23229950534E+00  0.18039513776E+01  0.10000000000E+01 0. -1.
        -13    1    6    6    0    0  0.21498586001E+01  0.13667657508E+02 -0.21626277523E+02  0.25673598467E+02  0.10500000000E+00 0. -1.
         13    1    6    6    0    0  0.29734091598E+01  0.18767990825E+02 -0.29419080156E+02  0.35022449142E+02  0.10500000000E+00 0.  1.
</event>
<event>
11    0  0.3483054E-009  0.9118800E+02  0.7816531E-02  0.1126479E+00
         25   -1    0    0    0    0  0.00000000000E+00  0.00000000000E+00  0.99999998245E-14  0.12500000000E+03  0.12500000000E+03 0.  0.
    3000001    1    3    3    0    0 -0.13661630039E+02 -0.48846419684E+01  0.59446295837E+01  0.15711094277E+02  0.10000000000E+01 0.  1.
    1000022    2    1    0    0    0 -0.58194621423E+02 -0.19181441641E+02  0.71908797934E+01  0.62499997181E+02  0.99999614710E+01 0.  0.
    3000022    2    3    3    0    0 -0.44532991384E+02 -0.14296799672E+02  0.12462502096E+01  0.46788902904E+02  0.24998583147E+00 0.  0.
    1000022    2    1    0    0    0  0.58194621423E+02  0.19181441641E+02 -0.71908797934E+01  0.62500002819E+02  0.99999967078E+01 0.  0.
    3000022    2    5    5    0    0  0.40880256221E+02  0.13278557929E+02 -0.47049188284E+00  0.42986036228E+02  0.24999710996E+00 0.  0.
        -13    1    4    4    0    0 -0.19107968349E+02 -0.61704407460E+01  0.59079785619E+00  0.20088525594E+02  0.10500000000E+00 0.  1.
         13    1    4    4    0    0 -0.25425023035E+02 -0.81263589264E+01  0.65545235343E+00  0.26700377310E+02  0.10500000000E+00 0. -1.
    3000001    1    5    5    0    0  0.17314365202E+02  0.59028837113E+01 -0.67203879105E+01  0.19513966591E+02  0.10000000000E+01 0. -1.
        -13    1    6    6    0    0  0.23209274834E+02  0.74723376248E+01 -0.28500804410E+00  0.24384390960E+02  0.10500000000E+00 0. -1.
         13    1    6    6    0    0  0.17670981387E+02  0.58062203047E+01 -0.18548383874E+00  0.18601645268E+02  0.10500000000E+00 0.  1.
</event>
<event>
11    0  0.3483054E-009  0.9118800E+02  0.7816531E-02  0.1126479E+00
         25   -1    0    0    0    0  0.00000000000E+00  0.00000000000E+00  0.99999998245E-14  0.12500000000E+03  0.12500000000E+03 0.  0.
    3000001    1    3    3    0    0 -0.25289296403E+02  0.27274251838E+00 -0.42598219682E+02  0.49550289819E+02  0.10000000000E+01 0.  1.
    1000022    2    1    0    0    0 -0.35663419725E+02  0.81082688616E-01 -0.50342464636E+02  0.62500000139E+02  0.10000009544E+02 0.  0.
    3000022    2    3    3    0    0 -0.10374123322E+02 -0.19165982976E+00 -0.77442449531E+01  0.12949710320E+02  0.24999856199E+00 0.  0.
    1000022    2    1    0    0    0  0.35663419725E+02 -0.81082688616E-01  0.50342464636E+02  0.62499999861E+02  0.10000007805E+02 0.  0.
    3000022    2    5    5    0    0  0.21073845415E+02 -0.44827026439E+01  0.32764500240E+02  0.39214494303E+02  0.25000780252E+00 0.  0.
        -13    1    4    4    0    0 -0.36604913383E+01 -0.11738842170E+00 -0.26991888334E+01  0.45507825962E+01  0.10500000000E+00 0. -1.
         13    1    4    4    0    0 -0.67136319839E+01 -0.74271408068E-01 -0.50450561197E+01  0.83989277238E+01  0.10500000000E+00 0.  1.
    3000001    1    5    5    0    0  0.14589574310E+02  0.44016199553E+01  0.17577964396E+02  0.23285505558E+02  0.10000000000E+01 0.  1.
        -13    1    6    6    0    0  0.12633240619E+02 -0.27513678338E+01  0.19649280043E+02  0.23521777669E+02  0.10500000000E+00 0. -1.
         13    1    6    6    0    0  0.84406047961E+01 -0.17313348101E+01  0.13115220197E+02  0.15692716634E+02  0.10500000000E+00 0.  1.
</event>
<event>
11    0  0.3483054E-009  0.9118800E+02  0.7816531E-02  0.1126479E+00
         25   -1    0    0    0    0  0.00000000000E+00  0.00000000000E+00  0.99999998245E-14  0.12500000000E+03  0.12500000000E+03 0.  0.
    3000001    1    3    3    0    0 -0.11012447266E+02 -0.11282018485E+02 -0.24200573190E+02  0.28900271254E+02  0.10000000000E+01 0. -1.
    1000022    2    1    0    0    0 -0.23920605391E+02 -0.14102721673E+02 -0.55092354848E+02  0.62499997294E+02  0.99999989130E+01 0.  0.
    3000022    2    3    3    0    0 -0.12908158126E+02 -0.28207031888E+01 -0.30891781658E+02  0.33599726040E+02  0.25000657991E+00 0.  0.
    1000022    2    1    0    0    0  0.23920605391E+02  0.14102721673E+02  0.55092354848E+02  0.62500002706E+02  0.10000032733E+02 0.  0.
    3000022    2    5    5    0    0  0.15384131408E+02  0.81497370664E+01  0.23670635357E+02  0.29384540010E+02  0.24999991762E+00 0.  0.
        -13    1    4    4    0    0 -0.86213486779E+01 -0.18313991569E+01 -0.20566642218E+02  0.22375868096E+02  0.10500000000E+00 0.  1.
         13    1    4    4    0    0 -0.42868094480E+01 -0.98930403192E+00 -0.10325139440E+02  0.11223857945E+02  0.10500000000E+00 0. -1.
    3000001    1    5    5    0    0  0.85364739832E+01  0.59529846070E+01  0.31421719491E+02  0.33115462696E+02  0.10000000000E+01 0.  1.
        -13    1    6    6    0    0  0.37096288532E+01  0.19436069817E+01  0.57046589627E+01  0.70776488475E+01  0.10500000000E+00 0.  1.
         13    1    6    6    0    0  0.11674502555E+02  0.62061300846E+01  0.17965976394E+02  0.22306891162E+02  0.10500000000E+00 0. -1.
</event>
<event>
11    0  0.3483054E-009  0.9118800E+02  0.7816531E-02  0.1126479E+00
         25   -1    0    0    0    0  0.00000000000E+00  0.00000000000E+00  0.99999998245E-14  0.12500000000E+03  0.12500000000E+03 0.  0.
    3000001    1    3    3    0    0  0.22767616221E+02 -0.55774155226E+02 -0.86453312106E+01  0.60867581613E+02  0.10000000000E+01 0.  1.
    1000022    2    1    0    0    0  0.23891723314E+02 -0.56035109334E+02 -0.97725266057E+01  0.62499998218E+02  0.99999790024E+01 0.  0.
    3000022    2    3    3    0    0  0.11241070924E+01 -0.26095410757E+00 -0.11271953952E+01  0.16324166057E+01  0.25000142846E+00 0.  0.
    1000022    2    1    0    0    0 -0.23891723314E+02  0.56035109334E+02  0.97725266057E+01  0.62500001782E+02  0.10000001274E+02 0.  0.
    3000022    2    5    5    0    0 -0.10095793230E+02  0.25529892102E+02 -0.51967895725E+00  0.27459661306E+02  0.25000236887E+00 0.  0.
        -13    1    4    4    0    0  0.53001839647E+00 -0.19133635813E+00 -0.52979784244E+00  0.78053818381E+00  0.10500000000E+00 0. -1.
         13    1    4    4    0    0  0.59408869589E+00 -0.69617749444E-01 -0.59739755271E+00  0.85187842185E+00  0.10500000000E+00 0. -1.
    3000001    1    5    5    0    0 -0.13795930084E+02  0.30505217232E+02  0.10292205563E+02  0.35040340475E+02  0.10000000000E+01 0. -1.
        -13    1    6    6    0    0 -0.55967441813E+01  0.14327182068E+02 -0.27492282906E+00  0.15384352408E+02  0.10500000000E+00 0. -1.
         13    1    6    6    0    0 -0.44990490484E+01  0.11202710033E+02 -0.24475612818E+00  0.12075308898E+02  0.10500000000E+00 0.  1.
</event>
<event>
11    0  0.3483054E-009  0.9118800E+02  0.7816531E-02  0.1126479E+00
         25   -1    0    0    0    0  0.00000000000E+00  0.00000000000E+00  0.99999998245E-14  0.12500000000E+03  0.12500000000E+03 0.  0.
    3000001    1    3    3    0    0  0.36801436006E+02  0.12098805537E+02  0.24512218461E+02  0.45853850890E+02  0.10000000000E+01 0. -1.
    1000022    2    1    0    0    0  0.48442355668E+02  0.21832214339E+02  0.31351916278E+02  0.62499999131E+02  0.99999915801E+01 0.  0.
    3000022    2    3    3    0    0  0.11640919661E+02  0.97334088015E+01  0.68396978167E+01  0.16646148242E+02  0.25005519643E+00 0.  0.
    1000022    2    1    0    0    0 -0.48442355668E+02 -0.21832214339E+02 -0.31351916278E+02  0.62500000869E+02  0.10000002436E+02 0.  0.
    3000022    2    5    5    0    0 -0.16736458269E+02 -0.12681591420E+02 -0.13539895978E+02  0.24986458023E+02  0.25001023110E+00 0.  0.
        -13    1    4    4    0    0  0.64753958454E+01  0.53349642632E+01  0.37520710219E+01  0.91913903734E+01  0.10500000000E+00 0. -1.
         13    1    4    4    0    0  0.51655238158E+01  0.43984445383E+01  0.30876267947E+01  0.74547578681E+01  0.10500000000E+00 0.  1.
    3000001    1    5    5    0    0 -0.31705897398E+02 -0.91506229184E+01 -0.17812020300E+02  0.37513542845E+02  0.10000000000E+01 0.  1.
        -13    1    6    6    0    0 -0.51137620349E+01 -0.38554212192E+01 -0.41829079119E+01  0.76500051325E+01  0.10500000000E+00 0.  1.
         13    1    6    6    0    0 -0.11622696234E+02 -0.88261702011E+01 -0.93569880658E+01  0.17336452891E+02  0.10500000000E+00 0. -1.
</event>
<event>
11    0  0.3483054E-009  0.9118800E+02  0.7816531E-02  0.1126479E+00
         25   -1    0    0    0    0  0.00000000000E+00  0.00000000000E+00  0.99999998245E-14  0.12500000000E+03  0.12500000000E+03 0.  0.
    3000001    1    3    3    0    0 -0.90148336613E+01 -0.38456484008E+01 -0.70565008382E+01  0.12118186401E+02  0.10000000000E+01 0.  1.
    1000022    2    1    0    0    0 -0.33423138706E+02 -0.34604647224E+02 -0.38622046390E+02  0.62500003839E+02  0.10000010107E+02 0.  0.
    3000022    2    3    3    0    0 -0.24408305044E+02 -0.30758998823E+02 -0.31565545552E+02  0.50381817439E+02  0.24999737526E+00 0.  0.
    1000022    2    1    0    0    0  0.33423138706E+02  0.34604647224E+02  0.38622046390E+02  0.62499996161E+02  0.99999621135E+01 0.  0.
    3000022    2    5    5    0    0  0.27973384327E+02  0.32894753407E+02  0.32327539438E+02  0.53941703257E+02  0.25002349856E+00 0.  0.
        -13    1    4    4    0    0 -0.13427652031E+02 -0.16846891766E+02 -0.17256426704E+02  0.27602805814E+02  0.10500000000E+00 0.  1.
         13    1    4    4    0    0 -0.10980653013E+02 -0.13912107058E+02 -0.14309118848E+02  0.22779011625E+02  0.10500000000E+00 0. -1.
    3000001    1    5    5    0    0  0.54497543790E+01  0.17098938173E+01  0.62945069517E+01  0.85582929035E+01  0.10000000000E+01 0. -1.
        -13    1    6    6    0    0  0.15615808682E+02  0.18344471520E+02  0.17954360345E+02  0.30045685157E+02  0.10500000000E+00 0. -1.
         13    1    6    6    0    0  0.12357575644E+02  0.14550281887E+02  0.14373179093E+02  0.23896018100E+02  0.10500000000E+00 0.  1.
</event>
<event>
11    0  0.3483054E-009  0.9118800E+02  0.7816531E-02  0.1126479E+00
         25   -1    0    0    0    0  0.00000000000E+00  0.00000000000E+00  0.99999998245E-14  0.12500000000E+03  0.12500000000E+03 0.  0.
    3000001    1    3    3    0    0 -0.25284692009E+02 -0.97832030505E+01 -0.39958075694E+02  0.48297769359E+02  0.10000000000E+01 0.  1.
    1000022    2    1    0    0    0 -0.34590210627E+02 -0.16440407424E+02 -0.48368174729E+02  0.62500000307E+02  0.10000002216E+02 0.  0.
    3000022    2    3    3    0    0 -0.93055186183E+01 -0.66572043730E+01 -0.84100990351E+01  0.14202230948E+02  0.25010258695E+00 0.  0.
    1000022    2    1    0    0    0  0.34590210627E+02  0.16440407424E+02  0.48368174729E+02  0.62499999693E+02  0.99999983722E+01 0.  0.
    3000022    2    5    5    0    0  0.18881336984E+02  0.11281320282E+02  0.34404369271E+02  0.40834987481E+02  0.25000799545E+00 0.  0.
        -13    1    4    4    0    0 -0.34419965522E+01 -0.25363282463E+01 -0.31442957033E+01  0.53082880204E+01  0.10500000000E+00 0.  1.
         13    1    4    4    0    0 -0.58635220662E+01 -0.41208761267E+01 -0.52658033317E+01  0.88939429277E+01  0.10500000000E+00 0. -1.
    3000001    1    5    5    0    0  0.15708873643E+02  0.51590871417E+01  0.13963805458E+02  0.21665012211E+02  0.10000000000E+01 0. -1.
        -13    1    6    6    0    0  0.47456683386E+01  0.28480284806E+01  0.87050194838E+01  0.10316056583E+02  0.10500000000E+00 0.  1.
         13    1    6    6    0    0  0.14135668646E+02  0.84332918012E+01  0.25699349788E+02  0.30518930898E+02  0.10500000000E+00 0. -1.
</event>
<event>
11    0  0.3483054E-009  0.9118800E+02  0.7816531E-02  0.1126479E+00
         25   -1    0    0    0    0  0.00000000000E+00  0.00000000000E+00  0.99999998245E-14  0.12500000000E+03  0.12500000000E+03 0.  0.
    3000001    1    3    3    0    0  0.29896617770E+02 -0.21221324917E+02 -0.45748279789E+00  0.36679172234E+02  0.10000000000E+01 0. -1.
    1000022    2    1    0    0    0  0.46745186127E+02 -0.39907907475E+02  0.53382126518E+01  0.62500001242E+02  0.10000006792E+02 0.  0.
    3000022    2    3    3    0    0  0.16848568357E+02 -0.18686582558E+02  0.57956954497E+01  0.25820829007E+02  0.25000297712E+00 0.  0.
    1000022    2    1    0    0    0 -0.46745186127E+02  0.39907907475E+02 -0.53382126518E+01  0.62499998758E+02  0.99999912713E+01 0.  0.
    3000022    2    5    5    0    0 -0.38258219794E+02  0.27438133536E+02 -0.27324974996E+01  0.47160063586E+02  0.25000231376E+00 0.  0.
        -13    1    4    4    0    0  0.81054830431E+01 -0.90504047026E+01  0.27430277444E+01  0.12455677695E+02  0.10500000000E+00 0. -1.
         13    1    4    4    0    0  0.87430853137E+01 -0.96361778558E+01  0.30526677053E+01  0.13365151312E+02  0.10500000000E+00 0.  1.
    3000001    1    5    5    0    0 -0.84869663331E+01  0.12469773939E+02 -0.26057151522E+01  0.15339935172E+02  0.10000000000E+01 0. -1.
        -13    1    6    6    0    0 -0.20299122256E+02  0.14475451659E+02 -0.14418727155E+01  0.24973647852E+02  0.10500000000E+00 0. -1.
         13    1    6    6    0    0 -0.17959097538E+02  0.12962681876E+02 -0.12906247841E+01  0.22186415734E+02  0.10500000000E+00 0.  1.
</event>
<event>
11    0  0.3483054E-009  0.9118800E+02  0.7816531E-02  0.1126479E+00
         25   -1    0    0    0    0  0.00000000000E+00  0.00000000000E+00  0.99999998245E-14  0.12500000000E+03  0.12500000000E+03 0.  0.
    3000001    1    3    3    0    0 -0.10286627886E+02 -0.47689542171E+01 -0.10083860420E+02  0.15206639292E+02  0.10000000000E+01 0.  1.
    1000022    2    1    0    0    0 -0.52344441976E+02 -0.10233848958E+02 -0.31009317753E+02  0.62500001013E+02  0.10000003445E+02 0.  0.
    3000022    2    3    3    0    0 -0.42057814090E+02 -0.54648947408E+01 -0.20925457332E+02  0.47293361721E+02  0.24999548729E+00 0.  0.
    1000022    2    1    0    0    0  0.52344441976E+02  0.10233848958E+02  0.31009317753E+02  0.62499998987E+02  0.99999907844E+01 0.  0.
    3000022    2    5    5    0    0  0.10678768928E+02  0.60901043903E+01  0.55915445092E+01  0.13507528890E+02  0.24997883991E+00 0.  0.
        -13    1    4    4    0    0 -0.20043835005E+02 -0.26121306113E+01 -0.98982586013E+01  0.22507001053E+02  0.10500000000E+00 0.  1.
         13    1    4    4    0    0 -0.22013979084E+02 -0.28527641295E+01 -0.11027198731E+02  0.24786360668E+02  0.10500000000E+00 0. -1.
    3000001    1    5    5    0    0  0.41665673047E+02  0.41437445676E+01  0.25417773243E+02  0.48992470097E+02  0.10000000000E+01 0. -1.
        -13    1    6    6    0    0  0.47894044296E+01  0.27882768168E+01  0.24715368578E+01  0.60689704100E+01  0.10500000000E+00 0.  1.
         13    1    6    6    0    0  0.58893644987E+01  0.33018275734E+01  0.31200076515E+01  0.74385584805E+01  0.10500000000E+00 0. -1.
</event>
<event>
11    0  0.3483054E-009  0.9118800E+02  0.7816531E-02  0.1126479E+00
         25   -1    0    0    0    0  0.00000000000E+00  0.00000000000E+00  0.99999998245E-14  0.12500000000E+03  0.12500000000E+03 0.  0.
    3000001    1    3    3    0    0 -0.22398790251E+02  0.10512469088E+02 -0.21513010245E+02  0.32802856900E+02  0.10000000000E+01 0. -1.
    1000022    2    1    0    0    0 -0.48429309186E+02  0.16025102204E+02 -0.34699392827E+02  0.62499998668E+02  0.10000004100E+02 0.  0.
    3000022    2    3    3    0    0 -0.26030518935E+02  0.55126331167E+01 -0.13186382583E+02  0.29697141767E+02  0.25000729754E+00 0.  0.
    1000022    2    1    0    0    0  0.48429309186E+02 -0.16025102204E+02  0.34699392827E+02  0.62500001332E+02  0.10000020756E+02 0.  0.
    3000022    2    5    5    0    0  0.38642735179E+02 -0.85933227524E+01  0.25094762941E+02  0.46871268439E+02  0.24999991581E+00 0.  0.
        -13    1    4    4    0    0 -0.11643774478E+02  0.25336090530E+01 -0.58984645194E+01  0.13296599851E+02  0.10500000000E+00 0. -1.
         13    1    4    4    0    0 -0.14386744457E+02  0.29790240637E+01 -0.72879180632E+01  0.16400541916E+02  0.10500000000E+00 0.  1.
    3000001    1    5    5    0    0  0.97865740068E+01 -0.74317794518E+01  0.96046298863E+01  0.15628732894E+02  0.10000000000E+01 0.  1.
        -13    1    6    6    0    0  0.14407962682E+02 -0.31758283748E+01  0.94158229218E+01  0.17502686102E+02  0.10500000000E+00 0.  1.
         13    1    6    6    0    0  0.24234772497E+02 -0.54174943776E+01  0.15678940019E+02  0.29368582336E+02  0.10500000000E+00 0. -1.
</event>
<event>
11    0  0.3483054E-009  0.9118800E+02  0.7816531E-02  0.1126479E+00
         25   -1    0    0    0    0  0.00000000000E+00  0.00000000000E+00  0.99999998245E-14  0.12500000000E+03  0.12500000000E+03 0.  0.
    3000001    1    3    3    0    0  0.44820504143E+01 -0.86163584310E+01  0.12565988279E+02  0.15913342514E+02  0.10000000000E+01 0. -1.
    1000022    2    1    0    0    0  0.30469282428E+02 -0.23137348184E+02  0.48399753530E+02  0.62499999478E+02  0.99999870173E+01 0.  0.
    3000022    2    3    3    0    0  0.25987232013E+02 -0.14520989753E+02  0.35833765251E+02  0.46586656964E+02  0.25000787128E+00 0.  0.
    1000022    2    1    0    0    0 -0.30469282428E+02  0.23137348184E+02 -0.48399753530E+02  0.62500000522E+02  0.99999935412E+01 0.  0.
    3000022    2    5    5    0    0 -0.25965153067E+02  0.14473896500E+02 -0.36527075959E+02  0.47095356771E+02  0.24999517827E+00 0.  0.
        -13    1    4    4    0    0  0.10348257541E+02 -0.57150346801E+01  0.14195395978E+02  0.18473449800E+02  0.10500000000E+00 0. -1.
         13    1    4    4    0    0  0.15638974472E+02 -0.88059550731E+01  0.21638369273E+02  0.28113207165E+02  0.10500000000E+00 0.  1.
    3000001    1    5    5    0    0 -0.45041293601E+01  0.86634516844E+01 -0.11872677571E+02  0.15404643751E+02  0.10000000000E+01 0. -1.
        -13    1    6    6    0    0 -0.99780125934E+01  0.55435581275E+01 -0.13932336694E+02  0.18011463094E+02  0.10500000000E+00 0. -1.
         13    1    6    6    0    0 -0.15987140474E+02  0.89303383723E+01 -0.22594739265E+02  0.29083893677E+02  0.10500000000E+00 0.  1.
</event>
<event>
11    0  0.3483054E-009  0.9118800E+02  0.7816531E-02  0.1126479E+00
         25   -1    0    0    0    0  0.00000000000E+00  0.00000000000E+00  0.99999998245E-14  0.12500000000E+03  0.12500000000E+03 0.  0.
    3000001    1    3    3    0    0 -0.12366911253E+01 -0.11543550348E+02  0.57914153406E+01  0.13012434485E+02  0.10000000000E+01 0. -1.
    1000022    2    1    0    0    0 -0.23882347600E+02 -0.52315486203E+02  0.22337718455E+02  0.62500000128E+02  0.99999863305E+01 0.  0.
    3000022    2    3    3    0    0 -0.22645656475E+02 -0.40771935855E+02  0.16546303114E+02  0.49487565643E+02  0.24999187218E+00 0.  0.
    1000022    2    1    0    0    0  0.23882347600E+02  0.52315486203E+02 -0.22337718455E+02  0.62499999872E+02  0.99999847332E+01 0.  0.
    3000022    2    5    5    0    0  0.20445461812E+01  0.13566014912E+02 -0.33339060395E+01  0.14120706962E+02  0.25001189345E+00 0.  0.
        -13    1    4    4    0    0 -0.91870369550E+01 -0.16464700116E+02  0.66343113519E+01  0.19987824045E+02  0.10500000000E+00 0. -1.
         13    1    4    4    0    0 -0.13458619520E+02 -0.24307235739E+02  0.99119917624E+01  0.29499741598E+02  0.10500000000E+00 0.  1.
    3000001    1    5    5    0    0  0.21837801419E+02  0.38749471292E+02 -0.19003812415E+02  0.48379292910E+02  0.10000000000E+01 0. -1.
        -13    1    6    6    0    0  0.11671799867E+01  0.73664526960E+01 -0.17751271555E+01  0.76674008544E+01  0.10500000000E+00 0.  1.
         13    1    6    6    0    0  0.87736619452E+00  0.61995622159E+01 -0.15587788840E+01  0.64533061075E+01  0.10500000000E+00 0. -1.
</event>
<event>
11    0  0.3483054E-009  0.9118800E+02  0.7816531E-02  0.1126479E+00
         25   -1    0    0    0    0  0.00000000000E+00  0.00000000000E+00  0.99999998245E-14  0.12500000000E+03  0.12500000000E+03 0.  0.
    3000001    1    3    3    0    0  0.24498814655E+01  0.94825244465E+01  0.22182440336E+02  0.24268927630E+02  0.10000000000E+01 0.  1.
    1000022    2    1    0    0    0 -0.29819868422E+01  0.31475524782E+02  0.52977816773E+02  0.62500000924E+02  0.10000006980E+02 0.  0.
    3000022    2    3    3    0    0 -0.54318683077E+01  0.21993000336E+02  0.30795376437E+02  0.38231073294E+02  0.24999636603E+00 0.  0.
    1000022    2    1    0    0    0  0.29819868422E+01 -0.31475524782E+02 -0.52977816773E+02  0.62499999076E+02  0.99999954314E+01 0.  0.
    3000022    2    5    5    0    0  0.18921175949E+01 -0.22644213407E+02 -0.45399416427E+02  0.50769183786E+02  0.25000098623E+00 0.  0.
        -13    1    4    4    0    0 -0.22126355013E+01  0.87588034951E+01  0.12349651540E+02  0.15301546088E+02  0.10500000000E+00 0. -1.
         13    1    4    4    0    0 -0.32192328064E+01  0.13234196841E+02  0.18445724898E+02  0.22929527206E+02  0.10500000000E+00 0.  1.
    3000001    1    5    5    0    0  0.10898692473E+01 -0.88313113750E+01 -0.75784003458E+01  0.11730815290E+02  0.10000000000E+01 0.  1.
        -13    1    6    6    0    0  0.82328305539E+00 -0.10572739785E+02 -0.21255851239E+02  0.23754638672E+02  0.10500000000E+00 0.  1.
         13    1    6    6    0    0  0.10688345395E+01 -0.12071473622E+02 -0.24143565189E+02  0.27014545114E+02  0.10500000000E+00 0. -1.
</event>
<event>
11    0  0.3483054E-009  0.9118800E+02  0.7816531E-02  0.1126479E+00
         25   -1    0    0    0    0  0.00000000000E+00  0.00000000000E+00  0.99999998245E-14  0.12500000000E+03  0.12500000000E+03 0.  0.
    3000001    1    3    3    0    0  0.30237128486E+00 -0.72096283068E+01 -0.36969861726E+01  0.81693252767E+01  0.10000000000E+01 0.  1.
    1000022    2    1    0    0    0  0.14658588268E+02 -0.59488236908E+02 -0.72474489816E+01  0.62499999555E+02  0.99999943610E+01 0.  0.
    3000022    2    3    3    0    0  0.14356216983E+02 -0.52278608601E+02 -0.35504628091E+01  0.54330674279E+02  0.24999610015E+00 0.  0.
    1000022    2    1    0    0    0 -0.14658588268E+02  0.59488236908E+02  0.72474489816E+01  0.62500000445E+02  0.99999999208E+01 0.  0.
    3000022    2    5    5    0    0  0.97331012106E+00  0.27166137649E+01  0.16703139474E+01  0.33436155253E+01  0.24998631697E+00 0.  0.
        -13    1    4    4    0    0  0.74412656574E+01 -0.27315967115E+02 -0.18891756700E+01  0.28374539709E+02  0.10500000000E+00 0.  1.
         13    1    4    4    0    0  0.69149513261E+01 -0.24962641486E+02 -0.16612871391E+01  0.25956134569E+02  0.10500000000E+00 0. -1.
    3000001    1    5    5    0    0 -0.15631898389E+02  0.56771623143E+02  0.55771350343E+01  0.59156384920E+02  0.10000000000E+01 0.  1.
        -13    1    6    6    0    0  0.40638413010E+00  0.12107553343E+01  0.81027650432E+00  0.15161297947E+01  0.10500000000E+00 0.  1.
         13    1    6    6    0    0  0.56692599096E+00  0.15058584306E+01  0.86003744303E+00  0.18274857306E+01  0.10500000000E+00 0. -1.
</event>
<event>
11    0  0.3483054E-009  0.9118800E+02  0.7816531E-02  0.1126479E+00
         25   -1    0    0    0    0  0.00000000000E+00  0.00000000000E+00  0.99999998245E-14  0.12500000000E+03  0.12500000000E+03 0.  0.
    3000001    1    3    3    0    0 -0.17645260555E+02  0.16960192789E+02  0.45678644414E+02  0.51831861967E+02  0.10000000000E+01 0.  1.
    1000022    2    1    0    0    0 -0.18692027215E+02  0.16971421101E+02  0.56292355025E+02  0.62500001430E+02  0.99999964467E+01 0.  0.
    3000022    2    3    3    0    0 -0.10467666599E+01  0.11228312367E-01  0.10613710611E+02  0.10668139463E+02  0.25000030877E+00 0.  0.
    1000022    2    1    0    0    0  0.18692027215E+02 -0.16971421101E+02 -0.56292355025E+02  0.62499998570E+02  0.99999785680E+01 0.  0.
    3000022    2    5    5    0    0  0.86171595001E+01 -0.11723913934E+02 -0.22141478167E+02  0.26495531054E+02  0.25002923839E+00 0.  0.
        -13    1    4    4    0    0 -0.70658133349E+00  0.36347881056E-01  0.66288207134E+01  0.66672983583E+01  0.10500000000E+00 0. -1.
         13    1    4    4    0    0 -0.34018532641E+00 -0.25119568688E-01  0.39848898977E+01  0.40008411048E+01  0.10500000000E+00 0.  1.
    3000001    1    5    5    0    0  0.10074867715E+02 -0.52475071674E+01 -0.34150876858E+02  0.36004467516E+02  0.10000000000E+01 0.  1.
        -13    1    6    6    0    0  0.53931511434E+01 -0.74255737164E+01 -0.14016650206E+02  0.16754185515E+02  0.10500000000E+00 0.  1.
         13    1    6    6    0    0  0.32240083566E+01 -0.42983402175E+01 -0.81248279609E+01  0.97413455387E+01  0.10500000000E+00 0. -1.
</event>
<event>
11    0  0.3483054E-009  0.9118800E+02  0.7816531E-02  0.1126479E+00
         25   -1    0    0    0    0  0.00000000000E+00  0.00000000000E+00  0.99999998245E-14  0.12500000000E+03  0.12500000000E+03 0.  0.
    3000001    1    3    3    0    0 -0.16370778578E+02  0.23197833326E+02  0.13641037153E+02  0.31515389207E+02  0.10000000000E+01 0.  1.
    1000022    2    1    0    0    0 -0.35192396806E+02  0.38579003133E+02  0.32854312301E+02  0.62500000548E+02  0.99999977968E+01 0.  0.
    3000022    2    3    3    0    0 -0.18821618228E+02  0.15381169807E+02  0.19213275149E+02  0.30984611341E+02  0.25000125077E+00 0.  0.
    1000022    2    1    0    0    0  0.35192396806E+02 -0.38579003133E+02 -0.32854312301E+02  0.62499999452E+02  0.99999909521E+01 0.  0.
    3000022    2    5    5    0    0  0.16450508726E+02 -0.24702787813E+02 -0.16075925097E+02  0.33754182407E+02  0.24999833925E+00 0.  0.
        -13    1    4    4    0    0 -0.13513246663E+02  0.11025416092E+02  0.13833772185E+02  0.22260995334E+02  0.10500000000E+00 0. -1.
         13    1    4    4    0    0 -0.53083715656E+01  0.43557537150E+01  0.53795029636E+01  0.87236160071E+01  0.10500000000E+00 0.  1.
    3000001    1    5    5    0    0  0.18741888080E+02 -0.13876215320E+02 -0.16778387205E+02  0.28745817046E+02  0.10000000000E+01 0.  1.
        -13    1    6    6    0    0  0.11759607818E+02 -0.17731753092E+02 -0.11529794684E+02  0.24200219714E+02  0.10500000000E+00 0. -1.
         13    1    6    6    0    0  0.46909009076E+01 -0.69710347210E+01 -0.45461304126E+01  0.95539626927E+01  0.10500000000E+00 0.  1.
</event>
<event>
11    0  0.3483054E-009  0.9118800E+02  0.7816531E-02  0.1126479E+00
         25   -1    0    0    0    0  0.00000000000E+00  0.00000000000E+00  0.99999998245E-14  0.12500000000E+03  0.12500000000E+03 0.  0.
    3000001    1    3    3    0    0 -0.29651176602E+02 -0.16950620107E+02 -0.94503299893E+01  0.35451721154E+02  0.10000000000E+01 0.  1.
    1000022    2    1    0    0    0 -0.55442874826E+02 -0.21865434315E+02 -0.15944943399E+02  0.62500004671E+02  0.99999888619E+01 0.  0.
    3000022    2    3    3    0    0 -0.25791698224E+02 -0.49148142080E+01 -0.64946134094E+01  0.27048283518E+02  0.25008385133E+00 0.  0.
    1000022    2    1    0    0    0  0.55442874826E+02  0.21865434315E+02  0.15944943399E+02  0.62499995329E+02  0.99999304696E+01 0.  0.
    3000022    2    5    5    0    0  0.25846458971E+02  0.14719237885E+02  0.51923982342E+01  0.30194683345E+02  0.24999525708E+00 0.  0.
        -13    1    4    4    0    0 -0.13867862731E+02 -0.26786252247E+01 -0.34348036625E+01  0.14536215154E+02  0.10500000000E+00 0.  1.
         13    1    4    4    0    0 -0.11923835493E+02 -0.22361889832E+01 -0.30598097470E+01  0.12512068363E+02  0.10500000000E+00 0. -1.
    3000001    1    5    5    0    0  0.29596415854E+02  0.71461964299E+01  0.10752545165E+02  0.32305311984E+02  0.10000000000E+01 0.  1.
        -13    1    6    6    0    0  0.14768116606E+02  0.84377651015E+01  0.30309700646E+01  0.17276890708E+02  0.10500000000E+00 0.  1.
         13    1    6    6    0    0  0.11078342365E+02  0.62814727832E+01  0.21614281695E+01  0.12917792637E+02  0.10500000000E+00 0. -1.
</event>
<event>
11    0  0.3483054E-009  0.9118800E+02  0.7816531E-02  0.1126479E+00
         25   -1    0    0    0    0  0.00000000000E+00  0.00000000000E+00  0.99999998245E-14  0.12500000000E+03  0.12500000000E+03 0.  0.
    3000001    1    3    3    0    0  0.61192193660E+02 -0.18185602147E+01  0.14002254323E+01  0.61243386234E+02  0.10000000000E+01 0. -1.
    1000022    2    1    0    0    0  0.61682642417E+02 -0.78744247328E+00  0.93888787968E+00  0.62499999859E+02  0.10000001538E+02 0.  0.
    3000022    2    3    3    0    0  0.49044875693E+00  0.10311177414E+01 -0.46133755260E+00  0.12566136249E+01  0.25000336993E+00 0.  0.
    1000022    2    1    0    0    0 -0.61682642417E+02  0.78744247328E+00 -0.93888787968E+00  0.62500000141E+02  0.10000003299E+02 0.  0.
    3000022    2    5    5    0    0 -0.21985358041E+02  0.34659141877E+01 -0.38695771910E+01  0.22592137038E+02  0.24999798062E+00 0.  0.
        -13    1    4    4    0    0  0.35194633343E+00  0.60616669622E+00 -0.30518570400E+00  0.77166547101E+00  0.10500000000E+00 0.  1.
         13    1    4    4    0    0  0.13850242350E+00  0.42495104521E+00 -0.15615184860E+00  0.48494815389E+00  0.10500000000E+00 0. -1.
    3000001    1    5    5    0    0 -0.39697284376E+02 -0.26784717145E+01  0.29306893113E+01  0.39907863103E+02  0.10000000000E+01 0. -1.
        -13    1    6    6    0    0 -0.12939319156E+02  0.21020983065E+01 -0.22608209819E+01  0.13302899460E+02  0.10500000000E+00 0. -1.
         13    1    6    6    0    0 -0.90460388843E+01  0.13638158813E+01 -0.16087562091E+01  0.92892375787E+01  0.10500000000E+00 0.  1.
</event>
<event>
11    0  0.3483054E-009  0.9118800E+02  0.7816531E-02  0.1126479E+00
         25   -1    0    0    0    0  0.00000000000E+00  0.00000000000E+00  0.99999998245E-14  0.12500000000E+03  0.12500000000E+03 0.  0.
    3000001    1    3    3    0    0 -0.11061389668E+01 -0.36081025376E+01 -0.26745119775E+02  0.27028565983E+02  0.10000000000E+01 0.  1.
    1000022    2    1    0    0    0  0.86599265525E+01 -0.88425758295E+01 -0.60440586846E+02  0.62500001600E+02  0.10000009328E+02 0.  0.
    3000022    2    3    3    0    0  0.97660655193E+01 -0.52344732919E+01 -0.33695467071E+02  0.35471435617E+02  0.24999446884E+00 0.  0.
    1000022    2    1    0    0    0 -0.86599265525E+01  0.88425758295E+01  0.60440586846E+02  0.62499998400E+02  0.99999893233E+01 0.  0.
    3000022    2    5    5    0    0 -0.56182833793E+01  0.27903899082E+01  0.11673529755E+02  0.13254629024E+02  0.25001930938E+00 0.  0.
        -13    1    4    4    0    0  0.66404807445E+01 -0.35077921757E+01 -0.22757928902E+02  0.23965286215E+02  0.10500000000E+00 0. -1.
         13    1    4    4    0    0  0.31255847748E+01 -0.17266811162E+01 -0.10937538169E+02  0.11506149402E+02  0.10500000000E+00 0.  1.
    3000001    1    5    5    0    0 -0.30416431732E+01  0.60521859213E+01  0.48767057091E+02  0.49245369375E+02  0.10000000000E+01 0.  1.
        -13    1    6    6    0    0 -0.18614992788E+01  0.88065757378E+00  0.39082678000E+01  0.44188595275E+01  0.10500000000E+00 0. -1.
         13    1    6    6    0    0 -0.37567841005E+01  0.19097323345E+01  0.77652619554E+01  0.88357694969E+01  0.10500000000E+00 0.  1.
</event>
<event>
11    0  0.3483054E-009  0.9118800E+02  0.7816531E-02  0.1126479E+00
         25   -1    0    0    0    0  0.00000000000E+00  0.00000000000E+00  0.99999998245E-14  0.12500000000E+03  0.12500000000E+03 0.  0.
    3000001    1    3    3    0    0 -0.27031611638E+02  0.47731244544E+01  0.34452923097E+02  0.44062395018E+02  0.10000000000E+01 0. -1.
    1000022    2    1    0    0    0 -0.36971989412E+02  0.52412806578E+00  0.49386708295E+02  0.62500006479E+02  0.10000057113E+02 0.  0.
    3000022    2    3    3    0    0 -0.99403777748E+01 -0.42489963886E+01  0.14933785198E+02  0.18437611461E+02  0.24999083780E+00 0.  0.
    1000022    2    1    0    0    0  0.36971989412E+02 -0.52412806578E+00 -0.49386708295E+02  0.62499993521E+02  0.99999761280E+01 0.  0.
    3000022    2    5    5    0    0  0.18282685305E+02  0.27781491555E+01 -0.17999647699E+02  0.25807450740E+02  0.25000344700E+00 0.  0.
        -13    1    4    4    0    0 -0.74912082762E+01 -0.31769650343E+01  0.11223790387E+02  0.13863470125E+02  0.10500000000E+00 0. -1.
         13    1    4    4    0    0 -0.24491694986E+01 -0.10720313542E+01  0.37099948114E+01  0.45741413356E+01  0.10500000000E+00 0.  1.
    3000001    1    5    5    0    0  0.18689304108E+02 -0.33022772213E+01 -0.31387060596E+02  0.36692542781E+02  0.10000000000E+01 0.  1.
        -13    1    6    6    0    0  0.92672901855E+01  0.13400795359E+01 -0.91246943607E+01  0.13074767788E+02  0.10500000000E+00 0. -1.
         13    1    6    6    0    0  0.90153951193E+01  0.14380696195E+01 -0.88749533382E+01  0.12732682951E+02  0.10500000000E+00 0.  1.
</event>
<event>
11    0  0.3483054E-009  0.9118800E+02  0.7816531E-02  0.1126479E+00
         25   -1    0    0    0    0  0.00000000000E+00  0.00000000000E+00  0.99999998245E-14  0.12500000000E+03  0.12500000000E+03 0.  0.
    3000001    1    3    3    0    0  0.15669212527E+02 -0.39450364221E+01 -0.51884765285E+02  0.54351783800E+02  0.10000000000E+01 0.  1.
    1000022    2    1    0    0    0  0.14221585196E+02 -0.40104167493E+01 -0.59899193581E+02  0.62500002002E+02  0.99999965287E+01 0.  0.
    3000022    2    3    3    0    0 -0.14476273305E+01 -0.65380327151E-01 -0.80144282960E+01  0.81482182016E+01  0.24999894892E+00 0.  0.
    1000022    2    1    0    0    0 -0.14221585196E+02  0.40104167493E+01  0.59899193581E+02  0.62499997998E+02  0.99999715071E+01 0.  0.
    3000022    2    5    5    0    0 -0.10981303418E+02  0.67872263411E+01  0.37082189592E+02  0.39265847088E+02  0.24999280172E+00 0.  0.
        -13    1    4    4    0    0 -0.34967054668E+00 -0.28130128937E-01 -0.18870935738E+01  0.19222923689E+01  0.10500000000E+00 0.  1.
         13    1    4    4    0    0 -0.10979567838E+01 -0.37250198214E-01 -0.61273347222E+01  0.62259258327E+01  0.10500000000E+00 0. -1.
    3000001    1    5    5    0    0 -0.32402817780E+01 -0.27768095918E+01  0.22817003988E+02  0.23234150910E+02  0.10000000000E+01 0.  1.
        -13    1    6    6    0    0 -0.82507976155E+01  0.51061086357E+01  0.27943347010E+02  0.29580224371E+02  0.10500000000E+00 0.  1.
         13    1    6    6    0    0 -0.27305058030E+01  0.16811177054E+01  0.91388425825E+01  0.96856227176E+01  0.10500000000E+00 0. -1.
</event>
<event>
11    0  0.3483054E-009  0.9118800E+02  0.7816531E-02  0.1126479E+00
         25   -1    0    0    0    0  0.00000000000E+00  0.00000000000E+00  0.99999998245E-14  0.12500000000E+03  0.12500000000E+03 0.  0.
    3000001    1    3    3    0    0  0.17661713030E+02 -0.15316719564E+01 -0.22844973300E+02  0.28933975378E+02  0.10000000000E+01 0. -1.
    1000022    2    1    0    0    0  0.43357864609E+02 -0.98632216169E+01 -0.42767538729E+02  0.62500000563E+02  0.10000006861E+02 0.  0.
    3000022    2    3    3    0    0  0.25696151580E+02 -0.83315496605E+01 -0.19922565430E+02  0.33566025184E+02  0.25001526246E+00 0.  0.
    1000022    2    1    0    0    0 -0.43357864609E+02  0.98632216169E+01  0.42767538729E+02  0.62499999437E+02  0.99999998285E+01 0.  0.
    3000022    2    5    5    0    0 -0.39190212605E+02  0.11611348048E+02  0.39431214885E+02  0.56794184330E+02  0.24999768514E+00 0.  0.
        -13    1    4    4    0    0  0.10382707798E+02 -0.34116618460E+01 -0.80022812421E+01  0.13545759035E+02  0.10500000000E+00 0. -1.
         13    1    4    4    0    0  0.15313443782E+02 -0.49198878145E+01 -0.11920284188E+02  0.20020266149E+02  0.10500000000E+00 0.  1.
    3000001    1    5    5    0    0 -0.41676520044E+01 -0.17481264314E+01  0.33363238441E+01  0.57058151076E+01  0.10000000000E+01 0. -1.
        -13    1    6    6    0    0 -0.15509120432E+02  0.45585810207E+01  0.15666753952E+02  0.22511589946E+02  0.10500000000E+00 0. -1.
         13    1    6    6    0    0 -0.23681092172E+02  0.70527670276E+01  0.23764460934E+02  0.34282594384E+02  0.10500000000E+00 0.  1.
</event>
<event>
11    0  0.3483054E-009  0.9118800E+02  0.7816531E-02  0.1126479E+00
         25   -1    0    0    0    0  0.00000000000E+00  0.00000000000E+00  0.99999998245E-14  0.12500000000E+03  0.12500000000E+03 0.  0.
    3000001    1    3    3    0    0 -0.44656501242E+02 -0.19910022193E+02  0.18408185120E+02  0.52253931587E+02  0.10000000000E+01 0.  1.
    1000022    2    1    0    0    0 -0.52092448297E+02 -0.21242416884E+02  0.25325621865E+02  0.62500004540E+02  0.10000000000E+02 0.  0.
    3000022    2    3    3    0    0 -0.74359470551E+01 -0.13323946917E+01  0.69174367448E+01  0.10246072953E+02  0.24999124521E+00 0.  0.
    1000022    2    1    0    0    0  0.52092448297E+02  0.21242416884E+02 -0.25325621865E+02  0.62499995460E+02  0.99999432445E+01 0.  0.
    3000022    2    5    5    0    0  0.39705192005E+02  0.11480976709E+02 -0.18006091495E+02  0.45084331315E+02  0.25000172605E+00 0.  0.
        -13    1    4    4    0    0 -0.17992310293E+01 -0.33605085123E+00  0.17002759759E+01  0.25004251369E+01  0.10500000000E+00 0.  1.
         13    1    4    4    0    0 -0.56367160258E+01 -0.99634384049E+00  0.52171607689E+01  0.77456478162E+01  0.10500000000E+00 0. -1.
    3000001    1    5    5    0    0  0.12387256292E+02  0.97614401757E+01 -0.73195303704E+01  0.17415664145E+02  0.10000000000E+01 0.  1.
        -13    1    6    6    0    0  0.24664599049E+02  0.70691880121E+01 -0.11169243062E+02  0.27983546612E+02  0.10500000000E+00 0. -1.
         13    1    6    6    0    0  0.15040592956E+02  0.44117886967E+01 -0.68368484325E+01  0.17100784703E+02  0.10500000000E+00 0.  1.
</event>
<event>
11    0  0.3483054E-009  0.9118800E+02  0.7816531E-02  0.1126479E+00
         25   -1    0    0    0    0  0.00000000000E+00  0.00000000000E+00  0.99999998245E-14  0.12500000000E+03  0.12500000000E+03 0.  0.
    3000001    1    3    3    0    0 -0.26756200788E+02 -0.36121979477E+02 -0.20557560078E+02  0.49439912604E+02  0.10000000000E+01 0. -1.
    1000022    2    1    0    0    0 -0.32744839279E+02 -0.42785739784E+02 -0.30056712420E+02  0.62500000246E+02  0.10000002047E+02 0.  0.
    3000022    2    3    3    0    0 -0.59886384905E+01 -0.66637603076E+01 -0.94991523417E+01  0.13060087642E+02  0.25000317516E+00 0.  0.
    1000022    2    1    0    0    0  0.32744839279E+02  0.42785739784E+02  0.30056712420E+02  0.62499999754E+02  0.99999989752E+01 0.  0.
    3000022    2    5    5    0    0  0.16155313840E+02  0.24952313811E+02  0.21412461694E+02  0.36635612910E+02  0.24997536676E+00 0.  0.
        -13    1    4    4    0    0 -0.21730426077E+01 -0.23488311259E+01 -0.33431705270E+01  0.46289238496E+01  0.10500000000E+00 0.  1.
         13    1    4    4    0    0 -0.38155958828E+01 -0.43149291816E+01 -0.61559818148E+01  0.84311637920E+01  0.10500000000E+00 0. -1.
    3000001    1    5    5    0    0  0.16589525439E+02  0.17833425973E+02  0.86442507262E+01  0.25864386845E+02  0.10000000000E+01 0.  1.
        -13    1    6    6    0    0  0.10807972644E+02  0.16773133767E+02  0.14336599443E+02  0.24570295025E+02  0.10500000000E+00 0.  1.
         13    1    6    6    0    0  0.53473411956E+01  0.81791800443E+01  0.70758622513E+01  0.12065317885E+02  0.10500000000E+00 0. -1.
</event>
<event>
11    0  0.3483054E-009  0.9118800E+02  0.7816531E-02  0.1126479E+00
         25   -1    0    0    0    0  0.00000000000E+00  0.00000000000E+00  0.99999998245E-14  0.12500000000E+03  0.12500000000E+03 0.  0.
    3000001    1    3    3    0    0 -0.18227107226E+02  0.86231079505E+01 -0.98041109485E+01  0.22443395912E+02  0.10000000000E+01 0. -1.
    1000022    2    1    0    0    0 -0.45632240610E+02  0.35045025702E+02 -0.22266453251E+02  0.62500000200E+02  0.99999937526E+01 0.  0.
    3000022    2    3    3    0    0 -0.27405133384E+02  0.26421917752E+02 -0.12462342302E+02  0.40056604288E+02  0.24999593469E+00 0.  0.
    1000022    2    1    0    0    0  0.45632240610E+02 -0.35045025702E+02  0.22266453251E+02  0.62499999800E+02  0.99999912493E+01 0.  0.
    3000022    2    5    5    0    0  0.38609591112E+01 -0.68831494090E+01  0.17023485503E+01  0.80774526654E+01  0.24999986094E+00 0.  0.
        -13    1    4    4    0    0 -0.19930083600E+02  0.19264955870E+02 -0.90664621693E+01  0.29164336410E+02  0.10500000000E+00 0.  1.
         13    1    4    4    0    0 -0.74750497839E+01  0.71569618822E+01 -0.33958801331E+01  0.10892267878E+02  0.10500000000E+00 0. -1.
    3000001    1    5    5    0    0  0.41771281499E+02 -0.28161876293E+02  0.20564104701E+02  0.54422547134E+02  0.10000000000E+01 0.  1.
        -13    1    6    6    0    0  0.24576498524E+01 -0.44960358101E+01  0.11131224967E+01  0.52444682758E+01  0.10500000000E+00 0.  1.
         13    1    6    6    0    0  0.14033092588E+01 -0.23871135989E+01  0.58922605364E+00  0.28329843896E+01  0.10500000000E+00 0. -1.
</event>
<event>
11    0  0.3483054E-009  0.9118800E+02  0.7816531E-02  0.1126479E+00
         25   -1    0    0    0    0  0.00000000000E+00  0.00000000000E+00  0.99999998245E-14  0.12500000000E+03  0.12500000000E+03 0.  0.
    3000001    1    3    3    0    0  0.30394861966E+01 -0.27465008363E+02 -0.32272499183E+02  0.42497992473E+02  0.10000000000E+01 0. -1.
    1000022    2    1    0    0    0  0.14087587197E+01 -0.35213181234E+02 -0.50638890599E+02  0.62499999562E+02  0.99999985227E+01 0.  0.
    3000022    2    3    3    0    0 -0.16307274769E+01 -0.77481728707E+01 -0.18366391416E+02  0.20002007089E+02  0.24999802929E+00 0.  0.
    1000022    2    1    0    0    0 -0.14087587197E+01  0.35213181234E+02  0.50638890599E+02  0.62500000438E+02  0.10000003992E+02 0.  0.
    3000022    2    5    5    0    0 -0.49603669834E+01  0.17803769965E+02  0.21462922481E+02  0.28324883208E+02  0.25000354813E+00 0.  0.
        -13    1    4    4    0    0 -0.11902894150E+01 -0.57040915610E+01 -0.13431051393E+02  0.14640956798E+02  0.10500000000E+00 0.  1.
         13    1    4    4    0    0 -0.44043806193E+00 -0.20440813097E+01 -0.49353400227E+01  0.53610502914E+01  0.10500000000E+00 0. -1.
    3000001    1    5    5    0    0  0.35516082637E+01  0.17409411269E+02  0.29175968119E+02  0.34175117230E+02  0.10000000000E+01 0. -1.
        -13    1    6    6    0    0 -0.16844944520E+01  0.61427193006E+01  0.73220679736E+01  0.97053710065E+01  0.10500000000E+00 0.  1.
         13    1    6    6    0    0 -0.32758725313E+01  0.11661050664E+02  0.14140854507E+02  0.18619512201E+02  0.10500000000E+00 0. -1.
</event>
<event>
11    0  0.3483054E-009  0.9118800E+02  0.7816531E-02  0.1126479E+00
         25   -1    0    0    0    0  0.00000000000E+00  0.00000000000E+00  0.99999998245E-14  0.12500000000E+03  0.12500000000E+03 0.  0.
    3000001    1    3    3    0    0  0.17650748642E+02 -0.30752718875E+01 -0.86284583517E+01  0.19911215893E+02  0.10000000000E+01 0.  1.
    1000022    2    1    0    0    0  0.47575184644E+02 -0.19460701977E+02 -0.34119392743E+02  0.62499999080E+02  0.99999904211E+01 0.  0.
    3000022    2    3    3    0    0  0.29924436002E+02 -0.16385430090E+02 -0.25490934391E+02  0.42588783186E+02  0.25005580450E+00 0.  0.
    1000022    2    1    0    0    0 -0.47575184644E+02  0.19460701977E+02  0.34119392743E+02  0.62500000920E+02  0.10000001927E+02 0.  0.
    3000022    2    5    5    0    0 -0.27534407927E+02  0.84183220858E+01  0.14009595036E+02  0.32020977824E+02  0.25000223546E+00 0.  0.
        -13    1    4    4    0    0  0.12958726526E+02 -0.70421671420E+01 -0.10962259497E+02  0.18376693650E+02  0.10500000000E+00 0. -1.
         13    1    4    4    0    0  0.16965709476E+02 -0.93432629477E+01 -0.14528674894E+02  0.24212089536E+02  0.10500000000E+00 0.  1.
    3000001    1    5    5    0    0 -0.20040776718E+02  0.11042379891E+02  0.20109797707E+02  0.30479023097E+02  0.10000000000E+01 0.  1.
        -13    1    6    6    0    0 -0.83004332530E+01  0.25019186281E+01  0.41840696754E+01  0.96267467536E+01  0.10500000000E+00 0.  1.
         13    1    6    6    0    0 -0.19233974674E+02  0.59164034577E+01  0.98255253606E+01  0.22394231070E+02  0.10500000000E+00 0. -1.
</event>
<event>
11    0  0.3483054E-009  0.9118800E+02  0.7816531E-02  0.1126479E+00
         25   -1    0    0    0    0  0.00000000000E+00  0.00000000000E+00  0.99999998245E-14  0.12500000000E+03  0.12500000000E+03 0.  0.
    3000001    1    3    3    0    0  0.74023525755E+01 -0.45108082066E+02  0.64240989773E+01  0.46171451558E+02  0.10000000000E+01 0.  1.
    1000022    2    1    0    0    0  0.12683386033E+02 -0.60275995720E+02  0.34908071577E+01  0.62500003798E+02  0.10000039945E+02 0.  0.
    3000022    2    3    3    0    0  0.52810334571E+01 -0.15167913654E+02 -0.29332918196E+01  0.16328552240E+02  0.24999673695E+00 0.  0.
    1000022    2    1    0    0    0 -0.12683386033E+02  0.60275995720E+02 -0.34908071577E+01  0.62499996202E+02  0.99999924697E+01 0.  0.
    3000022    2    5    5    0    0 -0.10859859422E+02  0.27953624692E+02 -0.25289464848E+01  0.30096507283E+02  0.25000047941E+00 0.  0.
        -13    1    4    4    0    0  0.26962056745E+01 -0.79492600255E+01 -0.15300708525E+01  0.85330183292E+01  0.10500000000E+00 0.  1.
         13    1    4    4    0    0  0.25848277827E+01 -0.72186536281E+01 -0.14032209672E+01  0.77955339106E+01  0.10500000000E+00 0. -1.
    3000001    1    5    5    0    0 -0.18235266102E+01  0.32322371028E+02 -0.96186067287E+00  0.32403488919E+02  0.10000000000E+01 0.  1.
        -13    1    6    6    0    0 -0.47057672056E+01  0.12086621116E+02 -0.11590258610E+01  0.13022481366E+02  0.10500000000E+00 0. -1.
         13    1    6    6    0    0 -0.61540922168E+01  0.15867003576E+02 -0.13699206238E+01  0.17074025917E+02  0.10500000000E+00 0.  1.
</event>
<event>
11    0  0.3483054E-009  0.9118800E+02  0.7816531E-02  0.1126479E+00
         25   -1    0    0    0    0  0.00000000000E+00  0.00000000000E+00  0.99999998245E-14  0.12500000000E+03  0.12500000000E+03 0.  0.
    3000001    1    3    3    0    0  0.71179301034E+01 -0.70734137421E+00 -0.41853797278E+01  0.83476142845E+01  0.10000000000E+01 0. -1.
    1000022    2    1    0    0    0  0.60550727194E+02  0.53842376431E+01 -0.10529455289E+02  0.62500000579E+02  0.10000003249E+02 0.  0.
    3000022    2    3    3    0    0  0.53432797090E+02  0.60915790173E+01 -0.63440755609E+01  0.54152386294E+02  0.25001364446E+00 0.  0.
    1000022    2    1    0    0    0 -0.60550727194E+02 -0.53842376431E+01  0.10529455289E+02  0.62499999421E+02  0.99999960157E+01 0.  0.
    3000022    2    5    5    0    0 -0.74493649846E+01  0.10830825027E+01 -0.14550261356E+01  0.76710956083E+01  0.25000079170E+00 0.  0.
        -13    1    4    4    0    0  0.31478296833E+02  0.35280251679E+01 -0.37146173638E+01  0.31892625170E+02  0.10500000000E+00 0.  1.
         13    1    4    4    0    0  0.21954500257E+02  0.25635538495E+01 -0.26294581971E+01  0.22259761124E+02  0.10500000000E+00 0. -1.
    3000001    1    5    5    0    0 -0.53101362209E+02 -0.64673201458E+01  0.11984481424E+02  0.54828903813E+02  0.10000000000E+01 0.  1.
        -13    1    6    6    0    0 -0.35549338992E+01  0.50083994024E+00 -0.62704226850E+00  0.36459021764E+01  0.10500000000E+00 0.  1.
         13    1    6    6    0    0 -0.38944310854E+01  0.58224256244E+00 -0.82798386709E+00  0.40251934319E+01  0.10500000000E+00 0. -1.
</event>
<event>
11    0  0.3483054E-009  0.9118800E+02  0.7816531E-02  0.1126479E+00
         25   -1    0    0    0    0  0.00000000000E+00  0.00000000000E+00  0.99999998245E-14  0.12500000000E+03  0.12500000000E+03 0.  0.
    3000001    1    3    3    0    0 -0.80289957974E+01 -0.11347517758E+02 -0.34136661177E+02  0.36871975390E+02  0.10000000000E+01 0.  1.
    1000022    2    1    0    0    0 -0.10386827231E+02 -0.26225223850E+02 -0.54868947344E+02  0.62500000996E+02  0.10000009796E+02 0.  0.
    3000022    2    3    3    0    0 -0.23578314335E+01 -0.14877706092E+02 -0.20732286166E+02  0.25628025606E+02  0.24999829795E+00 0.  0.
    1000022    2    1    0    0    0  0.10386827231E+02  0.26225223850E+02  0.54868947344E+02  0.62499999004E+02  0.99999973507E+01 0.  0.
    3000022    2    5    5    0    0  0.73435170457E+01  0.23314874626E+02  0.51527865324E+02  0.57032394543E+02  0.25000195618E+00 0.  0.
        -13    1    4    4    0    0 -0.60041380311E+00 -0.36437589838E+01 -0.50930371261E+01  0.62918620800E+01  0.10500000000E+00 0. -1.
         13    1    4    4    0    0 -0.17574176304E+01 -0.11233947108E+02 -0.15639249040E+02  0.19336163526E+02  0.10500000000E+00 0.  1.
    3000001    1    5    5    0    0  0.30433101852E+01  0.29103492234E+01  0.33410820200E+01  0.54676044618E+01  0.10000000000E+01 0.  1.
        -13    1    6    6    0    0  0.17429397266E+01  0.54995585363E+01  0.12190343474E+02  0.13486974531E+02  0.10500000000E+00 0.  1.
         13    1    6    6    0    0  0.56005773191E+01  0.17815316090E+02  0.39337521850E+02  0.43545420012E+02  0.10500000000E+00 0. -1.
</event>
<event>
11    0  0.3483054E-009  0.9118800E+02  0.7816531E-02  0.1126479E+00
         25   -1    0    0    0    0  0.00000000000E+00  0.00000000000E+00  0.99999998245E-14  0.12500000000E+03  0.12500000000E+03 0.  0.
    3000001    1    3    3    0    0 -0.10123364778E+02  0.13176456576E+02 -0.41387359888E+00  0.16651510853E+02  0.10000000000E+01 0.  1.
    1000022    2    1    0    0    0 -0.28611174347E+02  0.53520021621E+02  0.11102164436E+02  0.62500000194E+02  0.99999978629E+01 0.  0.
    3000022    2    3    3    0    0 -0.18487809569E+02  0.40343565045E+02  0.11516038035E+02  0.45848489341E+02  0.24999927696E+00 0.  0.
    1000022    2    1    0    0    0  0.28611174347E+02 -0.53520021621E+02 -0.11102164436E+02  0.62499999806E+02  0.99999954363E+01 0.  0.
    3000022    2    5    5    0    0  0.16816307588E+02 -0.34051600796E+02 -0.22132746540E+01  0.38042881152E+02  0.25000798855E+00 0.  0.
        -13    1    4    4    0    0 -0.10057924459E+02  0.21811558032E+02  0.62694750848E+01  0.24823844405E+02  0.10500000000E+00 0. -1.
         13    1    4    4    0    0 -0.84298851096E+01  0.18532007013E+02  0.52465629504E+01  0.21024644936E+02  0.10500000000E+00 0.  1.
    3000001    1    5    5    0    0  0.11794866759E+02 -0.19468420826E+02 -0.88888897822E+01  0.24457118654E+02  0.10000000000E+01 0.  1.
        -13    1    6    6    0    0  0.41635611989E+01 -0.84828160635E+01 -0.56207305822E+00  0.94668031218E+01  0.10500000000E+00 0. -1.
         13    1    6    6    0    0  0.12652746389E+02 -0.25568784732E+02 -0.16512015958E+01  0.28576078030E+02  0.10500000000E+00 0.  1.
</event>
<event>
11    0  0.3483054E-009  0.9118800E+02  0.7816531E-02  0.1126479E+00
         25   -1    0    0    0    0  0.00000000000E+00  0.00000000000E+00  0.99999998245E-14  0.12500000000E+03  0.12500000000E+03 0.  0.
    3000001    1    3    3    0    0 -0.48363302893E+01 -0.95100286441E+01  0.27614912558E+02  0.29621177071E+02  0.10000000000E+01 0.  1.
    1000022    2    1    0    0    0 -0.20088029496E+02 -0.18968129568E+02  0.55162768775E+02  0.62499998271E+02  0.99999928296E+01 0.  0.
    3000022    2    3    3    0    0 -0.15251699207E+02 -0.94581009241E+01  0.27547856218E+02  0.32878821201E+02  0.24999914202E+00 0.  0.
    1000022    2    1    0    0    0  0.20088029496E+02  0.18968129568E+02 -0.55162768775E+02  0.62500001729E+02  0.10000014440E+02 0.  0.
    3000022    2    5    5    0    0  0.18247995216E+02  0.11422975316E+02 -0.41501380375E+02  0.46753617640E+02  0.24998989072E+00 0.  0.
        -13    1    4    4    0    0 -0.10644009106E+02 -0.66414313779E+01  0.19201511075E+02  0.22937144398E+02  0.10500000000E+00 0.  1.
         13    1    4    4    0    0 -0.46076901005E+01 -0.28166695463E+01  0.83463451427E+01  0.99416768020E+01  0.10500000000E+00 0. -1.
    3000001    1    5    5    0    0  0.18400342798E+01  0.75451542519E+01 -0.13661388401E+02  0.15746384089E+02  0.10000000000E+01 0.  1.
        -13    1    6    6    0    0  0.86034589414E+01  0.53487713144E+01 -0.19399569843E+02  0.21885684714E+02  0.10500000000E+00 0.  1.
         13    1    6    6    0    0  0.96445362748E+01  0.60742040020E+01 -0.22101810532E+02  0.24867932926E+02  0.10500000000E+00 0. -1.
</event>
<event>
11    0  0.3483054E-009  0.9118800E+02  0.7816531E-02  0.1126479E+00
         25   -1    0    0    0    0  0.00000000000E+00  0.00000000000E+00  0.99999998245E-14  0.12500000000E+03  0.12500000000E+03 0.  0.
    3000001    1    3    3    0    0 -0.17645940190E+01  0.94245565354E+01  0.11208137420E+02  0.14783720857E+02  0.10000000000E+01 0.  1.
    1000022    2    1    0    0    0 -0.14647642078E+02  0.25371891020E+02  0.54295159522E+02  0.62500011345E+02  0.10000039910E+02 0.  0.
    3000022    2    3    3    0    0 -0.12883048059E+02  0.15947334485E+02  0.43087022102E+02  0.47716290488E+02  0.24999974890E+00 0.  0.
    1000022    2    1    0    0    0  0.14647642078E+02 -0.25371891020E+02 -0.54295159522E+02  0.62499988655E+02  0.99998980991E+01 0.  0.
    3000022    2    5    5    0    0  0.94840151406E+01 -0.15544962122E+02 -0.23372212487E+02  0.29629633803E+02  0.24998451532E+00 0.  0.
        -13    1    4    4    0    0 -0.44192883446E+01  0.55593225105E+01  0.14921012803E+02  0.16525248086E+02  0.10500000000E+00 0.  1.
         13    1    4    4    0    0 -0.84637597148E+01  0.10388011974E+02  0.28166009299E+02  0.31191042402E+02  0.10500000000E+00 0. -1.
    3000001    1    5    5    0    0  0.51636269377E+01 -0.98269288986E+01 -0.30922947035E+02  0.32870354852E+02  0.10000000000E+01 0.  1.
        -13    1    6    6    0    0  0.23944870474E+01 -0.38851199882E+01 -0.58861718837E+01  0.74488770957E+01  0.10500000000E+00 0. -1.
         13    1    6    6    0    0  0.70895280932E+01 -0.11659842133E+02 -0.17486040603E+02  0.22180756708E+02  0.10500000000E+00 0.  1.
</event>
<event>
11    0  0.3483054E-009  0.9118800E+02  0.7816531E-02  0.1126479E+00
         25   -1    0    0    0    0  0.00000000000E+00  0.00000000000E+00  0.99999998245E-14  0.12500000000E+03  0.12500000000E+03 0.  0.
    3000001    1    3    3    0    0  0.13084843487E+02  0.41540561068E+02  0.18500396097E+02  0.47329652425E+02  0.10000000000E+01 0.  1.
    1000022    2    1    0    0    0  0.12234591064E+02  0.54200454766E+02  0.26811879328E+02  0.62499988895E+02  0.99998611681E+01 0.  0.
    3000022    2    3    3    0    0 -0.85025242260E+00  0.12659893698E+02  0.83114832307E+01  0.15170336470E+02  0.25003495662E+00 0.  0.
    1000022    2    1    0    0    0 -0.12234591064E+02 -0.54200454766E+02 -0.26811879328E+02  0.62500011105E+02  0.99999999821E+01 0.  0.
    3000022    2    5    5    0    0 -0.37660798896E+01 -0.18699293785E+02 -0.14526143598E+02  0.23977453882E+02  0.25000213034E+00 0.  0.
        -13    1    4    4    0    0 -0.18700405406E+00  0.32030139848E+01  0.21032040362E+01  0.38378068373E+01  0.10500000000E+00 0. -1.
         13    1    4    4    0    0 -0.66324836854E+00  0.94568797134E+01  0.62082791946E+01  0.11332529632E+02  0.10500000000E+00 0.  1.
    3000001    1    5    5    0    0 -0.84685111746E+01 -0.35501160982E+02 -0.12285735730E+02  0.38522557223E+02  0.10000000000E+01 0. -1.
        -13    1    6    6    0    0 -0.23135393452E+01 -0.11394128297E+02 -0.89283276580E+01  0.14659627680E+02  0.10500000000E+00 0.  1.
         13    1    6    6    0    0 -0.14525405445E+01 -0.73051654876E+01 -0.55978159395E+01  0.93178262018E+01  0.10500000000E+00 0. -1.
</event>
<event>
11    0  0.3483054E-009  0.9118800E+02  0.7816531E-02  0.1126479E+00
         25   -1    0    0    0    0  0.00000000000E+00  0.00000000000E+00  0.99999998245E-14  0.12500000000E+03  0.12500000000E+03 0.  0.
    3000001    1    3    3    0    0 -0.30441628298E+02 -0.11687098446E+02  0.27244322717E+02  0.42503342502E+02  0.10000000000E+01 0.  1.
    1000022    2    1    0    0    0 -0.46014309111E+02 -0.10508031187E+02  0.39730527357E+02  0.62500002106E+02  0.10000004843E+02 0.  0.
    3000022    2    3    3    0    0 -0.15572680812E+02  0.11790672599E+01  0.12486204640E+02  0.19996659604E+02  0.25000344359E+00 0.  0.
    1000022    2    1    0    0    0  0.46014309111E+02  0.10508031187E+02 -0.39730527357E+02  0.62499997894E+02  0.99999785140E+01 0.  0.
    3000022    2    5    5    0    0  0.39224568773E+02  0.94740404055E+01 -0.28892880417E+02  0.49630487336E+02  0.24999482899E+00 0.  0.
        -13    1    4    4    0    0 -0.57440610894E+01  0.49077674116E+00  0.45829570649E+01  0.73654341398E+01  0.10500000000E+00 0.  1.
         13    1    4    4    0    0 -0.98286197230E+01  0.68829051875E+00  0.79032475753E+01  0.12631225464E+02  0.10500000000E+00 0. -1.
    3000001    1    5    5    0    0  0.67897403378E+01  0.10339907811E+01 -0.10837646940E+02  0.12869510557E+02  0.10000000000E+01 0.  1.
        -13    1    6    6    0    0  0.26221677861E+02  0.62798205348E+01 -0.19319100094E+02  0.33170034508E+02  0.10500000000E+00 0.  1.
         13    1    6    6    0    0  0.13002890912E+02  0.31942198707E+01 -0.95737803228E+01  0.16460452828E+02  0.10500000000E+00 0. -1.
</event>
<event>
11    0  0.3483054E-009  0.9118800E+02  0.7816531E-02  0.1126479E+00
         25   -1    0    0    0    0  0.00000000000E+00  0.00000000000E+00  0.99999998245E-14  0.12500000000E+03  0.12500000000E+03 0.  0.
    3000001    1    3    3    0    0  0.38045574284E+02  0.29787307293E+02 -0.34258321779E+02  0.59240037217E+02  0.10000000000E+01 0.  1.
    1000022    2    1    0    0    0  0.40087819055E+02  0.32302380933E+02 -0.33996660328E+02  0.62499999364E+02  0.99999978273E+01 0.  0.
    3000022    2    3    3    0    0  0.20422447710E+01  0.25150736402E+01  0.26166145169E+00  0.32599621469E+01  0.25005472090E+00 0.  0.
    1000022    2    1    0    0    0 -0.40087819055E+02 -0.32302380933E+02  0.33996660328E+02  0.62500000636E+02  0.10000005778E+02 0.  0.
    3000022    2    5    5    0    0 -0.19224788962E+02 -0.15702554287E+02  0.10517576693E+02  0.26960056381E+02  0.24999761632E+00 0.  0.
        -13    1    4    4    0    0  0.89604956825E+00  0.10512356282E+01  0.55042787279E-01  0.13863823005E+01  0.10500000000E+00 0. -1.
         13    1    4    4    0    0  0.11461952027E+01  0.14638380121E+01  0.20661866442E+00  0.18735798464E+01  0.10500000000E+00 0.  1.
    3000001    1    5    5    0    0 -0.20863030093E+02 -0.16599826646E+02  0.23479083635E+02  0.35539944255E+02  0.10000000000E+01 0. -1.
        -13    1    6    6    0    0 -0.94196991077E+01 -0.76584214727E+01  0.50765926186E+01  0.13159216099E+02  0.10500000000E+00 0.  1.
         13    1    6    6    0    0 -0.98050898540E+01 -0.80441328140E+01  0.54409840743E+01  0.13800840281E+02  0.10500000000E+00 0. -1.
</event>
<event>
11    0  0.3483054E-009  0.9118800E+02  0.7816531E-02  0.1126479E+00
         25   -1    0    0    0    0  0.00000000000E+00  0.00000000000E+00  0.99999998245E-14  0.12500000000E+03  0.12500000000E+03 0.  0.
    3000001    1    3    3    0    0 -0.12144127433E+02  0.26793057521E+02  0.48709234499E+02  0.56911662143E+02  0.10000000000E+01 0. -1.
    1000022    2    1    0    0    0 -0.12126499597E+02  0.26677911999E+02  0.54290765195E+02  0.62500000298E+02  0.99999935397E+01 0.  0.
    3000022    2    3    3    0    0  0.17627836399E-01 -0.11514552233E+00  0.55815306959E+01  0.55883381552E+01  0.24993838454E+00 0.  0.
    1000022    2    1    0    0    0  0.12126499597E+02 -0.26677911999E+02 -0.54290765195E+02  0.62499999702E+02  0.99999898093E+01 0.  0.
    3000022    2    5    5    0    0  0.67191225913E+01 -0.13539504799E+02 -0.37795649069E+02  0.40706736388E+02  0.25000054539E+00 0.  0.
        -13    1    4    4    0    0 -0.36131355980E-01 -0.44701134995E-01  0.16156860357E+01  0.16201142035E+01  0.10500000000E+00 0.  1.
         13    1    4    4    0    0  0.53759192379E-01 -0.70444387332E-01  0.39658446602E+01  0.39682239518E+01  0.10500000000E+00 0. -1.
    3000001    1    5    5    0    0  0.54073770054E+01 -0.13138407200E+02 -0.16495116126E+02  0.21793263313E+02  0.10000000000E+01 0.  1.
        -13    1    6    6    0    0  0.42097283806E+01 -0.85215680351E+01 -0.23919298923E+02  0.25738741632E+02  0.10500000000E+00 0.  1.
         13    1    6    6    0    0  0.25093942107E+01 -0.50179367640E+01 -0.13876350145E+02  0.14967994756E+02  0.10500000000E+00 0. -1.
</event>
<event>
11    0  0.3483054E-009  0.9118800E+02  0.7816531E-02  0.1126479E+00
         25   -1    0    0    0    0  0.00000000000E+00  0.00000000000E+00  0.99999998245E-14  0.12500000000E+03  0.12500000000E+03 0.  0.
    3000001    1    3    3    0    0  0.20403242646E+02 -0.18636749216E+02  0.81408409895E+01  0.28825232416E+02  0.10000000000E+01 0. -1.
    1000022    2    1    0    0    0  0.47129365263E+02 -0.39110177648E+02  0.74476161037E+01  0.62499999927E+02  0.99999969746E+01 0.  0.
    3000022    2    3    3    0    0  0.26726122617E+02 -0.20473428432E+02 -0.69322488576E+00  0.33674767511E+02  0.25000857224E+00 0.  0.
    1000022    2    1    0    0    0 -0.47129365263E+02  0.39110177648E+02 -0.74476161037E+01  0.62500000073E+02  0.99999978841E+01 0.  0.
    3000022    2    5    5    0    0 -0.27434571042E+02  0.19190676578E+02 -0.81590458975E+01  0.34461141775E+02  0.25001337905E+00 0.  0.
        -13    1    4    4    0    0  0.78157332914E+01 -0.60337136208E+01 -0.22713670906E+00  0.98769429999E+01  0.10500000000E+00 0. -1.
         13    1    4    4    0    0  0.18910389326E+02 -0.14439714811E+02 -0.46608817671E+00  0.23797824512E+02  0.10500000000E+00 0.  1.
    3000001    1    5    5    0    0 -0.19694794222E+02  0.19919501070E+02  0.71142979379E+00  0.28038858298E+02  0.10000000000E+01 0.  1.
        -13    1    6    6    0    0 -0.77267868276E+01  0.53836597822E+01 -0.23322917189E+01  0.97024552043E+01  0.10500000000E+00 0.  1.
         13    1    6    6    0    0 -0.19707784214E+02  0.13807016796E+02 -0.58267541786E+01  0.24758686570E+02  0.10500000000E+00 0. -1.
</event>
<event>
11    0  0.3483054E-009  0.9118800E+02  0.7816531E-02  0.1126479E+00
         25   -1    0    0    0    0  0.00000000000E+00  0.00000000000E+00  0.99999998245E-14  0.12500000000E+03  0.12500000000E+03 0.  0.
    3000001    1    3    3    0    0 -0.10800171113E+02  0.13336689710E+01 -0.10585689800E+02  0.15214440428E+02  0.10000000000E+01 0.  1.
    1000022    2    1    0    0    0 -0.54003593235E+02  0.12715597255E+01 -0.29803440534E+02  0.62499998267E+02  0.99999884643E+01 0.  0.
    3000022    2    3    3    0    0 -0.43203422122E+02 -0.62109245469E-01 -0.19217750734E+02  0.47285557839E+02  0.24999254345E+00 0.  0.
    1000022    2    1    0    0    0  0.54003593235E+02 -0.12715597255E+01  0.29803440534E+02  0.62500001733E+02  0.10000010126E+02 0.  0.
    3000022    2    5    5    0    0  0.51791788308E+02  0.70903593465E+00  0.28319600353E+02  0.59033501785E+02  0.25000154733E+00 0.  0.
        -13    1    4    4    0    0 -0.21215786634E+02 -0.87547738405E-01 -0.94773091108E+01  0.23236774305E+02  0.10500000000E+00 0. -1.
         13    1    4    4    0    0 -0.21987635487E+02  0.25438492935E-01 -0.97404416233E+01  0.24048783534E+02  0.10500000000E+00 0.  1.
    3000001    1    5    5    0    0  0.22118049265E+01 -0.19805956602E+01  0.14838401816E+01  0.34664999475E+01  0.10000000000E+01 0. -1.
        -13    1    6    6    0    0  0.27321019778E+02  0.39539463704E+00  0.15012141181E+02  0.31176431266E+02  0.10500000000E+00 0. -1.
         13    1    6    6    0    0  0.24470768531E+02  0.31364129761E+00  0.13307459171E+02  0.27857070520E+02  0.10500000000E+00 0.  1.
</event>
<event>
11    0  0.3483054E-009  0.9118800E+02  0.7816531E-02  0.1126479E+00
         25   -1    0    0    0    0  0.00000000000E+00  0.00000000000E+00  0.99999998245E-14  0.12500000000E+03  0.12500000000E+03 0.  0.
    3000001    1    3    3    0    0 -0.19398297598E+02  0.17584073654E+01  0.37765832556E+02  0.42504635686E+02  0.10000000000E+01 0.  1.
    1000022    2    1    0    0    0 -0.25055707598E+02 -0.32163493630E+01  0.56286026438E+02  0.62499999461E+02  0.99999886948E+01 0.  0.
    3000022    2    3    3    0    0 -0.56574100004E+01 -0.49747567283E+01  0.18520193883E+02  0.19995363775E+02  0.24999724200E+00 0.  0.
    1000022    2    1    0    0    0  0.25055707598E+02  0.32163493630E+01 -0.56286026438E+02  0.62500000539E+02  0.99999954361E+01 0.  0.
    3000022    2    5    5    0    0  0.10164349768E+02  0.51245871859E+01 -0.17293633901E+02  0.20705257025E+02  0.24998990506E+00 0.  0.
        -13    1    4    4    0    0 -0.20191382301E+01 -0.17676786213E+01  0.67519174550E+01  0.72664311198E+01  0.10500000000E+00 0. -1.
         13    1    4    4    0    0 -0.36382717703E+01 -0.32070781070E+01  0.11768276428E+02  0.12728932655E+02  0.10500000000E+00 0.  1.
    3000001    1    5    5    0    0  0.14891357831E+02 -0.19082378230E+01 -0.38992392537E+02  0.41794743514E+02  0.10000000000E+01 0.  1.
        -13    1    6    6    0    0  0.73729775249E+01  0.37556954810E+01 -0.12542776403E+02  0.15026586805E+02  0.10500000000E+00 0.  1.
         13    1    6    6    0    0  0.27913722426E+01  0.13688917049E+01 -0.47508574985E+01  0.56786702201E+01  0.10500000000E+00 0. -1.
</event>
<event>
11    0  0.3483054E-009  0.9118800E+02  0.7816531E-02  0.1126479E+00
         25   -1    0    0    0    0  0.00000000000E+00  0.00000000000E+00  0.99999998245E-14  0.12500000000E+03  0.12500000000E+03 0.  0.
    3000001    1    3    3    0    0  0.46643270710E+01  0.30269273558E+02 -0.10066435906E+00  0.30643025341E+02  0.10000000000E+01 0.  1.
    1000022    2    1    0    0    0  0.14820582176E+02  0.59292602749E+02 -0.84253989159E+01  0.62500000312E+02  0.10000014772E+02 0.  0.
    3000022    2    3    3    0    0  0.10156255105E+02  0.29023329191E+02 -0.83247345568E+01  0.31856974971E+02  0.24998762578E+00 0.  0.
    1000022    2    1    0    0    0 -0.14820582176E+02 -0.59292602749E+02  0.84253989159E+01  0.62499999688E+02  0.10000010866E+02 0.  0.
    3000022    2    5    5    0    0 -0.33514790562E+00  0.28655171222E+00  0.41694492106E+00  0.65633560097E+00  0.24999470291E+00 0.  0.
        -13    1    4    4    0    0  0.41941047061E+01  0.11802227437E+02 -0.34117532475E+01  0.12982071175E+02  0.10500000000E+00 0.  1.
         13    1    4    4    0    0  0.59621503987E+01  0.17221101754E+02 -0.49129813094E+01  0.18874903797E+02  0.10500000000E+00 0. -1.
    3000001    1    5    5    0    0 -0.14485434270E+02 -0.59579154461E+02  0.80084539948E+01  0.61843664087E+02  0.10000000000E+01 0. -1.
        -13    1    6    6    0    0 -0.18768477714E+00  0.75085865006E-01  0.20520204631E+00  0.30658822956E+00  0.10500000000E+00 0.  1.
         13    1    6    6    0    0 -0.14746312848E+00  0.21146584722E+00  0.21174287475E+00  0.34974737141E+00  0.10500000000E+00 0. -1.
</event>
<event>
11    0  0.3483054E-009  0.9118800E+02  0.7816531E-02  0.1126479E+00
         25   -1    0    0    0    0  0.00000000000E+00  0.00000000000E+00  0.99999998245E-14  0.12500000000E+03  0.12500000000E+03 0.  0.
    3000001    1    3    3    0    0 -0.76548391475E+00  0.11180014190E+02 -0.16829405227E+01  0.11375894326E+02  0.10000000000E+01 0. -1.
    1000022    2    1    0    0    0  0.12021105132E+02  0.56736700066E+02 -0.21040195222E+02  0.62500001142E+02  0.10000011245E+02 0.  0.
    3000022    2    3    3    0    0  0.12786589047E+02  0.45556685876E+02 -0.19357254699E+02  0.51124106817E+02  0.25000174888E+00 0.  0.
    1000022    2    1    0    0    0 -0.12021105132E+02 -0.56736700066E+02  0.21040195222E+02  0.62499998858E+02  0.99999969639E+01 0.  0.
    3000022    2    5    5    0    0 -0.48767341908E+01 -0.19139438587E+02  0.23304570524E+01  0.19889549327E+02  0.24999310980E+00 0.  0.
        -13    1    4    4    0    0  0.38914747861E+01  0.13694567700E+02 -0.58213137432E+01  0.15381270403E+02  0.10500000000E+00 0. -1.
         13    1    4    4    0    0  0.88951142608E+01  0.31862118175E+02 -0.13535940956E+02  0.35742836414E+02  0.10500000000E+00 0.  1.
    3000001    1    5    5    0    0 -0.71443709413E+01 -0.37597261478E+02  0.18709738170E+02  0.42610449531E+02  0.10000000000E+01 0.  1.
        -13    1    6    6    0    0 -0.37102471531E+01 -0.14593135560E+02  0.17610713712E+01  0.15160406881E+02  0.10500000000E+00 0. -1.
         13    1    6    6    0    0 -0.11664870377E+01 -0.45463030269E+01  0.56938568115E+00  0.47291424461E+01  0.10500000000E+00 0.  1.
</event>
<event>
11    0  0.3483054E-009  0.9118800E+02  0.7816531E-02  0.1126479E+00
         25   -1    0    0    0    0  0.00000000000E+00  0.00000000000E+00  0.99999998245E-14  0.12500000000E+03  0.12500000000E+03 0.  0.
    3000001    1    3    3    0    0  0.50327760255E+00 -0.29076101753E+02 -0.19387442228E+02  0.34964923819E+02  0.10000000000E+01 0.  1.
    1000022    2    1    0    0    0 -0.74589566449E+01 -0.52244662179E+02 -0.31954800971E+02  0.62499998882E+02  0.99999897375E+01 0.  0.
    3000022    2    3    3    0    0 -0.79622342475E+01 -0.23168560426E+02 -0.12567358743E+02  0.27535075063E+02  0.24997311532E+00 0.  0.
    1000022    2    1    0    0    0  0.74589566449E+01  0.52244662179E+02  0.31954800971E+02  0.62500001118E+02  0.10000003708E+02 0.  0.
    3000022    2    5    5    0    0  0.27413677487E+01  0.37299097152E+02  0.18066564247E+02  0.41535538847E+02  0.24999632852E+00 0.  0.
        -13    1    4    4    0    0 -0.60884070803E+01 -0.17699582259E+02 -0.95850298510E+01  0.21029211473E+02  0.10500000000E+00 0.  1.
         13    1    4    4    0    0 -0.18738271671E+01 -0.54689781666E+01 -0.29823288921E+01  0.65058635906E+01  0.10500000000E+00 0. -1.
    3000001    1    5    5    0    0  0.47175888962E+01  0.14945565027E+02  0.13888236724E+02  0.20964462271E+02  0.10000000000E+01 0. -1.
        -13    1    6    6    0    0  0.82755019939E+00  0.11948716490E+02  0.57919664616E+01  0.13304682093E+02  0.10500000000E+00 0.  1.
         13    1    6    6    0    0  0.19138175493E+01  0.25350380662E+02  0.12274597785E+02  0.28230856754E+02  0.10500000000E+00 0. -1.
</event>
<event>
11    0  0.3483054E-009  0.9118800E+02  0.7816531E-02  0.1126479E+00
         25   -1    0    0    0    0  0.00000000000E+00  0.00000000000E+00  0.99999998245E-14  0.12500000000E+03  0.12500000000E+03 0.  0.
    3000001    1    3    3    0    0 -0.26722093203E+02 -0.17682974246E+02 -0.11486043095E+02  0.34054177854E+02  0.10000000000E+01 0.  1.
    1000022    2    1    0    0    0 -0.49803999989E+02 -0.34288426313E+02 -0.12252159387E+02  0.62500000789E+02  0.10000004755E+02 0.  0.
    3000022    2    3    3    0    0 -0.23081906785E+02 -0.16605452067E+02 -0.76611629112E+00  0.28445822935E+02  0.24989809246E+00 0.  0.
    1000022    2    1    0    0    0  0.49803999989E+02  0.34288426313E+02  0.12252159387E+02  0.62499999211E+02  0.99999948946E+01 0.  0.
    3000022    2    5    5    0    0  0.97870477047E+01  0.60573482243E+01 -0.15325262871E+01  0.11614168185E+02  0.24999103609E+00 0.  0.
        -13    1    4    4    0    0 -0.11199333241E+02 -0.79788196594E+01 -0.34709471914E+00  0.13755658034E+02  0.10500000000E+00 0. -1.
         13    1    4    4    0    0 -0.11882573545E+02 -0.86266324074E+01 -0.41902157198E+00  0.14690164901E+02  0.10500000000E+00 0.  1.
    3000001    1    5    5    0    0  0.40016952284E+02  0.28231078088E+02  0.13784685674E+02  0.50885831026E+02  0.10000000000E+01 0. -1.
        -13    1    6    6    0    0  0.67500049977E+01  0.42095241771E+01 -0.10991997319E+01  0.80313091284E+01  0.10500000000E+00 0. -1.
         13    1    6    6    0    0  0.30370427070E+01  0.18478240472E+01 -0.43332655521E+00  0.35828590563E+01  0.10500000000E+00 0.  1.
</event>
<event>
11    0  0.3483054E-009  0.9118800E+02  0.7816531E-02  0.1126479E+00
         25   -1    0    0    0    0  0.00000000000E+00  0.00000000000E+00  0.99999998245E-14  0.12500000000E+03  0.12500000000E+03 0.  0.
    3000001    1    3    3    0    0 -0.50485096818E+02 -0.26786053568E+02 -0.38020959760E+01  0.57286068117E+02  0.10000000000E+01 0.  1.
    1000022    2    1    0    0    0 -0.55625340404E+02 -0.26514313496E+02 -0.30104476911E+01  0.62500006180E+02  0.10000033099E+02 0.  0.
    3000022    2    3    3    0    0 -0.51402435857E+01  0.27174007197E+00  0.79164828489E+00  0.52139380630E+01  0.24999266082E+00 0.  0.
    1000022    2    1    0    0    0  0.55625340404E+02  0.26514313496E+02  0.30104476911E+01  0.62499993820E+02  0.99999558506E+01 0.  0.
    3000022    2    5    5    0    0  0.28256225874E+02  0.10975116299E+02 -0.29327350891E+01  0.30455392071E+02  0.24998540426E+00 0.  0.
        -13    1    4    4    0    0 -0.12461798451E+01  0.77833121274E-01  0.21072096163E+00  0.12706102962E+01  0.10500000000E+00 0. -1.
         13    1    4    4    0    0 -0.38940637406E+01  0.19390695070E+00  0.58092732326E+00  0.39433277667E+01  0.10500000000E+00 0.  1.
    3000001    1    5    5    0    0  0.27369114530E+02  0.15539197197E+02  0.59431827802E+01  0.32044601749E+02  0.10000000000E+01 0. -1.
        -13    1    6    6    0    0  0.96667961171E+01  0.38129811856E+01 -0.10156767330E+01  0.10441666386E+02  0.10500000000E+00 0. -1.
         13    1    6    6    0    0  0.18589429757E+02  0.71621351131E+01 -0.19170583561E+01  0.20013725685E+02  0.10500000000E+00 0.  1.
</event>
<event>
11    0  0.3483054E-009  0.9118800E+02  0.7816531E-02  0.1126479E+00
         25   -1    0    0    0    0  0.00000000000E+00  0.00000000000E+00  0.99999998245E-14  0.12500000000E+03  0.12500000000E+03 0.  0.
    3000001    1    3    3    0    0 -0.38453638102E+01 -0.12058676550E+02 -0.10412899077E+01  0.12739026166E+02  0.10000000000E+01 0.  1.
    1000022    2    1    0    0    0 -0.39366034044E+00 -0.61693010409E+02 -0.25999977126E+00  0.62499997531E+02  0.99999794852E+01 0.  0.
    3000022    2    3    3    0    0  0.34517034698E+01 -0.49634333858E+02  0.78129013648E+00  0.49760971365E+02  0.25000500226E+00 0.  0.
    1000022    2    1    0    0    0  0.39366034044E+00  0.61693010409E+02  0.25999977126E+00  0.62500002469E+02  0.10000010353E+02 0.  0.
    3000022    2    5    5    0    0 -0.43027515788E+01  0.18204169433E+02  0.10880713947E+01  0.18739046390E+02  0.25000875007E+00 0.  0.
        -13    1    4    4    0    0  0.94134928868E+00 -0.14089927728E+02  0.23605277117E+00  0.14123701631E+02  0.10500000000E+00 0.  1.
         13    1    4    4    0    0  0.25103541811E+01 -0.35544406130E+02  0.54523736531E+00  0.35637269734E+02  0.10500000000E+00 0. -1.
    3000001    1    5    5    0    0  0.46964119192E+01  0.43488840976E+02 -0.82807162341E+00  0.43760956079E+02  0.10000000000E+01 0. -1.
        -13    1    6    6    0    0 -0.21145354263E+01  0.88731649804E+01  0.46483137390E+00  0.91340795949E+01  0.10500000000E+00 0.  1.
         13    1    6    6    0    0 -0.21882161524E+01  0.93310044525E+01  0.62324002078E+00  0.96049667956E+01  0.10500000000E+00 0. -1.
</event>
<event>
11    0  0.3483054E-009  0.9118800E+02  0.7816531E-02  0.1126479E+00
         25   -1    0    0    0    0  0.00000000000E+00  0.00000000000E+00  0.99999998245E-14  0.12500000000E+03  0.12500000000E+03 0.  0.
    3000001    1    3    3    0    0  0.12264385707E+02 -0.28117774738E+02 -0.17680904518E+02  0.35420880813E+02  0.10000000000E+01 0. -1.
    1000022    2    1    0    0    0  0.13176068499E+02 -0.50608669878E+02 -0.32732306209E+02  0.62500000450E+02  0.99999969306E+01 0.  0.
    3000022    2    3    3    0    0  0.91168279261E+00 -0.22490895140E+02 -0.15051401691E+02  0.27079119637E+02  0.24999553450E+00 0.  0.
    1000022    2    1    0    0    0 -0.13176068499E+02  0.50608669878E+02  0.32732306209E+02  0.62499999550E+02  0.99999913019E+01 0.  0.
    3000022    2    5    5    0    0 -0.57697397408E+01  0.73809608125E+01  0.59916547154E+01  0.11123438950E+02  0.24997731826E+00 0.  0.
        -13    1    4    4    0    0  0.44499584364E+00 -0.10518549939E+02 -0.71176588935E+01  0.12708658751E+02  0.10500000000E+00 0. -1.
         13    1    4    4    0    0  0.46668694897E+00 -0.11972345201E+02 -0.79337427973E+01  0.14370460887E+02  0.10500000000E+00 0.  1.
    3000001    1    5    5    0    0 -0.74063287586E+01  0.43227709065E+02  0.26740651494E+02  0.51376560599E+02  0.10000000000E+01 0. -1.
        -13    1    6    6    0    0 -0.30230671004E+01  0.39725900649E+01  0.32135893806E+01  0.59378942584E+01  0.10500000000E+00 0. -1.
         13    1    6    6    0    0 -0.27466726404E+01  0.34083707476E+01  0.27780653348E+01  0.51855446919E+01  0.10500000000E+00 0.  1.
</event>
<event>
11    0  0.3483054E-009  0.9118800E+02  0.7816531E-02  0.1126479E+00
         25   -1    0    0    0    0  0.00000000000E+00  0.00000000000E+00  0.99999998245E-14  0.12500000000E+03  0.12500000000E+03 0.  0.
    3000001    1    3    3    0    0 -0.77775517948E+01  0.23192286649E+01  0.32122546879E+01  0.87856538574E+01  0.10000000000E+01 0. -1.
    1000022    2    1    0    0    0 -0.59940947076E+02 -0.50132798878E+01  0.13718593333E+02  0.62500001454E+02  0.10000013359E+02 0.  0.
    3000022    2    3    3    0    0 -0.52163395281E+02 -0.73325085528E+01  0.10506338646E+02  0.53714347597E+02  0.24999424843E+00 0.  0.
    1000022    2    1    0    0    0  0.59940947076E+02  0.50132798878E+01 -0.13718593333E+02  0.62499998546E+02  0.99999951821E+01 0.  0.
    3000022    2    5    5    0    0  0.71902090440E+01 -0.95842000795E+00 -0.46879230397E+01  0.86404165899E+01  0.25000282616E+00 0.  0.
        -13    1    4    4    0    0 -0.38046194475E+02 -0.53384129862E+01  0.76270165988E+01  0.39168788269E+02  0.10500000000E+00 0.  1.
         13    1    4    4    0    0 -0.14117200806E+02 -0.19940955666E+01  0.28793220468E+01  0.14545559328E+02  0.10500000000E+00 0. -1.
    3000001    1    5    5    0    0  0.52750738032E+02  0.59716998958E+01 -0.90306702937E+01  0.53859581956E+02  0.10000000000E+01 0.  1.
        -13    1    6    6    0    0  0.25686584101E+01 -0.34124518230E+00 -0.17440882093E+01  0.31252716657E+01  0.10500000000E+00 0. -1.
         13    1    6    6    0    0  0.46215506338E+01 -0.61717482565E+00 -0.29438348304E+01  0.55151449242E+01  0.10500000000E+00 0.  1.
</event>
<event>
11    0  0.3483054E-009  0.9118800E+02  0.7816531E-02  0.1126479E+00
         25   -1    0    0    0    0  0.00000000000E+00  0.00000000000E+00  0.99999998245E-14  0.12500000000E+03  0.12500000000E+03 0.  0.
    3000001    1    3    3    0    0 -0.60866267252E+01  0.54509380154E+01 -0.40485191180E+01  0.91733449291E+01  0.10000000000E+01 0. -1.
    1000022    2    1    0    0    0 -0.51048874885E+02  0.34007620678E+02 -0.66139667484E+01  0.62499997921E+02  0.99999646393E+01 0.  0.
    3000022    2    3    3    0    0 -0.44962248160E+02  0.28556682663E+02 -0.25654476304E+01  0.53326652992E+02  0.25002701647E+00 0.  0.
    1000022    2    1    0    0    0  0.51048874885E+02 -0.34007620678E+02  0.66139667484E+01  0.62500002079E+02  0.99999906213E+01 0.  0.
    3000022    2    5    5    0    0  0.14082245543E+02 -0.62771603900E+01 -0.17775035150E+01  0.15522061661E+02  0.24999471359E+00 0.  0.
        -13    1    4    4    0    0 -0.16102756754E+02  0.10276405700E+02 -0.96053648704E+00  0.19126864472E+02  0.10500000000E+00 0.  1.
         13    1    4    4    0    0 -0.28859491406E+02  0.18280276963E+02 -0.16049111433E+01  0.34199788521E+02  0.10500000000E+00 0. -1.
    3000001    1    5    5    0    0  0.36966629342E+02 -0.27730460288E+02  0.83914702634E+01  0.46977940418E+02  0.10000000000E+01 0.  1.
        -13    1    6    6    0    0  0.97716120369E+01 -0.43427533306E+01 -0.11863684879E+01  0.10759293819E+02  0.10500000000E+00 0. -1.
         13    1    6    6    0    0  0.43106335063E+01 -0.19344070594E+01 -0.59113502704E+00  0.47627678420E+01  0.10500000000E+00 0.  1.
</event>
<event>
11    0  0.3483054E-009  0.9118800E+02  0.7816531E-02  0.1126479E+00
         25   -1    0    0    0    0  0.00000000000E+00  0.00000000000E+00  0.99999998245E-14  0.12500000000E+03  0.12500000000E+03 0.  0.
    3000001    1    3    3    0    0 -0.47224153317E+02 -0.29295344098E+02 -0.22298081493E+02  0.59887747332E+02  0.10000000000E+01 0.  1.
    1000022    2    1    0    0    0 -0.49134735563E+02 -0.30689452706E+02 -0.21217571149E+02  0.62500000217E+02  0.99999977702E+01 0.  0.
    3000022    2    3    3    0    0 -0.19105822461E+01 -0.13941086088E+01  0.10805103440E+01  0.26122528845E+01  0.24999839365E+00 0.  0.
    1000022    2    1    0    0    0  0.49134735563E+02  0.30689452706E+02  0.21217571149E+02  0.62499999783E+02  0.99999950577E+01 0.  0.
    3000022    2    5    5    0    0  0.20942016167E+02  0.16093699931E+02  0.14135201629E+02  0.29957329578E+02  0.24990354881E+00 0.  0.
        -13    1    4    4    0    0 -0.55461783228E+00 -0.36744023493E+00  0.33591646833E+00  0.75264742066E+00  0.10500000000E+00 0. -1.
         13    1    4    4    0    0 -0.13559644138E+01 -0.10266683739E+01  0.74459387570E+00  0.18596054638E+01  0.10500000000E+00 0.  1.
    3000001    1    5    5    0    0  0.28192719396E+02  0.14595752775E+02  0.70823695207E+01  0.32542670205E+02  0.10000000000E+01 0. -1.
        -13    1    6    6    0    0  0.66215282051E+01  0.50272164366E+01  0.44394772286E+01  0.94253659841E+01  0.10500000000E+00 0.  1.
         13    1    6    6    0    0  0.14320487962E+02  0.11066483495E+02  0.96957243999E+01  0.20531963594E+02  0.10500000000E+00 0. -1.
</event>
<event>
11    0  0.3483054E-009  0.9118800E+02  0.7816531E-02  0.1126479E+00
         25   -1    0    0    0    0  0.00000000000E+00  0.00000000000E+00  0.99999998245E-14  0.12500000000E+03  0.12500000000E+03 0.  0.
    3000001    1    3    3    0    0 -0.55350381882E+01  0.61099474976E+02 -0.27822745729E+01  0.61420872201E+02  0.10000000000E+01 0. -1.
    1000022    2    1    0    0    0 -0.46350151472E+01  0.61473910184E+02 -0.23926912051E+01  0.62500000319E+02  0.10000003496E+02 0.  0.
    3000022    2    3    3    0    0  0.90002304093E+00  0.37443520815E+00  0.38958336786E+00  0.10791281184E+01  0.24999819201E+00 0.  0.
    1000022    2    1    0    0    0  0.46350151472E+01 -0.61473910184E+02  0.23926912051E+01  0.62499999681E+02  0.99999995048E+01 0.  0.
    3000022    2    5    5    0    0 -0.24075124758E+00 -0.24833366100E+02 -0.34155572596E+01  0.25069553263E+02  0.24987282669E+00 0.  0.
        -13    1    4    4    0    0  0.66144736854E+00  0.26683007809E+00  0.31949878884E+00  0.78855271732E+00  0.10500000000E+00 0.  1.
         13    1    4    4    0    0  0.23857567239E+00  0.10760513005E+00  0.70084579027E-01  0.29057540103E+00  0.10500000000E+00 0. -1.
    3000001    1    5    5    0    0  0.48757663948E+01 -0.36640544085E+02  0.58082484647E+01  0.37430446417E+02  0.10000000000E+01 0.  1.
        -13    1    6    6    0    0 -0.17179488298E+00 -0.11076286764E+02 -0.15074507776E+01  0.11180209068E+02  0.10500000000E+00 0. -1.
         13    1    6    6    0    0 -0.68956364608E-01 -0.13757079335E+02 -0.19081064820E+01  0.13889344195E+02  0.10500000000E+00 0.  1.
</event>
<event>
11    0  0.3483054E-009  0.9118800E+02  0.7816531E-02  0.1126479E+00
         25   -1    0    0    0    0  0.00000000000E+00  0.00000000000E+00  0.99999998245E-14  0.12500000000E+03  0.12500000000E+03 0.  0.
    3000001    1    3    3    0    0  0.18501052842E+02  0.10538171729E+01 -0.13190686678E+02  0.22768260845E+02  0.10000000000E+01 0.  1.
    1000022    2    1    0    0    0  0.49453740714E+02  0.15547816871E+02 -0.33449109284E+02  0.62500000073E+02  0.10000000860E+02 0.  0.
    3000022    2    3    3    0    0  0.30952687872E+02  0.14493999698E+02 -0.20258422606E+02  0.39731739228E+02  0.25000363323E+00 0.  0.
    1000022    2    1    0    0    0 -0.49453740714E+02 -0.15547816871E+02  0.33449109284E+02  0.62499999927E+02  0.99999999491E+01 0.  0.
    3000022    2    5    5    0    0 -0.66807554163E+01  0.98254252359E+00  0.60671923514E+01  0.90813662133E+01  0.25001305432E+00 0.  0.
        -13    1    4    4    0    0  0.94788154777E+01  0.43864378031E+01 -0.61875656800E+01  0.12140254260E+02  0.10500000000E+00 0. -1.
         13    1    4    4    0    0  0.21473872394E+02  0.10107561895E+02 -0.14070856926E+02  0.27591484967E+02  0.10500000000E+00 0.  1.
    3000001    1    5    5    0    0 -0.42772985297E+02 -0.16530359395E+02  0.27381916933E+02  0.53418633714E+02  0.10000000000E+01 0.  1.
        -13    1    6    6    0    0 -0.28207515123E+01  0.37590764963E+00  0.24870155740E+01  0.37807693821E+01  0.10500000000E+00 0. -1.
         13    1    6    6    0    0 -0.38600039040E+01  0.60663487396E+00  0.35801767774E+01  0.53005968312E+01  0.10500000000E+00 0.  1.
</event>
<event>
11    0  0.3483054E-009  0.9118800E+02  0.7816531E-02  0.1126479E+00
         25   -1    0    0    0    0  0.00000000000E+00  0.00000000000E+00  0.99999998245E-14  0.12500000000E+03  0.12500000000E+03 0.  0.
    3000001    1    3    3    0    0 -0.16024228849E+02 -0.34442217239E+01  0.26688901706E+01  0.16636151845E+02  0.10000000000E+01 0.  1.
    1000022    2    1    0    0    0 -0.59655336275E+02 -0.14469774306E+02 -0.61738035437E+01  0.62499994652E+02  0.99999983336E+01 0.  0.
    3000022    2    3    3    0    0 -0.43631107427E+02 -0.11025552582E+02 -0.88426937143E+01  0.45863842806E+02  0.24999964219E+00 0.  0.
    1000022    2    1    0    0    0  0.59655336275E+02  0.14469774306E+02  0.61738035437E+01  0.62500005348E+02  0.10000065188E+02 0.  0.
    3000022    2    5    5    0    0  0.56523713761E+02  0.14303952324E+02  0.37770255051E+01  0.58428261070E+02  0.25000118964E+00 0.  0.
        -13    1    4    4    0    0 -0.27574572096E+02 -0.69961167411E+01 -0.55362053928E+01  0.28982119848E+02  0.10500000000E+00 0. -1.
         13    1    4    4    0    0 -0.16056535330E+02 -0.40294358414E+01 -0.33064883215E+01  0.16881722958E+02  0.10500000000E+00 0.  1.
    3000001    1    5    5    0    0  0.31316225144E+01  0.16582198274E+00  0.23967780385E+01  0.40717442784E+01  0.10000000000E+01 0.  1.
        -13    1    6    6    0    0  0.34873900433E+02  0.88214910342E+01  0.22690566462E+01  0.36043963136E+02  0.10500000000E+00 0. -1.
         13    1    6    6    0    0  0.21649813328E+02  0.54824612895E+01  0.15079688589E+01  0.22384297934E+02  0.10500000000E+00 0.  1.
</event>
<event>
11    0  0.3483054E-009  0.9118800E+02  0.7816531E-02  0.1126479E+00
         25   -1    0    0    0    0  0.00000000000E+00  0.00000000000E+00  0.99999998245E-14  0.12500000000E+03  0.12500000000E+03 0.  0.
    3000001    1    3    3    0    0 -0.38946825726E+02  0.10066291928E+02  0.40083838328E+02  0.56797003112E+02  0.10000000000E+01 0.  1.
    1000022    2    1    0    0    0 -0.43770695494E+02  0.84506336001E+01  0.42649303285E+02  0.62500000787E+02  0.10000001770E+02 0.  0.
    3000022    2    3    3    0    0 -0.48238697678E+01 -0.16156583279E+01  0.25654649573E+01  0.57029976759E+01  0.25000134795E+00 0.  0.
    1000022    2    1    0    0    0  0.43770695494E+02 -0.84506336001E+01 -0.42649303285E+02  0.62499999213E+02  0.99999919283E+01 0.  0.
    3000022    2    5    5    0    0  0.12781574643E+02 -0.71552975730E+01 -0.14079191492E+02  0.20318785451E+02  0.24995080507E+00 0.  0.
        -13    1    4    4    0    0 -0.27137815534E+01 -0.96488778679E+00  0.14082752104E+01  0.32077847229E+01  0.10500000000E+00 0. -1.
         13    1    4    4    0    0 -0.21100882145E+01 -0.65077054115E+00  0.11571897469E+01  0.24952129529E+01  0.10500000000E+00 0.  1.
    3000001    1    5    5    0    0  0.30989120852E+02 -0.12953360271E+01 -0.28570111793E+02  0.42181213762E+02  0.10000000000E+01 0.  1.
        -13    1    6    6    0    0  0.76254702849E+01 -0.42376321878E+01 -0.84640370510E+01  0.12155503767E+02  0.10500000000E+00 0. -1.
         13    1    6    6    0    0  0.51561043577E+01 -0.29176653852E+01 -0.56151544414E+01  0.81632816838E+01  0.10500000000E+00 0.  1.
</event>
<event>
11    0  0.3483054E-009  0.9118800E+02  0.7816531E-02  0.1126479E+00
         25   -1    0    0    0    0  0.00000000000E+00  0.00000000000E+00  0.99999998245E-14  0.12500000000E+03  0.12500000000E+03 0.  0.
    3000001    1    3    3    0    0  0.39651244258E+01  0.27409080473E+01 -0.24927267654E+02  0.25408728054E+02  0.10000000000E+01 0.  1.
    1000022    2    1    0    0    0 -0.19564742084E+01  0.44882516837E+01 -0.61500228464E+02  0.62500000688E+02  0.99999895193E+01 0.  0.
    3000022    2    3    3    0    0 -0.59215986343E+01  0.17473436364E+01 -0.36572960810E+02  0.37091272634E+02  0.25000605542E+00 0.  0.
    1000022    2    1    0    0    0  0.19564742084E+01 -0.44882516837E+01  0.61500228464E+02  0.62499999312E+02  0.99999809151E+01 0.  0.
    3000022    2    5    5    0    0 -0.70588644496E+00 -0.41634005302E-01 -0.23394483902E-01  0.75036972824E+00  0.24999672719E+00 0.  0.
        -13    1    4    4    0    0 -0.26601103531E+01  0.71745255751E+00 -0.16410346372E+02  0.16640355114E+02  0.10500000000E+00 0. -1.
         13    1    4    4    0    0 -0.32614882812E+01  0.10298910789E+01 -0.20162614438E+02  0.20450917520E+02  0.10500000000E+00 0.  1.
    3000001    1    5    5    0    0  0.26623606534E+01 -0.44466176784E+01  0.61523622948E+02  0.61749629583E+02  0.10000000000E+01 0. -1.
        -13    1    6    6    0    0 -0.39984636257E+00 -0.87241911421E-01 -0.29788422477E-01  0.42355709755E+00  0.10500000000E+00 0.  1.
         13    1    6    6    0    0 -0.30604008239E+00  0.45607906119E-01  0.63939385743E-02  0.32681263069E+00  0.10500000000E+00 0.  1.
</event>
<event>
11    0  0.3483054E-009  0.9118800E+02  0.7816531E-02  0.1126479E+00
         25   -1    0    0    0    0  0.00000000000E+00  0.00000000000E+00  0.99999998245E-14  0.12500000000E+03  0.12500000000E+03 0.  0.
    3000001    1    3    3    0    0  0.55251160666E+01 -0.19884832501E+02 -0.15857532051E+02  0.26046013014E+02  0.10000000000E+01 0.  1.
    1000022    2    1    0    0    0  0.18988125866E+02 -0.51302996217E+02 -0.28525488562E+02  0.62500001704E+02  0.10000018528E+02 0.  0.
    3000022    2    3    3    0    0  0.13463009799E+02 -0.31418163716E+02 -0.12667956511E+02  0.36453988691E+02  0.25005030804E+00 0.  0.
    1000022    2    1    0    0    0 -0.18988125866E+02  0.51302996217E+02  0.28525488562E+02  0.62499998296E+02  0.99999972239E+01 0.  0.
    3000022    2    5    5    0    0 -0.72009162050E+01  0.11800425570E+02  0.34924057834E+01  0.14260526566E+02  0.24996392563E+00 0.  0.
        -13    1    4    4    0    0  0.35772090855E+01 -0.84247326113E+01 -0.33731368495E+01  0.97550818355E+01  0.10500000000E+00 0. -1.
         13    1    4    4    0    0  0.98858007139E+01 -0.22993431105E+02 -0.92948196612E+01  0.26698906855E+02  0.10500000000E+00 0.  1.
    3000001    1    5    5    0    0 -0.11787209661E+02  0.39502570648E+02  0.25033082779E+02  0.48239471730E+02  0.10000000000E+01 0. -1.
        -13    1    6    6    0    0 -0.44068962645E+01  0.73344310026E+01  0.21446347862E+01  0.88218533304E+01  0.10500000000E+00 0. -1.
         13    1    6    6    0    0 -0.27940199405E+01  0.44659945670E+01  0.13477709972E+01  0.54386732354E+01  0.10500000000E+00 0.  1.
</event>
<event>
11    0  0.3483054E-009  0.9118800E+02  0.7816531E-02  0.1126479E+00
         25   -1    0    0    0    0  0.00000000000E+00  0.00000000000E+00  0.99999998245E-14  0.12500000000E+03  0.12500000000E+03 0.  0.
    3000001    1    3    3    0    0  0.18314149281E+02  0.40616975337E+02  0.92928733526E+01  0.45524765179E+02  0.10000000000E+01 0.  1.
    1000022    2    1    0    0    0  0.20273949725E+02  0.57474267634E+02  0.95877792995E+01  0.62499999803E+02  0.99999993003E+01 0.  0.
    3000022    2    3    3    0    0  0.19598004433E+01  0.16857292296E+02  0.29490594688E+00  0.16975234624E+02  0.24999935844E+00 0.  0.
    1000022    2    1    0    0    0 -0.20273949725E+02 -0.57474267634E+02 -0.95877792995E+01  0.62500000197E+02  0.10000001764E+02 0.  0.
    3000022    2    5    5    0    0 -0.50153360062E+01 -0.49378482185E+01 -0.97741154003E+00  0.71101176325E+01  0.24999829047E+00 0.  0.
        -13    1    4    4    0    0  0.11902475561E+01  0.98407272939E+01  0.21757049933E+00  0.99153903020E+01  0.10500000000E+00 0.  1.
         13    1    4    4    0    0  0.76955288719E+00  0.70165650025E+01  0.77335447550E-01  0.70598443221E+01  0.10500000000E+00 0. -1.
    3000001    1    5    5    0    0 -0.15258613718E+02 -0.52536419415E+02 -0.86103677594E+01  0.55389882565E+02  0.10000000000E+01 0.  1.
        -13    1    6    6    0    0 -0.37061349261E+01 -0.36748410605E+01 -0.74954666398E+00  0.52737783526E+01  0.10500000000E+00 0.  1.
         13    1    6    6    0    0 -0.13092010802E+01 -0.12630071580E+01 -0.22786487605E+00  0.18363392799E+01  0.10500000000E+00 0. -1.
</event>
<event>
11    0  0.3483054E-009  0.9118800E+02  0.7816531E-02  0.1126479E+00
         25   -1    0    0    0    0  0.00000000000E+00  0.00000000000E+00  0.99999998245E-14  0.12500000000E+03  0.12500000000E+03 0.  0.
    3000001    1    3    3    0    0 -0.32759172309E+01  0.32248254477E-01  0.27344384021E+00  0.34361963255E+01  0.10000000000E+01 0. -1.
    1000022    2    1    0    0    0 -0.47181721293E+02  0.22213723220E+02  0.32964918470E+02  0.62499996306E+02  0.99999682482E+01 0.  0.
    3000022    2    3    3    0    0 -0.43905804062E+02  0.22181474966E+02  0.32691474630E+02  0.59063799980E+02  0.24998519468E+00 0.  0.
    1000022    2    1    0    0    0  0.47181721293E+02 -0.22213723220E+02 -0.32964918470E+02  0.62500003694E+02  0.10000014429E+02 0.  0.
    3000022    2    5    5    0    0  0.33431795593E+02 -0.18882180546E+02 -0.27807868220E+02  0.47408456371E+02  0.25000353674E+00 0.  0.
        -13    1    4    4    0    0 -0.16784778047E+02  0.85262092167E+01  0.12457689655E+02  0.22574987801E+02  0.10500000000E+00 0. -1.
         13    1    4    4    0    0 -0.27121026015E+02  0.13655265749E+02  0.20233784975E+02  0.36488812179E+02  0.10500000000E+00 0.  1.
    3000001    1    5    5    0    0  0.13749925700E+02 -0.33315426742E+01 -0.51570502508E+01  0.15091547324E+02  0.10000000000E+01 0.  1.
        -13    1    6    6    0    0  0.16782739484E+02 -0.95548611904E+01 -0.13968347616E+02  0.23834459865E+02  0.10500000000E+00 0.  1.
         13    1    6    6    0    0  0.16649056109E+02 -0.93273193558E+01 -0.13839520604E+02  0.23573996506E+02  0.10500000000E+00 0. -1.
</event>
<event>
11    0  0.3483054E-009  0.9118800E+02  0.7816531E-02  0.1126479E+00
         25   -1    0    0    0    0  0.00000000000E+00  0.00000000000E+00  0.99999998245E-14  0.12500000000E+03  0.12500000000E+03 0.  0.
    3000001    1    3    3    0    0 -0.96549085581E+01  0.13238414388E+02  0.76595578861E+01  0.18114681940E+02  0.10000000000E+01 0.  1.
    1000022    2    1    0    0    0 -0.19324543443E+02  0.49277870808E+02  0.31693902592E+02  0.62500000289E+02  0.10000002201E+02 0.  0.
    3000022    2    3    3    0    0 -0.96696348848E+01  0.36039456420E+02  0.24034344706E+02  0.44385318349E+02  0.25000338641E+00 0.  0.
    1000022    2    1    0    0    0  0.19324543443E+02 -0.49277870808E+02 -0.31693902592E+02  0.62499999711E+02  0.99999985890E+01 0.  0.
    3000022    2    5    5    0    0  0.16526848250E+02 -0.39550152447E+02 -0.20969498052E+02  0.47719321255E+02  0.25000161363E+00 0.  0.
        -13    1    4    4    0    0 -0.30991068136E+01  0.11392721417E+02  0.75708970655E+01  0.14025978458E+02  0.10500000000E+00 0.  1.
         13    1    4    4    0    0 -0.65705280712E+01  0.24646735003E+02  0.16463447640E+02  0.30359339892E+02  0.10500000000E+00 0. -1.
    3000001    1    5    5    0    0  0.27976951929E+01 -0.97277183602E+01 -0.10724404539E+02  0.14780678456E+02  0.10000000000E+01 0.  1.
        -13    1    6    6    0    0  0.10443806777E+02 -0.24991909672E+02 -0.13316679216E+02  0.30183002160E+02  0.10500000000E+00 0.  1.
         13    1    6    6    0    0  0.60830414728E+01 -0.14558242775E+02 -0.76528188359E+01  0.17536319095E+02  0.10500000000E+00 0. -1.
</event>
<event>
11    0  0.3483054E-009  0.9118800E+02  0.7816531E-02  0.1126479E+00
         25   -1    0    0    0    0  0.00000000000E+00  0.00000000000E+00  0.99999998245E-14  0.12500000000E+03  0.12500000000E+03 0.  0.
    3000001    1    3    3    0    0  0.69611573417E-01 -0.40954516691E+00  0.68717292981E-01  0.10850322950E+01  0.10000000000E+01 0.  1.
    1000022    2    1    0    0    0  0.46484560803E+02 -0.29842448975E+02  0.27474784511E+02  0.62500000847E+02  0.10000008402E+02 0.  0.
    3000022    2    3    3    0    0  0.46414949229E+02 -0.29432903808E+02  0.27406067218E+02  0.61414968552E+02  0.25000655217E+00 0.  0.
    1000022    2    1    0    0    0 -0.46484560803E+02  0.29842448975E+02 -0.27474784511E+02  0.62499999153E+02  0.99999978159E+01 0.  0.
    3000022    2    5    5    0    0 -0.38432162425E+02  0.20264916151E+02 -0.19463532972E+02  0.47608712913E+02  0.24998857759E+00 0.  0.
        -13    1    4    4    0    0  0.22462250902E+02 -0.14266855451E+02  0.13196658891E+02  0.29702840116E+02  0.10500000000E+00 0.  1.
         13    1    4    4    0    0  0.23952698327E+02 -0.15166048358E+02  0.14209408328E+02  0.31712128436E+02  0.10500000000E+00 0. -1.
    3000001    1    5    5    0    0 -0.80523983784E+01  0.95775328246E+01 -0.80112515396E+01  0.14891286240E+02  0.10000000000E+01 0. -1.
        -13    1    6    6    0    0 -0.24742492402E+02  0.12997496102E+02 -0.12561781993E+02  0.30642049981E+02  0.10500000000E+00 0. -1.
         13    1    6    6    0    0 -0.13689670023E+02  0.72674200484E+01 -0.69017509784E+01  0.16966662933E+02  0.10500000000E+00 0.  1.
</event>
<event>
11    0  0.3483054E-009  0.9118800E+02  0.7816531E-02  0.1126479E+00
         25   -1    0    0    0    0  0.00000000000E+00  0.00000000000E+00  0.99999998245E-14  0.12500000000E+03  0.12500000000E+03 0.  0.
    3000001    1    3    3    0    0 -0.40703011520E+02  0.39783392075E+02 -0.88073251054E+01  0.57602277797E+02  0.10000000000E+01 0.  1.
    1000022    2    1    0    0    0 -0.41784312953E+02  0.44552143104E+02 -0.86849079701E+01  0.62500000391E+02  0.10000007916E+02 0.  0.
    3000022    2    3    3    0    0 -0.10813014322E+01  0.47687510284E+01  0.12241713537E+00  0.48977225940E+01  0.25000298990E+00 0.  0.
    1000022    2    1    0    0    0  0.41784312953E+02 -0.44552143104E+02  0.86849079701E+01  0.62499999609E+02  0.10000003032E+02 0.  0.
    3000022    2    5    5    0    0  0.11962254566E+02 -0.78955782867E+01 -0.52682876729E+00  0.14344885609E+02  0.25000764351E+00 0.  0.
        -13    1    4    4    0    0 -0.23988254480E+00  0.11247725119E+01  0.32042272465E-01  0.11552958695E+01  0.10500000000E+00 0.  1.
         13    1    4    4    0    0 -0.84141888740E+00  0.36439785165E+01  0.90374862901E-01  0.37424267245E+01  0.10500000000E+00 0. -1.
    3000001    1    5    5    0    0  0.29822058387E+02 -0.36656564817E+02  0.92117367373E+01  0.48155114000E+02  0.10000000000E+01 0.  1.
        -13    1    6    6    0    0  0.50660262281E+01 -0.33811120706E+01 -0.16658463893E+00  0.60938752875E+01  0.10500000000E+00 0. -1.
         13    1    6    6    0    0  0.68962283374E+01 -0.45144662162E+01 -0.36024412836E+00  0.82510103218E+01  0.10500000000E+00 0.  1.
</event>
<event>
11    0  0.3483054E-009  0.9118800E+02  0.7816531E-02  0.1126479E+00
         25   -1    0    0    0    0  0.00000000000E+00  0.00000000000E+00  0.99999998245E-14  0.12500000000E+03  0.12500000000E+03 0.  0.
    3000001    1    3    3    0    0  0.33629699169E+02  0.42146273681E+01 -0.28245253929E+02  0.44130648302E+02  0.10000000000E+01 0.  1.
    1000022    2    1    0    0    0  0.48817876658E+02  0.10914296193E+00 -0.37723378558E+02  0.62500000586E+02  0.99999894911E+01 0.  0.
    3000022    2    3    3    0    0  0.15188177489E+02 -0.41054844062E+01 -0.94781246291E+01  0.18369352284E+02  0.25003839245E+00 0.  0.
    1000022    2    1    0    0    0 -0.48817876658E+02 -0.10914296193E+00  0.37723378558E+02  0.62499999414E+02  0.99999821680E+01 0.  0.
    3000022    2    5    5    0    0 -0.30347828779E+02  0.42889751619E+01  0.25748216377E+02  0.40030228144E+02  0.24999820317E+00 0.  0.
        -13    1    4    4    0    0  0.76989977706E+01 -0.21509475509E+01 -0.48240887294E+01  0.93372372309E+01  0.10500000000E+00 0.  1.
         13    1    4    4    0    0  0.74891797181E+01 -0.19545368553E+01 -0.46540358997E+01  0.90321150526E+01  0.10500000000E+00 0. -1.
    3000001    1    5    5    0    0 -0.18470047879E+02 -0.43981181238E+01  0.11975162180E+02  0.22469771270E+02  0.10000000000E+01 0. -1.
        -13    1    6    6    0    0 -0.10471685903E+02  0.14735492656E+01  0.89563114823E+01  0.13858358252E+02  0.10500000000E+00 0.  1.
         13    1    6    6    0    0 -0.19876142877E+02  0.28154258963E+01  0.16791904895E+02  0.26171869892E+02  0.10500000000E+00 0. -1.
</event>
<event>
11    0  0.3483054E-009  0.9118800E+02  0.7816531E-02  0.1126479E+00
         25   -1    0    0    0    0  0.00000000000E+00  0.00000000000E+00  0.99999998245E-14  0.12500000000E+03  0.12500000000E+03 0.  0.
    3000001    1    3    3    0    0  0.11595039651E+02  0.48071229268E+01 -0.45844513153E+02  0.47542326001E+02  0.10000000000E+01 0. -1.
    1000022    2    1    0    0    0  0.20287779175E+02  0.63258906038E+01 -0.57919245195E+02  0.62500000315E+02  0.10000009978E+02 0.  0.
    3000022    2    3    3    0    0  0.86927395238E+01  0.15187676770E+01 -0.12074732042E+02  0.14957674313E+02  0.24998258839E+00 0.  0.
    1000022    2    1    0    0    0 -0.20287779175E+02 -0.63258906038E+01  0.57919245195E+02  0.62499999685E+02  0.10000006045E+02 0.  0.
    3000022    2    5    5    0    0 -0.51373955731E+01 -0.28941497858E+01  0.29617994712E+02  0.30200282237E+02  0.25000035708E+00 0.  0.
        -13    1    4    4    0    0  0.44491153315E+01  0.73210562106E+00 -0.62558104135E+01  0.77121199941E+01  0.10500000000E+00 0. -1.
         13    1    4    4    0    0  0.42436241923E+01  0.78666205591E+00 -0.58189216284E+01  0.72455543192E+01  0.10500000000E+00 0.  1.
    3000001    1    5    5    0    0 -0.15150383602E+02 -0.34317408180E+01  0.28301250483E+02  0.32299717448E+02  0.10000000000E+01 0. -1.
        -13    1    6    6    0    0 -0.25943399477E+01 -0.14203654835E+01  0.15149870528E+02  0.15436244358E+02  0.10500000000E+00 0. -1.
         13    1    6    6    0    0 -0.25430556254E+01 -0.14737843023E+01  0.14468124184E+02  0.14764037879E+02  0.10500000000E+00 0.  1.
</event>
<event>
11    0  0.3483054E-009  0.9118800E+02  0.7816531E-02  0.1126479E+00
         25   -1    0    0    0    0  0.00000000000E+00  0.00000000000E+00  0.99999998245E-14  0.12500000000E+03  0.12500000000E+03 0.  0.
    3000001    1    3    3    0    0  0.26877063735E+02 -0.83638235713E+01 -0.74709869242E+01  0.29140105445E+02  0.10000000000E+01 0. -1.
    1000022    2    1    0    0    0  0.57602046330E+02 -0.21270637460E+02 -0.59844967826E+01  0.62499999863E+02  0.10000001091E+02 0.  0.
    3000022    2    3    3    0    0  0.30724982596E+02 -0.12906813888E+02  0.14864901415E+01  0.33359894418E+02  0.25000482560E+00 0.  0.
    1000022    2    1    0    0    0 -0.57602046330E+02  0.21270637460E+02  0.59844967826E+01  0.62500000137E+02  0.10000002797E+02 0.  0.
    3000022    2    5    5    0    0 -0.46918786350E+02  0.20616628454E+02  0.68981927087E+01  0.51711366682E+02  0.25000005542E+00 0.  0.
        -13    1    4    4    0    0  0.15960610710E+02 -0.66418275398E+01  0.73609391871E+00  0.17303405057E+02  0.10500000000E+00 0.  1.
         13    1    4    4    0    0  0.14764371886E+02 -0.62649863485E+01  0.75039622281E+00  0.16056489362E+02  0.10500000000E+00 0. -1.
    3000001    1    5    5    0    0 -0.10683259980E+02  0.65400900553E+00 -0.91369592609E+00  0.10788633455E+02  0.10000000000E+01 0. -1.
        -13    1    6    6    0    0 -0.30079658164E+02  0.13264682906E+02  0.43862918660E+01  0.33166070452E+02  0.10500000000E+00 0. -1.
         13    1    6    6    0    0 -0.16839128186E+02  0.73519455480E+01  0.25119008427E+01  0.18545296230E+02  0.10500000000E+00 0.  1.
</event>
<event>
11    0  0.3483054E-009  0.9118800E+02  0.7816531E-02  0.1126479E+00
         25   -1    0    0    0    0  0.00000000000E+00  0.00000000000E+00  0.99999998245E-14  0.12500000000E+03  0.12500000000E+03 0.  0.
    3000001    1    3    3    0    0 -0.17052358528E+02 -0.54433735088E+01  0.35163338455E+02  0.39469907750E+02  0.10000000000E+01 0.  1.
    1000022    2    1    0    0    0 -0.23564479337E+02 -0.15322420792E+02  0.54919840150E+02  0.62500000064E+02  0.99999950289E+01 0.  0.
    3000022    2    3    3    0    0 -0.65121208091E+01 -0.98790472834E+01  0.19756501695E+02  0.23030092314E+02  0.25000021001E+00 0.  0.
    1000022    2    1    0    0    0  0.23564479337E+02  0.15322420792E+02 -0.54919840150E+02  0.62499999936E+02  0.99999942304E+01 0.  0.
    3000022    2    5    5    0    0  0.20495964201E+02  0.13042825174E+02 -0.52545250491E+02  0.57890117360E+02  0.25000347060E+00 0.  0.
        -13    1    4    4    0    0 -0.48420358786E+01 -0.73501763874E+01  0.14636520549E+02  0.17079495401E+02  0.10500000000E+00 0. -1.
         13    1    4    4    0    0 -0.16700849305E+01 -0.25288708960E+01  0.51199811459E+01  0.59505969128E+01  0.10500000000E+00 0.  1.
    3000001    1    5    5    0    0  0.30685151353E+01  0.22795956181E+01 -0.23745896586E+01  0.46098825760E+01  0.10000000000E+01 0. -1.
        -13    1    6    6    0    0  0.11540963946E+02  0.72667381759E+01 -0.29474201222E+02  0.32476743914E+02  0.10500000000E+00 0. -1.
         13    1    6    6    0    0  0.89550002551E+01  0.57760869982E+01 -0.23071049269E+02  0.25413373447E+02  0.10500000000E+00 0.  1.
</event>
<event>
11    0  0.3483054E-009  0.9118800E+02  0.7816531E-02  0.1126479E+00
         25   -1    0    0    0    0  0.00000000000E+00  0.00000000000E+00  0.99999998245E-14  0.12500000000E+03  0.12500000000E+03 0.  0.
    3000001    1    3    3    0    0 -0.22325394866E+01  0.51243729138E+01  0.99957266795E+00  0.57656375048E+01  0.10000000000E+01 0.  1.
    1000022    2    1    0    0    0  0.48593798385E+01  0.60862477300E+02  0.88541112770E+01  0.62499999921E+02  0.99999994066E+01 0.  0.
    3000022    2    3    3    0    0  0.70919193251E+01  0.55738104386E+02  0.78545386091E+01  0.56734362416E+02  0.25000348846E+00 0.  0.
    1000022    2    1    0    0    0 -0.48593798385E+01 -0.60862477300E+02 -0.88541112770E+01  0.62500000079E+02  0.10000000394E+02 0.  0.
    3000022    2    5    5    0    0  0.25176615242E+00 -0.38468484902E+02 -0.20586711740E+01  0.38525165042E+02  0.24999532483E+00 0.  0.
        -13    1    4    4    0    0  0.35182912982E+01  0.27618145486E+02  0.38236438672E+01  0.28102875496E+02  0.10500000000E+00 0. -1.
         13    1    4    4    0    0  0.35736280269E+01  0.28119958901E+02  0.40308947419E+01  0.28631486920E+02  0.10500000000E+00 0.  1.
    3000001    1    5    5    0    0 -0.51111459910E+01 -0.22393992398E+02 -0.67954401031E+01  0.23974835037E+02  0.10000000000E+01 0.  1.
        -13    1    6    6    0    0  0.19677731202E+00 -0.28149602242E+02 -0.15394228251E+01  0.28192546450E+02  0.10500000000E+00 0.  1.
         13    1    6    6    0    0  0.54988840405E-01 -0.10318882660E+02 -0.51924834887E+00  0.10332618592E+02  0.10500000000E+00 0. -1.
</event>
<event>
11    0  0.3483054E-009  0.9118800E+02  0.7816531E-02  0.1126479E+00
         25   -1    0    0    0    0  0.00000000000E+00  0.00000000000E+00  0.99999998245E-14  0.12500000000E+03  0.12500000000E+03 0.  0.
    3000001    1    3    3    0    0  0.17046284120E+01 -0.21150318874E+01  0.67131245361E+01  0.73106196006E+01  0.10000000000E+01 0.  1.
    1000022    2    1    0    0    0  0.31335919083E+02 -0.31825878429E+02  0.42560822238E+02  0.62500000068E+02  0.10000002819E+02 0.  0.
    3000022    2    3    3    0    0  0.29631290671E+02 -0.29710846541E+02  0.35847697701E+02  0.55189380467E+02  0.24999362530E+00 0.  0.
    1000022    2    1    0    0    0 -0.31335919083E+02  0.31825878429E+02 -0.42560822238E+02  0.62499999932E+02  0.10000001974E+02 0.  0.
    3000022    2    5    5    0    0 -0.31029222103E+02  0.29389549237E+02 -0.37828396204E+02  0.57075461322E+02  0.24999419199E+00 0.  0.
        -13    1    4    4    0    0  0.12353951180E+02 -0.12436413706E+02  0.14904019628E+02  0.23009244267E+02  0.10500000000E+00 0. -1.
         13    1    4    4    0    0  0.17277339491E+02 -0.17274432835E+02  0.20943678073E+02  0.32180136200E+02  0.10500000000E+00 0.  1.
    3000001    1    5    5    0    0 -0.30669697967E+00  0.24363291911E+01 -0.47324260338E+01  0.54245386099E+01  0.10000000000E+01 0. -1.
        -13    1    6    6    0    0 -0.19817449835E+02  0.18802691792E+02 -0.24250538668E+02  0.36529059491E+02  0.10500000000E+00 0. -1.
         13    1    6    6    0    0 -0.11211772269E+02  0.10586857445E+02 -0.13577857536E+02  0.20546401832E+02  0.10500000000E+00 0.  1.
</event>
<event>
11    0  0.3483054E-009  0.9118800E+02  0.7816531E-02  0.1126479E+00
         25   -1    0    0    0    0  0.00000000000E+00  0.00000000000E+00  0.99999998245E-14  0.12500000000E+03  0.12500000000E+03 0.  0.
    3000001    1    3    3    0    0 -0.46328198449E+02 -0.14796124162E+02 -0.33054003567E+02  0.58811515994E+02  0.10000000000E+01 0.  1.
    1000022    2    1    0    0    0 -0.49055872631E+02 -0.13256887506E+02 -0.34986087994E+02  0.62500000387E+02  0.99999994674E+01 0.  0.
    3000022    2    3    3    0    0 -0.27276741815E+01  0.15392366561E+01 -0.19320844275E+01  0.36884843927E+01  0.25002191261E+00 0.  0.
    1000022    2    1    0    0    0  0.49055872631E+02  0.13256887506E+02  0.34986087994E+02  0.62499999613E+02  0.99999946297E+01 0.  0.
    3000022    2    5    5    0    0  0.31195383829E+02  0.13175970350E+02  0.24005862001E+02  0.41510264725E+02  0.25000039830E+00 0.  0.
        -13    1    4    4    0    0 -0.73130353203E+00  0.45224299004E+00 -0.51413723158E+00  0.10073185548E+01  0.10500000000E+00 0. -1.
         13    1    4    4    0    0 -0.19963706494E+01  0.10869936661E+01 -0.14179471959E+01  0.26811658379E+01  0.10500000000E+00 0.  1.
    3000001    1    5    5    0    0  0.17860488801E+02  0.80917155627E-01  0.10980225993E+02  0.20989734888E+02  0.10000000000E+01 0.  1.
        -13    1    6    6    0    0  0.75423976054E+01  0.32082710634E+01  0.58072126062E+01  0.10045671113E+02  0.10500000000E+00 0.  1.
         13    1    6    6    0    0  0.23652986224E+02  0.99676992868E+01  0.18198649395E+02  0.31464593612E+02  0.10500000000E+00 0. -1.
</event>
<event>
11    0  0.3483054E-009  0.9118800E+02  0.7816531E-02  0.1126479E+00
         25   -1    0    0    0    0  0.00000000000E+00  0.00000000000E+00  0.99999998245E-14  0.12500000000E+03  0.12500000000E+03 0.  0.
    3000001    1    3    3    0    0  0.24691052687E+02  0.11475732070E+02 -0.96066544908E+01  0.28889934576E+02  0.10000000000E+01 0.  1.
    1000022    2    1    0    0    0  0.51556163197E+02  0.31442985341E+02 -0.12631331378E+02  0.62500000535E+02  0.10000012186E+02 0.  0.
    3000022    2    3    3    0    0  0.26865110511E+02  0.19967253271E+02 -0.30246768869E+01  0.33610065959E+02  0.24999508297E+00 0.  0.
    1000022    2    1    0    0    0 -0.51556163197E+02 -0.31442985341E+02  0.12631331378E+02  0.62499999465E+02  0.10000005495E+02 0.  0.
    3000022    2    5    5    0    0 -0.31699689541E+02 -0.18363927309E+02  0.12475754211E+02  0.38701564446E+02  0.25000847861E+00 0.  0.
        -13    1    4    4    0    0  0.65280017985E+01  0.48257383525E+01 -0.73765958370E+00  0.81521607436E+01  0.10500000000E+00 0.  1.
         13    1    4    4    0    0  0.20337108712E+02  0.15141514919E+02 -0.22870173032E+01  0.25457905215E+02  0.10500000000E+00 0. -1.
    3000001    1    5    5    0    0 -0.19856473657E+02 -0.13079058033E+02  0.15557716707E+00  0.23798435019E+02  0.10000000000E+01 0.  1.
        -13    1    6    6    0    0 -0.12735281797E+02 -0.74233218921E+01  0.50721906368E+01  0.15589459684E+02  0.10500000000E+00 0.  1.
         13    1    6    6    0    0 -0.18964407743E+02 -0.10940605417E+02  0.74035635738E+01  0.23112104762E+02  0.10500000000E+00 0. -1.
</event>
<event>
11    0  0.3483054E-009  0.9118800E+02  0.7816531E-02  0.1126479E+00
         25   -1    0    0    0    0  0.00000000000E+00  0.00000000000E+00  0.99999998245E-14  0.12500000000E+03  0.12500000000E+03 0.  0.
    3000001    1    3    3    0    0  0.59964933499E+01  0.27654914264E+01  0.18575493054E+02  0.19739676226E+02  0.10000000000E+01 0.  1.
    1000022    2    1    0    0    0  0.15687398132E+02  0.22406595187E+02  0.55300092030E+02  0.62499999679E+02  0.99999906626E+01 0.  0.
    3000022    2    3    3    0    0  0.96909047826E+01  0.19641103761E+02  0.36724598976E+02  0.42760323453E+02  0.24999868649E+00 0.  0.
    1000022    2    1    0    0    0 -0.15687398132E+02 -0.22406595187E+02 -0.55300092030E+02  0.62500000321E+02  0.99999946778E+01 0.  0.
    3000022    2    5    5    0    0 -0.10179617935E+02 -0.13567054337E+02 -0.23216180386E+02  0.28753141037E+02  0.25000619838E+00 0.  0.
        -13    1    4    4    0    0  0.36119786266E+01  0.72120221022E+01  0.13457458463E+02  0.15689928798E+02  0.10500000000E+00 0.  1.
         13    1    4    4    0    0  0.60789261559E+01  0.12429081658E+02  0.23267140513E+02  0.27070394654E+02  0.10500000000E+00 0. -1.
    3000001    1    5    5    0    0 -0.55077801977E+01 -0.88395408497E+01 -0.32083911644E+02  0.33746859284E+02  0.10000000000E+01 0. -1.
        -13    1    6    6    0    0 -0.73290375830E+01 -0.97620977256E+01 -0.16640323324E+02  0.20637943919E+02  0.10500000000E+00 0.  1.
         13    1    6    6    0    0 -0.28505803517E+01 -0.38049566117E+01 -0.65758570625E+01  0.81151971181E+01  0.10500000000E+00 0. -1.
</event>
<event>
11    0  0.3483054E-009  0.9118800E+02  0.7816531E-02  0.1126479E+00
         25   -1    0    0    0    0  0.00000000000E+00  0.00000000000E+00  0.99999998245E-14  0.12500000000E+03  0.12500000000E+03 0.  0.
    3000001    1    3    3    0    0  0.90518454150E+01 -0.40226231489E+02 -0.21717914805E+02  0.46612803270E+02  0.10000000000E+01 0. -1.
    1000022    2    1    0    0    0  0.64717111113E+01 -0.54549136507E+02 -0.28084846499E+02  0.62499999125E+02  0.99999974673E+01 0.  0.
    3000022    2    3    3    0    0 -0.25801343037E+01 -0.14322905019E+02 -0.63669316945E+01  0.15887195855E+02  0.24994348474E+00 0.  0.
    1000022    2    1    0    0    0 -0.64717111113E+01  0.54549136507E+02  0.28084846499E+02  0.62500000875E+02  0.10000008405E+02 0.  0.
    3000022    2    5    5    0    0 -0.65292666406E+01  0.54413751334E+02  0.27785856603E+02  0.61445943598E+02  0.25000100465E+00 0.  0.
        -13    1    4    4    0    0 -0.12584919276E+01 -0.73615744189E+01 -0.32536682195E+01  0.81470216484E+01  0.10500000000E+00 0.  1.
         13    1    4    4    0    0 -0.13216423760E+01 -0.69613305998E+01 -0.31132634749E+01  0.77401742069E+01  0.10500000000E+00 0. -1.
    3000001    1    5    5    0    0  0.57555529312E-01  0.13538517377E+00  0.29898989652E+00  0.10540572766E+01  0.10000000000E+01 0.  1.
        -13    1    6    6    0    0 -0.36800395543E+01  0.31196064390E+02  0.15906067213E+02  0.35210099740E+02  0.10500000000E+00 0.  1.
         13    1    6    6    0    0 -0.28492270863E+01  0.23217686943E+02  0.11879789390E+02  0.26235843858E+02  0.10500000000E+00 0. -1.
</event>
<event>
11    0  0.3483054E-009  0.9118800E+02  0.7816531E-02  0.1126479E+00
         25   -1    0    0    0    0  0.00000000000E+00  0.00000000000E+00  0.99999998245E-14  0.12500000000E+03  0.12500000000E+03 0.  0.
    3000001    1    3    3    0    0  0.94423427865E+01  0.50433762454E+01 -0.29818303889E+02  0.31697393080E+02  0.10000000000E+01 0. -1.
    1000022    2    1    0    0    0  0.15452403256E+02  0.18918119763E+02 -0.56653140958E+02  0.62499995433E+02  0.99999513486E+01 0.  0.
    3000022    2    3    3    0    0  0.60100604693E+01  0.13874743518E+02 -0.26834837068E+02  0.30802602353E+02  0.24999334136E+00 0.  0.
    1000022    2    1    0    0    0 -0.15452403256E+02 -0.18918119763E+02  0.56653140958E+02  0.62500004567E+02  0.10000008439E+02 0.  0.
    3000022    2    5    5    0    0 -0.16650746718E+02 -0.16545944300E+02  0.48890414068E+02  0.54234221347E+02  0.25007666161E+00 0.  0.
        -13    1    4    4    0    0  0.41593910272E+01  0.96360674173E+01 -0.18532614324E+02  0.21298430638E+02  0.10500000000E+00 0. -1.
         13    1    4    4    0    0  0.18506694421E+01  0.42386761007E+01 -0.83022227446E+01  0.95041717141E+01  0.10500000000E+00 0.  1.
    3000001    1    5    5    0    0  0.11983434619E+01 -0.23721754638E+01  0.77627268894E+01  0.82657832202E+01  0.10000000000E+01 0. -1.
        -13    1    6    6    0    0 -0.63053194232E+01 -0.63372594758E+01  0.18697691026E+02  0.20725167922E+02  0.10500000000E+00 0. -1.
         13    1    6    6    0    0 -0.10345427295E+02 -0.10208684824E+02  0.30192723042E+02  0.33509053425E+02  0.10500000000E+00 0.  1.
</event>
<event>
11    0  0.3483054E-009  0.9118800E+02  0.7816531E-02  0.1126479E+00
         25   -1    0    0    0    0  0.00000000000E+00  0.00000000000E+00  0.99999998245E-14  0.12500000000E+03  0.12500000000E+03 0.  0.
    3000001    1    3    3    0    0 -0.13954512903E+02 -0.17019897911E+02  0.12678591000E+02  0.25419520550E+02  0.10000000000E+01 0. -1.
    1000022    2    1    0    0    0 -0.31981840382E+02 -0.48232541284E+02  0.21378351090E+02  0.62499999971E+02  0.99999974089E+01 0.  0.
    3000022    2    3    3    0    0 -0.18027327480E+02 -0.31212643373E+02  0.86997600898E+01  0.37080479421E+02  0.24997221932E+00 0.  0.
    1000022    2    1    0    0    0  0.31981840382E+02  0.48232541284E+02 -0.21378351090E+02  0.62500000029E+02  0.99999977668E+01 0.  0.
    3000022    2    5    5    0    0  0.23738957071E+02  0.38337023875E+02 -0.20554195504E+02  0.49556058492E+02  0.24999612654E+00 0.  0.
        -13    1    4    4    0    0 -0.52022879762E+01 -0.90126881983E+01  0.25554182504E+01  0.10716041068E+02  0.10500000000E+00 0. -1.
         13    1    4    4    0    0 -0.12825039503E+02 -0.22199955175E+02  0.61443418394E+01  0.26364438353E+02  0.10500000000E+00 0.  1.
    3000001    1    5    5    0    0  0.82428833113E+01  0.98955174086E+01 -0.82415558622E+00  0.12943941536E+02  0.10000000000E+01 0.  1.
        -13    1    6    6    0    0  0.99055855810E+01  0.16051574766E+02 -0.86615577794E+01  0.20755897628E+02  0.10500000000E+00 0. -1.
         13    1    6    6    0    0  0.13833371490E+02  0.22285449109E+02 -0.11892637725E+02  0.28800160864E+02  0.10500000000E+00 0.  1.
</event>
<event>
11    0  0.3483054E-009  0.9118800E+02  0.7816531E-02  0.1126479E+00
         25   -1    0    0    0    0  0.00000000000E+00  0.00000000000E+00  0.99999998245E-14  0.12500000000E+03  0.12500000000E+03 0.  0.
    3000001    1    3    3    0    0  0.13422125418E+01 -0.50797810155E+00 -0.55011853830E+01  0.57725745450E+01  0.10000000000E+01 0.  1.
    1000022    2    1    0    0    0  0.34490852158E+02  0.13768732405E+02 -0.49265123281E+02  0.62500006312E+02  0.10000077125E+02 0.  0.
    3000022    2    3    3    0    0  0.33148639616E+02  0.14276710506E+02 -0.43763937898E+02  0.56727431767E+02  0.24996653350E+00 0.  0.
    1000022    2    1    0    0    0 -0.34490852158E+02 -0.13768732405E+02  0.49265123281E+02  0.62499993688E+02  0.99999982246E+01 0.  0.
    3000022    2    5    5    0    0 -0.25804710261E+02 -0.54596362319E+01  0.32831527152E+02  0.42114871123E+02  0.24999026321E+00 0.  0.
        -13    1    4    4    0    0  0.17787525357E+02  0.77330983858E+01 -0.23501949196E+02  0.30472110363E+02  0.10500000000E+00 0.  1.
         13    1    4    4    0    0  0.15361114259E+02  0.65436121206E+01 -0.20261988701E+02  0.26255321404E+02  0.10500000000E+00 0. -1.
    3000001    1    5    5    0    0 -0.86861418976E+01 -0.83090961730E+01  0.16433596129E+02  0.20385122565E+02  0.10000000000E+01 0.  1.
        -13    1    6    6    0    0 -0.14385676776E+02 -0.30086160475E+01  0.18203216659E+02  0.23395888283E+02  0.10500000000E+00 0.  1.
         13    1    6    6    0    0 -0.11419033485E+02 -0.24510201844E+01  0.14628310493E+02  0.18718982840E+02  0.10500000000E+00 0. -1.
</event>
<event>
11    0  0.3483054E-009  0.9118800E+02  0.7816531E-02  0.1126479E+00
         25   -1    0    0    0    0  0.00000000000E+00  0.00000000000E+00  0.99999998245E-14  0.12500000000E+03  0.12500000000E+03 0.  0.
    3000001    1    3    3    0    0 -0.20672746826E+01  0.75358099965E+01 -0.74892543447E+01  0.10869728035E+02  0.10000000000E+01 0. -1.
    1000022    2    1    0    0    0 -0.15689040065E+02  0.54064994098E+02 -0.25240452873E+02  0.62500000302E+02  0.10000000579E+02 0.  0.
    3000022    2    3    3    0    0 -0.13621765383E+02  0.46529184101E+02 -0.17751198529E+02  0.51630272267E+02  0.24999983920E+00 0.  0.
    1000022    2    1    0    0    0  0.15689040065E+02 -0.54064994098E+02  0.25240452873E+02  0.62499999698E+02  0.99999968008E+01 0.  0.
    3000022    2    5    5    0    0 -0.91978937306E+00 -0.20305370541E+01  0.24069754976E+01  0.32901557172E+01  0.25000075732E+00 0.  0.
        -13    1    4    4    0    0 -0.69064264160E+01  0.23375824556E+02 -0.89572699427E+01  0.25968665914E+02  0.10500000000E+00 0. -1.
         13    1    4    4    0    0 -0.67153389666E+01  0.23153359545E+02 -0.87939285861E+01  0.25661606353E+02  0.10500000000E+00 0.  1.
    3000001    1    5    5    0    0  0.16608829438E+02 -0.52034457044E+02  0.22833477376E+02  0.59209843981E+02  0.10000000000E+01 0. -1.
        -13    1    6    6    0    0 -0.53744615027E+00 -0.12827185400E+01  0.14305143964E+01  0.19979018133E+01  0.10500000000E+00 0. -1.
         13    1    6    6    0    0 -0.38234322279E+00 -0.74781851415E+00  0.97646110117E+00  0.12922539039E+01  0.10500000000E+00 0.  1.
</event>
<event>
11    0  0.3483054E-009  0.9118800E+02  0.7816531E-02  0.1126479E+00
         25   -1    0    0    0    0  0.00000000000E+00  0.00000000000E+00  0.99999998245E-14  0.12500000000E+03  0.12500000000E+03 0.  0.
    3000001    1    3    3    0    0 -0.41319867548E+01  0.28910547015E+01 -0.31512575208E+02  0.31929201494E+02  0.10000000000E+01 0.  1.
    1000022    2    1    0    0    0 -0.71097918683E+01  0.15020682158E+02 -0.59414475504E+02  0.62499999853E+02  0.10000002470E+02 0.  0.
    3000022    2    3    3    0    0 -0.29778051135E+01  0.12129627457E+02 -0.27901900296E+02  0.30570798359E+02  0.24997333160E+00 0.  0.
    1000022    2    1    0    0    0  0.71097918683E+01 -0.15020682158E+02  0.59414475504E+02  0.62500000147E+02  0.10000004303E+02 0.  0.
    3000022    2    5    5    0    0 -0.18897177985E+01 -0.66069929384E+01  0.25196122842E+02  0.26117628049E+02  0.24999925181E+00 0.  0.
        -13    1    4    4    0    0 -0.13724504262E+01  0.54056538372E+01 -0.12581224584E+02  0.13762374454E+02  0.10500000000E+00 0.  1.
         13    1    4    4    0    0 -0.16053546872E+01  0.67239736197E+01 -0.15320675712E+02  0.16808423905E+02  0.10500000000E+00 0. -1.
    3000001    1    5    5    0    0  0.89995096667E+01 -0.84136892201E+01  0.34218352662E+02  0.36382372097E+02  0.10000000000E+01 0. -1.
        -13    1    6    6    0    0 -0.93278204695E+00 -0.30203192246E+01  0.11628652276E+02  0.12051099092E+02  0.10500000000E+00 0.  1.
         13    1    6    6    0    0 -0.95693575153E+00 -0.35866737137E+01  0.13567470566E+02  0.14066528957E+02  0.10500000000E+00 0. -1.
</event>
<event>
11    0  0.3483054E-009  0.9118800E+02  0.7816531E-02  0.1126479E+00
         25   -1    0    0    0    0  0.00000000000E+00  0.00000000000E+00  0.99999998245E-14  0.12500000000E+03  0.12500000000E+03 0.  0.
    3000001    1    3    3    0    0  0.19129278574E+02  0.81764230731E+01 -0.62885276053E+01  0.21756120345E+02  0.10000000000E+01 0.  1.
    1000022    2    1    0    0    0  0.59133567779E+02  0.15739104595E+02 -0.78582285229E+01  0.62500000483E+02  0.10000002656E+02 0.  0.
    3000022    2    3    3    0    0  0.40004289205E+02  0.75626815220E+01 -0.15697009175E+01  0.40743880138E+02  0.25000220035E+00 0.  0.
    1000022    2    1    0    0    0 -0.59133567779E+02 -0.15739104595E+02  0.78582285229E+01  0.62499999517E+02  0.99999966190E+01 0.  0.
    3000022    2    5    5    0    0 -0.34097772095E+02 -0.48434763831E+01  0.71117080463E+01  0.35167544953E+02  0.25000275487E+00 0.  0.
        -13    1    4    4    0    0  0.15510233665E+02  0.28804785029E+01 -0.57313160849E+00  0.15786196806E+02  0.10500000000E+00 0.  1.
         13    1    4    4    0    0  0.24494055540E+02  0.46822030191E+01 -0.99656930904E+00  0.24957683332E+02  0.10500000000E+00 0. -1.
    3000001    1    5    5    0    0 -0.25035795684E+02 -0.10895628212E+02  0.74652047656E+00  0.27332454564E+02  0.10000000000E+01 0. -1.
        -13    1    6    6    0    0 -0.18911453723E+02 -0.26221320648E+01  0.39225811742E+01  0.19491442393E+02  0.10500000000E+00 0. -1.
         13    1    6    6    0    0 -0.15186318372E+02 -0.22213443183E+01  0.31891268721E+01  0.15676102560E+02  0.10500000000E+00 0.  1.
</event>
<event>
11    0  0.3483054E-009  0.9118800E+02  0.7816531E-02  0.1126479E+00
         25   -1    0    0    0    0  0.00000000000E+00  0.00000000000E+00  0.99999998245E-14  0.12500000000E+03  0.12500000000E+03 0.  0.
    3000001    1    3    3    0    0 -0.17408750870E+02 -0.17765568205E+02 -0.81914146239E+01  0.26206474277E+02  0.10000000000E+01 0. -1.
    1000022    2    1    0    0    0 -0.48351390760E+02 -0.36260485115E+02 -0.12392342787E+02  0.62499988625E+02  0.99999324605E+01 0.  0.
    3000022    2    3    3    0    0 -0.30942639890E+02 -0.18494916911E+02 -0.42009281627E+01  0.36293514348E+02  0.24994287911E+00 0.  0.
    1000022    2    1    0    0    0  0.48351390760E+02  0.36260485115E+02  0.12392342787E+02  0.62500011375E+02  0.10000074645E+02 0.  0.
    3000022    2    5    5    0    0  0.11167315046E+02  0.90601812692E+01 -0.12625637002E+01  0.14437879845E+02  0.24999471445E+00 0.  0.
        -13    1    4    4    0    0 -0.92681992898E+01 -0.54907990322E+01 -0.12379970860E+01  0.10843986992E+02  0.10500000000E+00 0. -1.
         13    1    4    4    0    0 -0.21674440600E+02 -0.13004117878E+02 -0.29629310767E+01  0.25449527356E+02  0.10500000000E+00 0.  1.
    3000001    1    5    5    0    0  0.37184075714E+02  0.27200303846E+02  0.13654906487E+02  0.48062131530E+02  0.10000000000E+01 0. -1.
        -13    1    6    6    0    0  0.48593787423E+01  0.39742898973E+01 -0.48981151444E+00  0.62975774921E+01  0.10500000000E+00 0.  1.
         13    1    6    6    0    0  0.63079363033E+01  0.50858913719E+01 -0.77275218580E+00  0.81403023528E+01  0.10500000000E+00 0. -1.
</event>
<event>
11    0  0.3483054E-009  0.9118800E+02  0.7816531E-02  0.1126479E+00
         25   -1    0    0    0    0  0.00000000000E+00  0.00000000000E+00  0.99999998245E-14  0.12500000000E+03  0.12500000000E+03 0.  0.
    3000001    1    3    3    0    0 -0.26211846939E+02  0.33228096689E+02 -0.21215166390E+02  0.47352408750E+02  0.10000000000E+01 0.  1.
    1000022    2    1    0    0    0 -0.35534130987E+02  0.45083264257E+02 -0.22606967084E+02  0.62500002101E+02  0.10000006043E+02 0.  0.
    3000022    2    3    3    0    0 -0.93222840477E+01  0.11855167568E+02 -0.13918006944E+01  0.15147593351E+02  0.24999442777E+00 0.  0.
    1000022    2    1    0    0    0  0.35534130987E+02 -0.45083264257E+02  0.22606967084E+02  0.62499997899E+02  0.99999797756E+01 0.  0.
    3000022    2    5    5    0    0  0.27853778181E+02 -0.35541492230E+02  0.13269656436E+02  0.47065665948E+02  0.25000052996E+00 0.  0.
        -13    1    4    4    0    0 -0.55628857763E+01  0.70630439373E+01 -0.89297364447E+00  0.90355251508E+01  0.10500000000E+00 0. -1.
         13    1    4    4    0    0 -0.37593982713E+01  0.47921236311E+01 -0.49882704989E+00  0.61120682002E+01  0.10500000000E+00 0.  1.
    3000001    1    5    5    0    0  0.76803528057E+01 -0.95417720274E+01  0.93373106477E+01  0.15434331951E+02  0.10000000000E+01 0. -1.
        -13    1    6    6    0    0  0.18978402002E+02 -0.24229810058E+02  0.90962152273E+01  0.32093856024E+02  0.10500000000E+00 0. -1.
         13    1    6    6    0    0  0.88753761784E+01 -0.11311682172E+02  0.41734412090E+01  0.14971809924E+02  0.10500000000E+00 0.  1.
</event>
<event>
11    0  0.3483054E-009  0.9118800E+02  0.7816531E-02  0.1126479E+00
         25   -1    0    0    0    0  0.00000000000E+00  0.00000000000E+00  0.99999998245E-14  0.12500000000E+03  0.12500000000E+03 0.  0.
    3000001    1    3    3    0    0  0.25793224740E+02  0.16130112952E+02 -0.27139155627E+00  0.30439195780E+02  0.10000000000E+01 0.  1.
    1000022    2    1    0    0    0  0.46295227338E+02  0.40774328341E+02 -0.67535373884E+00  0.62499999687E+02  0.99999966126E+01 0.  0.
    3000022    2    3    3    0    0  0.20502002598E+02  0.24644215388E+02 -0.40396218257E+00  0.32060803907E+02  0.24999815364E+00 0.  0.
    1000022    2    1    0    0    0 -0.46295227338E+02 -0.40774328341E+02  0.67535373884E+00  0.62500000313E+02  0.10000000529E+02 0.  0.
    3000022    2    5    5    0    0 -0.21529052085E+02 -0.21272638982E+02  0.49636782004E+01  0.30671254639E+02  0.25001385541E+00 0.  0.
        -13    1    4    4    0    0  0.77603250136E+01  0.92372773590E+01 -0.13585606248E+00  0.12065629664E+02  0.10500000000E+00 0. -1.
         13    1    4    4    0    0  0.12741677584E+02  0.15406938029E+02 -0.26810612009E+00  0.19995174243E+02  0.10500000000E+00 0.  1.
    3000001    1    5    5    0    0 -0.24766175253E+02 -0.19501689359E+02 -0.42883244615E+01  0.31828745674E+02  0.10000000000E+01 0. -1.
        -13    1    6    6    0    0 -0.50178625218E+01 -0.49579667820E+01  0.11693216199E+01  0.71511339625E+01  0.10500000000E+00 0.  1.
         13    1    6    6    0    0 -0.16511189563E+02 -0.16314672200E+02  0.37943565805E+01  0.23520120676E+02  0.10500000000E+00 0. -1.
</event>
<event>
11    0  0.3483054E-009  0.9118800E+02  0.7816531E-02  0.1126479E+00
         25   -1    0    0    0    0  0.00000000000E+00  0.00000000000E+00  0.99999998245E-14  0.12500000000E+03  0.12500000000E+03 0.  0.
    3000001    1    3    3    0    0 -0.93925921939E+01  0.16294856351E+02 -0.13893558114E+01  0.18885799988E+02  0.10000000000E+01 0. -1.
    1000022    2    1    0    0    0 -0.41421100561E+02  0.45663193464E+02  0.23270360933E+01  0.62500002267E+02  0.10000018867E+02 0.  0.
    3000022    2    3    3    0    0 -0.32028508367E+02  0.29368337113E+02  0.37163919047E+01  0.43614202278E+02  0.24999719378E+00 0.  0.
    1000022    2    1    0    0    0  0.41421100561E+02 -0.45663193464E+02 -0.23270360933E+01  0.62499997733E+02  0.99999905336E+01 0.  0.
    3000022    2    5    5    0    0  0.34153856553E+02 -0.39380324801E+02 -0.52930134631E+01  0.52396320390E+02  0.24999994396E+00 0.  0.
        -13    1    4    4    0    0 -0.22040756395E+02  0.20186881608E+02  0.26021205910E+01  0.30001453100E+02  0.10500000000E+00 0. -1.
         13    1    4    4    0    0 -0.99877519721E+01  0.91814555048E+01  0.11142713137E+01  0.13612749179E+02  0.10500000000E+00 0.  1.
    3000001    1    5    5    0    0  0.72672440081E+01 -0.62828686628E+01  0.29659773697E+01  0.10103677344E+02  0.10000000000E+01 0.  1.
        -13    1    6    6    0    0  0.10012605565E+02 -0.11480667216E+02 -0.15350883354E+01  0.15310960490E+02  0.10500000000E+00 0.  1.
         13    1    6    6    0    0  0.24141250988E+02 -0.27899657585E+02 -0.37579251277E+01  0.37085359900E+02  0.10500000000E+00 0. -1.
</event>
<event>
11    0  0.3483054E-009  0.9118800E+02  0.7816531E-02  0.1126479E+00
         25   -1    0    0    0    0  0.00000000000E+00  0.00000000000E+00  0.99999998245E-14  0.12500000000E+03  0.12500000000E+03 0.  0.
    3000001    1    3    3    0    0 -0.55021356321E+01 -0.21313065185E+01 -0.33577167055E+01  0.68622318137E+01  0.10000000000E+01 0. -1.
    1000022    2    1    0    0    0 -0.54447181942E+02  0.72600019609E+01 -0.28089974629E+02  0.62500000491E+02  0.10000006837E+02 0.  0.
    3000022    2    3    3    0    0 -0.48945046310E+02  0.93913084794E+01 -0.24732257924E+02  0.55637768677E+02  0.24997617847E+00 0.  0.
    1000022    2    1    0    0    0  0.54447181942E+02 -0.72600019609E+01  0.28089974629E+02  0.62499999509E+02  0.10000000702E+02 0.  0.
    3000022    2    5    5    0    0  0.54040400664E+02 -0.70938595269E+01  0.26590599334E+02  0.60644952181E+02  0.25001025978E+00 0.  0.
        -13    1    4    4    0    0 -0.16075793400E+02  0.30459632036E+01 -0.81602626988E+01  0.18284144431E+02  0.10500000000E+00 0. -1.
         13    1    4    4    0    0 -0.32869252910E+02  0.63453452758E+01 -0.16571995225E+02  0.37353624246E+02  0.10500000000E+00 0.  1.
    3000001    1    5    5    0    0  0.40678127860E+00 -0.16614243398E+00  0.14993752949E+01  0.18550473287E+01  0.10000000000E+01 0.  1.
        -13    1    6    6    0    0  0.32331842489E+02 -0.42853399714E+01  0.15857729923E+02  0.36265559430E+02  0.10500000000E+00 0. -1.
         13    1    6    6    0    0  0.21708558175E+02 -0.28085195556E+01  0.10732869411E+02  0.24379392751E+02  0.10500000000E+00 0.  1.
</event>
<event>
11    0  0.3483054E-009  0.9118800E+02  0.7816531E-02  0.1126479E+00
         25   -1    0    0    0    0  0.00000000000E+00  0.00000000000E+00  0.99999998245E-14  0.12500000000E+03  0.12500000000E+03 0.  0.
    3000001    1    3    3    0    0  0.16838571164E+02 -0.39488383905E+01 -0.21309636945E+02  0.27463274208E+02  0.10000000000E+01 0.  1.
    1000022    2    1    0    0    0  0.33381287477E+02 -0.18991094290E+02 -0.48283306503E+02  0.62500001731E+02  0.10000025681E+02 0.  0.
    3000022    2    3    3    0    0  0.16542716313E+02 -0.15042255899E+02 -0.26973669558E+02  0.35036727524E+02  0.25000119823E+00 0.  0.
    1000022    2    1    0    0    0 -0.33381287477E+02  0.18991094290E+02  0.48283306503E+02  0.62499998269E+02  0.10000004041E+02 0.  0.
    3000022    2    5    5    0    0 -0.29709743634E+02  0.19518823126E+02  0.45574934462E+02  0.57799571584E+02  0.25000195204E+00 0.  0.
        -13    1    4    4    0    0  0.11408976307E+02 -0.10387998439E+02 -0.18687574347E+02  0.24234514889E+02  0.10500000000E+00 0. -1.
         13    1    4    4    0    0  0.51337400064E+01 -0.46542574599E+01 -0.82860952106E+01  0.10802212634E+02  0.10500000000E+00 0.  1.
    3000001    1    5    5    0    0 -0.36715438424E+01 -0.52772883643E+00  0.27083720409E+01  0.47004266853E+01  0.10000000000E+01 0. -1.
        -13    1    6    6    0    0 -0.15615004296E+02  0.10331232835E+02  0.23955891331E+02  0.30404908905E+02  0.10500000000E+00 0. -1.
         13    1    6    6    0    0 -0.14094739338E+02  0.91875902915E+01  0.21619043131E+02  0.27394662679E+02  0.10500000000E+00 0.  1.
</event>
<event>
11    0  0.3483054E-009  0.9118800E+02  0.7816531E-02  0.1126479E+00
         25   -1    0    0    0    0  0.00000000000E+00  0.00000000000E+00  0.99999998245E-14  0.12500000000E+03  0.12500000000E+03 0.  0.
    3000001    1    3    3    0    0  0.68636596950E+01  0.53283629345E+02 -0.17211037136E+02  0.56422289743E+02  0.10000000000E+01 0. -1.
    1000022    2    1    0    0    0  0.68283307700E+01  0.59215347346E+02 -0.15911205633E+02  0.62499999139E+02  0.99999982649E+01 0.  0.
    3000022    2    3    3    0    0 -0.35328925006E-01  0.59317180009E+01  0.12998315035E+01  0.60777093957E+01  0.24992596082E+00 0.  0.
    1000022    2    1    0    0    0 -0.68283307700E+01 -0.59215347346E+02  0.15911205633E+02  0.62500000861E+02  0.10000009029E+02 0.  0.
    3000022    2    5    5    0    0 -0.60720196999E+01 -0.58659895030E+02  0.14993650266E+02  0.60850018570E+02  0.25000707528E+00 0.  0.
        -13    1    4    4    0    0 -0.54702349438E-01  0.19694807185E+01  0.46416103043E+00  0.20268983965E+01  0.10500000000E+00 0.  1.
         13    1    4    4    0    0  0.19373424432E-01  0.39622372824E+01  0.83567047304E+00  0.40508109992E+01  0.10500000000E+00 0. -1.
    3000001    1    5    5    0    0 -0.75631107005E+00 -0.55545231603E+00  0.91755536666E+00  0.16499822911E+01  0.10000000000E+01 0.  1.
        -13    1    6    6    0    0 -0.32329544290E+01 -0.30669619038E+02  0.78766357865E+01  0.31829702207E+02  0.10500000000E+00 0.  1.
         13    1    6    6    0    0 -0.28390652709E+01 -0.27990275992E+02  0.71170144795E+01  0.29020316363E+02  0.10500000000E+00 0. -1.
</event>
<event>
11    0  0.3483054E-009  0.9118800E+02  0.7816531E-02  0.1126479E+00
         25   -1    0    0    0    0  0.00000000000E+00  0.00000000000E+00  0.99999998245E-14  0.12500000000E+03  0.12500000000E+03 0.  0.
    3000001    1    3    3    0    0 -0.14935961158E+01 -0.16647671179E+02  0.25537559391E+01  0.16938047539E+02  0.10000000000E+01 0. -1.
    1000022    2    1    0    0    0 -0.70117694147E+01 -0.56163316554E+02  0.24551313949E+02  0.62500000116E+02  0.99999980577E+01 0.  0.
    3000022    2    3    3    0    0 -0.55181732989E+01 -0.39515645375E+02  0.21997558010E+02  0.45561952576E+02  0.24999642605E+00 0.  0.
    1000022    2    1    0    0    0  0.70117694147E+01  0.56163316554E+02 -0.24551313949E+02  0.62499999884E+02  0.99999966111E+01 0.  0.
    3000022    2    5    5    0    0  0.51533728987E+01  0.54564146239E+02 -0.23060712651E+02  0.59461435167E+02  0.24999437742E+00 0.  0.
        -13    1    4    4    0    0 -0.19731050235E+01 -0.13786317416E+02  0.77130569721E+01  0.15920363193E+02  0.10500000000E+00 0.  1.
         13    1    4    4    0    0 -0.35450682754E+01 -0.25729327958E+02  0.14284501038E+02  0.29641589383E+02  0.10500000000E+00 0. -1.
    3000001    1    5    5    0    0  0.18583965160E+01  0.15991703151E+01 -0.14906012987E+01  0.30385647170E+01  0.10000000000E+01 0. -1.
        -13    1    6    6    0    0  0.29002529792E+01  0.30885481281E+02 -0.13121618355E+02  0.33682522390E+02  0.10500000000E+00 0. -1.
         13    1    6    6    0    0  0.22531199195E+01  0.23678664957E+02 -0.99390942957E+01  0.25778912777E+02  0.10500000000E+00 0.  1.
</event>
<event>
11    0  0.3483054E-009  0.9118800E+02  0.7816531E-02  0.1126479E+00
         25   -1    0    0    0    0  0.00000000000E+00  0.00000000000E+00  0.99999998245E-14  0.12500000000E+03  0.12500000000E+03 0.  0.
    3000001    1    3    3    0    0  0.41393076234E+01 -0.15394767297E+02 -0.22189765432E+02  0.27340783048E+02  0.10000000000E+01 0. -1.
    1000022    2    1    0    0    0  0.15253297094E+02 -0.26101044870E+02 -0.53780316873E+02  0.62500000733E+02  0.99999996548E+01 0.  0.
    3000022    2    3    3    0    0  0.11113989470E+02 -0.10706277573E+02 -0.31590551441E+02  0.35159217685E+02  0.25001292335E+00 0.  0.
    1000022    2    1    0    0    0 -0.15253297094E+02  0.26101044870E+02  0.53780316873E+02  0.62499999267E+02  0.99999904951E+01 0.  0.
    3000022    2    5    5    0    0 -0.22091363951E+00  0.84529571019E+01  0.11578691816E+02  0.14339800850E+02  0.24999525890E+00 0.  0.
        -13    1    4    4    0    0  0.40156993718E+01 -0.39318282443E+01 -0.11421464522E+02  0.12729728654E+02  0.10500000000E+00 0.  1.
         13    1    4    4    0    0  0.70982900984E+01 -0.67744493284E+01 -0.20169086919E+02  0.22429489031E+02  0.10500000000E+00 0. -1.
    3000001    1    5    5    0    0 -0.15032383454E+02  0.17648087768E+02  0.42201625057E+02  0.48160198418E+02  0.10000000000E+01 0. -1.
        -13    1    6    6    0    0 -0.60611793806E-01  0.36418260004E+01  0.48934965959E+01  0.61011395937E+01  0.10500000000E+00 0. -1.
         13    1    6    6    0    0 -0.16030184570E+00  0.48111311014E+01  0.66851952204E+01  0.82386612561E+01  0.10500000000E+00 0.  1.
</event>
<event>
11    0  0.3483054E-009  0.9118800E+02  0.7816531E-02  0.1126479E+00
         25   -1    0    0    0    0  0.00000000000E+00  0.00000000000E+00  0.99999998245E-14  0.12500000000E+03  0.12500000000E+03 0.  0.
    3000001    1    3    3    0    0  0.74077875602E+00 -0.40986698210E+01  0.78111505268E+00  0.43540771918E+01  0.10000000000E+01 0.  1.
    1000022    2    1    0    0    0  0.23522260798E+02 -0.53563805620E+02 -0.19592647180E+02  0.62499999409E+02  0.10000003853E+02 0.  0.
    3000022    2    3    3    0    0  0.22781482042E+02 -0.49465135799E+02 -0.20373762232E+02  0.58145922217E+02  0.24999868034E+00 0.  0.
    1000022    2    1    0    0    0 -0.23522260798E+02  0.53563805620E+02  0.19592647180E+02  0.62500000591E+02  0.10000011241E+02 0.  0.
    3000022    2    5    5    0    0 -0.17551830048E+02  0.38644531688E+02  0.94904629512E+01  0.43492504592E+02  0.25000230628E+00 0.  0.
        -13    1    4    4    0    0  0.16410959770E+02 -0.35568446809E+02 -0.14685973527E+02  0.41834469668E+02  0.10500000000E+00 0.  1.
         13    1    4    4    0    0  0.63705222718E+01 -0.13896688990E+02 -0.56877887055E+01  0.16311452549E+02  0.10500000000E+00 0. -1.
    3000001    1    5    5    0    0 -0.59704307498E+01  0.14919273932E+02  0.10102184228E+02  0.19007495999E+02  0.10000000000E+01 0.  1.
        -13    1    6    6    0    0 -0.85766202274E+01  0.19046606288E+02  0.46637850742E+01  0.21403119908E+02  0.10500000000E+00 0. -1.
         13    1    6    6    0    0 -0.89752098210E+01  0.19597925401E+02  0.48266778769E+01  0.22089384683E+02  0.10500000000E+00 0.  1.
</event>
<event>
11    0  0.3483054E-009  0.9118800E+02  0.7816531E-02  0.1126479E+00
         25   -1    0    0    0    0  0.00000000000E+00  0.00000000000E+00  0.99999998245E-14  0.12500000000E+03  0.12500000000E+03 0.  0.
    3000001    1    3    3    0    0 -0.57175203807E+01 -0.32449865406E+02 -0.19231912053E+02  0.38164777550E+02  0.10000000000E+01 0.  1.
    1000022    2    1    0    0    0 -0.16122821183E+02 -0.52878506552E+02 -0.27389187632E+02  0.62500005285E+02  0.10000062171E+02 0.  0.
    3000022    2    3    3    0    0 -0.10405300802E+02 -0.20428641146E+02 -0.81572755788E+01  0.24335227736E+02  0.25000044171E+00 0.  0.
    1000022    2    1    0    0    0  0.16122821183E+02  0.52878506552E+02  0.27389187632E+02  0.62499994715E+02  0.99999961033E+01 0.  0.
    3000022    2    5    5    0    0  0.71654866147E+01  0.13612826665E+02  0.11432794152E+02  0.19168320935E+02  0.24999427173E+00 0.  0.
        -13    1    4    4    0    0 -0.24661442863E+01 -0.48302315421E+01 -0.19462368934E+01  0.57629738362E+01  0.10500000000E+00 0. -1.
         13    1    4    4    0    0 -0.79391565160E+01 -0.15598409604E+02 -0.62110386855E+01  0.18572253899E+02  0.10500000000E+00 0.  1.
    3000001    1    5    5    0    0  0.89573345683E+01  0.39265679888E+02  0.15956393480E+02  0.43331673779E+02  0.10000000000E+01 0.  1.
        -13    1    6    6    0    0  0.50684136355E+01  0.97108553280E+01  0.81627874647E+01  0.13661319562E+02  0.10500000000E+00 0. -1.
         13    1    6    6    0    0  0.20970729792E+01  0.39019713366E+01  0.32700066869E+01  0.55070013732E+01  0.10500000000E+00 0.  1.
</event>
<event>
11    0  0.3483054E-009  0.9118800E+02  0.7816531E-02  0.1126479E+00
         25   -1    0    0    0    0  0.00000000000E+00  0.00000000000E+00  0.99999998245E-14  0.12500000000E+03  0.12500000000E+03 0.  0.
    3000001    1    3    3    0    0  0.42471576334E+02 -0.65320366146E+01 -0.28162984550E+02  0.51387313584E+02  0.10000000000E+01 0. -1.
    1000022    2    1    0    0    0  0.53391279540E+02 -0.65574544531E+01 -0.30209615136E+02  0.62499998287E+02  0.99999999692E+01 0.  0.
    3000022    2    3    3    0    0  0.10919703207E+02 -0.25417838452E-01 -0.20466305863E+01  0.11112684704E+02  0.25000075332E+00 0.  0.
    1000022    2    1    0    0    0 -0.53391279540E+02  0.65574544531E+01  0.30209615136E+02  0.62500001713E+02  0.10000021378E+02 0.  0.
    3000022    2    5    5    0    0 -0.41242844261E+02  0.57010683955E+01  0.27748229217E+02  0.50034998807E+02  0.24999451072E+00 0.  0.
        -13    1    4    4    0    0  0.73393970230E+01  0.34895393775E-01 -0.13824155717E+01  0.74692746744E+01  0.10500000000E+00 0. -1.
         13    1    4    4    0    0  0.35803061837E+01 -0.60313232227E-01 -0.66421501457E+00  0.36434100291E+01  0.10500000000E+00 0.  1.
    3000001    1    5    5    0    0 -0.12148435279E+02  0.85638605752E+00  0.24613859185E+01  0.12465002906E+02  0.10000000000E+01 0. -1.
        -13    1    6    6    0    0 -0.20257712570E+02  0.28686861007E+01  0.13636020967E+02  0.24587728063E+02  0.10500000000E+00 0. -1.
         13    1    6    6    0    0 -0.20985131692E+02  0.28323822948E+01  0.14112208250E+02  0.25447270743E+02  0.10500000000E+00 0.  1.
</event>
<event>
11    0  0.3483054E-009  0.9118800E+02  0.7816531E-02  0.1126479E+00
         25   -1    0    0    0    0  0.00000000000E+00  0.00000000000E+00  0.99999998245E-14  0.12500000000E+03  0.12500000000E+03 0.  0.
    3000001    1    3    3    0    0  0.36899405595E+01 -0.38335301268E+02 -0.10459741738E+02  0.39920135043E+02  0.10000000000E+01 0.  1.
    1000022    2    1    0    0    0  0.38760718125E+01 -0.57124641643E+02 -0.22978285339E+02  0.62500001884E+02  0.10000001145E+02 0.  0.
    3000022    2    3    3    0    0  0.18613125299E+00 -0.18789340375E+02 -0.12518543602E+02  0.22579866841E+02  0.24999220097E+00 0.  0.
    1000022    2    1    0    0    0 -0.38760718125E+01  0.57124641643E+02  0.22978285339E+02  0.62499998116E+02  0.99999775934E+01 0.  0.
    3000022    2    5    5    0    0  0.26355040611E+00  0.10192984305E+02  0.30322171550E+00  0.10203961527E+02  0.24999915442E+00 0.  0.
        -13    1    4    4    0    0  0.12150056598E+00 -0.13120864733E+02 -0.86867165024E+01  0.15736642664E+02  0.10500000000E+00 0.  1.
         13    1    4    4    0    0  0.64630687014E-01 -0.56684756419E+01 -0.38318270993E+01  0.68432241778E+01  0.10500000000E+00 0. -1.
    3000001    1    5    5    0    0 -0.41396222186E+01  0.46931657337E+02  0.22675063624E+02  0.52296036589E+02  0.10000000000E+01 0.  1.
        -13    1    6    6    0    0  0.14786064707E+00  0.60557906427E+01  0.24316760324E+00  0.60633834253E+01  0.10500000000E+00 0.  1.
         13    1    6    6    0    0  0.11568975905E+00  0.41371936625E+01  0.60054112259E-01  0.41405781019E+01  0.10500000000E+00 0. -1.
</event>
<event>
11    0  0.3483054E-009  0.9118800E+02  0.7816531E-02  0.1126479E+00
         25   -1    0    0    0    0  0.00000000000E+00  0.00000000000E+00  0.99999998245E-14  0.12500000000E+03  0.12500000000E+03 0.  0.
    3000001    1    3    3    0    0 -0.12868293314E+02 -0.19989021416E+01 -0.82794528084E+01  0.15464084887E+02  0.10000000000E+01 0. -1.
    1000022    2    1    0    0    0 -0.40232794098E+02 -0.10191268403E+02 -0.45647677720E+02  0.62500002040E+02  0.10000005058E+02 0.  0.
    3000022    2    3    3    0    0 -0.27364500784E+02 -0.81923662614E+01 -0.37368224911E+02  0.47035917153E+02  0.25000250441E+00 0.  0.
    1000022    2    1    0    0    0  0.40232794098E+02  0.10191268403E+02  0.45647677720E+02  0.62499997960E+02  0.99999795639E+01 0.  0.
    3000022    2    5    5    0    0  0.24490992110E+01  0.35117570819E+01  0.40305528737E+01  0.58854366601E+01  0.24996692667E+00 0.  0.
        -13    1    4    4    0    0 -0.11611928534E+02 -0.35438937490E+01 -0.15895733985E+02  0.20002036174E+02  0.10500000000E+00 0. -1.
         13    1    4    4    0    0 -0.15752572251E+02 -0.46484725124E+01 -0.21472490926E+02  0.27033880979E+02  0.10500000000E+00 0.  1.
    3000001    1    5    5    0    0  0.37783694887E+02  0.66795113211E+01  0.41617124846E+02  0.56614561300E+02  0.10000000000E+01 0.  1.
        -13    1    6    6    0    0  0.59413512181E+00  0.87557765696E+00  0.97102366650E+00  0.14399808114E+01  0.10500000000E+00 0. -1.
         13    1    6    6    0    0  0.18549640892E+01  0.26361794249E+01  0.30595292072E+01  0.44454558487E+01  0.10500000000E+00 0.  1.
</event>
<event>
11    0  0.3483054E-009  0.9118800E+02  0.7816531E-02  0.1126479E+00
         25   -1    0    0    0    0  0.00000000000E+00  0.00000000000E+00  0.99999998245E-14  0.12500000000E+03  0.12500000000E+03 0.  0.
    3000001    1    3    3    0    0  0.32265132534E+02 -0.20981595721E+02 -0.43298691822E+02  0.57939993527E+02  0.10000000000E+01 0.  1.
    1000022    2    1    0    0    0  0.35092976635E+02 -0.24331926880E+02 -0.44527405108E+02  0.62500000037E+02  0.10000026209E+02 0.  0.
    3000022    2    3    3    0    0  0.28278441017E+01 -0.33503311592E+01 -0.12287132856E+01  0.45600065100E+01  0.25000378716E+00 0.  0.
    1000022    2    1    0    0    0 -0.35092976635E+02  0.24331926880E+02  0.44527405108E+02  0.62499999963E+02  0.10000025742E+02 0.  0.
    3000022    2    5    5    0    0 -0.40537186863E+01  0.11604779759E+00  0.70465310530E+01  0.81340156185E+01  0.25001584366E+00 0.  0.
        -13    1    4    4    0    0  0.11161880303E+01 -0.14194521733E+01 -0.49154981275E+00  0.18743976124E+01  0.10500000000E+00 0. -1.
         13    1    4    4    0    0  0.17116560714E+01 -0.19308789859E+01 -0.73716347282E+00  0.26856088976E+01  0.10500000000E+00 0.  1.
    3000001    1    5    5    0    0 -0.31039257949E+02  0.24215879083E+02  0.37480874055E+02  0.54365984344E+02  0.10000000000E+01 0.  1.
        -13    1    6    6    0    0 -0.30997906547E+01  0.10037234178E+00  0.54020293881E+01  0.62299055547E+01  0.10500000000E+00 0.  1.
         13    1    6    6    0    0 -0.95392803158E+00  0.15675455819E-01  0.16445016649E+01  0.19041100638E+01  0.10500000000E+00 0. -1.
</event>
<event>
11    0  0.3483054E-009  0.9118800E+02  0.7816531E-02  0.1126479E+00
         25   -1    0    0    0    0  0.00000000000E+00  0.00000000000E+00  0.99999998245E-14  0.12500000000E+03  0.12500000000E+03 0.  0.
    3000001    1    3    3    0    0 -0.22257618489E+02  0.46742313881E+02  0.26906345459E+02  0.58354065100E+02  0.10000000000E+01 0. -1.
    1000022    2    1    0    0    0 -0.23720910951E+02  0.48069914960E+02  0.30542620723E+02  0.62499999200E+02  0.99999939379E+01 0.  0.
    3000022    2    3    3    0    0 -0.14632924620E+01  0.13276010793E+01  0.36362752643E+01  0.41459341002E+01  0.25004461718E+00 0.  0.
    1000022    2    1    0    0    0  0.23720910951E+02 -0.48069914960E+02 -0.30542620723E+02  0.62500000800E+02  0.10000003932E+02 0.  0.
    3000022    2    5    5    0    0  0.20479384286E+02 -0.31298787380E+02 -0.20300456370E+02  0.42558081482E+02  0.24999678399E+00 0.  0.
        -13    1    4    4    0    0 -0.46723012203E+00  0.44632142557E+00  0.13025164909E+01  0.14577657599E+01  0.10500000000E+00 0.  1.
         13    1    4    4    0    0 -0.99606233999E+00  0.88127965378E+00  0.23337587734E+01  0.26881683403E+01  0.10500000000E+00 0. -1.
    3000001    1    5    5    0    0  0.32415266655E+01 -0.16771127580E+02 -0.10242164354E+02  0.19941919318E+02  0.10000000000E+01 0.  1.
        -13    1    6    6    0    0  0.77407699410E+01 -0.11906287221E+02 -0.77581766264E+01  0.16182692120E+02  0.10500000000E+00 0.  1.
         13    1    6    6    0    0  0.12738614345E+02 -0.19392500159E+02 -0.12542279743E+02  0.26375389362E+02  0.10500000000E+00 0. -1.
</event>
<event>
11    0  0.3483054E-009  0.9118800E+02  0.7816531E-02  0.1126479E+00
         25   -1    0    0    0    0  0.00000000000E+00  0.00000000000E+00  0.99999998245E-14  0.12500000000E+03  0.12500000000E+03 0.  0.
    3000001    1    3    3    0    0  0.17574045096E+02 -0.24708926426E+02  0.84973017032E+01  0.31505273247E+02  0.10000000000E+01 0. -1.
    1000022    2    1    0    0    0  0.26468228052E+02 -0.51501470789E+02  0.21290408499E+02  0.62499998701E+02  0.99999876977E+01 0.  0.
    3000022    2    3    3    0    0  0.88941829557E+01 -0.26792544364E+02  0.12793106796E+02  0.30994725454E+02  0.25000112122E+00 0.  0.
    1000022    2    1    0    0    0 -0.26468228052E+02  0.51501470789E+02 -0.21290408499E+02  0.62500001299E+02  0.10000003930E+02 0.  0.
    3000022    2    5    5    0    0 -0.16576548505E+02  0.28514384407E+02 -0.71885747609E+01  0.33757816632E+02  0.24999648705E+00 0.  0.
        -13    1    4    4    0    0  0.44975844373E+01 -0.13727943873E+02  0.65054548116E+01  0.15843505801E+02  0.10500000000E+00 0.  1.
         13    1    4    4    0    0  0.43965985184E+01 -0.13064600491E+02  0.62876519842E+01  0.15151219654E+02  0.10500000000E+00 0. -1.
    3000001    1    5    5    0    0 -0.98916795466E+01  0.22987086382E+02 -0.14101833738E+02  0.28742184666E+02  0.10000000000E+01 0.  1.
        -13    1    6    6    0    0 -0.95082098217E+01  0.16448008868E+02 -0.41874260348E+01  0.19454783770E+02  0.10500000000E+00 0. -1.
         13    1    6    6    0    0 -0.70683386835E+01  0.12066375539E+02 -0.30011487261E+01  0.14303032863E+02  0.10500000000E+00 0.  1.
</event>
<event>
11    0  0.3483054E-009  0.9118800E+02  0.7816531E-02  0.1126479E+00
         25   -1    0    0    0    0  0.00000000000E+00  0.00000000000E+00  0.99999998245E-14  0.12500000000E+03  0.12500000000E+03 0.  0.
    3000001    1    3    3    0    0  0.89094404483E+01  0.12637967855E+02 -0.48930200152E+01  0.16249246305E+02  0.10000000000E+01 0.  1.
    1000022    2    1    0    0    0  0.24508304926E+02  0.46687345626E+02 -0.32029435890E+02  0.62500000574E+02  0.10000002816E+02 0.  0.
    3000022    2    3    3    0    0  0.15598864478E+02  0.34049377771E+02 -0.27136415875E+02  0.46250754269E+02  0.25000861858E+00 0.  0.
    1000022    2    1    0    0    0 -0.24508304926E+02 -0.46687345626E+02  0.32029435890E+02  0.62499999426E+02  0.99999956425E+01 0.  0.
    3000022    2    5    5    0    0 -0.17049912246E+02 -0.24152194625E+02  0.21256326630E+02  0.36413210909E+02  0.24998816740E+00 0.  0.
        -13    1    4    4    0    0  0.96747605987E+01  0.21001086949E+02 -0.16707765481E+02  0.28527304430E+02  0.10500000000E+00 0. -1.
         13    1    4    4    0    0  0.59241038792E+01  0.13048290822E+02 -0.10428650393E+02  0.17723449838E+02  0.10500000000E+00 0.  1.
    3000001    1    5    5    0    0 -0.74583926800E+01 -0.22535151001E+02  0.10773109260E+02  0.26086788517E+02  0.10000000000E+01 0.  1.
        -13    1    6    6    0    0 -0.64002083759E+01 -0.91458124594E+01  0.80747314059E+01  0.13777549313E+02  0.10500000000E+00 0. -1.
         13    1    6    6    0    0 -0.10649703870E+02 -0.15006382166E+02  0.13181595224E+02  0.22635661596E+02  0.10500000000E+00 0.  1.
</event>
<event>
11    0  0.3483054E-009  0.9118800E+02  0.7816531E-02  0.1126479E+00
         25   -1    0    0    0    0  0.00000000000E+00  0.00000000000E+00  0.99999998245E-14  0.12500000000E+03  0.12500000000E+03 0.  0.
    3000001    1    3    3    0    0 -0.84789922344E+01 -0.88148360073E+01 -0.38470840291E+02  0.40380690879E+02  0.10000000000E+01 0. -1.
    1000022    2    1    0    0    0 -0.72101089628E+01 -0.17883681737E+02 -0.58604079830E+02  0.62500000593E+02  0.10000007884E+02 0.  0.
    3000022    2    3    3    0    0  0.12688832715E+01 -0.90688457296E+01 -0.20133239539E+02  0.22119309714E+02  0.25000055189E+00 0.  0.
    1000022    2    1    0    0    0  0.72101089628E+01  0.17883681737E+02  0.58604079830E+02  0.62499999407E+02  0.10000000468E+02 0.  0.
    3000022    2    5    5    0    0  0.57382427709E+01  0.17532765247E+02  0.57474931775E+02  0.60363528531E+02  0.25001385746E+00 0.  0.
        -13    1    4    4    0    0  0.72961733358E+00 -0.56333777219E+01 -0.12530550923E+02  0.13758379899E+02  0.10500000000E+00 0.  1.
         13    1    4    4    0    0  0.53926593795E+00 -0.34354680077E+01 -0.76026886158E+01  0.83609298151E+01  0.10500000000E+00 0. -1.
    3000001    1    5    5    0    0  0.14718661920E+01  0.35091648949E+00  0.11291480555E+01  0.21364708753E+01  0.10000000000E+01 0.  1.
        -13    1    6    6    0    0  0.41939905465E+01  0.12738699891E+02  0.41875012623E+02  0.43970350679E+02  0.10500000000E+00 0. -1.
         13    1    6    6    0    0  0.15442522244E+01  0.47940653561E+01  0.15599919152E+02  0.16393177853E+02  0.10500000000E+00 0.  1.
</event>
<event>
11    0  0.3483054E-009  0.9118800E+02  0.7816531E-02  0.1126479E+00
         25   -1    0    0    0    0  0.00000000000E+00  0.00000000000E+00  0.99999998245E-14  0.12500000000E+03  0.12500000000E+03 0.  0.
    3000001    1    3    3    0    0 -0.11252661729E+01 -0.42345650584E+00  0.31092936566E+01  0.34804089436E+01  0.10000000000E+01 0.  1.
    1000022    2    1    0    0    0 -0.13299122954E+02 -0.41993736102E+02  0.43196177349E+02  0.62499996278E+02  0.99999627025E+01 0.  0.
    3000022    2    3    3    0    0 -0.12173856781E+02 -0.41570279596E+02  0.40086883693E+02  0.59019587335E+02  0.25002066637E+00 0.  0.
    1000022    2    1    0    0    0  0.13299122954E+02  0.41993736102E+02 -0.43196177349E+02  0.62500003722E+02  0.10000009222E+02 0.  0.
    3000022    2    5    5    0    0  0.41789964241E+01  0.11511562796E+02 -0.18602882721E+02  0.22273523164E+02  0.24999897403E+00 0.  0.
        -13    1    4    4    0    0 -0.68096310189E+01 -0.23382504622E+02  0.22613234266E+02  0.33233747697E+02  0.10500000000E+00 0. -1.
         13    1    4    4    0    0 -0.53642257617E+01 -0.18187774974E+02  0.17473649427E+02  0.25785839638E+02  0.10500000000E+00 0.  1.
    3000001    1    5    5    0    0  0.91201265294E+01  0.30482173306E+02 -0.24593294629E+02  0.40226480558E+02  0.10000000000E+01 0.  1.
        -13    1    6    6    0    0  0.30589293898E+01  0.83161478365E+01 -0.13443012145E+02  0.16100961598E+02  0.10500000000E+00 0.  1.
         13    1    6    6    0    0  0.11200670343E+01  0.31954149598E+01 -0.51598705757E+01  0.61725615659E+01  0.10500000000E+00 0. -1.
</event>
<event>
11    0  0.3483054E-009  0.9118800E+02  0.7816531E-02  0.1126479E+00
         25   -1    0    0    0    0  0.00000000000E+00  0.00000000000E+00  0.99999998245E-14  0.12500000000E+03  0.12500000000E+03 0.  0.
    3000001    1    3    3    0    0 -0.57064510249E+02  0.77873122301E+00  0.18086935806E+01  0.57107233559E+02  0.10000000000E+01 0.  1.
    1000022    2    1    0    0    0 -0.61689082454E+02 -0.60947542744E+00 -0.57997060168E+00  0.62500005650E+02  0.99999993041E+01 0.  0.
    3000022    2    3    3    0    0 -0.46245722047E+01 -0.13882066504E+01 -0.23886641823E+01  0.53927720912E+01  0.24997694121E+00 0.  0.
    1000022    2    1    0    0    0  0.61689082454E+02  0.60947542744E+00  0.57997060168E+00  0.62499994350E+02  0.99999286761E+01 0.  0.
    3000022    2    5    5    0    0  0.19727256741E+02  0.24617638258E+01 -0.38545158455E+01  0.20252030381E+02  0.25000497148E+00 0.  0.
        -13    1    4    4    0    0 -0.15808311815E+01 -0.52178889175E+00 -0.86028728431E+00  0.18768084834E+01  0.10500000000E+00 0.  1.
         13    1    4    4    0    0 -0.30437410232E+01 -0.86641775869E+00 -0.15283768980E+01  0.35159636078E+01  0.10500000000E+00 0. -1.
    3000001    1    5    5    0    0  0.41961825712E+02 -0.18522883983E+01  0.44344864472E+01  0.42247963968E+02  0.10000000000E+01 0.  1.
        -13    1    6    6    0    0  0.66514964326E+01  0.80408384483E+00 -0.13477218308E+01  0.68349348758E+01  0.10500000000E+00 0. -1.
         13    1    6    6    0    0  0.13075760309E+02  0.16576799809E+01 -0.25067940147E+01  0.13417095506E+02  0.10500000000E+00 0.  1.
</event>
<event>
11    0  0.3483054E-009  0.9118800E+02  0.7816531E-02  0.1126479E+00
         25   -1    0    0    0    0  0.00000000000E+00  0.00000000000E+00  0.99999998245E-14  0.12500000000E+03  0.12500000000E+03 0.  0.
    3000001    1    3    3    0    0 -0.49255132488E+01 -0.23623310528E+02 -0.23249661358E+02  0.33524144050E+02  0.10000000000E+01 0. -1.
    1000022    2    1    0    0    0 -0.12502282951E+02 -0.36782626609E+02 -0.47926833409E+02  0.62500002252E+02  0.10000011076E+02 0.  0.
    3000022    2    3    3    0    0 -0.75767697021E+01 -0.13159316082E+02 -0.24677172051E+02  0.28975858201E+02  0.24999837335E+00 0.  0.
    1000022    2    1    0    0    0  0.12502282951E+02  0.36782626609E+02  0.47926833409E+02  0.62499997748E+02  0.99999829317E+01 0.  0.
    3000022    2    5    5    0    0 -0.27606210761E+00  0.10522186408E+02  0.16622321898E+02  0.19676297967E+02  0.24999863114E+00 0.  0.
        -13    1    4    4    0    0 -0.18399845518E+01 -0.31684638796E+01 -0.59852906107E+01  0.70185066219E+01  0.10500000000E+00 0. -1.
         13    1    4    4    0    0 -0.57367851503E+01 -0.99908522022E+01 -0.18691881441E+02  0.21957351579E+02  0.10500000000E+00 0.  1.
    3000001    1    5    5    0    0  0.12778345058E+02  0.26260440201E+02  0.31304511512E+02  0.42823699781E+02  0.10000000000E+01 0.  1.
        -13    1    6    6    0    0 -0.21223915389E+00  0.56068880549E+01  0.88917468611E+01  0.10514581607E+02  0.10500000000E+00 0. -1.
         13    1    6    6    0    0 -0.63822953726E-01  0.49152983535E+01  0.77305750367E+01  0.91617163606E+01  0.10500000000E+00 0.  1.
</event>
<event>
11    0  0.3483054E-009  0.9118800E+02  0.7816531E-02  0.1126479E+00
         25   -1    0    0    0    0  0.00000000000E+00  0.00000000000E+00  0.99999998245E-14  0.12500000000E+03  0.12500000000E+03 0.  0.
    3000001    1    3    3    0    0  0.88483855146E+01  0.33387434534E+02 -0.33714210556E+02  0.48276937604E+02  0.10000000000E+01 0. -1.
    1000022    2    1    0    0    0  0.86024746814E+01  0.46094391203E+02 -0.40094319841E+02  0.62500000371E+02  0.10000004588E+02 0.  0.
    3000022    2    3    3    0    0 -0.24591083318E+00  0.12706956669E+02 -0.63801092854E+01  0.14223062767E+02  0.25000010459E+00 0.  0.
    1000022    2    1    0    0    0 -0.86024746814E+01 -0.46094391203E+02  0.40094319841E+02  0.62499999629E+02  0.99999999504E+01 0.  0.
    3000022    2    5    5    0    0 -0.42471569652E+00 -0.10114475041E+02  0.40416046612E+01  0.10903213092E+02  0.24999742577E+00 0.  0.
        -13    1    4    4    0    0 -0.21502880881E+00  0.92996826045E+01 -0.46728694287E+01  0.10410430713E+02  0.10500000000E+00 0. -1.
         13    1    4    4    0    0 -0.30882024379E-01  0.34072740646E+01 -0.17072398566E+01  0.38126320539E+01  0.10500000000E+00 0.  1.
    3000001    1    5    5    0    0 -0.81777589849E+01 -0.35979916162E+02  0.36052715180E+02  0.51596786537E+02  0.10000000000E+01 0.  1.
        -13    1    6    6    0    0 -0.20947025164E+00 -0.54393033040E+01  0.21036722825E+01  0.58366394690E+01  0.10500000000E+00 0. -1.
         13    1    6    6    0    0 -0.21524544488E+00 -0.46751717372E+01  0.19379323787E+01  0.50665736231E+01  0.10500000000E+00 0.  1.
</event>
<event>
11    0  0.3483054E-009  0.9118800E+02  0.7816531E-02  0.1126479E+00
         25   -1    0    0    0    0  0.00000000000E+00  0.00000000000E+00  0.99999998245E-14  0.12500000000E+03  0.12500000000E+03 0.  0.
    3000001    1    3    3    0    0  0.49616067077E+01  0.35217542729E+02  0.23450463489E+02  0.42612405410E+02  0.10000000000E+01 0.  1.
    1000022    2    1    0    0    0  0.51697388859E+00  0.51213921560E+02  0.34396474138E+02  0.62500003198E+02  0.99999971496E+01 0.  0.
    3000022    2    3    3    0    0 -0.44446328191E+01  0.15996378831E+02  0.10946010649E+02  0.19887597788E+02  0.25000003498E+00 0.  0.
    1000022    2    1    0    0    0 -0.51697388859E+00 -0.51213921560E+02 -0.34396474138E+02  0.62499996802E+02  0.99999571778E+01 0.  0.
    3000022    2    5    5    0    0  0.58573473230E+00 -0.35852589295E+02 -0.29109225233E+02  0.46186153103E+02  0.25000088276E+00 0.  0.
        -13    1    4    4    0    0 -0.26386847318E+01  0.92880092635E+01  0.63265936261E+01  0.11544114739E+02  0.10500000000E+00 0.  1.
         13    1    4    4    0    0 -0.18059480874E+01  0.67083695680E+01  0.46194170232E+01  0.83434830490E+01  0.10500000000E+00 0. -1.
    3000001    1    5    5    0    0 -0.11027086209E+01 -0.15361332265E+02 -0.52872489053E+01  0.16313843699E+02  0.10000000000E+01 0. -1.
        -13    1    6    6    0    0  0.26413703679E+00 -0.19007122162E+02 -0.15368498006E+02  0.24444676664E+02  0.10500000000E+00 0. -1.
         13    1    6    6    0    0  0.32159769551E+00 -0.16845467134E+02 -0.13740727227E+02  0.21741476439E+02  0.10500000000E+00 0.  1.
</event>
<event>
11    0  0.3483054E-009  0.9118800E+02  0.7816531E-02  0.1126479E+00
         25   -1    0    0    0    0  0.00000000000E+00  0.00000000000E+00  0.99999998245E-14  0.12500000000E+03  0.12500000000E+03 0.  0.
    3000001    1    3    3    0    0 -0.30026942007E+01 -0.10517723554E+02  0.79754008124E+00  0.11012481619E+02  0.10000000000E+01 0.  1.
    1000022    2    1    0    0    0 -0.35541471312E+02 -0.49993707483E+02  0.66093143697E+01  0.62499999969E+02  0.99999994415E+01 0.  0.
    3000022    2    3    3    0    0 -0.32538777111E+02 -0.39475983929E+02  0.58117742885E+01  0.51487518351E+02  0.25000497105E+00 0.  0.
    1000022    2    1    0    0    0  0.35541471312E+02  0.49993707483E+02 -0.66093143697E+01  0.62500000031E+02  0.99999998263E+01 0.  0.
    3000022    2    5    5    0    0  0.29979607795E+02  0.42419194502E+02 -0.19934755183E+01  0.51982702803E+02  0.25000063347E+00 0.  0.
        -13    1    4    4    0    0 -0.12647292882E+02 -0.15288982281E+02  0.22027996655E+01  0.19964226702E+02  0.10500000000E+00 0. -1.
         13    1    4    4    0    0 -0.19891484229E+02 -0.24187001648E+02  0.36089746230E+01  0.31523291649E+02  0.10500000000E+00 0.  1.
    3000001    1    5    5    0    0  0.55618635163E+01  0.75745129810E+01 -0.46158388514E+01  0.10517297228E+02  0.10000000000E+01 0.  1.
        -13    1    6    6    0    0  0.13600737167E+02  0.19128536417E+02 -0.89931188350E+00  0.23488310790E+02  0.10500000000E+00 0.  1.
         13    1    6    6    0    0  0.16378870629E+02  0.23290658085E+02 -0.10941636348E+01  0.28494392013E+02  0.10500000000E+00 0. -1.
</event>
<event>
11    0  0.3483054E-009  0.9118800E+02  0.7816531E-02  0.1126479E+00
         25   -1    0    0    0    0  0.00000000000E+00  0.00000000000E+00  0.99999998245E-14  0.12500000000E+03  0.12500000000E+03 0.  0.
    3000001    1    3    3    0    0  0.96173649098E+01 -0.60042974879E-01 -0.12677851730E+02  0.15944442212E+02  0.10000000000E+01 0.  1.
    1000022    2    1    0    0    0  0.40180799433E+02 -0.15806485600E+02 -0.44067083396E+02  0.62500004137E+02  0.10000052402E+02 0.  0.
    3000022    2    3    3    0    0  0.30563434523E+02 -0.15746442625E+02 -0.31389231665E+02  0.46555561925E+02  0.24999278387E+00 0.  0.
    1000022    2    1    0    0    0 -0.40180799433E+02  0.15806485600E+02  0.44067083396E+02  0.62499995863E+02  0.10000000687E+02 0.  0.
    3000022    2    5    5    0    0 -0.18173674243E+02  0.19190200735E+01  0.17835279224E+02  0.25536732912E+02  0.24993855280E+00 0.  0.
        -13    1    4    4    0    0  0.12984301081E+02 -0.66804783685E+01 -0.13418981965E+02  0.19831817056E+02  0.10500000000E+00 0. -1.
         13    1    4    4    0    0  0.17579133443E+02 -0.90659642564E+01 -0.17970249700E+02  0.26723744868E+02  0.10500000000E+00 0.  1.
    3000001    1    5    5    0    0 -0.22007125190E+02  0.13887465526E+02  0.26231804172E+02  0.36963262951E+02  0.10000000000E+01 0.  1.
        -13    1    6    6    0    0 -0.10512095592E+02  0.10542847282E+01  0.10357574867E+02  0.14795474043E+02  0.10500000000E+00 0.  1.
         13    1    6    6    0    0 -0.76615786512E+01  0.86473534536E+00  0.74777043563E+01  0.10741258869E+02  0.10500000000E+00 0. -1.
</event>
<event>
11    0  0.3483054E-009  0.9118800E+02  0.7816531E-02  0.1126479E+00
         25   -1    0    0    0    0  0.00000000000E+00  0.00000000000E+00  0.99999998245E-14  0.12500000000E+03  0.12500000000E+03 0.  0.
    3000001    1    3    3    0    0 -0.63505487701E+01  0.37960177095E+02 -0.22779561755E+02  0.44734918671E+02  0.10000000000E+01 0. -1.
    1000022    2    1    0    0    0 -0.10844507428E+02  0.54808708382E+02 -0.26165858697E+02  0.62500001683E+02  0.10000009660E+02 0.  0.
    3000022    2    3    3    0    0 -0.44939586577E+01  0.16848531287E+02 -0.33862969424E+01  0.17765083012E+02  0.24999300825E+00 0.  0.
    1000022    2    1    0    0    0  0.10844507428E+02 -0.54808708382E+02  0.26165858697E+02  0.62499998317E+02  0.99999886193E+01 0.  0.
    3000022    2    5    5    0    0  0.74423744592E+01 -0.48039434890E+02  0.19566871332E+02  0.52403255941E+02  0.25007482042E+00 0.  0.
        -13    1    4    4    0    0 -0.23952821560E+01  0.87179731248E+01 -0.17527706074E+01  0.92099762113E+01  0.10500000000E+00 0.  1.
         13    1    4    4    0    0 -0.20986765017E+01  0.81305581619E+01 -0.16335263349E+01  0.85551068006E+01  0.10500000000E+00 0. -1.
    3000001    1    5    5    0    0  0.34021329686E+01 -0.67692734923E+01  0.65989873654E+01  0.10096742376E+02  0.10000000000E+01 0. -1.
        -13    1    6    6    0    0  0.31174920644E+01 -0.20088004907E+02  0.82519350984E+01  0.21939739191E+02  0.10500000000E+00 0. -1.
         13    1    6    6    0    0  0.43248823947E+01 -0.27951429983E+02  0.11314936233E+02  0.30463516750E+02  0.10500000000E+00 0.  1.
</event>
<event>
11    0  0.3483054E-009  0.9118800E+02  0.7816531E-02  0.1126479E+00
         25   -1    0    0    0    0  0.00000000000E+00  0.00000000000E+00  0.99999998245E-14  0.12500000000E+03  0.12500000000E+03 0.  0.
    3000001    1    3    3    0    0  0.59615467191E+01 -0.24633081281E+02 -0.11136980052E+02  0.27701282594E+02  0.10000000000E+01 0. -1.
    1000022    2    1    0    0    0  0.26965405737E+01 -0.55050784713E+02 -0.27719840204E+02  0.62499999507E+02  0.10000008444E+02 0.  0.
    3000022    2    3    3    0    0 -0.32650061454E+01 -0.30417703432E+02 -0.16582860153E+02  0.34798716914E+02  0.25000153302E+00 0.  0.
    1000022    2    1    0    0    0 -0.26965405737E+01  0.55050784713E+02  0.27719840204E+02  0.62500000493E+02  0.10000014602E+02 0.  0.
    3000022    2    5    5    0    0 -0.26474343552E+01  0.44425580324E+02  0.26400723639E+02  0.51746515093E+02  0.25003960648E+00 0.  0.
        -13    1    4    4    0    0 -0.97459240984E+00 -0.88776495662E+01 -0.48843405341E+01  0.10179896838E+02  0.10500000000E+00 0. -1.
         13    1    4    4    0    0 -0.22904137356E+01 -0.21540053866E+02 -0.11698519619E+02  0.24618820075E+02  0.10500000000E+00 0.  1.
    3000001    1    5    5    0    0 -0.49106218489E-01  0.10625204389E+02  0.13191165654E+01  0.10753485400E+02  0.10000000000E+01 0.  1.
        -13    1    6    6    0    0 -0.12272646827E+01  0.21717106327E+02  0.12889907097E+02  0.25284374933E+02  0.10500000000E+00 0. -1.
         13    1    6    6    0    0 -0.14201696725E+01  0.22708473997E+02  0.13510816542E+02  0.26462140159E+02  0.10500000000E+00 0.  1.
</event>
<event>
11    0  0.3483054E-009  0.9118800E+02  0.7816531E-02  0.1126479E+00
         25   -1    0    0    0    0  0.00000000000E+00  0.00000000000E+00  0.99999998245E-14  0.12500000000E+03  0.12500000000E+03 0.  0.
    3000001    1    3    3    0    0  0.15823225750E+02  0.20909169021E+02 -0.39943077657E+02  0.47791393315E+02  0.10000000000E+01 0.  1.
    1000022    2    1    0    0    0  0.25258771156E+02  0.24782630618E+02 -0.50537763990E+02  0.62499999569E+02  0.10000002821E+02 0.  0.
    3000022    2    3    3    0    0  0.94355454066E+01  0.38734615972E+01 -0.10594686333E+02  0.14708606255E+02  0.24999519423E+00 0.  0.
    1000022    2    1    0    0    0 -0.25258771156E+02 -0.24782630618E+02  0.50537763990E+02  0.62500000431E+02  0.10000008204E+02 0.  0.
    3000022    2    5    5    0    0 -0.15330297533E+02 -0.19599430021E+02  0.39882687129E+02  0.47009008861E+02  0.25000367827E+00 0.  0.
        -13    1    4    4    0    0  0.35498617944E+01  0.14869952113E+01 -0.39207703068E+01  0.54951013017E+01  0.10500000000E+00 0. -1.
         13    1    4    4    0    0  0.58856836122E+01  0.23864663859E+01 -0.66739160261E+01  0.92135049529E+01  0.10500000000E+00 0.  1.
    3000001    1    5    5    0    0 -0.99284736226E+01 -0.51832005971E+01  0.10655076861E+02  0.15490991570E+02  0.10000000000E+01 0.  1.
        -13    1    6    6    0    0 -0.61149633639E+01 -0.79160447517E+01  0.16067620957E+02  0.18927123650E+02  0.10500000000E+00 0.  1.
         13    1    6    6    0    0 -0.92153341696E+01 -0.11683385269E+02  0.23815066172E+02  0.28081885210E+02  0.10500000000E+00 0. -1.
</event>
<event>
11    0  0.3483054E-009  0.9118800E+02  0.7816531E-02  0.1126479E+00
         25   -1    0    0    0    0  0.00000000000E+00  0.00000000000E+00  0.99999998245E-14  0.12500000000E+03  0.12500000000E+03 0.  0.
    3000001    1    3    3    0    0  0.24341557897E+01  0.10180840418E+02 -0.93146728595E+01  0.14047695772E+02  0.10000000000E+01 0. -1.
    1000022    2    1    0    0    0 -0.44323807228E+01  0.51433434548E+02 -0.33781739000E+02  0.62499998932E+02  0.99999894134E+01 0.  0.
    3000022    2    3    3    0    0 -0.68665365125E+01  0.41252594130E+02 -0.24467066140E+02  0.48452303160E+02  0.25001954468E+00 0.  0.
    1000022    2    1    0    0    0  0.44323807228E+01 -0.51433434548E+02  0.33781739000E+02  0.62500001068E+02  0.10000002768E+02 0.  0.
    3000022    2    5    5    0    0  0.41407395874E+01 -0.27462784926E+02  0.23556636849E+02  0.36418785379E+02  0.25001713916E+00 0.  0.
        -13    1    4    4    0    0 -0.21219297236E+01  0.12491632755E+02 -0.74363681756E+01  0.14691973022E+02  0.10500000000E+00 0.  1.
         13    1    4    4    0    0 -0.47446067889E+01  0.28760961376E+02 -0.17030697965E+02  0.33760330138E+02  0.10500000000E+00 0. -1.
    3000001    1    5    5    0    0  0.29164113539E+00 -0.23970649622E+02  0.10225102151E+02  0.26081215690E+02  0.10000000000E+01 0.  1.
        -13    1    6    6    0    0  0.16655802648E+01 -0.10759857953E+02  0.92944051924E+01  0.14315924479E+02  0.10500000000E+00 0.  1.
         13    1    6    6    0    0  0.24751593226E+01 -0.16702926973E+02  0.14262231657E+02  0.22102860900E+02  0.10500000000E+00 0. -1.
</event>
<event>
11    0  0.3483054E-009  0.9118800E+02  0.7816531E-02  0.1126479E+00
         25   -1    0    0    0    0  0.00000000000E+00  0.00000000000E+00  0.99999998245E-14  0.12500000000E+03  0.12500000000E+03 0.  0.
    3000001    1    3    3    0    0  0.18746076529E+02 -0.69843167704E+01  0.33584527702E+02  0.39103920097E+02  0.10000000000E+01 0. -1.
    1000022    2    1    0    0    0  0.22771989287E+02 -0.10793844256E+02  0.56313224067E+02  0.62500001181E+02  0.10000018649E+02 0.  0.
    3000022    2    3    3    0    0  0.40259127584E+01 -0.38095274858E+01  0.22728696364E+02  0.23396081084E+02  0.24999695748E+00 0.  0.
    1000022    2    1    0    0    0 -0.22771989287E+02  0.10793844256E+02 -0.56313224067E+02  0.62499998819E+02  0.10000003882E+02 0.  0.
    3000022    2    5    5    0    0 -0.12625554371E+02  0.97493815356E+01 -0.41729330401E+02  0.44674988347E+02  0.25000912455E+00 0.  0.
        -13    1    4    4    0    0  0.23009707795E+01 -0.22587184733E+01  0.13105604951E+02  0.13496821174E+02  0.10500000000E+00 0. -1.
         13    1    4    4    0    0  0.17249419789E+01 -0.15508090125E+01  0.96230914138E+01  0.98992599108E+01  0.10500000000E+00 0.  1.
    3000001    1    5    5    0    0 -0.10146434915E+02  0.10444627206E+01 -0.14583893666E+02  0.17825010472E+02  0.10000000000E+01 0.  1.
        -13    1    6    6    0    0 -0.37861333197E+01  0.29147786150E+01 -0.12375124192E+02  0.13265951291E+02  0.10500000000E+00 0.  1.
         13    1    6    6    0    0 -0.88394210517E+01  0.68346029205E+01 -0.29354206209E+02  0.31409037056E+02  0.10500000000E+00 0. -1.
</event>
<event>
11    0  0.3483054E-009  0.9118800E+02  0.7816531E-02  0.1126479E+00
         25   -1    0    0    0    0  0.00000000000E+00  0.00000000000E+00  0.99999998245E-14  0.12500000000E+03  0.12500000000E+03 0.  0.
    3000001    1    3    3    0    0 -0.49023935884E+02 -0.18212532632E+02 -0.24625224692E+02  0.57813876583E+02  0.10000000000E+01 0. -1.
    1000022    2    1    0    0    0 -0.50872376615E+02 -0.21140528892E+02 -0.27772818486E+02  0.62499999054E+02  0.99999885404E+01 0.  0.
    3000022    2    3    3    0    0 -0.18484407310E+01 -0.29279962594E+01 -0.31475937936E+01  0.46861224706E+01  0.25000377718E+00 0.  0.
    1000022    2    1    0    0    0  0.50872376615E+02  0.21140528892E+02  0.27772818486E+02  0.62500000946E+02  0.10000000366E+02 0.  0.
    3000022    2    5    5    0    0  0.28368838955E+01  0.12450648102E+01  0.46394337897E+01  0.55843480962E+01  0.25000230438E+00 0.  0.
        -13    1    4    4    0    0 -0.62916011245E+00 -0.10632225196E+01 -0.11861360590E+01  0.17158753811E+01  0.10500000000E+00 0. -1.
         13    1    4    4    0    0 -0.12192806185E+01 -0.18647737398E+01 -0.19614577346E+01  0.29702470894E+01  0.10500000000E+00 0.  1.
    3000001    1    5    5    0    0  0.48035492720E+02  0.19895464081E+02  0.23133384696E+02  0.56915652850E+02  0.10000000000E+01 0. -1.
        -13    1    6    6    0    0  0.11685224237E+01  0.55975526915E+00  0.18548245467E+01  0.22649877958E+01  0.10500000000E+00 0. -1.
         13    1    6    6    0    0  0.16683614717E+01  0.68530954110E+00  0.27846092430E+01  0.33193603003E+01  0.10500000000E+00 0.  1.
</event>
<event>
11    0  0.3483054E-009  0.9118800E+02  0.7816531E-02  0.1126479E+00
         25   -1    0    0    0    0  0.00000000000E+00  0.00000000000E+00  0.99999998245E-14  0.12500000000E+03  0.12500000000E+03 0.  0.
    3000001    1    3    3    0    0 -0.14560148295E+01  0.11205761947E+02 -0.16208324782E+02  0.19783803280E+02  0.10000000000E+01 0.  1.
    1000022    2    1    0    0    0 -0.23457295074E+01  0.45728490667E+02 -0.41347946890E+02  0.62500000254E+02  0.10000000712E+02 0.  0.
    3000022    2    3    3    0    0 -0.88971467791E+00  0.34522728719E+02 -0.25139622108E+02  0.42716196974E+02  0.24998754785E+00 0.  0.
    1000022    2    1    0    0    0  0.23457295074E+01 -0.45728490667E+02  0.41347946890E+02  0.62499999746E+02  0.99999975330E+01 0.  0.
    3000022    2    5    5    0    0  0.50451922350E+01 -0.39259932431E+02  0.37047961731E+02  0.54216328034E+02  0.24999576808E+00 0.  0.
        -13    1    4    4    0    0 -0.29104191370E+00  0.11498852417E+02 -0.84394313919E+01  0.14266861586E+02  0.10500000000E+00 0. -1.
         13    1    4    4    0    0 -0.59867276421E+00  0.23023876302E+02 -0.16700190716E+02  0.28449335388E+02  0.10500000000E+00 0.  1.
    3000001    1    5    5    0    0 -0.26994627276E+01 -0.64685582356E+01  0.42999851587E+01  0.82836717119E+01  0.10000000000E+01 0. -1.
        -13    1    6    6    0    0  0.16833750433E+01 -0.13498356565E+02  0.12701739350E+02  0.18611410183E+02  0.10500000000E+00 0. -1.
         13    1    6    6    0    0  0.33618171917E+01 -0.25761575866E+02  0.24346222381E+02  0.35604917851E+02  0.10500000000E+00 0.  1.
</event>
<event>
11    0  0.3483054E-009  0.9118800E+02  0.7816531E-02  0.1126479E+00
         25   -1    0    0    0    0  0.00000000000E+00  0.00000000000E+00  0.99999998245E-14  0.12500000000E+03  0.12500000000E+03 0.  0.
    3000001    1    3    3    0    0 -0.73368948404E+01 -0.65119660769E+01  0.17560896208E+02  0.20140029884E+02  0.10000000000E+01 0.  1.
    1000022    2    1    0    0    0 -0.25443156645E+02 -0.62582502262E+01  0.55854543846E+02  0.62499999623E+02  0.99999984342E+01 0.  0.
    3000022    2    3    3    0    0 -0.18106261805E+02  0.25371585073E+00  0.38293647638E+02  0.42359969739E+02  0.24999726863E+00 0.  0.
    1000022    2    1    0    0    0  0.25443156645E+02  0.62582502262E+01 -0.55854543846E+02  0.62500000377E+02  0.10000003145E+02 0.  0.
    3000022    2    5    5    0    0  0.15161167561E+02 -0.13339517596E+01 -0.30761809230E+02  0.34321885447E+02  0.24996877016E+00 0.  0.
        -13    1    4    4    0    0 -0.11271058458E+02  0.15049645251E+00  0.23976968227E+02  0.26494630367E+02  0.10500000000E+00 0. -1.
         13    1    4    4    0    0 -0.68352033461E+01  0.10321939822E+00  0.14316679411E+02  0.15865339372E+02  0.10500000000E+00 0.  1.
    3000001    1    5    5    0    0  0.10281989084E+02  0.75922019858E+01 -0.25092734616E+02  0.28178114930E+02  0.10000000000E+01 0. -1.
        -13    1    6    6    0    0  0.83839338370E+01 -0.67800752992E+00 -0.16932542290E+02  0.18906931380E+02  0.10500000000E+00 0. -1.
         13    1    6    6    0    0  0.67772337244E+01 -0.65594422972E+00 -0.13829266940E+02  0.15414954067E+02  0.10500000000E+00 0.  1.
</event>
<event>
11    0  0.3483054E-009  0.9118800E+02  0.7816531E-02  0.1126479E+00
         25   -1    0    0    0    0  0.00000000000E+00  0.00000000000E+00  0.99999998245E-14  0.12500000000E+03  0.12500000000E+03 0.  0.
    3000001    1    3    3    0    0 -0.15150532327E+02 -0.59673159408E+01 -0.20543515240E+02  0.26233251947E+02  0.10000000000E+01 0.  1.
    1000022    2    1    0    0    0 -0.39777119828E+02 -0.33716145199E+01 -0.47038951957E+02  0.62500002041E+02  0.10000010382E+02 0.  0.
    3000022    2    3    3    0    0 -0.24626587502E+02  0.25957014208E+01 -0.26495436717E+02  0.36266750094E+02  0.25003541043E+00 0.  0.
    1000022    2    1    0    0    0  0.39777119828E+02  0.33716145199E+01  0.47038951957E+02  0.62499997959E+02  0.99999848704E+01 0.  0.
    3000022    2    5    5    0    0  0.10874759676E+02 -0.26270589279E+01  0.17166162107E+02  0.20491497879E+02  0.25005450201E+00 0.  0.
        -13    1    4    4    0    0 -0.98638136829E+01  0.10117692577E+01 -0.10526460560E+02  0.14461531535E+02  0.10500000000E+00 0.  1.
         13    1    4    4    0    0 -0.14762773819E+02  0.15839321631E+01 -0.15968976157E+02  0.21805218559E+02  0.10500000000E+00 0. -1.
    3000001    1    5    5    0    0  0.28902360153E+02  0.59986734479E+01  0.29872789850E+02  0.42008500080E+02  0.10000000000E+01 0. -1.
        -13    1    6    6    0    0  0.60036456056E+01 -0.14680573927E+01  0.93650980290E+01  0.11221187066E+02  0.10500000000E+00 0.  1.
         13    1    6    6    0    0  0.48711140699E+01 -0.11590015352E+01  0.78010640779E+01  0.92703108140E+01  0.10500000000E+00 0. -1.
</event>
<event>
11    0  0.3483054E-009  0.9118800E+02  0.7816531E-02  0.1126479E+00
         25   -1    0    0    0    0  0.00000000000E+00  0.00000000000E+00  0.99999998245E-14  0.12500000000E+03  0.12500000000E+03 0.  0.
    3000001    1    3    3    0    0  0.14757336691E+02  0.10828459711E+02  0.35814538071E+02  0.40233265629E+02  0.10000000000E+01 0.  1.
    1000022    2    1    0    0    0  0.16505712615E+02  0.20447807964E+02  0.55818443556E+02  0.62499998973E+02  0.99999915565E+01 0.  0.
    3000022    2    3    3    0    0  0.17483759237E+01  0.96193482532E+01  0.20003905485E+02  0.22266733344E+02  0.24999994297E+00 0.  0.
    1000022    2    1    0    0    0 -0.16505712615E+02 -0.20447807964E+02 -0.55818443556E+02  0.62500001027E+02  0.10000004392E+02 0.  0.
    3000022    2    5    5    0    0 -0.11500910364E+02 -0.19542853640E+02 -0.41820760999E+02  0.47573443994E+02  0.24991053353E+00 0.  0.
        -13    1    4    4    0    0  0.65030229522E+00  0.36022538882E+01  0.76276057970E+01  0.84611182089E+01  0.10500000000E+00 0.  1.
         13    1    4    4    0    0  0.10980736285E+01  0.60170943650E+01  0.12376299688E+02  0.13805615135E+02  0.10500000000E+00 0. -1.
    3000001    1    5    5    0    0 -0.50048022504E+01 -0.90495432447E+00 -0.13997682557E+02  0.14926557033E+02  0.10000000000E+01 0. -1.
        -13    1    6    6    0    0 -0.31542676489E+01 -0.52882075066E+01 -0.11351068939E+02  0.12914036320E+02  0.10500000000E+00 0. -1.
         13    1    6    6    0    0 -0.83466427156E+01 -0.14254646133E+02 -0.30469692060E+02  0.34659407673E+02  0.10500000000E+00 0.  1.
</event>
<event>
11    0  0.3483054E-009  0.9118800E+02  0.7816531E-02  0.1126479E+00
         25   -1    0    0    0    0  0.00000000000E+00  0.00000000000E+00  0.99999998245E-14  0.12500000000E+03  0.12500000000E+03 0.  0.
    3000001    1    3    3    0    0 -0.46999192119E+00 -0.23159130694E+01  0.48533196072E+00  0.26114924589E+01  0.10000000000E+01 0. -1.
    1000022    2    1    0    0    0  0.30232151565E+02 -0.51761309050E+02  0.14595682507E+02  0.62499999613E+02  0.99999950472E+01 0.  0.
    3000022    2    3    3    0    0  0.30702143486E+02 -0.49445395981E+02  0.14110350547E+02  0.59888507154E+02  0.24999652661E+00 0.  0.
    1000022    2    1    0    0    0 -0.30232151565E+02  0.51761309050E+02 -0.14595682507E+02  0.62500000387E+02  0.99999998832E+01 0.  0.
    3000022    2    5    5    0    0 -0.13062559193E+01  0.72177603695E+01 -0.39068137475E+01  0.83143280801E+01  0.24997697319E+00 0.  0.
        -13    1    4    4    0    0  0.17139033885E+02 -0.27523984478E+02  0.78073725556E+01  0.33350896469E+02  0.10500000000E+00 0.  1.
         13    1    4    4    0    0  0.13563109600E+02 -0.21921411503E+02  0.63029779911E+01  0.26537610685E+02  0.10500000000E+00 0. -1.
    3000001    1    5    5    0    0 -0.28925895645E+02  0.44543548681E+02 -0.10688868760E+02  0.54185672307E+02  0.10000000000E+01 0.  1.
        -13    1    6    6    0    0 -0.73184494233E+00  0.36788739606E+01 -0.20191483991E+01  0.42611847995E+01  0.10500000000E+00 0. -1.
         13    1    6    6    0    0 -0.57441097696E+00  0.35388864089E+01 -0.18876653484E+01  0.40531432806E+01  0.10500000000E+00 0.  1.
</event>
<event>
11    0  0.3483054E-009  0.9118800E+02  0.7816531E-02  0.1126479E+00
         25   -1    0    0    0    0  0.00000000000E+00  0.00000000000E+00  0.99999998245E-14  0.12500000000E+03  0.12500000000E+03 0.  0.
    3000001    1    3    3    0    0  0.11574835877E+02  0.28407109983E+01 -0.55099765346E+01  0.13168382816E+02  0.10000000000E+01 0. -1.
    1000022    2    1    0    0    0  0.43839764446E+02  0.26209419141E+02 -0.34603341952E+02  0.62500000921E+02  0.10000012123E+02 0.  0.
    3000022    2    3    3    0    0  0.32264928569E+02  0.23368708142E+02 -0.29093365417E+02  0.49331618105E+02  0.24999555887E+00 0.  0.
    1000022    2    1    0    0    0 -0.43839764446E+02 -0.26209419141E+02  0.34603341952E+02  0.62499999079E+02  0.10000000615E+02 0.  0.
    3000022    2    5    5    0    0 -0.18694355121E+02 -0.15266890025E+02  0.20385170865E+02  0.31593900286E+02  0.24999932384E+00 0.  0.
        -13    1    4    4    0    0  0.10328337959E+02  0.74462701235E+01 -0.92461526558E+01  0.15736069003E+02  0.10500000000E+00 0. -1.
         13    1    4    4    0    0  0.21936590610E+02  0.15922438019E+02 -0.19847212761E+02  0.33595549102E+02  0.10500000000E+00 0.  1.
    3000001    1    5    5    0    0 -0.25145409325E+02 -0.10942529116E+02  0.14218171087E+02  0.30906098794E+02  0.10000000000E+01 0.  1.
        -13    1    6    6    0    0 -0.14395918501E+02 -0.11753032423E+02  0.15687469227E+02  0.24320443178E+02  0.10500000000E+00 0. -1.
         13    1    6    6    0    0 -0.42984366200E+01 -0.35138576018E+01  0.46977016375E+01  0.72734571077E+01  0.10500000000E+00 0.  1.
</event>
<event>
11    0  0.3483054E-009  0.9118800E+02  0.7816531E-02  0.1126479E+00
         25   -1    0    0    0    0  0.00000000000E+00  0.00000000000E+00  0.99999998245E-14  0.12500000000E+03  0.12500000000E+03 0.  0.
    3000001    1    3    3    0    0 -0.37764276062E+02 -0.82939297241E+01  0.35694698588E+02  0.52631182051E+02  0.10000000000E+01 0.  1.
    1000022    2    1    0    0    0 -0.41555184082E+02 -0.12119487959E+02  0.43960603568E+02  0.62499999743E+02  0.99999994704E+01 0.  0.
    3000022    2    3    3    0    0 -0.37909080195E+01 -0.38255582352E+01  0.82659049802E+01  0.98688176928E+01  0.24999617826E+00 0.  0.
    1000022    2    1    0    0    0  0.41555184082E+02  0.12119487959E+02 -0.43960603568E+02  0.62500000257E+02  0.10000002677E+02 0.  0.
    3000022    2    5    5    0    0  0.37173229038E+02  0.94951897022E+01 -0.34014027641E+02  0.51274010589E+02  0.25000179349E+00 0.  0.
        -13    1    4    4    0    0 -0.17574735291E+01 -0.18486864703E+01  0.39912316989E+01  0.47378592577E+01  0.10500000000E+00 0. -1.
         13    1    4    4    0    0 -0.20334344903E+01 -0.19768717650E+01  0.42746732813E+01  0.51309584351E+01  0.10500000000E+00 0.  1.
    3000001    1    5    5    0    0  0.43819550436E+01  0.26242982572E+01 -0.99465759273E+01  0.11225989668E+02  0.10000000000E+01 0.  1.
        -13    1    6    6    0    0  0.28415439569E+02  0.72654747185E+01 -0.26019646779E+02  0.39207873856E+02  0.10500000000E+00 0.  1.
         13    1    6    6    0    0  0.87577894691E+01  0.22297149837E+01 -0.79943808612E+01  0.12066136733E+02  0.10500000000E+00 0. -1.
</event>
<event>
11    0  0.3483054E-009  0.9118800E+02  0.7816531E-02  0.1126479E+00
         25   -1    0    0    0    0  0.00000000000E+00  0.00000000000E+00  0.99999998245E-14  0.12500000000E+03  0.12500000000E+03 0.  0.
    3000001    1    3    3    0    0 -0.23684998226E+02 -0.41123014416E+02 -0.17986778058E+02  0.50760276207E+02  0.10000000000E+01 0. -1.
    1000022    2    1    0    0    0 -0.30456662270E+02 -0.47306672059E+02 -0.25312458024E+02  0.62500000555E+02  0.10000002013E+02 0.  0.
    3000022    2    3    3    0    0 -0.67716640439E+01 -0.61836576431E+01 -0.73256799655E+01  0.11739724349E+02  0.24997011494E+00 0.  0.
    1000022    2    1    0    0    0  0.30456662270E+02  0.47306672059E+02  0.25312458024E+02  0.62499999445E+02  0.99999950696E+01 0.  0.
    3000022    2    5    5    0    0  0.18339762902E+02  0.35116264111E+02  0.20581547620E+02  0.44644837460E+02  0.25000197135E+00 0.  0.
        -13    1    4    4    0    0 -0.30292377317E+01 -0.26830941441E+01 -0.32643495190E+01  0.52002190534E+01  0.10500000000E+00 0.  1.
         13    1    4    4    0    0 -0.37424263123E+01 -0.35005634989E+01 -0.40613304465E+01  0.65395052954E+01  0.10500000000E+00 0. -1.
    3000001    1    5    5    0    0  0.12116899368E+02  0.12190407948E+02  0.47309104039E+01  0.17855161985E+02  0.10000000000E+01 0.  1.
        -13    1    6    6    0    0  0.84145117073E+01  0.16079069274E+02  0.93544814761E+01  0.20417096383E+02  0.10500000000E+00 0. -1.
         13    1    6    6    0    0  0.99252511948E+01  0.19037194837E+02  0.11227066144E+02  0.24227741077E+02  0.10500000000E+00 0.  1.
</event>
<event>
11    0  0.3483054E-009  0.9118800E+02  0.7816531E-02  0.1126479E+00
         25   -1    0    0    0    0  0.00000000000E+00  0.00000000000E+00  0.99999998245E-14  0.12500000000E+03  0.12500000000E+03 0.  0.
    3000001    1    3    3    0    0  0.22747668679E+02 -0.47616750281E+01  0.35359524943E+01  0.23529405846E+02  0.10000000000E+01 0. -1.
    1000022    2    1    0    0    0  0.58808272977E+02 -0.18571403270E+02 -0.17146252256E+01  0.62499995307E+02  0.99999741895E+01 0.  0.
    3000022    2    3    3    0    0  0.36060604298E+02 -0.13809728242E+02 -0.52505777199E+01  0.38970589462E+02  0.25000030008E+00 0.  0.
    1000022    2    1    0    0    0 -0.58808272977E+02  0.18571403270E+02  0.17146252256E+01  0.62500004693E+02  0.10000032847E+02 0.  0.
    3000022    2    5    5    0    0 -0.58576793309E+02  0.18391087904E+02  0.19657995290E+01  0.61428004227E+02  0.25001363730E+00 0.  0.
        -13    1    4    4    0    0  0.24361187400E+02 -0.93832286602E+01 -0.35381897634E+01  0.26344681502E+02  0.10500000000E+00 0.  1.
         13    1    4    4    0    0  0.11699416898E+02 -0.44264995814E+01 -0.17123879565E+01  0.12625907960E+02  0.10500000000E+00 0. -1.
    3000001    1    5    5    0    0 -0.23147966800E+00  0.18031536585E+00 -0.25117430348E+00  0.10720004658E+01  0.10000000000E+01 0. -1.
        -13    1    6    6    0    0 -0.41085560624E+02  0.12853072273E+02  0.13676427619E+01  0.43070944154E+02  0.10500000000E+00 0. -1.
         13    1    6    6    0    0 -0.17491232686E+02  0.55380156313E+01  0.59815676715E+00  0.18357060073E+02  0.10500000000E+00 0.  1.
</event>
<event>
11    0  0.3483054E-009  0.9118800E+02  0.7816531E-02  0.1126479E+00
         25   -1    0    0    0    0  0.00000000000E+00  0.00000000000E+00  0.99999998245E-14  0.12500000000E+03  0.12500000000E+03 0.  0.
    3000001    1    3    3    0    0 -0.11929216442E+02 -0.26301976088E+01  0.44728779685E+01  0.13047251883E+02  0.10000000000E+01 0.  1.
    1000022    2    1    0    0    0 -0.46842636401E+02 -0.15188331295E+02  0.37166271838E+02  0.62499998204E+02  0.10000001034E+02 0.  0.
    3000022    2    3    3    0    0 -0.34913419959E+02 -0.12558133686E+02  0.32693393869E+02  0.49452746321E+02  0.25000218556E+00 0.  0.
    1000022    2    1    0    0    0  0.46842636401E+02  0.15188331295E+02 -0.37166271838E+02  0.62500001796E+02  0.10000023480E+02 0.  0.
    3000022    2    5    5    0    0  0.17419027841E+02  0.69835137415E+00 -0.12760510308E+02  0.21605632321E+02  0.24999829106E+00 0.  0.
        -13    1    4    4    0    0 -0.19142327855E+02 -0.68255033519E+01  0.17954967005E+02  0.27118408450E+02  0.10500000000E+00 0.  1.
         13    1    4    4    0    0 -0.15771092105E+02 -0.57326303344E+01  0.14738426864E+02  0.22334337871E+02  0.10500000000E+00 0. -1.
    3000001    1    5    5    0    0  0.29423608561E+02  0.14489979921E+02 -0.24405761530E+02  0.40894369474E+02  0.10000000000E+01 0.  1.
        -13    1    6    6    0    0  0.84198822316E+01  0.33740190497E+00 -0.62520090432E+01  0.10493183450E+02  0.10500000000E+00 0. -1.
         13    1    6    6    0    0  0.89991456089E+01  0.36094946918E+00 -0.65085012645E+01  0.11112448871E+02  0.10500000000E+00 0.  1.
</event>
<event>
11    0  0.3483054E-009  0.9118800E+02  0.7816531E-02  0.1126479E+00
         25   -1    0    0    0    0  0.00000000000E+00  0.00000000000E+00  0.99999998245E-14  0.12500000000E+03  0.12500000000E+03 0.  0.
    3000001    1    3    3    0    0  0.57143045074E+01 -0.20152895347E+01 -0.48305701477E+00  0.61601957754E+01  0.10000000000E+01 0. -1.
    1000022    2    1    0    0    0  0.42269384391E+02 -0.44190322566E+02 -0.81709542777E+01  0.62499999920E+02  0.10000001548E+02 0.  0.
    3000022    2    3    3    0    0  0.36555079884E+02 -0.42175033031E+02 -0.76878972630E+01  0.56339804145E+02  0.24998057567E+00 0.  0.
    1000022    2    1    0    0    0 -0.42269384391E+02  0.44190322566E+02  0.81709542777E+01  0.62500000080E+02  0.10000002545E+02 0.  0.
    3000022    2    5    5    0    0 -0.12335801103E+02  0.12575467351E+02  0.69352864197E+01  0.18933437744E+02  0.24999825419E+00 0.  0.
        -13    1    4    4    0    0  0.20255952748E+02 -0.23274988128E+02 -0.42736516507E+01  0.31149700119E+02  0.10500000000E+00 0.  1.
         13    1    4    4    0    0  0.16299127135E+02 -0.18900044904E+02 -0.34142456123E+01  0.25190104026E+02  0.10500000000E+00 0. -1.
    3000001    1    5    5    0    0 -0.29933583288E+02  0.31614855215E+02  0.12356678581E+01  0.43566562336E+02  0.10000000000E+01 0.  1.
        -13    1    6    6    0    0 -0.57371464352E+01  0.58881811081E+01  0.31707160858E+01  0.88119232565E+01  0.10500000000E+00 0. -1.
         13    1    6    6    0    0 -0.65986546674E+01  0.66872862432E+01  0.37645703339E+01  0.10121514487E+02  0.10500000000E+00 0.  1.
</event>
<event>
11    0  0.3483054E-009  0.9118800E+02  0.7816531E-02  0.1126479E+00
         25   -1    0    0    0    0  0.00000000000E+00  0.00000000000E+00  0.99999998245E-14  0.12500000000E+03  0.12500000000E+03 0.  0.
    3000001    1    3    3    0    0  0.25991379101E+02  0.18301531560E+02 -0.31729067985E+02  0.44924732612E+02  0.10000000000E+01 0.  1.
    1000022    2    1    0    0    0  0.30580529848E+02  0.26154337171E+02 -0.46765712419E+02  0.62500000516E+02  0.10000002389E+02 0.  0.
    3000022    2    3    3    0    0  0.45891507468E+01  0.78528056113E+01 -0.15036644433E+02  0.17575267904E+02  0.25001105896E+00 0.  0.
    1000022    2    1    0    0    0 -0.30580529848E+02 -0.26154337171E+02  0.46765712419E+02  0.62499999484E+02  0.99999959439E+01 0.  0.
    3000022    2    5    5    0    0 -0.10400917867E+02 -0.14075803169E+02  0.15621230271E+02  0.23460449134E+02  0.25002209769E+00 0.  0.
        -13    1    4    4    0    0  0.23925458091E+01  0.40795336622E+01 -0.76884833360E+01  0.90272183621E+01  0.10500000000E+00 0.  1.
         13    1    4    4    0    0  0.21966049377E+01  0.37732719491E+01 -0.73481610974E+01  0.85480495418E+01  0.10500000000E+00 0. -1.
    3000001    1    5    5    0    0 -0.20179611981E+02 -0.12078534003E+02  0.31144482148E+02  0.39039550351E+02  0.10000000000E+01 0.  1.
        -13    1    6    6    0    0 -0.52144697466E+01 -0.71520863063E+01  0.78498750151E+01  0.11831086004E+02  0.10500000000E+00 0. -1.
         13    1    6    6    0    0 -0.51864481206E+01 -0.69237168623E+01  0.77713552558E+01  0.11629363130E+02  0.10500000000E+00 0.  1.
</event>
<event>
11    0  0.3483054E-009  0.9118800E+02  0.7816531E-02  0.1126479E+00
         25   -1    0    0    0    0  0.00000000000E+00  0.00000000000E+00  0.99999998245E-14  0.12500000000E+03  0.12500000000E+03 0.  0.
    3000001    1    3    3    0    0  0.32966681753E+01  0.20591186846E+02 -0.56334632193E+01  0.21624081590E+02  0.10000000000E+01 0.  1.
    1000022    2    1    0    0    0  0.22339386977E+02  0.55126734111E+02 -0.16378185939E+02  0.62500000217E+02  0.10000001409E+02 0.  0.
    3000022    2    3    3    0    0  0.19042718802E+02  0.34535547266E+02 -0.10744722719E+02  0.40875918627E+02  0.24998594734E+00 0.  0.
    1000022    2    1    0    0    0 -0.22339386977E+02 -0.55126734111E+02  0.16378185939E+02  0.62499999783E+02  0.99999987001E+01 0.  0.
    3000022    2    5    5    0    0 -0.41390336116E+01 -0.12956011329E+02  0.80588518723E+01  0.15811306913E+02  0.25000802476E+00 0.  0.
        -13    1    4    4    0    0  0.11696628961E+02  0.21085772166E+02 -0.65613467202E+01  0.24989662116E+02  0.10500000000E+00 0. -1.
         13    1    4    4    0    0  0.73460898402E+01  0.13449775100E+02 -0.41833759991E+01  0.15886256511E+02  0.10500000000E+00 0.  1.
    3000001    1    5    5    0    0 -0.18200353365E+02 -0.42170722783E+02  0.83193340662E+01  0.46688692870E+02  0.10000000000E+01 0.  1.
        -13    1    6    6    0    0 -0.15307193245E+01 -0.48227588499E+01  0.29297471117E+01  0.58477814352E+01  0.10500000000E+00 0.  1.
         13    1    6    6    0    0 -0.26083142871E+01 -0.81332524786E+01  0.51291047606E+01  0.99635254778E+01  0.10500000000E+00 0. -1.
</event>
<event>
11    0  0.3483054E-009  0.9118800E+02  0.7816531E-02  0.1126479E+00
         25   -1    0    0    0    0  0.00000000000E+00  0.00000000000E+00  0.99999998245E-14  0.12500000000E+03  0.12500000000E+03 0.  0.
    3000001    1    3    3    0    0  0.87632981859E+00 -0.16213375740E+00 -0.40966689336E+02  0.40988582269E+02  0.10000000000E+01 0. -1.
    1000022    2    1    0    0    0  0.80161839923E+01 -0.25168090630E+01 -0.61120017368E+02  0.62500001218E+02  0.10000004776E+02 0.  0.
    3000022    2    3    3    0    0  0.71398541737E+01 -0.23546753056E+01 -0.20153328032E+02  0.21511418949E+02  0.25000199870E+00 0.  0.
    1000022    2    1    0    0    0 -0.80161839923E+01  0.25168090630E+01  0.61120017368E+02  0.62499998782E+02  0.99999895473E+01 0.  0.
    3000022    2    5    5    0    0  0.36767312124E+00  0.29174948680E+01  0.55037669616E+01  0.62450708329E+01  0.24999822333E+00 0.  0.
        -13    1    4    4    0    0  0.20135305150E+01 -0.62348269506E+00 -0.56252735786E+01  0.60081414464E+01  0.10500000000E+00 0. -1.
         13    1    4    4    0    0  0.51263236587E+01 -0.17311926105E+01 -0.14528054454E+02  0.15503277503E+02  0.10500000000E+00 0.  1.
    3000001    1    5    5    0    0 -0.83838571135E+01 -0.40068580502E+00  0.55616250407E+02  0.56254927949E+02  0.10000000000E+01 0.  1.
        -13    1    6    6    0    0  0.23799072077E+00  0.15591620750E+01  0.28371565695E+01  0.32477851467E+01  0.10500000000E+00 0. -1.
         13    1    6    6    0    0  0.12968240047E+00  0.13583327930E+01  0.26666103921E+01  0.29972856862E+01  0.10500000000E+00 0.  1.
</event>
<event>
11    0  0.3483054E-009  0.9118800E+02  0.7816531E-02  0.1126479E+00
         25   -1    0    0    0    0  0.00000000000E+00  0.00000000000E+00  0.99999998245E-14  0.12500000000E+03  0.12500000000E+03 0.  0.
    3000001    1    3    3    0    0  0.13998788368E+02  0.29076206598E+02 -0.79959787462E+01  0.33261502401E+02  0.10000000000E+01 0.  1.
    1000022    2    1    0    0    0  0.17383154575E+02  0.57176212303E+02 -0.15328298129E+02  0.62499998650E+02  0.99999895721E+01 0.  0.
    3000022    2    3    3    0    0  0.33843662064E+01  0.28100005705E+02 -0.73323193825E+01  0.29238496248E+02  0.25000018616E+00 0.  0.
    1000022    2    1    0    0    0 -0.17383154575E+02 -0.57176212303E+02  0.15328298129E+02  0.62500001350E+02  0.10000006448E+02 0.  0.
    3000022    2    5    5    0    0 -0.10334594026E+02 -0.46574065822E+02  0.10515962976E+02  0.48852793378E+02  0.25000533176E+00 0.  0.
        -13    1    4    4    0    0  0.17260265844E+01  0.14881374753E+02 -0.38658705395E+01  0.15472248134E+02  0.10500000000E+00 0. -1.
         13    1    4    4    0    0  0.16583396220E+01  0.13218630952E+02 -0.34664488429E+01  0.13766248114E+02  0.10500000000E+00 0.  1.
    3000001    1    5    5    0    0 -0.70485605481E+01 -0.10602146481E+02  0.48123351530E+01  0.13647207972E+02  0.10000000000E+01 0. -1.
        -13    1    6    6    0    0 -0.61597927963E+01 -0.27543192726E+02  0.61769227119E+01  0.28891796622E+02  0.10500000000E+00 0.  1.
         13    1    6    6    0    0 -0.41748012302E+01 -0.19030873096E+02  0.43390402638E+01  0.19960996756E+02  0.10500000000E+00 0. -1.
</event>
<event>
11    0  0.3483054E-009  0.9118800E+02  0.7816531E-02  0.1126479E+00
         25   -1    0    0    0    0  0.00000000000E+00  0.00000000000E+00  0.99999998245E-14  0.12500000000E+03  0.12500000000E+03 0.  0.
    3000001    1    3    3    0    0  0.25064853310E+02 -0.12378616214E+02 -0.37782629278E+02  0.47010680553E+02  0.10000000000E+01 0. -1.
    1000022    2    1    0    0    0  0.34635924267E+02 -0.10927708526E+02 -0.49871717518E+02  0.62500002199E+02  0.10000000161E+02 0.  0.
    3000022    2    3    3    0    0  0.95710709570E+01  0.14509076882E+01 -0.12089088240E+02  0.15489321647E+02  0.24999643901E+00 0.  0.
    1000022    2    1    0    0    0 -0.34635924267E+02  0.10927708526E+02  0.49871717518E+02  0.62499997801E+02  0.99999726714E+01 0.  0.
    3000022    2    5    5    0    0 -0.25057434796E+02  0.30862818191E+01  0.33813341961E+02  0.42199582561E+02  0.24999958728E+00 0.  0.
        -13    1    4    4    0    0  0.25420421254E+01  0.36264115486E+00 -0.32493389764E+01  0.41427907934E+01  0.10500000000E+00 0.  1.
         13    1    4    4    0    0  0.70290288316E+01  0.10882665334E+01 -0.88397492634E+01  0.11346530853E+02  0.10500000000E+00 0. -1.
    3000001    1    5    5    0    0 -0.95784894715E+01  0.78414267066E+01  0.16058375557E+02  0.20300415239E+02  0.10000000000E+01 0.  1.
        -13    1    6    6    0    0 -0.15002319040E+02  0.17993975357E+01  0.20167768827E+02  0.25200343898E+02  0.10500000000E+00 0. -1.
         13    1    6    6    0    0 -0.10055115756E+02  0.12868842834E+01  0.13645573133E+02  0.16999238664E+02  0.10500000000E+00 0.  1.
</event>
<event>
11    0  0.3483054E-009  0.9118800E+02  0.7816531E-02  0.1126479E+00
         25   -1    0    0    0    0  0.00000000000E+00  0.00000000000E+00  0.99999998245E-14  0.12500000000E+03  0.12500000000E+03 0.  0.
    3000001    1    3    3    0    0 -0.35936576626E+01  0.30002053997E+01 -0.10353601307E+01  0.48977115510E+01  0.10000000000E+01 0. -1.
    1000022    2    1    0    0    0 -0.22119149172E+02  0.57483008191E+02 -0.35633840040E+01  0.62499994858E+02  0.99999330497E+01 0.  0.
    3000022    2    3    3    0    0 -0.18525491509E+02  0.54482802791E+02 -0.25280238733E+01  0.57602283307E+02  0.25000379440E+00 0.  0.
    1000022    2    1    0    0    0  0.22119149172E+02 -0.57483008191E+02  0.35633840040E+01  0.62500005142E+02  0.99999973205E+01 0.  0.
    3000022    2    5    5    0    0  0.70285212093E+01 -0.28305389187E+02  0.50598179562E+01  0.29601679689E+02  0.25003046211E+00 0.  0.
        -13    1    4    4    0    0 -0.59235187005E+01  0.17471785236E+02 -0.76225040132E+00  0.18464652821E+02  0.10500000000E+00 0. -1.
         13    1    4    4    0    0 -0.12601972808E+02  0.37011017555E+02 -0.17657734720E+01  0.39137630486E+02  0.10500000000E+00 0.  1.
    3000001    1    5    5    0    0  0.15090627962E+02 -0.29177619003E+02 -0.14964339523E+01  0.32898325452E+02  0.10000000000E+01 0.  1.
        -13    1    6    6    0    0  0.31685837012E+01 -0.12774007934E+02  0.22156706160E+01  0.13346738278E+02  0.10500000000E+00 0. -1.
         13    1    6    6    0    0  0.38599375081E+01 -0.15531381253E+02  0.28441473402E+01  0.16254941411E+02  0.10500000000E+00 0.  1.
</event>
<event>
11    0  0.3483054E-009  0.9118800E+02  0.7816531E-02  0.1126479E+00
         25   -1    0    0    0    0  0.00000000000E+00  0.00000000000E+00  0.99999998245E-14  0.12500000000E+03  0.12500000000E+03 0.  0.
    3000001    1    3    3    0    0 -0.38144687759E+02 -0.90032063598E+01 -0.14916060311E+02  0.41947154661E+02  0.10000000000E+01 0.  1.
    1000022    2    1    0    0    0 -0.56133914143E+02 -0.69445476216E+01 -0.24637511145E+02  0.62499999962E+02  0.99999990576E+01 0.  0.
    3000022    2    3    3    0    0 -0.17989226384E+02  0.20586587382E+01 -0.97214508336E+01  0.20552845300E+02  0.25000387658E+00 0.  0.
    1000022    2    1    0    0    0  0.56133914143E+02  0.69445476216E+01  0.24637511145E+02  0.62500000038E+02  0.99999995335E+01 0.  0.
    3000022    2    5    5    0    0  0.32425690798E+00 -0.34716606647E+00 -0.60311844461E+00  0.80740476713E+00  0.24996755724E+00 0.  0.
        -13    1    4    4    0    0 -0.73122014681E+01  0.89131747774E+00 -0.39169951798E+01  0.83436570755E+01  0.10500000000E+00 0. -1.
         13    1    4    4    0    0 -0.10677024916E+02  0.11673412605E+01 -0.58044556538E+01  0.12209188225E+02  0.10500000000E+00 0.  1.
    3000001    1    5    5    0    0  0.55809657235E+02  0.72917136880E+01  0.25240629589E+02  0.61692595271E+02  0.10000000000E+01 0.  1.
        -13    1    6    6    0    0  0.24949483002E+00 -0.28669409332E+00 -0.45081629456E+00  0.59891694315E+00  0.10500000000E+00 0.  1.
         13    1    6    6    0    0  0.74762077959E-01 -0.60471973149E-01 -0.15230215005E+00  0.20848782398E+00  0.10500000000E+00 0.  1.
</event>
<event>
11    0  0.3483054E-009  0.9118800E+02  0.7816531E-02  0.1126479E+00
         25   -1    0    0    0    0  0.00000000000E+00  0.00000000000E+00  0.99999998245E-14  0.12500000000E+03  0.12500000000E+03 0.  0.
    3000001    1    3    3    0    0  0.32060183301E+02 -0.32040663727E+02  0.94263592275E+01  0.46306756890E+02  0.10000000000E+01 0. -1.
    1000022    2    1    0    0    0  0.39291456125E+02 -0.44479806310E+02  0.16851657751E+02  0.62500000072E+02  0.99999973110E+01 0.  0.
    3000022    2    3    3    0    0  0.72312728244E+01 -0.12439142583E+02  0.74252985234E+01  0.16193243182E+02  0.24998347480E+00 0.  0.
    1000022    2    1    0    0    0 -0.39291456125E+02  0.44479806310E+02 -0.16851657751E+02  0.62499999928E+02  0.99999964122E+01 0.  0.
    3000022    2    5    5    0    0 -0.13389537024E+02  0.89155339486E+01 -0.30187891692E+01  0.16368935179E+02  0.25000705528E+00 0.  0.
        -13    1    4    4    0    0  0.49046397280E+01 -0.84856605686E+01  0.50079416986E+01  0.11006926510E+02  0.10500000000E+00 0. -1.
         13    1    4    4    0    0  0.23266330964E+01 -0.39534820146E+01  0.24173568248E+01  0.51863166721E+01  0.10500000000E+00 0.  1.
    3000001    1    5    5    0    0 -0.25901919101E+02  0.35564272361E+02 -0.13832868582E+02  0.46131064749E+02  0.10000000000E+01 0. -1.
        -13    1    6    6    0    0 -0.96015582650E+01  0.64031795612E+01 -0.22060525125E+01  0.11750247755E+02  0.10500000000E+00 0.  1.
         13    1    6    6    0    0 -0.37879787590E+01  0.25123543874E+01 -0.81273665663E+00  0.46186874239E+01  0.10500000000E+00 0. -1.
</event>
<event>
11    0  0.3483054E-009  0.9118800E+02  0.7816531E-02  0.1126479E+00
         25   -1    0    0    0    0  0.00000000000E+00  0.00000000000E+00  0.99999998245E-14  0.12500000000E+03  0.12500000000E+03 0.  0.
    3000001    1    3    3    0    0 -0.18980067291E+02 -0.25982303343E+02 -0.10169343917E+02  0.33760014767E+02  0.10000000000E+01 0.  1.
    1000022    2    1    0    0    0 -0.41491759146E+02 -0.43367306940E+02 -0.14281483619E+02  0.62500001177E+02  0.99999992260E+01 0.  0.
    3000022    2    3    3    0    0 -0.22511691855E+02 -0.17385003597E+02 -0.41121397022E+01  0.28739986410E+02  0.25001134062E+00 0.  0.
    1000022    2    1    0    0    0  0.41491759146E+02  0.43367306940E+02  0.14281483619E+02  0.62499998823E+02  0.99999845101E+01 0.  0.
    3000022    2    5    5    0    0  0.55147520835E+01  0.11565413554E+02  0.27599997130E+01  0.13109209686E+02  0.24999793407E+00 0.  0.
        -13    1    4    4    0    0 -0.10379721759E+02 -0.80430919485E+01 -0.19627189095E+01  0.13277546551E+02  0.10500000000E+00 0.  1.
         13    1    4    4    0    0 -0.12131970096E+02 -0.93419116486E+01 -0.21494207927E+01  0.15462439859E+02  0.10500000000E+00 0. -1.
    3000001    1    5    5    0    0  0.35977007062E+02  0.31801893387E+02  0.11521483906E+02  0.49390789137E+02  0.10000000000E+01 0.  1.
        -13    1    6    6    0    0  0.17318180517E+01  0.35348605880E+01  0.82447176298E+00  0.40230848647E+01  0.10500000000E+00 0.  1.
         13    1    6    6    0    0  0.37829340318E+01  0.80305529657E+01  0.19355279500E+01  0.90861248213E+01  0.10500000000E+00 0. -1.
</event>
<event>
11    0  0.3483054E-009  0.9118800E+02  0.7816531E-02  0.1126479E+00
         25   -1    0    0    0    0  0.00000000000E+00  0.00000000000E+00  0.99999998245E-14  0.12500000000E+03  0.12500000000E+03 0.  0.
    3000001    1    3    3    0    0  0.50438703786E+02  0.25878292845E+02 -0.75355286867E+01  0.57197317006E+02  0.10000000000E+01 0.  1.
    1000022    2    1    0    0    0  0.54843474321E+02  0.26252009771E+02 -0.10453458190E+02  0.62500004064E+02  0.10000051362E+02 0.  0.
    3000022    2    3    3    0    0  0.44047705354E+01  0.37371692649E+00 -0.29179295028E+01  0.53026870576E+01  0.25001927354E+00 0.  0.
    1000022    2    1    0    0    0 -0.54843474321E+02 -0.26252009771E+02  0.10453458190E+02  0.62499995936E+02  0.10000000561E+02 0.  0.
    3000022    2    5    5    0    0 -0.14714106051E+02 -0.38682382295E+01  0.58778378421E+01  0.16311948480E+02  0.25000329423E+00 0.  0.
        -13    1    4    4    0    0  0.24702615129E+01  0.27446912513E+00 -0.16232726152E+01  0.29704484890E+01  0.10500000000E+00 0.  1.
         13    1    4    4    0    0  0.19345090225E+01  0.99247801361E-01 -0.12946568876E+01  0.23322385686E+01  0.10500000000E+00 0. -1.
    3000001    1    5    5    0    0 -0.40129368270E+02 -0.22383771542E+02  0.45756203474E+01  0.46188047456E+02  0.10000000000E+01 0.  1.
        -13    1    6    6    0    0 -0.52837744202E+01 -0.14377594503E+01  0.21521697561E+01  0.58845801906E+01  0.10500000000E+00 0.  1.
         13    1    6    6    0    0 -0.94303316305E+01 -0.24304787792E+01  0.37256680860E+01  0.10427368290E+02  0.10500000000E+00 0. -1.
</event>
<event>
11    0  0.3483054E-009  0.9118800E+02  0.7816531E-02  0.1126479E+00
         25   -1    0    0    0    0  0.00000000000E+00  0.00000000000E+00  0.99999998245E-14  0.12500000000E+03  0.12500000000E+03 0.  0.
    3000001    1    3    3    0    0  0.29846244599E+02 -0.16181397883E+02  0.62692333267E-01  0.33965274685E+02  0.10000000000E+01 0. -1.
    1000022    2    1    0    0    0  0.55423700259E+02 -0.25810718234E+02  0.82625556800E+01  0.62499995817E+02  0.99999962326E+01 0.  0.
    3000022    2    3    3    0    0  0.25577455660E+02 -0.96293203503E+01  0.81998633467E+01  0.28534721132E+02  0.25000544193E+00 0.  0.
    1000022    2    1    0    0    0 -0.55423700259E+02  0.25810718234E+02 -0.82625556800E+01  0.62500004183E+02  0.10000048517E+02 0.  0.
    3000022    2    5    5    0    0 -0.46945668822E+01  0.39850144266E+00  0.14324674006E+01  0.49307484299E+01  0.25011120294E+00 0.  0.
        -13    1    4    4    0    0  0.14255475289E+02 -0.53027797983E+01  0.45929629807E+01  0.15888498458E+02  0.10500000000E+00 0.  1.
         13    1    4    4    0    0  0.11321980371E+02 -0.43265405520E+01  0.36069003660E+01  0.12646222674E+02  0.10500000000E+00 0. -1.
    3000001    1    5    5    0    0 -0.50729133377E+02  0.25412216791E+02 -0.96950230806E+01  0.57569255753E+02  0.10000000000E+01 0. -1.
        -13    1    6    6    0    0 -0.31262751370E+01  0.21163757577E+00  0.95920501348E+00  0.32786408699E+01  0.10500000000E+00 0. -1.
         13    1    6    6    0    0 -0.15682917452E+01  0.18686386689E+00  0.47326238717E+00  0.16521075600E+01  0.10500000000E+00 0.  1.
</event>
<event>
11    0  0.3483054E-009  0.9118800E+02  0.7816531E-02  0.1126479E+00
         25   -1    0    0    0    0  0.00000000000E+00  0.00000000000E+00  0.99999998245E-14  0.12500000000E+03  0.12500000000E+03 0.  0.
    3000001    1    3    3    0    0 -0.23747835910E+02  0.17922470943E+00 -0.71591128920E+01  0.24824277014E+02  0.10000000000E+01 0.  1.
    1000022    2    1    0    0    0 -0.55005423659E+02  0.70673249987E+01 -0.27031575468E+02  0.62499998470E+02  0.10000001097E+02 0.  0.
    3000022    2    3    3    0    0 -0.31257587750E+02  0.68881002892E+01 -0.19872462576E+02  0.37675721456E+02  0.25000173151E+00 0.  0.
    1000022    2    1    0    0    0  0.55005423659E+02 -0.70673249987E+01  0.27031575468E+02  0.62500001530E+02  0.10000020218E+02 0.  0.
    3000022    2    5    5    0    0  0.12591331209E+02 -0.56732665161E+01  0.51337338388E+01  0.14735850690E+02  0.24999569882E+00 0.  0.
        -13    1    4    4    0    0 -0.18968452511E+02  0.41244572910E+01 -0.12015637966E+02  0.22829803313E+02  0.10500000000E+00 0.  1.
         13    1    4    4    0    0 -0.12289135239E+02  0.27636429982E+01 -0.78568246102E+01  0.14845918142E+02  0.10500000000E+00 0. -1.
    3000001    1    5    5    0    0  0.42414092450E+02 -0.13940584826E+01  0.21897841629E+02  0.47764150840E+02  0.10000000000E+01 0. -1.
        -13    1    6    6    0    0  0.52620823440E+01 -0.23149696354E+01  0.20949414717E+01  0.61195097661E+01  0.10500000000E+00 0. -1.
         13    1    6    6    0    0  0.73292488647E+01 -0.33582968808E+01  0.30387923671E+01  0.86163409235E+01  0.10500000000E+00 0.  1.
</event>
<event>
11    0  0.3483054E-009  0.9118800E+02  0.7816531E-02  0.1126479E+00
         25   -1    0    0    0    0  0.00000000000E+00  0.00000000000E+00  0.99999998245E-14  0.12500000000E+03  0.12500000000E+03 0.  0.
    3000001    1    3    3    0    0  0.15246125359E+02 -0.32444050825E+01 -0.51328745346E+02  0.53652684943E+02  0.10000000000E+01 0.  1.
    1000022    2    1    0    0    0  0.14137438192E+02 -0.20330942620E+01 -0.60018741808E+02  0.62500000309E+02  0.10000001974E+02 0.  0.
    3000022    2    3    3    0    0 -0.11086871676E+01  0.12113108206E+01 -0.86899964624E+01  0.88473153661E+01  0.24997906223E+00 0.  0.
    1000022    2    1    0    0    0 -0.14137438192E+02  0.20330942620E+01  0.60018741808E+02  0.62499999691E+02  0.99999981111E+01 0.  0.
    3000022    2    5    5    0    0 -0.12310768104E+02  0.47480603634E+01  0.53873876157E+02  0.55466711810E+02  0.24999667448E+00 0.  0.
        -13    1    4    4    0    0 -0.24638649437E+00  0.28312739990E+00 -0.20528277082E+01  0.20894961184E+01  0.10500000000E+00 0.  1.
         13    1    4    4    0    0 -0.86230067323E+00  0.92818342067E+00 -0.66371687542E+01  0.67578192478E+01  0.10500000000E+00 0. -1.
    3000001    1    5    5    0    0 -0.18266700870E+01 -0.27149661015E+01  0.61448656513E+01  0.70332878806E+01  0.10000000000E+01 0.  1.
        -13    1    6    6    0    0 -0.42467048571E+01  0.15807635159E+01  0.18566710032E+02  0.19111961225E+02  0.10500000000E+00 0. -1.
         13    1    6    6    0    0 -0.80640632474E+01  0.31672968475E+01  0.35307166125E+02  0.36354750586E+02  0.10500000000E+00 0.  1.
</event>
<event>
11    0  0.3483054E-009  0.9118800E+02  0.7816531E-02  0.1126479E+00
         25   -1    0    0    0    0  0.00000000000E+00  0.00000000000E+00  0.99999998245E-14  0.12500000000E+03  0.12500000000E+03 0.  0.
    3000001    1    3    3    0    0  0.37895718029E+02 -0.49293864316E+01 -0.18465447383E+02  0.42454175797E+02  0.10000000000E+01 0. -1.
    1000022    2    1    0    0    0  0.55488661254E+02 -0.45313235435E+00 -0.26963922775E+02  0.62500000326E+02  0.10000002635E+02 0.  0.
    3000022    2    3    3    0    0  0.17592943225E+02  0.44762540772E+01 -0.84984753915E+01  0.20045824529E+02  0.24999040711E+00 0.  0.
    1000022    2    1    0    0    0 -0.55488661254E+02  0.45313235435E+00  0.26963922775E+02  0.62499999674E+02  0.99999985574E+01 0.  0.
    3000022    2    5    5    0    0 -0.48047438608E+01 -0.28210083041E+01  0.23625430221E+01  0.60570429379E+01  0.25001640105E+00 0.  0.
        -13    1    4    4    0    0  0.12000863376E+02  0.31050063161E+01 -0.58066489128E+01  0.13689046080E+02  0.10500000000E+00 0.  1.
         13    1    4    4    0    0  0.55920798487E+01  0.13712477611E+01 -0.26918264786E+01  0.63567784489E+01  0.10500000000E+00 0. -1.
    3000001    1    5    5    0    0 -0.50683917393E+02  0.32741406584E+01  0.24601379752E+02  0.56442956736E+02  0.10000000000E+01 0. -1.
        -13    1    6    6    0    0 -0.12429179676E+01 -0.74375501927E+00  0.58342001854E+00  0.15650624655E+01  0.10500000000E+00 0.  1.
         13    1    6    6    0    0 -0.35618258932E+01 -0.20772532848E+01  0.17791230035E+01  0.44919804724E+01  0.10500000000E+00 0. -1.
</event>
<event>
11    0  0.3483054E-009  0.9118800E+02  0.7816531E-02  0.1126479E+00
         25   -1    0    0    0    0  0.00000000000E+00  0.00000000000E+00  0.99999998245E-14  0.12500000000E+03  0.12500000000E+03 0.  0.
    3000001    1    3    3    0    0  0.16054949439E+02  0.40563780949E+02  0.42242937567E+02  0.60734236644E+02  0.10000000000E+01 0. -1.
    1000022    2    1    0    0    0  0.17427118789E+02  0.41631684314E+02  0.42063624193E+02  0.62500000227E+02  0.99999969973E+01 0.  0.
    3000022    2    3    3    0    0  0.13721693500E+01  0.10679033647E+01 -0.17931337350E+00  0.17657635831E+01  0.25000284855E+00 0.  0.
    1000022    2    1    0    0    0 -0.17427118789E+02 -0.41631684314E+02 -0.42063624193E+02  0.62499999773E+02  0.99999941627E+01 0.  0.
    3000022    2    5    5    0    0 -0.11712227289E+02 -0.15424479484E+02 -0.18445470423E+02  0.26746751566E+02  0.25000953693E+00 0.  0.
        -13    1    4    4    0    0  0.63748472479E+00  0.57677870661E+00 -0.64940085114E-01  0.86850599618E+00  0.10500000000E+00 0.  1.
         13    1    4    4    0    0  0.73468462518E+00  0.49112465806E+00 -0.11437328839E+00  0.89725758695E+00  0.10500000000E+00 0. -1.
    3000001    1    5    5    0    0 -0.57148914999E+01 -0.26207204830E+02 -0.23618153770E+02  0.35753248208E+02  0.10000000000E+01 0. -1.
        -13    1    6    6    0    0 -0.81078445568E+01 -0.10597188674E+02 -0.12708960993E+02  0.18427323888E+02  0.10500000000E+00 0. -1.
         13    1    6    6    0    0 -0.36043827324E+01 -0.48272908102E+01 -0.57365094302E+01  0.83194276781E+01  0.10500000000E+00 0.  1.
</event>
<event>
11    0  0.3483054E-009  0.9118800E+02  0.7816531E-02  0.1126479E+00
         25   -1    0    0    0    0  0.00000000000E+00  0.00000000000E+00  0.99999998245E-14  0.12500000000E+03  0.12500000000E+03 0.  0.
    3000001    1    3    3    0    0  0.17190647368E+01  0.25311607772E+01  0.33221151545E+01  0.46258412801E+01  0.10000000000E+01 0.  1.
    1000022    2    1    0    0    0  0.22365343195E+02  0.37921074562E+01  0.57372995815E+02  0.62500006512E+02  0.10000075499E+02 0.  0.
    3000022    2    3    3    0    0  0.20646278458E+02  0.12609466790E+01  0.54050880661E+02  0.57874165232E+02  0.25000073658E+00 0.  0.
    1000022    2    1    0    0    0 -0.22365343195E+02 -0.37921074562E+01 -0.57372995815E+02  0.62499993488E+02  0.99999941005E+01 0.  0.
    3000022    2    5    5    0    0 -0.16715893034E+01 -0.35135326101E+01 -0.12058620598E+02  0.12673277207E+02  0.25000445606E+00 0.  0.
        -13    1    4    4    0    0  0.12073882692E+02  0.77927822425E+00  0.31477680151E+02  0.33723008326E+02  0.10500000000E+00 0. -1.
         13    1    4    4    0    0  0.85723957657E+01  0.48166845475E+00  0.22573200509E+02  0.24151156906E+02  0.10500000000E+00 0.  1.
    3000001    1    5    5    0    0 -0.20693753891E+02 -0.27857484610E+00 -0.45314375217E+02  0.49826716281E+02  0.10000000000E+01 0. -1.
        -13    1    6    6    0    0 -0.93307950132E+00 -0.20440799734E+01 -0.71359570089E+01  0.74820991524E+01  0.10500000000E+00 0. -1.
         13    1    6    6    0    0 -0.73850980211E+00 -0.14694526367E+01 -0.49226635891E+01  0.51911780543E+01  0.10500000000E+00 0.  1.
</event>
<event>
11    0  0.3483054E-009  0.9118800E+02  0.7816531E-02  0.1126479E+00
         25   -1    0    0    0    0  0.00000000000E+00  0.00000000000E+00  0.99999998245E-14  0.12500000000E+03  0.12500000000E+03 0.  0.
    3000001    1    3    3    0    0 -0.15156148878E+02  0.46285946344E+02  0.79386897849E+01  0.49357071158E+02  0.10000000000E+01 0.  1.
    1000022    2    1    0    0    0 -0.14209265460E+02  0.58988487881E+02  0.11167150750E+02  0.62500001069E+02  0.99999975209E+01 0.  0.
    3000022    2    3    3    0    0  0.94688341789E+00  0.12702541537E+02  0.32284609650E+01  0.13142929912E+02  0.24999351270E+00 0.  0.
    1000022    2    1    0    0    0  0.14209265460E+02 -0.58988487881E+02 -0.11167150750E+02  0.62499998931E+02  0.99999841532E+01 0.  0.
    3000022    2    5    5    0    0  0.20257399047E+01 -0.55976996786E+01 -0.41922751875E+01  0.72852957355E+01  0.24999770277E+00 0.  0.
        -13    1    4    4    0    0  0.68830693680E+00  0.85635323055E+01  0.21620570959E+01  0.88596482928E+01  0.10500000000E+00 0. -1.
         13    1    4    4    0    0  0.25857648109E+00  0.41390092316E+01  0.10664038692E+01  0.42832816190E+01  0.10500000000E+00 0.  1.
    3000001    1    5    5    0    0  0.12183525556E+02 -0.53390788202E+02 -0.69748755624E+01  0.55214703195E+02  0.10000000000E+01 0.  1.
        -13    1    6    6    0    0  0.12317845269E+01 -0.32468851496E+01 -0.24003063579E+01  0.42228014288E+01  0.10500000000E+00 0. -1.
         13    1    6    6    0    0  0.79395537778E+00 -0.23508145290E+01 -0.17919688296E+01  0.30624943066E+01  0.10500000000E+00 0.  1.
</event>
<event>
11    0  0.3483054E-009  0.9118800E+02  0.7816531E-02  0.1126479E+00
         25   -1    0    0    0    0  0.00000000000E+00  0.00000000000E+00  0.99999998245E-14  0.12500000000E+03  0.12500000000E+03 0.  0.
    3000001    1    3    3    0    0 -0.14795964385E+01 -0.12020194188E+01 -0.15731172353E+02  0.15877778179E+02  0.10000000000E+01 0.  1.
    1000022    2    1    0    0    0 -0.24891877836E+01 -0.20723926030E+02 -0.58056636169E+02  0.62499999289E+02  0.99999870998E+01 0.  0.
    3000022    2    3    3    0    0 -0.10095913451E+01 -0.19521906611E+02 -0.42325463816E+02  0.46622221110E+02  0.25000320229E+00 0.  0.
    1000022    2    1    0    0    0  0.24891877836E+01  0.20723926030E+02  0.58056636169E+02  0.62500000711E+02  0.99999959845E+01 0.  0.
    3000022    2    5    5    0    0 -0.17506257979E+01  0.12421274036E+02  0.22868758073E+02  0.26084388479E+02  0.24997429850E+00 0.  0.
        -13    1    4    4    0    0 -0.72805546891E+00 -0.14412768163E+02 -0.31179242909E+02  0.34357155940E+02  0.10500000000E+00 0. -1.
         13    1    4    4    0    0 -0.28153587622E+00 -0.51091384486E+01 -0.11146220907E+02  0.12265065171E+02  0.10500000000E+00 0.  1.
    3000001    1    5    5    0    0  0.42398135816E+01  0.83026519940E+01  0.35187878096E+02  0.36415612232E+02  0.10000000000E+01 0. -1.
        -13    1    6    6    0    0 -0.13505260367E+01  0.95187726004E+01  0.17543896961E+02  0.20005756621E+02  0.10500000000E+00 0.  1.
         13    1    6    6    0    0 -0.40009976127E+00  0.29025014359E+01  0.53248611119E+01  0.60786318580E+01  0.10500000000E+00 0. -1.
</event>
<event>
11    0  0.3483054E-009  0.9118800E+02  0.7816531E-02  0.1126479E+00
         25   -1    0    0    0    0  0.00000000000E+00  0.00000000000E+00  0.99999998245E-14  0.12500000000E+03  0.12500000000E+03 0.  0.
    3000001    1    3    3    0    0  0.41495369422E+01 -0.48875643237E+02  0.25771238013E+02  0.55418443387E+02  0.10000000000E+01 0. -1.
    1000022    2    1    0    0    0  0.20044102876E+01 -0.55544273902E+02  0.26778089734E+02  0.62500000635E+02  0.99999982851E+01 0.  0.
    3000022    2    3    3    0    0 -0.21451266546E+01 -0.66686306643E+01  0.10068517205E+01  0.70815572478E+01  0.24999873305E+00 0.  0.
    1000022    2    1    0    0    0 -0.20044102876E+01  0.55544273902E+02 -0.26778089734E+02  0.62499999365E+02  0.99999903505E+01 0.  0.
    3000022    2    5    5    0    0  0.28431265025E+00  0.52094060084E+02 -0.25780085145E+02  0.58125271804E+02  0.25000506293E+00 0.  0.
        -13    1    4    4    0    0 -0.11284501837E+01 -0.35681352535E+01  0.47245338353E+00  0.37734899237E+01  0.10500000000E+00 0.  1.
         13    1    4    4    0    0 -0.10166764709E+01 -0.31004954108E+01  0.53439833699E+00  0.33080673242E+01  0.10500000000E+00 0. -1.
    3000001    1    5    5    0    0 -0.22887229379E+01  0.34502138176E+01 -0.99800458914E+00  0.43747275611E+01  0.10000000000E+01 0. -1.
        -13    1    6    6    0    0  0.79755063685E-01  0.19457826569E+02 -0.95691080046E+01  0.21683916359E+02  0.10500000000E+00 0.  1.
         13    1    6    6    0    0  0.20455758657E+00  0.32636233515E+02 -0.16210977140E+02  0.36441355445E+02  0.10500000000E+00 0. -1.
</event>
<event>
11    0  0.3483054E-009  0.9118800E+02  0.7816531E-02  0.1126479E+00
         25   -1    0    0    0    0  0.00000000000E+00  0.00000000000E+00  0.99999998245E-14  0.12500000000E+03  0.12500000000E+03 0.  0.
    3000001    1    3    3    0    0  0.11834753620E+01  0.60813292098E+01 -0.40233649307E+02  0.40720138942E+02  0.10000000000E+01 0. -1.
    1000022    2    1    0    0    0  0.88521718935E+01  0.10155326195E+02 -0.60205966995E+02  0.62499999618E+02  0.99999946541E+01 0.  0.
    3000022    2    3    3    0    0  0.76686965316E+01  0.40739969848E+01 -0.19972317688E+02  0.21779860676E+02  0.24999861589E+00 0.  0.
    1000022    2    1    0    0    0 -0.88521718935E+01 -0.10155326195E+02  0.60205966995E+02  0.62500000382E+02  0.99999994310E+01 0.  0.
    3000022    2    5    5    0    0 -0.64396741151E+01 -0.14708901544E+01  0.14977669297E+02  0.16371500651E+02  0.25007081941E+00 0.  0.
        -13    1    4    4    0    0  0.46778783138E+01  0.25209811842E+01 -0.12086874492E+02  0.13203842306E+02  0.10500000000E+00 0.  1.
         13    1    4    4    0    0  0.29908182178E+01  0.15530158006E+01 -0.78854431955E+01  0.85760183697E+01  0.10500000000E+00 0. -1.
    3000001    1    5    5    0    0 -0.24124977784E+01 -0.86844360401E+01  0.45228297697E+02  0.46128499731E+02  0.10000000000E+01 0.  1.
        -13    1    6    6    0    0 -0.15970934492E+01 -0.37315961193E+00  0.36642590897E+01  0.40159401462E+01  0.10500000000E+00 0.  1.
         13    1    6    6    0    0 -0.48425806659E+01 -0.10977305425E+01  0.11313410208E+02  0.12355560504E+02  0.10500000000E+00 0. -1.
</event>
<event>
11    0  0.3483054E-009  0.9118800E+02  0.7816531E-02  0.1126479E+00
         25   -1    0    0    0    0  0.00000000000E+00  0.00000000000E+00  0.99999998245E-14  0.12500000000E+03  0.12500000000E+03 0.  0.
    3000001    1    3    3    0    0 -0.26472476166E+02  0.73455186826E+01 -0.13702878064E+02  0.30716730072E+02  0.10000000000E+01 0.  1.
    1000022    2    1    0    0    0 -0.48410392938E+02  0.12766502536E+02 -0.36051357203E+02  0.62500000910E+02  0.10000001308E+02 0.  0.
    3000022    2    3    3    0    0 -0.21937916771E+02  0.54209838530E+01 -0.22348479139E+02  0.31783270837E+02  0.25005420045E+00 0.  0.
    1000022    2    1    0    0    0  0.48410392938E+02 -0.12766502536E+02  0.36051357203E+02  0.62499999090E+02  0.99999899376E+01 0.  0.
    3000022    2    5    5    0    0  0.31916236595E+02 -0.91259408794E+01  0.18016700345E+02  0.37770265355E+02  0.24999670446E+00 0.  0.
        -13    1    4    4    0    0 -0.10262031888E+02  0.24683622422E+01 -0.10415846991E+02  0.14829126885E+02  0.10500000000E+00 0. -1.
         13    1    4    4    0    0 -0.11675884883E+02  0.29526216108E+01 -0.11932632148E+02  0.16954143952E+02  0.10500000000E+00 0.  1.
    3000001    1    5    5    0    0  0.16494156343E+02 -0.36405616562E+01  0.18034656858E+02  0.24729733735E+02  0.10000000000E+01 0.  1.
        -13    1    6    6    0    0  0.13727945105E+02 -0.39901163896E+01  0.77823134788E+01  0.16277374902E+02  0.10500000000E+00 0.  1.
         13    1    6    6    0    0  0.18188291490E+02 -0.51358244898E+01  0.10234386866E+02  0.21492890454E+02  0.10500000000E+00 0. -1.
</event>
<event>
11    0  0.3483054E-009  0.9118800E+02  0.7816531E-02  0.1126479E+00
         25   -1    0    0    0    0  0.00000000000E+00  0.00000000000E+00  0.99999998245E-14  0.12500000000E+03  0.12500000000E+03 0.  0.
    3000001    1    3    3    0    0  0.35708925574E+02 -0.20022088959E+02 -0.19187410206E+02  0.45223535049E+02  0.10000000000E+01 0. -1.
    1000022    2    1    0    0    0  0.49451661900E+02 -0.22266594316E+02 -0.29410575471E+02  0.62499999410E+02  0.99999944780E+01 0.  0.
    3000022    2    3    3    0    0  0.13742736326E+02 -0.22445053569E+01 -0.10223165265E+02  0.17276464361E+02  0.25001347872E+00 0.  0.
    1000022    2    1    0    0    0 -0.49451661900E+02  0.22266594316E+02  0.29410575471E+02  0.62500000590E+02  0.10000001858E+02 0.  0.
    3000022    2    5    5    0    0 -0.12431634828E+02  0.62562670906E+01  0.12657523194E+02  0.18813873011E+02  0.25000373377E+00 0.  0.
        -13    1    4    4    0    0  0.75928472537E+01 -0.11876539356E+01 -0.55899349243E+01  0.95036965833E+01  0.10500000000E+00 0.  1.
         13    1    4    4    0    0  0.61498890727E+01 -0.10568514213E+01 -0.46332303404E+01  0.77727677773E+01  0.10500000000E+00 0. -1.
    3000001    1    5    5    0    0 -0.37020027072E+02  0.16010327225E+02  0.16753052277E+02  0.43686127579E+02  0.10000000000E+01 0.  1.
        -13    1    6    6    0    0 -0.45712828352E+01  0.23555708419E+01  0.47225749931E+01  0.69827702465E+01  0.10500000000E+00 0. -1.
         13    1    6    6    0    0 -0.78603519930E+01  0.39006962487E+01  0.79349482008E+01  0.11831102765E+02  0.10500000000E+00 0.  1.
</event>
<event>
11    0  0.3483054E-009  0.9118800E+02  0.7816531E-02  0.1126479E+00
         25   -1    0    0    0    0  0.00000000000E+00  0.00000000000E+00  0.99999998245E-14  0.12500000000E+03  0.12500000000E+03 0.  0.
    3000001    1    3    3    0    0  0.36377240069E+02 -0.19043322006E+02 -0.37376065385E+02  0.55533070973E+02  0.10000000000E+01 0. -1.
    1000022    2    1    0    0    0  0.38782249178E+02 -0.24137421525E+02 -0.41467723495E+02  0.62499999083E+02  0.99999912183E+01 0.  0.
    3000022    2    3    3    0    0  0.24050091090E+01 -0.50940995190E+01 -0.40916581100E+01  0.69669281100E+01  0.25000495318E+00 0.  0.
    1000022    2    1    0    0    0 -0.38782249178E+02  0.24137421525E+02  0.41467723495E+02  0.62500000917E+02  0.10000002680E+02 0.  0.
    3000022    2    5    5    0    0 -0.54596601134E+01  0.22184145350E+01  0.16325094101E+01  0.61201987661E+01  0.24998872046E+00 0.  0.
        -13    1    4    4    0    0  0.75873666042E+00 -0.15011176298E+01 -0.12283801488E+01  0.20854204009E+01  0.10500000000E+00 0. -1.
         13    1    4    4    0    0  0.16462724486E+01 -0.35929818892E+01 -0.28632779612E+01  0.48815077091E+01  0.10500000000E+00 0.  1.
    3000001    1    5    5    0    0 -0.33322589064E+02  0.21919006990E+02  0.39835214085E+02  0.56379802151E+02  0.10000000000E+01 0. -1.
        -13    1    6    6    0    0 -0.16457272907E+01  0.71948949434E+00  0.50031200806E+00  0.18674636685E+01  0.10500000000E+00 0. -1.
         13    1    6    6    0    0 -0.38139328227E+01  0.14989250406E+01  0.11321974020E+01  0.42527350976E+01  0.10500000000E+00 0. -1.
</event>
<event>
11    0  0.3483054E-009  0.9118800E+02  0.7816531E-02  0.1126479E+00
         25   -1    0    0    0    0  0.00000000000E+00  0.00000000000E+00  0.99999998245E-14  0.12500000000E+03  0.12500000000E+03 0.  0.
    3000001    1    3    3    0    0 -0.46347166294E+02 -0.24852091624E+02  0.94516400676E+00  0.52607790456E+02  0.10000000000E+01 0. -1.
    1000022    2    1    0    0    0 -0.53846431420E+02 -0.29965498498E+02 -0.29800611461E+01  0.62499999004E+02  0.99999917069E+01 0.  0.
    3000022    2    3    3    0    0 -0.74992651253E+01 -0.51134068742E+01 -0.39252251528E+01  0.98922085482E+01  0.24998035714E+00 0.  0.
    1000022    2    1    0    0    0  0.53846431420E+02  0.29965498498E+02  0.29800611461E+01  0.62500000996E+02  0.10000004159E+02 0.  0.
    3000022    2    5    5    0    0  0.45865290897E+02  0.27866410493E+02  0.51335013566E+01  0.53912680154E+02  0.25000481877E+00 0.  0.
        -13    1    4    4    0    0 -0.37656109037E+01 -0.25711991130E+01 -0.20456416856E+01  0.49986563457E+01  0.10500000000E+00 0.  1.
         13    1    4    4    0    0 -0.37336542216E+01 -0.25422077613E+01 -0.18795834672E+01  0.48935522025E+01  0.10500000000E+00 0. -1.
    3000001    1    5    5    0    0  0.79811405230E+01  0.20990880051E+01 -0.21534402105E+01  0.85873208419E+01  0.10000000000E+01 0.  1.
        -13    1    6    6    0    0  0.15156813532E+02  0.92706147802E+01  0.17049606172E+01  0.17849123523E+02  0.10500000000E+00 0. -1.
         13    1    6    6    0    0  0.30708477365E+02  0.18595795713E+02  0.34285407394E+01  0.36063556631E+02  0.10500000000E+00 0.  1.
</event>
<event>
11    0  0.3483054E-009  0.9118800E+02  0.7816531E-02  0.1126479E+00
         25   -1    0    0    0    0  0.00000000000E+00  0.00000000000E+00  0.99999998245E-14  0.12500000000E+03  0.12500000000E+03 0.  0.
    3000001    1    3    3    0    0 -0.92316634477E+01 -0.24682370952E+01  0.13408832499E+01  0.97012252968E+01  0.10000000000E+01 0. -1.
    1000022    2    1    0    0    0 -0.49247040018E+02 -0.35996970749E+02  0.92302285658E+01  0.62500000037E+02  0.10000001581E+02 0.  0.
    3000022    2    3    3    0    0 -0.40015376570E+02 -0.33528733654E+02  0.78893453159E+01  0.52798774740E+02  0.25000414364E+00 0.  0.
    1000022    2    1    0    0    0  0.49247040018E+02  0.35996970749E+02 -0.92302285658E+01  0.62499999963E+02  0.10000001123E+02 0.  0.
    3000022    2    5    5    0    0  0.20164041709E+02  0.89656606598E+01 -0.41977996918E+01  0.22464542477E+02  0.24999470844E+00 0.  0.
        -13    1    4    4    0    0 -0.10690709703E+02 -0.89428726280E+01  0.21395601015E+01  0.14101595202E+02  0.10500000000E+00 0. -1.
         13    1    4    4    0    0 -0.29324666867E+02 -0.24585861026E+02  0.57497852144E+01  0.38697179538E+02  0.10500000000E+00 0.  1.
    3000001    1    5    5    0    0  0.29082998309E+02  0.27031310089E+02 -0.50324288740E+01  0.40035457486E+02  0.10000000000E+01 0. -1.
        -13    1    6    6    0    0  0.13705629929E+02  0.61066263749E+01 -0.29044655297E+01  0.15283393683E+02  0.10500000000E+00 0.  1.
         13    1    6    6    0    0  0.64584117792E+01  0.28590342849E+01 -0.12933341621E+01  0.71811487944E+01  0.10500000000E+00 0. -1.
</event>
<event>
11    0  0.3483054E-009  0.9118800E+02  0.7816531E-02  0.1126479E+00
         25   -1    0    0    0    0  0.00000000000E+00  0.00000000000E+00  0.99999998245E-14  0.12500000000E+03  0.12500000000E+03 0.  0.
    3000001    1    3    3    0    0  0.76223733265E+01 -0.17793361232E+02 -0.22202195491E+02  0.29472729152E+02  0.10000000000E+01 0. -1.
    1000022    2    1    0    0    0  0.83839378044E+01 -0.32518231194E+02 -0.51754460235E+02  0.62500000028E+02  0.10000003810E+02 0.  0.
    3000022    2    3    3    0    0  0.76156447782E+00 -0.14724869962E+02 -0.29552264744E+02  0.33027270876E+02  0.24998830167E+00 0.  0.
    1000022    2    1    0    0    0 -0.83839378044E+01  0.32518231194E+02  0.51754460235E+02  0.62499999972E+02  0.10000003460E+02 0.  0.
    3000022    2    5    5    0    0 -0.10128780913E+02  0.26585992402E+02  0.45392687013E+02  0.53572061067E+02  0.24999592041E+00 0.  0.
        -13    1    4    4    0    0  0.44416935663E+00 -0.73605573679E+01 -0.14832828477E+02  0.16564990697E+02  0.10500000000E+00 0.  1.
         13    1    4    4    0    0  0.31739512119E+00 -0.73643125943E+01 -0.14719436267E+02  0.16462280179E+02  0.10500000000E+00 0. -1.
    3000001    1    5    5    0    0  0.17448431082E+01  0.59322387925E+01  0.63617732219E+01  0.89279389049E+01  0.10000000000E+01 0.  1.
        -13    1    6    6    0    0 -0.61615965479E+01  0.16334414789E+02  0.27895473373E+02  0.32908157625E+02  0.10500000000E+00 0. -1.
         13    1    6    6    0    0 -0.39671843646E+01  0.10251577613E+02  0.17497213640E+02  0.20663903442E+02  0.10500000000E+00 0.  1.
</event>
<event>
11    0  0.3483054E-009  0.9118800E+02  0.7816531E-02  0.1126479E+00
         25   -1    0    0    0    0  0.00000000000E+00  0.00000000000E+00  0.99999998245E-14  0.12500000000E+03  0.12500000000E+03 0.  0.
    3000001    1    3    3    0    0  0.89058001327E+01  0.10597888294E+02 -0.13009988521E+02  0.19023362311E+02  0.10000000000E+01 0.  1.
    1000022    2    1    0    0    0  0.35727536778E+02  0.40048275513E+02 -0.30429079069E+02  0.62500000706E+02  0.99999989783E+01 0.  0.
    3000022    2    3    3    0    0  0.26821736645E+02  0.29450387219E+02 -0.17419090548E+02  0.43476638396E+02  0.25001332908E+00 0.  0.
    1000022    2    1    0    0    0 -0.35727536778E+02 -0.40048275513E+02  0.30429079069E+02  0.62499999294E+02  0.99999901489E+01 0.  0.
    3000022    2    5    5    0    0 -0.12899174219E+02 -0.13131411871E+02  0.15880845483E+02  0.24312268464E+02  0.24994272565E+00 0.  0.
        -13    1    4    4    0    0  0.19631145659E+02  0.21606761888E+02 -0.12767080571E+02  0.31862884528E+02  0.10500000000E+00 0. -1.
         13    1    4    4    0    0  0.71905909858E+01  0.78436253310E+01 -0.46520099773E+01  0.11613753867E+02  0.10500000000E+00 0.  1.
    3000001    1    5    5    0    0 -0.22828362559E+02 -0.26916863642E+02  0.14548233586E+02  0.38187730829E+02  0.10000000000E+01 0.  1.
        -13    1    6    6    0    0 -0.35988787395E+01 -0.37045555331E+01  0.44200415795E+01  0.67987831590E+01  0.10500000000E+00 0.  1.
         13    1    6    6    0    0 -0.93002954791E+01 -0.94268563381E+01  0.11460803904E+02  0.17513485305E+02  0.10500000000E+00 0. -1.
</event>
<event>
11    0  0.3483054E-009  0.9118800E+02  0.7816531E-02  0.1126479E+00
         25   -1    0    0    0    0  0.00000000000E+00  0.00000000000E+00  0.99999998245E-14  0.12500000000E+03  0.12500000000E+03 0.  0.
    3000001    1    3    3    0    0  0.12680455299E+00 -0.21088049211E+00  0.11794432389E+00  0.10365620291E+01  0.10000000000E+01 0. -1.
    1000022    2    1    0    0    0  0.39628162769E+02 -0.20129559798E+02  0.42786207978E+02  0.62500000794E+02  0.10000002200E+02 0.  0.
    3000022    2    3    3    0    0  0.39501358216E+02 -0.19918679306E+02  0.42668263654E+02  0.61463438765E+02  0.24999069353E+00 0.  0.
    1000022    2    1    0    0    0 -0.39628162769E+02  0.20129559798E+02 -0.42786207978E+02  0.62499999206E+02  0.99999922748E+01 0.  0.
    3000022    2    5    5    0    0 -0.43870519270E+01 -0.75110844093E+00 -0.29049341724E+01  0.53208579057E+01  0.24999561097E+00 0.  0.
        -13    1    4    4    0    0  0.22026138554E+02 -0.11056297434E+02  0.23837611576E+02  0.34287537724E+02  0.10500000000E+00 0.  1.
         13    1    4    4    0    0  0.17475219662E+02 -0.88623818726E+01  0.18830652078E+02  0.27175901041E+02  0.10500000000E+00 0. -1.
    3000001    1    5    5    0    0 -0.35241110842E+02  0.20880668239E+02 -0.39881273805E+02  0.57179141300E+02  0.10000000000E+01 0.  1.
        -13    1    6    6    0    0 -0.22547278089E+01 -0.38095365367E+00 -0.14116847803E+01  0.26893869371E+01  0.10500000000E+00 0. -1.
         13    1    6    6    0    0 -0.21323241181E+01 -0.37015478727E+00 -0.14932493921E+01  0.26314709685E+01  0.10500000000E+00 0.  1.
</event>
<event>
11    0  0.3483054E-009  0.9118800E+02  0.7816531E-02  0.1126479E+00
         25   -1    0    0    0    0  0.00000000000E+00  0.00000000000E+00  0.99999998245E-14  0.12500000000E+03  0.12500000000E+03 0.  0.
    3000001    1    3    3    0    0 -0.35912042403E+02 -0.45674004298E+01 -0.42545121115E+02  0.55871488855E+02  0.10000000000E+01 0. -1.
    1000022    2    1    0    0    0 -0.38258439369E+02 -0.79330908840E+01 -0.47745237709E+02  0.62500001111E+02  0.10000015052E+02 0.  0.
    3000022    2    3    3    0    0 -0.23463969653E+01 -0.33656904542E+01 -0.52001165945E+01  0.66285122553E+01  0.25002233660E+00 0.  0.
    1000022    2    1    0    0    0  0.38258439369E+02  0.79330908840E+01  0.47745237709E+02  0.62499998889E+02  0.10000001167E+02 0.  0.
    3000022    2    5    5    0    0  0.98442522838E+01  0.51619910810E+01  0.18736041290E+02  0.21786628865E+02  0.24999829782E+00 0.  0.
        -13    1    4    4    0    0 -0.15864249075E+01 -0.23281063690E+01 -0.35037685089E+01  0.44971370911E+01  0.10500000000E+00 0.  1.
         13    1    4    4    0    0 -0.75997205781E+00 -0.10375840852E+01 -0.16963480857E+01  0.21313751641E+01  0.10500000000E+00 0. -1.
    3000001    1    5    5    0    0  0.28414187085E+02  0.27710998030E+01  0.29009196419E+02  0.40713370024E+02  0.10000000000E+01 0.  1.
        -13    1    6    6    0    0  0.59990315971E+01  0.31105012990E+01  0.11283528955E+02  0.13152666996E+02  0.10500000000E+00 0.  1.
         13    1    6    6    0    0  0.38452206867E+01  0.20514897820E+01  0.74525123355E+01  0.86339618696E+01  0.10500000000E+00 0. -1.
</event>
<event>
11    0  0.3483054E-009  0.9118800E+02  0.7816531E-02  0.1126479E+00
         25   -1    0    0    0    0  0.00000000000E+00  0.00000000000E+00  0.99999998245E-14  0.12500000000E+03  0.12500000000E+03 0.  0.
    3000001    1    3    3    0    0 -0.39544144464E+01  0.23237180419E+02 -0.10878874901E+02  0.25979874260E+02  0.10000000000E+01 0. -1.
    1000022    2    1    0    0    0 -0.13394537512E+02  0.58227567414E+02 -0.15374874662E+02  0.62500000498E+02  0.10000002462E+02 0.  0.
    3000022    2    3    3    0    0 -0.94401230656E+01  0.34990386996E+02 -0.44959997607E+01  0.36520126238E+02  0.25000206715E+00 0.  0.
    1000022    2    1    0    0    0  0.13394537512E+02 -0.58227567414E+02  0.15374874662E+02  0.62499999502E+02  0.99999962363E+01 0.  0.
    3000022    2    5    5    0    0  0.14872424645E+02 -0.50344626470E+02  0.13202167651E+02  0.54130676706E+02  0.25000147427E+00 0.  0.
        -13    1    4    4    0    0 -0.36297501634E+01  0.13264571846E+02 -0.16702992223E+01  0.13853695428E+02  0.10500000000E+00 0.  1.
         13    1    4    4    0    0 -0.58103729022E+01  0.21725815149E+02 -0.28257005384E+01  0.22666430811E+02  0.10500000000E+00 0. -1.
    3000001    1    5    5    0    0 -0.14778871328E+01 -0.78829409444E+01  0.21727070112E+01  0.83693227962E+01  0.10000000000E+01 0.  1.
        -13    1    6    6    0    0  0.39167539864E+01 -0.13165614537E+02  0.34350745102E+01  0.14159277164E+02  0.10500000000E+00 0. -1.
         13    1    6    6    0    0  0.10955670658E+02 -0.37179011933E+02  0.97670931404E+01  0.39971399542E+02  0.10500000000E+00 0.  1.
</event>
<event>
11    0  0.3483054E-009  0.9118800E+02  0.7816531E-02  0.1126479E+00
         25   -1    0    0    0    0  0.00000000000E+00  0.00000000000E+00  0.99999998245E-14  0.12500000000E+03  0.12500000000E+03 0.  0.
    3000001    1    3    3    0    0  0.34445884336E+02 -0.64244185563E+01 -0.33974828840E+02  0.48816811614E+02  0.10000000000E+01 0.  1.
    1000022    2    1    0    0    0  0.39751792052E+02 -0.83188395305E+01 -0.46441813987E+02  0.62500002597E+02  0.10000008785E+02 0.  0.
    3000022    2    3    3    0    0  0.53059077165E+01 -0.18944209741E+01 -0.12466985147E+02  0.13683190983E+02  0.25001858367E+00 0.  0.
    1000022    2    1    0    0    0 -0.39751792052E+02  0.83188395305E+01  0.46441813987E+02  0.62499997403E+02  0.99999763190E+01 0.  0.
    3000022    2    5    5    0    0 -0.12567249385E+02  0.70445835248E+01  0.18919714391E+02  0.23781925981E+02  0.24999318574E+00 0.  0.
        -13    1    4    4    0    0  0.24364198821E+01 -0.93953010877E+00 -0.57415801909E+01  0.63083775058E+01  0.10500000000E+00 0.  1.
         13    1    4    4    0    0  0.28694878344E+01 -0.95489086537E+00 -0.67254049563E+01  0.73748134772E+01  0.10500000000E+00 0. -1.
    3000001    1    5    5    0    0 -0.27184542668E+02  0.12742560057E+01  0.27522099596E+02  0.38718071422E+02  0.10000000000E+01 0.  1.
        -13    1    6    6    0    0 -0.48542867188E+01  0.27919734654E+01  0.73539986388E+01  0.92440000194E+01  0.10500000000E+00 0.  1.
         13    1    6    6    0    0 -0.77129626659E+01  0.42526100594E+01  0.11565715752E+02  0.14537925962E+02  0.10500000000E+00 0. -1.
</event>
<event>
11    0  0.3483054E-009  0.9118800E+02  0.7816531E-02  0.1126479E+00
         25   -1    0    0    0    0  0.00000000000E+00  0.00000000000E+00  0.99999998245E-14  0.12500000000E+03  0.12500000000E+03 0.  0.
    3000001    1    3    3    0    0  0.19206612088E+02  0.17705748314E+02  0.18487414928E+02  0.32018306981E+02  0.10000000000E+01 0. -1.
    1000022    2    1    0    0    0  0.43602957322E+02  0.27389538226E+02  0.33983014735E+02  0.62499999195E+02  0.99999958704E+01 0.  0.
    3000022    2    3    3    0    0  0.24396345235E+02  0.96837899120E+01  0.15495599807E+02  0.30481692213E+02  0.24999789792E+00 0.  0.
    1000022    2    1    0    0    0 -0.43602957322E+02 -0.27389538226E+02 -0.33983014735E+02  0.62500000805E+02  0.10000005938E+02 0.  0.
    3000022    2    5    5    0    0 -0.76267850154E+01 -0.37876070604E+01 -0.10330568634E+02  0.13390181674E+02  0.25000010041E+00 0.  0.
        -13    1    4    4    0    0  0.12773135040E+02  0.50756178358E+01  0.81923905670E+01  0.16001286303E+02  0.10500000000E+00 0. -1.
         13    1    4    4    0    0  0.11623210195E+02  0.46081720762E+01  0.73032092395E+01  0.14480405910E+02  0.10500000000E+00 0.  1.
    3000001    1    5    5    0    0 -0.35976172307E+02 -0.23601931165E+02 -0.23652446101E+02  0.49109819132E+02  0.10000000000E+01 0.  1.
        -13    1    6    6    0    0 -0.50279424028E+01 -0.25552798400E+01 -0.68166889671E+01  0.88480468658E+01  0.10500000000E+00 0.  1.
         13    1    6    6    0    0 -0.25988426126E+01 -0.12323272204E+01 -0.35138796664E+01  0.45421348079E+01  0.10500000000E+00 0. -1.
</event>
<event>
11    0  0.3483054E-009  0.9118800E+02  0.7816531E-02  0.1126479E+00
         25   -1    0    0    0    0  0.00000000000E+00  0.00000000000E+00  0.99999998245E-14  0.12500000000E+03  0.12500000000E+03 0.  0.
    3000001    1    3    3    0    0 -0.29289375792E+02  0.26945554415E+02  0.43992180713E+02  0.59331630695E+02  0.10000000000E+01 0. -1.
    1000022    2    1    0    0    0 -0.29097548421E+02  0.29650370139E+02  0.45611821851E+02  0.62499999626E+02  0.99999943593E+01 0.  0.
    3000022    2    3    3    0    0  0.19182737117E+00  0.27048157237E+01  0.16196411381E+01  0.31683689311E+01  0.24999685511E+00 0.  0.
    1000022    2    1    0    0    0  0.29097548421E+02 -0.29650370139E+02 -0.45611821851E+02  0.62500000374E+02  0.99999990354E+01 0.  0.
    3000022    2    5    5    0    0  0.13723519054E+02 -0.19382618612E+02 -0.30130995404E+02  0.38366134379E+02  0.25000730723E+00 0.  0.
        -13    1    4    4    0    0  0.15552430741E+00  0.13329726557E+01  0.76599634822E+00  0.15487993145E+01  0.10500000000E+00 0.  1.
         13    1    4    4    0    0  0.36303063755E-01  0.13718430679E+01  0.85364478991E+00  0.16195696165E+01  0.10500000000E+00 0. -1.
    3000001    1    5    5    0    0  0.15374029367E+02 -0.10267751527E+02 -0.15480826448E+02  0.24133865996E+02  0.10000000000E+01 0.  1.
        -13    1    6    6    0    0  0.40369454662E+01 -0.56694547757E+01 -0.88949552399E+01  0.11294728853E+02  0.10500000000E+00 0. -1.
         13    1    6    6    0    0  0.96865735874E+01 -0.13713163837E+02 -0.21236040164E+02  0.27071405525E+02  0.10500000000E+00 0.  1.
</event>
<event>
11    0  0.3483054E-009  0.9118800E+02  0.7816531E-02  0.1126479E+00
         25   -1    0    0    0    0  0.00000000000E+00  0.00000000000E+00  0.99999998245E-14  0.12500000000E+03  0.12500000000E+03 0.  0.
    3000001    1    3    3    0    0 -0.15393048888E+02 -0.78207293843E+01  0.79394272045E+01  0.19030088452E+02  0.10000000000E+01 0.  1.
    1000022    2    1    0    0    0 -0.54996387832E+02 -0.11520884923E+02  0.25473832773E+02  0.62500002923E+02  0.10000037258E+02 0.  0.
    3000022    2    3    3    0    0 -0.39603338945E+02 -0.37001555385E+01  0.17534405569E+02  0.43469914470E+02  0.24995768643E+00 0.  0.
    1000022    2    1    0    0    0  0.54996387832E+02  0.11520884923E+02 -0.25473832773E+02  0.62499997077E+02  0.10000000726E+02 0.  0.
    3000022    2    5    5    0    0  0.33216895453E+02  0.48866347716E+01 -0.19933515549E+02  0.39046752562E+02  0.25000106544E+00 0.  0.
        -13    1    4    4    0    0 -0.19440867938E+02 -0.18838420300E+01  0.86006817412E+01  0.21341953012E+02  0.10500000000E+00 0. -1.
         13    1    4    4    0    0 -0.20162471007E+02 -0.18163135086E+01  0.89337238275E+01  0.22127961458E+02  0.10500000000E+00 0.  1.
    3000001    1    5    5    0    0  0.21779492380E+02  0.66342501512E+01 -0.55403172238E+01  0.23453244516E+02  0.10000000000E+01 0. -1.
        -13    1    6    6    0    0  0.13424796124E+02  0.20243912899E+01 -0.80135668920E+01  0.15765519033E+02  0.10500000000E+00 0. -1.
         13    1    6    6    0    0  0.19792099329E+02  0.28622434817E+01 -0.11919948657E+02  0.23281233528E+02  0.10500000000E+00 0.  1.
</event>
<event>
11    0  0.3483054E-009  0.9118800E+02  0.7816531E-02  0.1126479E+00
         25   -1    0    0    0    0  0.00000000000E+00  0.00000000000E+00  0.99999998245E-14  0.12500000000E+03  0.12500000000E+03 0.  0.
    3000001    1    3    3    0    0  0.11565848766E+02  0.21941360520E+02 -0.49657229904E+02  0.55516057505E+02  0.10000000000E+01 0. -1.
    1000022    2    1    0    0    0  0.12136831722E+02  0.21367414665E+02 -0.56589582031E+02  0.62499998972E+02  0.99999991652E+01 0.  0.
    3000022    2    3    3    0    0  0.57098295628E+00 -0.57394585523E+00 -0.69323521268E+01  0.69839414666E+01  0.24999403569E+00 0.  0.
    1000022    2    1    0    0    0 -0.12136831722E+02 -0.21367414665E+02  0.56589582031E+02  0.62500001028E+02  0.10000012015E+02 0.  0.
    3000022    2    5    5    0    0 -0.33067810021E+01 -0.15408292159E+02  0.35903111462E+02  0.39210282237E+02  0.25010514818E+00 0.  0.
        -13    1    4    4    0    0  0.42636116815E+00 -0.36601578756E+00 -0.48743403876E+01  0.49077459812E+01  0.10500000000E+00 0. -1.
         13    1    4    4    0    0  0.14462178813E+00 -0.20793006768E+00 -0.20580117392E+01  0.20761954853E+01  0.10500000000E+00 0.  1.
    3000001    1    5    5    0    0 -0.88300507199E+01 -0.59591225059E+01  0.20686470570E+02  0.23289718791E+02  0.10000000000E+01 0.  1.
        -13    1    6    6    0    0 -0.17475811992E+01 -0.79380962742E+01  0.18647990543E+02  0.20342713408E+02  0.10500000000E+00 0. -1.
         13    1    6    6    0    0 -0.15591998028E+01 -0.74701958850E+01  0.17255120919E+02  0.18867568829E+02  0.10500000000E+00 0.  1.
</event>
<event>
11    0  0.3483054E-009  0.9118800E+02  0.7816531E-02  0.1126479E+00
         25   -1    0    0    0    0  0.00000000000E+00  0.00000000000E+00  0.99999998245E-14  0.12500000000E+03  0.12500000000E+03 0.  0.
    3000001    1    3    3    0    0  0.43030297811E+02  0.45619790529E+01 -0.42462038841E+02  0.60633678143E+02  0.10000000000E+01 0. -1.
    1000022    2    1    0    0    0  0.44212749705E+02  0.32118478291E+01 -0.42908821070E+02  0.62500001027E+02  0.99999999888E+01 0.  0.
    3000022    2    3    3    0    0  0.11824518945E+01 -0.13501312238E+01 -0.44678222959E+00  0.18663228848E+01  0.24999989093E+00 0.  0.
    1000022    2    1    0    0    0 -0.44212749705E+02 -0.32118478291E+01  0.42908821070E+02  0.62499998973E+02  0.99999871468E+01 0.  0.
    3000022    2    5    5    0    0 -0.62179255161E+01 -0.39429910913E+01  0.82015442276E+01  0.11024409598E+02  0.25000558436E+00 0.  0.
        -13    1    4    4    0    0  0.30979391555E+00 -0.32138007037E+00 -0.12992907972E+00  0.47661723165E+00  0.10500000000E+00 0. -1.
         13    1    4    4    0    0  0.87265797895E+00 -0.10287511534E+01 -0.31685314987E+00  0.13897056532E+01  0.10500000000E+00 0.  1.
    3000001    1    5    5    0    0 -0.37994824189E+02  0.73114326216E+00  0.34707276843E+02  0.51475589375E+02  0.10000000000E+01 0. -1.
        -13    1    6    6    0    0 -0.18311187804E+01 -0.12134943965E+01  0.24328201794E+01  0.32795127174E+01  0.10500000000E+00 0. -1.
         13    1    6    6    0    0 -0.43868067356E+01 -0.27294966949E+01  0.57687240482E+01  0.77448968803E+01  0.10500000000E+00 0.  1.
</event>
<event>
11    0  0.3483054E-009  0.9118800E+02  0.7816531E-02  0.1126479E+00
         25   -1    0    0    0    0  0.00000000000E+00  0.00000000000E+00  0.99999998245E-14  0.12500000000E+03  0.12500000000E+03 0.  0.
    3000001    1    3    3    0    0  0.17669725187E+02  0.16924624337E+01  0.32756780480E+02  0.37270501535E+02  0.10000000000E+01 0. -1.
    1000022    2    1    0    0    0  0.35121966814E+02 -0.14524467776E+01  0.50700979101E+02  0.62500007050E+02  0.99999722483E+01 0.  0.
    3000022    2    3    3    0    0  0.17452241627E+02 -0.31449092113E+01  0.17944198621E+02  0.25229505515E+02  0.24998526873E+00 0.  0.
    1000022    2    1    0    0    0 -0.35121966814E+02  0.14524467776E+01 -0.50700979101E+02  0.62499992950E+02  0.99998841228E+01 0.  0.
    3000022    2    5    5    0    0 -0.34361900648E+02  0.86833639064E+00 -0.44962411211E+02  0.56596600116E+02  0.24999727488E+00 0.  0.
        -13    1    4    4    0    0  0.11487339026E+02 -0.20149505518E+01  0.11815410792E+02  0.16602226983E+02  0.10500000000E+00 0.  1.
         13    1    4    4    0    0  0.59649026005E+01 -0.11299586595E+01  0.61287878295E+01  0.86272785318E+01  0.10500000000E+00 0. -1.
    3000001    1    5    5    0    0 -0.76006616617E+00  0.58411038697E+00 -0.57385678899E+01  0.59033928336E+01  0.10000000000E+01 0.  1.
        -13    1    6    6    0    0 -0.90050213226E+01  0.19850984212E+00 -0.11806927927E+02  0.14850736926E+02  0.10500000000E+00 0. -1.
         13    1    6    6    0    0 -0.25356879325E+02  0.66982654852E+00 -0.33155483284E+02  0.41745863190E+02  0.10500000000E+00 0.  1.
</event>
<event>
11    0  0.3483054E-009  0.9118800E+02  0.7816531E-02  0.1126479E+00
         25   -1    0    0    0    0  0.00000000000E+00  0.00000000000E+00  0.99999998245E-14  0.12500000000E+03  0.12500000000E+03 0.  0.
    3000001    1    3    3    0    0  0.79163009425E+01 -0.19118180363E+02  0.41471883906E+01  0.21127513165E+02  0.10000000000E+01 0.  1.
    1000022    2    1    0    0    0  0.10102524036E+02 -0.59860402316E+02  0.10996403422E+02  0.62499997623E+02  0.10000002866E+02 0.  0.
    3000022    2    3    3    0    0  0.21862230937E+01 -0.40742221953E+02  0.68492150318E+01  0.41372484458E+02  0.25000515350E+00 0.  0.
    1000022    2    1    0    0    0 -0.10102524036E+02  0.59860402316E+02 -0.10996403422E+02  0.62500002377E+02  0.10000032580E+02 0.  0.
    3000022    2    5    5    0    0  0.18823911469E+01  0.57713540439E+01 -0.17599694428E+01  0.63254970605E+01  0.24999338497E+00 0.  0.
        -13    1    4    4    0    0  0.82872587502E+00 -0.15434227837E+02  0.26562333378E+01  0.15683391726E+02  0.10500000000E+00 0. -1.
         13    1    4    4    0    0  0.13574972187E+01 -0.25307994116E+02  0.41929816940E+01  0.25689092731E+02  0.10500000000E+00 0.  1.
    3000001    1    5    5    0    0 -0.11984915183E+02  0.54089048272E+02 -0.92364339796E+01  0.56174505317E+02  0.10000000000E+01 0. -1.
        -13    1    6    6    0    0  0.14405116006E+01  0.44431675617E+01 -0.13517901615E+01  0.48636584269E+01  0.10500000000E+00 0.  1.
         13    1    6    6    0    0  0.44187954633E+00  0.13281864822E+01 -0.40817928126E+00  0.14618386335E+01  0.10500000000E+00 0. -1.
</event>
<event>
11    0  0.3483054E-009  0.9118800E+02  0.7816531E-02  0.1126479E+00
         25   -1    0    0    0    0  0.00000000000E+00  0.00000000000E+00  0.99999998245E-14  0.12500000000E+03  0.12500000000E+03 0.  0.
    3000001    1    3    3    0    0 -0.15255955003E+02 -0.68630137698E+01 -0.57513776005E+01  0.17717885465E+02  0.10000000000E+01 0. -1.
    1000022    2    1    0    0    0 -0.58607674330E+02 -0.98257229368E+01 -0.16578471774E+02  0.62499998864E+02  0.99999905031E+01 0.  0.
    3000022    2    3    3    0    0 -0.43351719327E+02 -0.29627091670E+01 -0.10827094174E+02  0.44782113399E+02  0.24999602900E+00 0.  0.
    1000022    2    1    0    0    0  0.58607674330E+02  0.98257229368E+01  0.16578471774E+02  0.62500001136E+02  0.10000004703E+02 0.  0.
    3000022    2    5    5    0    0  0.43643519121E+02  0.10496920639E+02  0.94131531130E+01  0.45865151002E+02  0.25004145230E+00 0.  0.
        -13    1    4    4    0    0 -0.31674623070E+02 -0.21596746048E+01 -0.78741314126E+01  0.32710226406E+02  0.10500000000E+00 0. -1.
         13    1    4    4    0    0 -0.11677096257E+02 -0.80303456223E+00 -0.29529627612E+01  0.12071886993E+02  0.10500000000E+00 0.  1.
    3000001    1    5    5    0    0  0.14964155208E+02 -0.67119770203E+00  0.71653186613E+01  0.16634850134E+02  0.10000000000E+01 0. -1.
        -13    1    6    6    0    0  0.29347923191E+02  0.70210620494E+01  0.62894851620E+01  0.30824739359E+02  0.10500000000E+00 0.  1.
         13    1    6    6    0    0  0.14295595930E+02  0.34758585895E+01  0.31236679509E+01  0.15040411644E+02  0.10500000000E+00 0. -1.
</event>
<event>
11    0  0.3483054E-009  0.9118800E+02  0.7816531E-02  0.1126479E+00
         25   -1    0    0    0    0  0.00000000000E+00  0.00000000000E+00  0.99999998245E-14  0.12500000000E+03  0.12500000000E+03 0.  0.
    3000001    1    3    3    0    0  0.24535105380E+02  0.19821007871E+02  0.10738744609E+02  0.33334132429E+02  0.10000000000E+01 0. -1.
    1000022    2    1    0    0    0  0.51093959079E+02  0.30753575427E+02  0.15807434168E+02  0.62500000343E+02  0.10000000601E+02 0.  0.
    3000022    2    3    3    0    0  0.26558853699E+02  0.10932567556E+02  0.50686895592E+01  0.29165867914E+02  0.24998834238E+00 0.  0.
    1000022    2    1    0    0    0 -0.51093959079E+02 -0.30753575427E+02 -0.15807434168E+02  0.62499999657E+02  0.99999963134E+01 0.  0.
    3000022    2    5    5    0    0 -0.22219043198E+02 -0.10233153910E+02 -0.22861550986E+01  0.24570150541E+02  0.24994568920E+00 0.  0.
        -13    1    4    4    0    0  0.15596650192E+02  0.64894329374E+01  0.29837734170E+01  0.17154654350E+02  0.10500000000E+00 0.  1.
         13    1    4    4    0    0  0.10962203507E+02  0.44431346190E+01  0.20849161423E+01  0.12011213565E+02  0.10500000000E+00 0. -1.
    3000001    1    5    5    0    0 -0.28874915880E+02 -0.20520421517E+02 -0.13521279069E+02  0.37929849116E+02  0.10000000000E+01 0.  1.
        -13    1    6    6    0    0 -0.72603769423E+01 -0.33040334925E+01 -0.70797081949E+00  0.80088674820E+01  0.10500000000E+00 0. -1.
         13    1    6    6    0    0 -0.14958666256E+02 -0.69291204175E+01 -0.15781842792E+01  0.16561283059E+02  0.10500000000E+00 0.  1.
</event>
<event>
11    0  0.3483054E-009  0.9118800E+02  0.7816531E-02  0.1126479E+00
         25   -1    0    0    0    0  0.00000000000E+00  0.00000000000E+00  0.99999998245E-14  0.12500000000E+03  0.12500000000E+03 0.  0.
    3000001    1    3    3    0    0  0.19749648157E+02  0.18446950933E+02  0.16224027454E+02  0.31536608376E+02  0.10000000000E+01 0. -1.
    1000022    2    1    0    0    0  0.39517983591E+02  0.28556090998E+02  0.37803816373E+02  0.62499999456E+02  0.10000001974E+02 0.  0.
    3000022    2    3    3    0    0  0.19768335434E+02  0.10109140065E+02  0.21579788919E+02  0.30963391080E+02  0.24999738710E+00 0.  0.
    1000022    2    1    0    0    0 -0.39517983591E+02 -0.28556090998E+02 -0.37803816373E+02  0.62500000544E+02  0.10000008769E+02 0.  0.
    3000022    2    5    5    0    0 -0.22660299880E+02 -0.13087134178E+02 -0.25337748828E+02  0.36425626817E+02  0.25000337093E+00 0.  0.
        -13    1    4    4    0    0  0.46923641344E+01  0.23855148325E+01  0.51323011997E+01  0.73525847694E+01  0.10500000000E+00 0. -1.
         13    1    4    4    0    0  0.15075971300E+02  0.77236252324E+01  0.16447487720E+02  0.23610806311E+02  0.10500000000E+00 0.  1.
    3000001    1    5    5    0    0 -0.16857683711E+02 -0.15468956820E+02 -0.12466067545E+02  0.26074373727E+02  0.10000000000E+01 0.  1.
        -13    1    6    6    0    0 -0.11482404707E+02 -0.66532767818E+01 -0.12940301282E+02  0.18535752806E+02  0.10500000000E+00 0.  1.
         13    1    6    6    0    0 -0.11177895172E+02 -0.64338573965E+01 -0.12397447546E+02  0.17889874011E+02  0.10500000000E+00 0. -1.
</event>
<event>
11    0  0.3483054E-009  0.9118800E+02  0.7816531E-02  0.1126479E+00
         25   -1    0    0    0    0  0.00000000000E+00  0.00000000000E+00  0.99999998245E-14  0.12500000000E+03  0.12500000000E+03 0.  0.
    3000001    1    3    3    0    0 -0.19228820138E+02 -0.11133708436E+02 -0.18463707977E+02  0.28907014714E+02  0.10000000000E+01 0. -1.
    1000022    2    1    0    0    0 -0.44466759426E+02 -0.29336575757E+02 -0.31117884488E+02  0.62499999730E+02  0.99999930081E+01 0.  0.
    3000022    2    3    3    0    0 -0.25237939289E+02 -0.18202867321E+02 -0.12654176511E+02  0.33592985016E+02  0.25000167023E+00 0.  0.
    1000022    2    1    0    0    0  0.44466759426E+02  0.29336575757E+02  0.31117884488E+02  0.62500000270E+02  0.99999963860E+01 0.  0.
    3000022    2    5    5    0    0  0.24745507306E+02  0.11254701876E+02  0.12725992063E+02  0.30017025418E+02  0.24998966251E+00 0.  0.
        -13    1    4    4    0    0 -0.73196587785E+01 -0.52812380723E+01 -0.36243242091E+01  0.97270566557E+01  0.10500000000E+00 0.  1.
         13    1    4    4    0    0 -0.17918280510E+02 -0.12921629249E+02 -0.90298523023E+01  0.23865928360E+02  0.10500000000E+00 0. -1.
    3000001    1    5    5    0    0  0.19721252121E+02  0.18081873881E+02  0.18391892425E+02  0.32482974852E+02  0.10000000000E+01 0.  1.
        -13    1    6    6    0    0  0.15041987175E+02  0.67796503506E+01  0.77534353044E+01  0.18230518947E+02  0.10500000000E+00 0. -1.
         13    1    6    6    0    0  0.97035201307E+01  0.44750515254E+01  0.49725567586E+01  0.11786506471E+02  0.10500000000E+00 0.  1.
</event>
<event>
11    0  0.3483054E-009  0.9118800E+02  0.7816531E-02  0.1126479E+00
         25   -1    0    0    0    0  0.00000000000E+00  0.00000000000E+00  0.99999998245E-14  0.12500000000E+03  0.12500000000E+03 0.  0.
    3000001    1    3    3    0    0 -0.65628853056E+01 -0.14481601638E+01  0.36887756026E+01  0.77314744286E+01  0.10000000000E+01 0. -1.
    1000022    2    1    0    0    0 -0.59285045657E+02 -0.16167365428E+02  0.54908698316E+01  0.62499998595E+02  0.99999914679E+01 0.  0.
    3000022    2    3    3    0    0 -0.52722160352E+02 -0.14719205264E+02  0.18020942290E+01  0.54768524166E+02  0.24999991208E+00 0.  0.
    1000022    2    1    0    0    0  0.59285045657E+02  0.16167365428E+02 -0.54908698316E+01  0.62500001405E+02  0.10000009037E+02 0.  0.
    3000022    2    5    5    0    0  0.13037142714E+02  0.79215052565E+01 -0.79049785895E+00  0.15277589001E+02  0.25000629353E+00 0.  0.
        -13    1    4    4    0    0 -0.30709300575E+02 -0.85186151315E+01  0.10863148965E+01  0.31887600264E+02  0.10500000000E+00 0. -1.
         13    1    4    4    0    0 -0.22012859777E+02 -0.62005901324E+01  0.71577933247E+00  0.22880923901E+02  0.10500000000E+00 0.  1.
    3000001    1    5    5    0    0  0.46247902944E+02  0.82458601711E+01 -0.47003719727E+01  0.47222412405E+02  0.10000000000E+01 0.  1.
        -13    1    6    6    0    0  0.69632117829E+01  0.42548132039E+01 -0.48702196672E+00  0.81754491699E+01  0.10500000000E+00 0.  1.
         13    1    6    6    0    0  0.60739309307E+01  0.36666920527E+01 -0.30347589223E+00  0.71021398309E+01  0.10500000000E+00 0. -1.
</event>
<event>
11    0  0.3483054E-009  0.9118800E+02  0.7816531E-02  0.1126479E+00
         25   -1    0    0    0    0  0.00000000000E+00  0.00000000000E+00  0.99999998245E-14  0.12500000000E+03  0.12500000000E+03 0.  0.
    3000001    1    3    3    0    0 -0.11407746854E+02 -0.23913873684E+01  0.66745485672E+01  0.13468668101E+02  0.10000000000E+01 0.  1.
    1000022    2    1    0    0    0 -0.59698772917E+02 -0.57691247499E+01  0.14457654147E+02  0.62500000217E+02  0.99999987710E+01 0.  0.
    3000022    2    3    3    0    0 -0.48291026063E+02 -0.33777373815E+01  0.77831055800E+01  0.49031332116E+02  0.24997704052E+00 0.  0.
    1000022    2    1    0    0    0  0.59698772917E+02  0.57691247499E+01 -0.14457654147E+02  0.62499999783E+02  0.99999960637E+01 0.  0.
    3000022    2    5    5    0    0  0.29871790261E+02  0.37573295853E+01 -0.12257584291E+02  0.32507725419E+02  0.24992052540E+00 0.  0.
        -13    1    4    4    0    0 -0.29821278108E+02 -0.20624181363E+01  0.47488505296E+01  0.30267553633E+02  0.10500000000E+00 0.  1.
         13    1    4    4    0    0 -0.18469747955E+02 -0.13153192452E+01  0.30342550504E+01  0.18763778483E+02  0.10500000000E+00 0. -1.
    3000001    1    5    5    0    0  0.29826982657E+02  0.20117951646E+01 -0.22000698562E+01  0.29992274365E+02  0.10000000000E+01 0.  1.
        -13    1    6    6    0    0  0.75897284798E+01  0.94881015596E+00 -0.30841529092E+01  0.82478629521E+01  0.10500000000E+00 0.  1.
         13    1    6    6    0    0  0.22282061781E+02  0.28085194294E+01 -0.91734313818E+01  0.24259862467E+02  0.10500000000E+00 0. -1.
</event>
<event>
11    0  0.3483054E-009  0.9118800E+02  0.7816531E-02  0.1126479E+00
         25   -1    0    0    0    0  0.00000000000E+00  0.00000000000E+00  0.99999998245E-14  0.12500000000E+03  0.12500000000E+03 0.  0.
    3000001    1    3    3    0    0 -0.14065538743E+02  0.27657930938E+02 -0.98328991311E+01  0.32565110613E+02  0.10000000000E+01 0.  1.
    1000022    2    1    0    0    0 -0.25150374367E+02  0.55463682310E+02 -0.98736283094E+01  0.62499999138E+02  0.99999985023E+01 0.  0.
    3000022    2    3    3    0    0 -0.11084835624E+02  0.27805751372E+02 -0.40729178307E-01  0.29934888525E+02  0.25000392892E+00 0.  0.
    1000022    2    1    0    0    0  0.25150374367E+02 -0.55463682310E+02  0.98736283094E+01  0.62500000862E+02  0.10000009283E+02 0.  0.
    3000022    2    5    5    0    0  0.10551423382E+02 -0.12698792738E+02  0.29469396182E+01  0.16773157912E+02  0.25000172417E+00 0.  0.
        -13    1    4    4    0    0 -0.76482833104E+01  0.19310825795E+02 -0.37844586078E-01  0.20770572638E+02  0.10500000000E+00 0. -1.
         13    1    4    4    0    0 -0.34365523136E+01  0.84949255767E+01 -0.28845922292E-02  0.91643158871E+01  0.10500000000E+00 0.  1.
    3000001    1    5    5    0    0  0.14598950985E+02 -0.42764889572E+02  0.69266886912E+01  0.45726842950E+02  0.10000000000E+01 0.  1.
        -13    1    6    6    0    0  0.70662390075E+01 -0.84935858040E+01  0.19185557755E+01  0.11214482368E+02  0.10500000000E+00 0.  1.
         13    1    6    6    0    0  0.34851843741E+01 -0.42052069340E+01  0.10283838427E+01  0.55586755444E+01  0.10500000000E+00 0. -1.
</event>
<event>
11    0  0.3483054E-009  0.9118800E+02  0.7816531E-02  0.1126479E+00
         25   -1    0    0    0    0  0.00000000000E+00  0.00000000000E+00  0.99999998245E-14  0.12500000000E+03  0.12500000000E+03 0.  0.
    3000001    1    3    3    0    0  0.29120961977E+02 -0.13162116549E+02  0.14236952469E+02  0.34999465055E+02  0.10000000000E+01 0.  1.
    1000022    2    1    0    0    0  0.53500698859E+02 -0.14969661480E+02  0.26829731046E+02  0.62499998903E+02  0.99999925819E+01 0.  0.
    3000022    2    3    3    0    0  0.24379736882E+02 -0.18075449314E+01  0.12592778578E+02  0.27500533848E+02  0.25000107271E+00 0.  0.
    1000022    2    1    0    0    0 -0.53500698859E+02  0.14969661480E+02 -0.26829731046E+02  0.62500001097E+02  0.10000006295E+02 0.  0.
    3000022    2    5    5    0    0 -0.25890567123E+02  0.94484686155E+01 -0.83238450217E+01  0.28791385541E+02  0.24992063561E+00 0.  0.
        -13    1    4    4    0    0  0.71478432129E+01 -0.49760711802E+00  0.36576404157E+01  0.80454107322E+01  0.10500000000E+00 0.  1.
         13    1    4    4    0    0  0.17231893669E+02 -0.13099378134E+01  0.89351381620E+01  0.19455123116E+02  0.10500000000E+00 0. -1.
    3000001    1    5    5    0    0 -0.27610131736E+02  0.55211928646E+01 -0.18505886024E+02  0.33708615556E+02  0.10000000000E+01 0.  1.
        -13    1    6    6    0    0 -0.16695749662E+02  0.60321021612E+01 -0.53557173657E+01  0.18542627828E+02  0.10500000000E+00 0.  1.
         13    1    6    6    0    0 -0.91948174605E+01  0.34163664543E+01 -0.29681276560E+01  0.10248757713E+02  0.10500000000E+00 0. -1.
</event>
<event>
11    0  0.3483054E-009  0.9118800E+02  0.7816531E-02  0.1126479E+00
         25   -1    0    0    0    0  0.00000000000E+00  0.00000000000E+00  0.99999998245E-14  0.12500000000E+03  0.12500000000E+03 0.  0.
    3000001    1    3    3    0    0 -0.21169773864E+02 -0.67205284717E+01 -0.25072993060E+02  0.33510890907E+02  0.10000000000E+01 0. -1.
    1000022    2    1    0    0    0 -0.45157813012E+02 -0.13953901155E+02 -0.39652367200E+02  0.62499998482E+02  0.10000007610E+02 0.  0.
    3000022    2    3    3    0    0 -0.23988039148E+02 -0.72333726837E+01 -0.14579374140E+02  0.28989107575E+02  0.25001028023E+00 0.  0.
    1000022    2    1    0    0    0  0.45157813012E+02  0.13953901155E+02  0.39652367200E+02  0.62500001518E+02  0.10000026585E+02 0.  0.
    3000022    2    5    5    0    0  0.13370057278E+02  0.31400807275E+01  0.61256038909E+01  0.15040081745E+02  0.24999457201E+00 0.  0.
        -13    1    4    4    0    0 -0.11239439974E+02 -0.33215165016E+01 -0.67983181430E+01  0.13549377749E+02  0.10500000000E+00 0.  1.
         13    1    4    4    0    0 -0.12748599174E+02 -0.39118561821E+01 -0.77810559974E+01  0.15439729827E+02  0.10500000000E+00 0. -1.
    3000001    1    5    5    0    0  0.31787755734E+02  0.10813820428E+02  0.33526763309E+02  0.47459919773E+02  0.10000000000E+01 0. -1.
        -13    1    6    6    0    0  0.53840593151E+01  0.12677323842E+01  0.25365158082E+01  0.60860642086E+01  0.10500000000E+00 0. -1.
         13    1    6    6    0    0  0.79859979626E+01  0.18723483433E+01  0.35890880827E+01  0.89540175365E+01  0.10500000000E+00 0.  1.
</event>
<event>
11    0  0.3483054E-009  0.9118800E+02  0.7816531E-02  0.1126479E+00
         25   -1    0    0    0    0  0.00000000000E+00  0.00000000000E+00  0.99999998245E-14  0.12500000000E+03  0.12500000000E+03 0.  0.
    3000001    1    3    3    0    0 -0.16986718105E+02  0.25358866588E+02  0.18573014427E+02  0.35743217139E+02  0.10000000000E+01 0.  1.
    1000022    2    1    0    0    0 -0.21655238670E+02  0.47143108078E+02  0.33389037428E+02  0.62499997449E+02  0.99999929827E+01 0.  0.
    3000022    2    3    3    0    0 -0.46685205654E+01  0.21784241490E+02  0.14816023002E+02  0.26756780310E+02  0.24998677849E+00 0.  0.
    1000022    2    1    0    0    0  0.21655238670E+02 -0.47143108078E+02 -0.33389037428E+02  0.62500002551E+02  0.10000024870E+02 0.  0.
    3000022    2    5    5    0    0  0.17185505380E+02 -0.25963129151E+02 -0.18688128782E+02  0.36314381724E+02  0.24998443286E+00 0.  0.
        -13    1    4    4    0    0 -0.19522438638E+01  0.90849603317E+01  0.62570961144E+01  0.11203126221E+02  0.10500000000E+00 0. -1.
         13    1    4    4    0    0 -0.27162767017E+01  0.12699281158E+02  0.85589268871E+01  0.15553654089E+02  0.10500000000E+00 0.  1.
    3000001    1    5    5    0    0  0.44697332904E+01 -0.21179978927E+02 -0.14700908647E+02  0.26185620827E+02  0.10000000000E+01 0.  1.
        -13    1    6    6    0    0  0.48598638149E+01 -0.73148523116E+01 -0.53151300711E+01  0.10265815765E+02  0.10500000000E+00 0. -1.
         13    1    6    6    0    0  0.12325641565E+02 -0.18648276839E+02 -0.13372998710E+02  0.26048565960E+02  0.10500000000E+00 0.  1.
</event>
<event>
11    0  0.3483054E-009  0.9118800E+02  0.7816531E-02  0.1126479E+00
         25   -1    0    0    0    0  0.00000000000E+00  0.00000000000E+00  0.99999998245E-14  0.12500000000E+03  0.12500000000E+03 0.  0.
    3000001    1    3    3    0    0 -0.85293300636E+01  0.86998452125E+01 -0.27385696512E+01  0.12527431572E+02  0.10000000000E+01 0. -1.
    1000022    2    1    0    0    0 -0.52265506332E+02  0.32775615576E+02 -0.57078872639E+00  0.62500000183E+02  0.10000004731E+02 0.  0.
    3000022    2    3    3    0    0 -0.43736176268E+02  0.24075770364E+02  0.21677809248E+01  0.49972568611E+02  0.25001259497E+00 0.  0.
    1000022    2    1    0    0    0  0.52265506332E+02 -0.32775615576E+02  0.57078872639E+00  0.62499999817E+02  0.10000002443E+02 0.  0.
    3000022    2    5    5    0    0  0.36778764307E+01 -0.31869918028E+01  0.26853579841E+01  0.55639318167E+01  0.24999593483E+00 0.  0.
        -13    1    4    4    0    0 -0.12996643788E+02  0.71890807303E+01  0.61152244781E+00  0.14865416785E+02  0.10500000000E+00 0. -1.
         13    1    4    4    0    0 -0.30739532480E+02  0.16886689633E+02  0.15562584770E+01  0.35107151826E+02  0.10500000000E+00 0.  1.
    3000001    1    5    5    0    0  0.48587629901E+02 -0.29588623773E+02 -0.21145692577E+01  0.56936068000E+02  0.10000000000E+01 0.  1.
        -13    1    6    6    0    0  0.94261220337E+00 -0.79958944821E+00  0.65448142892E+00  0.14025804763E+01  0.10500000000E+00 0.  1.
         13    1    6    6    0    0  0.27352642273E+01 -0.23874023545E+01  0.20308765552E+01  0.41613513404E+01  0.10500000000E+00 0. -1.
</event>
<event>
11    0  0.3483054E-009  0.9118800E+02  0.7816531E-02  0.1126479E+00
         25   -1    0    0    0    0  0.00000000000E+00  0.00000000000E+00  0.99999998245E-14  0.12500000000E+03  0.12500000000E+03 0.  0.
    3000001    1    3    3    0    0  0.30859250862E+01 -0.32192152134E+01  0.59433567650E+01  0.74973175112E+01  0.10000000000E+01 0.  1.
    1000022    2    1    0    0    0  0.26095140058E+02 -0.45871881793E+02  0.31954086752E+02  0.62499994843E+02  0.99999910680E+01 0.  0.
    3000022    2    3    3    0    0  0.23009214972E+02 -0.42652666580E+02  0.26010729987E+02  0.55002677332E+02  0.24999850902E+00 0.  0.
    1000022    2    1    0    0    0 -0.26095140058E+02  0.45871881793E+02 -0.31954086752E+02  0.62500005157E+02  0.10000055525E+02 0.  0.
    3000022    2    5    5    0    0 -0.11765335016E+01  0.66970806725E+01 -0.15055952364E+01  0.69688190432E+01  0.25000245401E+00 0.  0.
        -13    1    4    4    0    0  0.98482494010E+01 -0.18164280142E+02  0.11144938852E+02  0.23476579316E+02  0.10500000000E+00 0. -1.
         13    1    4    4    0    0  0.13160965571E+02 -0.24488386438E+02  0.14865791135E+02  0.31526098016E+02  0.10500000000E+00 0.  1.
    3000001    1    5    5    0    0 -0.24918606557E+02  0.39174801121E+02 -0.30448491515E+02  0.55531186113E+02  0.10000000000E+01 0. -1.
        -13    1    6    6    0    0 -0.84382522123E+00  0.47966642218E+01 -0.11199375345E+01  0.49985311584E+01  0.10500000000E+00 0.  1.
         13    1    6    6    0    0 -0.33270828036E+00  0.19004164507E+01 -0.38565770193E+00  0.19702878848E+01  0.10500000000E+00 0. -1.
</event>
<event>
11    0  0.3483054E-009  0.9118800E+02  0.7816531E-02  0.1126479E+00
         25   -1    0    0    0    0  0.00000000000E+00  0.00000000000E+00  0.99999998245E-14  0.12500000000E+03  0.12500000000E+03 0.  0.
    3000001    1    3    3    0    0 -0.13218846692E+02 -0.12180992657E+02  0.28903429376E+02  0.34051765294E+02  0.10000000000E+01 0.  1.
    1000022    2    1    0    0    0 -0.31218647976E+02 -0.23992118973E+02  0.47497621548E+02  0.62499999284E+02  0.10000005174E+02 0.  0.
    3000022    2    3    3    0    0 -0.17999801284E+02 -0.11811126316E+02  0.18594192172E+02  0.28448233990E+02  0.24996692641E+00 0.  0.
    1000022    2    1    0    0    0  0.31218647976E+02  0.23992118973E+02 -0.47497621548E+02  0.62500000716E+02  0.10000014125E+02 0.  0.
    3000022    2    5    5    0    0  0.10469481221E+02  0.88622667088E+01 -0.97342907877E+01  0.16821674338E+02  0.25000428550E+00 0.  0.
        -13    1    4    4    0    0 -0.12095922401E+02 -0.79922436197E+01  0.12488875540E+02  0.19135577704E+02  0.10500000000E+00 0.  1.
         13    1    4    4    0    0 -0.59038788833E+01 -0.38188826964E+01  0.61053166325E+01  0.93126562860E+01  0.10500000000E+00 0. -1.
    3000001    1    5    5    0    0  0.20749166755E+02  0.15129852264E+02 -0.37763330760E+02  0.45678326378E+02  0.10000000000E+01 0. -1.
        -13    1    6    6    0    0  0.35421838224E+01  0.29782381701E+01 -0.32208755501E+01  0.56393291391E+01  0.10500000000E+00 0.  1.
         13    1    6    6    0    0  0.69272973987E+01  0.58840285386E+01 -0.65134152376E+01  0.11182345199E+02  0.10500000000E+00 0. -1.
</event>
<event>
11    0  0.3483054E-009  0.9118800E+02  0.7816531E-02  0.1126479E+00
         25   -1    0    0    0    0  0.00000000000E+00  0.00000000000E+00  0.99999998245E-14  0.12500000000E+03  0.12500000000E+03 0.  0.
    3000001    1    3    3    0    0  0.15199246613E+02  0.20863068537E+02 -0.48494167270E+01  0.26283104250E+02  0.10000000000E+01 0. -1.
    1000022    2    1    0    0    0  0.25911183993E+02  0.54978118609E+02 -0.10595616225E+02  0.62500000209E+02  0.99999980608E+01 0.  0.
    3000022    2    3    3    0    0  0.10711937380E+02  0.34115050072E+02 -0.57461994978E+01  0.36216895960E+02  0.25000086111E+00 0.  0.
    1000022    2    1    0    0    0 -0.25911183993E+02 -0.54978118609E+02  0.10595616225E+02  0.62499999791E+02  0.99999954444E+01 0.  0.
    3000022    2    5    5    0    0 -0.96390386666E+01 -0.23160250663E+02  0.92014223690E+01  0.26721469767E+02  0.24999135676E+00 0.  0.
        -13    1    4    4    0    0  0.39368521463E+01  0.12583575875E+02 -0.20603691917E+01  0.13345461132E+02  0.10500000000E+00 0. -1.
         13    1    4    4    0    0  0.67750852335E+01  0.21531474198E+02 -0.36858303061E+01  0.22871434828E+02  0.10500000000E+00 0.  1.
    3000001    1    5    5    0    0 -0.16272145326E+02 -0.31817867946E+02  0.13941938559E+01  0.35778530024E+02  0.10000000000E+01 0. -1.
        -13    1    6    6    0    0 -0.73334525472E+01 -0.17574616147E+02  0.69744952592E+01  0.20280563801E+02  0.10500000000E+00 0. -1.
         13    1    6    6    0    0 -0.23055861194E+01 -0.55856345163E+01  0.22269271098E+01  0.64409059655E+01  0.10500000000E+00 0.  1.
</event>
<event>
11    0  0.3483054E-009  0.9118800E+02  0.7816531E-02  0.1126479E+00
         25   -1    0    0    0    0  0.00000000000E+00  0.00000000000E+00  0.99999998245E-14  0.12500000000E+03  0.12500000000E+03 0.  0.
    3000001    1    3    3    0    0  0.84257557273E+01  0.34430865328E+02 -0.45294224801E+02  0.57524296146E+02  0.10000000000E+01 0.  1.
    1000022    2    1    0    0    0  0.11540797050E+02  0.37578330466E+02 -0.47549234572E+02  0.62499995745E+02  0.99999421280E+01 0.  0.
    3000022    2    3    3    0    0  0.31150413223E+01  0.31474651379E+01 -0.22550097715E+01  0.49756995987E+01  0.24999638744E+00 0.  0.
    1000022    2    1    0    0    0 -0.11540797050E+02 -0.37578330466E+02  0.47549234572E+02  0.62500004255E+02  0.99999953166E+01 0.  0.
    3000022    2    5    5    0    0  0.13076799890E+01 -0.54264722446E+01  0.40844578574E+01  0.69211218970E+01  0.25000869982E+00 0.  0.
        -13    1    4    4    0    0  0.12380327679E+01  0.11775464254E+01 -0.90805015333E+00  0.19377618015E+01  0.10500000000E+00 0.  1.
         13    1    4    4    0    0  0.18770085544E+01  0.19699187125E+01 -0.13469596182E+01  0.30379377973E+01  0.10500000000E+00 0. -1.
    3000001    1    5    5    0    0 -0.12848477039E+02 -0.32151858221E+02  0.43464776715E+02  0.55578882358E+02  0.10000000000E+01 0.  1.
        -13    1    6    6    0    0  0.49356115781E+00 -0.18397949410E+01  0.14261587054E+01  0.23818903615E+01  0.10500000000E+00 0.  1.
         13    1    6    6    0    0  0.81411883115E+00 -0.35866773036E+01  0.26582991520E+01  0.45392315355E+01  0.10500000000E+00 0. -1.
</event>
<event>
11    0  0.3483054E-009  0.9118800E+02  0.7816531E-02  0.1126479E+00
         25   -1    0    0    0    0  0.00000000000E+00  0.00000000000E+00  0.99999998245E-14  0.12500000000E+03  0.12500000000E+03 0.  0.
    3000001    1    3    3    0    0 -0.21377761645E+02  0.12687753840E+01 -0.22738543826E+01  0.21558963280E+02  0.10000000000E+01 0. -1.
    1000022    2    1    0    0    0 -0.58694740389E+02  0.16563188913E+02 -0.93187076449E+01  0.62499999592E+02  0.99999930279E+01 0.  0.
    3000022    2    3    3    0    0 -0.37316978744E+02  0.15294413529E+02 -0.70448532622E+01  0.40941036313E+02  0.25001821557E+00 0.  0.
    1000022    2    1    0    0    0  0.58694740389E+02 -0.16563188913E+02  0.93187076449E+01  0.62500000408E+02  0.99999981241E+01 0.  0.
    3000022    2    5    5    0    0  0.40082472638E+02 -0.87913792908E+01  0.10205584951E+02  0.42286042680E+02  0.24995752431E+00 0.  0.
        -13    1    4    4    0    0 -0.10886620984E+02  0.44821245624E+01 -0.20167073297E+01  0.11945128316E+02  0.10500000000E+00 0. -1.
         13    1    4    4    0    0 -0.26430357760E+02  0.10812288967E+02 -0.50281459326E+01  0.28995907996E+02  0.10500000000E+00 0.  1.
    3000001    1    5    5    0    0  0.18612267751E+02 -0.77718096224E+01 -0.88687730642E+00  0.20213957727E+02  0.10000000000E+01 0. -1.
        -13    1    6    6    0    0  0.28973546483E+02 -0.63154038803E+01  0.73788181034E+01  0.30558283714E+02  0.10500000000E+00 0. -1.
         13    1    6    6    0    0  0.11108926155E+02 -0.24759754105E+01  0.28267668479E+01  0.11727758966E+02  0.10500000000E+00 0.  1.
</event>
<event>
11    0  0.3483054E-009  0.9118800E+02  0.7816531E-02  0.1126479E+00
         25   -1    0    0    0    0  0.00000000000E+00  0.00000000000E+00  0.99999998245E-14  0.12500000000E+03  0.12500000000E+03 0.  0.
    3000001    1    3    3    0    0  0.20715197707E+02  0.80617166706E+01 -0.17843254085E+02  0.28521788304E+02  0.10000000000E+01 0. -1.
    1000022    2    1    0    0    0  0.40162723955E+02  0.27060037599E+02 -0.38222504412E+02  0.62499999350E+02  0.10000002242E+02 0.  0.
    3000022    2    3    3    0    0  0.19447526248E+02  0.18998320928E+02 -0.20379250327E+02  0.33978211046E+02  0.25001340846E+00 0.  0.
    1000022    2    1    0    0    0 -0.40162723955E+02 -0.27060037599E+02  0.38222504412E+02  0.62500000650E+02  0.10000010372E+02 0.  0.
    3000022    2    5    5    0    0 -0.13457651956E+02 -0.64323110992E+01  0.68547406246E+01  0.16417459748E+02  0.24998658498E+00 0.  0.
        -13    1    4    4    0    0  0.12836571489E+02  0.12518087699E+02 -0.13374069715E+02  0.22368657827E+02  0.10500000000E+00 0.  1.
         13    1    4    4    0    0  0.66109547590E+01  0.64802332291E+01 -0.70051806124E+01  0.11609553219E+02  0.10500000000E+00 0. -1.
    3000001    1    5    5    0    0 -0.26705071999E+02 -0.20627726500E+02  0.31367763788E+02  0.46082540903E+02  0.10000000000E+01 0. -1.
        -13    1    6    6    0    0 -0.44648866867E+01 -0.20825062185E+01  0.22920498813E+01  0.54347550942E+01  0.10500000000E+00 0.  1.
         13    1    6    6    0    0 -0.89927652691E+01 -0.43498048806E+01  0.45626907433E+01  0.10982704653E+02  0.10500000000E+00 0. -1.
</event>
<event>
11    0  0.3483054E-009  0.9118800E+02  0.7816531E-02  0.1126479E+00
         25   -1    0    0    0    0  0.00000000000E+00  0.00000000000E+00  0.99999998245E-14  0.12500000000E+03  0.12500000000E+03 0.  0.
    3000001    1    3    3    0    0 -0.10716197711E+02  0.30046617647E+01 -0.11546808888E+02  0.16068406306E+02  0.10000000000E+01 0. -1.
    1000022    2    1    0    0    0 -0.37540262127E+02  0.27254257403E+02 -0.40671663503E+02  0.62500000941E+02  0.10000003919E+02 0.  0.
    3000022    2    3    3    0    0 -0.26824064416E+02  0.24249595639E+02 -0.29124854614E+02  0.46431594635E+02  0.25000728476E+00 0.  0.
    1000022    2    1    0    0    0  0.37540262127E+02 -0.27254257403E+02  0.40671663503E+02  0.62499999059E+02  0.99999921549E+01 0.  0.
    3000022    2    5    5    0    0  0.21631237926E+02 -0.21312811358E+02  0.24349766910E+02  0.38924542742E+02  0.24999391457E+00 0.  0.
        -13    1    4    4    0    0 -0.14966786647E+02  0.13500984533E+02 -0.16315007403E+02  0.25932060802E+02  0.10500000000E+00 0. -1.
         13    1    4    4    0    0 -0.11857277769E+02  0.10748611106E+02 -0.12809847211E+02  0.20499533833E+02  0.10500000000E+00 0.  1.
    3000001    1    5    5    0    0  0.15909024201E+02 -0.59414460458E+01  0.16321896593E+02  0.23575456317E+02  0.10000000000E+01 0.  1.
        -13    1    6    6    0    0  0.59412296008E+01 -0.59007586639E+01  0.67382150318E+01  0.10748568686E+02  0.10500000000E+00 0.  1.
         13    1    6    6    0    0  0.15690008325E+02 -0.15412052694E+02  0.17611551878E+02  0.28175974057E+02  0.10500000000E+00 0. -1.
</event>
<event>
11    0  0.3483054E-009  0.9118800E+02  0.7816531E-02  0.1126479E+00
         25   -1    0    0    0    0  0.00000000000E+00  0.00000000000E+00  0.99999998245E-14  0.12500000000E+03  0.12500000000E+03 0.  0.
    3000001    1    3    3    0    0 -0.72749384111E+01 -0.32368835149E+02  0.12992694383E+02  0.35643741738E+02  0.10000000000E+01 0. -1.
    1000022    2    1    0    0    0 -0.54291038118E+01 -0.55205074430E+02  0.27003231653E+02  0.62499999658E+02  0.10000001321E+02 0.  0.
    3000022    2    3    3    0    0  0.18458345993E+01 -0.22836239282E+02  0.14010537270E+02  0.26856257920E+02  0.25000987045E+00 0.  0.
    1000022    2    1    0    0    0  0.54291038118E+01  0.55205074430E+02 -0.27003231653E+02  0.62500000342E+02  0.10000005601E+02 0.  0.
    3000022    2    5    5    0    0  0.71229170391E+01  0.46005852896E+02 -0.25144083093E+02  0.52910886022E+02  0.24999437327E+00 0.  0.
        -13    1    4    4    0    0  0.12280039941E+01 -0.15783009320E+02  0.96895722933E+01  0.18560986322E+02  0.10500000000E+00 0.  1.
         13    1    4    4    0    0  0.61783060523E+00 -0.70532299615E+01  0.43209649771E+01  0.82952715977E+01  0.10500000000E+00 0. -1.
    3000001    1    5    5    0    0 -0.16938132273E+01  0.91992215344E+01 -0.18591485605E+01  0.95891143208E+01  0.10000000000E+01 0.  1.
        -13    1    6    6    0    0  0.28684076037E+01  0.18119902380E+02 -0.99027952950E+01  0.20847901671E+02  0.10500000000E+00 0.  1.
         13    1    6    6    0    0  0.42545094355E+01  0.27885950516E+02 -0.15241287798E+02  0.32062984350E+02  0.10500000000E+00 0. -1.
</event>
<event>
11    0  0.3483054E-009  0.9118800E+02  0.7816531E-02  0.1126479E+00
         25   -1    0    0    0    0  0.00000000000E+00  0.00000000000E+00  0.99999998245E-14  0.12500000000E+03  0.12500000000E+03 0.  0.
    3000001    1    3    3    0    0  0.19869248694E+02 -0.43198279166E+02  0.10817562599E+02  0.48773948242E+02  0.10000000000E+01 0. -1.
    1000022    2    1    0    0    0  0.29763325838E+02 -0.52473066241E+02  0.12921751037E+02  0.62500000890E+02  0.10000010786E+02 0.  0.
    3000022    2    3    3    0    0  0.98940771441E+01 -0.92747870755E+01  0.21041884374E+01  0.13726052648E+02  0.24994896996E+00 0.  0.
    1000022    2    1    0    0    0 -0.29763325838E+02  0.52473066241E+02 -0.12921751037E+02  0.62499999110E+02  0.99999996596E+01 0.  0.
    3000022    2    5    5    0    0 -0.51335957793E-01  0.57595811274E+01 -0.83879625745E+00  0.58259324629E+01  0.24999951267E+00 0.  0.
        -13    1    4    4    0    0  0.71080648165E+01 -0.66916050011E+01  0.15487754659E+01  0.98849326437E+01  0.10500000000E+00 0.  1.
         13    1    4    4    0    0  0.27860123276E+01 -0.25831820744E+01  0.55541297157E+00  0.38411200044E+01  0.10500000000E+00 0. -1.
    3000001    1    5    5    0    0 -0.29711989880E+02  0.46713485114E+02 -0.12082954779E+02  0.56674066647E+02  0.10000000000E+01 0. -1.
        -13    1    6    6    0    0 -0.10501201044E-01  0.21319101658E+01 -0.37024969537E+00  0.21663935624E+01  0.10500000000E+00 0.  1.
         13    1    6    6    0    0 -0.40834756749E-01  0.36276709616E+01 -0.46854656208E+00  0.36595389005E+01  0.10500000000E+00 0. -1.
</event>
<event>
11    0  0.3483054E-009  0.9118800E+02  0.7816531E-02  0.1126479E+00
         25   -1    0    0    0    0  0.00000000000E+00  0.00000000000E+00  0.99999998245E-14  0.12500000000E+03  0.12500000000E+03 0.  0.
    3000001    1    3    3    0    0 -0.11916571182E+01 -0.27056540915E+02  0.33654250306E+02  0.43209779179E+02  0.10000000000E+01 0.  1.
    1000022    2    1    0    0    0 -0.70867944570E+01 -0.35468138285E+02  0.49980380076E+02  0.62500000487E+02  0.10000008960E+02 0.  0.
    3000022    2    3    3    0    0 -0.58951373388E+01 -0.84115973699E+01  0.16326129770E+02  0.19290221308E+02  0.25002059085E+00 0.  0.
    1000022    2    1    0    0    0  0.70867944570E+01  0.35468138285E+02 -0.49980380076E+02  0.62499999513E+02  0.10000002871E+02 0.  0.
    3000022    2    5    5    0    0  0.67513124100E+01  0.24982286514E+02 -0.41782918230E+02  0.49148444686E+02  0.25000099370E+00 0.  0.
        -13    1    4    4    0    0 -0.28112589892E+01 -0.40630192208E+01  0.77388784327E+01  0.91821874675E+01  0.10500000000E+00 0. -1.
         13    1    4    4    0    0 -0.30838783497E+01 -0.43485781491E+01  0.85872513373E+01  0.10108033841E+02  0.10500000000E+00 0.  1.
    3000001    1    5    5    0    0  0.33548204700E+00  0.10485851771E+02 -0.81974618460E+01  0.13351554827E+02  0.10000000000E+01 0. -1.
        -13    1    6    6    0    0  0.23582442060E+01  0.86633049359E+01 -0.14598829867E+02  0.17139166451E+02  0.10500000000E+00 0. -1.
         13    1    6    6    0    0  0.43930682040E+01  0.16318981578E+02 -0.27184088363E+02  0.32009278235E+02  0.10500000000E+00 0.  1.
</event>
<event>
11    0  0.3483054E-009  0.9118800E+02  0.7816531E-02  0.1126479E+00
         25   -1    0    0    0    0  0.00000000000E+00  0.00000000000E+00  0.99999998245E-14  0.12500000000E+03  0.12500000000E+03 0.  0.
    3000001    1    3    3    0    0 -0.41571439492E+02 -0.44920308177E+01 -0.16048565774E+02  0.44798653838E+02  0.10000000000E+01 0.  1.
    1000022    2    1    0    0    0 -0.56778179041E+02 -0.40567619250E+00 -0.24131384350E+02  0.62500000477E+02  0.10000008029E+02 0.  0.
    3000022    2    3    3    0    0 -0.15206739549E+02  0.40863546252E+01 -0.80828185765E+01  0.17701346639E+02  0.24998971754E+00 0.  0.
    1000022    2    1    0    0    0  0.56778179041E+02  0.40567619250E+00  0.24131384350E+02  0.62499999523E+02  0.10000002065E+02 0.  0.
    3000022    2    5    5    0    0  0.26598108604E+02 -0.41242150173E+01  0.13918975252E+02  0.30302952056E+02  0.25000091488E+00 0.  0.
        -13    1    4    4    0    0 -0.11458814979E+02  0.30544554898E+01 -0.60813879013E+01  0.13327732098E+02  0.10500000000E+00 0. -1.
         13    1    4    4    0    0 -0.37479245695E+01  0.10318991355E+01 -0.20014306752E+01  0.43736145409E+01  0.10500000000E+00 0.  1.
    3000001    1    5    5    0    0  0.30180070437E+02  0.45298912098E+01  0.10212409098E+02  0.32197047467E+02  0.10000000000E+01 0. -1.
        -13    1    6    6    0    0  0.12582316367E+02 -0.18853354237E+01  0.65582928730E+01  0.14314028267E+02  0.10500000000E+00 0. -1.
         13    1    6    6    0    0  0.14015792237E+02 -0.22388795935E+01  0.73606823791E+01  0.15988923790E+02  0.10500000000E+00 0.  1.
</event>
<event>
11    0  0.3483054E-009  0.9118800E+02  0.7816531E-02  0.1126479E+00
         25   -1    0    0    0    0  0.00000000000E+00  0.00000000000E+00  0.99999998245E-14  0.12500000000E+03  0.12500000000E+03 0.  0.
    3000001    1    3    3    0    0 -0.49025511807E+01 -0.40424550126E+01 -0.98799545680E+00  0.65078864181E+01  0.10000000000E+01 0.  1.
    1000022    2    1    0    0    0 -0.46245863193E+02 -0.36515595633E+02  0.18280626737E+02  0.62499998335E+02  0.99999945533E+01 0.  0.
    3000022    2    3    3    0    0 -0.41343312012E+02 -0.32473140621E+02  0.19268622193E+02  0.55992111917E+02  0.24997151467E+00 0.  0.
    1000022    2    1    0    0    0  0.46245863193E+02  0.36515595633E+02 -0.18280626737E+02  0.62500001665E+02  0.10000015367E+02 0.  0.
    3000022    2    5    5    0    0  0.27904467697E+02  0.16170025275E+02 -0.11716449311E+02  0.34314234917E+02  0.24999716476E+00 0.  0.
        -13    1    4    4    0    0 -0.14519124105E+02 -0.11402399808E+02  0.68268758270E+01  0.19683418014E+02  0.10500000000E+00 0. -1.
         13    1    4    4    0    0 -0.26824187908E+02 -0.21070740813E+02  0.12441746366E+02  0.36308693903E+02  0.10500000000E+00 0.  1.
    3000001    1    5    5    0    0  0.18341395495E+02  0.20345570358E+02 -0.65641774257E+01  0.28185766749E+02  0.10000000000E+01 0.  1.
        -13    1    6    6    0    0  0.79800930579E+01  0.46044002126E+01 -0.33069162477E+01  0.97892342193E+01  0.10500000000E+00 0. -1.
         13    1    6    6    0    0  0.19924374640E+02  0.11565625062E+02 -0.84095330632E+01  0.24525000697E+02  0.10500000000E+00 0.  1.
</event>
<event>
11    0  0.3483054E-009  0.9118800E+02  0.7816531E-02  0.1126479E+00
         25   -1    0    0    0    0  0.00000000000E+00  0.00000000000E+00  0.99999998245E-14  0.12500000000E+03  0.12500000000E+03 0.  0.
    3000001    1    3    3    0    0  0.25726201963E+02 -0.33807234935E+01 -0.20399278032E+02  0.33021164471E+02  0.10000000000E+01 0.  1.
    1000022    2    1    0    0    0  0.49322143672E+02 -0.14557914077E+02 -0.34082888547E+02  0.62500000139E+02  0.10000000348E+02 0.  0.
    3000022    2    3    3    0    0  0.23595941709E+02 -0.11177190584E+02 -0.13683610515E+02  0.29478835668E+02  0.25000227210E+00 0.  0.
    1000022    2    1    0    0    0 -0.49322143672E+02  0.14557914077E+02  0.34082888547E+02  0.62499999861E+02  0.99999986143E+01 0.  0.
    3000022    2    5    5    0    0 -0.29092190839E+02  0.12537741987E+02  0.17159410999E+02  0.36028577927E+02  0.24999936574E+00 0.  0.
        -13    1    4    4    0    0  0.71802732238E+01 -0.33604066950E+01 -0.41875351614E+01  0.89663332781E+01  0.10500000000E+00 0. -1.
         13    1    4    4    0    0  0.16415668485E+02 -0.78167838886E+01 -0.94960753536E+01  0.20512502390E+02  0.10500000000E+00 0.  1.
    3000001    1    5    5    0    0 -0.20229952833E+02  0.20201720901E+01  0.16923477547E+02  0.26471421934E+02  0.10000000000E+01 0. -1.
        -13    1    6    6    0    0 -0.18806792732E+02  0.80555769035E+01  0.11121471691E+02  0.23287033510E+02  0.10500000000E+00 0. -1.
         13    1    6    6    0    0 -0.10285398107E+02  0.44821650835E+01  0.60379393083E+01  0.12741544417E+02  0.10500000000E+00 0.  1.
</event>
<event>
11    0  0.3483054E-009  0.9118800E+02  0.7816531E-02  0.1126479E+00
         25   -1    0    0    0    0  0.00000000000E+00  0.00000000000E+00  0.99999998245E-14  0.12500000000E+03  0.12500000000E+03 0.  0.
    3000001    1    3    3    0    0  0.81572781353E+01 -0.52408823777E+01 -0.24486818232E+02  0.26355498512E+02  0.10000000000E+01 0. -1.
    1000022    2    1    0    0    0  0.28051438586E+02 -0.56230504984E+01 -0.54660295704E+02  0.62499998897E+02  0.10000001603E+02 0.  0.
    3000022    2    3    3    0    0  0.19894160450E+02 -0.38216812071E+00 -0.30173477472E+02  0.36144500386E+02  0.24998572234E+00 0.  0.
    1000022    2    1    0    0    0 -0.28051438586E+02  0.56230504984E+01  0.54660295704E+02  0.62500001103E+02  0.10000015386E+02 0.  0.
    3000022    2    5    5    0    0 -0.47209743605E+01  0.28878388781E+01  0.46276052464E+01  0.72183399661E+01  0.24997850195E+00 0.  0.
        -13    1    4    4    0    0  0.69627302576E+01 -0.86713303508E-01 -0.10502880330E+02  0.12601930489E+02  0.10500000000E+00 0.  1.
         13    1    4    4    0    0  0.12931430193E+02 -0.29545481720E+00 -0.19670597143E+02  0.23542569896E+02  0.10500000000E+00 0. -1.
    3000001    1    5    5    0    0 -0.23330464225E+02  0.27352116203E+01  0.50032690458E+02  0.55281661137E+02  0.10000000000E+01 0. -1.
        -13    1    6    6    0    0 -0.30516676379E+01  0.18234874500E+01  0.29132173072E+01  0.45973516215E+01  0.10500000000E+00 0.  1.
         13    1    6    6    0    0 -0.16693067225E+01  0.10643514281E+01  0.17143879392E+01  0.26209883445E+01  0.10500000000E+00 0. -1.
</event>
<event>
11    0  0.3483054E-009  0.9118800E+02  0.7816531E-02  0.1126479E+00
         25   -1    0    0    0    0  0.00000000000E+00  0.00000000000E+00  0.99999998245E-14  0.12500000000E+03  0.12500000000E+03 0.  0.
    3000001    1    3    3    0    0  0.15352412341E+01 -0.12039883538E+01  0.10228461003E+01  0.24192494182E+01  0.10000000000E+01 0.  1.
    1000022    2    1    0    0    0  0.38503621153E+02  0.60577319287E+01  0.47822850643E+02  0.62500000232E+02  0.10000001370E+02 0.  0.
    3000022    2    3    3    0    0  0.36968379919E+02  0.72617202824E+01  0.46800004542E+02  0.60080750814E+02  0.24999578851E+00 0.  0.
    1000022    2    1    0    0    0 -0.38503621153E+02 -0.60577319287E+01 -0.47822850643E+02  0.62499999768E+02  0.99999984699E+01 0.  0.
    3000022    2    5    5    0    0 -0.31952503415E+01  0.22959566127E+01 -0.47382292521E+01  0.61639565809E+01  0.25000554753E+00 0.  0.
        -13    1    4    4    0    0  0.26253244440E+02  0.51942609421E+01  0.33208297402E+02  0.42649914791E+02  0.10500000000E+00 0. -1.
         13    1    4    4    0    0  0.10715135479E+02  0.20674593403E+01  0.13591707140E+02  0.17430836022E+02  0.10500000000E+00 0.  1.
    3000001    1    5    5    0    0 -0.35308370811E+02 -0.83536885414E+01 -0.43084621391E+02  0.56336043187E+02  0.10000000000E+01 0.  1.
        -13    1    6    6    0    0 -0.89776703641E+00  0.63958517771E+00 -0.12696286210E+01  0.16846473478E+01  0.10500000000E+00 0. -1.
         13    1    6    6    0    0 -0.22974833051E+01  0.16563714350E+01 -0.34686006311E+01  0.44793092331E+01  0.10500000000E+00 0.  1.
</event>
<event>
11    0  0.3483054E-009  0.9118800E+02  0.7816531E-02  0.1126479E+00
         25   -1    0    0    0    0  0.00000000000E+00  0.00000000000E+00  0.99999998245E-14  0.12500000000E+03  0.12500000000E+03 0.  0.
    3000001    1    3    3    0    0  0.47276315280E+01  0.13333132488E+02  0.43504933890E+02  0.45758083379E+02  0.10000000000E+01 0. -1.
    1000022    2    1    0    0    0  0.86359250472E+00  0.20085718990E+02  0.58327249286E+02  0.62499999587E+02  0.10000001986E+02 0.  0.
    3000022    2    3    3    0    0 -0.38640390233E+01  0.67525865025E+01  0.14822315396E+02  0.16741916208E+02  0.25000509224E+00 0.  0.
    1000022    2    1    0    0    0 -0.86359250472E+00 -0.20085718990E+02 -0.58327249286E+02  0.62500000413E+02  0.10000007149E+02 0.  0.
    3000022    2    5    5    0    0 -0.36849741937E+01 -0.16150578753E+02 -0.35962539683E+02  0.39595290003E+02  0.25000226376E+00 0.  0.
        -13    1    4    4    0    0 -0.24675000061E+01  0.43666796971E+01  0.94445473988E+01  0.10694248381E+02  0.10500000000E+00 0.  1.
         13    1    4    4    0    0 -0.13965390172E+01  0.23859068054E+01  0.53777679976E+01  0.60476678271E+01  0.10500000000E+00 0. -1.
    3000001    1    5    5    0    0  0.28213816890E+01 -0.39351402375E+01 -0.22364709603E+02  0.22904710410E+02  0.10000000000E+01 0. -1.
        -13    1    6    6    0    0 -0.20579562372E+01 -0.93070521190E+01 -0.20721791429E+02  0.22809210159E+02  0.10500000000E+00 0. -1.
         13    1    6    6    0    0 -0.16270179565E+01 -0.68435266338E+01 -0.15240748254E+02  0.16786079845E+02  0.10500000000E+00 0.  1.
</event>
<event>
11    0  0.3483054E-009  0.9118800E+02  0.7816531E-02  0.1126479E+00
         25   -1    0    0    0    0  0.00000000000E+00  0.00000000000E+00  0.99999998245E-14  0.12500000000E+03  0.12500000000E+03 0.  0.
    3000001    1    3    3    0    0 -0.48044337793E+01 -0.70645937412E+01  0.16861620165E+01  0.87655125927E+01  0.10000000000E+01 0.  1.
    1000022    2    1    0    0    0 -0.25882693717E+02 -0.55139754982E+02 -0.97950695213E+01  0.62500001913E+02  0.10000021939E+02 0.  0.
    3000022    2    3    3    0    0 -0.21078259938E+02 -0.48075161240E+02 -0.11481231538E+02  0.53734489321E+02  0.24998928087E+00 0.  0.
    1000022    2    1    0    0    0  0.25882693717E+02  0.55139754982E+02  0.97950695213E+01  0.62499998087E+02  0.99999980206E+01 0.  0.
    3000022    2    5    5    0    0  0.16737576628E+02  0.45078164671E+02  0.80596794869E+01  0.48756623511E+02  0.25000256372E+00 0.  0.
        -13    1    4    4    0    0 -0.71782031616E+01 -0.16367434995E+02 -0.39651739242E+01  0.18307188703E+02  0.10500000000E+00 0. -1.
         13    1    4    4    0    0 -0.13900056776E+02 -0.31707726245E+02 -0.75160576136E+01  0.35427300618E+02  0.10500000000E+00 0.  1.
    3000001    1    5    5    0    0  0.91451170889E+01  0.10061590310E+02  0.17353900344E+01  0.13743374575E+02  0.10000000000E+01 0. -1.
        -13    1    6    6    0    0  0.77142193303E+01  0.20963289253E+02  0.37610119672E+01  0.22652260642E+02  0.10500000000E+00 0.  1.
         13    1    6    6    0    0  0.90233572978E+01  0.24114875419E+02  0.42986675197E+01  0.26104362869E+02  0.10500000000E+00 0. -1.
</event>
<event>
11    0  0.3483054E-009  0.9118800E+02  0.7816531E-02  0.1126479E+00
         25   -1    0    0    0    0  0.00000000000E+00  0.00000000000E+00  0.99999998245E-14  0.12500000000E+03  0.12500000000E+03 0.  0.
    3000001    1    3    3    0    0 -0.90019820137E+01  0.58493067810E+01 -0.78864485806E+01  0.13358373449E+02  0.10000000000E+01 0.  1.
    1000022    2    1    0    0    0 -0.35945553130E+02  0.42130941603E+02 -0.27187332559E+02  0.62500001913E+02  0.10000007863E+02 0.  0.
    3000022    2    3    3    0    0 -0.26943571116E+02  0.36281634822E+02 -0.19300883978E+02  0.49141628463E+02  0.24995169976E+00 0.  0.
    1000022    2    1    0    0    0  0.35945553130E+02 -0.42130941603E+02  0.27187332559E+02  0.62499998087E+02  0.99999839552E+01 0.  0.
    3000022    2    5    5    0    0  0.37548968784E+01 -0.15180145023E+01  0.40645427058E+01  0.57433983992E+01  0.24999833670E+00 0.  0.
        -13    1    4    4    0    0 -0.14869256286E+02  0.20009523445E+02 -0.10575138225E+02  0.27079888930E+02  0.10500000000E+00 0.  1.
         13    1    4    4    0    0 -0.12074314830E+02  0.16272111377E+02 -0.87257457538E+01  0.22061739534E+02  0.10500000000E+00 0. -1.
    3000001    1    5    5    0    0  0.32190656251E+02 -0.40612927101E+02  0.23122789853E+02  0.56756599688E+02  0.10000000000E+01 0.  1.
        -13    1    6    6    0    0  0.26468809234E+01 -0.11000437252E+01  0.29210546652E+01  0.40938563943E+01  0.10500000000E+00 0.  1.
         13    1    6    6    0    0  0.11080159550E+01 -0.41797077714E+00  0.11434880406E+01  0.16495420050E+01  0.10500000000E+00 0. -1.
</event>
<event>
11    0  0.3483054E-009  0.9118800E+02  0.7816531E-02  0.1126479E+00
         25   -1    0    0    0    0  0.00000000000E+00  0.00000000000E+00  0.99999998245E-14  0.12500000000E+03  0.12500000000E+03 0.  0.
    3000001    1    3    3    0    0  0.31513950254E+00 -0.24069684399E+00  0.52586964646E+02  0.52597966677E+02  0.10000000000E+01 0.  1.
    1000022    2    1    0    0    0 -0.36849445899E+01 -0.13844979955E+01  0.61569101057E+02  0.62499998295E+02  0.99999965303E+01 0.  0.
    3000022    2    3    3    0    0 -0.40000840924E+01 -0.11438011516E+01  0.89821364113E+01  0.99020316185E+01  0.25000368381E+00 0.  0.
    1000022    2    1    0    0    0  0.36849445899E+01  0.13844979955E+01 -0.61569101057E+02  0.62500001705E+02  0.10000017837E+02 0.  0.
    3000022    2    5    5    0    0  0.24397553314E+01 -0.36811517699E+01 -0.41674389098E+02  0.41908477531E+02  0.24999573272E+00 0.  0.
        -13    1    4    4    0    0 -0.18027896394E+01 -0.46698703695E+00  0.41338202684E+01  0.45351540644E+01  0.10500000000E+00 0.  1.
         13    1    4    4    0    0 -0.21972944531E+01 -0.67681411461E+00  0.48483161429E+01  0.53668775541E+01  0.10500000000E+00 0. -1.
    3000001    1    5    5    0    0  0.12451892585E+01  0.50656497655E+01 -0.19894711960E+02  0.20591524174E+02  0.10000000000E+01 0. -1.
        -13    1    6    6    0    0  0.82602146580E+00 -0.12239569511E+01 -0.14451450494E+02  0.14527072261E+02  0.10500000000E+00 0.  1.
         13    1    6    6    0    0  0.16137338656E+01 -0.24571948188E+01 -0.27222938603E+02  0.27381405270E+02  0.10500000000E+00 0. -1.
</event>
<event>
11    0  0.3483054E-009  0.9118800E+02  0.7816531E-02  0.1126479E+00
         25   -1    0    0    0    0  0.00000000000E+00  0.00000000000E+00  0.99999998245E-14  0.12500000000E+03  0.12500000000E+03 0.  0.
    3000001    1    3    3    0    0 -0.17048146376E+02  0.25934999906E+02  0.20585444367E+02  0.37256194583E+02  0.10000000000E+01 0. -1.
    1000022    2    1    0    0    0 -0.35043527917E+02  0.40641567577E+02  0.30437871669E+02  0.62499999952E+02  0.10000004911E+02 0.  0.
    3000022    2    3    3    0    0 -0.17995381542E+02  0.14706567671E+02  0.98524273016E+01  0.25243805369E+02  0.24999258968E+00 0.  0.
    1000022    2    1    0    0    0  0.35043527917E+02 -0.40641567577E+02 -0.30437871669E+02  0.62500000048E+02  0.10000005510E+02 0.  0.
    3000022    2    5    5    0    0  0.62883595063E+01 -0.12657136839E+02 -0.10958686463E+02  0.17885801295E+02  0.25000143550E+00 0.  0.
        -13    1    4    4    0    0 -0.59603747144E+01  0.48076439905E+01  0.32255566683E+01  0.83099186696E+01  0.10500000000E+00 0.  1.
         13    1    4    4    0    0 -0.12035006827E+02  0.98989236808E+01  0.66268706333E+01  0.16933886700E+02  0.10500000000E+00 0. -1.
    3000001    1    5    5    0    0  0.28755168411E+02 -0.27984430738E+02 -0.19479185206E+02  0.44614198753E+02  0.10000000000E+01 0. -1.
        -13    1    6    6    0    0  0.40936781497E+01 -0.82798848962E+01 -0.70943552030E+01  0.11647128205E+02  0.10500000000E+00 0.  1.
         13    1    6    6    0    0  0.21946813566E+01 -0.43772519432E+01 -0.38643312599E+01  0.62386730895E+01  0.10500000000E+00 0. -1.
</event>
<event>
11    0  0.3483054E-009  0.9118800E+02  0.7816531E-02  0.1126479E+00
         25   -1    0    0    0    0  0.00000000000E+00  0.00000000000E+00  0.99999998245E-14  0.12500000000E+03  0.12500000000E+03 0.  0.
    3000001    1    3    3    0    0 -0.29872864268E+01  0.54464261723E+01  0.46108711213E+01  0.78004852890E+01  0.10000000000E+01 0. -1.
    1000022    2    1    0    0    0 -0.44354426024E+02  0.35270753585E+02  0.24390751516E+02  0.62500000005E+02  0.10000003738E+02 0.  0.
    3000022    2    3    3    0    0 -0.41367139597E+02  0.29824327413E+02  0.19779880394E+02  0.54699514716E+02  0.24999536258E+00 0.  0.
    1000022    2    1    0    0    0  0.44354426024E+02 -0.35270753585E+02 -0.24390751516E+02  0.62499999995E+02  0.10000003677E+02 0.  0.
    3000022    2    5    5    0    0  0.12223175753E+02 -0.46739167636E+01 -0.42289366396E+01  0.13754923869E+02  0.25000428706E+00 0.  0.
        -13    1    4    4    0    0 -0.19066808408E+02  0.13775231253E+02  0.91909337045E+01  0.25254394990E+02  0.10500000000E+00 0. -1.
         13    1    4    4    0    0 -0.22300331189E+02  0.16049096160E+02  0.10588946690E+02  0.29445119726E+02  0.10500000000E+00 0.  1.
    3000001    1    5    5    0    0  0.32131250271E+02 -0.30596836821E+02 -0.20161814876E+02  0.48745076126E+02  0.10000000000E+01 0.  1.
        -13    1    6    6    0    0  0.83406518167E+01 -0.31691542400E+01 -0.28339906806E+01  0.93622934958E+01  0.10500000000E+00 0.  1.
         13    1    6    6    0    0  0.38825239358E+01 -0.15047625236E+01 -0.13949459590E+01  0.43926303729E+01  0.10500000000E+00 0. -1.
</event>
<event>
11    0  0.3483054E-009  0.9118800E+02  0.7816531E-02  0.1126479E+00
         25   -1    0    0    0    0  0.00000000000E+00  0.00000000000E+00  0.99999998245E-14  0.12500000000E+03  0.12500000000E+03 0.  0.
    3000001    1    3    3    0    0  0.37986242897E+00 -0.33395672259E+00 -0.37354600155E+01  0.38999338564E+01  0.10000000000E+01 0.  1.
    1000022    2    1    0    0    0  0.12579370600E+02 -0.37835688178E+02 -0.47079415849E+02  0.62500009508E+02  0.99999963644E+01 0.  0.
    3000022    2    3    3    0    0  0.12199508171E+02 -0.37501731455E+02 -0.43343955833E+02  0.58600075651E+02  0.24999472670E+00 0.  0.
    1000022    2    1    0    0    0 -0.12579370600E+02  0.37835688178E+02  0.47079415849E+02  0.62499990492E+02  0.99998775146E+01 0.  0.
    3000022    2    5    5    0    0 -0.22148284552E+00  0.13986561567E+02  0.19383601826E+02  0.23905219549E+02  0.25008554674E+00 0.  0.
        -13    1    4    4    0    0  0.64527118201E+01 -0.19743419630E+02 -0.22920170124E+02  0.30931946787E+02  0.10500000000E+00 0. -1.
         13    1    4    4    0    0  0.57467963506E+01 -0.17758311825E+02 -0.20423785709E+02  0.27668128864E+02  0.10500000000E+00 0.  1.
    3000001    1    5    5    0    0 -0.12357887754E+02  0.23849126610E+02  0.27695814022E+02  0.38594770943E+02  0.10000000000E+01 0. -1.
        -13    1    6    6    0    0 -0.12992499034E+00  0.58721891638E+01  0.82305617667E+01  0.10112005641E+02  0.10500000000E+00 0.  1.
         13    1    6    6    0    0 -0.91557855179E-01  0.81143724035E+01  0.11153040060E+02  0.13793213908E+02  0.10500000000E+00 0. -1.
</event>
<event>
11    0  0.3483054E-009  0.9118800E+02  0.7816531E-02  0.1126479E+00
         25   -1    0    0    0    0  0.00000000000E+00  0.00000000000E+00  0.99999998245E-14  0.12500000000E+03  0.12500000000E+03 0.  0.
    3000001    1    3    3    0    0 -0.27852263517E+01 -0.24220535689E+02  0.17706409033E+02  0.30148113635E+02  0.10000000000E+01 0. -1.
    1000022    2    1    0    0    0 -0.24049476176E+01 -0.43503838788E+02  0.43679311619E+02  0.62500000004E+02  0.99999987289E+01 0.  0.
    3000022    2    3    3    0    0  0.38027873403E+00 -0.19283303099E+02  0.25972902586E+02  0.32351886369E+02  0.24998506741E+00 0.  0.
    1000022    2    1    0    0    0  0.24049476176E+01  0.43503838788E+02 -0.43679311619E+02  0.62499999996E+02  0.99999986843E+01 0.  0.
    3000022    2    5    5    0    0  0.19398284803E+01  0.42491158898E+02 -0.39452086558E+02  0.58015438916E+02  0.24999950667E+00 0.  0.
        -13    1    4    4    0    0  0.21113115255E+00 -0.10112554831E+02  0.13732478028E+02  0.17055800168E+02  0.10500000000E+00 0. -1.
         13    1    4    4    0    0  0.16914758148E+00 -0.91707482684E+01  0.12240424558E+02  0.15296086201E+02  0.10500000000E+00 0.  1.
    3000001    1    5    5    0    0  0.46511913734E+00  0.10126798901E+01 -0.42272250606E+01  0.44845610805E+01  0.10000000000E+01 0. -1.
        -13    1    6    6    0    0  0.57631259246E+00  0.13282159519E+02 -0.12384044577E+02  0.18169300558E+02  0.10500000000E+00 0.  1.
         13    1    6    6    0    0  0.13635158878E+01  0.29208999379E+02 -0.27068041981E+02  0.39846138358E+02  0.10500000000E+00 0. -1.
</event>
<event>
11    0  0.3483054E-009  0.9118800E+02  0.7816531E-02  0.1126479E+00
         25   -1    0    0    0    0  0.00000000000E+00  0.00000000000E+00  0.99999998245E-14  0.12500000000E+03  0.12500000000E+03 0.  0.
    3000001    1    3    3    0    0  0.41279236190E+02  0.20026059484E+02 -0.19145053947E+02  0.49724757310E+02  0.10000000000E+01 0.  1.
    1000022    2    1    0    0    0  0.53254781969E+02  0.24466025086E+02 -0.19276716423E+02  0.62499999960E+02  0.10000000645E+02 0.  0.
    3000022    2    3    3    0    0  0.11975545779E+02  0.44399656028E+01 -0.13166247579E+00  0.12775242650E+02  0.24999703371E+00 0.  0.
    1000022    2    1    0    0    0 -0.53254781969E+02 -0.24466025086E+02  0.19276716423E+02  0.62500000040E+02  0.10000001144E+02 0.  0.
    3000022    2    5    5    0    0 -0.40355610191E+02 -0.22896681684E+02  0.15732741335E+02  0.48994029853E+02  0.25001063125E+00 0.  0.
        -13    1    4    4    0    0  0.89430694614E+01  0.32885482467E+01 -0.85129696145E-01  0.95294969976E+01  0.10500000000E+00 0.  1.
         13    1    4    4    0    0  0.30324763173E+01  0.11514173561E+01 -0.46532779641E-01  0.32457456528E+01  0.10500000000E+00 0. -1.
    3000001    1    5    5    0    0 -0.12899171777E+02 -0.15693434029E+01  0.35439750882E+01  0.13505970187E+02  0.10000000000E+01 0. -1.
        -13    1    6    6    0    0 -0.14126689997E+02 -0.80424379985E+01  0.55661849197E+01  0.17182479995E+02  0.10500000000E+00 0.  1.
         13    1    6    6    0    0 -0.26228920195E+02 -0.14854243685E+02  0.10166556415E+02  0.31811549858E+02  0.10500000000E+00 0. -1.
</event>
<event>
11    0  0.3483054E-009  0.9118800E+02  0.7816531E-02  0.1126479E+00
         25   -1    0    0    0    0  0.00000000000E+00  0.00000000000E+00  0.99999998245E-14  0.12500000000E+03  0.12500000000E+03 0.  0.
    3000001    1    3    3    0    0  0.34912046868E+01 -0.21742571163E+02  0.91326793514E+01  0.23860715477E+02  0.10000000000E+01 0.  1.
    1000022    2    1    0    0    0  0.71551590364E+00 -0.59820201116E+02  0.15075863094E+02  0.62499999705E+02  0.99999945271E+01 0.  0.
    3000022    2    3    3    0    0 -0.27756887831E+01 -0.38077629953E+02  0.59431837430E+01  0.38639284228E+02  0.25000319940E+00 0.  0.
    1000022    2    1    0    0    0 -0.71551590364E+00  0.59820201116E+02 -0.15075863094E+02  0.62500000295E+02  0.99999982157E+01 0.  0.
    3000022    2    5    5    0    0 -0.22155466175E+01  0.72630661801E+01  0.61105898840E+00  0.76221172345E+01  0.25000179621E+00 0.  0.
        -13    1    4    4    0    0 -0.10672831405E+01 -0.15228426794E+02  0.23294643422E+01  0.15442846403E+02  0.10500000000E+00 0.  1.
         13    1    4    4    0    0 -0.17084056427E+01 -0.22849203159E+02  0.36137194008E+01  0.23196437825E+02  0.10500000000E+00 0. -1.
    3000001    1    5    5    0    0  0.15000307139E+01  0.52557134936E+02 -0.15686922083E+02  0.54877883061E+02  0.10000000000E+01 0. -1.
        -13    1    6    6    0    0 -0.16292414759E+01  0.53891346031E+01  0.48062827738E+00  0.56514801687E+01  0.10500000000E+00 0.  1.
         13    1    6    6    0    0 -0.58630514167E+00  0.18739315770E+01  0.13043071102E+00  0.19706370657E+01  0.10500000000E+00 0. -1.
</event>
<event>
11    0  0.3483054E-009  0.9118800E+02  0.7816531E-02  0.1126479E+00
         25   -1    0    0    0    0  0.00000000000E+00  0.00000000000E+00  0.99999998245E-14  0.12500000000E+03  0.12500000000E+03 0.  0.
    3000001    1    3    3    0    0 -0.23521272553E+02 -0.39181833972E+01  0.38811122925E+02  0.45562108011E+02  0.10000000000E+01 0. -1.
    1000022    2    1    0    0    0 -0.27952074410E+02 -0.95108793397E+01  0.54170791928E+02  0.62499999839E+02  0.99999996082E+01 0.  0.
    3000022    2    3    3    0    0 -0.44308018565E+01 -0.55926959425E+01  0.15359669003E+02  0.16937891829E+02  0.24998944274E+00 0.  0.
    1000022    2    1    0    0    0  0.27952074410E+02  0.95108793397E+01 -0.54170791928E+02  0.62500000161E+02  0.10000001620E+02 0.  0.
    3000022    2    5    5    0    0  0.18852691011E+02  0.87591697057E+01 -0.28814992355E+02  0.35531863080E+02  0.24999450816E+00 0.  0.
        -13    1    4    4    0    0 -0.17391535725E+01 -0.20970331733E+01  0.58723400691E+01  0.64743807554E+01  0.10500000000E+00 0. -1.
         13    1    4    4    0    0 -0.26916482840E+01 -0.34956627692E+01  0.94873289337E+01  0.10463511073E+02  0.10500000000E+00 0.  1.
    3000001    1    5    5    0    0  0.90993833989E+01  0.75170963403E+00 -0.25355799573E+02  0.26968137081E+02  0.10000000000E+01 0.  1.
        -13    1    6    6    0    0  0.46271380903E+01  0.21487404526E+01 -0.70326617878E+01  0.86888922919E+01  0.10500000000E+00 0. -1.
         13    1    6    6    0    0  0.14225552921E+02  0.66104292531E+01 -0.21782330567E+02  0.26842970788E+02  0.10500000000E+00 0.  1.
</event>
<event>
11    0  0.3483054E-009  0.9118800E+02  0.7816531E-02  0.1126479E+00
         25   -1    0    0    0    0  0.00000000000E+00  0.00000000000E+00  0.99999998245E-14  0.12500000000E+03  0.12500000000E+03 0.  0.
    3000001    1    3    3    0    0 -0.21375344794E+02 -0.11100229623E+02  0.79575250123E+01  0.25385875346E+02  0.10000000000E+01 0.  1.
    1000022    2    1    0    0    0 -0.57342664025E+02 -0.17767969458E+02  0.14225617722E+02  0.62500000651E+02  0.10000001281E+02 0.  0.
    3000022    2    3    3    0    0 -0.35967319231E+02 -0.66677398344E+01  0.62680927100E+01  0.37114125305E+02  0.25000750546E+00 0.  0.
    1000022    2    1    0    0    0  0.57342664025E+02  0.17767969458E+02 -0.14225617722E+02  0.62499999349E+02  0.99999931420E+01 0.  0.
    3000022    2    5    5    0    0  0.52468840962E+02  0.14001045932E+02 -0.10757627711E+02  0.55360614304E+02  0.25000605401E+00 0.  0.
        -13    1    4    4    0    0 -0.19761833236E+02 -0.37153927025E+01  0.34891120592E+01  0.20408800155E+02  0.10500000000E+00 0. -1.
         13    1    4    4    0    0 -0.16205485995E+02 -0.29523471319E+01  0.27789806509E+01  0.16705325150E+02  0.10500000000E+00 0.  1.
    3000001    1    5    5    0    0  0.48738230630E+01  0.37669235259E+01 -0.34679900113E+01  0.71393850448E+01  0.10000000000E+01 0. -1.
        -13    1    6    6    0    0  0.21321932962E+02  0.56589841937E+01 -0.44274934930E+01  0.22500281131E+02  0.10500000000E+00 0. -1.
         13    1    6    6    0    0  0.31146908001E+02  0.83420617383E+01 -0.63301342180E+01  0.32860333173E+02  0.10500000000E+00 0.  1.
</event>
<event>
11    0  0.3483054E-009  0.9118800E+02  0.7816531E-02  0.1126479E+00
         25   -1    0    0    0    0  0.00000000000E+00  0.00000000000E+00  0.99999998245E-14  0.12500000000E+03  0.12500000000E+03 0.  0.
    3000001    1    3    3    0    0 -0.13033751816E+01  0.20551389786E+01 -0.15028449287E+01  0.30300042847E+01  0.10000000000E+01 0.  1.
    1000022    2    1    0    0    0  0.73967104372E+01  0.36095475745E+02 -0.49483896260E+02  0.62499995097E+02  0.99999351770E+01 0.  0.
    3000022    2    3    3    0    0  0.87000856188E+01  0.34040336767E+02 -0.47981051331E+02  0.59469990813E+02  0.25000691118E+00 0.  0.
    1000022    2    1    0    0    0 -0.73967104372E+01 -0.36095475745E+02  0.49483896260E+02  0.62500004903E+02  0.99999964608E+01 0.  0.
    3000022    2    5    5    0    0 -0.11577528898E+01 -0.49529081673E+01  0.22399284135E+01  0.55634032787E+01  0.24997135148E+00 0.  0.
        -13    1    4    4    0    0  0.46540221740E+01  0.18292809693E+02 -0.25668837507E+02  0.31862000138E+02  0.10500000000E+00 0. -1.
         13    1    4    4    0    0  0.40460634448E+01  0.15747527074E+02 -0.22312213824E+02  0.27607990674E+02  0.10500000000E+00 0.  1.
    3000001    1    5    5    0    0 -0.62389575473E+01 -0.31142567578E+02  0.47243967846E+02  0.56936601624E+02  0.10000000000E+01 0. -1.
        -13    1    6    6    0    0 -0.35541823370E+00 -0.13536691012E+01  0.61666943803E+00  0.15329867424E+01  0.10500000000E+00 0.  1.
         13    1    6    6    0    0 -0.80233465613E+00 -0.35992390660E+01  0.16232589755E+01  0.40304165363E+01  0.10500000000E+00 0. -1.
</event>
<event>
11    0  0.3483054E-009  0.9118800E+02  0.7816531E-02  0.1126479E+00
         25   -1    0    0    0    0  0.00000000000E+00  0.00000000000E+00  0.99999998245E-14  0.12500000000E+03  0.12500000000E+03 0.  0.
    3000001    1    3    3    0    0 -0.51861229888E+02  0.78720522731E+01 -0.24608320023E+02  0.57949338105E+02  0.10000000000E+01 0.  1.
    1000022    2    1    0    0    0 -0.53996772488E+02  0.88971347168E+01 -0.28485778895E+02  0.62500000335E+02  0.99999998702E+01 0.  0.
    3000022    2    3    3    0    0 -0.21355425998E+01  0.10250824437E+01 -0.38774588722E+01  0.45506622302E+01  0.25000643234E+00 0.  0.
    1000022    2    1    0    0    0  0.53996772488E+02 -0.88971347168E+01  0.28485778895E+02  0.62499999665E+02  0.99999956791E+01 0.  0.
    3000022    2    5    5    0    0  0.39539014249E+02 -0.10844347585E+02  0.20513106095E+02  0.45845212881E+02  0.25000017945E+00 0.  0.
        -13    1    4    4    0    0 -0.81243525338E+00  0.45703886803E+00 -0.14979929929E+01  0.17674681255E+01  0.10500000000E+00 0. -1.
         13    1    4    4    0    0 -0.13231073464E+01  0.56804357564E+00 -0.23794658792E+01  0.27831941047E+01  0.10500000000E+00 0.  1.
    3000001    1    5    5    0    0  0.14457758238E+02  0.19472128683E+01  0.79726728006E+01  0.16654786784E+02  0.10000000000E+01 0. -1.
        -13    1    6    6    0    0  0.26351891631E+02 -0.72416179679E+01  0.13731176288E+02  0.30584627684E+02  0.10500000000E+00 0.  1.
         13    1    6    6    0    0  0.13187122619E+02 -0.36027296172E+01  0.67819298069E+01  0.15260585197E+02  0.10500000000E+00 0. -1.
</event>
<event>
11    0  0.3483054E-009  0.9118800E+02  0.7816531E-02  0.1126479E+00
         25   -1    0    0    0    0  0.00000000000E+00  0.00000000000E+00  0.99999998245E-14  0.12500000000E+03  0.12500000000E+03 0.  0.
    3000001    1    3    3    0    0 -0.10597881673E+02  0.20330434893E+01 -0.21482432376E+02  0.24061239838E+02  0.10000000000E+01 0.  1.
    1000022    2    1    0    0    0 -0.16173826244E+02  0.94835504402E+01 -0.58776862242E+02  0.62499999034E+02  0.99999979930E+01 0.  0.
    3000022    2    3    3    0    0 -0.55759445713E+01  0.74505069509E+01 -0.37294429867E+02  0.38438759196E+02  0.24999547119E+00 0.  0.
    1000022    2    1    0    0    0  0.16173826244E+02 -0.94835504402E+01  0.58776862242E+02  0.62500000966E+02  0.10000010068E+02 0.  0.
    3000022    2    5    5    0    0  0.14810833451E+02 -0.39776747430E+01  0.39210086470E+02  0.42103159773E+02  0.24999592628E+00 0.  0.
        -13    1    4    4    0    0 -0.19790534097E+01  0.25513598074E+01 -0.12920153731E+02  0.13317938531E+02  0.10500000000E+00 0.  1.
         13    1    4    4    0    0 -0.35968911616E+01  0.48991471435E+01 -0.24374276135E+02  0.25120820665E+02  0.10500000000E+00 0. -1.
    3000001    1    5    5    0    0  0.13629927929E+01 -0.55058756972E+01  0.19566775772E+02  0.20396841193E+02  0.10000000000E+01 0.  1.
        -13    1    6    6    0    0  0.94775706148E+01 -0.24851360530E+01  0.25059320561E+02  0.26906891644E+02  0.10500000000E+00 0.  1.
         13    1    6    6    0    0  0.53332628364E+01 -0.14925386900E+01  0.14150765909E+02  0.15196268129E+02  0.10500000000E+00 0. -1.
</event>
<event>
11    0  0.3483054E-009  0.9118800E+02  0.7816531E-02  0.1126479E+00
         25   -1    0    0    0    0  0.00000000000E+00  0.00000000000E+00  0.99999998245E-14  0.12500000000E+03  0.12500000000E+03 0.  0.
    3000001    1    3    3    0    0 -0.29913218754E+02  0.68918174420E+01  0.16902047046E+01  0.30759626068E+02  0.10000000000E+01 0. -1.
    1000022    2    1    0    0    0 -0.61136283030E+02  0.72529047346E+01 -0.40000291052E+01  0.62500000661E+02  0.10000005999E+02 0.  0.
    3000022    2    3    3    0    0 -0.31223064276E+02  0.36108729261E+00 -0.56902338098E+01  0.31740374594E+02  0.24998341230E+00 0.  0.
    1000022    2    1    0    0    0  0.61136283030E+02 -0.72529047346E+01  0.40000291052E+01  0.62499999339E+02  0.99999977322E+01 0.  0.
    3000022    2    5    5    0    0  0.10850263876E+02 -0.23475876566E+01  0.44520228902E+01  0.11963377406E+02  0.24999430085E+00 0.  0.
        -13    1    4    4    0    0 -0.17989306128E+02  0.25737744999E+00 -0.32353840753E+01  0.18280046861E+02  0.10500000000E+00 0.  1.
         13    1    4    4    0    0 -0.13233758148E+02  0.10370984262E+00 -0.24548497345E+01  0.13460327732E+02  0.10500000000E+00 0. -1.
    3000001    1    5    5    0    0  0.50286019154E+02 -0.49053170780E+01 -0.45199378507E+00  0.50536621933E+02  0.10000000000E+01 0.  1.
        -13    1    6    6    0    0  0.66909754170E+01 -0.13909125190E+01  0.27120936603E+01  0.73532487166E+01  0.10500000000E+00 0. -1.
         13    1    6    6    0    0  0.41592884590E+01 -0.95667513758E+00  0.17399292300E+01  0.46101286890E+01  0.10500000000E+00 0.  1.
</event>
<event>
11    0  0.3483054E-009  0.9118800E+02  0.7816531E-02  0.1126479E+00
         25   -1    0    0    0    0  0.00000000000E+00  0.00000000000E+00  0.99999998245E-14  0.12500000000E+03  0.12500000000E+03 0.  0.
    3000001    1    3    3    0    0  0.14622261361E+02 -0.38485509311E+02 -0.24982855378E+02  0.48167291984E+02  0.10000000000E+01 0.  1.
    1000022    2    1    0    0    0  0.22244177303E+02 -0.50210167735E+02 -0.28113802017E+02  0.62500000919E+02  0.99999941539E+01 0.  0.
    3000022    2    3    3    0    0  0.76219159420E+01 -0.11724658424E+02 -0.31309466391E+01  0.14332708934E+02  0.25000150875E+00 0.  0.
    1000022    2    1    0    0    0 -0.22244177303E+02  0.50210167735E+02  0.28113802017E+02  0.62499999081E+02  0.99999826700E+01 0.  0.
    3000022    2    5    5    0    0 -0.26015718661E+01  0.28463434310E+01  0.48061709023E+01  0.61669761794E+01  0.24993869873E+00 0.  0.
        -13    1    4    4    0    0  0.43848979358E+01 -0.66898607592E+01 -0.17313194160E+01  0.81847454943E+01  0.10500000000E+00 0. -1.
         13    1    4    4    0    0  0.32370180061E+01 -0.50347976647E+01 -0.13996272232E+01  0.61479634401E+01  0.10500000000E+00 0.  1.
    3000001    1    5    5    0    0 -0.19642605437E+02  0.47363824304E+02  0.23307631115E+02  0.56333022902E+02  0.10000000000E+01 0.  1.
        -13    1    6    6    0    0 -0.11733368030E+01  0.13637886468E+01  0.21780339985E+01  0.28269233850E+01  0.10500000000E+00 0. -1.
         13    1    6    6    0    0 -0.14282350631E+01  0.14825547842E+01  0.26281369038E+01  0.33400527944E+01  0.10500000000E+00 0.  1.
</event>
<event>
11    0  0.3483054E-009  0.9118800E+02  0.7816531E-02  0.1126479E+00
         25   -1    0    0    0    0  0.00000000000E+00  0.00000000000E+00  0.99999998245E-14  0.12500000000E+03  0.12500000000E+03 0.  0.
    3000001    1    3    3    0    0 -0.17441190476E+02 -0.83512333723E+01 -0.35309194621E+02  0.40270056479E+02  0.10000000000E+01 0. -1.
    1000022    2    1    0    0    0 -0.21790722282E+02 -0.83718868908E+01 -0.57108022896E+02  0.62499996837E+02  0.99999628933E+01 0.  0.
    3000022    2    3    3    0    0 -0.43495318057E+01 -0.20653518429E-01 -0.21798828275E+02  0.22229940358E+02  0.24996129924E+00 0.  0.
    1000022    2    1    0    0    0  0.21790722282E+02  0.83718868908E+01  0.57108022896E+02  0.62500003163E+02  0.10000002431E+02 0.  0.
    3000022    2    5    5    0    0  0.13889438414E+02  0.20242242704E+01  0.23410075575E+02  0.27296668646E+02  0.24999473262E+00 0.  0.
        -13    1    4    4    0    0 -0.10923563982E+01  0.13197955310E-01 -0.53900209035E+01  0.55006151499E+01  0.10500000000E+00 0.  1.
         13    1    4    4    0    0 -0.32571754075E+01 -0.33851473740E-01 -0.16408807371E+02  0.16729325208E+02  0.10500000000E+00 0. -1.
    3000001    1    5    5    0    0  0.79012838676E+01  0.63476626204E+01  0.33697947321E+02  0.35203334517E+02  0.10000000000E+01 0. -1.
        -13    1    6    6    0    0  0.47074736186E+01  0.66930418477E+00  0.78303845201E+01  0.91615622410E+01  0.10500000000E+00 0.  1.
         13    1    6    6    0    0  0.91819647954E+01  0.13549200856E+01  0.15579691055E+02  0.18135106405E+02  0.10500000000E+00 0. -1.
</event>
<event>
11    0  0.3483054E-009  0.9118800E+02  0.7816531E-02  0.1126479E+00
         25   -1    0    0    0    0  0.00000000000E+00  0.00000000000E+00  0.99999998245E-14  0.12500000000E+03  0.12500000000E+03 0.  0.
    3000001    1    3    3    0    0  0.18251920188E+02  0.42328121291E+00 -0.13713766504E+02  0.22855615267E+02  0.10000000000E+01 0.  1.
    1000022    2    1    0    0    0  0.41162174767E+02 -0.36310008393E+01 -0.45812019104E+02  0.62500000604E+02  0.10000009125E+02 0.  0.
    3000022    2    3    3    0    0  0.22910254579E+02 -0.40542820522E+01 -0.32098252599E+02  0.39644385336E+02  0.25000184906E+00 0.  0.
    1000022    2    1    0    0    0 -0.41162174767E+02  0.36310008393E+01  0.45812019104E+02  0.62499999396E+02  0.10000001578E+02 0.  0.
    3000022    2    5    5    0    0 -0.16019100313E+02  0.61351891487E+01  0.20316075471E+02  0.26590553650E+02  0.25000029061E+00 0.  0.
        -13    1    4    4    0    0  0.15419530020E+02 -0.26881645201E+01 -0.21535446665E+02  0.26622821462E+02  0.10500000000E+00 0. -1.
         13    1    4    4    0    0  0.74907245591E+01 -0.13661175321E+01 -0.10562805934E+02  0.13021563875E+02  0.10500000000E+00 0.  1.
    3000001    1    5    5    0    0 -0.25143074454E+02 -0.25041883094E+01  0.25495943632E+02  0.35909445746E+02  0.10000000000E+01 0. -1.
        -13    1    6    6    0    0 -0.64760222387E+01  0.24738375907E+01  0.83087484626E+01  0.10821509251E+02  0.10500000000E+00 0.  1.
         13    1    6    6    0    0 -0.95430780743E+01  0.36613515580E+01  0.12007327009E+02  0.15769044399E+02  0.10500000000E+00 0. -1.
</event>
<event>
11    0  0.3483054E-009  0.9118800E+02  0.7816531E-02  0.1126479E+00
         25   -1    0    0    0    0  0.00000000000E+00  0.00000000000E+00  0.99999998245E-14  0.12500000000E+03  0.12500000000E+03 0.  0.
    3000001    1    3    3    0    0  0.14629325600E+02 -0.32735099145E+01 -0.22450650755E+02  0.27014158399E+02  0.10000000000E+01 0.  1.
    1000022    2    1    0    0    0  0.27973279577E+02  0.16212397662E+01 -0.54964690221E+02  0.62499999987E+02  0.10000001933E+02 0.  0.
    3000022    2    3    3    0    0  0.13343953977E+02  0.48947496807E+01 -0.32514039466E+02  0.35485841588E+02  0.25001735489E+00 0.  0.
    1000022    2    1    0    0    0 -0.27973279577E+02 -0.16212397662E+01  0.54964690221E+02  0.62500000013E+02  0.10000002093E+02 0.  0.
    3000022    2    5    5    0    0 -0.33705496096E+01 -0.37353694145E+01  0.92539653413E+01  0.10536221907E+02  0.25001640774E+00 0.  0.
        -13    1    4    4    0    0  0.98194425399E+01  0.36361314812E+01 -0.23971455706E+02  0.26158834408E+02  0.10500000000E+00 0.  1.
         13    1    4    4    0    0  0.35245114370E+01  0.12586181995E+01 -0.85425837602E+01  0.93270071803E+01  0.10500000000E+00 0. -1.
    3000001    1    5    5    0    0 -0.24602729967E+02  0.21141296483E+01  0.45710724880E+02  0.51963778106E+02  0.10000000000E+01 0. -1.
        -13    1    6    6    0    0 -0.18805856264E+01 -0.21596891481E+01  0.51775043465E+01  0.59176376851E+01  0.10500000000E+00 0.  1.
         13    1    6    6    0    0 -0.14899639832E+01 -0.15756802664E+01  0.40764609948E+01  0.46185842220E+01  0.10500000000E+00 0. -1.
</event>
<event>
11    0  0.3483054E-009  0.9118800E+02  0.7816531E-02  0.1126479E+00
         25   -1    0    0    0    0  0.00000000000E+00  0.00000000000E+00  0.99999998245E-14  0.12500000000E+03  0.12500000000E+03 0.  0.
    3000001    1    3    3    0    0 -0.37382875252E+02 -0.90536460900E+01 -0.26112961322E+02  0.46500909869E+02  0.10000000000E+01 0. -1.
    1000022    2    1    0    0    0 -0.47293642461E+02 -0.86425707452E+01 -0.38663508163E+02  0.62500004140E+02  0.10000050385E+02 0.  0.
    3000022    2    3    3    0    0 -0.99107672087E+01  0.41107534476E+00 -0.12550546842E+02  0.15999094271E+02  0.25000374322E+00 0.  0.
    1000022    2    1    0    0    0  0.47293642461E+02  0.86425707452E+01  0.38663508163E+02  0.62499995860E+02  0.99999986340E+01 0.  0.
    3000022    2    5    5    0    0  0.21135246836E+02 -0.97804313695E+00  0.15192985428E+02  0.26048887364E+02  0.24999893988E+00 0.  0.
        -13    1    4    4    0    0 -0.44009740495E+01  0.18946884156E+00 -0.56804383584E+01  0.71890803285E+01  0.10500000000E+00 0.  1.
         13    1    4    4    0    0 -0.55097931592E+01  0.22160650320E+00 -0.68701084832E+01  0.88100139427E+01  0.10500000000E+00 0. -1.
    3000001    1    5    5    0    0  0.26158395625E+02  0.96206138822E+01  0.23470522735E+02  0.36451108496E+02  0.10000000000E+01 0. -1.
        -13    1    6    6    0    0  0.56695952715E+01 -0.26212150971E+00  0.40326345525E+01  0.69632021845E+01  0.10500000000E+00 0.  1.
         13    1    6    6    0    0  0.15465651564E+02 -0.71592162724E+00  0.11160350876E+02  0.19085685179E+02  0.10500000000E+00 0. -1.
</event>
<event>
11    0  0.3483054E-009  0.9118800E+02  0.7816531E-02  0.1126479E+00
         25   -1    0    0    0    0  0.00000000000E+00  0.00000000000E+00  0.99999998245E-14  0.12500000000E+03  0.12500000000E+03 0.  0.
    3000001    1    3    3    0    0  0.73292732979E+01  0.31225482269E+00 -0.14301632023E+02  0.16104422643E+02  0.10000000000E+01 0.  1.
    1000022    2    1    0    0    0  0.37582685991E+02 -0.10366421459E+02 -0.47815576386E+02  0.62500005076E+02  0.10000015457E+02 0.  0.
    3000022    2    3    3    0    0  0.30253412693E+02 -0.10678676281E+02 -0.33513944364E+02  0.46395582433E+02  0.24999152843E+00 0.  0.
    1000022    2    1    0    0    0 -0.37582685991E+02  0.10366421459E+02  0.47815576386E+02  0.62499994924E+02  0.99999520126E+01 0.  0.
    3000022    2    5    5    0    0 -0.29724929189E+02  0.46287884111E+01  0.32138922207E+02  0.44022379786E+02  0.25000791042E+00 0.  0.
        -13    1    4    4    0    0  0.72025853531E+01 -0.25273073949E+01 -0.79890357214E+01  0.11049897520E+02  0.10500000000E+00 0.  1.
         13    1    4    4    0    0  0.23050827340E+02 -0.81513688866E+01 -0.25524908642E+02  0.35345684913E+02  0.10500000000E+00 0. -1.
    3000001    1    5    5    0    0 -0.78577568019E+01  0.57376330477E+01  0.15676654179E+02  0.18477615138E+02  0.10000000000E+01 0.  1.
        -13    1    6    6    0    0 -0.10736063671E+02  0.16642035641E+01  0.11691563145E+02  0.15960460846E+02  0.10500000000E+00 0.  1.
         13    1    6    6    0    0 -0.18988865517E+02  0.29645848470E+01  0.20447359063E+02  0.28061918940E+02  0.10500000000E+00 0. -1.
</event>
<event>
11    0  0.3483054E-009  0.9118800E+02  0.7816531E-02  0.1126479E+00
         25   -1    0    0    0    0  0.00000000000E+00  0.00000000000E+00  0.99999998245E-14  0.12500000000E+03  0.12500000000E+03 0.  0.
    3000001    1    3    3    0    0  0.90264811978E+01 -0.78827465041E+01  0.27807030884E+02  0.30295973690E+02  0.10000000000E+01 0. -1.
    1000022    2    1    0    0    0  0.26257102592E+02 -0.99565033767E+01  0.54933434016E+02  0.62499995647E+02  0.99999943519E+01 0.  0.
    3000022    2    3    3    0    0  0.17230621394E+02 -0.20737568726E+01  0.27126403132E+02  0.32204021957E+02  0.25000418889E+00 0.  0.
    1000022    2    1    0    0    0 -0.26257102592E+02  0.99565033767E+01 -0.54933434016E+02  0.62500004353E+02  0.10000048766E+02 0.  0.
    3000022    2    5    5    0    0 -0.34788782960E+01  0.62042310471E+00 -0.16289598823E+02  0.16670364432E+02  0.25000286273E+00 0.  0.
        -13    1    4    4    0    0  0.39551560888E+01 -0.47090219088E+00  0.62242025700E+01  0.73903133352E+01  0.10500000000E+00 0. -1.
         13    1    4    4    0    0  0.13275465305E+02 -0.16028546817E+01  0.20902200562E+02  0.24813708622E+02  0.10500000000E+00 0.  1.
    3000001    1    5    5    0    0 -0.22778224296E+02  0.93360802720E+01 -0.38643835193E+02  0.45829639922E+02  0.10000000000E+01 0. -1.
        -13    1    6    6    0    0 -0.93189636557E+00  0.18006493383E+00 -0.42386969372E+01  0.43449316384E+01  0.10500000000E+00 0. -1.
         13    1    6    6    0    0 -0.25469819304E+01  0.44035817087E+00 -0.12050901886E+02  0.12325432793E+02  0.10500000000E+00 0.  1.
</event>
<event>
11    0  0.3483054E-009  0.9118800E+02  0.7816531E-02  0.1126479E+00
         25   -1    0    0    0    0  0.00000000000E+00  0.00000000000E+00  0.99999998245E-14  0.12500000000E+03  0.12500000000E+03 0.  0.
    3000001    1    3    3    0    0 -0.22647501389E+01  0.40583117426E+01 -0.97703883947E+00  0.48532043317E+01  0.10000000000E+01 0. -1.
    1000022    2    1    0    0    0 -0.50961349418E+02  0.29393709097E+02 -0.18579579417E+02  0.62500000231E+02  0.99999994326E+01 0.  0.
    3000022    2    3    3    0    0 -0.48696599279E+02  0.25335397354E+02 -0.17602540578E+02  0.57646795900E+02  0.25000455151E+00 0.  0.
    1000022    2    1    0    0    0  0.50961349418E+02 -0.29393709097E+02  0.18579579417E+02  0.62499999769E+02  0.99999965402E+01 0.  0.
    3000022    2    5    5    0    0  0.60166236069E+01 -0.27630945583E+00  0.89419034389E+00  0.60941106546E+01  0.25000351348E+00 0.  0.
        -13    1    4    4    0    0 -0.15624483796E+02  0.80796382816E+01 -0.56678154734E+01  0.18480806419E+02  0.10500000000E+00 0. -1.
         13    1    4    4    0    0 -0.33072115483E+02  0.17255759073E+02 -0.11934725104E+02  0.39165989481E+02  0.10500000000E+00 0.  1.
    3000001    1    5    5    0    0  0.44944725811E+02 -0.29117399641E+02  0.17685389073E+02  0.56405889114E+02  0.10000000000E+01 0.  1.
        -13    1    6    6    0    0  0.41569399047E+01 -0.23750641536E+00  0.60541350408E+00  0.42088132745E+01  0.10500000000E+00 0. -1.
         13    1    6    6    0    0  0.18596837022E+01 -0.38803040476E-01  0.28877683981E+00  0.18852973801E+01  0.10500000000E+00 0.  1.
</event>
<event>
11    0  0.3483054E-009  0.9118800E+02  0.7816531E-02  0.1126479E+00
         25   -1    0    0    0    0  0.00000000000E+00  0.00000000000E+00  0.99999998245E-14  0.12500000000E+03  0.12500000000E+03 0.  0.
    3000001    1    3    3    0    0  0.84917857382E+01  0.32067359507E+02 -0.29602536831E+02  0.44471745610E+02  0.10000000000E+01 0.  1.
    1000022    2    1    0    0    0  0.74538444191E+01  0.47895501737E+02 -0.38166885783E+02  0.62499999821E+02  0.99999962045E+01 0.  0.
    3000022    2    3    3    0    0 -0.10379413190E+01  0.15828142230E+02 -0.85643489521E+01  0.18028254212E+02  0.24993662903E+00 0.  0.
    1000022    2    1    0    0    0 -0.74538444191E+01 -0.47895501737E+02  0.38166885783E+02  0.62500000179E+02  0.99999984368E+01 0.  0.
    3000022    2    5    5    0    0 -0.23187379096E+01 -0.28138002339E+02  0.16445681280E+02  0.32674862687E+02  0.24999554033E+00 0.  0.
        -13    1    4    4    0    0 -0.36941752966E+00  0.59242296056E+01 -0.31403936225E+01  0.67161047368E+01  0.10500000000E+00 0.  1.
         13    1    4    4    0    0 -0.66852378937E+00  0.99039126243E+01 -0.54239553297E+01  0.11312149475E+02  0.10500000000E+00 0. -1.
    3000001    1    5    5    0    0 -0.51351065095E+01 -0.19757499398E+02  0.21721204502E+02  0.29825137491E+02  0.10000000000E+01 0.  1.
        -13    1    6    6    0    0 -0.98536214889E+00 -0.12755757444E+02  0.74374172084E+01  0.14798867736E+02  0.10500000000E+00 0. -1.
         13    1    6    6    0    0 -0.13333757607E+01 -0.15382244894E+02  0.90082640721E+01  0.17875994951E+02  0.10500000000E+00 0.  1.
</event>
<event>
11    0  0.3483054E-009  0.9118800E+02  0.7816531E-02  0.1126479E+00
         25   -1    0    0    0    0  0.00000000000E+00  0.00000000000E+00  0.99999998245E-14  0.12500000000E+03  0.12500000000E+03 0.  0.
    3000001    1    3    3    0    0 -0.71583301043E+00 -0.18380314433E+02  0.14599846349E+02  0.23505401273E+02  0.10000000000E+01 0. -1.
    1000022    2    1    0    0    0  0.93458991868E+01 -0.44033149904E+02  0.42189877366E+02  0.62500000085E+02  0.10000006819E+02 0.  0.
    3000022    2    3    3    0    0  0.10061732197E+02 -0.25652835471E+02  0.27590031016E+02  0.38994598812E+02  0.25000506213E+00 0.  0.
    1000022    2    1    0    0    0 -0.93458991868E+01  0.44033149904E+02 -0.42189877366E+02  0.62499999915E+02  0.10000005758E+02 0.  0.
    3000022    2    5    5    0    0 -0.53814230776E+01  0.26952454226E+02 -0.19015724444E+02  0.33422369350E+02  0.24998733546E+00 0.  0.
        -13    1    4    4    0    0  0.60365597911E+01 -0.15476041463E+02  0.16709258448E+02  0.23561796544E+02  0.10500000000E+00 0. -1.
         13    1    4    4    0    0  0.40251724062E+01 -0.10176794008E+02  0.10880772568E+02  0.15432802269E+02  0.10500000000E+00 0.  1.
    3000001    1    5    5    0    0 -0.39644761092E+01  0.17080695679E+02 -0.23174152921E+02  0.29077630566E+02  0.10000000000E+01 0.  1.
        -13    1    6    6    0    0 -0.19404929692E+01  0.98216967054E+01 -0.68598580829E+01  0.12136717722E+02  0.10500000000E+00 0. -1.
         13    1    6    6    0    0 -0.34409301084E+01  0.17130757520E+02 -0.12155866361E+02  0.21285651628E+02  0.10500000000E+00 0.  1.
</event>
<event>
11    0  0.3483054E-009  0.9118800E+02  0.7816531E-02  0.1126479E+00
         25   -1    0    0    0    0  0.00000000000E+00  0.00000000000E+00  0.99999998245E-14  0.12500000000E+03  0.12500000000E+03 0.  0.
    3000001    1    3    3    0    0  0.45810181843E+02 -0.14296484269E+02  0.11012271401E+01  0.48012237234E+02  0.10000000000E+01 0. -1.
    1000022    2    1    0    0    0  0.57067042972E+02 -0.23320797866E+02  0.23964461353E+01  0.62499999792E+02  0.10000000665E+02 0.  0.
    3000022    2    3    3    0    0  0.11256861128E+02 -0.90243135973E+01  0.12952189952E+01  0.14487762558E+02  0.25002667603E+00 0.  0.
    1000022    2    1    0    0    0 -0.57067042972E+02  0.23320797866E+02 -0.23964461353E+01  0.62500000208E+02  0.10000003264E+02 0.  0.
    3000022    2    5    5    0    0 -0.23032072354E+02  0.49662142946E+01 -0.33915053423E+01  0.23805554795E+02  0.24997849970E+00 0.  0.
        -13    1    4    4    0    0  0.53555303736E+01 -0.43731703513E+01  0.64727484853E+00  0.69452368019E+01  0.10500000000E+00 0.  1.
         13    1    4    4    0    0  0.59013307546E+01 -0.46511432459E+01  0.64794414667E+00  0.75425257565E+01  0.10500000000E+00 0. -1.
    3000001    1    5    5    0    0 -0.34034970618E+02  0.18354583571E+02  0.99505920706E+00  0.38694445413E+02  0.10000000000E+01 0. -1.
        -13    1    6    6    0    0 -0.10081369563E+02  0.21062905316E+01 -0.14826179562E+01  0.10405750962E+02  0.10500000000E+00 0.  1.
         13    1    6    6    0    0 -0.12950702791E+02  0.28599237631E+01 -0.19088873862E+01  0.13399803833E+02  0.10500000000E+00 0. -1.
</event>
<event>
11    0  0.3483054E-009  0.9118800E+02  0.7816531E-02  0.1126479E+00
         25   -1    0    0    0    0  0.00000000000E+00  0.00000000000E+00  0.99999998245E-14  0.12500000000E+03  0.12500000000E+03 0.  0.
    3000001    1    3    3    0    0  0.10767872928E+01 -0.26271159889E+02 -0.34846257901E+01  0.26541965445E+02  0.10000000000E+01 0. -1.
    1000022    2    1    0    0    0  0.13490406095E+02 -0.59272872144E+02 -0.10534948393E+02  0.62500003388E+02  0.10000042849E+02 0.  0.
    3000022    2    3    3    0    0  0.12413618802E+02 -0.33001712255E+02 -0.70503226025E+01  0.35958037942E+02  0.25000067406E+00 0.  0.
    1000022    2    1    0    0    0 -0.13490406095E+02  0.59272872144E+02  0.10534948393E+02  0.62499996612E+02  0.10000000502E+02 0.  0.
    3000022    2    5    5    0    0 -0.10121279512E+02  0.23336522303E+02  0.29997559741E+01  0.25614343864E+02  0.25000709479E+00 0.  0.
        -13    1    4    4    0    0  0.48666448299E+01 -0.13036451043E+02 -0.28355177628E+01  0.14201565889E+02  0.10500000000E+00 0.  1.
         13    1    4    4    0    0  0.75469739721E+01 -0.19965261212E+02 -0.42148048396E+01  0.21756472054E+02  0.10500000000E+00 0. -1.
    3000001    1    5    5    0    0 -0.33691265834E+01  0.35936349841E+02  0.75351924185E+01  0.36885652748E+02  0.10000000000E+01 0.  1.
        -13    1    6    6    0    0 -0.67654778234E+01  0.15680005959E+02  0.19719950386E+01  0.17191104284E+02  0.10500000000E+00 0. -1.
         13    1    6    6    0    0 -0.33558016881E+01  0.76565163440E+01  0.10277609355E+01  0.84232395809E+01  0.10500000000E+00 0.  1.
</event>
<event>
11    0  0.3483054E-009  0.9118800E+02  0.7816531E-02  0.1126479E+00
         25   -1    0    0    0    0  0.00000000000E+00  0.00000000000E+00  0.99999998245E-14  0.12500000000E+03  0.12500000000E+03 0.  0.
    3000001    1    3    3    0    0 -0.17104672247E+01  0.84640740348E-01 -0.64337969899E+01  0.67325036865E+01  0.10000000000E+01 0.  1.
    1000022    2    1    0    0    0 -0.32005586057E+01 -0.23354550998E+02 -0.57013781336E+02  0.62499997774E+02  0.99999915911E+01 0.  0.
    3000022    2    3    3    0    0 -0.14900913810E+01 -0.23439191738E+02 -0.50579984347E+02  0.55767494088E+02  0.24999736972E+00 0.  0.
    1000022    2    1    0    0    0  0.32005586057E+01  0.23354550998E+02  0.57013781336E+02  0.62500002226E+02  0.10000019412E+02 0.  0.
    3000022    2    5    5    0    0 -0.15689475162E+01  0.16415302345E+02  0.30638286730E+02  0.34794983254E+02  0.24999694967E+00 0.  0.
        -13    1    4    4    0    0 -0.59577474373E+00 -0.84568078620E+01 -0.18246423024E+02  0.20120027955E+02  0.10500000000E+00 0. -1.
         13    1    4    4    0    0 -0.89431663725E+00 -0.14982383876E+02 -0.32333561323E+02  0.35647466132E+02  0.10500000000E+00 0.  1.
    3000001    1    5    5    0    0  0.47695061219E+01  0.69392486524E+01  0.26375494606E+02  0.27705018972E+02  0.10000000000E+01 0. -1.
        -13    1    6    6    0    0 -0.66799550681E+00  0.63597996865E+01  0.11849715990E+02  0.13465513881E+02  0.10500000000E+00 0.  1.
         13    1    6    6    0    0 -0.90095200943E+00  0.10055502659E+02  0.18788570740E+02  0.21329469372E+02  0.10500000000E+00 0. -1.
</event>
<event>
11    0  0.3483054E-009  0.9118800E+02  0.7816531E-02  0.1126479E+00
         25   -1    0    0    0    0  0.00000000000E+00  0.00000000000E+00  0.99999998245E-14  0.12500000000E+03  0.12500000000E+03 0.  0.
    3000001    1    3    3    0    0  0.33630223343E+02  0.32390798302E+01 -0.98117296071E+01  0.35195931556E+02  0.10000000000E+01 0.  1.
    1000022    2    1    0    0    0  0.60907278211E+02  0.20687996144E+01 -0.96059075745E+01  0.62499999806E+02  0.10000002222E+02 0.  0.
    3000022    2    3    3    0    0  0.27277054869E+02 -0.11702802158E+01  0.20582203259E+00  0.27304068250E+02  0.25000436759E+00 0.  0.
    1000022    2    1    0    0    0 -0.60907278211E+02 -0.20687996144E+01  0.96059075745E+01  0.62500000194E+02  0.10000004648E+02 0.  0.
    3000022    2    5    5    0    0 -0.39378353721E+02  0.18754274357E+01  0.26520540460E+01  0.39512882158E+02  0.24999174769E+00 0.  0.
        -13    1    4    4    0    0  0.87392472454E+01 -0.38310846731E+00  0.11613101225E+00  0.87490414290E+01  0.10500000000E+00 0.  1.
         13    1    4    4    0    0  0.18537807623E+02 -0.78717174851E+00  0.89691020337E-01  0.18555026821E+02  0.10500000000E+00 0. -1.
    3000001    1    5    5    0    0 -0.21528924490E+02 -0.39442270501E+01  0.69538535285E+01  0.22987118036E+02  0.10000000000E+01 0. -1.
        -13    1    6    6    0    0 -0.13644271250E+02  0.67896808344E+00  0.87117424825E+00  0.13689306235E+02  0.10500000000E+00 0.  1.
         13    1    6    6    0    0 -0.25734082471E+02  0.11964593523E+01  0.17808797977E+01  0.25823575923E+02  0.10500000000E+00 0. -1.
</event>
<event>
11    0  0.3483054E-009  0.9118800E+02  0.7816531E-02  0.1126479E+00
         25   -1    0    0    0    0  0.00000000000E+00  0.00000000000E+00  0.99999998245E-14  0.12500000000E+03  0.12500000000E+03 0.  0.
    3000001    1    3    3    0    0 -0.25083679451E+02 -0.13894193131E+02 -0.28139266726E+02  0.40187783087E+02  0.10000000000E+01 0. -1.
    1000022    2    1    0    0    0 -0.38286240074E+02 -0.27706667378E+02 -0.39657967669E+02  0.62499999782E+02  0.99999988461E+01 0.  0.
    3000022    2    3    3    0    0 -0.13202560623E+02 -0.13812474247E+02 -0.11518700943E+02  0.22312216695E+02  0.24998122318E+00 0.  0.
    1000022    2    1    0    0    0  0.38286240074E+02  0.27706667378E+02  0.39657967669E+02  0.62500000218E+02  0.10000001569E+02 0.  0.
    3000022    2    5    5    0    0  0.29366726812E+02  0.15883586519E+02  0.29029775376E+02  0.44243455384E+02  0.25004323514E+00 0.  0.
        -13    1    4    4    0    0 -0.55269381142E+01 -0.57161218891E+01 -0.48464883760E+01  0.93123879294E+01  0.10500000000E+00 0. -1.
         13    1    4    4    0    0 -0.76756225088E+01 -0.80963523576E+01 -0.66722125669E+01  0.12999828766E+02  0.10500000000E+00 0.  1.
    3000001    1    5    5    0    0  0.89195132623E+01  0.11823080860E+02  0.10628192293E+02  0.18256544834E+02  0.10000000000E+01 0. -1.
        -13    1    6    6    0    0  0.12835797493E+02  0.69606008759E+01  0.12781027092E+02  0.19405497684E+02  0.10500000000E+00 0. -1.
         13    1    6    6    0    0  0.16530929319E+02  0.89229856426E+01  0.16248748284E+02  0.24837957700E+02  0.10500000000E+00 0.  1.
</event>
<event>
11    0  0.3483054E-009  0.9118800E+02  0.7816531E-02  0.1126479E+00
         25   -1    0    0    0    0  0.00000000000E+00  0.00000000000E+00  0.99999998245E-14  0.12500000000E+03  0.12500000000E+03 0.  0.
    3000001    1    3    3    0    0 -0.19115720321E+02 -0.37508023319E+02 -0.10686970495E+02  0.43445067787E+02  0.10000000000E+01 0.  1.
    1000022    2    1    0    0    0 -0.32397002092E+02 -0.51100321325E+02 -0.12059911563E+02  0.62500000912E+02  0.10000003152E+02 0.  0.
    3000022    2    3    3    0    0 -0.13281281771E+02 -0.13592298006E+02 -0.13729410684E+01  0.19054933125E+02  0.24999730017E+00 0.  0.
    1000022    2    1    0    0    0  0.32397002092E+02  0.51100321325E+02  0.12059911563E+02  0.62499999088E+02  0.99999917529E+01 0.  0.
    3000022    2    5    5    0    0  0.24369598274E+02  0.44635560286E+02  0.85701727976E+01  0.51572482262E+02  0.25000551698E+00 0.  0.
        -13    1    4    4    0    0 -0.55890637656E+01 -0.56677050842E+01 -0.62865801959E+00  0.79854086059E+01  0.10500000000E+00 0. -1.
         13    1    4    4    0    0 -0.76922180056E+01 -0.79245929220E+01 -0.74428304879E+00  0.11069524519E+02  0.10500000000E+00 0.  1.
    3000001    1    5    5    0    0  0.80274038174E+01  0.64647610389E+01  0.34897387656E+01  0.10927516826E+02  0.10000000000E+01 0.  1.
        -13    1    6    6    0    0  0.12424618587E+02  0.22890564727E+02  0.43665626822E+01  0.26408843125E+02  0.10500000000E+00 0.  1.
         13    1    6    6    0    0  0.11944979688E+02  0.21744995559E+02  0.42036101154E+01  0.25163639137E+02  0.10500000000E+00 0. -1.
</event>
<event>
11    0  0.3483054E-009  0.9118800E+02  0.7816531E-02  0.1126479E+00
         25   -1    0    0    0    0  0.00000000000E+00  0.00000000000E+00  0.99999998245E-14  0.12500000000E+03  0.12500000000E+03 0.  0.
    3000001    1    3    3    0    0 -0.25281126857E+02 -0.25135732990E+02  0.29407429537E+02  0.46224856517E+02  0.10000000000E+01 0. -1.
    1000022    2    1    0    0    0 -0.29405578370E+02 -0.37392319941E+02  0.39285827652E+02  0.62499999332E+02  0.10000001619E+02 0.  0.
    3000022    2    3    3    0    0 -0.41244515125E+01 -0.12256586951E+02  0.98783981148E+01  0.16275142814E+02  0.25000068099E+00 0.  0.
    1000022    2    1    0    0    0  0.29405578370E+02  0.37392319941E+02 -0.39285827652E+02  0.62500000668E+02  0.10000009973E+02 0.  0.
    3000022    2    5    5    0    0  0.11120984822E+02  0.16965391068E+02 -0.10923091687E+02  0.23040773917E+02  0.25006640696E+00 0.  0.
        -13    1    4    4    0    0 -0.30914731551E+01 -0.92443822239E+01  0.74645371405E+01  0.12277872319E+02  0.10500000000E+00 0.  1.
         13    1    4    4    0    0 -0.10329783575E+01 -0.30122047272E+01  0.24138609743E+01  0.39972704948E+01  0.10500000000E+00 0. -1.
    3000001    1    5    5    0    0  0.18284593548E+02  0.20426928873E+02 -0.28362735965E+02  0.39459226751E+02  0.10000000000E+01 0. -1.
        -13    1    6    6    0    0  0.83514814632E+01  0.12725222037E+02 -0.82238951182E+01  0.17300924670E+02  0.10500000000E+00 0. -1.
         13    1    6    6    0    0  0.27695033584E+01  0.42401690313E+01 -0.26991965686E+01  0.57398492473E+01  0.10500000000E+00 0.  1.
</event>
<event>
11    0  0.3483054E-009  0.9118800E+02  0.7816531E-02  0.1126479E+00
         25   -1    0    0    0    0  0.00000000000E+00  0.00000000000E+00  0.99999998245E-14  0.12500000000E+03  0.12500000000E+03 0.  0.
    3000001    1    3    3    0    0  0.29111228347E+02 -0.17556886787E+02  0.10768150369E+02  0.35674373883E+02  0.10000000000E+01 0.  1.
    1000022    2    1    0    0    0  0.54675296798E+02 -0.25244631442E+02  0.13400390580E+02  0.62499999792E+02  0.10000000488E+02 0.  0.
    3000022    2    3    3    0    0  0.25564068450E+02 -0.76877446550E+01  0.26322402107E+01  0.26825625910E+02  0.25000659615E+00 0.  0.
    1000022    2    1    0    0    0 -0.54675296798E+02  0.25244631442E+02 -0.13400390580E+02  0.62500000208E+02  0.10000003087E+02 0.  0.
    3000022    2    5    5    0    0 -0.31065884768E+02  0.10488100077E+02 -0.36895199583E+01  0.32996431567E+02  0.24999797848E+00 0.  0.
        -13    1    4    4    0    0  0.92365907292E+01 -0.27343783493E+01  0.99094787756E+00  0.96842364672E+01  0.10500000000E+00 0.  1.
         13    1    4    4    0    0  0.16327477721E+02 -0.49533663058E+01  0.16412923331E+01  0.17141389442E+02  0.10500000000E+00 0. -1.
    3000001    1    5    5    0    0 -0.23609412029E+02  0.14756531365E+02 -0.97108706213E+01  0.29503568641E+02  0.10000000000E+01 0. -1.
        -13    1    6    6    0    0 -0.10120748394E+02  0.34276503767E+01 -0.12537270211E+01  0.10759237501E+02  0.10500000000E+00 0.  1.
         13    1    6    6    0    0 -0.20945136375E+02  0.70604497002E+01 -0.24357929372E+01  0.22237194067E+02  0.10500000000E+00 0. -1.
</event>
<event>
11    0  0.3483054E-009  0.9118800E+02  0.7816531E-02  0.1126479E+00
         25   -1    0    0    0    0  0.00000000000E+00  0.00000000000E+00  0.99999998245E-14  0.12500000000E+03  0.12500000000E+03 0.  0.
    3000001    1    3    3    0    0 -0.56062382243E+01  0.15090293326E+02 -0.45587430018E+01  0.16760936652E+02  0.10000000000E+01 0.  1.
    1000022    2    1    0    0    0 -0.30434656989E+02  0.53501423639E+02 -0.41927494030E+01  0.62499998327E+02  0.99999982931E+01 0.  0.
    3000022    2    3    3    0    0 -0.24828418765E+02  0.38411130313E+02  0.36599359875E+00  0.45739061675E+02  0.25000262607E+00 0.  0.
    1000022    2    1    0    0    0  0.30434656989E+02 -0.53501423639E+02  0.41927494030E+01  0.62500001673E+02  0.10000019210E+02 0.  0.
    3000022    2    5    5    0    0  0.62647782728E+01 -0.46846131114E+01 -0.30789080410E+00  0.78326458794E+01  0.24999582924E+00 0.  0.
        -13    1    4    4    0    0 -0.75514339244E+01  0.11641898823E+02  0.15224894194E+00  0.13877758006E+02  0.10500000000E+00 0. -1.
         13    1    4    4    0    0 -0.17276984841E+02  0.26769231490E+02  0.21374465682E+00  0.31861303669E+02  0.10500000000E+00 0.  1.
    3000001    1    5    5    0    0  0.24169878716E+02 -0.48816810527E+02  0.45006402071E+01  0.54667355794E+02  0.10000000000E+01 0. -1.
        -13    1    6    6    0    0  0.26250292127E+01 -0.18892061835E+01 -0.15273820590E+00  0.32394802563E+01  0.10500000000E+00 0.  1.
         13    1    6    6    0    0  0.36397490601E+01 -0.27954069279E+01 -0.15515259820E+00  0.45931656232E+01  0.10500000000E+00 0.  1.
</event>
<event>
11    0  0.3483054E-009  0.9118800E+02  0.7816531E-02  0.1126479E+00
         25   -1    0    0    0    0  0.00000000000E+00  0.00000000000E+00  0.99999998245E-14  0.12500000000E+03  0.12500000000E+03 0.  0.
    3000001    1    3    3    0    0 -0.60629231979E+00  0.59832035289E+01 -0.49863846991E+01  0.78759346882E+01  0.10000000000E+01 0.  1.
    1000022    2    1    0    0    0 -0.24709677101E+02  0.50987786131E+02 -0.24411631952E+02  0.62499998552E+02  0.99999783739E+01 0.  0.
    3000022    2    3    3    0    0 -0.24103384781E+02  0.45004582602E+02 -0.19425247253E+02  0.54624063864E+02  0.25001814961E+00 0.  0.
    1000022    2    1    0    0    0  0.24709677101E+02 -0.50987786131E+02  0.24411631952E+02  0.62500001448E+02  0.99999964750E+01 0.  0.
    3000022    2    5    5    0    0  0.18675055530E+02 -0.33112470190E+02  0.11882984960E+02  0.39830405666E+02  0.25000557059E+00 0.  0.
        -13    1    4    4    0    0 -0.75634396596E+01  0.14027073100E+02 -0.60847116485E+01  0.17058696904E+02  0.10500000000E+00 0.  1.
         13    1    4    4    0    0 -0.16539945121E+02  0.30977509502E+02 -0.13340535605E+02  0.37565366959E+02  0.10500000000E+00 0. -1.
    3000001    1    5    5    0    0  0.60346215703E+01 -0.17875315941E+02  0.12528646992E+02  0.22669595783E+02  0.10000000000E+01 0. -1.
        -13    1    6    6    0    0  0.11025909141E+02 -0.19452710648E+02  0.69444177374E+01  0.23413982717E+02  0.10500000000E+00 0. -1.
         13    1    6    6    0    0  0.76491463897E+01 -0.13659759541E+02  0.49385672224E+01  0.16416422949E+02  0.10500000000E+00 0.  1.
</event>
<event>
11    0  0.3483054E-009  0.9118800E+02  0.7816531E-02  0.1126479E+00
         25   -1    0    0    0    0  0.00000000000E+00  0.00000000000E+00  0.99999998245E-14  0.12500000000E+03  0.12500000000E+03 0.  0.
    3000001    1    3    3    0    0  0.89980363430E+01  0.46101690477E+01  0.12281071445E+02  0.15938727443E+02  0.10000000000E+01 0. -1.
    1000022    2    1    0    0    0  0.30930927655E+02  0.33009611653E+02  0.41951081752E+02  0.62499999712E+02  0.99999978377E+01 0.  0.
    3000022    2    3    3    0    0  0.21932891312E+02  0.28399442606E+02  0.29670010307E+02  0.46561272268E+02  0.25000410553E+00 0.  0.
    1000022    2    1    0    0    0 -0.30930927655E+02 -0.33009611653E+02 -0.41951081752E+02  0.62500000288E+02  0.10000001442E+02 0.  0.
    3000022    2    5    5    0    0 -0.12775509098E+02 -0.20806152040E+02 -0.22873252231E+02  0.33456804378E+02  0.24999223669E+00 0.  0.
        -13    1    4    4    0    0  0.14389968816E+02  0.18720628294E+02  0.19539242082E+02  0.30648427894E+02  0.10500000000E+00 0. -1.
         13    1    4    4    0    0  0.75429224961E+01  0.96788143115E+01  0.10130768225E+02  0.15912844375E+02  0.10500000000E+00 0.  1.
    3000001    1    5    5    0    0 -0.18155418556E+02 -0.12203459613E+02 -0.19077829521E+02  0.29043195911E+02  0.10000000000E+01 0.  1.
        -13    1    6    6    0    0 -0.45426780933E+01 -0.72923390739E+01 -0.80664013481E+01  0.11785244551E+02  0.10500000000E+00 0.  1.
         13    1    6    6    0    0 -0.82328310050E+01 -0.13513812966E+02 -0.14806850883E+02  0.21671559826E+02  0.10500000000E+00 0. -1.
</event>
<event>
11    0  0.3483054E-009  0.9118800E+02  0.7816531E-02  0.1126479E+00
         25   -1    0    0    0    0  0.00000000000E+00  0.00000000000E+00  0.99999998245E-14  0.12500000000E+03  0.12500000000E+03 0.  0.
    3000001    1    3    3    0    0 -0.50049177548E+01 -0.49300869306E+01  0.28946757521E+00  0.71020243841E+01  0.10000000000E+01 0.  1.
    1000022    2    1    0    0    0 -0.30304838588E+02 -0.47564028414E+02  0.25010595837E+02  0.62499999528E+02  0.99999998013E+01 0.  0.
    3000022    2    3    3    0    0 -0.25299920833E+02 -0.42633941484E+02  0.24721128262E+02  0.55397975144E+02  0.25001378438E+00 0.  0.
    1000022    2    1    0    0    0  0.30304838588E+02  0.47564028414E+02 -0.25010595837E+02  0.62500000472E+02  0.10000005700E+02 0.  0.
    3000022    2    5    5    0    0  0.13353457613E+02  0.29947667598E+02 -0.13532517660E+02  0.35473499329E+02  0.24999130198E+00 0.  0.
        -13    1    4    4    0    0 -0.58139996321E+01 -0.97900588201E+01  0.56830121441E+01  0.12726173638E+02  0.10500000000E+00 0. -1.
         13    1    4    4    0    0 -0.19485921201E+02 -0.32843882664E+02  0.19038116118E+02  0.42671801506E+02  0.10500000000E+00 0.  1.
    3000001    1    5    5    0    0  0.16951380975E+02  0.17616360817E+02 -0.11478078178E+02  0.27026501143E+02  0.10000000000E+01 0. -1.
        -13    1    6    6    0    0  0.97671336636E+01  0.21852653272E+02 -0.98468728790E+01  0.25882567213E+02  0.10500000000E+00 0.  1.
         13    1    6    6    0    0  0.35863239491E+01  0.80950143259E+01 -0.36856447806E+01  0.95909321160E+01  0.10500000000E+00 0. -1.
</event>
<event>
11    0  0.3483054E-009  0.9118800E+02  0.7816531E-02  0.1126479E+00
         25   -1    0    0    0    0  0.00000000000E+00  0.00000000000E+00  0.99999998245E-14  0.12500000000E+03  0.12500000000E+03 0.  0.
    3000001    1    3    3    0    0  0.15552033181E+02  0.45460629508E+02 -0.10416257844E+02  0.49173498948E+02  0.10000000000E+01 0. -1.
    1000022    2    1    0    0    0  0.15944575896E+02  0.58769334237E+02 -0.99088798015E+01  0.62500000375E+02  0.10000000036E+02 0.  0.
    3000022    2    3    3    0    0  0.39254271481E+00  0.13308704729E+02  0.50737804209E+00  0.13326501427E+02  0.24999287939E+00 0.  0.
    1000022    2    1    0    0    0 -0.15944575896E+02 -0.58769334237E+02  0.99088798015E+01  0.62499999625E+02  0.99999953521E+01 0.  0.
    3000022    2    5    5    0    0 -0.44627486316E+01 -0.34918208467E+02  0.49361151671E+01  0.35547505382E+02  0.24999604757E+00 0.  0.
        -13    1    4    4    0    0  0.21020369778E+00  0.80048986271E+01  0.36249615356E+00  0.80165463939E+01  0.10500000000E+00 0.  1.
         13    1    4    4    0    0  0.18233901703E+00  0.53038061023E+01  0.14488188853E+00  0.53099550328E+01  0.10500000000E+00 0. -1.
    3000001    1    5    5    0    0 -0.11481827265E+02 -0.23851125770E+02  0.49727646344E+01  0.26952494244E+02  0.10000000000E+01 0. -1.
        -13    1    6    6    0    0 -0.14971662227E+01 -0.11449486654E+02  0.15784860498E+01  0.11654822803E+02  0.10500000000E+00 0. -1.
         13    1    6    6    0    0 -0.29655824089E+01 -0.23468721813E+02  0.33576291173E+01  0.23892682579E+02  0.10500000000E+00 0.  1.
</event>
<event>
11    0  0.3483054E-009  0.9118800E+02  0.7816531E-02  0.1126479E+00
         25   -1    0    0    0    0  0.00000000000E+00  0.00000000000E+00  0.99999998245E-14  0.12500000000E+03  0.12500000000E+03 0.  0.
    3000001    1    3    3    0    0  0.39913109867E+02 -0.71995679816E+00 -0.32491677483E+02  0.51480906972E+02  0.10000000000E+01 0.  1.
    1000022    2    1    0    0    0  0.46014290247E+02 -0.44983958867E+01 -0.40849719010E+02  0.62499997749E+02  0.99999851477E+01 0.  0.
    3000022    2    3    3    0    0  0.61011803794E+01 -0.37784390885E+01 -0.83580415274E+01  0.11019090776E+02  0.24999879703E+00 0.  0.
    1000022    2    1    0    0    0 -0.46014290247E+02  0.44983958867E+01  0.40849719010E+02  0.62500002251E+02  0.10000013285E+02 0.  0.
    3000022    2    5    5    0    0 -0.14512179579E+02  0.58392613342E+01  0.11556460581E+02  0.19450311357E+02  0.25000332592E+00 0.  0.
        -13    1    4    4    0    0  0.42075591146E+01 -0.26419286078E+01 -0.58404774137E+01  0.76684771560E+01  0.10500000000E+00 0.  1.
         13    1    4    4    0    0  0.18936212648E+01 -0.11365104807E+01 -0.25175641138E+01  0.33506136205E+01  0.10500000000E+00 0. -1.
    3000001    1    5    5    0    0 -0.31502110667E+02 -0.13408654475E+01  0.29293258430E+02  0.43049690894E+02  0.10000000000E+01 0.  1.
        -13    1    6    6    0    0 -0.97195387768E+01  0.39504074481E+01  0.77974113792E+01  0.13072329642E+02  0.10500000000E+00 0.  1.
         13    1    6    6    0    0 -0.47926408026E+01  0.18888538860E+01  0.37590492014E+01  0.63779817156E+01  0.10500000000E+00 0. -1.
</event>
<event>
11    0  0.3483054E-009  0.9118800E+02  0.7816531E-02  0.1126479E+00
         25   -1    0    0    0    0  0.00000000000E+00  0.00000000000E+00  0.99999998245E-14  0.12500000000E+03  0.12500000000E+03 0.  0.
    3000001    1    3    3    0    0  0.35902037610E+02  0.36916548755E+02 -0.18888784711E+02  0.54859584982E+02  0.10000000000E+01 0.  1.
    1000022    2    1    0    0    0  0.40193223963E+02  0.39911768628E+02 -0.24450063000E+02  0.62499999676E+02  0.99999925602E+01 0.  0.
    3000022    2    3    3    0    0  0.42911863531E+01  0.29952198736E+01 -0.55612782895E+01  0.76404146944E+01  0.24999616315E+00 0.  0.
    1000022    2    1    0    0    0 -0.40193223963E+02 -0.39911768628E+02  0.24450063000E+02  0.62500000324E+02  0.99999966082E+01 0.  0.
    3000022    2    5    5    0    0 -0.39400702951E+02 -0.39193196823E+02  0.24995485398E+02  0.60937335745E+02  0.25005433626E+00 0.  0.
        -13    1    4    4    0    0  0.98899802662E+00  0.70353617211E+00 -0.12920371834E+01  0.17757999114E+01  0.10500000000E+00 0.  1.
         13    1    4    4    0    0  0.33021883264E+01  0.22916837015E+01 -0.42692411060E+01  0.58646147830E+01  0.10500000000E+00 0. -1.
    3000001    1    5    5    0    0 -0.79252101190E+00 -0.71857180536E+00 -0.54542239767E+00  0.15626645787E+01  0.10000000000E+01 0. -1.
        -13    1    6    6    0    0 -0.24438473192E+02 -0.24349914432E+02  0.15575134056E+02  0.37851725597E+02  0.10500000000E+00 0. -1.
         13    1    6    6    0    0 -0.14962229759E+02 -0.14843282391E+02  0.94203513421E+01  0.23085610148E+02  0.10500000000E+00 0.  1.
</event>
<event>
11    0  0.3483054E-009  0.9118800E+02  0.7816531E-02  0.1126479E+00
         25   -1    0    0    0    0  0.00000000000E+00  0.00000000000E+00  0.99999998245E-14  0.12500000000E+03  0.12500000000E+03 0.  0.
    3000001    1    3    3    0    0 -0.48443591552E+02  0.16023977096E+02 -0.24248606339E+02  0.56502604486E+02  0.10000000000E+01 0. -1.
    1000022    2    1    0    0    0 -0.54319392696E+02  0.15143201049E+02 -0.25026729105E+02  0.62500000913E+02  0.99999991738E+01 0.  0.
    3000022    2    3    3    0    0 -0.58758011445E+01 -0.88077604653E+00 -0.77812276646E+00  0.59973964261E+01  0.24996663461E+00 0.  0.
    1000022    2    1    0    0    0  0.54319392696E+02 -0.15143201049E+02  0.25026729105E+02  0.62499999087E+02  0.99999877671E+01 0.  0.
    3000022    2    5    5    0    0  0.34262126487E+01  0.13974160861E+01  0.10684303581E+01  0.38595022494E+01  0.25001870330E+00 0.  0.
        -13    1    4    4    0    0 -0.22633421464E+01 -0.28635144669E+00 -0.33100413670E+00  0.23076619252E+01  0.10500000000E+00 0.  1.
         13    1    4    4    0    0 -0.36124589981E+01 -0.59442459984E+00 -0.44711862976E+00  0.36897345009E+01  0.10500000000E+00 0. -1.
    3000001    1    5    5    0    0  0.50893180048E+02 -0.16540617135E+02  0.23958298747E+02  0.58640496838E+02  0.10000000000E+01 0. -1.
        -13    1    6    6    0    0  0.19488088229E+01  0.80151540906E+00  0.67606058849E+00  0.22154831749E+01  0.10500000000E+00 0. -1.
         13    1    6    6    0    0  0.14774038258E+01  0.59590067701E+00  0.39236976956E+00  0.16440190745E+01  0.10500000000E+00 0.  1.
</event>
<event>
11    0  0.3483054E-009  0.9118800E+02  0.7816531E-02  0.1126479E+00
         25   -1    0    0    0    0  0.00000000000E+00  0.00000000000E+00  0.99999998245E-14  0.12500000000E+03  0.12500000000E+03 0.  0.
    3000001    1    3    3    0    0  0.23081345014E+02  0.33215557694E+01 -0.41461211132E+02  0.47579546539E+02  0.10000000000E+01 0.  1.
    1000022    2    1    0    0    0  0.25518628112E+02  0.68446704327E+01 -0.55751233522E+02  0.62499999875E+02  0.10000002555E+02 0.  0.
    3000022    2    3    3    0    0  0.24372830972E+01  0.35231146632E+01 -0.14290022390E+02  0.14920453335E+02  0.25000398144E+00 0.  0.
    1000022    2    1    0    0    0 -0.25518628112E+02 -0.68446704327E+01  0.55751233522E+02  0.62500000125E+02  0.10000004121E+02 0.  0.
    3000022    2    5    5    0    0 -0.29383384055E+01 -0.28201766528E+01  0.16782098350E+02  0.17271032313E+02  0.25000632194E+00 0.  0.
        -13    1    4    4    0    0  0.10104980271E+01  0.13880000972E+01 -0.55642145173E+01  0.58240156874E+01  0.10500000000E+00 0.  1.
         13    1    4    4    0    0  0.14267850701E+01  0.21351145661E+01 -0.87258078729E+01  0.90964376479E+01  0.10500000000E+00 0. -1.
    3000001    1    5    5    0    0 -0.22580289706E+02 -0.40244937799E+01  0.38969135171E+02  0.45228967813E+02  0.10000000000E+01 0. -1.
        -13    1    6    6    0    0 -0.93124362771E+00 -0.87790450071E+00  0.54889805329E+01  0.56371857604E+01  0.10500000000E+00 0.  1.
         13    1    6    6    0    0 -0.20070947777E+01 -0.19422721521E+01  0.11293117817E+02  0.11633846552E+02  0.10500000000E+00 0. -1.
</event>
<event>
11    0  0.3483054E-009  0.9118800E+02  0.7816531E-02  0.1126479E+00
         25   -1    0    0    0    0  0.00000000000E+00  0.00000000000E+00  0.99999998245E-14  0.12500000000E+03  0.12500000000E+03 0.  0.
    3000001    1    3    3    0    0  0.15569713577E+02  0.23659153142E+01 -0.45692021851E+02  0.48340194425E+02  0.10000000000E+01 0. -1.
    1000022    2    1    0    0    0  0.16759692114E+02  0.72362701306E+01 -0.58932157343E+02  0.62500000030E+02  0.99999974723E+01 0.  0.
    3000022    2    3    3    0    0  0.11899785370E+01  0.48703548164E+01 -0.13240135492E+02  0.14159805605E+02  0.25000395759E+00 0.  0.
    1000022    2    1    0    0    0 -0.16759692114E+02 -0.72362701306E+01  0.58932157343E+02  0.62499999970E+02  0.99999971010E+01 0.  0.
    3000022    2    5    5    0    0 -0.91677898909E+01 -0.90940123334E+01  0.37900804284E+02  0.40041015199E+02  0.25000199482E+00 0.  0.
        -13    1    4    4    0    0  0.36715289735E+00  0.15119302722E+01 -0.39781982946E+01  0.42729171615E+01  0.10500000000E+00 0.  1.
         13    1    4    4    0    0  0.82282563962E+00  0.33584245442E+01 -0.92619371970E+01  0.98868884434E+01  0.10500000000E+00 0. -1.
    3000001    1    5    5    0    0 -0.75919022231E+01  0.18577422028E+01  0.21031353059E+02  0.22458984771E+02  0.10000000000E+01 0.  1.
        -13    1    6    6    0    0 -0.65286999227E+01 -0.64976178563E+01  0.26910708025E+02  0.28443631834E+02  0.10500000000E+00 0. -1.
         13    1    6    6    0    0 -0.26390899682E+01 -0.25963944771E+01  0.10990096259E+02  0.11597383366E+02  0.10500000000E+00 0.  1.
</event>
<event>
11    0  0.3483054E-009  0.9118800E+02  0.7816531E-02  0.1126479E+00
         25   -1    0    0    0    0  0.00000000000E+00  0.00000000000E+00  0.99999998245E-14  0.12500000000E+03  0.12500000000E+03 0.  0.
    3000001    1    3    3    0    0  0.43275252079E+02 -0.16282385680E+02 -0.22134071458E+02  0.51271635874E+02  0.10000000000E+01 0.  1.
    1000022    2    1    0    0    0  0.53244669257E+02 -0.21417466920E+02 -0.22639522148E+02  0.62500007193E+02  0.10000012125E+02 0.  0.
    3000022    2    3    3    0    0  0.99694171781E+01 -0.51350812399E+01 -0.50545069033E+00  0.11228371319E+02  0.25000773055E+00 0.  0.
    1000022    2    1    0    0    0 -0.53244669257E+02  0.21417466920E+02  0.22639522148E+02  0.62499992807E+02  0.99999222083E+01 0.  0.
    3000022    2    5    5    0    0 -0.17650406630E+02  0.10893929355E+02  0.47296828817E+01  0.21275501089E+02  0.24999084744E+00 0.  0.
        -13    1    4    4    0    0  0.31658739924E+01 -0.15802114846E+01 -0.18099783738E+00  0.35445185412E+01  0.10500000000E+00 0. -1.
         13    1    4    4    0    0  0.68035431857E+01 -0.35548697553E+01 -0.32445285295E+00  0.76838527778E+01  0.10500000000E+00 0. -1.
    3000001    1    5    5    0    0 -0.35594262627E+02  0.10523537565E+02  0.17909839266E+02  0.41224491718E+02  0.10000000000E+01 0. -1.
        -13    1    6    6    0    0 -0.10064934236E+02  0.61973074551E+01  0.26292697670E+01  0.12109236366E+02  0.10500000000E+00 0. -1.
         13    1    6    6    0    0 -0.75854723946E+01  0.46966218998E+01  0.21004131147E+01  0.91662647229E+01  0.10500000000E+00 0.  1.
</event>
<event>
11    0  0.3483054E-009  0.9118800E+02  0.7816531E-02  0.1126479E+00
         25   -1    0    0    0    0  0.00000000000E+00  0.00000000000E+00  0.99999998245E-14  0.12500000000E+03  0.12500000000E+03 0.  0.
    3000001    1    3    3    0    0 -0.82516545104E+01 -0.19358126419E+01 -0.40562394936E+01  0.94493519129E+01  0.10000000000E+01 0.  1.
    1000022    2    1    0    0    0 -0.40761656786E+02 -0.10996580543E+02 -0.44986804381E+02  0.62500001308E+02  0.10000007373E+02 0.  0.
    3000022    2    3    3    0    0 -0.32510002276E+02 -0.90607679009E+01 -0.40930564887E+02  0.53050649395E+02  0.24999260080E+00 0.  0.
    1000022    2    1    0    0    0  0.40761656786E+02  0.10996580543E+02  0.44986804381E+02  0.62499998692E+02  0.99999910272E+01 0.  0.
    3000022    2    5    5    0    0  0.35057578174E+02  0.66043335698E+01  0.40439147478E+02  0.53926228834E+02  0.24999625168E+00 0.  0.
        -13    1    4    4    0    0 -0.24696043046E+02 -0.68930726878E+01 -0.31122090582E+02  0.40323746606E+02  0.10500000000E+00 0. -1.
         13    1    4    4    0    0 -0.78139592300E+01 -0.21676952131E+01 -0.98084743054E+01  0.12726902788E+02  0.10500000000E+00 0.  1.
    3000001    1    5    5    0    0  0.57040786121E+01  0.43922469730E+01  0.45476569029E+01  0.85737698588E+01  0.10000000000E+01 0.  1.
        -13    1    6    6    0    0  0.26163047922E+02  0.49028457620E+01  0.30192778466E+02  0.40251184699E+02  0.10500000000E+00 0.  1.
         13    1    6    6    0    0  0.88945302519E+01  0.17014878078E+01  0.10246369011E+02  0.13675044134E+02  0.10500000000E+00 0. -1.
</event>
<event>
11    0  0.3483054E-009  0.9118800E+02  0.7816531E-02  0.1126479E+00
         25   -1    0    0    0    0  0.00000000000E+00  0.00000000000E+00  0.99999998245E-14  0.12500000000E+03  0.12500000000E+03 0.  0.
    3000001    1    3    3    0    0  0.34020023430E+02 -0.33534598368E+02 -0.31664872412E+02  0.57320113632E+02  0.10000000000E+01 0.  1.
    1000022    2    1    0    0    0  0.38039408243E+02 -0.36792070802E+02 -0.31711148200E+02  0.62499999916E+02  0.10000000801E+02 0.  0.
    3000022    2    3    3    0    0  0.40193848134E+01 -0.32574724339E+01 -0.46275787222E-01  0.51798862846E+01  0.24999907381E+00 0.  0.
    1000022    2    1    0    0    0 -0.38039408243E+02  0.36792070802E+02  0.31711148200E+02  0.62500000084E+02  0.10000001849E+02 0.  0.
    3000022    2    5    5    0    0 -0.36131332729E+02  0.31941893912E+02  0.26347797122E+02  0.54954769616E+02  0.24999785145E+00 0.  0.
        -13    1    4    4    0    0  0.24544446884E+01 -0.19183212461E+01  0.24872473080E-02  0.31169354048E+01  0.10500000000E+00 0.  1.
         13    1    4    4    0    0  0.15649401250E+01 -0.13391511878E+01 -0.48763034530E-01  0.20629508798E+01  0.10500000000E+00 0. -1.
    3000001    1    5    5    0    0 -0.19080755145E+01  0.48501768896E+01  0.53633510779E+01  0.75452304679E+01  0.10000000000E+01 0. -1.
        -13    1    6    6    0    0 -0.18893444804E+02  0.16743345149E+02  0.13723459307E+02  0.28734060341E+02  0.10500000000E+00 0.  1.
         13    1    6    6    0    0 -0.17237887925E+02  0.15198548763E+02  0.12624337815E+02  0.26220709275E+02  0.10500000000E+00 0. -1.
</event>
<event>
11    0  0.3483054E-009  0.9118800E+02  0.7816531E-02  0.1126479E+00
         25   -1    0    0    0    0  0.00000000000E+00  0.00000000000E+00  0.99999998245E-14  0.12500000000E+03  0.12500000000E+03 0.  0.
    3000001    1    3    3    0    0  0.11079620914E+02  0.80856640550E+01  0.12079741676E+02  0.18304538284E+02  0.10000000000E+01 0.  1.
    1000022    2    1    0    0    0  0.48190302914E+02  0.20324830029E+02  0.32723782868E+02  0.62500000047E+02  0.10000001502E+02 0.  0.
    3000022    2    3    3    0    0  0.37110682000E+02  0.12239165974E+02  0.20644041192E+02  0.44195461763E+02  0.25000305456E+00 0.  0.
    1000022    2    1    0    0    0 -0.48190302914E+02 -0.20324830029E+02 -0.32723782868E+02  0.62499999953E+02  0.10000000914E+02 0.  0.
    3000022    2    5    5    0    0 -0.14869948199E+02 -0.63367822434E+01 -0.15722463602E+02  0.22550577229E+02  0.25000602515E+00 0.  0.
        -13    1    4    4    0    0  0.25713645595E+02  0.84531828280E+01  0.14253989486E+02  0.30591422180E+02  0.10500000000E+00 0. -1.
         13    1    4    4    0    0  0.11397036405E+02  0.37859831457E+01  0.63900517053E+01  0.13604039584E+02  0.10500000000E+00 0.  1.
    3000001    1    5    5    0    0 -0.33320354715E+02 -0.13988047785E+02 -0.17001319266E+02  0.39949422724E+02  0.10000000000E+01 0.  1.
        -13    1    6    6    0    0 -0.55972142166E+01 -0.23243081079E+01 -0.59259640504E+01  0.84769859086E+01  0.10500000000E+00 0.  1.
         13    1    6    6    0    0 -0.92727339825E+01 -0.40124741355E+01 -0.97964995514E+01  0.14073591321E+02  0.10500000000E+00 0. -1.
</event>
<event>
11    0  0.3483054E-009  0.9118800E+02  0.7816531E-02  0.1126479E+00
         25   -1    0    0    0    0  0.00000000000E+00  0.00000000000E+00  0.99999998245E-14  0.12500000000E+03  0.12500000000E+03 0.  0.
    3000001    1    3    3    0    0 -0.65451985008E+00  0.25038047594E+00 -0.97988484926E-01  0.12250258610E+01  0.10000000000E+01 0. -1.
    1000022    2    1    0    0    0 -0.24452289468E+02  0.19488531086E+02 -0.53183953474E+02  0.62499999974E+02  0.99999892753E+01 0.  0.
    3000022    2    3    3    0    0 -0.23797769618E+02  0.19238150610E+02 -0.53085964989E+02  0.61274974113E+02  0.24999209343E+00 0.  0.
    1000022    2    1    0    0    0  0.24452289468E+02 -0.19488531086E+02  0.53183953474E+02  0.62500000026E+02  0.99999896017E+01 0.  0.
    3000022    2    5    5    0    0  0.47397754643E+01 -0.53313761292E+01  0.20990722312E+02  0.22171196703E+02  0.24999437499E+00 0.  0.
        -13    1    4    4    0    0 -0.12803920603E+02  0.10335107239E+02 -0.28412452120E+02  0.32833417198E+02  0.10500000000E+00 0.  1.
         13    1    4    4    0    0 -0.10993849015E+02  0.89030433709E+01 -0.24673512869E+02  0.28441556915E+02  0.10500000000E+00 0. -1.
    3000001    1    5    5    0    0  0.19712514004E+02 -0.14157154957E+02  0.32193231162E+02  0.40328803323E+02  0.10000000000E+01 0.  1.
        -13    1    6    6    0    0  0.33068178512E+01 -0.37415869703E+01  0.14822955785E+02  0.15641788918E+02  0.10500000000E+00 0. -1.
         13    1    6    6    0    0  0.14329576131E+01 -0.15897891589E+01  0.61677665268E+01  0.65294077847E+01  0.10500000000E+00 0.  1.
</event>
<event>
11    0  0.3483054E-009  0.9118800E+02  0.7816531E-02  0.1126479E+00
         25   -1    0    0    0    0  0.00000000000E+00  0.00000000000E+00  0.99999998245E-14  0.12500000000E+03  0.12500000000E+03 0.  0.
    3000001    1    3    3    0    0  0.95399131405E+00  0.11793495638E+02  0.19839930934E+02  0.23121840287E+02  0.10000000000E+01 0.  1.
    1000022    2    1    0    0    0  0.84611588775E+00  0.41681245668E+02  0.45477554378E+02  0.62500000227E+02  0.99999961826E+01 0.  0.
    3000022    2    3    3    0    0 -0.10787542630E+00  0.29887750029E+02  0.25637623444E+02  0.39378159940E+02  0.25001092484E+00 0.  0.
    1000022    2    1    0    0    0 -0.84611588775E+00 -0.41681245668E+02 -0.45477554378E+02  0.62499999773E+02  0.99999933460E+01 0.  0.
    3000022    2    5    5    0    0 -0.36659982839E+01 -0.59699680941E+01 -0.82617827238E+01  0.10835110898E+02  0.25002386188E+00 0.  0.
        -13    1    4    4    0    0 -0.72143423119E-01  0.20721576157E+02  0.17837165867E+02  0.27341624573E+02  0.10500000000E+00 0. -1.
         13    1    4    4    0    0 -0.35732003178E-01  0.91661738726E+01  0.78004575774E+01  0.12036535368E+02  0.10500000000E+00 0.  1.
    3000001    1    5    5    0    0  0.28198823962E+01 -0.35711277574E+02 -0.37215771654E+02  0.51664888875E+02  0.10000000000E+01 0. -1.
        -13    1    6    6    0    0 -0.14720371666E+01 -0.24664019606E+01 -0.34694976256E+01  0.45053824283E+01  0.10500000000E+00 0. -1.
         13    1    6    6    0    0 -0.21939611174E+01 -0.35035661335E+01 -0.47922850982E+01  0.63297284695E+01  0.10500000000E+00 0.  1.
</event>
<event>
11    0  0.3483054E-009  0.9118800E+02  0.7816531E-02  0.1126479E+00
         25   -1    0    0    0    0  0.00000000000E+00  0.00000000000E+00  0.99999998245E-14  0.12500000000E+03  0.12500000000E+03 0.  0.
    3000001    1    3    3    0    0 -0.22518996751E+02 -0.63246808519E+00  0.23658347362E+01  0.22673826421E+02  0.10000000000E+01 0. -1.
    1000022    2    1    0    0    0 -0.59058632151E+02  0.54799321690E+01  0.16979357584E+02  0.62499997889E+02  0.99999732015E+01 0.  0.
    3000022    2    3    3    0    0 -0.36539635400E+02  0.61124002542E+01  0.14613522848E+02  0.39826171468E+02  0.24998354531E+00 0.  0.
    1000022    2    1    0    0    0  0.59058632151E+02 -0.54799321690E+01 -0.16979357584E+02  0.62500002111E+02  0.99999995872E+01 0.  0.
    3000022    2    5    5    0    0  0.40709965301E+00  0.99088377653E+00 -0.60133285357E+00  0.12536682005E+01  0.25000394021E+00 0.  0.
        -13    1    4    4    0    0 -0.26763657277E+02  0.44631964399E+01  0.10668096080E+02  0.29155321509E+02  0.10500000000E+00 0. -1.
         13    1    4    4    0    0 -0.97759781225E+01  0.16492038143E+01  0.39454267678E+01  0.10670849959E+02  0.10500000000E+00 0.  1.
    3000001    1    5    5    0    0  0.58651532498E+02 -0.64708159455E+01 -0.16378024731E+02  0.61246333910E+02  0.10000000000E+01 0. -1.
        -13    1    6    6    0    0  0.25980860730E+00  0.59056383933E+00 -0.28928087335E+00  0.71482486277E+00  0.10500000000E+00 0.  1.
         13    1    6    6    0    0  0.14729104571E+00  0.40031993720E+00 -0.31205198022E+00  0.53884333774E+00  0.10500000000E+00 0. -1.
</event>
<event>
11    0  0.3483054E-009  0.9118800E+02  0.7816531E-02  0.1126479E+00
         25   -1    0    0    0    0  0.00000000000E+00  0.00000000000E+00  0.99999998245E-14  0.12500000000E+03  0.12500000000E+03 0.  0.
    3000001    1    3    3    0    0 -0.25678523367E+02  0.42180298661E+02 -0.29142217396E+02  0.57348347772E+02  0.10000000000E+01 0.  1.
    1000022    2    1    0    0    0 -0.29903666579E+02  0.45067340422E+02 -0.29680895467E+02  0.62499999774E+02  0.99999984209E+01 0.  0.
    3000022    2    3    3    0    0 -0.42251432122E+01  0.28870417614E+01 -0.53867807090E+00  0.51516520019E+01  0.24999797932E+00 0.  0.
    1000022    2    1    0    0    0  0.29903666579E+02 -0.45067340422E+02  0.29680895467E+02  0.62500000226E+02  0.10000001242E+02 0.  0.
    3000022    2    5    5    0    0  0.21438103998E+02 -0.26698108257E+02  0.22689872183E+02  0.41076442008E+02  0.25000158269E+00 0.  0.
        -13    1    4    4    0    0 -0.11835971773E+01  0.83877726051E+00 -0.18571630803E+00  0.14662759351E+01  0.10500000000E+00 0.  1.
         13    1    4    4    0    0 -0.30415460348E+01  0.20482645009E+01 -0.35296176287E+00  0.36853760668E+01  0.10500000000E+00 0. -1.
    3000001    1    5    5    0    0  0.84655625820E+01 -0.18369232165E+02  0.69910232836E+01  0.21423558218E+02  0.10000000000E+01 0.  1.
        -13    1    6    6    0    0  0.13424704116E+02 -0.16778883773E+02  0.14295293309E+02  0.25809301755E+02  0.10500000000E+00 0. -1.
         13    1    6    6    0    0  0.80133998818E+01 -0.99192244839E+01  0.83945788744E+01  0.15267140253E+02  0.10500000000E+00 0.  1.
</event>
<event>
11    0  0.3483054E-009  0.9118800E+02  0.7816531E-02  0.1126479E+00
         25   -1    0    0    0    0  0.00000000000E+00  0.00000000000E+00  0.99999998245E-14  0.12500000000E+03  0.12500000000E+03 0.  0.
    3000001    1    3    3    0    0  0.18907062892E+01  0.36020407519E+00 -0.31866944212E+01  0.38548072043E+01  0.10000000000E+01 0.  1.
    1000022    2    1    0    0    0  0.23535645074E+02 -0.29035509463E+02 -0.49084239368E+02  0.62499998663E+02  0.99999939855E+01 0.  0.
    3000022    2    3    3    0    0  0.21644938784E+02 -0.29395713538E+02 -0.45897544947E+02  0.58645191459E+02  0.24999933551E+00 0.  0.
    1000022    2    1    0    0    0 -0.23535645074E+02  0.29035509463E+02  0.49084239368E+02  0.62500001337E+02  0.10000010700E+02 0.  0.
    3000022    2    5    5    0    0 -0.56809363840E+01  0.36990814382E+01  0.43180151978E+01  0.80413928909E+01  0.25000538256E+00 0.  0.
        -13    1    4    4    0    0  0.74591876440E+01 -0.10088692521E+02 -0.15855089213E+02  0.20219200678E+02  0.10500000000E+00 0. -1.
         13    1    4    4    0    0  0.14185751140E+02 -0.19307021017E+02 -0.30042455733E+02  0.38425990781E+02  0.10500000000E+00 0.  1.
    3000001    1    5    5    0    0 -0.17854708690E+02  0.25336428025E+02  0.44766224170E+02  0.54458608446E+02  0.10000000000E+01 0. -1.
        -13    1    6    6    0    0 -0.14467214686E+01  0.91230731888E+00  0.10762333022E+01  0.20235144607E+01  0.10500000000E+00 0.  1.
         13    1    6    6    0    0 -0.42342149154E+01  0.27867741194E+01  0.32417818956E+01  0.60178784302E+01  0.10500000000E+00 0. -1.
</event>
<event>
11    0  0.3483054E-009  0.9118800E+02  0.7816531E-02  0.1126479E+00
         25   -1    0    0    0    0  0.00000000000E+00  0.00000000000E+00  0.99999998245E-14  0.12500000000E+03  0.12500000000E+03 0.  0.
    3000001    1    3    3    0    0  0.49797944878E+02 -0.11395102546E+02 -0.99384975106E+01  0.52052448635E+02  0.10000000000E+01 0.  1.
    1000022    2    1    0    0    0  0.57626091610E+02 -0.16696981686E+02 -0.14376859168E+02  0.62500001416E+02  0.10000023286E+02 0.  0.
    3000022    2    3    3    0    0  0.78281467323E+01 -0.53018791400E+01 -0.44383616576E+01  0.10447552781E+02  0.25000246281E+00 0.  0.
    1000022    2    1    0    0    0 -0.57626091610E+02  0.16696981686E+02  0.14376859168E+02  0.62499998584E+02  0.10000005590E+02 0.  0.
    3000022    2    5    5    0    0 -0.23757340727E+02  0.21870547022E+01  0.74498992185E+01  0.24995158342E+02  0.24999094599E+00 0.  0.
        -13    1    4    4    0    0  0.45505042286E+01 -0.31049806160E+01 -0.26540110127E+01  0.61157822734E+01  0.10500000000E+00 0.  1.
         13    1    4    4    0    0  0.32776425037E+01 -0.21968985240E+01 -0.17843506449E+01  0.43317705076E+01  0.10500000000E+00 0. -1.
    3000001    1    5    5    0    0 -0.33868750883E+02  0.14509926984E+02  0.69269599497E+01  0.37504840242E+02  0.10000000000E+01 0.  1.
        -13    1    6    6    0    0 -0.14373008263E+02  0.12782817045E+01  0.44599059846E+01  0.15103614039E+02  0.10500000000E+00 0.  1.
         13    1    6    6    0    0 -0.93843324643E+01  0.90877299771E+00  0.29899932339E+01  0.98915443031E+01  0.10500000000E+00 0. -1.
</event>
