<event>
 3    1  0.1597250E-001  0.1250000E+03  0.7546771E-02  0.1235069E+00
         21   -1    0    0  502  501  0.00000000000E+00  0.00000000000E+00  0.10532326381E+02  0.10532326381E+02  0.00000000000E+00 0.  1.
         21   -1    0    0  501  502 -0.00000000000E+00 -0.00000000000E+00 -0.37088197410E+03  0.37088197410E+03  0.00000000000E+00 0.  1.
         25    1    1    2    0    0  0.00000000000E+00  0.00000000000E+00 -0.36034964772E+03  0.38141430048E+03  0.12500000000E+03 0.  0.
<mgrwt>
<rscale>  0 0.12500000E+03</rscale>
<asrwt>0</asrwt>
<pdfrwt beam="1">  1       21 0.16203581E-02 0.12500000E+03</pdfrwt>
<pdfrwt beam="2">  1       21 0.57058758E-01 0.12500000E+03</pdfrwt>
<totfact> 0.49298840E+06</totfact>
</mgrwt>
</event>
<event>
 3    1  0.1597250E-001  0.1250000E+03  0.7546771E-02  0.1235069E+00
         21   -1    0    0  502  501  0.00000000000E+00  0.00000000000E+00  0.10453621564E+03  0.10453621564E+03  0.00000000000E+00 0. -1.
         21   -1    0    0  501  502 -0.00000000000E+00 -0.00000000000E+00 -0.37367432676E+02  0.37367432676E+02  0.00000000000E+00 0. -1.
         25    1    1    2    0    0  0.00000000000E+00  0.00000000000E+00  0.67168782960E+02  0.14190364831E+03  0.12500000000E+03 0.  0.
<mgrwt>
<rscale>  0 0.12500000E+03</rscale>
<asrwt>0</asrwt>
<pdfrwt beam="1">  1       21 0.16082495E-01 0.12500000E+03</pdfrwt>
<pdfrwt beam="2">  1       21 0.57488358E-02 0.12500000E+03</pdfrwt>
<totfact> 0.71791755E+06</totfact>
</mgrwt>
</event>
<event>
 3    1  0.1597250E-001  0.1250000E+03  0.7546771E-02  0.1235069E+00
         21   -1    0    0  502  501  0.00000000000E+00  0.00000000000E+00  0.60794104591E+02  0.60794104591E+02  0.00000000000E+00 0.  1.
         21   -1    0    0  501  502 -0.00000000000E+00 -0.00000000000E+00 -0.64253763194E+02  0.64253763194E+02  0.00000000000E+00 0.  1.
         25    1    1    2    0    0  0.00000000000E+00  0.00000000000E+00 -0.34596586026E+01  0.12504786779E+03  0.12500000000E+03 0.  0.
<mgrwt>
<rscale>  0 0.12500000E+03</rscale>
<asrwt>0</asrwt>
<pdfrwt beam="1">  1       21 0.93529392E-02 0.12500000E+03</pdfrwt>
<pdfrwt beam="2">  1       21 0.98851943E-02 0.12500000E+03</pdfrwt>
<totfact> 0.74037116E+06</totfact>
</mgrwt>
</event>
<event>
 3    1  0.1597250E-001  0.1250000E+03  0.7546771E-02  0.1235069E+00
         21   -1    0    0  502  501  0.00000000000E+00  0.00000000000E+00  0.66636258421E+03  0.66636258421E+03  0.00000000000E+00 0.  1.
         21   -1    0    0  501  502 -0.00000000000E+00 -0.00000000000E+00 -0.58620488193E+01  0.58620488193E+01  0.00000000000E+00 0.  1.
         25    1    1    2    0    0  0.00000000000E+00  0.00000000000E+00  0.66050053539E+03  0.67222463303E+03  0.12500000000E+03 0.  0.
<mgrwt>
<rscale>  0 0.12500000E+03</rscale>
<asrwt>0</asrwt>
<pdfrwt beam="1">  1       21 0.10251726E+00 0.12500000E+03</pdfrwt>
<pdfrwt beam="2">  1       21 0.90185419E-03 0.12500000E+03</pdfrwt>
<totfact> 0.34008732E+06</totfact>
</mgrwt>
</event>
<event>
 3    1  0.1597250E-001  0.1250000E+03  0.7546771E-02  0.1235069E+00
         21   -1    0    0  502  501  0.00000000000E+00  0.00000000000E+00  0.97464585192E+01  0.97464585192E+01  0.00000000000E+00 0.  1.
         21   -1    0    0  501  502 -0.00000000000E+00 -0.00000000000E+00 -0.40078660288E+03  0.40078660288E+03  0.00000000000E+00 0.  1.
         25    1    1    2    0    0  0.00000000000E+00  0.00000000000E+00 -0.39104014436E+03  0.41053306140E+03  0.12500000000E+03 0.  0.
<mgrwt>
<rscale>  0 0.12500000E+03</rscale>
<asrwt>0</asrwt>
<pdfrwt beam="1">  1       21 0.14994548E-02 0.12500000E+03</pdfrwt>
<pdfrwt beam="2">  1       21 0.61659491E-01 0.12500000E+03</pdfrwt>
<totfact> 0.47350457E+06</totfact>
</mgrwt>
</event>
<event>
 3    1  0.1597250E-001  0.1250000E+03  0.7546771E-02  0.1235069E+00
         21   -1    0    0  502  501  0.00000000000E+00  0.00000000000E+00  0.86675853173E+01  0.86675853173E+01  0.00000000000E+00 0.  1.
         21   -1    0    0  501  502 -0.00000000000E+00 -0.00000000000E+00 -0.45067338330E+03  0.45067338330E+03  0.00000000000E+00 0.  1.
         25    1    1    2    0    0  0.00000000000E+00  0.00000000000E+00 -0.44200579798E+03  0.45934096862E+03  0.12500000000E+03 0.  0.
<mgrwt>
<rscale>  0 0.12500000E+03</rscale>
<asrwt>0</asrwt>
<pdfrwt beam="1">  1       21 0.13334745E-02 0.12500000E+03</pdfrwt>
<pdfrwt beam="2">  1       21 0.69334373E-01 0.12500000E+03</pdfrwt>
<totfact> 0.44338548E+06</totfact>
</mgrwt>
</event>
<event>
 3    1  0.1597250E-001  0.1250000E+03  0.7546771E-02  0.1235069E+00
         21   -1    0    0  502  501  0.00000000000E+00  0.00000000000E+00  0.34956234720E+03  0.34956234720E+03  0.00000000000E+00 0. -1.
         21   -1    0    0  501  502 -0.00000000000E+00 -0.00000000000E+00 -0.11174687524E+02  0.11174687524E+02  0.00000000000E+00 0. -1.
         25    1    1    2    0    0  0.00000000000E+00  0.00000000000E+00  0.33838765968E+03  0.36073703473E+03  0.12500000000E+03 0.  0.
<mgrwt>
<rscale>  0 0.12500000E+03</rscale>
<asrwt>0</asrwt>
<pdfrwt beam="1">  1       21 0.53778814E-01 0.12500000E+03</pdfrwt>
<pdfrwt beam="2">  1       21 0.17191830E-02 0.12500000E+03</pdfrwt>
<totfact> 0.50755120E+06</totfact>
</mgrwt>
</event>
<event>
 3    1  0.1597250E-001  0.1250000E+03  0.7546771E-02  0.1235069E+00
         21   -1    0    0  502  501  0.00000000000E+00  0.00000000000E+00  0.21739280443E+02  0.21739280443E+02  0.00000000000E+00 0.  1.
         21   -1    0    0  501  502 -0.00000000000E+00 -0.00000000000E+00 -0.17968626009E+03  0.17968626009E+03  0.00000000000E+00 0.  1.
         25    1    1    2    0    0  0.00000000000E+00  0.00000000000E+00 -0.15794697965E+03  0.20142554054E+03  0.12500000000E+03 0.  0.
<mgrwt>
<rscale>  0 0.12500000E+03</rscale>
<asrwt>0</asrwt>
<pdfrwt beam="1">  1       21 0.33445048E-02 0.12500000E+03</pdfrwt>
<pdfrwt beam="2">  1       21 0.27644039E-01 0.12500000E+03</pdfrwt>
<totfact> 0.64773112E+06</totfact>
</mgrwt>
</event>
<event>
 3    1  0.1597250E-001  0.1250000E+03  0.7546771E-02  0.1235069E+00
         21   -1    0    0  502  501  0.00000000000E+00  0.00000000000E+00  0.13983121050E+04  0.13983121050E+04  0.00000000000E+00 0.  1.
         21   -1    0    0  501  502 -0.00000000000E+00 -0.00000000000E+00 -0.27935465810E+01  0.27935465810E+01  0.00000000000E+00 0.  1.
         25    1    1    2    0    0  0.00000000000E+00  0.00000000000E+00  0.13955185584E+04  0.14011056516E+04  0.12500000000E+03 0.  0.
<mgrwt>
<rscale>  0 0.12500000E+03</rscale>
<asrwt>0</asrwt>
<pdfrwt beam="1">  1       21 0.21512438E+00 0.12500000E+03</pdfrwt>
<pdfrwt beam="2">  1       21 0.42977751E-03 0.12500000E+03</pdfrwt>
<totfact> 0.15526849E+06</totfact>
</mgrwt>
</event>
<event>
 3    1  0.1597250E-001  0.1250000E+03  0.7546771E-02  0.1235069E+00
         21   -1    0    0  502  501  0.00000000000E+00  0.00000000000E+00  0.91844396752E+01  0.91844396752E+01  0.00000000000E+00 0. -1.
         21   -1    0    0  501  502 -0.00000000000E+00 -0.00000000000E+00 -0.42531173791E+03  0.42531173791E+03  0.00000000000E+00 0. -1.
         25    1    1    2    0    0  0.00000000000E+00  0.00000000000E+00 -0.41612729824E+03  0.43449617759E+03  0.12500000000E+03 0.  0.
<mgrwt>
<rscale>  0 0.12500000E+03</rscale>
<asrwt>0</asrwt>
<pdfrwt beam="1">  1       21 0.14129902E-02 0.12500000E+03</pdfrwt>
<pdfrwt beam="2">  1       21 0.65432601E-01 0.12500000E+03</pdfrwt>
<totfact> 0.45834360E+06</totfact>
</mgrwt>
</event>
<event>
 3    1  0.1597250E-001  0.1250000E+03  0.7546771E-02  0.1235069E+00
         21   -1    0    0  502  501  0.00000000000E+00  0.00000000000E+00  0.30990417476E+02  0.30990417476E+02  0.00000000000E+00 0. -1.
         21   -1    0    0  501  502 -0.00000000000E+00 -0.00000000000E+00 -0.12604702738E+03  0.12604702738E+03  0.00000000000E+00 0. -1.
         25    1    1    2    0    0  0.00000000000E+00  0.00000000000E+00 -0.95056609900E+02  0.15703744485E+03  0.12500000000E+03 0.  0.
<mgrwt>
<rscale>  0 0.12500000E+03</rscale>
<asrwt>0</asrwt>
<pdfrwt beam="1">  1       21 0.47677565E-02 0.12500000E+03</pdfrwt>
<pdfrwt beam="2">  1       21 0.19391851E-01 0.12500000E+03</pdfrwt>
<totfact> 0.69883312E+06</totfact>
</mgrwt>
</event>
<event>
 3    1  0.1597250E-001  0.1250000E+03  0.7546771E-02  0.1235069E+00
         21   -1    0    0  502  501  0.00000000000E+00  0.00000000000E+00  0.12876703695E+02  0.12876703695E+02  0.00000000000E+00 0.  1.
         21   -1    0    0  501  502 -0.00000000000E+00 -0.00000000000E+00 -0.30335791618E+03  0.30335791618E+03  0.00000000000E+00 0.  1.
         25    1    1    2    0    0  0.00000000000E+00  0.00000000000E+00 -0.29048121248E+03  0.31623461987E+03  0.12500000000E+03 0.  0.
<mgrwt>
<rscale>  0 0.12500000E+03</rscale>
<asrwt>0</asrwt>
<pdfrwt beam="1">  1       21 0.19810313E-02 0.12500000E+03</pdfrwt>
<pdfrwt beam="2">  1       21 0.46670449E-01 0.12500000E+03</pdfrwt>
<totfact> 0.54133085E+06</totfact>
</mgrwt>
</event>
<event>
 3    1  0.1597250E-001  0.1250000E+03  0.7546771E-02  0.1235069E+00
         21   -1    0    0  502  501  0.00000000000E+00  0.00000000000E+00  0.20291814403E+03  0.20291814403E+03  0.00000000000E+00 0. -1.
         21   -1    0    0  501  502 -0.00000000000E+00 -0.00000000000E+00 -0.19250373192E+02  0.19250373192E+02  0.00000000000E+00 0. -1.
         25    1    1    2    0    0  0.00000000000E+00  0.00000000000E+00  0.18366777084E+03  0.22216851722E+03  0.12500000000E+03 0.  0.
<mgrwt>
<rscale>  0 0.12500000E+03</rscale>
<asrwt>0</asrwt>
<pdfrwt beam="1">  1       21 0.31218174E-01 0.12500000E+03</pdfrwt>
<pdfrwt beam="2">  1       21 0.29615960E-02 0.12500000E+03</pdfrwt>
<totfact> 0.62601570E+06</totfact>
</mgrwt>
</event>
<event>
 3    1  0.1597250E-001  0.1250000E+03  0.7546771E-02  0.1235069E+00
         21   -1    0    0  502  501  0.00000000000E+00  0.00000000000E+00  0.95619523659E+02  0.95619523659E+02  0.00000000000E+00 0.  1.
         21   -1    0    0  501  502 -0.00000000000E+00 -0.00000000000E+00 -0.40852012754E+02  0.40852012754E+02  0.00000000000E+00 0.  1.
         25    1    1    2    0    0  0.00000000000E+00  0.00000000000E+00  0.54767510905E+02  0.13647153641E+03  0.12500000000E+03 0.  0.
<mgrwt>
<rscale>  0 0.12500000E+03</rscale>
<asrwt>0</asrwt>
<pdfrwt beam="1">  1       21 0.14710696E-01 0.12500000E+03</pdfrwt>
<pdfrwt beam="2">  1       21 0.62849251E-02 0.12500000E+03</pdfrwt>
<totfact> 0.72502212E+06</totfact>
</mgrwt>
</event>
<event>
 3    1  0.1597250E-001  0.1250000E+03  0.7546771E-02  0.1235069E+00
         21   -1    0    0  502  501  0.00000000000E+00  0.00000000000E+00  0.70700782403E+03  0.70700782403E+03  0.00000000000E+00 0.  1.
         21   -1    0    0  501  502 -0.00000000000E+00 -0.00000000000E+00 -0.55250449390E+01  0.55250449390E+01  0.00000000000E+00 0.  1.
         25    1    1    2    0    0  0.00000000000E+00  0.00000000000E+00  0.70148277909E+03  0.71253286897E+03  0.12500000000E+03 0.  0.
<mgrwt>
<rscale>  0 0.12500000E+03</rscale>
<asrwt>0</asrwt>
<pdfrwt beam="1">  1       21 0.10877036E+00 0.12500000E+03</pdfrwt>
<pdfrwt beam="2">  1       21 0.85000747E-03 0.12500000E+03</pdfrwt>
<totfact> 0.32432542E+06</totfact>
</mgrwt>
</event>
<event>
 3    1  0.1597250E-001  0.1250000E+03  0.7546771E-02  0.1235069E+00
         21   -1    0    0  502  501  0.00000000000E+00  0.00000000000E+00  0.12524274381E+01  0.12524274381E+01  0.00000000000E+00 0.  1.
         21   -1    0    0  501  502 -0.00000000000E+00 -0.00000000000E+00 -0.31189431669E+04  0.31189431669E+04  0.00000000000E+00 0.  1.
         25    1    1    2    0    0  0.00000000000E+00  0.00000000000E+00 -0.31176907394E+04  0.31201955943E+04  0.12500000000E+03 0.  0.
<mgrwt>
<rscale>  0 0.12500000E+03</rscale>
<asrwt>0</asrwt>
<pdfrwt beam="1">  1       21 0.19268113E-03 0.12500000E+03</pdfrwt>
<pdfrwt beam="2">  1       21 0.47983745E+00 0.12500000E+03</pdfrwt>
<totfact> 0.13836643E+05</totfact>
</mgrwt>
</event>
<event>
 3    1  0.1597250E-001  0.1250000E+03  0.7546771E-02  0.1235069E+00
         21   -1    0    0  502  501  0.00000000000E+00  0.00000000000E+00  0.11026494958E+03  0.11026494958E+03  0.00000000000E+00 0. -1.
         21   -1    0    0  501  502 -0.00000000000E+00 -0.00000000000E+00 -0.35426035336E+02  0.35426035336E+02  0.00000000000E+00 0. -1.
         25    1    1    2    0    0  0.00000000000E+00  0.00000000000E+00  0.74838914239E+02  0.14569098491E+03  0.12500000000E+03 0.  0.
<mgrwt>
<rscale>  0 0.12500000E+03</rscale>
<asrwt>0</asrwt>
<pdfrwt beam="1">  1       21 0.16963838E-01 0.12500000E+03</pdfrwt>
<pdfrwt beam="2">  1       21 0.54501593E-02 0.12500000E+03</pdfrwt>
<totfact> 0.71304787E+06</totfact>
</mgrwt>
</event>
<event>
 3    1  0.1597250E-001  0.1250000E+03  0.7546771E-02  0.1235069E+00
         21   -1    0    0  502  501  0.00000000000E+00  0.00000000000E+00  0.11681563453E+03  0.11681563453E+03  0.00000000000E+00 0. -1.
         21   -1    0    0  501  502 -0.00000000000E+00 -0.00000000000E+00 -0.33439445119E+02  0.33439445119E+02  0.00000000000E+00 0. -1.
         25    1    1    2    0    0  0.00000000000E+00  0.00000000000E+00  0.83376189413E+02  0.15025507965E+03  0.12500000000E+03 0.  0.
<mgrwt>
<rscale>  0 0.12500000E+03</rscale>
<asrwt>0</asrwt>
<pdfrwt beam="1">  1       21 0.17971636E-01 0.12500000E+03</pdfrwt>
<pdfrwt beam="2">  1       21 0.51445301E-02 0.12500000E+03</pdfrwt>
<totfact> 0.70727173E+06</totfact>
</mgrwt>
</event>
<event>
 3    1  0.1597250E-001  0.1250000E+03  0.7546771E-02  0.1235069E+00
         21   -1    0    0  502  501  0.00000000000E+00  0.00000000000E+00  0.86222375604E+02  0.86222375604E+02  0.00000000000E+00 0. -1.
         21   -1    0    0  501  502 -0.00000000000E+00 -0.00000000000E+00 -0.45304365284E+02  0.45304365284E+02  0.00000000000E+00 0. -1.
         25    1    1    2    0    0  0.00000000000E+00  0.00000000000E+00  0.40918010321E+02  0.13152674089E+03  0.12500000000E+03 0.  0.
<mgrwt>
<rscale>  0 0.12500000E+03</rscale>
<asrwt>0</asrwt>
<pdfrwt beam="1">  1       21 0.13264981E-01 0.12500000E+03</pdfrwt>
<pdfrwt beam="2">  1       21 0.69699024E-02 0.12500000E+03</pdfrwt>
<totfact> 0.73159777E+06</totfact>
</mgrwt>
</event>
<event>
 3    1  0.1597250E-001  0.1250000E+03  0.7546771E-02  0.1235069E+00
         21   -1    0    0  502  501  0.00000000000E+00  0.00000000000E+00  0.18608927903E+02  0.18608927903E+02  0.00000000000E+00 0.  1.
         21   -1    0    0  501  502 -0.00000000000E+00 -0.00000000000E+00 -0.20991268386E+03  0.20991268386E+03  0.00000000000E+00 0.  1.
         25    1    1    2    0    0  0.00000000000E+00  0.00000000000E+00 -0.19130375596E+03  0.22852161177E+03  0.12500000000E+03 0.  0.
<mgrwt>
<rscale>  0 0.12500000E+03</rscale>
<asrwt>0</asrwt>
<pdfrwt beam="1">  1       21 0.28629122E-02 0.12500000E+03</pdfrwt>
<pdfrwt beam="2">  1       21 0.32294257E-01 0.12500000E+03</pdfrwt>
<totfact> 0.61961414E+06</totfact>
</mgrwt>
</event>
<event>
 3    1  0.1597250E-001  0.1250000E+03  0.7546771E-02  0.1235069E+00
         21   -1    0    0  502  501  0.00000000000E+00  0.00000000000E+00  0.23516932333E+04  0.23516932333E+04  0.00000000000E+00 0.  1.
         21   -1    0    0  501  502 -0.00000000000E+00 -0.00000000000E+00 -0.16610372240E+01  0.16610372240E+01  0.00000000000E+00 0.  1.
         25    1    1    2    0    0  0.00000000000E+00  0.00000000000E+00  0.23500321961E+04  0.23533542705E+04  0.12500000000E+03 0.  0.
<mgrwt>
<rscale>  0 0.12500000E+03</rscale>
<asrwt>0</asrwt>
<pdfrwt beam="1">  1       21 0.36179629E+00 0.12500000E+03</pdfrwt>
<pdfrwt beam="2">  1       21 0.25554607E-03 0.12500000E+03</pdfrwt>
<totfact> 0.49872913E+05</totfact>
</mgrwt>
</event>
<event>
 3    1  0.1597250E-001  0.1250000E+03  0.7546771E-02  0.1235069E+00
         21   -1    0    0  502  501  0.00000000000E+00  0.00000000000E+00  0.11879759029E+03  0.11879759029E+03  0.00000000000E+00 0.  1.
         21   -1    0    0  501  502 -0.00000000000E+00 -0.00000000000E+00 -0.32881559218E+02  0.32881559218E+02  0.00000000000E+00 0.  1.
         25    1    1    2    0    0  0.00000000000E+00  0.00000000000E+00  0.85916031072E+02  0.15167914951E+03  0.12500000000E+03 0.  0.
<mgrwt>
<rscale>  0 0.12500000E+03</rscale>
<asrwt>0</asrwt>
<pdfrwt beam="1">  1       21 0.18276552E-01 0.12500000E+03</pdfrwt>
<pdfrwt beam="2">  1       21 0.50587015E-02 0.12500000E+03</pdfrwt>
<totfact> 0.70548902E+06</totfact>
</mgrwt>
</event>
<event>
 3    1  0.1597250E-001  0.1250000E+03  0.7546771E-02  0.1235069E+00
         21   -1    0    0  502  501  0.00000000000E+00  0.00000000000E+00  0.11549265612E+04  0.11549265612E+04  0.00000000000E+00 0. -1.
         21   -1    0    0  501  502 -0.00000000000E+00 -0.00000000000E+00 -0.33822496870E+01  0.33822496870E+01  0.00000000000E+00 0. -1.
         25    1    1    2    0    0  0.00000000000E+00  0.00000000000E+00  0.11515443115E+04  0.11583088109E+04  0.12500000000E+03 0.  0.
<mgrwt>
<rscale>  0 0.12500000E+03</rscale>
<asrwt>0</asrwt>
<pdfrwt beam="1">  1       21 0.17768070E+00 0.12500000E+03</pdfrwt>
<pdfrwt beam="2">  1       21 0.52034702E-03 0.12500000E+03</pdfrwt>
<totfact> 0.19994581E+06</totfact>
</mgrwt>
</event>
<event>
 3    1  0.1597250E-001  0.1250000E+03  0.7546771E-02  0.1235069E+00
         21   -1    0    0  502  501  0.00000000000E+00  0.00000000000E+00  0.46531646045E+02  0.46531646045E+02  0.00000000000E+00 0. -1.
         21   -1    0    0  501  502 -0.00000000000E+00 -0.00000000000E+00 -0.83948244517E+02  0.83948244517E+02  0.00000000000E+00 0. -1.
         25    1    1    2    0    0  0.00000000000E+00  0.00000000000E+00 -0.37416598472E+02  0.13047989056E+03  0.12500000000E+03 0.  0.
<mgrwt>
<rscale>  0 0.12500000E+03</rscale>
<asrwt>0</asrwt>
<pdfrwt beam="1">  1       21 0.71587148E-02 0.12500000E+03</pdfrwt>
<pdfrwt beam="2">  1       21 0.12915114E-01 0.12500000E+03</pdfrwt>
<totfact> 0.73300846E+06</totfact>
</mgrwt>
</event>
<event>
 3    1  0.1597250E-001  0.1250000E+03  0.7546771E-02  0.1235069E+00
         21   -1    0    0  502  501  0.00000000000E+00  0.00000000000E+00  0.81213468547E+03  0.81213468547E+03  0.00000000000E+00 0.  1.
         21   -1    0    0  501  502 -0.00000000000E+00 -0.00000000000E+00 -0.48098549045E+01  0.48098549045E+01  0.00000000000E+00 0.  1.
         25    1    1    2    0    0  0.00000000000E+00  0.00000000000E+00  0.80732483057E+03  0.81694454038E+03  0.12500000000E+03 0.  0.
<mgrwt>
<rscale>  0 0.12500000E+03</rscale>
<asrwt>0</asrwt>
<pdfrwt beam="1">  1       21 0.12494369E+00 0.12500000E+03</pdfrwt>
<pdfrwt beam="2">  1       21 0.73997832E-03 0.12500000E+03</pdfrwt>
<totfact> 0.28809066E+06</totfact>
</mgrwt>
</event>
<event>
 3    1  0.1597250E-001  0.1250000E+03  0.7546771E-02  0.1235069E+00
         21   -1    0    0  502  501  0.00000000000E+00  0.00000000000E+00  0.24088345957E+01  0.24088345957E+01  0.00000000000E+00 0. -1.
         21   -1    0    0  501  502 -0.00000000000E+00 -0.00000000000E+00 -0.16216347967E+04  0.16216347967E+04  0.00000000000E+00 0. -1.
         25    1    1    2    0    0  0.00000000000E+00  0.00000000000E+00 -0.16192259621E+04  0.16240436313E+04  0.12500000000E+03 0.  0.
<mgrwt>
<rscale>  0 0.12500000E+03</rscale>
<asrwt>0</asrwt>
<pdfrwt beam="1">  1       21 0.37058847E-03 0.12500000E+03</pdfrwt>
<pdfrwt beam="2">  1       21 0.24948326E+00 0.12500000E+03</pdfrwt>
<totfact> 0.12250038E+06</totfact>
</mgrwt>
</event>
<event>
 3    1  0.1597250E-001  0.1250000E+03  0.7546771E-02  0.1235069E+00
         21   -1    0    0  502  501  0.00000000000E+00  0.00000000000E+00  0.48703976893E+02  0.48703976893E+02  0.00000000000E+00 0. -1.
         21   -1    0    0  501  502 -0.00000000000E+00 -0.00000000000E+00 -0.80203922743E+02  0.80203922743E+02  0.00000000000E+00 0. -1.
         25    1    1    2    0    0  0.00000000000E+00  0.00000000000E+00 -0.31499945851E+02  0.12890789964E+03  0.12500000000E+03 0.  0.
<mgrwt>
<rscale>  0 0.12500000E+03</rscale>
<asrwt>0</asrwt>
<pdfrwt beam="1">  1       21 0.74929195E-02 0.12500000E+03</pdfrwt>
<pdfrwt beam="2">  1       21 0.12339065E-01 0.12500000E+03</pdfrwt>
<totfact> 0.73511253E+06</totfact>
</mgrwt>
</event>
<event>
 3    1  0.1597250E-001  0.1250000E+03  0.7546771E-02  0.1235069E+00
         21   -1    0    0  502  501  0.00000000000E+00  0.00000000000E+00  0.26763052632E+02  0.26763052632E+02  0.00000000000E+00 0.  1.
         21   -1    0    0  501  502 -0.00000000000E+00 -0.00000000000E+00 -0.14595681792E+03  0.14595681792E+03  0.00000000000E+00 0.  1.
         25    1    1    2    0    0  0.00000000000E+00  0.00000000000E+00 -0.11919376529E+03  0.17271987055E+03  0.12500000000E+03 0.  0.
<mgrwt>
<rscale>  0 0.12500000E+03</rscale>
<asrwt>0</asrwt>
<pdfrwt beam="1">  1       21 0.41173927E-02 0.12500000E+03</pdfrwt>
<pdfrwt beam="2">  1       21 0.22454895E-01 0.12500000E+03</pdfrwt>
<totfact> 0.67996664E+06</totfact>
</mgrwt>
</event>
<event>
 3    1  0.1597250E-001  0.1250000E+03  0.7546771E-02  0.1235069E+00
         21   -1    0    0  502  501  0.00000000000E+00  0.00000000000E+00  0.21821446505E+02  0.21821446505E+02  0.00000000000E+00 0.  1.
         21   -1    0    0  501  502 -0.00000000000E+00 -0.00000000000E+00 -0.17900967285E+03  0.17900967285E+03  0.00000000000E+00 0.  1.
         25    1    1    2    0    0  0.00000000000E+00  0.00000000000E+00 -0.15718822635E+03  0.20083111936E+03  0.12500000000E+03 0.  0.
<mgrwt>
<rscale>  0 0.12500000E+03</rscale>
<asrwt>0</asrwt>
<pdfrwt beam="1">  1       21 0.33571458E-02 0.12500000E+03</pdfrwt>
<pdfrwt beam="2">  1       21 0.27539949E-01 0.12500000E+03</pdfrwt>
<totfact> 0.64837307E+06</totfact>
</mgrwt>
</event>
<event>
 3    1  0.1597250E-001  0.1250000E+03  0.7546771E-02  0.1235069E+00
         21   -1    0    0  502  501  0.00000000000E+00  0.00000000000E+00  0.30409548308E+03  0.30409548308E+03  0.00000000000E+00 0. -1.
         21   -1    0    0  501  502 -0.00000000000E+00 -0.00000000000E+00 -0.12845471957E+02  0.12845471957E+02  0.00000000000E+00 0. -1.
         25    1    1    2    0    0  0.00000000000E+00  0.00000000000E+00  0.29125001112E+03  0.31694095504E+03  0.12500000000E+03 0.  0.
<mgrwt>
<rscale>  0 0.12500000E+03</rscale>
<asrwt>0</asrwt>
<pdfrwt beam="1">  1       21 0.46783915E-01 0.12500000E+03</pdfrwt>
<pdfrwt beam="2">  1       21 0.19762267E-02 0.12500000E+03</pdfrwt>
<totfact> 0.54076653E+06</totfact>
</mgrwt>
</event>
<event>
 3    1  0.1597250E-001  0.1250000E+03  0.7546771E-02  0.1235069E+00
         21   -1    0    0  502  501  0.00000000000E+00  0.00000000000E+00  0.10013092815E+03  0.10013092815E+03  0.00000000000E+00 0. -1.
         21   -1    0    0  501  502 -0.00000000000E+00 -0.00000000000E+00 -0.39011423065E+02  0.39011423065E+02  0.00000000000E+00 0. -1.
         25    1    1    2    0    0  0.00000000000E+00  0.00000000000E+00  0.61119505086E+02  0.13914235122E+03  0.12500000000E+03 0.  0.
<mgrwt>
<rscale>  0 0.12500000E+03</rscale>
<asrwt>0</asrwt>
<pdfrwt beam="1">  1       21 0.15404758E-01 0.12500000E+03</pdfrwt>
<pdfrwt beam="2">  1       21 0.60017574E-02 0.12500000E+03</pdfrwt>
<totfact> 0.72151471E+06</totfact>
</mgrwt>
</event>
<event>
 3    1  0.1597250E-001  0.1250000E+03  0.7546771E-02  0.1235069E+00
         21   -1    0    0  502  501  0.00000000000E+00  0.00000000000E+00  0.47915125219E+02  0.47915125219E+02  0.00000000000E+00 0.  1.
         21   -1    0    0  501  502 -0.00000000000E+00 -0.00000000000E+00 -0.81524361716E+02  0.81524361716E+02  0.00000000000E+00 0.  1.
         25    1    1    2    0    0  0.00000000000E+00  0.00000000000E+00 -0.33609236497E+02  0.12943948693E+03  0.12500000000E+03 0.  0.
<mgrwt>
<rscale>  0 0.12500000E+03</rscale>
<asrwt>0</asrwt>
<pdfrwt beam="1">  1       21 0.73715578E-02 0.12500000E+03</pdfrwt>
<pdfrwt beam="2">  1       21 0.12542209E-01 0.12500000E+03</pdfrwt>
<totfact> 0.73439924E+06</totfact>
</mgrwt>
</event>
<event>
 3    1  0.1597250E-001  0.1250000E+03  0.7546771E-02  0.1235069E+00
         21   -1    0    0  502  501  0.00000000000E+00  0.00000000000E+00  0.18693447805E+02  0.18693447805E+02  0.00000000000E+00 0. -1.
         21   -1    0    0  501  502 -0.00000000000E+00 -0.00000000000E+00 -0.20896359199E+03  0.20896359199E+03  0.00000000000E+00 0. -1.
         25    1    1    2    0    0  0.00000000000E+00  0.00000000000E+00 -0.19027014419E+03  0.22765703980E+03  0.12500000000E+03 0.  0.
<mgrwt>
<rscale>  0 0.12500000E+03</rscale>
<asrwt>0</asrwt>
<pdfrwt beam="1">  1       21 0.28759153E-02 0.12500000E+03</pdfrwt>
<pdfrwt beam="2">  1       21 0.32148242E-01 0.12500000E+03</pdfrwt>
<totfact> 0.62047922E+06</totfact>
</mgrwt>
</event>
<event>
 3    1  0.1597250E-001  0.1250000E+03  0.7546771E-02  0.1235069E+00
         21   -1    0    0  502  501  0.00000000000E+00  0.00000000000E+00  0.18801951731E+04  0.18801951731E+04  0.00000000000E+00 0.  1.
         21   -1    0    0  501  502 -0.00000000000E+00 -0.00000000000E+00 -0.20775768686E+01  0.20775768686E+01  0.00000000000E+00 0.  1.
         25    1    1    2    0    0  0.00000000000E+00  0.00000000000E+00  0.18781175962E+04  0.18822727499E+04  0.12500000000E+03 0.  0.
<mgrwt>
<rscale>  0 0.12500000E+03</rscale>
<asrwt>0</asrwt>
<pdfrwt beam="1">  1       21 0.28925944E+00 0.12500000E+03</pdfrwt>
<pdfrwt beam="2">  1       21 0.31962871E-03 0.12500000E+03</pdfrwt>
<totfact> 0.91544410E+05</totfact>
</mgrwt>
</event>
<event>
 3    1  0.1597250E-001  0.1250000E+03  0.7546771E-02  0.1235069E+00
         21   -1    0    0  502  501  0.00000000000E+00  0.00000000000E+00  0.34998575536E+01  0.34998575536E+01  0.00000000000E+00 0.  1.
         21   -1    0    0  501  502 -0.00000000000E+00 -0.00000000000E+00 -0.11161168534E+04  0.11161168534E+04  0.00000000000E+00 0.  1.
         25    1    1    2    0    0  0.00000000000E+00  0.00000000000E+00 -0.11126169958E+04  0.11196167109E+04  0.12500000000E+03 0.  0.
<mgrwt>
<rscale>  0 0.12500000E+03</rscale>
<asrwt>0</asrwt>
<pdfrwt beam="1">  1       21 0.53843898E-03 0.12500000E+03</pdfrwt>
<pdfrwt beam="2">  1       21 0.17171049E+00 0.12500000E+03</pdfrwt>
<totfact> 0.20820310E+06</totfact>
</mgrwt>
</event>
<event>
 3    1  0.1597250E-001  0.1250000E+03  0.7546771E-02  0.1235069E+00
         21   -1    0    0  502  501  0.00000000000E+00  0.00000000000E+00  0.60604118566E+02  0.60604118566E+02  0.00000000000E+00 0. -1.
         21   -1    0    0  501  502 -0.00000000000E+00 -0.00000000000E+00 -0.64455190380E+02  0.64455190380E+02  0.00000000000E+00 0. -1.
         25    1    1    2    0    0  0.00000000000E+00  0.00000000000E+00 -0.38510718134E+01  0.12505930895E+03  0.12500000000E+03 0.  0.
<mgrwt>
<rscale>  0 0.12500000E+03</rscale>
<asrwt>0</asrwt>
<pdfrwt beam="1">  1       21 0.93237105E-02 0.12500000E+03</pdfrwt>
<pdfrwt beam="2">  1       21 0.99161831E-02 0.12500000E+03</pdfrwt>
<totfact> 0.74035571E+06</totfact>
</mgrwt>
</event>
<event>
 3    1  0.1597250E-001  0.1250000E+03  0.7546771E-02  0.1235069E+00
         21   -1    0    0  502  501  0.00000000000E+00  0.00000000000E+00  0.55819439175E+01  0.55819439175E+01  0.00000000000E+00 0. -1.
         21   -1    0    0  501  502 -0.00000000000E+00 -0.00000000000E+00 -0.69980101157E+03  0.69980101157E+03  0.00000000000E+00 0. -1.
         25    1    1    2    0    0  0.00000000000E+00  0.00000000000E+00 -0.69421906765E+03  0.70538295549E+03  0.12500000000E+03 0.  0.
<mgrwt>
<rscale>  0 0.12500000E+03</rscale>
<asrwt>0</asrwt>
<pdfrwt beam="1">  1       21 0.85876121E-03 0.12500000E+03</pdfrwt>
<pdfrwt beam="2">  1       21 0.10766162E+00 0.12500000E+03</pdfrwt>
<totfact> 0.32703658E+06</totfact>
</mgrwt>
</event>
<event>
 3    1  0.1597250E-001  0.1250000E+03  0.7546771E-02  0.1235069E+00
         21   -1    0    0  502  501  0.00000000000E+00  0.00000000000E+00  0.56697326402E+01  0.56697326402E+01  0.00000000000E+00 0.  1.
         21   -1    0    0  501  502 -0.00000000000E+00 -0.00000000000E+00 -0.68896546767E+03  0.68896546767E+03  0.00000000000E+00 0.  1.
         25    1    1    2    0    0  0.00000000000E+00  0.00000000000E+00 -0.68329573503E+03  0.69463520031E+03  0.12500000000E+03 0.  0.
<mgrwt>
<rscale>  0 0.12500000E+03</rscale>
<asrwt>0</asrwt>
<pdfrwt beam="1">  1       21 0.87226654E-03 0.12500000E+03</pdfrwt>
<pdfrwt beam="2">  1       21 0.10599469E+00 0.12500000E+03</pdfrwt>
<totfact> 0.33117998E+06</totfact>
</mgrwt>
</event>
<event>
 3    1  0.1597250E-001  0.1250000E+03  0.7546771E-02  0.1235069E+00
         21   -1    0    0  502  501  0.00000000000E+00  0.00000000000E+00  0.20815979539E+03  0.20815979539E+03  0.00000000000E+00 0.  1.
         21   -1    0    0  501  502 -0.00000000000E+00 -0.00000000000E+00 -0.18765631435E+02  0.18765631435E+02  0.00000000000E+00 0.  1.
         25    1    1    2    0    0  0.00000000000E+00  0.00000000000E+00  0.18939416396E+03  0.22692542683E+03  0.12500000000E+03 0.  0.
<mgrwt>
<rscale>  0 0.12500000E+03</rscale>
<asrwt>0</asrwt>
<pdfrwt beam="1">  1       21 0.32024582E-01 0.12500000E+03</pdfrwt>
<pdfrwt beam="2">  1       21 0.28870204E-02 0.12500000E+03</pdfrwt>
<totfact> 0.62121291E+06</totfact>
</mgrwt>
</event>
<event>
 3    1  0.1597250E-001  0.1250000E+03  0.7546771E-02  0.1235069E+00
         21   -1    0    0  502  501  0.00000000000E+00  0.00000000000E+00  0.41223712910E+03  0.41223712910E+03  0.00000000000E+00 0. -1.
         21   -1    0    0  501  502 -0.00000000000E+00 -0.00000000000E+00 -0.94757355032E+01  0.94757355032E+01  0.00000000000E+00 0. -1.
         25    1    1    2    0    0  0.00000000000E+00  0.00000000000E+00  0.40276139360E+03  0.42171286461E+03  0.12500000000E+03 0.  0.
<mgrwt>
<rscale>  0 0.12500000E+03</rscale>
<asrwt>0</asrwt>
<pdfrwt beam="1">  1       21 0.63421083E-01 0.12500000E+03</pdfrwt>
<pdfrwt beam="2">  1       21 0.14578058E-02 0.12500000E+03</pdfrwt>
<totfact> 0.46633741E+06</totfact>
</mgrwt>
</event>
<event>
 3    1  0.1597250E-001  0.1250000E+03  0.7546771E-02  0.1235069E+00
         21   -1    0    0  502  501  0.00000000000E+00  0.00000000000E+00  0.68251008406E+01  0.68251008406E+01  0.00000000000E+00 0. -1.
         21   -1    0    0  501  502 -0.00000000000E+00 -0.00000000000E+00 -0.57233586598E+03  0.57233586598E+03  0.00000000000E+00 0. -1.
         25    1    1    2    0    0  0.00000000000E+00  0.00000000000E+00 -0.56551076514E+03  0.57916096682E+03  0.12500000000E+03 0.  0.
<mgrwt>
<rscale>  0 0.12500000E+03</rscale>
<asrwt>0</asrwt>
<pdfrwt beam="1">  1       21 0.10500158E-02 0.12500000E+03</pdfrwt>
<pdfrwt beam="2">  1       21 0.88051651E-01 0.12500000E+03</pdfrwt>
<totfact> 0.38052338E+06</totfact>
</mgrwt>
</event>
<event>
 3    1  0.1597250E-001  0.1250000E+03  0.7546771E-02  0.1235069E+00
         21   -1    0    0  502  501  0.00000000000E+00  0.00000000000E+00  0.11146801146E+02  0.11146801146E+02  0.00000000000E+00 0. -1.
         21   -1    0    0  501  502 -0.00000000000E+00 -0.00000000000E+00 -0.35043686067E+03  0.35043686067E+03  0.00000000000E+00 0. -1.
         25    1    1    2    0    0  0.00000000000E+00  0.00000000000E+00 -0.33929005953E+03  0.36158366182E+03  0.12500000000E+03 0.  0.
<mgrwt>
<rscale>  0 0.12500000E+03</rscale>
<asrwt>0</asrwt>
<pdfrwt beam="1">  1       21 0.17148923E-02 0.12500000E+03</pdfrwt>
<pdfrwt beam="2">  1       21 0.53913367E-01 0.12500000E+03</pdfrwt>
<totfact> 0.50694158E+06</totfact>
</mgrwt>
</event>
<event>
 3    1  0.1597250E-001  0.1250000E+03  0.7546771E-02  0.1235069E+00
         21   -1    0    0  502  501  0.00000000000E+00  0.00000000000E+00  0.12185949422E+03  0.12185949422E+03  0.00000000000E+00 0.  1.
         21   -1    0    0  501  502 -0.00000000000E+00 -0.00000000000E+00 -0.32055360357E+02  0.32055360357E+02  0.00000000000E+00 0.  1.
         25    1    1    2    0    0  0.00000000000E+00  0.00000000000E+00  0.89804133860E+02  0.15391485457E+03  0.12500000000E+03 0.  0.
<mgrwt>
<rscale>  0 0.12500000E+03</rscale>
<asrwt>0</asrwt>
<pdfrwt beam="1">  1       21 0.18747614E-01 0.12500000E+03</pdfrwt>
<pdfrwt beam="2">  1       21 0.49315940E-02 0.12500000E+03</pdfrwt>
<totfact> 0.70270780E+06</totfact>
</mgrwt>
</event>
<event>
 3    1  0.1597250E-001  0.1250000E+03  0.7546771E-02  0.1235069E+00
         21   -1    0    0  502  501  0.00000000000E+00  0.00000000000E+00  0.17761481613E+03  0.17761481613E+03  0.00000000000E+00 0. -1.
         21   -1    0    0  501  502 -0.00000000000E+00 -0.00000000000E+00 -0.21992816169E+02  0.21992816169E+02  0.00000000000E+00 0. -1.
         25    1    1    2    0    0  0.00000000000E+00  0.00000000000E+00  0.15562199996E+03  0.19960763230E+03  0.12500000000E+03 0.  0.
<mgrwt>
<rscale>  0 0.12500000E+03</rscale>
<asrwt>0</asrwt>
<pdfrwt beam="1">  1       21 0.27325355E-01 0.12500000E+03</pdfrwt>
<pdfrwt beam="2">  1       21 0.33835103E-02 0.12500000E+03</pdfrwt>
<totfact> 0.64969793E+06</totfact>
</mgrwt>
</event>
<event>
 3    1  0.1597250E-001  0.1250000E+03  0.7546771E-02  0.1235069E+00
         21   -1    0    0  502  501  0.00000000000E+00  0.00000000000E+00  0.73725112893E+01  0.73725112893E+01  0.00000000000E+00 0. -1.
         21   -1    0    0  501  502 -0.00000000000E+00 -0.00000000000E+00 -0.52983981261E+03  0.52983981261E+03  0.00000000000E+00 0. -1.
         25    1    1    2    0    0  0.00000000000E+00  0.00000000000E+00 -0.52246730132E+03  0.53721232390E+03  0.12500000000E+03 0.  0.
<mgrwt>
<rscale>  0 0.12500000E+03</rscale>
<asrwt>0</asrwt>
<pdfrwt beam="1">  1       21 0.11342322E-02 0.12500000E+03</pdfrwt>
<pdfrwt beam="2">  1       21 0.81513841E-01 0.12500000E+03</pdfrwt>
<totfact> 0.40095284E+06</totfact>
</mgrwt>
</event>
<event>
 3    1  0.1597250E-001  0.1250000E+03  0.7546771E-02  0.1235069E+00
         21   -1    0    0  502  501  0.00000000000E+00  0.00000000000E+00  0.45123644568E+03  0.45123644568E+03  0.00000000000E+00 0. -1.
         21   -1    0    0  501  502 -0.00000000000E+00 -0.00000000000E+00 -0.86567697211E+01  0.86567697211E+01  0.00000000000E+00 0. -1.
         25    1    1    2    0    0  0.00000000000E+00  0.00000000000E+00  0.44257967596E+03  0.45989321540E+03  0.12500000000E+03 0.  0.
<mgrwt>
<rscale>  0 0.12500000E+03</rscale>
<asrwt>0</asrwt>
<pdfrwt beam="1">  1       21 0.69420974E-01 0.12500000E+03</pdfrwt>
<pdfrwt beam="2">  1       21 0.13318111E-02 0.12500000E+03</pdfrwt>
<totfact> 0.44306145E+06</totfact>
</mgrwt>
</event>
<event>
 3    1  0.1597250E-001  0.1250000E+03  0.7546771E-02  0.1235069E+00
         21   -1    0    0  502  501  0.00000000000E+00  0.00000000000E+00  0.30867776112E+02  0.30867776112E+02  0.00000000000E+00 0. -1.
         21   -1    0    0  501  502 -0.00000000000E+00 -0.00000000000E+00 -0.12654782728E+03  0.12654782728E+03  0.00000000000E+00 0. -1.
         25    1    1    2    0    0  0.00000000000E+00  0.00000000000E+00 -0.95680051172E+02  0.15741560340E+03  0.12500000000E+03 0.  0.
<mgrwt>
<rscale>  0 0.12500000E+03</rscale>
<asrwt>0</asrwt>
<pdfrwt beam="1">  1       21 0.47488885E-02 0.12500000E+03</pdfrwt>
<pdfrwt beam="2">  1       21 0.19468897E-01 0.12500000E+03</pdfrwt>
<totfact> 0.69836668E+06</totfact>
</mgrwt>
</event>
<event>
 3    1  0.1597250E-001  0.1250000E+03  0.7546771E-02  0.1235069E+00
         21   -1    0    0  502  501  0.00000000000E+00  0.00000000000E+00  0.39031324186E+01  0.39031324186E+01  0.00000000000E+00 0.  1.
         21   -1    0    0  501  502 -0.00000000000E+00 -0.00000000000E+00 -0.10007987383E+04  0.10007987383E+04  0.00000000000E+00 0.  1.
         25    1    1    2    0    0  0.00000000000E+00  0.00000000000E+00 -0.99689560589E+03  0.10047018707E+04  0.12500000000E+03 0.  0.
<mgrwt>
<rscale>  0 0.12500000E+03</rscale>
<asrwt>0</asrwt>
<pdfrwt beam="1">  1       21 0.60048126E-03 0.12500000E+03</pdfrwt>
<pdfrwt beam="2">  1       21 0.15396920E+00 0.12500000E+03</pdfrwt>
<totfact> 0.23501593E+06</totfact>
</mgrwt>
</event>
<event>
 3    1  0.1597250E-001  0.1250000E+03  0.7546771E-02  0.1235069E+00
         21   -1    0    0  502  501  0.00000000000E+00  0.00000000000E+00  0.33412976896E+03  0.33412976896E+03  0.00000000000E+00 0. -1.
         21   -1    0    0  501  502 -0.00000000000E+00 -0.00000000000E+00 -0.11690817050E+02  0.11690817050E+02  0.00000000000E+00 0. -1.
         25    1    1    2    0    0  0.00000000000E+00  0.00000000000E+00  0.32243895191E+03  0.34582058601E+03  0.12500000000E+03 0.  0.
<mgrwt>
<rscale>  0 0.12500000E+03</rscale>
<asrwt>0</asrwt>
<pdfrwt beam="1">  1       21 0.51404573E-01 0.12500000E+03</pdfrwt>
<pdfrwt beam="2">  1       21 0.17985875E-02 0.12500000E+03</pdfrwt>
<totfact> 0.51848585E+06</totfact>
</mgrwt>
</event>
<event>
 3    1  0.1597250E-001  0.1250000E+03  0.7546771E-02  0.1235069E+00
         21   -1    0    0  502  501  0.00000000000E+00  0.00000000000E+00  0.22774793693E+02  0.22774793693E+02  0.00000000000E+00 0. -1.
         21   -1    0    0  501  502 -0.00000000000E+00 -0.00000000000E+00 -0.17151637256E+03  0.17151637256E+03  0.00000000000E+00 0. -1.
         25    1    1    2    0    0  0.00000000000E+00  0.00000000000E+00 -0.14874157887E+03  0.19429116625E+03  0.12500000000E+03 0.  0.
<mgrwt>
<rscale>  0 0.12500000E+03</rscale>
<asrwt>0</asrwt>
<pdfrwt beam="1">  1       21 0.35038144E-02 0.12500000E+03</pdfrwt>
<pdfrwt beam="2">  1       21 0.26387134E-01 0.12500000E+03</pdfrwt>
<totfact> 0.65548685E+06</totfact>
</mgrwt>
</event>
<event>
 3    1  0.1597250E-001  0.1250000E+03  0.7546771E-02  0.1235069E+00
         21   -1    0    0  502  501  0.00000000000E+00  0.00000000000E+00  0.36524925067E+03  0.36524925067E+03  0.00000000000E+00 0. -1.
         21   -1    0    0  501  502 -0.00000000000E+00 -0.00000000000E+00 -0.10694751578E+02  0.10694751578E+02  0.00000000000E+00 0. -1.
         25    1    1    2    0    0  0.00000000000E+00  0.00000000000E+00  0.35455449909E+03  0.37594400225E+03  0.12500000000E+03 0.  0.
<mgrwt>
<rscale>  0 0.12500000E+03</rscale>
<asrwt>0</asrwt>
<pdfrwt beam="1">  1       21 0.56192183E-01 0.12500000E+03</pdfrwt>
<pdfrwt beam="2">  1       21 0.16453467E-02 0.12500000E+03</pdfrwt>
<totfact> 0.49677639E+06</totfact>
</mgrwt>
</event>
<event>
 3    1  0.1597250E-001  0.1250000E+03  0.7546771E-02  0.1235069E+00
         21   -1    0    0  502  501  0.00000000000E+00  0.00000000000E+00  0.13734917412E+02  0.13734917412E+02  0.00000000000E+00 0. -1.
         21   -1    0    0  501  502 -0.00000000000E+00 -0.00000000000E+00 -0.28440287502E+03  0.28440287502E+03  0.00000000000E+00 0. -1.
         25    1    1    2    0    0  0.00000000000E+00  0.00000000000E+00 -0.27066795761E+03  0.29813779243E+03  0.12500000000E+03 0.  0.
<mgrwt>
<rscale>  0 0.12500000E+03</rscale>
<asrwt>0</asrwt>
<pdfrwt beam="1">  1       21 0.21130642E-02 0.12500000E+03</pdfrwt>
<pdfrwt beam="2">  1       21 0.43754288E-01 0.12500000E+03</pdfrwt>
<totfact> 0.55611286E+06</totfact>
</mgrwt>
</event>
<event>
 3    1  0.1597250E-001  0.1250000E+03  0.7546771E-02  0.1235069E+00
         21   -1    0    0  502  501  0.00000000000E+00  0.00000000000E+00  0.53771905043E+02  0.53771905043E+02  0.00000000000E+00 0. -1.
         21   -1    0    0  501  502 -0.00000000000E+00 -0.00000000000E+00 -0.72644813251E+02  0.72644813251E+02  0.00000000000E+00 0. -1.
         25    1    1    2    0    0  0.00000000000E+00  0.00000000000E+00 -0.18872908207E+02  0.12641671829E+03  0.12500000000E+03 0.  0.
<mgrwt>
<rscale>  0 0.12500000E+03</rscale>
<asrwt>0</asrwt>
<pdfrwt beam="1">  1       21 0.82726008E-02 0.12500000E+03</pdfrwt>
<pdfrwt beam="2">  1       21 0.11176125E-01 0.12500000E+03</pdfrwt>
<totfact> 0.73848776E+06</totfact>
</mgrwt>
</event>
<event>
 3    1  0.1597250E-001  0.1250000E+03  0.7546771E-02  0.1235069E+00
         21   -1    0    0  502  501  0.00000000000E+00  0.00000000000E+00  0.20513919226E+03  0.20513919226E+03  0.00000000000E+00 0.  1.
         21   -1    0    0  501  502 -0.00000000000E+00 -0.00000000000E+00 -0.19041948820E+02  0.19041948820E+02  0.00000000000E+00 0.  1.
         25    1    1    2    0    0  0.00000000000E+00  0.00000000000E+00  0.18609724344E+03  0.22418114108E+03  0.12500000000E+03 0.  0.
<mgrwt>
<rscale>  0 0.12500000E+03</rscale>
<asrwt>0</asrwt>
<pdfrwt beam="1">  1       21 0.31559874E-01 0.12500000E+03</pdfrwt>
<pdfrwt beam="2">  1       21 0.29295307E-02 0.12500000E+03</pdfrwt>
<totfact> 0.62397706E+06</totfact>
</mgrwt>
</event>
<event>
 3    1  0.1597250E-001  0.1250000E+03  0.7546771E-02  0.1235069E+00
         21   -1    0    0  502  501  0.00000000000E+00  0.00000000000E+00  0.23647940242E+02  0.23647940242E+02  0.00000000000E+00 0.  1.
         21   -1    0    0  501  502 -0.00000000000E+00 -0.00000000000E+00 -0.16518351958E+03  0.16518351958E+03  0.00000000000E+00 0.  1.
         25    1    1    2    0    0  0.00000000000E+00  0.00000000000E+00 -0.14153557933E+03  0.18883145982E+03  0.12500000000E+03 0.  0.
<mgrwt>
<rscale>  0 0.12500000E+03</rscale>
<asrwt>0</asrwt>
<pdfrwt beam="1">  1       21 0.36381446E-02 0.12500000E+03</pdfrwt>
<pdfrwt beam="2">  1       21 0.25412849E-01 0.12500000E+03</pdfrwt>
<totfact> 0.66152572E+06</totfact>
</mgrwt>
</event>
<event>
 3    1  0.1597250E-001  0.1250000E+03  0.7546771E-02  0.1235069E+00
         21   -1    0    0  502  501  0.00000000000E+00  0.00000000000E+00  0.19975512582E+03  0.19975512582E+03  0.00000000000E+00 0.  1.
         21   -1    0    0  501  502 -0.00000000000E+00 -0.00000000000E+00 -0.19555192809E+02  0.19555192809E+02  0.00000000000E+00 0.  1.
         25    1    1    2    0    0  0.00000000000E+00  0.00000000000E+00  0.18019993301E+03  0.21931031862E+03  0.12500000000E+03 0.  0.
<mgrwt>
<rscale>  0 0.12500000E+03</rscale>
<asrwt>0</asrwt>
<pdfrwt beam="1">  1       21 0.30731556E-01 0.12500000E+03</pdfrwt>
<pdfrwt beam="2">  1       21 0.30084913E-02 0.12500000E+03</pdfrwt>
<totfact> 0.62893100E+06</totfact>
</mgrwt>
</event>
<event>
 3    1  0.1597250E-001  0.1250000E+03  0.7546771E-02  0.1235069E+00
         21   -1    0    0  502  501  0.00000000000E+00  0.00000000000E+00  0.91235377315E+01  0.91235377315E+01  0.00000000000E+00 0.  1.
         21   -1    0    0  501  502 -0.00000000000E+00 -0.00000000000E+00 -0.42815080235E+03  0.42815080235E+03  0.00000000000E+00 0.  1.
         25    1    1    2    0    0  0.00000000000E+00  0.00000000000E+00 -0.41902726462E+03  0.43727434008E+03  0.12500000000E+03 0.  0.
<mgrwt>
<rscale>  0 0.12500000E+03</rscale>
<asrwt>0</asrwt>
<pdfrwt beam="1">  1       21 0.14036214E-02 0.12500000E+03</pdfrwt>
<pdfrwt beam="2">  1       21 0.65869346E-01 0.12500000E+03</pdfrwt>
<totfact> 0.45663414E+06</totfact>
</mgrwt>
</event>
<event>
 3    1  0.1597250E-001  0.1250000E+03  0.7546771E-02  0.1235069E+00
         21   -1    0    0  502  501  0.00000000000E+00  0.00000000000E+00  0.57480658399E+01  0.57480658399E+01  0.00000000000E+00 0. -1.
         21   -1    0    0  501  502 -0.00000000000E+00 -0.00000000000E+00 -0.67957641906E+03  0.67957641906E+03  0.00000000000E+00 0. -1.
         25    1    1    2    0    0  0.00000000000E+00  0.00000000000E+00 -0.67382835322E+03  0.68532448490E+03  0.12500000000E+03 0.  0.
<mgrwt>
<rscale>  0 0.12500000E+03</rscale>
<asrwt>0</asrwt>
<pdfrwt beam="1">  1       21 0.88431771E-03 0.12500000E+03</pdfrwt>
<pdfrwt beam="2">  1       21 0.10455023E+00 0.12500000E+03</pdfrwt>
<totfact> 0.33483647E+06</totfact>
</mgrwt>
</event>
<event>
 3    1  0.1597250E-001  0.1250000E+03  0.7546771E-02  0.1235069E+00
         21   -1    0    0  502  501  0.00000000000E+00  0.00000000000E+00  0.28545969327E+02  0.28545969327E+02  0.00000000000E+00 0.  1.
         21   -1    0    0  501  502 -0.00000000000E+00 -0.00000000000E+00 -0.13684068512E+03  0.13684068512E+03  0.00000000000E+00 0.  1.
         25    1    1    2    0    0  0.00000000000E+00  0.00000000000E+00 -0.10829471579E+03  0.16538665444E+03  0.12500000000E+03 0.  0.
<mgrwt>
<rscale>  0 0.12500000E+03</rscale>
<asrwt>0</asrwt>
<pdfrwt beam="1">  1       21 0.43916876E-02 0.12500000E+03</pdfrwt>
<pdfrwt beam="2">  1       21 0.21052413E-01 0.12500000E+03</pdfrwt>
<totfact> 0.68867222E+06</totfact>
</mgrwt>
</event>
<event>
 3    1  0.1597250E-001  0.1250000E+03  0.7546771E-02  0.1235069E+00
         21   -1    0    0  502  501  0.00000000000E+00  0.00000000000E+00  0.99560894973E+02  0.99560894973E+02  0.00000000000E+00 0. -1.
         21   -1    0    0  501  502 -0.00000000000E+00 -0.00000000000E+00 -0.39234781900E+02  0.39234781900E+02  0.00000000000E+00 0. -1.
         25    1    1    2    0    0  0.00000000000E+00  0.00000000000E+00  0.60326113073E+02  0.13879567687E+03  0.12500000000E+03 0.  0.
<mgrwt>
<rscale>  0 0.12500000E+03</rscale>
<asrwt>0</asrwt>
<pdfrwt beam="1">  1       21 0.15317061E-01 0.12500000E+03</pdfrwt>
<pdfrwt beam="2">  1       21 0.60361203E-02 0.12500000E+03</pdfrwt>
<totfact> 0.72196922E+06</totfact>
</mgrwt>
</event>
<event>
 3    1  0.1597250E-001  0.1250000E+03  0.7546771E-02  0.1235069E+00
         21   -1    0    0  502  501  0.00000000000E+00  0.00000000000E+00  0.62529965624E+02  0.62529965624E+02  0.00000000000E+00 0. -1.
         21   -1    0    0  501  502 -0.00000000000E+00 -0.00000000000E+00 -0.62470048736E+02  0.62470048736E+02  0.00000000000E+00 0. -1.
         25    1    1    2    0    0  0.00000000000E+00  0.00000000000E+00  0.59916888043E-01  0.12500001436E+03  0.12500000000E+03 0.  0.
<mgrwt>
<rscale>  0 0.12500000E+03</rscale>
<asrwt>0</asrwt>
<pdfrwt beam="1">  1       21 0.96199947E-02 0.12500000E+03</pdfrwt>
<pdfrwt beam="2">  1       21 0.96107767E-02 0.12500000E+03</pdfrwt>
<totfact> 0.74043580E+06</totfact>
</mgrwt>
</event>
<event>
 3    1  0.1597250E-001  0.1250000E+03  0.7546771E-02  0.1235069E+00
         21   -1    0    0  502  501  0.00000000000E+00  0.00000000000E+00  0.39148854988E+02  0.39148854988E+02  0.00000000000E+00 0.  1.
         21   -1    0    0  501  502 -0.00000000000E+00 -0.00000000000E+00 -0.99779418866E+02  0.99779418866E+02  0.00000000000E+00 0.  1.
         25    1    1    2    0    0  0.00000000000E+00  0.00000000000E+00 -0.60630563878E+02  0.13892827385E+03  0.12500000000E+03 0.  0.
<mgrwt>
<rscale>  0 0.12500000E+03</rscale>
<asrwt>0</asrwt>
<pdfrwt beam="1">  1       21 0.60229008E-02 0.12500000E+03</pdfrwt>
<pdfrwt beam="2">  1       21 0.15350680E-01 0.12500000E+03</pdfrwt>
<totfact> 0.72179530E+06</totfact>
</mgrwt>
</event>
<event>
 3    1  0.1597250E-001  0.1250000E+03  0.7546771E-02  0.1235069E+00
         21   -1    0    0  502  501  0.00000000000E+00  0.00000000000E+00  0.40955426856E+03  0.40955426856E+03  0.00000000000E+00 0.  1.
         21   -1    0    0  501  502 -0.00000000000E+00 -0.00000000000E+00 -0.95378080509E+01  0.95378080509E+01  0.00000000000E+00 0.  1.
         25    1    1    2    0    0  0.00000000000E+00  0.00000000000E+00  0.40001646051E+03  0.41909207661E+03  0.12500000000E+03 0.  0.
<mgrwt>
<rscale>  0 0.12500000E+03</rscale>
<asrwt>0</asrwt>
<pdfrwt beam="1">  1       21 0.63008336E-01 0.12500000E+03</pdfrwt>
<pdfrwt beam="2">  1       21 0.14673554E-02 0.12500000E+03</pdfrwt>
<totfact> 0.46800256E+06</totfact>
</mgrwt>
</event>
<event>
 3    1  0.1597250E-001  0.1250000E+03  0.7546771E-02  0.1235069E+00
         21   -1    0    0  502  501  0.00000000000E+00  0.00000000000E+00  0.71542336173E+01  0.71542336173E+01  0.00000000000E+00 0.  1.
         21   -1    0    0  501  502 -0.00000000000E+00 -0.00000000000E+00 -0.54600537374E+03  0.54600537374E+03  0.00000000000E+00 0.  1.
         25    1    1    2    0    0  0.00000000000E+00  0.00000000000E+00 -0.53885114012E+03  0.55315960735E+03  0.12500000000E+03 0.  0.
<mgrwt>
<rscale>  0 0.12500000E+03</rscale>
<asrwt>0</asrwt>
<pdfrwt beam="1">  1       21 0.11006516E-02 0.12500000E+03</pdfrwt>
<pdfrwt beam="2">  1       21 0.84000807E-01 0.12500000E+03</pdfrwt>
<totfact> 0.39300408E+06</totfact>
</mgrwt>
</event>
<event>
 3    1  0.1597250E-001  0.1250000E+03  0.7546771E-02  0.1235069E+00
         21   -1    0    0  502  501  0.00000000000E+00  0.00000000000E+00  0.26254068935E+03  0.26254068935E+03  0.00000000000E+00 0.  1.
         21   -1    0    0  501  502 -0.00000000000E+00 -0.00000000000E+00 -0.14878646086E+02  0.14878646086E+02  0.00000000000E+00 0.  1.
         25    1    1    2    0    0  0.00000000000E+00  0.00000000000E+00  0.24766204326E+03  0.27741933544E+03  0.12500000000E+03 0.  0.
<mgrwt>
<rscale>  0 0.12500000E+03</rscale>
<asrwt>0</asrwt>
<pdfrwt beam="1">  1       21 0.40390872E-01 0.12500000E+03</pdfrwt>
<pdfrwt beam="2">  1       21 0.22890227E-02 0.12500000E+03</pdfrwt>
<totfact> 0.57386522E+06</totfact>
</mgrwt>
</event>
<event>
 3    1  0.1597250E-001  0.1250000E+03  0.7546771E-02  0.1235069E+00
         21   -1    0    0  502  501  0.00000000000E+00  0.00000000000E+00  0.38018703974E+02  0.38018703974E+02  0.00000000000E+00 0.  1.
         21   -1    0    0  501  502 -0.00000000000E+00 -0.00000000000E+00 -0.10274548030E+03  0.10274548030E+03  0.00000000000E+00 0.  1.
         25    1    1    2    0    0  0.00000000000E+00  0.00000000000E+00 -0.64726776321E+02  0.14076418427E+03  0.12500000000E+03 0.  0.
<mgrwt>
<rscale>  0 0.12500000E+03</rscale>
<asrwt>0</asrwt>
<pdfrwt beam="1">  1       21 0.58490314E-02 0.12500000E+03</pdfrwt>
<pdfrwt beam="2">  1       21 0.15806997E-01 0.12500000E+03</pdfrwt>
<totfact> 0.71939702E+06</totfact>
</mgrwt>
</event>
<event>
 3    1  0.1597250E-001  0.1250000E+03  0.7546771E-02  0.1235069E+00
         21   -1    0    0  502  501  0.00000000000E+00  0.00000000000E+00  0.29615831793E+02  0.29615831793E+02  0.00000000000E+00 0.  1.
         21   -1    0    0  501  502 -0.00000000000E+00 -0.00000000000E+00 -0.13189735906E+03  0.13189735906E+03  0.00000000000E+00 0.  1.
         25    1    1    2    0    0  0.00000000000E+00  0.00000000000E+00 -0.10228152727E+03  0.16151319086E+03  0.12500000000E+03 0.  0.
<mgrwt>
<rscale>  0 0.12500000E+03</rscale>
<asrwt>0</asrwt>
<pdfrwt beam="1">  1       21 0.45562818E-02 0.12500000E+03</pdfrwt>
<pdfrwt beam="2">  1       21 0.20291901E-01 0.12500000E+03</pdfrwt>
<totfact> 0.69335071E+06</totfact>
</mgrwt>
</event>
<event>
 3    1  0.1597250E-001  0.1250000E+03  0.7546771E-02  0.1235069E+00
         21   -1    0    0  502  501  0.00000000000E+00  0.00000000000E+00  0.85895428475E+02  0.85895428475E+02  0.00000000000E+00 0. -1.
         21   -1    0    0  501  502 -0.00000000000E+00 -0.00000000000E+00 -0.45476809061E+02  0.45476809061E+02  0.00000000000E+00 0. -1.
         25    1    1    2    0    0  0.00000000000E+00  0.00000000000E+00  0.40418619414E+02  0.13137223754E+03  0.12500000000E+03 0.  0.
<mgrwt>
<rscale>  0 0.12500000E+03</rscale>
<asrwt>0</asrwt>
<pdfrwt beam="1">  1       21 0.13214681E-01 0.12500000E+03</pdfrwt>
<pdfrwt beam="2">  1       21 0.69964322E-02 0.12500000E+03</pdfrwt>
<totfact> 0.73180553E+06</totfact>
</mgrwt>
</event>
<event>
 3    1  0.1597250E-001  0.1250000E+03  0.7546771E-02  0.1235069E+00
         21   -1    0    0  502  501  0.00000000000E+00  0.00000000000E+00  0.82445616898E+01  0.82445616898E+01  0.00000000000E+00 0. -1.
         21   -1    0    0  501  502 -0.00000000000E+00 -0.00000000000E+00 -0.47379717042E+03  0.47379717042E+03  0.00000000000E+00 0. -1.
         25    1    1    2    0    0  0.00000000000E+00  0.00000000000E+00 -0.46555260873E+03  0.48204173211E+03  0.12500000000E+03 0.  0.
<mgrwt>
<rscale>  0 0.12500000E+03</rscale>
<asrwt>0</asrwt>
<pdfrwt beam="1">  1       21 0.12683938E-02 0.12500000E+03</pdfrwt>
<pdfrwt beam="2">  1       21 0.72891891E-01 0.12500000E+03</pdfrwt>
<totfact> 0.43035031E+06</totfact>
</mgrwt>
</event>
<event>
 3    1  0.1597250E-001  0.1250000E+03  0.7546771E-02  0.1235069E+00
         21   -1    0    0  502  501  0.00000000000E+00  0.00000000000E+00  0.37876939454E+02  0.37876939454E+02  0.00000000000E+00 0. -1.
         21   -1    0    0  501  502 -0.00000000000E+00 -0.00000000000E+00 -0.10313003258E+03  0.10313003258E+03  0.00000000000E+00 0. -1.
         25    1    1    2    0    0  0.00000000000E+00  0.00000000000E+00 -0.65253093128E+02  0.14100697204E+03  0.12500000000E+03 0.  0.
<mgrwt>
<rscale>  0 0.12500000E+03</rscale>
<asrwt>0</asrwt>
<pdfrwt beam="1">  1       21 0.58272215E-02 0.12500000E+03</pdfrwt>
<pdfrwt beam="2">  1       21 0.15866159E-01 0.12500000E+03</pdfrwt>
<totfact> 0.71908122E+06</totfact>
</mgrwt>
</event>
<event>
 3    1  0.1597250E-001  0.1250000E+03  0.7546771E-02  0.1235069E+00
         21   -1    0    0  502  501  0.00000000000E+00  0.00000000000E+00  0.49643405544E+03  0.49643405544E+03  0.00000000000E+00 0.  1.
         21   -1    0    0  501  502 -0.00000000000E+00 -0.00000000000E+00 -0.78686181120E+01  0.78686181120E+01  0.00000000000E+00 0.  1.
         25    1    1    2    0    0  0.00000000000E+00  0.00000000000E+00  0.48856543732E+03  0.50430267355E+03  0.12500000000E+03 0.  0.
<mgrwt>
<rscale>  0 0.12500000E+03</rscale>
<asrwt>0</asrwt>
<pdfrwt beam="1">  1       21 0.76374445E-01 0.12500000E+03</pdfrwt>
<pdfrwt beam="2">  1       21 0.12105570E-02 0.12500000E+03</pdfrwt>
<totfact> 0.41811692E+06</totfact>
</mgrwt>
</event>
<event>
 3    1  0.1597250E-001  0.1250000E+03  0.7546771E-02  0.1235069E+00
         21   -1    0    0  502  501  0.00000000000E+00  0.00000000000E+00  0.16092856816E+03  0.16092856816E+03  0.00000000000E+00 0. -1.
         21   -1    0    0  501  502 -0.00000000000E+00 -0.00000000000E+00 -0.24273191794E+02  0.24273191794E+02  0.00000000000E+00 0. -1.
         25    1    1    2    0    0  0.00000000000E+00  0.00000000000E+00  0.13665537636E+03  0.18520175995E+03  0.12500000000E+03 0.  0.
<mgrwt>
<rscale>  0 0.12500000E+03</rscale>
<asrwt>0</asrwt>
<pdfrwt beam="1">  1       21 0.24758241E-01 0.12500000E+03</pdfrwt>
<pdfrwt beam="2">  1       21 0.37343373E-02 0.12500000E+03</pdfrwt>
<totfact> 0.66559759E+06</totfact>
</mgrwt>
</event>
<event>
 3    1  0.1597250E-001  0.1250000E+03  0.7546771E-02  0.1235069E+00
         21   -1    0    0  502  501  0.00000000000E+00  0.00000000000E+00  0.11332230187E+02  0.11332230187E+02  0.00000000000E+00 0.  1.
         21   -1    0    0  501  502 -0.00000000000E+00 -0.00000000000E+00 -0.34470266978E+03  0.34470266978E+03  0.00000000000E+00 0.  1.
         25    1    1    2    0    0  0.00000000000E+00  0.00000000000E+00 -0.33337043960E+03  0.35603489997E+03  0.12500000000E+03 0.  0.
<mgrwt>
<rscale>  0 0.12500000E+03</rscale>
<asrwt>0</asrwt>
<pdfrwt beam="1">  1       21 0.17434201E-02 0.12500000E+03</pdfrwt>
<pdfrwt beam="2">  1       21 0.53031177E-01 0.12500000E+03</pdfrwt>
<totfact> 0.51095804E+06</totfact>
</mgrwt>
</event>
<event>
 3    1  0.1597250E-001  0.1250000E+03  0.7546771E-02  0.1235069E+00
         21   -1    0    0  502  501  0.00000000000E+00  0.00000000000E+00  0.13781572357E+03  0.13781572357E+03  0.00000000000E+00 0. -1.
         21   -1    0    0  501  502 -0.00000000000E+00 -0.00000000000E+00 -0.28344008207E+02  0.28344008207E+02  0.00000000000E+00 0. -1.
         25    1    1    2    0    0  0.00000000000E+00  0.00000000000E+00  0.10947171536E+03  0.16615973178E+03  0.12500000000E+03 0.  0.
<mgrwt>
<rscale>  0 0.12500000E+03</rscale>
<asrwt>0</asrwt>
<pdfrwt beam="1">  1       21 0.21202419E-01 0.12500000E+03</pdfrwt>
<pdfrwt beam="2">  1       21 0.43606167E-02 0.12500000E+03</pdfrwt>
<totfact> 0.68774567E+06</totfact>
</mgrwt>
</event>
<event>
 3    1  0.1597250E-001  0.1250000E+03  0.7546771E-02  0.1235069E+00
         21   -1    0    0  502  501  0.00000000000E+00  0.00000000000E+00  0.53111974790E+02  0.53111974790E+02  0.00000000000E+00 0.  1.
         21   -1    0    0  501  502 -0.00000000000E+00 -0.00000000000E+00 -0.73547444158E+02  0.73547444158E+02  0.00000000000E+00 0.  1.
         25    1    1    2    0    0  0.00000000000E+00  0.00000000000E+00 -0.20435469368E+02  0.12665941895E+03  0.12500000000E+03 0.  0.
<mgrwt>
<rscale>  0 0.12500000E+03</rscale>
<asrwt>0</asrwt>
<pdfrwt beam="1">  1       21 0.81710731E-02 0.12500000E+03</pdfrwt>
<pdfrwt beam="2">  1       21 0.11314991E-01 0.12500000E+03</pdfrwt>
<totfact> 0.73815577E+06</totfact>
</mgrwt>
</event>
<event>
 3    1  0.1597250E-001  0.1250000E+03  0.7546771E-02  0.1235069E+00
         21   -1    0    0  502  501  0.00000000000E+00  0.00000000000E+00  0.29553390306E+02  0.29553390306E+02  0.00000000000E+00 0. -1.
         21   -1    0    0  501  502 -0.00000000000E+00 -0.00000000000E+00 -0.13217603664E+03  0.13217603664E+03  0.00000000000E+00 0. -1.
         25    1    1    2    0    0  0.00000000000E+00  0.00000000000E+00 -0.10262264633E+03  0.16172942695E+03  0.12500000000E+03 0.  0.
<mgrwt>
<rscale>  0 0.12500000E+03</rscale>
<asrwt>0</asrwt>
<pdfrwt beam="1">  1       21 0.45466754E-02 0.12500000E+03</pdfrwt>
<pdfrwt beam="2">  1       21 0.20334775E-01 0.12500000E+03</pdfrwt>
<totfact> 0.69308794E+06</totfact>
</mgrwt>
</event>
<event>
 3    1  0.1597250E-001  0.1250000E+03  0.7546771E-02  0.1235069E+00
         21   -1    0    0  502  501  0.00000000000E+00  0.00000000000E+00  0.34636381902E+02  0.34636381902E+02  0.00000000000E+00 0. -1.
         21   -1    0    0  501  502 -0.00000000000E+00 -0.00000000000E+00 -0.11277881192E+03  0.11277881192E+03  0.00000000000E+00 0. -1.
         25    1    1    2    0    0  0.00000000000E+00  0.00000000000E+00 -0.78142430015E+02  0.14741519382E+03  0.12500000000E+03 0.  0.
<mgrwt>
<rscale>  0 0.12500000E+03</rscale>
<asrwt>0</asrwt>
<pdfrwt beam="1">  1       21 0.53286742E-02 0.12500000E+03</pdfrwt>
<pdfrwt beam="2">  1       21 0.17350586E-01 0.12500000E+03</pdfrwt>
<totfact> 0.71085430E+06</totfact>
</mgrwt>
</event>
<event>
 3    1  0.1597250E-001  0.1250000E+03  0.7546771E-02  0.1235069E+00
         21   -1    0    0  502  501  0.00000000000E+00  0.00000000000E+00  0.20038328017E+02  0.20038328017E+02  0.00000000000E+00 0. -1.
         21   -1    0    0  501  502 -0.00000000000E+00 -0.00000000000E+00 -0.19493891889E+03  0.19493891889E+03  0.00000000000E+00 0. -1.
         25    1    1    2    0    0  0.00000000000E+00  0.00000000000E+00 -0.17490059087E+03  0.21497724690E+03  0.12500000000E+03 0.  0.
<mgrwt>
<rscale>  0 0.12500000E+03</rscale>
<asrwt>0</asrwt>
<pdfrwt beam="1">  1       21 0.30828196E-02 0.12500000E+03</pdfrwt>
<pdfrwt beam="2">  1       21 0.29990603E-01 0.12500000E+03</pdfrwt>
<totfact> 0.63339647E+06</totfact>
</mgrwt>
</event>
<event>
 3    1  0.1597250E-001  0.1250000E+03  0.7546771E-02  0.1235069E+00
         21   -1    0    0  502  501  0.00000000000E+00  0.00000000000E+00  0.31357119700E+03  0.31357119700E+03  0.00000000000E+00 0.  1.
         21   -1    0    0  501  502 -0.00000000000E+00 -0.00000000000E+00 -0.12457298494E+02  0.12457298494E+02  0.00000000000E+00 0.  1.
         25    1    1    2    0    0  0.00000000000E+00  0.00000000000E+00  0.30111389850E+03  0.32602849549E+03  0.12500000000E+03 0.  0.
<mgrwt>
<rscale>  0 0.12500000E+03</rscale>
<asrwt>0</asrwt>
<pdfrwt beam="1">  1       21 0.48241717E-01 0.12500000E+03</pdfrwt>
<pdfrwt beam="2">  1       21 0.19165077E-02 0.12500000E+03</pdfrwt>
<totfact> 0.53359049E+06</totfact>
</mgrwt>
</event>
<event>
 3    1  0.1597250E-001  0.1250000E+03  0.7546771E-02  0.1235069E+00
         21   -1    0    0  502  501  0.00000000000E+00  0.00000000000E+00  0.21619034818E+02  0.21619034818E+02  0.00000000000E+00 0.  1.
         21   -1    0    0  501  502 -0.00000000000E+00 -0.00000000000E+00 -0.18068567967E+03  0.18068567967E+03  0.00000000000E+00 0.  1.
         25    1    1    2    0    0  0.00000000000E+00  0.00000000000E+00 -0.15906664485E+03  0.20230471449E+03  0.12500000000E+03 0.  0.
<mgrwt>
<rscale>  0 0.12500000E+03</rscale>
<asrwt>0</asrwt>
<pdfrwt beam="1">  1       21 0.33260053E-02 0.12500000E+03</pdfrwt>
<pdfrwt beam="2">  1       21 0.27797798E-01 0.12500000E+03</pdfrwt>
<totfact> 0.64678373E+06</totfact>
</mgrwt>
</event>
<event>
 3    1  0.1597250E-001  0.1250000E+03  0.7546771E-02  0.1235069E+00
         21   -1    0    0  502  501  0.00000000000E+00  0.00000000000E+00  0.16751844948E+03  0.16751844948E+03  0.00000000000E+00 0. -1.
         21   -1    0    0  501  502 -0.00000000000E+00 -0.00000000000E+00 -0.23318327099E+02  0.23318327099E+02  0.00000000000E+00 0. -1.
         25    1    1    2    0    0  0.00000000000E+00  0.00000000000E+00  0.14420012238E+03  0.19083677658E+03  0.12500000000E+03 0.  0.
<mgrwt>
<rscale>  0 0.12500000E+03</rscale>
<asrwt>0</asrwt>
<pdfrwt beam="1">  1       21 0.25772068E-01 0.12500000E+03</pdfrwt>
<pdfrwt beam="2">  1       21 0.35874350E-02 0.12500000E+03</pdfrwt>
<totfact> 0.65929585E+06</totfact>
</mgrwt>
</event>
<event>
 3    1  0.1597250E-001  0.1250000E+03  0.7546771E-02  0.1235069E+00
         21   -1    0    0  502  501  0.00000000000E+00  0.00000000000E+00  0.90529245076E+01  0.90529245076E+01  0.00000000000E+00 0. -1.
         21   -1    0    0  501  502 -0.00000000000E+00 -0.00000000000E+00 -0.43149039813E+03  0.43149039813E+03  0.00000000000E+00 0. -1.
         25    1    1    2    0    0  0.00000000000E+00  0.00000000000E+00 -0.42243747362E+03  0.44054332264E+03  0.12500000000E+03 0.  0.
<mgrwt>
<rscale>  0 0.12500000E+03</rscale>
<asrwt>0</asrwt>
<pdfrwt beam="1">  1       21 0.13927574E-02 0.12500000E+03</pdfrwt>
<pdfrwt beam="2">  1       21 0.66383147E-01 0.12500000E+03</pdfrwt>
<totfact> 0.45463485E+06</totfact>
</mgrwt>
</event>
<event>
 3    1  0.1597250E-001  0.1250000E+03  0.7546771E-02  0.1235069E+00
         21   -1    0    0  502  501  0.00000000000E+00  0.00000000000E+00  0.98626858855E+02  0.98626858855E+02  0.00000000000E+00 0.  1.
         21   -1    0    0  501  502 -0.00000000000E+00 -0.00000000000E+00 -0.39606351103E+02  0.39606351103E+02  0.00000000000E+00 0.  1.
         25    1    1    2    0    0  0.00000000000E+00  0.00000000000E+00  0.59020507752E+02  0.13823320996E+03  0.12500000000E+03 0.  0.
<mgrwt>
<rscale>  0 0.12500000E+03</rscale>
<asrwt>0</asrwt>
<pdfrwt beam="1">  1       21 0.15173363E-01 0.12500000E+03</pdfrwt>
<pdfrwt beam="2">  1       21 0.60932848E-02 0.12500000E+03</pdfrwt>
<totfact> 0.72270806E+06</totfact>
</mgrwt>
</event>
<event>
 3    1  0.1597250E-001  0.1250000E+03  0.7546771E-02  0.1235069E+00
         21   -1    0    0  502  501  0.00000000000E+00  0.00000000000E+00  0.31014718233E+03  0.31014718233E+03  0.00000000000E+00 0.  1.
         21   -1    0    0  501  502 -0.00000000000E+00 -0.00000000000E+00 -0.12594826658E+02  0.12594826658E+02  0.00000000000E+00 0.  1.
         25    1    1    2    0    0  0.00000000000E+00  0.00000000000E+00  0.29755235567E+03  0.32274200899E+03  0.12500000000E+03 0.  0.
<mgrwt>
<rscale>  0 0.12500000E+03</rscale>
<asrwt>0</asrwt>
<pdfrwt beam="1">  1       21 0.47714946E-01 0.12500000E+03</pdfrwt>
<pdfrwt beam="2">  1       21 0.19376659E-02 0.12500000E+03</pdfrwt>
<totfact> 0.53616768E+06</totfact>
</mgrwt>
</event>
<event>
 3    1  0.1597250E-001  0.1250000E+03  0.7546771E-02  0.1235069E+00
         21   -1    0    0  502  501  0.00000000000E+00  0.00000000000E+00  0.56610917672E+02  0.56610917672E+02  0.00000000000E+00 0.  1.
         21   -1    0    0  501  502 -0.00000000000E+00 -0.00000000000E+00 -0.69001707809E+02  0.69001707809E+02  0.00000000000E+00 0.  1.
         25    1    1    2    0    0  0.00000000000E+00  0.00000000000E+00 -0.12390790138E+02  0.12561262548E+03  0.12500000000E+03 0.  0.
<mgrwt>
<rscale>  0 0.12500000E+03</rscale>
<asrwt>0</asrwt>
<pdfrwt beam="1">  1       21 0.87093719E-02 0.12500000E+03</pdfrwt>
<pdfrwt beam="2">  1       21 0.10615647E-01 0.12500000E+03</pdfrwt>
<totfact> 0.73959684E+06</totfact>
</mgrwt>
</event>
<event>
 3    1  0.1597250E-001  0.1250000E+03  0.7546771E-02  0.1235069E+00
         21   -1    0    0  502  501  0.00000000000E+00  0.00000000000E+00  0.48009103694E+01  0.48009103694E+01  0.00000000000E+00 0.  1.
         21   -1    0    0  501  502 -0.00000000000E+00 -0.00000000000E+00 -0.81364776665E+03  0.81364776665E+03  0.00000000000E+00 0.  1.
         25    1    1    2    0    0  0.00000000000E+00  0.00000000000E+00 -0.80884685629E+03  0.81844867702E+03  0.12500000000E+03 0.  0.
<mgrwt>
<rscale>  0 0.12500000E+03</rscale>
<asrwt>0</asrwt>
<pdfrwt beam="1">  1       21 0.73860119E-03 0.12500000E+03</pdfrwt>
<pdfrwt beam="2">  1       21 0.12517665E+00 0.12500000E+03</pdfrwt>
<totfact> 0.28760606E+06</totfact>
</mgrwt>
</event>
<event>
 3    1  0.1597250E-001  0.1250000E+03  0.7546771E-02  0.1235069E+00
         21   -1    0    0  502  501  0.00000000000E+00  0.00000000000E+00  0.33359953700E+02  0.33359953700E+02  0.00000000000E+00 0. -1.
         21   -1    0    0  501  502 -0.00000000000E+00 -0.00000000000E+00 -0.11709398745E+03  0.11709398745E+03  0.00000000000E+00 0. -1.
         25    1    1    2    0    0  0.00000000000E+00  0.00000000000E+00 -0.83734033755E+02  0.15045394115E+03  0.12500000000E+03 0.  0.
<mgrwt>
<rscale>  0 0.12500000E+03</rscale>
<asrwt>0</asrwt>
<pdfrwt beam="1">  1       21 0.51323005E-02 0.12500000E+03</pdfrwt>
<pdfrwt beam="2">  1       21 0.18014460E-01 0.12500000E+03</pdfrwt>
<totfact> 0.70702224E+06</totfact>
</mgrwt>
</event>
<event>
 3    1  0.1597250E-001  0.1250000E+03  0.7546771E-02  0.1235069E+00
         21   -1    0    0  502  501  0.00000000000E+00  0.00000000000E+00  0.31271720203E+02  0.31271720203E+02  0.00000000000E+00 0.  1.
         21   -1    0    0  501  502 -0.00000000000E+00 -0.00000000000E+00 -0.12491317953E+03  0.12491317953E+03  0.00000000000E+00 0.  1.
         25    1    1    2    0    0  0.00000000000E+00  0.00000000000E+00 -0.93641459328E+02  0.15618489973E+03  0.12500000000E+03 0.  0.
<mgrwt>
<rscale>  0 0.12500000E+03</rscale>
<asrwt>0</asrwt>
<pdfrwt beam="1">  1       21 0.48110338E-02 0.12500000E+03</pdfrwt>
<pdfrwt beam="2">  1       21 0.19217412E-01 0.12500000E+03</pdfrwt>
<totfact> 0.69988690E+06</totfact>
</mgrwt>
</event>
<event>
 3    1  0.1597250E-001  0.1250000E+03  0.7546771E-02  0.1235069E+00
         21   -1    0    0  502  501  0.00000000000E+00  0.00000000000E+00  0.20930192258E+03  0.20930192258E+03  0.00000000000E+00 0. -1.
         21   -1    0    0  501  502 -0.00000000000E+00 -0.00000000000E+00 -0.18663230380E+02  0.18663230380E+02  0.00000000000E+00 0. -1.
         25    1    1    2    0    0  0.00000000000E+00  0.00000000000E+00  0.19063869220E+03  0.22796515296E+03  0.12500000000E+03 0.  0.
<mgrwt>
<rscale>  0 0.12500000E+03</rscale>
<asrwt>0</asrwt>
<pdfrwt beam="1">  1       21 0.32200294E-01 0.12500000E+03</pdfrwt>
<pdfrwt beam="2">  1       21 0.28712664E-02 0.12500000E+03</pdfrwt>
<totfact> 0.62017068E+06</totfact>
</mgrwt>
</event>
<event>
 3    1  0.1597250E-001  0.1250000E+03  0.7546771E-02  0.1235069E+00
         21   -1    0    0  502  501  0.00000000000E+00  0.00000000000E+00  0.57663949977E+01  0.57663949977E+01  0.00000000000E+00 0. -1.
         21   -1    0    0  501  502 -0.00000000000E+00 -0.00000000000E+00 -0.67741630630E+03  0.67741630630E+03  0.00000000000E+00 0. -1.
         25    1    1    2    0    0  0.00000000000E+00  0.00000000000E+00 -0.67164991131E+03  0.68318270130E+03  0.12500000000E+03 0.  0.
<mgrwt>
<rscale>  0 0.12500000E+03</rscale>
<asrwt>0</asrwt>
<pdfrwt beam="1">  1       21 0.88713757E-03 0.12500000E+03</pdfrwt>
<pdfrwt beam="2">  1       21 0.10421791E+00 0.12500000E+03</pdfrwt>
<totfact> 0.33568644E+06</totfact>
</mgrwt>
</event>
<event>
 3    1  0.1597250E-001  0.1250000E+03  0.7546771E-02  0.1235069E+00
         21   -1    0    0  502  501  0.00000000000E+00  0.00000000000E+00  0.85220177382E+01  0.85220177382E+01  0.00000000000E+00 0.  1.
         21   -1    0    0  501  502 -0.00000000000E+00 -0.00000000000E+00 -0.45837149370E+03  0.45837149370E+03  0.00000000000E+00 0.  1.
         25    1    1    2    0    0  0.00000000000E+00  0.00000000000E+00 -0.44984947596E+03  0.46689351144E+03  0.12500000000E+03 0.  0.
<mgrwt>
<rscale>  0 0.12500000E+03</rscale>
<asrwt>0</asrwt>
<pdfrwt beam="1">  1       21 0.13110800E-02 0.12500000E+03</pdfrwt>
<pdfrwt beam="2">  1       21 0.70518675E-01 0.12500000E+03</pdfrwt>
<totfact> 0.43898362E+06</totfact>
</mgrwt>
</event>
<event>
 3    1  0.1597250E-001  0.1250000E+03  0.7546771E-02  0.1235069E+00
         21   -1    0    0  502  501  0.00000000000E+00  0.00000000000E+00  0.24463122659E+03  0.24463122659E+03  0.00000000000E+00 0.  1.
         21   -1    0    0  501  502 -0.00000000000E+00 -0.00000000000E+00 -0.15967912414E+02  0.15967912414E+02  0.00000000000E+00 0.  1.
         25    1    1    2    0    0  0.00000000000E+00  0.00000000000E+00  0.22866331418E+03  0.26059913900E+03  0.12500000000E+03 0.  0.
<mgrwt>
<rscale>  0 0.12500000E+03</rscale>
<asrwt>0</asrwt>
<pdfrwt beam="1">  1       21 0.37635571E-01 0.12500000E+03</pdfrwt>
<pdfrwt beam="2">  1       21 0.24566021E-02 0.12500000E+03</pdfrwt>
<totfact> 0.58894401E+06</totfact>
</mgrwt>
</event>
<event>
 3    1  0.1597250E-001  0.1250000E+03  0.7546771E-02  0.1235069E+00
         21   -1    0    0  502  501  0.00000000000E+00  0.00000000000E+00  0.13263767500E+02  0.13263767500E+02  0.00000000000E+00 0. -1.
         21   -1    0    0  501  502 -0.00000000000E+00 -0.00000000000E+00 -0.29450531306E+03  0.29450531306E+03  0.00000000000E+00 0. -1.
         25    1    1    2    0    0  0.00000000000E+00  0.00000000000E+00 -0.28124154556E+03  0.30776908056E+03  0.12500000000E+03 0.  0.
<mgrwt>
<rscale>  0 0.12500000E+03</rscale>
<asrwt>0</asrwt>
<pdfrwt beam="1">  1       21 0.20405798E-02 0.12500000E+03</pdfrwt>
<pdfrwt beam="2">  1       21 0.45308507E-01 0.12500000E+03</pdfrwt>
<totfact> 0.54816651E+06</totfact>
</mgrwt>
</event>
<event>
 3    1  0.1597250E-001  0.1250000E+03  0.7546771E-02  0.1235069E+00
         21   -1    0    0  502  501  0.00000000000E+00  0.00000000000E+00  0.76174078155E+02  0.76174078155E+02  0.00000000000E+00 0. -1.
         21   -1    0    0  501  502 -0.00000000000E+00 -0.00000000000E+00 -0.51280568070E+02  0.51280568070E+02  0.00000000000E+00 0. -1.
         25    1    1    2    0    0  0.00000000000E+00  0.00000000000E+00  0.24893510085E+02  0.12745464623E+03  0.12500000000E+03 0.  0.
<mgrwt>
<rscale>  0 0.12500000E+03</rscale>
<asrwt>0</asrwt>
<pdfrwt beam="1">  1       21 0.11719089E-01 0.12500000E+03</pdfrwt>
<pdfrwt beam="2">  1       21 0.78893182E-02 0.12500000E+03</pdfrwt>
<totfact> 0.73707367E+06</totfact>
</mgrwt>
</event>
<event>
 3    1  0.1597250E-001  0.1250000E+03  0.7546771E-02  0.1235069E+00
         21   -1    0    0  502  501  0.00000000000E+00  0.00000000000E+00  0.11868186392E+03  0.11868186392E+03  0.00000000000E+00 0. -1.
         21   -1    0    0  501  502 -0.00000000000E+00 -0.00000000000E+00 -0.32913621939E+02  0.32913621939E+02  0.00000000000E+00 0. -1.
         25    1    1    2    0    0  0.00000000000E+00  0.00000000000E+00  0.85768241980E+02  0.15159548586E+03  0.12500000000E+03 0.  0.
<mgrwt>
<rscale>  0 0.12500000E+03</rscale>
<asrwt>0</asrwt>
<pdfrwt beam="1">  1       21 0.18258748E-01 0.12500000E+03</pdfrwt>
<pdfrwt beam="2">  1       21 0.50636342E-02 0.12500000E+03</pdfrwt>
<totfact> 0.70559350E+06</totfact>
</mgrwt>
</event>
<event>
 3    1  0.1597250E-001  0.1250000E+03  0.7546771E-02  0.1235069E+00
         21   -1    0    0  502  501  0.00000000000E+00  0.00000000000E+00  0.20037804043E+03  0.20037804043E+03  0.00000000000E+00 0. -1.
         21   -1    0    0  501  502 -0.00000000000E+00 -0.00000000000E+00 -0.19494401640E+02  0.19494401640E+02  0.00000000000E+00 0. -1.
         25    1    1    2    0    0  0.00000000000E+00  0.00000000000E+00  0.18088363879E+03  0.21987244207E+03  0.12500000000E+03 0.  0.
<mgrwt>
<rscale>  0 0.12500000E+03</rscale>
<asrwt>0</asrwt>
<pdfrwt beam="1">  1       21 0.30827389E-01 0.12500000E+03</pdfrwt>
<pdfrwt beam="2">  1       21 0.29991389E-02 0.12500000E+03</pdfrwt>
<totfact> 0.62835577E+06</totfact>
</mgrwt>
</event>
<event>
 3    1  0.1597250E-001  0.1250000E+03  0.7546771E-02  0.1235069E+00
         21   -1    0    0  502  501  0.00000000000E+00  0.00000000000E+00  0.53536335284E+01  0.53536335284E+01  0.00000000000E+00 0.  1.
         21   -1    0    0  501  502 -0.00000000000E+00 -0.00000000000E+00 -0.72964463840E+03  0.72964463840E+03  0.00000000000E+00 0.  1.
         25    1    1    2    0    0  0.00000000000E+00  0.00000000000E+00 -0.72429100488E+03  0.73499827193E+03  0.12500000000E+03 0.  0.
<mgrwt>
<rscale>  0 0.12500000E+03</rscale>
<asrwt>0</asrwt>
<pdfrwt beam="1">  1       21 0.82363611E-03 0.12500000E+03</pdfrwt>
<pdfrwt beam="2">  1       21 0.11225300E+00 0.12500000E+03</pdfrwt>
<totfact> 0.31603670E+06</totfact>
</mgrwt>
</event>
<event>
 3    1  0.1597250E-001  0.1250000E+03  0.7546771E-02  0.1235069E+00
         21   -1    0    0  502  501  0.00000000000E+00  0.00000000000E+00  0.80114314684E+02  0.80114314684E+02  0.00000000000E+00 0.  1.
         21   -1    0    0  501  502 -0.00000000000E+00 -0.00000000000E+00 -0.48758452412E+02  0.48758452412E+02  0.00000000000E+00 0.  1.
         25    1    1    2    0    0  0.00000000000E+00  0.00000000000E+00  0.31355862272E+02  0.12887276710E+03  0.12500000000E+03 0.  0.
<mgrwt>
<rscale>  0 0.12500000E+03</rscale>
<asrwt>0</asrwt>
<pdfrwt beam="1">  1       21 0.12325279E-01 0.12500000E+03</pdfrwt>
<pdfrwt beam="2">  1       21 0.75013004E-02 0.12500000E+03</pdfrwt>
<totfact> 0.73515974E+06</totfact>
</mgrwt>
</event>
<event>
 3    1  0.1597250E-001  0.1250000E+03  0.7546771E-02  0.1235069E+00
         21   -1    0    0  502  501  0.00000000000E+00  0.00000000000E+00  0.25846731723E+03  0.25846731723E+03  0.00000000000E+00 0. -1.
         21   -1    0    0  501  502 -0.00000000000E+00 -0.00000000000E+00 -0.15113129357E+02  0.15113129357E+02  0.00000000000E+00 0. -1.
         25    1    1    2    0    0  0.00000000000E+00  0.00000000000E+00  0.24335418788E+03  0.27358044659E+03  0.12500000000E+03 0.  0.
<mgrwt>
<rscale>  0 0.12500000E+03</rscale>
<asrwt>0</asrwt>
<pdfrwt beam="1">  1       21 0.39764199E-01 0.12500000E+03</pdfrwt>
<pdfrwt beam="2">  1       21 0.23250970E-02 0.12500000E+03</pdfrwt>
<totfact> 0.57725780E+06</totfact>
</mgrwt>
</event>
<event>
 3    1  0.1597250E-001  0.1250000E+03  0.7546771E-02  0.1235069E+00
         21   -1    0    0  502  501  0.00000000000E+00  0.00000000000E+00  0.44959023054E+03  0.44959023054E+03  0.00000000000E+00 0.  1.
         21   -1    0    0  501  502 -0.00000000000E+00 -0.00000000000E+00 -0.86884672635E+01  0.86884672635E+01  0.00000000000E+00 0.  1.
         25    1    1    2    0    0  0.00000000000E+00  0.00000000000E+00  0.44090176327E+03  0.45827869780E+03  0.12500000000E+03 0.  0.
<mgrwt>
<rscale>  0 0.12500000E+03</rscale>
<asrwt>0</asrwt>
<pdfrwt beam="1">  1       21 0.69167710E-01 0.12500000E+03</pdfrwt>
<pdfrwt beam="2">  1       21 0.13366876E-02 0.12500000E+03</pdfrwt>
<totfact> 0.44401005E+06</totfact>
</mgrwt>
</event>
<event>
 3    1  0.1597250E-001  0.1250000E+03  0.7546771E-02  0.1235069E+00
         21   -1    0    0  502  501  0.00000000000E+00  0.00000000000E+00  0.13270358877E+02  0.13270358877E+02  0.00000000000E+00 0.  1.
         21   -1    0    0  501  502 -0.00000000000E+00 -0.00000000000E+00 -0.29435903250E+03  0.29435903250E+03  0.00000000000E+00 0.  1.
         25    1    1    2    0    0  0.00000000000E+00  0.00000000000E+00 -0.28108867363E+03  0.30762939138E+03  0.12500000000E+03 0.  0.
<mgrwt>
<rscale>  0 0.12500000E+03</rscale>
<asrwt>0</asrwt>
<pdfrwt beam="1">  1       21 0.20415940E-02 0.12500000E+03</pdfrwt>
<pdfrwt beam="2">  1       21 0.45285998E-01 0.12500000E+03</pdfrwt>
<totfact> 0.54828045E+06</totfact>
</mgrwt>
</event>
<event>
 3    1  0.1597250E-001  0.1250000E+03  0.7546771E-02  0.1235069E+00
         21   -1    0    0  502  501  0.00000000000E+00  0.00000000000E+00  0.48491313789E+01  0.48491313789E+01  0.00000000000E+00 0. -1.
         21   -1    0    0  501  502 -0.00000000000E+00 -0.00000000000E+00 -0.80555664402E+03  0.80555664402E+03  0.00000000000E+00 0. -1.
         25    1    1    2    0    0  0.00000000000E+00  0.00000000000E+00 -0.80070751264E+03  0.81040577540E+03  0.12500000000E+03 0.  0.
<mgrwt>
<rscale>  0 0.12500000E+03</rscale>
<asrwt>0</asrwt>
<pdfrwt beam="1">  1       21 0.74602040E-03 0.12500000E+03</pdfrwt>
<pdfrwt beam="2">  1       21 0.12393176E+00 0.12500000E+03</pdfrwt>
<totfact> 0.29020940E+06</totfact>
</mgrwt>
</event>
<event>
 3    1  0.1597250E-001  0.1250000E+03  0.7546771E-02  0.1235069E+00
         21   -1    0    0  502  501  0.00000000000E+00  0.00000000000E+00  0.91131860587E+03  0.91131860587E+03  0.00000000000E+00 0.  1.
         21   -1    0    0  501  502 -0.00000000000E+00 -0.00000000000E+00 -0.42863713907E+01  0.42863713907E+01  0.00000000000E+00 0.  1.
         25    1    1    2    0    0  0.00000000000E+00  0.00000000000E+00  0.90703223448E+03  0.91560497726E+03  0.12500000000E+03 0.  0.
<mgrwt>
<rscale>  0 0.12500000E+03</rscale>
<asrwt>0</asrwt>
<pdfrwt beam="1">  1       21 0.14020271E+00 0.12500000E+03</pdfrwt>
<pdfrwt beam="2">  1       21 0.65944248E-03 0.12500000E+03</pdfrwt>
<totfact> 0.25855403E+06</totfact>
</mgrwt>
</event>
<event>
 3    1  0.1597250E-001  0.1250000E+03  0.7546771E-02  0.1235069E+00
         21   -1    0    0  502  501  0.00000000000E+00  0.00000000000E+00  0.30294507614E+03  0.30294507614E+03  0.00000000000E+00 0.  1.
         21   -1    0    0  501  502 -0.00000000000E+00 -0.00000000000E+00 -0.12894251492E+02  0.12894251492E+02  0.00000000000E+00 0.  1.
         25    1    1    2    0    0  0.00000000000E+00  0.00000000000E+00  0.29005082465E+03  0.31583932763E+03  0.12500000000E+03 0.  0.
<mgrwt>
<rscale>  0 0.12500000E+03</rscale>
<asrwt>0</asrwt>
<pdfrwt beam="1">  1       21 0.46606930E-01 0.12500000E+03</pdfrwt>
<pdfrwt beam="2">  1       21 0.19837312E-02 0.12500000E+03</pdfrwt>
<totfact> 0.54164713E+06</totfact>
</mgrwt>
</event>
<event>
 3    1  0.1597250E-001  0.1250000E+03  0.7546771E-02  0.1235069E+00
         21   -1    0    0  502  501  0.00000000000E+00  0.00000000000E+00  0.74869622577E+03  0.74869622577E+03  0.00000000000E+00 0. -1.
         21   -1    0    0  501  502 -0.00000000000E+00 -0.00000000000E+00 -0.52174030876E+01  0.52174030876E+01  0.00000000000E+00 0. -1.
         25    1    1    2    0    0  0.00000000000E+00  0.00000000000E+00  0.74347882268E+03  0.75391362885E+03  0.12500000000E+03 0.  0.
<mgrwt>
<rscale>  0 0.12500000E+03</rscale>
<asrwt>0</asrwt>
<pdfrwt beam="1">  1       21 0.11518395E+00 0.12500000E+03</pdfrwt>
<pdfrwt beam="2">  1       21 0.80267799E-03 0.12500000E+03</pdfrwt>
<totfact> 0.30931707E+06</totfact>
</mgrwt>
</event>
<event>
 3    1  0.1597250E-001  0.1250000E+03  0.7546771E-02  0.1235069E+00
         21   -1    0    0  502  501  0.00000000000E+00  0.00000000000E+00  0.24805844023E+02  0.24805844023E+02  0.00000000000E+00 0.  1.
         21   -1    0    0  501  502 -0.00000000000E+00 -0.00000000000E+00 -0.15747297275E+03  0.15747297275E+03  0.00000000000E+00 0.  1.
         25    1    1    2    0    0  0.00000000000E+00  0.00000000000E+00 -0.13266712873E+03  0.18227881678E+03  0.12500000000E+03 0.  0.
<mgrwt>
<rscale>  0 0.12500000E+03</rscale>
<asrwt>0</asrwt>
<pdfrwt beam="1">  1       21 0.38162836E-02 0.12500000E+03</pdfrwt>
<pdfrwt beam="2">  1       21 0.24226612E-01 0.12500000E+03</pdfrwt>
<totfact> 0.66891075E+06</totfact>
</mgrwt>
</event>
<event>
 3    1  0.1597250E-001  0.1250000E+03  0.7546771E-02  0.1235069E+00
         21   -1    0    0  502  501  0.00000000000E+00  0.00000000000E+00  0.52016100550E+01  0.52016100550E+01  0.00000000000E+00 0.  1.
         21   -1    0    0  501  502 -0.00000000000E+00 -0.00000000000E+00 -0.75096940345E+03  0.75096940345E+03  0.00000000000E+00 0.  1.
         25    1    1    2    0    0  0.00000000000E+00  0.00000000000E+00 -0.74576779339E+03  0.75617101350E+03  0.12500000000E+03 0.  0.
<mgrwt>
<rscale>  0 0.12500000E+03</rscale>
<asrwt>0</asrwt>
<pdfrwt beam="1">  1       21 0.80024846E-03 0.12500000E+03</pdfrwt>
<pdfrwt beam="2">  1       21 0.11553364E+00 0.12500000E+03</pdfrwt>
<totfact> 0.30853022E+06</totfact>
</mgrwt>
</event>
<event>
 3    1  0.1597250E-001  0.1250000E+03  0.7546771E-02  0.1235069E+00
         21   -1    0    0  502  501  0.00000000000E+00  0.00000000000E+00  0.17500362542E+02  0.17500362542E+02  0.00000000000E+00 0.  1.
         21   -1    0    0  501  502 -0.00000000000E+00 -0.00000000000E+00 -0.22320966155E+03  0.22320966155E+03  0.00000000000E+00 0.  1.
         25    1    1    2    0    0  0.00000000000E+00  0.00000000000E+00 -0.20570929901E+03  0.24071002409E+03  0.12500000000E+03 0.  0.
<mgrwt>
<rscale>  0 0.12500000E+03</rscale>
<asrwt>0</asrwt>
<pdfrwt beam="1">  1       21 0.26923634E-02 0.12500000E+03</pdfrwt>
<pdfrwt beam="2">  1       21 0.34339949E-01 0.12500000E+03</pdfrwt>
<totfact> 0.60764022E+06</totfact>
</mgrwt>
</event>
<event>
 3    1  0.1597250E-001  0.1250000E+03  0.7546771E-02  0.1235069E+00
         21   -1    0    0  502  501  0.00000000000E+00  0.00000000000E+00  0.22938395533E+02  0.22938395533E+02  0.00000000000E+00 0.  1.
         21   -1    0    0  501  502 -0.00000000000E+00 -0.00000000000E+00 -0.17029307889E+03  0.17029307889E+03  0.00000000000E+00 0.  1.
         25    1    1    2    0    0  0.00000000000E+00  0.00000000000E+00 -0.14735468335E+03  0.19323147442E+03  0.12500000000E+03 0.  0.
<mgrwt>
<rscale>  0 0.12500000E+03</rscale>
<asrwt>0</asrwt>
<pdfrwt beam="1">  1       21 0.35289839E-02 0.12500000E+03</pdfrwt>
<pdfrwt beam="2">  1       21 0.26198935E-01 0.12500000E+03</pdfrwt>
<totfact> 0.65665104E+06</totfact>
</mgrwt>
</event>
<event>
 3    1  0.1597250E-001  0.1250000E+03  0.7546771E-02  0.1235069E+00
         21   -1    0    0  502  501  0.00000000000E+00  0.00000000000E+00  0.15958320582E+02  0.15958320582E+02  0.00000000000E+00 0. -1.
         21   -1    0    0  501  502 -0.00000000000E+00 -0.00000000000E+00 -0.24477826347E+03  0.24477826347E+03  0.00000000000E+00 0. -1.
         25    1    1    2    0    0  0.00000000000E+00  0.00000000000E+00 -0.22881994289E+03  0.26073658406E+03  0.12500000000E+03 0.  0.
<mgrwt>
<rscale>  0 0.12500000E+03</rscale>
<asrwt>0</asrwt>
<pdfrwt beam="1">  1       21 0.24551265E-02 0.12500000E+03</pdfrwt>
<pdfrwt beam="2">  1       21 0.37658191E-01 0.12500000E+03</pdfrwt>
<totfact> 0.58881826E+06</totfact>
</mgrwt>
</event>
<event>
 3    1  0.1597250E-001  0.1250000E+03  0.7546771E-02  0.1235069E+00
         21   -1    0    0  502  501  0.00000000000E+00  0.00000000000E+00  0.79379192299E+01  0.79379192299E+01  0.00000000000E+00 0. -1.
         21   -1    0    0  501  502 -0.00000000000E+00 -0.00000000000E+00 -0.49209999332E+03  0.49209999332E+03  0.00000000000E+00 0. -1.
         25    1    1    2    0    0  0.00000000000E+00  0.00000000000E+00 -0.48416207409E+03  0.50003791255E+03  0.12500000000E+03 0.  0.
<mgrwt>
<rscale>  0 0.12500000E+03</rscale>
<asrwt>0</asrwt>
<pdfrwt beam="1">  1       21 0.12212179E-02 0.12500000E+03</pdfrwt>
<pdfrwt beam="2">  1       21 0.75707719E-01 0.12500000E+03</pdfrwt>
<totfact> 0.42042005E+06</totfact>
</mgrwt>
</event>
<event>
 3    1  0.1597250E-001  0.1250000E+03  0.7546771E-02  0.1235069E+00
         21   -1    0    0  502  501  0.00000000000E+00  0.00000000000E+00  0.40759339199E+02  0.40759339199E+02  0.00000000000E+00 0. -1.
         21   -1    0    0  501  502 -0.00000000000E+00 -0.00000000000E+00 -0.95836931529E+02  0.95836931529E+02  0.00000000000E+00 0. -1.
         25    1    1    2    0    0  0.00000000000E+00  0.00000000000E+00 -0.55077592329E+02  0.13659627073E+03  0.12500000000E+03 0.  0.
<mgrwt>
<rscale>  0 0.12500000E+03</rscale>
<asrwt>0</asrwt>
<pdfrwt beam="1">  1       21 0.62706676E-02 0.12500000E+03</pdfrwt>
<pdfrwt beam="2">  1       21 0.14744143E-01 0.12500000E+03</pdfrwt>
<totfact> 0.72485798E+06</totfact>
</mgrwt>
</event>
<event>
 3    1  0.1597250E-001  0.1250000E+03  0.7546771E-02  0.1235069E+00
         21   -1    0    0  502  501  0.00000000000E+00  0.00000000000E+00  0.17539602276E+03  0.17539602276E+03  0.00000000000E+00 0.  1.
         21   -1    0    0  501  502 -0.00000000000E+00 -0.00000000000E+00 -0.22271029517E+02  0.22271029517E+02  0.00000000000E+00 0.  1.
         25    1    1    2    0    0  0.00000000000E+00  0.00000000000E+00  0.15312499324E+03  0.19766705228E+03  0.12500000000E+03 0.  0.
<mgrwt>
<rscale>  0 0.12500000E+03</rscale>
<asrwt>0</asrwt>
<pdfrwt beam="1">  1       21 0.26984003E-01 0.12500000E+03</pdfrwt>
<pdfrwt beam="2">  1       21 0.34263123E-02 0.12500000E+03</pdfrwt>
<totfact> 0.65180298E+06</totfact>
</mgrwt>
</event>
<event>
 3    1  0.1597250E-001  0.1250000E+03  0.7546771E-02  0.1235069E+00
         21   -1    0    0  502  501  0.00000000000E+00  0.00000000000E+00  0.48468547892E+03  0.48468547892E+03  0.00000000000E+00 0. -1.
         21   -1    0    0  501  502 -0.00000000000E+00 -0.00000000000E+00 -0.80593501764E+01  0.80593501764E+01  0.00000000000E+00 0. -1.
         25    1    1    2    0    0  0.00000000000E+00  0.00000000000E+00  0.47662612874E+03  0.49274482909E+03  0.12500000000E+03 0.  0.
<mgrwt>
<rscale>  0 0.12500000E+03</rscale>
<asrwt>0</asrwt>
<pdfrwt beam="1">  1       21 0.74566974E-01 0.12500000E+03</pdfrwt>
<pdfrwt beam="2">  1       21 0.12399004E-02 0.12500000E+03</pdfrwt>
<totfact> 0.42440295E+06</totfact>
</mgrwt>
</event>
<event>
 3    1  0.1597250E-001  0.1250000E+03  0.7546771E-02  0.1235069E+00
         21   -1    0    0  502  501  0.00000000000E+00  0.00000000000E+00  0.45537729099E+03  0.45537729099E+03  0.00000000000E+00 0.  1.
         21   -1    0    0  501  502 -0.00000000000E+00 -0.00000000000E+00 -0.85780518206E+01  0.85780518206E+01  0.00000000000E+00 0.  1.
         25    1    1    2    0    0  0.00000000000E+00  0.00000000000E+00  0.44679923917E+03  0.46395534281E+03  0.12500000000E+03 0.  0.
<mgrwt>
<rscale>  0 0.12500000E+03</rscale>
<asrwt>0</asrwt>
<pdfrwt beam="1">  1       21 0.70058026E-01 0.12500000E+03</pdfrwt>
<pdfrwt beam="2">  1       21 0.13197006E-02 0.12500000E+03</pdfrwt>
<totfact> 0.44068826E+06</totfact>
</mgrwt>
</event>
<event>
 3    1  0.1597250E-001  0.1250000E+03  0.7546771E-02  0.1235069E+00
         21   -1    0    0  502  501  0.00000000000E+00  0.00000000000E+00  0.59570497249E+02  0.59570497249E+02  0.00000000000E+00 0.  1.
         21   -1    0    0  501  502 -0.00000000000E+00 -0.00000000000E+00 -0.65573567124E+02  0.65573567124E+02  0.00000000000E+00 0.  1.
         25    1    1    2    0    0  0.00000000000E+00  0.00000000000E+00 -0.60030698748E+01  0.12514406437E+03  0.12500000000E+03 0.  0.
<mgrwt>
<rscale>  0 0.12500000E+03</rscale>
<asrwt>0</asrwt>
<pdfrwt beam="1">  1       21 0.91646919E-02 0.12500000E+03</pdfrwt>
<pdfrwt beam="2">  1       21 0.10088241E-01 0.12500000E+03</pdfrwt>
<totfact> 0.74024125E+06</totfact>
</mgrwt>
</event>
<event>
 3    1  0.1597250E-001  0.1250000E+03  0.7546771E-02  0.1235069E+00
         21   -1    0    0  502  501  0.00000000000E+00  0.00000000000E+00  0.18700790264E+03  0.18700790264E+03  0.00000000000E+00 0.  1.
         21   -1    0    0  501  502 -0.00000000000E+00 -0.00000000000E+00 -0.20888154698E+02  0.20888154698E+02  0.00000000000E+00 0.  1.
         25    1    1    2    0    0  0.00000000000E+00  0.00000000000E+00  0.16611974794E+03  0.20789605734E+03  0.12500000000E+03 0.  0.
<mgrwt>
<rscale>  0 0.12500000E+03</rscale>
<asrwt>0</asrwt>
<pdfrwt beam="1">  1       21 0.28770445E-01 0.12500000E+03</pdfrwt>
<pdfrwt beam="2">  1       21 0.32135624E-02 0.12500000E+03</pdfrwt>
<totfact> 0.64081577E+06</totfact>
</mgrwt>
</event>
<event>
 3    1  0.1597250E-001  0.1250000E+03  0.7546771E-02  0.1235069E+00
         21   -1    0    0  502  501  0.00000000000E+00  0.00000000000E+00  0.23567603576E+03  0.23567603576E+03  0.00000000000E+00 0.  1.
         21   -1    0    0  501  502 -0.00000000000E+00 -0.00000000000E+00 -0.16574659309E+02  0.16574659309E+02  0.00000000000E+00 0.  1.
         25    1    1    2    0    0  0.00000000000E+00  0.00000000000E+00  0.21910137645E+03  0.25225069507E+03  0.12500000000E+03 0.  0.
<mgrwt>
<rscale>  0 0.12500000E+03</rscale>
<asrwt>0</asrwt>
<pdfrwt beam="1">  1       21 0.36257849E-01 0.12500000E+03</pdfrwt>
<pdfrwt beam="2">  1       21 0.25499478E-02 0.12500000E+03</pdfrwt>
<totfact> 0.59666936E+06</totfact>
</mgrwt>
</event>
<event>
 3    1  0.1597250E-001  0.1250000E+03  0.7546771E-02  0.1235069E+00
         21   -1    0    0  502  501  0.00000000000E+00  0.00000000000E+00  0.17184368969E+04  0.17184368969E+04  0.00000000000E+00 0. -1.
         21   -1    0    0  501  502 -0.00000000000E+00 -0.00000000000E+00 -0.22731413688E+01  0.22731413688E+01  0.00000000000E+00 0. -1.
         25    1    1    2    0    0  0.00000000000E+00  0.00000000000E+00  0.17161637555E+04  0.17207100382E+04  0.12500000000E+03 0.  0.
<mgrwt>
<rscale>  0 0.12500000E+03</rscale>
<asrwt>0</asrwt>
<pdfrwt beam="1">  1       21 0.26437387E+00 0.12500000E+03</pdfrwt>
<pdfrwt beam="2">  1       21 0.34971543E-03 0.12500000E+03</pdfrwt>
<totfact> 0.11013349E+06</totfact>
</mgrwt>
</event>
<event>
 3    1  0.1597250E-001  0.1250000E+03  0.7546771E-02  0.1235069E+00
         21   -1    0    0  502  501  0.00000000000E+00  0.00000000000E+00  0.53204046555E+02  0.53204046555E+02  0.00000000000E+00 0. -1.
         21   -1    0    0  501  502 -0.00000000000E+00 -0.00000000000E+00 -0.73420167316E+02  0.73420167316E+02  0.00000000000E+00 0. -1.
         25    1    1    2    0    0  0.00000000000E+00  0.00000000000E+00 -0.20216120761E+02  0.12662421387E+03  0.12500000000E+03 0.  0.
<mgrwt>
<rscale>  0 0.12500000E+03</rscale>
<asrwt>0</asrwt>
<pdfrwt beam="1">  1       21 0.81852380E-02 0.12500000E+03</pdfrwt>
<pdfrwt beam="2">  1       21 0.11295410E-01 0.12500000E+03</pdfrwt>
<totfact> 0.73820387E+06</totfact>
</mgrwt>
</event>
<event>
 3    1  0.1597250E-001  0.1250000E+03  0.7546771E-02  0.1235069E+00
         21   -1    0    0  502  501  0.00000000000E+00  0.00000000000E+00  0.53129047907E+01  0.53129047907E+01  0.00000000000E+00 0.  1.
         21   -1    0    0  501  502 -0.00000000000E+00 -0.00000000000E+00 -0.73523809552E+03  0.73523809552E+03  0.00000000000E+00 0.  1.
         25    1    1    2    0    0  0.00000000000E+00  0.00000000000E+00 -0.72992519073E+03  0.74055100031E+03  0.12500000000E+03 0.  0.
<mgrwt>
<rscale>  0 0.12500000E+03</rscale>
<asrwt>0</asrwt>
<pdfrwt beam="1">  1       21 0.81737055E-03 0.12500000E+03</pdfrwt>
<pdfrwt beam="2">  1       21 0.11311347E+00 0.12500000E+03</pdfrwt>
<totfact> 0.31404037E+06</totfact>
</mgrwt>
</event>
<event>
 3    1  0.1597250E-001  0.1250000E+03  0.7546771E-02  0.1235069E+00
         21   -1    0    0  502  501  0.00000000000E+00  0.00000000000E+00  0.10318233937E+03  0.10318233937E+03  0.00000000000E+00 0. -1.
         21   -1    0    0  501  502 -0.00000000000E+00 -0.00000000000E+00 -0.37857738290E+02  0.37857738290E+02  0.00000000000E+00 0. -1.
         25    1    1    2    0    0  0.00000000000E+00  0.00000000000E+00  0.65324601078E+02  0.14104007766E+03  0.12500000000E+03 0.  0.
<mgrwt>
<rscale>  0 0.12500000E+03</rscale>
<asrwt>0</asrwt>
<pdfrwt beam="1">  1       21 0.15874206E-01 0.12500000E+03</pdfrwt>
<pdfrwt beam="2">  1       21 0.58242675E-02 0.12500000E+03</pdfrwt>
<totfact> 0.71903818E+06</totfact>
</mgrwt>
</event>
<event>
 3    1  0.1597250E-001  0.1250000E+03  0.7546771E-02  0.1235069E+00
         21   -1    0    0  502  501  0.00000000000E+00  0.00000000000E+00  0.21905152562E+03  0.21905152562E+03  0.00000000000E+00 0. -1.
         21   -1    0    0  501  502 -0.00000000000E+00 -0.00000000000E+00 -0.17832562402E+02  0.17832562402E+02  0.00000000000E+00 0. -1.
         25    1    1    2    0    0  0.00000000000E+00  0.00000000000E+00  0.20121896322E+03  0.23688408802E+03  0.12500000000E+03 0.  0.
<mgrwt>
<rscale>  0 0.12500000E+03</rscale>
<asrwt>0</asrwt>
<pdfrwt beam="1">  1       21 0.33700233E-01 0.12500000E+03</pdfrwt>
<pdfrwt beam="2">  1       21 0.27434713E-02 0.12500000E+03</pdfrwt>
<totfact> 0.61135493E+06</totfact>
</mgrwt>
</event>
<event>
 3    1  0.1597250E-001  0.1250000E+03  0.7546771E-02  0.1235069E+00
         21   -1    0    0  502  501  0.00000000000E+00  0.00000000000E+00  0.12500649372E+03  0.12500649372E+03  0.00000000000E+00 0.  1.
         21   -1    0    0  501  502 -0.00000000000E+00 -0.00000000000E+00 -0.31248376654E+02  0.31248376654E+02  0.00000000000E+00 0.  1.
         25    1    1    2    0    0  0.00000000000E+00  0.00000000000E+00  0.93758117069E+02  0.15625487038E+03  0.12500000000E+03 0.  0.
<mgrwt>
<rscale>  0 0.12500000E+03</rscale>
<asrwt>0</asrwt>
<pdfrwt beam="1">  1       21 0.19231768E-01 0.12500000E+03</pdfrwt>
<pdfrwt beam="2">  1       21 0.48074426E-02 0.12500000E+03</pdfrwt>
<totfact> 0.69980030E+06</totfact>
</mgrwt>
</event>
<event>
 3    1  0.1597250E-001  0.1250000E+03  0.7546771E-02  0.1235069E+00
         21   -1    0    0  502  501  0.00000000000E+00  0.00000000000E+00  0.10422115795E+03  0.10422115795E+03  0.00000000000E+00 0. -1.
         21   -1    0    0  501  502 -0.00000000000E+00 -0.00000000000E+00 -0.37480393396E+02  0.37480393396E+02  0.00000000000E+00 0. -1.
         25    1    1    2    0    0  0.00000000000E+00  0.00000000000E+00  0.66740764551E+02  0.14170155134E+03  0.12500000000E+03 0.  0.
<mgrwt>
<rscale>  0 0.12500000E+03</rscale>
<asrwt>0</asrwt>
<pdfrwt beam="1">  1       21 0.16034024E-01 0.12500000E+03</pdfrwt>
<pdfrwt beam="2">  1       21 0.57662144E-02 0.12500000E+03</pdfrwt>
<totfact> 0.71817946E+06</totfact>
</mgrwt>
</event>
<event>
 3    1  0.1597250E-001  0.1250000E+03  0.7546771E-02  0.1235069E+00
         21   -1    0    0  502  501  0.00000000000E+00  0.00000000000E+00  0.53950698017E+03  0.53950698017E+03  0.00000000000E+00 0.  1.
         21   -1    0    0  501  502 -0.00000000000E+00 -0.00000000000E+00 -0.72404067854E+01  0.72404067854E+01  0.00000000000E+00 0.  1.
         25    1    1    2    0    0  0.00000000000E+00  0.00000000000E+00  0.53226657339E+03  0.54674738696E+03  0.12500000000E+03 0.  0.
<mgrwt>
<rscale>  0 0.12500000E+03</rscale>
<asrwt>0</asrwt>
<pdfrwt beam="1">  1       21 0.83001042E-01 0.12500000E+03</pdfrwt>
<pdfrwt beam="2">  1       21 0.11139092E-02 0.12500000E+03</pdfrwt>
<totfact> 0.39617277E+06</totfact>
</mgrwt>
</event>
<event>
 3    1  0.1597250E-001  0.1250000E+03  0.7546771E-02  0.1235069E+00
         21   -1    0    0  502  501  0.00000000000E+00  0.00000000000E+00  0.12471878050E+04  0.12471878050E+04  0.00000000000E+00 0.  1.
         21   -1    0    0  501  502 -0.00000000000E+00 -0.00000000000E+00 -0.31320463401E+01  0.31320463401E+01  0.00000000000E+00 0.  1.
         25    1    1    2    0    0  0.00000000000E+00  0.00000000000E+00  0.12440557586E+04  0.12503198513E+04  0.12500000000E+03 0.  0.
<mgrwt>
<rscale>  0 0.12500000E+03</rscale>
<asrwt>0</asrwt>
<pdfrwt beam="1">  1       21 0.19187465E+00 0.12500000E+03</pdfrwt>
<pdfrwt beam="2">  1       21 0.48185428E-03 0.12500000E+03</pdfrwt>
<totfact> 0.18168586E+06</totfact>
</mgrwt>
</event>
<event>
 3    1  0.1597250E-001  0.1250000E+03  0.7546771E-02  0.1235069E+00
         21   -1    0    0  502  501  0.00000000000E+00  0.00000000000E+00  0.90456877872E+02  0.90456877872E+02  0.00000000000E+00 0.  1.
         21   -1    0    0  501  502 -0.00000000000E+00 -0.00000000000E+00 -0.43183559856E+02  0.43183559856E+02  0.00000000000E+00 0.  1.
         25    1    1    2    0    0  0.00000000000E+00  0.00000000000E+00  0.47273318016E+02  0.13364043773E+03  0.12500000000E+03 0.  0.
<mgrwt>
<rscale>  0 0.12500000E+03</rscale>
<asrwt>0</asrwt>
<pdfrwt beam="1">  1       21 0.13916443E-01 0.12500000E+03</pdfrwt>
<pdfrwt beam="2">  1       21 0.66436246E-02 0.12500000E+03</pdfrwt>
<totfact> 0.72876997E+06</totfact>
</mgrwt>
</event>
<event>
 3    1  0.1597250E-001  0.1250000E+03  0.7546771E-02  0.1235069E+00
         21   -1    0    0  502  501  0.00000000000E+00  0.00000000000E+00  0.24071552566E+02  0.24071552566E+02  0.00000000000E+00 0.  1.
         21   -1    0    0  501  502 -0.00000000000E+00 -0.00000000000E+00 -0.16227661216E+03  0.16227661216E+03  0.00000000000E+00 0.  1.
         25    1    1    2    0    0  0.00000000000E+00  0.00000000000E+00 -0.13820505960E+03  0.18634816473E+03  0.12500000000E+03 0.  0.
<mgrwt>
<rscale>  0 0.12500000E+03</rscale>
<asrwt>0</asrwt>
<pdfrwt beam="1">  1       21 0.37033158E-02 0.12500000E+03</pdfrwt>
<pdfrwt beam="2">  1       21 0.24965633E-01 0.12500000E+03</pdfrwt>
<totfact> 0.66430650E+06</totfact>
</mgrwt>
</event>
<event>
 3    1  0.1597250E-001  0.1250000E+03  0.7546771E-02  0.1235069E+00
         21   -1    0    0  502  501  0.00000000000E+00  0.00000000000E+00  0.54083411298E+01  0.54083411298E+01  0.00000000000E+00 0.  1.
         21   -1    0    0  501  502 -0.00000000000E+00 -0.00000000000E+00 -0.72226398192E+03  0.72226398192E+03  0.00000000000E+00 0.  1.
         25    1    1    2    0    0  0.00000000000E+00  0.00000000000E+00 -0.71685564079E+03  0.72767232305E+03  0.12500000000E+03 0.  0.
<mgrwt>
<rscale>  0 0.12500000E+03</rscale>
<asrwt>0</asrwt>
<pdfrwt beam="1">  1       21 0.83205261E-03 0.12500000E+03</pdfrwt>
<pdfrwt beam="2">  1       21 0.11111752E+00 0.12500000E+03</pdfrwt>
<totfact> 0.31870191E+06</totfact>
</mgrwt>
</event>
<event>
 3    1  0.1597250E-001  0.1250000E+03  0.7546771E-02  0.1235069E+00
         21   -1    0    0  502  501  0.00000000000E+00  0.00000000000E+00  0.38619051219E+02  0.38619051219E+02  0.00000000000E+00 0.  1.
         21   -1    0    0  501  502 -0.00000000000E+00 -0.00000000000E+00 -0.10114826431E+03  0.10114826431E+03  0.00000000000E+00 0.  1.
         25    1    1    2    0    0  0.00000000000E+00  0.00000000000E+00 -0.62529213088E+02  0.13976731553E+03  0.12500000000E+03 0.  0.
<mgrwt>
<rscale>  0 0.12500000E+03</rscale>
<asrwt>0</asrwt>
<pdfrwt beam="1">  1       21 0.59413925E-02 0.12500000E+03</pdfrwt>
<pdfrwt beam="2">  1       21 0.15561271E-01 0.12500000E+03</pdfrwt>
<totfact> 0.72069699E+06</totfact>
</mgrwt>
</event>
<event>
 3    1  0.1597250E-001  0.1250000E+03  0.7546771E-02  0.1235069E+00
         21   -1    0    0  502  501  0.00000000000E+00  0.00000000000E+00  0.24493631224E+03  0.24493631224E+03  0.00000000000E+00 0.  1.
         21   -1    0    0  501  502 -0.00000000000E+00 -0.00000000000E+00 -0.15948023240E+02  0.15948023240E+02  0.00000000000E+00 0.  1.
         25    1    1    2    0    0  0.00000000000E+00  0.00000000000E+00  0.22898828900E+03  0.26088433548E+03  0.12500000000E+03 0.  0.
<mgrwt>
<rscale>  0 0.12500000E+03</rscale>
<asrwt>0</asrwt>
<pdfrwt beam="1">  1       21 0.37682507E-01 0.12500000E+03</pdfrwt>
<pdfrwt beam="2">  1       21 0.24535422E-02 0.12500000E+03</pdfrwt>
<totfact> 0.58868313E+06</totfact>
</mgrwt>
</event>
<event>
 3    1  0.1597250E-001  0.1250000E+03  0.7546771E-02  0.1235069E+00
         21   -1    0    0  502  501  0.00000000000E+00  0.00000000000E+00  0.20318210512E+02  0.20318210512E+02  0.00000000000E+00 0.  1.
         21   -1    0    0  501  502 -0.00000000000E+00 -0.00000000000E+00 -0.19225364348E+03  0.19225364348E+03  0.00000000000E+00 0.  1.
         25    1    1    2    0    0  0.00000000000E+00  0.00000000000E+00 -0.17193543297E+03  0.21257185399E+03  0.12500000000E+03 0.  0.
<mgrwt>
<rscale>  0 0.12500000E+03</rscale>
<asrwt>0</asrwt>
<pdfrwt beam="1">  1       21 0.31258783E-02 0.12500000E+03</pdfrwt>
<pdfrwt beam="2">  1       21 0.29577486E-01 0.12500000E+03</pdfrwt>
<totfact> 0.63589958E+06</totfact>
</mgrwt>
</event>
<event>
 3    1  0.1597250E-001  0.1250000E+03  0.7546771E-02  0.1235069E+00
         21   -1    0    0  502  501  0.00000000000E+00  0.00000000000E+00  0.57878879994E+03  0.57878879994E+03  0.00000000000E+00 0.  1.
         21   -1    0    0  501  502 -0.00000000000E+00 -0.00000000000E+00 -0.67490075834E+01  0.67490075834E+01  0.00000000000E+00 0.  1.
         25    1    1    2    0    0  0.00000000000E+00  0.00000000000E+00  0.57203979236E+03  0.58553780752E+03  0.12500000000E+03 0.  0.
<mgrwt>
<rscale>  0 0.12500000E+03</rscale>
<asrwt>0</asrwt>
<pdfrwt beam="1">  1       21 0.89044392E-01 0.12500000E+03</pdfrwt>
<pdfrwt beam="2">  1       21 0.10383093E-02 0.12500000E+03</pdfrwt>
<totfact> 0.37754951E+06</totfact>
</mgrwt>
</event>
<event>
 3    1  0.1597250E-001  0.1250000E+03  0.7546771E-02  0.1235069E+00
         21   -1    0    0  502  501  0.00000000000E+00  0.00000000000E+00  0.71334465745E+03  0.71334465745E+03  0.00000000000E+00 0. -1.
         21   -1    0    0  501  502 -0.00000000000E+00 -0.00000000000E+00 -0.54759644713E+01  0.54759644713E+01  0.00000000000E+00 0. -1.
         25    1    1    2    0    0  0.00000000000E+00  0.00000000000E+00  0.70786869298E+03  0.71882062192E+03  0.12500000000E+03 0.  0.
<mgrwt>
<rscale>  0 0.12500000E+03</rscale>
<asrwt>0</asrwt>
<pdfrwt beam="1">  1       21 0.10974526E+00 0.12500000E+03</pdfrwt>
<pdfrwt beam="2">  1       21 0.84245664E-03 0.12500000E+03</pdfrwt>
<totfact> 0.32197074E+06</totfact>
</mgrwt>
</event>
<event>
 3    1  0.1597250E-001  0.1250000E+03  0.7546771E-02  0.1235069E+00
         21   -1    0    0  502  501  0.00000000000E+00  0.00000000000E+00  0.67706124493E+02  0.67706124493E+02  0.00000000000E+00 0. -1.
         21   -1    0    0  501  502 -0.00000000000E+00 -0.00000000000E+00 -0.57694189842E+02  0.57694189842E+02  0.00000000000E+00 0. -1.
         25    1    1    2    0    0  0.00000000000E+00  0.00000000000E+00  0.10011934651E+02  0.12540031434E+03  0.12500000000E+03 0.  0.
<mgrwt>
<rscale>  0 0.12500000E+03</rscale>
<asrwt>0</asrwt>
<pdfrwt beam="1">  1       21 0.10416327E-01 0.12500000E+03</pdfrwt>
<pdfrwt beam="2">  1       21 0.88760292E-02 0.12500000E+03</pdfrwt>
<totfact> 0.73989368E+06</totfact>
</mgrwt>
</event>
<event>
 3    1  0.1597250E-001  0.1250000E+03  0.7546771E-02  0.1235069E+00
         21   -1    0    0  502  501  0.00000000000E+00  0.00000000000E+00  0.77048134805E+03  0.77048134805E+03  0.00000000000E+00 0. -1.
         21   -1    0    0  501  502 -0.00000000000E+00 -0.00000000000E+00 -0.50698826258E+01  0.50698826258E+01  0.00000000000E+00 0. -1.
         25    1    1    2    0    0  0.00000000000E+00  0.00000000000E+00  0.76541146543E+03  0.77555123068E+03  0.12500000000E+03 0.  0.
<mgrwt>
<rscale>  0 0.12500000E+03</rscale>
<asrwt>0</asrwt>
<pdfrwt beam="1">  1       21 0.11853550E+00 0.12500000E+03</pdfrwt>
<pdfrwt beam="2">  1       21 0.77998255E-03 0.12500000E+03</pdfrwt>
<totfact> 0.30189006E+06</totfact>
</mgrwt>
</event>
<event>
 3    1  0.1597250E-001  0.1250000E+03  0.7546771E-02  0.1235069E+00
         21   -1    0    0  502  501  0.00000000000E+00  0.00000000000E+00  0.21368179400E+02  0.21368179400E+02  0.00000000000E+00 0.  1.
         21   -1    0    0  501  502 -0.00000000000E+00 -0.00000000000E+00 -0.18280687030E+03  0.18280687030E+03  0.00000000000E+00 0.  1.
         25    1    1    2    0    0  0.00000000000E+00  0.00000000000E+00 -0.16143869090E+03  0.20417504970E+03  0.12500000000E+03 0.  0.
<mgrwt>
<rscale>  0 0.12500000E+03</rscale>
<asrwt>0</asrwt>
<pdfrwt beam="1">  1       21 0.32874122E-02 0.12500000E+03</pdfrwt>
<pdfrwt beam="2">  1       21 0.28124134E-01 0.12500000E+03</pdfrwt>
<totfact> 0.64477646E+06</totfact>
</mgrwt>
</event>
<event>
 3    1  0.1597250E-001  0.1250000E+03  0.7546771E-02  0.1235069E+00
         21   -1    0    0  502  501  0.00000000000E+00  0.00000000000E+00  0.11850390534E+03  0.11850390534E+03  0.00000000000E+00 0.  1.
         21   -1    0    0  501  502 -0.00000000000E+00 -0.00000000000E+00 -0.32963048675E+02  0.32963048675E+02  0.00000000000E+00 0.  1.
         25    1    1    2    0    0  0.00000000000E+00  0.00000000000E+00  0.85540856667E+02  0.15146695402E+03  0.12500000000E+03 0.  0.
<mgrwt>
<rscale>  0 0.12500000E+03</rscale>
<asrwt>0</asrwt>
<pdfrwt beam="1">  1       21 0.18231370E-01 0.12500000E+03</pdfrwt>
<pdfrwt beam="2">  1       21 0.50712383E-02 0.12500000E+03</pdfrwt>
<totfact> 0.70575408E+06</totfact>
</mgrwt>
</event>
<event>
 3    1  0.1597250E-001  0.1250000E+03  0.7546771E-02  0.1235069E+00
         21   -1    0    0  502  501  0.00000000000E+00  0.00000000000E+00  0.18790353791E+02  0.18790353791E+02  0.00000000000E+00 0.  1.
         21   -1    0    0  501  502 -0.00000000000E+00 -0.00000000000E+00 -0.20788592080E+03  0.20788592080E+03  0.00000000000E+00 0.  1.
         25    1    1    2    0    0  0.00000000000E+00  0.00000000000E+00 -0.18909556700E+03  0.22667627459E+03  0.12500000000E+03 0.  0.
<mgrwt>
<rscale>  0 0.12500000E+03</rscale>
<asrwt>0</asrwt>
<pdfrwt beam="1">  1       21 0.28908238E-02 0.12500000E+03</pdfrwt>
<pdfrwt beam="2">  1       21 0.31982448E-01 0.12500000E+03</pdfrwt>
<totfact> 0.62146312E+06</totfact>
</mgrwt>
</event>
<event>
 3    1  0.1597250E-001  0.1250000E+03  0.7546771E-02  0.1235069E+00
         21   -1    0    0  502  501  0.00000000000E+00  0.00000000000E+00  0.11355733755E+03  0.11355733755E+03  0.00000000000E+00 0. -1.
         21   -1    0    0  501  502 -0.00000000000E+00 -0.00000000000E+00 -0.34398922029E+02  0.34398922029E+02  0.00000000000E+00 0. -1.
         25    1    1    2    0    0  0.00000000000E+00  0.00000000000E+00  0.79158415516E+02  0.14795625957E+03  0.12500000000E+03 0.  0.
<mgrwt>
<rscale>  0 0.12500000E+03</rscale>
<asrwt>0</asrwt>
<pdfrwt beam="1">  1       21 0.17470359E-01 0.12500000E+03</pdfrwt>
<pdfrwt beam="2">  1       21 0.52921419E-02 0.12500000E+03</pdfrwt>
<totfact> 0.71016885E+06</totfact>
</mgrwt>
</event>
<event>
 3    1  0.1597250E-001  0.1250000E+03  0.7546771E-02  0.1235069E+00
         21   -1    0    0  502  501  0.00000000000E+00  0.00000000000E+00  0.82231415039E+02  0.82231415039E+02  0.00000000000E+00 0. -1.
         21   -1    0    0  501  502 -0.00000000000E+00 -0.00000000000E+00 -0.47503134880E+02  0.47503134880E+02  0.00000000000E+00 0. -1.
         25    1    1    2    0    0  0.00000000000E+00  0.00000000000E+00  0.34728280158E+02  0.12973454992E+03  0.12500000000E+03 0.  0.
<mgrwt>
<rscale>  0 0.12500000E+03</rscale>
<asrwt>0</asrwt>
<pdfrwt beam="1">  1       21 0.12650987E-01 0.12500000E+03</pdfrwt>
<pdfrwt beam="2">  1       21 0.73081746E-02 0.12500000E+03</pdfrwt>
<totfact> 0.73400413E+06</totfact>
</mgrwt>
</event>
<event>
 3    1  0.1597250E-001  0.1250000E+03  0.7546771E-02  0.1235069E+00
         21   -1    0    0  502  501  0.00000000000E+00  0.00000000000E+00  0.21174531476E+03  0.21174531476E+03  0.00000000000E+00 0. -1.
         21   -1    0    0  501  502 -0.00000000000E+00 -0.00000000000E+00 -0.18447869812E+02  0.18447869812E+02  0.00000000000E+00 0. -1.
         25    1    1    2    0    0  0.00000000000E+00  0.00000000000E+00  0.19329744494E+03  0.23019318457E+03  0.12500000000E+03 0.  0.
<mgrwt>
<rscale>  0 0.12500000E+03</rscale>
<asrwt>0</asrwt>
<pdfrwt beam="1">  1       21 0.32576201E-01 0.12500000E+03</pdfrwt>
<pdfrwt beam="2">  1       21 0.28381340E-02 0.12500000E+03</pdfrwt>
<totfact> 0.61794760E+06</totfact>
</mgrwt>
</event>
<event>
 3    1  0.1597250E-001  0.1250000E+03  0.7546771E-02  0.1235069E+00
         21   -1    0    0  502  501  0.00000000000E+00  0.00000000000E+00  0.74009869557E+02  0.74009869557E+02  0.00000000000E+00 0.  1.
         21   -1    0    0  501  502 -0.00000000000E+00 -0.00000000000E+00 -0.52780122751E+02  0.52780122751E+02  0.00000000000E+00 0.  1.
         25    1    1    2    0    0  0.00000000000E+00  0.00000000000E+00  0.21229746805E+02  0.12678999231E+03  0.12500000000E+03 0.  0.
<mgrwt>
<rscale>  0 0.12500000E+03</rscale>
<asrwt>0</asrwt>
<pdfrwt beam="1">  1       21 0.11386134E-01 0.12500000E+03</pdfrwt>
<pdfrwt beam="2">  1       21 0.81200189E-02 0.12500000E+03</pdfrwt>
<totfact> 0.73797753E+06</totfact>
</mgrwt>
</event>
<event>
 3    1  0.1597250E-001  0.1250000E+03  0.7546771E-02  0.1235069E+00
         21   -1    0    0  502  501  0.00000000000E+00  0.00000000000E+00  0.80142014594E+02  0.80142014594E+02  0.00000000000E+00 0. -1.
         21   -1    0    0  501  502 -0.00000000000E+00 -0.00000000000E+00 -0.48741599769E+02  0.48741599769E+02  0.00000000000E+00 0. -1.
         25    1    1    2    0    0  0.00000000000E+00  0.00000000000E+00  0.31400414825E+02  0.12888361436E+03  0.12500000000E+03 0.  0.
<mgrwt>
<rscale>  0 0.12500000E+03</rscale>
<asrwt>0</asrwt>
<pdfrwt beam="1">  1       21 0.12329541E-01 0.12500000E+03</pdfrwt>
<pdfrwt beam="2">  1       21 0.74987076E-02 0.12500000E+03</pdfrwt>
<totfact> 0.73514516E+06</totfact>
</mgrwt>
</event>
<event>
 3    1  0.1597250E-001  0.1250000E+03  0.7546771E-02  0.1235069E+00
         21   -1    0    0  502  501  0.00000000000E+00  0.00000000000E+00  0.58373427791E+02  0.58373427791E+02  0.00000000000E+00 0.  1.
         21   -1    0    0  501  502 -0.00000000000E+00 -0.00000000000E+00 -0.66918290527E+02  0.66918290527E+02  0.00000000000E+00 0.  1.
         25    1    1    2    0    0  0.00000000000E+00  0.00000000000E+00 -0.85448627363E+01  0.12529171832E+03  0.12500000000E+03 0.  0.
<mgrwt>
<rscale>  0 0.12500000E+03</rscale>
<asrwt>0</asrwt>
<pdfrwt beam="1">  1       21 0.89805274E-02 0.12500000E+03</pdfrwt>
<pdfrwt beam="2">  1       21 0.10295122E-01 0.12500000E+03</pdfrwt>
<totfact> 0.74004189E+06</totfact>
</mgrwt>
</event>
<event>
 3    1  0.1597250E-001  0.1250000E+03  0.7546771E-02  0.1235069E+00
         21   -1    0    0  502  501  0.00000000000E+00  0.00000000000E+00  0.34587288523E+02  0.34587288523E+02  0.00000000000E+00 0. -1.
         21   -1    0    0  501  502 -0.00000000000E+00 -0.00000000000E+00 -0.11293889076E+03  0.11293889076E+03  0.00000000000E+00 0. -1.
         25    1    1    2    0    0  0.00000000000E+00  0.00000000000E+00 -0.78351602233E+02  0.14752617928E+03  0.12500000000E+03 0.  0.
<mgrwt>
<rscale>  0 0.12500000E+03</rscale>
<asrwt>0</asrwt>
<pdfrwt beam="1">  1       21 0.53211213E-02 0.12500000E+03</pdfrwt>
<pdfrwt beam="2">  1       21 0.17375214E-01 0.12500000E+03</pdfrwt>
<totfact> 0.71071358E+06</totfact>
</mgrwt>
</event>
<event>
 3    1  0.1597250E-001  0.1250000E+03  0.7546771E-02  0.1235069E+00
         21   -1    0    0  502  501  0.00000000000E+00  0.00000000000E+00  0.12311268051E+02  0.12311268051E+02  0.00000000000E+00 0.  1.
         21   -1    0    0  501  502 -0.00000000000E+00 -0.00000000000E+00 -0.31729063033E+03  0.31729063033E+03  0.00000000000E+00 0.  1.
         25    1    1    2    0    0  0.00000000000E+00  0.00000000000E+00 -0.30497936228E+03  0.32960189838E+03  0.12500000000E+03 0.  0.
<mgrwt>
<rscale>  0 0.12500000E+03</rscale>
<asrwt>0</asrwt>
<pdfrwt beam="1">  1       21 0.18940416E-02 0.12500000E+03</pdfrwt>
<pdfrwt beam="2">  1       21 0.48813933E-01 0.12500000E+03</pdfrwt>
<totfact> 0.53081111E+06</totfact>
</mgrwt>
</event>
<event>
 3    1  0.1597250E-001  0.1250000E+03  0.7546771E-02  0.1235069E+00
         21   -1    0    0  502  501  0.00000000000E+00  0.00000000000E+00  0.25322366167E+03  0.25322366167E+03  0.00000000000E+00 0. -1.
         21   -1    0    0  501  502 -0.00000000000E+00 -0.00000000000E+00 -0.15426086070E+02  0.15426086070E+02  0.00000000000E+00 0. -1.
         25    1    1    2    0    0  0.00000000000E+00  0.00000000000E+00  0.23779757560E+03  0.26864974774E+03  0.12500000000E+03 0.  0.
<mgrwt>
<rscale>  0 0.12500000E+03</rscale>
<asrwt>0</asrwt>
<pdfrwt beam="1">  1       21 0.38957483E-01 0.12500000E+03</pdfrwt>
<pdfrwt beam="2">  1       21 0.23732442E-02 0.12500000E+03</pdfrwt>
<totfact> 0.58165434E+06</totfact>
</mgrwt>
</event>
<event>
 3    1  0.1597250E-001  0.1250000E+03  0.7546771E-02  0.1235069E+00
         21   -1    0    0  502  501  0.00000000000E+00  0.00000000000E+00  0.86276323846E+03  0.86276323846E+03  0.00000000000E+00 0.  1.
         21   -1    0    0  501  502 -0.00000000000E+00 -0.00000000000E+00 -0.45276036644E+01  0.45276036644E+01  0.00000000000E+00 0.  1.
         25    1    1    2    0    0  0.00000000000E+00  0.00000000000E+00  0.85823563480E+03  0.86729084213E+03  0.12500000000E+03 0.  0.
<mgrwt>
<rscale>  0 0.12500000E+03</rscale>
<asrwt>0</asrwt>
<pdfrwt beam="1">  1       21 0.13273268E+00 0.12500000E+03</pdfrwt>
<pdfrwt beam="2">  1       21 0.69655510E-03 0.12500000E+03</pdfrwt>
<totfact> 0.27250713E+06</totfact>
</mgrwt>
</event>
<event>
 3    1  0.1597250E-001  0.1250000E+03  0.7546771E-02  0.1235069E+00
         21   -1    0    0  502  501  0.00000000000E+00  0.00000000000E+00  0.68647705485E+01  0.68647705485E+01  0.00000000000E+00 0. -1.
         21   -1    0    0  501  502 -0.00000000000E+00 -0.00000000000E+00 -0.56902848717E+03  0.56902848717E+03  0.00000000000E+00 0. -1.
         25    1    1    2    0    0  0.00000000000E+00  0.00000000000E+00 -0.56216371662E+03  0.57589325772E+03  0.12500000000E+03 0.  0.
<mgrwt>
<rscale>  0 0.12500000E+03</rscale>
<asrwt>0</asrwt>
<pdfrwt beam="1">  1       21 0.10561189E-02 0.12500000E+03</pdfrwt>
<pdfrwt beam="2">  1       21 0.87542811E-01 0.12500000E+03</pdfrwt>
<totfact> 0.38206035E+06</totfact>
</mgrwt>
</event>
<event>
 3    1  0.1597250E-001  0.1250000E+03  0.7546771E-02  0.1235069E+00
         21   -1    0    0  502  501  0.00000000000E+00  0.00000000000E+00  0.17421121257E+04  0.17421121257E+04  0.00000000000E+00 0.  1.
         21   -1    0    0  501  502 -0.00000000000E+00 -0.00000000000E+00 -0.22422494754E+01  0.22422494754E+01  0.00000000000E+00 0.  1.
         25    1    1    2    0    0  0.00000000000E+00  0.00000000000E+00  0.17398698762E+04  0.17443543752E+04  0.12500000000E+03 0.  0.
<mgrwt>
<rscale>  0 0.12500000E+03</rscale>
<asrwt>0</asrwt>
<pdfrwt beam="1">  1       21 0.26801617E+00 0.12500000E+03</pdfrwt>
<pdfrwt beam="2">  1       21 0.34496285E-03 0.12500000E+03</pdfrwt>
<totfact> 0.10725541E+06</totfact>
</mgrwt>
</event>
<event>
 3    1  0.1597250E-001  0.1250000E+03  0.7546771E-02  0.1235069E+00
         21   -1    0    0  502  501  0.00000000000E+00  0.00000000000E+00  0.11151834902E+04  0.11151834902E+04  0.00000000000E+00 0.  1.
         21   -1    0    0  501  502 -0.00000000000E+00 -0.00000000000E+00 -0.35027867918E+01  0.35027867918E+01  0.00000000000E+00 0.  1.
         25    1    1    2    0    0  0.00000000000E+00  0.00000000000E+00  0.11116807034E+04  0.11186862770E+04  0.12500000000E+03 0.  0.
<mgrwt>
<rscale>  0 0.12500000E+03</rscale>
<asrwt>0</asrwt>
<pdfrwt beam="1">  1       21 0.17156641E+00 0.12500000E+03</pdfrwt>
<pdfrwt beam="2">  1       21 0.53889117E-03 0.12500000E+03</pdfrwt>
<totfact> 0.20840594E+06</totfact>
</mgrwt>
</event>
<event>
 3    1  0.1597250E-001  0.1250000E+03  0.7546771E-02  0.1235069E+00
         21   -1    0    0  502  501  0.00000000000E+00  0.00000000000E+00  0.59340669527E+02  0.59340669527E+02  0.00000000000E+00 0. -1.
         21   -1    0    0  501  502 -0.00000000000E+00 -0.00000000000E+00 -0.65827534996E+02  0.65827534996E+02  0.00000000000E+00 0. -1.
         25    1    1    2    0    0  0.00000000000E+00  0.00000000000E+00 -0.64868654685E+01  0.12516820452E+03  0.12500000000E+03 0.  0.
<mgrwt>
<rscale>  0 0.12500000E+03</rscale>
<asrwt>0</asrwt>
<pdfrwt beam="1">  1       21 0.91293337E-02 0.12500000E+03</pdfrwt>
<pdfrwt beam="2">  1       21 0.10127313E-01 0.12500000E+03</pdfrwt>
<totfact> 0.74020865E+06</totfact>
</mgrwt>
</event>
<event>
 3    1  0.1597250E-001  0.1250000E+03  0.7546771E-02  0.1235069E+00
         21   -1    0    0  502  501  0.00000000000E+00  0.00000000000E+00  0.19720908881E+02  0.19720908881E+02  0.00000000000E+00 0.  1.
         21   -1    0    0  501  502 -0.00000000000E+00 -0.00000000000E+00 -0.19807657059E+03  0.19807657059E+03  0.00000000000E+00 0.  1.
         25    1    1    2    0    0  0.00000000000E+00  0.00000000000E+00 -0.17835566171E+03  0.21779747947E+03  0.12500000000E+03 0.  0.
<mgrwt>
<rscale>  0 0.12500000E+03</rscale>
<asrwt>0</asrwt>
<pdfrwt beam="1">  1       21 0.30339859E-02 0.12500000E+03</pdfrwt>
<pdfrwt beam="2">  1       21 0.30473319E-01 0.12500000E+03</pdfrwt>
<totfact> 0.63048374E+06</totfact>
</mgrwt>
</event>
<event>
 3    1  0.1597250E-001  0.1250000E+03  0.7546771E-02  0.1235069E+00
         21   -1    0    0  502  501  0.00000000000E+00  0.00000000000E+00  0.12127341169E+02  0.12127341169E+02  0.00000000000E+00 0.  1.
         21   -1    0    0  501  502 -0.00000000000E+00 -0.00000000000E+00 -0.32210275490E+03  0.32210275490E+03  0.00000000000E+00 0.  1.
         25    1    1    2    0    0  0.00000000000E+00  0.00000000000E+00 -0.30997541373E+03  0.33423009607E+03  0.12500000000E+03 0.  0.
<mgrwt>
<rscale>  0 0.12500000E+03</rscale>
<asrwt>0</asrwt>
<pdfrwt beam="1">  1       21 0.18657451E-02 0.12500000E+03</pdfrwt>
<pdfrwt beam="2">  1       21 0.49554261E-01 0.12500000E+03</pdfrwt>
<totfact> 0.52724605E+06</totfact>
</mgrwt>
</event>
<event>
 3    1  0.1597250E-001  0.1250000E+03  0.7546771E-02  0.1235069E+00
         21   -1    0    0  502  501  0.00000000000E+00  0.00000000000E+00  0.16893857216E+02  0.16893857216E+02  0.00000000000E+00 0.  1.
         21   -1    0    0  501  502 -0.00000000000E+00 -0.00000000000E+00 -0.23122309784E+03  0.23122309784E+03  0.00000000000E+00 0.  1.
         25    1    1    2    0    0  0.00000000000E+00  0.00000000000E+00 -0.21432924062E+03  0.24811695506E+03  0.12500000000E+03 0.  0.
<mgrwt>
<rscale>  0 0.12500000E+03</rscale>
<asrwt>0</asrwt>
<pdfrwt beam="1">  1       21 0.25990551E-02 0.12500000E+03</pdfrwt>
<pdfrwt beam="2">  1       21 0.35572783E-01 0.12500000E+03</pdfrwt>
<totfact> 0.60055930E+06</totfact>
</mgrwt>
</event>
<event>
 3    1  0.1597250E-001  0.1250000E+03  0.7546771E-02  0.1235069E+00
         21   -1    0    0  502  501  0.00000000000E+00  0.00000000000E+00  0.23433528440E+02  0.23433528440E+02  0.00000000000E+00 0. -1.
         21   -1    0    0  501  502 -0.00000000000E+00 -0.00000000000E+00 -0.16669491366E+03  0.16669491366E+03  0.00000000000E+00 0. -1.
         25    1    1    2    0    0  0.00000000000E+00  0.00000000000E+00 -0.14326138522E+03  0.19012844210E+03  0.12500000000E+03 0.  0.
<mgrwt>
<rscale>  0 0.12500000E+03</rscale>
<asrwt>0</asrwt>
<pdfrwt beam="1">  1       21 0.36051583E-02 0.12500000E+03</pdfrwt>
<pdfrwt beam="2">  1       21 0.25645371E-01 0.12500000E+03</pdfrwt>
<totfact> 0.66008192E+06</totfact>
</mgrwt>
</event>
<event>
 3    1  0.1597250E-001  0.1250000E+03  0.7546771E-02  0.1235069E+00
         21   -1    0    0  502  501  0.00000000000E+00  0.00000000000E+00  0.45574133355E+03  0.45574133355E+03  0.00000000000E+00 0. -1.
         21   -1    0    0  501  502 -0.00000000000E+00 -0.00000000000E+00 -0.85711997408E+01  0.85711997408E+01  0.00000000000E+00 0. -1.
         25    1    1    2    0    0  0.00000000000E+00  0.00000000000E+00  0.44717013381E+03  0.46431253329E+03  0.12500000000E+03 0.  0.
<mgrwt>
<rscale>  0 0.12500000E+03</rscale>
<asrwt>0</asrwt>
<pdfrwt beam="1">  1       21 0.70114032E-01 0.12500000E+03</pdfrwt>
<pdfrwt beam="2">  1       21 0.13186465E-02 0.12500000E+03</pdfrwt>
<totfact> 0.44048050E+06</totfact>
</mgrwt>
</event>
<event>
 3    1  0.1597250E-001  0.1250000E+03  0.7546771E-02  0.1235069E+00
         21   -1    0    0  502  501  0.00000000000E+00  0.00000000000E+00  0.57073472454E+01  0.57073472454E+01  0.00000000000E+00 0. -1.
         21   -1    0    0  501  502 -0.00000000000E+00 -0.00000000000E+00 -0.68442480053E+03  0.68442480053E+03  0.00000000000E+00 0. -1.
         25    1    1    2    0    0  0.00000000000E+00  0.00000000000E+00 -0.67871745328E+03  0.69013214778E+03  0.12500000000E+03 0.  0.
<mgrwt>
<rscale>  0 0.12500000E+03</rscale>
<asrwt>0</asrwt>
<pdfrwt beam="1">  1       21 0.87805267E-03 0.12500000E+03</pdfrwt>
<pdfrwt beam="2">  1       21 0.10529621E+00 0.12500000E+03</pdfrwt>
<totfact> 0.33294041E+06</totfact>
</mgrwt>
</event>
<event>
 3    1  0.1597250E-001  0.1250000E+03  0.7546771E-02  0.1235069E+00
         21   -1    0    0  502  501  0.00000000000E+00  0.00000000000E+00  0.36400081258E+03  0.36400081258E+03  0.00000000000E+00 0.  1.
         21   -1    0    0  501  502 -0.00000000000E+00 -0.00000000000E+00 -0.10731432088E+02  0.10731432088E+02  0.00000000000E+00 0.  1.
         25    1    1    2    0    0  0.00000000000E+00  0.00000000000E+00  0.35326938049E+03  0.37473224466E+03  0.12500000000E+03 0.  0.
<mgrwt>
<rscale>  0 0.12500000E+03</rscale>
<asrwt>0</asrwt>
<pdfrwt beam="1">  1       21 0.56000116E-01 0.12500000E+03</pdfrwt>
<pdfrwt beam="2">  1       21 0.16509898E-02 0.12500000E+03</pdfrwt>
<totfact> 0.49762167E+06</totfact>
</mgrwt>
</event>
<event>
 3    1  0.1597250E-001  0.1250000E+03  0.7546771E-02  0.1235069E+00
         21   -1    0    0  502  501  0.00000000000E+00  0.00000000000E+00  0.22411784945E+03  0.22411784945E+03  0.00000000000E+00 0.  1.
         21   -1    0    0  501  502 -0.00000000000E+00 -0.00000000000E+00 -0.17429446202E+02  0.17429446202E+02  0.00000000000E+00 0.  1.
         25    1    1    2    0    0  0.00000000000E+00  0.00000000000E+00  0.20668840325E+03  0.24154729566E+03  0.12500000000E+03 0.  0.
<mgrwt>
<rscale>  0 0.12500000E+03</rscale>
<asrwt>0</asrwt>
<pdfrwt beam="1">  1       21 0.34479667E-01 0.12500000E+03</pdfrwt>
<pdfrwt beam="2">  1       21 0.26814534E-02 0.12500000E+03</pdfrwt>
<totfact> 0.60683256E+06</totfact>
</mgrwt>
</event>
<event>
 3    1  0.1597250E-001  0.1250000E+03  0.7546771E-02  0.1235069E+00
         21   -1    0    0  502  501  0.00000000000E+00  0.00000000000E+00  0.10244400380E+04  0.10244400380E+04  0.00000000000E+00 0.  1.
         21   -1    0    0  501  502 -0.00000000000E+00 -0.00000000000E+00 -0.38130587006E+01  0.38130587006E+01  0.00000000000E+00 0.  1.
         25    1    1    2    0    0  0.00000000000E+00  0.00000000000E+00  0.10206269793E+04  0.10282530967E+04  0.12500000000E+03 0.  0.
<mgrwt>
<rscale>  0 0.12500000E+03</rscale>
<asrwt>0</asrwt>
<pdfrwt beam="1">  1       21 0.15760594E+00 0.12500000E+03</pdfrwt>
<pdfrwt beam="2">  1       21 0.58662523E-03 0.12500000E+03</pdfrwt>
<totfact> 0.22921418E+06</totfact>
</mgrwt>
</event>
<event>
 3    1  0.1597250E-001  0.1250000E+03  0.7546771E-02  0.1235069E+00
         21   -1    0    0  502  501  0.00000000000E+00  0.00000000000E+00  0.21237106651E+03  0.21237106651E+03  0.00000000000E+00 0. -1.
         21   -1    0    0  501  502 -0.00000000000E+00 -0.00000000000E+00 -0.18393513129E+02  0.18393513129E+02  0.00000000000E+00 0. -1.
         25    1    1    2    0    0  0.00000000000E+00  0.00000000000E+00  0.19397755338E+03  0.23076457964E+03  0.12500000000E+03 0.  0.
<mgrwt>
<rscale>  0 0.12500000E+03</rscale>
<asrwt>0</asrwt>
<pdfrwt beam="1">  1       21 0.32672470E-01 0.12500000E+03</pdfrwt>
<pdfrwt beam="2">  1       21 0.28297714E-02 0.12500000E+03</pdfrwt>
<totfact> 0.61737974E+06</totfact>
</mgrwt>
</event>
<event>
 3    1  0.1597250E-001  0.1250000E+03  0.7546771E-02  0.1235069E+00
         21   -1    0    0  502  501  0.00000000000E+00  0.00000000000E+00  0.16780200745E+02  0.16780200745E+02  0.00000000000E+00 0.  1.
         21   -1    0    0  501  502 -0.00000000000E+00 -0.00000000000E+00 -0.23278922936E+03  0.23278922936E+03  0.00000000000E+00 0.  1.
         25    1    1    2    0    0  0.00000000000E+00  0.00000000000E+00 -0.21600902861E+03  0.24956943010E+03  0.12500000000E+03 0.  0.
<mgrwt>
<rscale>  0 0.12500000E+03</rscale>
<asrwt>0</asrwt>
<pdfrwt beam="1">  1       21 0.25815694E-02 0.12500000E+03</pdfrwt>
<pdfrwt beam="2">  1       21 0.35813727E-01 0.12500000E+03</pdfrwt>
<totfact> 0.59918751E+06</totfact>
</mgrwt>
</event>
<event>
 3    1  0.1597250E-001  0.1250000E+03  0.7546771E-02  0.1235069E+00
         21   -1    0    0  502  501  0.00000000000E+00  0.00000000000E+00  0.13605106844E+03  0.13605106844E+03  0.00000000000E+00 0.  1.
         21   -1    0    0  501  502 -0.00000000000E+00 -0.00000000000E+00 -0.28711645154E+02  0.28711645154E+02  0.00000000000E+00 0.  1.
         25    1    1    2    0    0  0.00000000000E+00  0.00000000000E+00  0.10733942329E+03  0.16476271360E+03  0.12500000000E+03 0.  0.
<mgrwt>
<rscale>  0 0.12500000E+03</rscale>
<asrwt>0</asrwt>
<pdfrwt beam="1">  1       21 0.20930933E-01 0.12500000E+03</pdfrwt>
<pdfrwt beam="2">  1       21 0.44171763E-02 0.12500000E+03</pdfrwt>
<totfact> 0.68942176E+06</totfact>
</mgrwt>
</event>
<event>
 3    1  0.1597250E-001  0.1250000E+03  0.7546771E-02  0.1235069E+00
         21   -1    0    0  502  501  0.00000000000E+00  0.00000000000E+00  0.26977416074E+04  0.26977416074E+04  0.00000000000E+00 0.  1.
         21   -1    0    0  501  502 -0.00000000000E+00 -0.00000000000E+00 -0.14479704021E+01  0.14479704021E+01  0.00000000000E+00 0.  1.
         25    1    1    2    0    0  0.00000000000E+00  0.00000000000E+00  0.26962936370E+04  0.26991895778E+04  0.12500000000E+03 0.  0.
<mgrwt>
<rscale>  0 0.12500000E+03</rscale>
<asrwt>0</asrwt>
<pdfrwt beam="1">  1       21 0.41503315E+00 0.12500000E+03</pdfrwt>
<pdfrwt beam="2">  1       21 0.22276684E-03 0.12500000E+03</pdfrwt>
<totfact> 0.29372184E+05</totfact>
</mgrwt>
</event>
<event>
 3    1  0.1597250E-001  0.1250000E+03  0.7546771E-02  0.1235069E+00
         21   -1    0    0  502  501  0.00000000000E+00  0.00000000000E+00  0.65135743411E+02  0.65135743411E+02  0.00000000000E+00 0. -1.
         21   -1    0    0  501  502 -0.00000000000E+00 -0.00000000000E+00 -0.59970912980E+02  0.59970912980E+02  0.00000000000E+00 0. -1.
         25    1    1    2    0    0  0.00000000000E+00  0.00000000000E+00  0.51648304317E+01  0.12510665639E+03  0.12500000000E+03 0.  0.
<mgrwt>
<rscale>  0 0.12500000E+03</rscale>
<asrwt>0</asrwt>
<pdfrwt beam="1">  1       21 0.10020884E-01 0.12500000E+03</pdfrwt>
<pdfrwt beam="2">  1       21 0.92262943E-02 0.12500000E+03</pdfrwt>
<totfact> 0.74029176E+06</totfact>
</mgrwt>
</event>
<event>
 3    1  0.1597250E-001  0.1250000E+03  0.7546771E-02  0.1235069E+00
         21   -1    0    0  502  501  0.00000000000E+00  0.00000000000E+00  0.12339573049E+03  0.12339573049E+03  0.00000000000E+00 0. -1.
         21   -1    0    0  501  502 -0.00000000000E+00 -0.00000000000E+00 -0.31656281659E+02  0.31656281659E+02  0.00000000000E+00 0. -1.
         25    1    1    2    0    0  0.00000000000E+00  0.00000000000E+00  0.91739448832E+02  0.15505201215E+03  0.12500000000E+03 0.  0.
<mgrwt>
<rscale>  0 0.12500000E+03</rscale>
<asrwt>0</asrwt>
<pdfrwt beam="1">  1       21 0.18983958E-01 0.12500000E+03</pdfrwt>
<pdfrwt beam="2">  1       21 0.48701973E-02 0.12500000E+03</pdfrwt>
<totfact> 0.70129195E+06</totfact>
</mgrwt>
</event>
<event>
 3    1  0.1597250E-001  0.1250000E+03  0.7546771E-02  0.1235069E+00
         21   -1    0    0  502  501  0.00000000000E+00  0.00000000000E+00  0.60298241168E+01  0.60298241168E+01  0.00000000000E+00 0.  1.
         21   -1    0    0  501  502 -0.00000000000E+00 -0.00000000000E+00 -0.64782154907E+03  0.64782154907E+03  0.00000000000E+00 0.  1.
         25    1    1    2    0    0  0.00000000000E+00  0.00000000000E+00 -0.64179172496E+03  0.65385137319E+03  0.12500000000E+03 0.  0.
<mgrwt>
<rscale>  0 0.12500000E+03</rscale>
<asrwt>0</asrwt>
<pdfrwt beam="1">  1       21 0.92766517E-03 0.12500000E+03</pdfrwt>
<pdfrwt beam="2">  1       21 0.99664863E-01 0.12500000E+03</pdfrwt>
<totfact> 0.34764860E+06</totfact>
</mgrwt>
</event>
<event>
 3    1  0.1597250E-001  0.1250000E+03  0.7546771E-02  0.1235069E+00
         21   -1    0    0  502  501  0.00000000000E+00  0.00000000000E+00  0.17857469356E+02  0.17857469356E+02  0.00000000000E+00 0. -1.
         21   -1    0    0  501  502 -0.00000000000E+00 -0.00000000000E+00 -0.21874600046E+03  0.21874600046E+03  0.00000000000E+00 0. -1.
         25    1    1    2    0    0  0.00000000000E+00  0.00000000000E+00 -0.20088853111E+03  0.23660346982E+03  0.12500000000E+03 0.  0.
<mgrwt>
<rscale>  0 0.12500000E+03</rscale>
<asrwt>0</asrwt>
<pdfrwt beam="1">  1       21 0.27473028E-02 0.12500000E+03</pdfrwt>
<pdfrwt beam="2">  1       21 0.33653233E-01 0.12500000E+03</pdfrwt>
<totfact> 0.61162893E+06</totfact>
</mgrwt>
</event>
<event>
 3    1  0.1597250E-001  0.1250000E+03  0.7546771E-02  0.1235069E+00
         21   -1    0    0  502  501  0.00000000000E+00  0.00000000000E+00  0.43402999695E+02  0.43402999695E+02  0.00000000000E+00 0.  1.
         21   -1    0    0  501  502 -0.00000000000E+00 -0.00000000000E+00 -0.89999539836E+02  0.89999539836E+02  0.00000000000E+00 0.  1.
         25    1    1    2    0    0  0.00000000000E+00  0.00000000000E+00 -0.46596540141E+02  0.13340253953E+03  0.12500000000E+03 0.  0.
<mgrwt>
<rscale>  0 0.12500000E+03</rscale>
<asrwt>0</asrwt>
<pdfrwt beam="1">  1       21 0.66773845E-02 0.12500000E+03</pdfrwt>
<pdfrwt beam="2">  1       21 0.13846083E-01 0.12500000E+03</pdfrwt>
<totfact> 0.72908693E+06</totfact>
</mgrwt>
</event>
<event>
 3    1  0.1597250E-001  0.1250000E+03  0.7546771E-02  0.1235069E+00
         21   -1    0    0  502  501  0.00000000000E+00  0.00000000000E+00  0.89661098238E+03  0.89661098238E+03  0.00000000000E+00 0. -1.
         21   -1    0    0  501  502 -0.00000000000E+00 -0.00000000000E+00 -0.43566831957E+01  0.43566831957E+01  0.00000000000E+00 0. -1.
         25    1    1    2    0    0  0.00000000000E+00  0.00000000000E+00  0.89225429918E+03  0.90096766558E+03  0.12500000000E+03 0.  0.
<mgrwt>
<rscale>  0 0.12500000E+03</rscale>
<asrwt>0</asrwt>
<pdfrwt beam="1">  1       21 0.13794000E+00 0.12500000E+03</pdfrwt>
<pdfrwt beam="2">  1       21 0.67025967E-03 0.12500000E+03</pdfrwt>
<totfact> 0.26271335E+06</totfact>
</mgrwt>
</event>
<event>
 3    1  0.1597250E-001  0.1250000E+03  0.7546771E-02  0.1235069E+00
         21   -1    0    0  502  501  0.00000000000E+00  0.00000000000E+00  0.13361022261E+03  0.13361022261E+03  0.00000000000E+00 0. -1.
         21   -1    0    0  501  502 -0.00000000000E+00 -0.00000000000E+00 -0.29236161153E+02  0.29236161153E+02  0.00000000000E+00 0. -1.
         25    1    1    2    0    0  0.00000000000E+00  0.00000000000E+00  0.10437406146E+03  0.16284638376E+03  0.12500000000E+03 0.  0.
<mgrwt>
<rscale>  0 0.12500000E+03</rscale>
<asrwt>0</asrwt>
<pdfrwt beam="1">  1       21 0.20555419E-01 0.12500000E+03</pdfrwt>
<pdfrwt beam="2">  1       21 0.44978710E-02 0.12500000E+03</pdfrwt>
<totfact> 0.69173361E+06</totfact>
</mgrwt>
</event>
<event>
 3    1  0.1597250E-001  0.1250000E+03  0.7546771E-02  0.1235069E+00
         21   -1    0    0  502  501  0.00000000000E+00  0.00000000000E+00  0.17231911231E+03  0.17231911231E+03  0.00000000000E+00 0. -1.
         21   -1    0    0  501  502 -0.00000000000E+00 -0.00000000000E+00 -0.22668698484E+02  0.22668698484E+02  0.00000000000E+00 0. -1.
         25    1    1    2    0    0  0.00000000000E+00  0.00000000000E+00  0.14965041382E+03  0.19498781079E+03  0.12500000000E+03 0.  0.
<mgrwt>
<rscale>  0 0.12500000E+03</rscale>
<asrwt>0</asrwt>
<pdfrwt beam="1">  1       21 0.26510632E-01 0.12500000E+03</pdfrwt>
<pdfrwt beam="2">  1       21 0.34874922E-02 0.12500000E+03</pdfrwt>
<totfact> 0.65472357E+06</totfact>
</mgrwt>
</event>
<event>
 3    1  0.1597250E-001  0.1250000E+03  0.7546771E-02  0.1235069E+00
         21   -1    0    0  502  501  0.00000000000E+00  0.00000000000E+00  0.24457747520E+03  0.24457747520E+03  0.00000000000E+00 0.  1.
         21   -1    0    0  501  502 -0.00000000000E+00 -0.00000000000E+00 -0.15971421721E+02  0.15971421721E+02  0.00000000000E+00 0.  1.
         25    1    1    2    0    0  0.00000000000E+00  0.00000000000E+00  0.22860605348E+03  0.26054889692E+03  0.12500000000E+03 0.  0.
<mgrwt>
<rscale>  0 0.12500000E+03</rscale>
<asrwt>0</asrwt>
<pdfrwt beam="1">  1       21 0.37627301E-01 0.12500000E+03</pdfrwt>
<pdfrwt beam="2">  1       21 0.24571420E-02 0.12500000E+03</pdfrwt>
<totfact> 0.58898999E+06</totfact>
</mgrwt>
</event>
<event>
 3    1  0.1597250E-001  0.1250000E+03  0.7546771E-02  0.1235069E+00
         21   -1    0    0  502  501  0.00000000000E+00  0.00000000000E+00  0.17566046704E+03  0.17566046704E+03  0.00000000000E+00 0.  1.
         21   -1    0    0  501  502 -0.00000000000E+00 -0.00000000000E+00 -0.22237502073E+02  0.22237502073E+02  0.00000000000E+00 0.  1.
         25    1    1    2    0    0  0.00000000000E+00  0.00000000000E+00  0.15342296497E+03  0.19789796911E+03  0.12500000000E+03 0.  0.
<mgrwt>
<rscale>  0 0.12500000E+03</rscale>
<asrwt>0</asrwt>
<pdfrwt beam="1">  1       21 0.27024686E-01 0.12500000E+03</pdfrwt>
<pdfrwt beam="2">  1       21 0.34211543E-02 0.12500000E+03</pdfrwt>
<totfact> 0.65155237E+06</totfact>
</mgrwt>
</event>
<event>
 3    1  0.1597250E-001  0.1250000E+03  0.7546771E-02  0.1235069E+00
         21   -1    0    0  502  501  0.00000000000E+00  0.00000000000E+00  0.37500067169E+01  0.37500067169E+01  0.00000000000E+00 0.  1.
         21   -1    0    0  501  502 -0.00000000000E+00 -0.00000000000E+00 -0.10416648009E+04  0.10416648009E+04  0.00000000000E+00 0.  1.
         25    1    1    2    0    0  0.00000000000E+00  0.00000000000E+00 -0.10379147942E+04  0.10454148076E+04  0.12500000000E+03 0.  0.
<mgrwt>
<rscale>  0 0.12500000E+03</rscale>
<asrwt>0</asrwt>
<pdfrwt beam="1">  1       21 0.57692252E-03 0.12500000E+03</pdfrwt>
<pdfrwt beam="2">  1       21 0.16025656E+00 0.12500000E+03</pdfrwt>
<totfact> 0.22507883E+06</totfact>
</mgrwt>
</event>
<event>
 3    1  0.1597250E-001  0.1250000E+03  0.7546771E-02  0.1235069E+00
         21   -1    0    0  502  501  0.00000000000E+00  0.00000000000E+00  0.12634599236E+03  0.12634599236E+03  0.00000000000E+00 0.  1.
         21   -1    0    0  501  502 -0.00000000000E+00 -0.00000000000E+00 -0.30917086701E+02  0.30917086701E+02  0.00000000000E+00 0.  1.
         25    1    1    2    0    0  0.00000000000E+00  0.00000000000E+00  0.95428905657E+02  0.15726307906E+03  0.12500000000E+03 0.  0.
<mgrwt>
<rscale>  0 0.12500000E+03</rscale>
<asrwt>0</asrwt>
<pdfrwt beam="1">  1       21 0.19437845E-01 0.12500000E+03</pdfrwt>
<pdfrwt beam="2">  1       21 0.47564750E-02 0.12500000E+03</pdfrwt>
<totfact> 0.69855474E+06</totfact>
</mgrwt>
</event>
<event>
 3    1  0.1597250E-001  0.1250000E+03  0.7546771E-02  0.1235069E+00
         21   -1    0    0  502  501  0.00000000000E+00  0.00000000000E+00  0.16033753347E+02  0.16033753347E+02  0.00000000000E+00 0. -1.
         21   -1    0    0  501  502 -0.00000000000E+00 -0.00000000000E+00 -0.24362667402E+03  0.24362667402E+03  0.00000000000E+00 0. -1.
         25    1    1    2    0    0  0.00000000000E+00  0.00000000000E+00 -0.22759292067E+03  0.25966042737E+03  0.12500000000E+03 0.  0.
<mgrwt>
<rscale>  0 0.12500000E+03</rscale>
<asrwt>0</asrwt>
<pdfrwt beam="1">  1       21 0.24667314E-02 0.12500000E+03</pdfrwt>
<pdfrwt beam="2">  1       21 0.37481025E-01 0.12500000E+03</pdfrwt>
<totfact> 0.58980410E+06</totfact>
</mgrwt>
</event>
<event>
 3    1  0.1597250E-001  0.1250000E+03  0.7546771E-02  0.1235069E+00
         21   -1    0    0  502  501  0.00000000000E+00  0.00000000000E+00  0.49859661932E+02  0.49859661932E+02  0.00000000000E+00 0.  1.
         21   -1    0    0  501  502 -0.00000000000E+00 -0.00000000000E+00 -0.78344895426E+02  0.78344895426E+02  0.00000000000E+00 0.  1.
         25    1    1    2    0    0  0.00000000000E+00  0.00000000000E+00 -0.28485233494E+02  0.12820455736E+03  0.12500000000E+03 0.  0.
<mgrwt>
<rscale>  0 0.12500000E+03</rscale>
<asrwt>0</asrwt>
<pdfrwt beam="1">  1       21 0.76707172E-02 0.12500000E+03</pdfrwt>
<pdfrwt beam="2">  1       21 0.12053061E-01 0.12500000E+03</pdfrwt>
<totfact> 0.73605944E+06</totfact>
</mgrwt>
</event>
<event>
 3    1  0.1597250E-001  0.1250000E+03  0.7546771E-02  0.1235069E+00
         21   -1    0    0  502  501  0.00000000000E+00  0.00000000000E+00  0.10124792680E+03  0.10124792680E+03  0.00000000000E+00 0. -1.
         21   -1    0    0  501  502 -0.00000000000E+00 -0.00000000000E+00 -0.38581036902E+02  0.38581036902E+02  0.00000000000E+00 0. -1.
         25    1    1    2    0    0  0.00000000000E+00  0.00000000000E+00  0.62666889895E+02  0.13982896370E+03  0.12500000000E+03 0.  0.
<mgrwt>
<rscale>  0 0.12500000E+03</rscale>
<asrwt>0</asrwt>
<pdfrwt beam="1">  1       21 0.15576604E-01 0.12500000E+03</pdfrwt>
<pdfrwt beam="2">  1       21 0.59355442E-02 0.12500000E+03</pdfrwt>
<totfact> 0.72061644E+06</totfact>
</mgrwt>
</event>
<event>
 3    1  0.1597250E-001  0.1250000E+03  0.7546771E-02  0.1235069E+00
         21   -1    0    0  502  501  0.00000000000E+00  0.00000000000E+00  0.46262690656E+03  0.46262690656E+03  0.00000000000E+00 0.  1.
         21   -1    0    0  501  502 -0.00000000000E+00 -0.00000000000E+00 -0.84436290769E+01  0.84436290769E+01  0.00000000000E+00 0.  1.
         25    1    1    2    0    0  0.00000000000E+00  0.00000000000E+00  0.45418327748E+03  0.47107053564E+03  0.12500000000E+03 0.  0.
<mgrwt>
<rscale>  0 0.12500000E+03</rscale>
<asrwt>0</asrwt>
<pdfrwt beam="1">  1       21 0.71173351E-01 0.12500000E+03</pdfrwt>
<pdfrwt beam="2">  1       21 0.12990202E-02 0.12500000E+03</pdfrwt>
<totfact> 0.43657730E+06</totfact>
</mgrwt>
</event>
<event>
 3    1  0.1597250E-001  0.1250000E+03  0.7546771E-02  0.1235069E+00
         21   -1    0    0  502  501  0.00000000000E+00  0.00000000000E+00  0.36961107817E+02  0.36961107817E+02  0.00000000000E+00 0.  1.
         21   -1    0    0  501  502 -0.00000000000E+00 -0.00000000000E+00 -0.10568541450E+03  0.10568541450E+03  0.00000000000E+00 0.  1.
         25    1    1    2    0    0  0.00000000000E+00  0.00000000000E+00 -0.68724306682E+02  0.14264652232E+03  0.12500000000E+03 0.  0.
<mgrwt>
<rscale>  0 0.12500000E+03</rscale>
<asrwt>0</asrwt>
<pdfrwt beam="1">  1       21 0.56863244E-02 0.12500000E+03</pdfrwt>
<pdfrwt beam="2">  1       21 0.16259294E-01 0.12500000E+03</pdfrwt>
<totfact> 0.71695666E+06</totfact>
</mgrwt>
</event>
<event>
 3    1  0.1597250E-001  0.1250000E+03  0.7546771E-02  0.1235069E+00
         21   -1    0    0  502  501  0.00000000000E+00  0.00000000000E+00  0.70494912488E+02  0.70494912488E+02  0.00000000000E+00 0.  1.
         21   -1    0    0  501  502 -0.00000000000E+00 -0.00000000000E+00 -0.55411800116E+02  0.55411800116E+02  0.00000000000E+00 0.  1.
         25    1    1    2    0    0  0.00000000000E+00  0.00000000000E+00  0.15083112372E+02  0.12590671260E+03  0.12500000000E+03 0.  0.
<mgrwt>
<rscale>  0 0.12500000E+03</rscale>
<asrwt>0</asrwt>
<pdfrwt beam="1">  1       21 0.10845371E-01 0.12500000E+03</pdfrwt>
<pdfrwt beam="2">  1       21 0.85248923E-02 0.12500000E+03</pdfrwt>
<totfact> 0.73918913E+06</totfact>
</mgrwt>
</event>
<event>
 3    1  0.1597250E-001  0.1250000E+03  0.7546771E-02  0.1235069E+00
         21   -1    0    0  502  501  0.00000000000E+00  0.00000000000E+00  0.16872126766E+03  0.16872126766E+03  0.00000000000E+00 0.  1.
         21   -1    0    0  501  502 -0.00000000000E+00 -0.00000000000E+00 -0.23152090155E+02  0.23152090155E+02  0.00000000000E+00 0.  1.
         25    1    1    2    0    0  0.00000000000E+00  0.00000000000E+00  0.14556917751E+03  0.19187335782E+03  0.12500000000E+03 0.  0.
<mgrwt>
<rscale>  0 0.12500000E+03</rscale>
<asrwt>0</asrwt>
<pdfrwt beam="1">  1       21 0.25957117E-01 0.12500000E+03</pdfrwt>
<pdfrwt beam="2">  1       21 0.35618601E-02 0.12500000E+03</pdfrwt>
<totfact> 0.65814861E+06</totfact>
</mgrwt>
</event>
<event>
 3    1  0.1597250E-001  0.1250000E+03  0.7546771E-02  0.1235069E+00
         21   -1    0    0  502  501  0.00000000000E+00  0.00000000000E+00  0.17813215636E+02  0.17813215636E+02  0.00000000000E+00 0.  1.
         21   -1    0    0  501  502 -0.00000000000E+00 -0.00000000000E+00 -0.21928943543E+03  0.21928943543E+03  0.00000000000E+00 0.  1.
         25    1    1    2    0    0  0.00000000000E+00  0.00000000000E+00 -0.20147621979E+03  0.23710265106E+03  0.12500000000E+03 0.  0.
<mgrwt>
<rscale>  0 0.12500000E+03</rscale>
<asrwt>0</asrwt>
<pdfrwt beam="1">  1       21 0.27404947E-02 0.12500000E+03</pdfrwt>
<pdfrwt beam="2">  1       21 0.33736837E-01 0.12500000E+03</pdfrwt>
<totfact> 0.61114164E+06</totfact>
</mgrwt>
</event>
<event>
 3    1  0.1597250E-001  0.1250000E+03  0.7546771E-02  0.1235069E+00
         21   -1    0    0  502  501  0.00000000000E+00  0.00000000000E+00  0.83921122018E+02  0.83921122018E+02  0.00000000000E+00 0.  1.
         21   -1    0    0  501  502 -0.00000000000E+00 -0.00000000000E+00 -0.46546684626E+02  0.46546684626E+02  0.00000000000E+00 0.  1.
         25    1    1    2    0    0  0.00000000000E+00  0.00000000000E+00  0.37374437392E+02  0.13046780664E+03  0.12500000000E+03 0.  0.
<mgrwt>
<rscale>  0 0.12500000E+03</rscale>
<asrwt>0</asrwt>
<pdfrwt beam="1">  1       21 0.12910942E-01 0.12500000E+03</pdfrwt>
<pdfrwt beam="2">  1       21 0.71610284E-02 0.12500000E+03</pdfrwt>
<totfact> 0.73302458E+06</totfact>
</mgrwt>
</event>
<event>
 3    1  0.1597250E-001  0.1250000E+03  0.7546771E-02  0.1235069E+00
         21   -1    0    0  502  501  0.00000000000E+00  0.00000000000E+00  0.11873886716E+03  0.11873886716E+03  0.00000000000E+00 0.  1.
         21   -1    0    0  501  502 -0.00000000000E+00 -0.00000000000E+00 -0.32897821021E+02  0.32897821021E+02  0.00000000000E+00 0.  1.
         25    1    1    2    0    0  0.00000000000E+00  0.00000000000E+00  0.85841046138E+02  0.15163668818E+03  0.12500000000E+03 0.  0.
<mgrwt>
<rscale>  0 0.12500000E+03</rscale>
<asrwt>0</asrwt>
<pdfrwt beam="1">  1       21 0.18267518E-01 0.12500000E+03</pdfrwt>
<pdfrwt beam="2">  1       21 0.50612033E-02 0.12500000E+03</pdfrwt>
<totfact> 0.70554204E+06</totfact>
</mgrwt>
</event>
<event>
 3    1  0.1597250E-001  0.1250000E+03  0.7546771E-02  0.1235069E+00
         21   -1    0    0  502  501  0.00000000000E+00  0.00000000000E+00  0.20319416570E+03  0.20319416570E+03  0.00000000000E+00 0.  1.
         21   -1    0    0  501  502 -0.00000000000E+00 -0.00000000000E+00 -0.19224223228E+02  0.19224223228E+02  0.00000000000E+00 0.  1.
         25    1    1    2    0    0  0.00000000000E+00  0.00000000000E+00  0.18396994247E+03  0.22241838893E+03  0.12500000000E+03 0.  0.
<mgrwt>
<rscale>  0 0.12500000E+03</rscale>
<asrwt>0</asrwt>
<pdfrwt beam="1">  1       21 0.31260639E-01 0.12500000E+03</pdfrwt>
<pdfrwt beam="2">  1       21 0.29575729E-02 0.12500000E+03</pdfrwt>
<totfact> 0.62576196E+06</totfact>
</mgrwt>
</event>
<event>
 3    1  0.1597250E-001  0.1250000E+03  0.7546771E-02  0.1235069E+00
         21   -1    0    0  502  501  0.00000000000E+00  0.00000000000E+00  0.88213676925E+01  0.88213676925E+01  0.00000000000E+00 0. -1.
         21   -1    0    0  501  502 -0.00000000000E+00 -0.00000000000E+00 -0.44281682118E+03  0.44281682118E+03  0.00000000000E+00 0. -1.
         25    1    1    2    0    0  0.00000000000E+00  0.00000000000E+00 -0.43399545348E+03  0.45163818887E+03  0.12500000000E+03 0.  0.
<mgrwt>
<rscale>  0 0.12500000E+03</rscale>
<asrwt>0</asrwt>
<pdfrwt beam="1">  1       21 0.13571337E-02 0.12500000E+03</pdfrwt>
<pdfrwt beam="2">  1       21 0.68125654E-01 0.12500000E+03</pdfrwt>
<totfact> 0.44794409E+06</totfact>
</mgrwt>
</event>
<event>
 3    1  0.1597250E-001  0.1250000E+03  0.7546771E-02  0.1235069E+00
         21   -1    0    0  502  501  0.00000000000E+00  0.00000000000E+00  0.22340198716E+02  0.22340198716E+02  0.00000000000E+00 0. -1.
         21   -1    0    0  501  502 -0.00000000000E+00 -0.00000000000E+00 -0.17485296571E+03  0.17485296571E+03  0.00000000000E+00 0. -1.
         25    1    1    2    0    0  0.00000000000E+00  0.00000000000E+00 -0.15251276699E+03  0.19719316442E+03  0.12500000000E+03 0.  0.
<mgrwt>
<rscale>  0 0.12500000E+03</rscale>
<asrwt>0</asrwt>
<pdfrwt beam="1">  1       21 0.34369537E-02 0.12500000E+03</pdfrwt>
<pdfrwt beam="2">  1       21 0.26900456E-01 0.12500000E+03</pdfrwt>
<totfact> 0.65231783E+06</totfact>
</mgrwt>
</event>
<event>
 3    1  0.1597250E-001  0.1250000E+03  0.7546771E-02  0.1235069E+00
         21   -1    0    0  502  501  0.00000000000E+00  0.00000000000E+00  0.30162682975E+01  0.30162682975E+01  0.00000000000E+00 0.  1.
         21   -1    0    0  501  502 -0.00000000000E+00 -0.00000000000E+00 -0.12950605234E+04  0.12950605234E+04  0.00000000000E+00 0.  1.
         25    1    1    2    0    0  0.00000000000E+00  0.00000000000E+00 -0.12920442551E+04  0.12980767917E+04  0.12500000000E+03 0.  0.
<mgrwt>
<rscale>  0 0.12500000E+03</rscale>
<asrwt>0</asrwt>
<pdfrwt beam="1">  1       21 0.46404144E-03 0.12500000E+03</pdfrwt>
<pdfrwt beam="2">  1       21 0.19924001E+00 0.12500000E+03</pdfrwt>
<totfact> 0.17286914E+06</totfact>
</mgrwt>
</event>
<event>
 3    1  0.1597250E-001  0.1250000E+03  0.7546771E-02  0.1235069E+00
         21   -1    0    0  502  501  0.00000000000E+00  0.00000000000E+00  0.29041554644E+02  0.29041554644E+02  0.00000000000E+00 0.  1.
         21   -1    0    0  501  502 -0.00000000000E+00 -0.00000000000E+00 -0.13450554035E+03  0.13450554035E+03  0.00000000000E+00 0.  1.
         25    1    1    2    0    0  0.00000000000E+00  0.00000000000E+00 -0.10546398571E+03  0.16354709500E+03  0.12500000000E+03 0.  0.
<mgrwt>
<rscale>  0 0.12500000E+03</rscale>
<asrwt>0</asrwt>
<pdfrwt beam="1">  1       21 0.44679316E-02 0.12500000E+03</pdfrwt>
<pdfrwt beam="2">  1       21 0.20693159E-01 0.12500000E+03</pdfrwt>
<totfact> 0.69088656E+06</totfact>
</mgrwt>
</event>
<event>
 3    1  0.1597250E-001  0.1250000E+03  0.7546771E-02  0.1235069E+00
         21   -1    0    0  502  501  0.00000000000E+00  0.00000000000E+00  0.33560746749E+03  0.33560746749E+03  0.00000000000E+00 0. -1.
         21   -1    0    0  501  502 -0.00000000000E+00 -0.00000000000E+00 -0.11639341726E+02  0.11639341726E+02  0.00000000000E+00 0. -1.
         25    1    1    2    0    0  0.00000000000E+00  0.00000000000E+00  0.32396812576E+03  0.34724680921E+03  0.12500000000E+03 0.  0.
<mgrwt>
<rscale>  0 0.12500000E+03</rscale>
<asrwt>0</asrwt>
<pdfrwt beam="1">  1       21 0.51631911E-01 0.12500000E+03</pdfrwt>
<pdfrwt beam="2">  1       21 0.17906682E-02 0.12500000E+03</pdfrwt>
<totfact> 0.51742410E+06</totfact>
</mgrwt>
</event>
<event>
 3    1  0.1597250E-001  0.1250000E+03  0.7546771E-02  0.1235069E+00
         21   -1    0    0  502  501  0.00000000000E+00  0.00000000000E+00  0.95419261929E+03  0.95419261929E+03  0.00000000000E+00 0.  1.
         21   -1    0    0  501  502 -0.00000000000E+00 -0.00000000000E+00 -0.40937751153E+01  0.40937751153E+01  0.00000000000E+00 0.  1.
         25    1    1    2    0    0  0.00000000000E+00  0.00000000000E+00  0.95009884417E+03  0.95828639440E+03  0.12500000000E+03 0.  0.
<mgrwt>
<rscale>  0 0.12500000E+03</rscale>
<asrwt>0</asrwt>
<pdfrwt beam="1">  1       21 0.14679869E+00 0.12500000E+03</pdfrwt>
<pdfrwt beam="2">  1       21 0.62981232E-03 0.12500000E+03</pdfrwt>
<totfact> 0.24690881E+06</totfact>
</mgrwt>
</event>
<event>
 3    1  0.1597250E-001  0.1250000E+03  0.7546771E-02  0.1235069E+00
         21   -1    0    0  502  501  0.00000000000E+00  0.00000000000E+00  0.82864644473E+02  0.82864644473E+02  0.00000000000E+00 0.  1.
         21   -1    0    0  501  502 -0.00000000000E+00 -0.00000000000E+00 -0.47140128638E+02  0.47140128638E+02  0.00000000000E+00 0.  1.
         25    1    1    2    0    0  0.00000000000E+00  0.00000000000E+00  0.35724515835E+02  0.13000477311E+03  0.12500000000E+03 0.  0.
<mgrwt>
<rscale>  0 0.12500000E+03</rscale>
<asrwt>0</asrwt>
<pdfrwt beam="1">  1       21 0.12748407E-01 0.12500000E+03</pdfrwt>
<pdfrwt beam="2">  1       21 0.72523275E-02 0.12500000E+03</pdfrwt>
<totfact> 0.73364277E+06</totfact>
</mgrwt>
</event>
<event>
 3    1  0.1597250E-001  0.1250000E+03  0.7546771E-02  0.1235069E+00
         21   -1    0    0  502  501  0.00000000000E+00  0.00000000000E+00  0.16328392235E+02  0.16328392235E+02  0.00000000000E+00 0.  1.
         21   -1    0    0  501  502 -0.00000000000E+00 -0.00000000000E+00 -0.23923053438E+03  0.23923053438E+03  0.00000000000E+00 0.  1.
         25    1    1    2    0    0  0.00000000000E+00  0.00000000000E+00 -0.22290214214E+03  0.25555892661E+03  0.12500000000E+03 0.  0.
<mgrwt>
<rscale>  0 0.12500000E+03</rscale>
<asrwt>0</asrwt>
<pdfrwt beam="1">  1       21 0.25120606E-02 0.12500000E+03</pdfrwt>
<pdfrwt beam="2">  1       21 0.36804694E-01 0.12500000E+03</pdfrwt>
<totfact> 0.59358738E+06</totfact>
</mgrwt>
</event>
<event>
 3    1  0.1597250E-001  0.1250000E+03  0.7546771E-02  0.1235069E+00
         21   -1    0    0  502  501  0.00000000000E+00  0.00000000000E+00  0.24190529416E+03  0.24190529416E+03  0.00000000000E+00 0.  1.
         21   -1    0    0  501  502 -0.00000000000E+00 -0.00000000000E+00 -0.16147848329E+02  0.16147848329E+02  0.00000000000E+00 0.  1.
         25    1    1    2    0    0  0.00000000000E+00  0.00000000000E+00  0.22575744583E+03  0.25805314249E+03  0.12500000000E+03 0.  0.
<mgrwt>
<rscale>  0 0.12500000E+03</rscale>
<asrwt>0</asrwt>
<pdfrwt beam="1">  1       21 0.37216196E-01 0.12500000E+03</pdfrwt>
<pdfrwt beam="2">  1       21 0.24842845E-02 0.12500000E+03</pdfrwt>
<totfact> 0.59128176E+06</totfact>
</mgrwt>
</event>
<event>
 3    1  0.1597250E-001  0.1250000E+03  0.7546771E-02  0.1235069E+00
         21   -1    0    0  502  501  0.00000000000E+00  0.00000000000E+00  0.31329366029E+02  0.31329366029E+02  0.00000000000E+00 0.  1.
         21   -1    0    0  501  502 -0.00000000000E+00 -0.00000000000E+00 -0.12468334011E+03  0.12468334011E+03  0.00000000000E+00 0.  1.
         25    1    1    2    0    0  0.00000000000E+00  0.00000000000E+00 -0.93353974079E+02  0.15601270614E+03  0.12500000000E+03 0.  0.
<mgrwt>
<rscale>  0 0.12500000E+03</rscale>
<asrwt>0</asrwt>
<pdfrwt beam="1">  1       21 0.48199025E-02 0.12500000E+03</pdfrwt>
<pdfrwt beam="2">  1       21 0.19182052E-01 0.12500000E+03</pdfrwt>
<totfact> 0.70010011E+06</totfact>
</mgrwt>
</event>
<event>
 3    1  0.1597250E-001  0.1250000E+03  0.7546771E-02  0.1235069E+00
         21   -1    0    0  502  501  0.00000000000E+00  0.00000000000E+00  0.19983071113E+02  0.19983071113E+02  0.00000000000E+00 0. -1.
         21   -1    0    0  501  502 -0.00000000000E+00 -0.00000000000E+00 -0.19547796122E+03  0.19547796122E+03  0.00000000000E+00 0. -1.
         25    1    1    2    0    0  0.00000000000E+00  0.00000000000E+00 -0.17549489010E+03  0.21546103233E+03  0.12500000000E+03 0.  0.
<mgrwt>
<rscale>  0 0.12500000E+03</rscale>
<asrwt>0</asrwt>
<pdfrwt beam="1">  1       21 0.30743186E-02 0.12500000E+03</pdfrwt>
<pdfrwt beam="2">  1       21 0.30073533E-01 0.12500000E+03</pdfrwt>
<totfact> 0.63289513E+06</totfact>
</mgrwt>
</event>
<event>
 3    1  0.1597250E-001  0.1250000E+03  0.7546771E-02  0.1235069E+00
         21   -1    0    0  502  501  0.00000000000E+00  0.00000000000E+00  0.32304644367E+01  0.32304644367E+01  0.00000000000E+00 0. -1.
         21   -1    0    0  501  502 -0.00000000000E+00 -0.00000000000E+00 -0.12091914573E+04  0.12091914573E+04  0.00000000000E+00 0. -1.
         25    1    1    2    0    0  0.00000000000E+00  0.00000000000E+00 -0.12059609929E+04  0.12124219218E+04  0.12500000000E+03 0.  0.
<mgrwt>
<rscale>  0 0.12500000E+03</rscale>
<asrwt>0</asrwt>
<pdfrwt beam="1">  1       21 0.49699412E-03 0.12500000E+03</pdfrwt>
<pdfrwt beam="2">  1       21 0.18602961E+00 0.12500000E+03</pdfrwt>
<totfact> 0.18897549E+06</totfact>
</mgrwt>
</event>
<event>
 3    1  0.1597250E-001  0.1250000E+03  0.7546771E-02  0.1235069E+00
         21   -1    0    0  502  501  0.00000000000E+00  0.00000000000E+00  0.33549935015E+02  0.33549935015E+02  0.00000000000E+00 0. -1.
         21   -1    0    0  501  502 -0.00000000000E+00 -0.00000000000E+00 -0.11643092597E+03  0.11643092597E+03  0.00000000000E+00 0. -1.
         25    1    1    2    0    0  0.00000000000E+00  0.00000000000E+00 -0.82880990954E+02  0.14998086098E+03  0.12500000000E+03 0.  0.
<mgrwt>
<rscale>  0 0.12500000E+03</rscale>
<asrwt>0</asrwt>
<pdfrwt beam="1">  1       21 0.51615285E-02 0.12500000E+03</pdfrwt>
<pdfrwt beam="2">  1       21 0.17912450E-01 0.12500000E+03</pdfrwt>
<totfact> 0.70761605E+06</totfact>
</mgrwt>
</event>
<event>
 3    1  0.1597250E-001  0.1250000E+03  0.7546771E-02  0.1235069E+00
         21   -1    0    0  502  501  0.00000000000E+00  0.00000000000E+00  0.24316898126E+02  0.24316898126E+02  0.00000000000E+00 0. -1.
         21   -1    0    0  501  502 -0.00000000000E+00 -0.00000000000E+00 -0.16063932085E+03  0.16063932085E+03  0.00000000000E+00 0. -1.
         25    1    1    2    0    0  0.00000000000E+00  0.00000000000E+00 -0.13632242272E+03  0.18495621897E+03  0.12500000000E+03 0.  0.
<mgrwt>
<rscale>  0 0.12500000E+03</rscale>
<asrwt>0</asrwt>
<pdfrwt beam="1">  1       21 0.37410611E-02 0.12500000E+03</pdfrwt>
<pdfrwt beam="2">  1       21 0.24713743E-01 0.12500000E+03</pdfrwt>
<totfact> 0.66587472E+06</totfact>
</mgrwt>
</event>
<event>
 3    1  0.1597250E-001  0.1250000E+03  0.7546771E-02  0.1235069E+00
         21   -1    0    0  502  501  0.00000000000E+00  0.00000000000E+00  0.55217208390E+03  0.55217208390E+03  0.00000000000E+00 0.  1.
         21   -1    0    0  501  502 -0.00000000000E+00 -0.00000000000E+00 -0.70743344583E+01  0.70743344583E+01  0.00000000000E+00 0.  1.
         25    1    1    2    0    0  0.00000000000E+00  0.00000000000E+00  0.54509774944E+03  0.55924641835E+03  0.12500000000E+03 0.  0.
<mgrwt>
<rscale>  0 0.12500000E+03</rscale>
<asrwt>0</asrwt>
<pdfrwt beam="1">  1       21 0.84949517E-01 0.12500000E+03</pdfrwt>
<pdfrwt beam="2">  1       21 0.10883596E-02 0.12500000E+03</pdfrwt>
<totfact> 0.39003012E+06</totfact>
</mgrwt>
</event>
<event>
 3    1  0.1597250E-001  0.1250000E+03  0.7546771E-02  0.1235069E+00
         21   -1    0    0  502  501  0.00000000000E+00  0.00000000000E+00  0.45515430074E+02  0.45515430074E+02  0.00000000000E+00 0.  1.
         21   -1    0    0  501  502 -0.00000000000E+00 -0.00000000000E+00 -0.85822543996E+02  0.85822543996E+02  0.00000000000E+00 0.  1.
         25    1    1    2    0    0  0.00000000000E+00  0.00000000000E+00 -0.40307113923E+02  0.13133797407E+03  0.12500000000E+03 0.  0.
<mgrwt>
<rscale>  0 0.12500000E+03</rscale>
<asrwt>0</asrwt>
<pdfrwt beam="1">  1       21 0.70023740E-02 0.12500000E+03</pdfrwt>
<pdfrwt beam="2">  1       21 0.13203468E-01 0.12500000E+03</pdfrwt>
<totfact> 0.73185163E+06</totfact>
</mgrwt>
</event>
<event>
 3    1  0.1597250E-001  0.1250000E+03  0.7546771E-02  0.1235069E+00
         21   -1    0    0  502  501  0.00000000000E+00  0.00000000000E+00  0.47775286811E+03  0.47775286811E+03  0.00000000000E+00 0.  1.
         21   -1    0    0  501  502 -0.00000000000E+00 -0.00000000000E+00 -0.81762983767E+01  0.81762983767E+01  0.00000000000E+00 0.  1.
         25    1    1    2    0    0  0.00000000000E+00  0.00000000000E+00  0.46957656973E+03  0.48592916649E+03  0.12500000000E+03 0.  0.
<mgrwt>
<rscale>  0 0.12500000E+03</rscale>
<asrwt>0</asrwt>
<pdfrwt beam="1">  1       21 0.73500419E-01 0.12500000E+03</pdfrwt>
<pdfrwt beam="2">  1       21 0.12578924E-02 0.12500000E+03</pdfrwt>
<totfact> 0.42817597E+06</totfact>
</mgrwt>
</event>
<event>
 3    1  0.1597250E-001  0.1250000E+03  0.7546771E-02  0.1235069E+00
         21   -1    0    0  502  501  0.00000000000E+00  0.00000000000E+00  0.17428677236E+02  0.17428677236E+02  0.00000000000E+00 0.  1.
         21   -1    0    0  501  502 -0.00000000000E+00 -0.00000000000E+00 -0.22412773771E+03  0.22412773771E+03  0.00000000000E+00 0.  1.
         25    1    1    2    0    0  0.00000000000E+00  0.00000000000E+00 -0.20669906047E+03  0.24155641494E+03  0.12500000000E+03 0.  0.
<mgrwt>
<rscale>  0 0.12500000E+03</rscale>
<asrwt>0</asrwt>
<pdfrwt beam="1">  1       21 0.26813350E-02 0.12500000E+03</pdfrwt>
<pdfrwt beam="2">  1       21 0.34481190E-01 0.12500000E+03</pdfrwt>
<totfact> 0.60682376E+06</totfact>
</mgrwt>
</event>
<event>
 3    1  0.1597250E-001  0.1250000E+03  0.7546771E-02  0.1235069E+00
         21   -1    0    0  502  501  0.00000000000E+00  0.00000000000E+00  0.63584669943E+02  0.63584669943E+02  0.00000000000E+00 0. -1.
         21   -1    0    0  501  502 -0.00000000000E+00 -0.00000000000E+00 -0.61433833085E+02  0.61433833085E+02  0.00000000000E+00 0. -1.
         25    1    1    2    0    0  0.00000000000E+00  0.00000000000E+00  0.21508368583E+01  0.12501850303E+03  0.12500000000E+03 0.  0.
<mgrwt>
<rscale>  0 0.12500000E+03</rscale>
<asrwt>0</asrwt>
<pdfrwt beam="1">  1       21 0.97822569E-02 0.12500000E+03</pdfrwt>
<pdfrwt beam="2">  1       21 0.94513590E-02 0.12500000E+03</pdfrwt>
<totfact> 0.74041082E+06</totfact>
</mgrwt>
</event>
<event>
 3    1  0.1597250E-001  0.1250000E+03  0.7546771E-02  0.1235069E+00
         21   -1    0    0  502  501  0.00000000000E+00  0.00000000000E+00  0.46442924613E+02  0.46442924613E+02  0.00000000000E+00 0. -1.
         21   -1    0    0  501  502 -0.00000000000E+00 -0.00000000000E+00 -0.84108613585E+02  0.84108613585E+02  0.00000000000E+00 0. -1.
         25    1    1    2    0    0  0.00000000000E+00  0.00000000000E+00 -0.37665688973E+02  0.13055153820E+03  0.12500000000E+03 0.  0.
<mgrwt>
<rscale>  0 0.12500000E+03</rscale>
<asrwt>0</asrwt>
<pdfrwt beam="1">  1       21 0.71450654E-02 0.12500000E+03</pdfrwt>
<pdfrwt beam="2">  1       21 0.12939787E-01 0.12500000E+03</pdfrwt>
<totfact> 0.73291170E+06</totfact>
</mgrwt>
</event>
<event>
 3    1  0.1597250E-001  0.1250000E+03  0.7546771E-02  0.1235069E+00
         21   -1    0    0  502  501  0.00000000000E+00  0.00000000000E+00  0.24780629826E+03  0.24780629826E+03  0.00000000000E+00 0.  1.
         21   -1    0    0  501  502 -0.00000000000E+00 -0.00000000000E+00 -0.15763320091E+02  0.15763320091E+02  0.00000000000E+00 0.  1.
         25    1    1    2    0    0  0.00000000000E+00  0.00000000000E+00  0.23204297817E+03  0.26356961836E+03  0.12500000000E+03 0.  0.
<mgrwt>
<rscale>  0 0.12500000E+03</rscale>
<asrwt>0</asrwt>
<pdfrwt beam="1">  1       21 0.38124043E-01 0.12500000E+03</pdfrwt>
<pdfrwt beam="2">  1       21 0.24251263E-02 0.12500000E+03</pdfrwt>
<totfact> 0.58623635E+06</totfact>
</mgrwt>
</event>
<event>
 3    1  0.1597250E-001  0.1250000E+03  0.7546771E-02  0.1235069E+00
         21   -1    0    0  502  501  0.00000000000E+00  0.00000000000E+00  0.23640007802E+03  0.23640007802E+03  0.00000000000E+00 0. -1.
         21   -1    0    0  501  502 -0.00000000000E+00 -0.00000000000E+00 -0.16523894716E+02  0.16523894716E+02  0.00000000000E+00 0. -1.
         25    1    1    2    0    0  0.00000000000E+00  0.00000000000E+00  0.21987618330E+03  0.25292397273E+03  0.12500000000E+03 0.  0.
<mgrwt>
<rscale>  0 0.12500000E+03</rscale>
<asrwt>0</asrwt>
<pdfrwt beam="1">  1       21 0.36369240E-01 0.12500000E+03</pdfrwt>
<pdfrwt beam="2">  1       21 0.25421378E-02 0.12500000E+03</pdfrwt>
<totfact> 0.59603990E+06</totfact>
</mgrwt>
</event>
<event>
 3    1  0.1597250E-001  0.1250000E+03  0.7546771E-02  0.1235069E+00
         21   -1    0    0  502  501  0.00000000000E+00  0.00000000000E+00  0.20574855812E+02  0.20574855812E+02  0.00000000000E+00 0.  1.
         21   -1    0    0  501  502 -0.00000000000E+00 -0.00000000000E+00 -0.18985552247E+03  0.18985552247E+03  0.00000000000E+00 0.  1.
         25    1    1    2    0    0  0.00000000000E+00  0.00000000000E+00 -0.16928066666E+03  0.21043037829E+03  0.12500000000E+03 0.  0.
<mgrwt>
<rscale>  0 0.12500000E+03</rscale>
<asrwt>0</asrwt>
<pdfrwt beam="1">  1       21 0.31653624E-02 0.12500000E+03</pdfrwt>
<pdfrwt beam="2">  1       21 0.29208542E-01 0.12500000E+03</pdfrwt>
<totfact> 0.63814283E+06</totfact>
</mgrwt>
</event>
<event>
 3    1  0.1597250E-001  0.1250000E+03  0.7546771E-02  0.1235069E+00
         21   -1    0    0  502  501  0.00000000000E+00  0.00000000000E+00  0.15253136333E+03  0.15253136333E+03  0.00000000000E+00 0. -1.
         21   -1    0    0  501  502 -0.00000000000E+00 -0.00000000000E+00 -0.25609487221E+02  0.25609487221E+02  0.00000000000E+00 0. -1.
         25    1    1    2    0    0  0.00000000000E+00  0.00000000000E+00  0.12692187611E+03  0.17814085055E+03  0.12500000000E+03 0.  0.
<mgrwt>
<rscale>  0 0.12500000E+03</rscale>
<asrwt>0</asrwt>
<pdfrwt beam="1">  1       21 0.23466363E-01 0.12500000E+03</pdfrwt>
<pdfrwt beam="2">  1       21 0.39399212E-02 0.12500000E+03</pdfrwt>
<totfact> 0.67365455E+06</totfact>
</mgrwt>
</event>
<event>
 3    1  0.1597250E-001  0.1250000E+03  0.7546771E-02  0.1235069E+00
         21   -1    0    0  502  501  0.00000000000E+00  0.00000000000E+00  0.14832917827E+02  0.14832917827E+02  0.00000000000E+00 0. -1.
         21   -1    0    0  501  502 -0.00000000000E+00 -0.00000000000E+00 -0.26335007351E+03  0.26335007351E+03  0.00000000000E+00 0. -1.
         25    1    1    2    0    0  0.00000000000E+00  0.00000000000E+00 -0.24851715568E+03  0.27818299134E+03  0.12500000000E+03 0.  0.
<mgrwt>
<rscale>  0 0.12500000E+03</rscale>
<asrwt>0</asrwt>
<pdfrwt beam="1">  1       21 0.22819875E-02 0.12500000E+03</pdfrwt>
<pdfrwt beam="2">  1       21 0.40515393E-01 0.12500000E+03</pdfrwt>
<totfact> 0.57319430E+06</totfact>
</mgrwt>
</event>
<event>
 3    1  0.1597250E-001  0.1250000E+03  0.7546771E-02  0.1235069E+00
         21   -1    0    0  502  501  0.00000000000E+00  0.00000000000E+00  0.31976146215E+03  0.31976146215E+03  0.00000000000E+00 0. -1.
         21   -1    0    0  501  502 -0.00000000000E+00 -0.00000000000E+00 -0.12216137535E+02  0.12216137535E+02  0.00000000000E+00 0. -1.
         25    1    1    2    0    0  0.00000000000E+00  0.00000000000E+00  0.30754532461E+03  0.33197759968E+03  0.12500000000E+03 0.  0.
<mgrwt>
<rscale>  0 0.12500000E+03</rscale>
<asrwt>0</asrwt>
<pdfrwt beam="1">  1       21 0.49194065E-01 0.12500000E+03</pdfrwt>
<pdfrwt beam="2">  1       21 0.18794060E-02 0.12500000E+03</pdfrwt>
<totfact> 0.52897625E+06</totfact>
</mgrwt>
</event>
<event>
 3    1  0.1597250E-001  0.1250000E+03  0.7546771E-02  0.1235069E+00
         21   -1    0    0  502  501  0.00000000000E+00  0.00000000000E+00  0.47625203337E+02  0.47625203337E+02  0.00000000000E+00 0.  1.
         21   -1    0    0  501  502 -0.00000000000E+00 -0.00000000000E+00 -0.82020647184E+02  0.82020647184E+02  0.00000000000E+00 0.  1.
         25    1    1    2    0    0  0.00000000000E+00  0.00000000000E+00 -0.34395443847E+02  0.12964585052E+03  0.12500000000E+03 0.  0.
<mgrwt>
<rscale>  0 0.12500000E+03</rscale>
<asrwt>0</asrwt>
<pdfrwt beam="1">  1       21 0.73269544E-02 0.12500000E+03</pdfrwt>
<pdfrwt beam="2">  1       21 0.12618561E-01 0.12500000E+03</pdfrwt>
<totfact> 0.73412285E+06</totfact>
</mgrwt>
</event>
<event>
 3    1  0.1597250E-001  0.1250000E+03  0.7546771E-02  0.1235069E+00
         21   -1    0    0  502  501  0.00000000000E+00  0.00000000000E+00  0.18093439525E+02  0.18093439525E+02  0.00000000000E+00 0. -1.
         21   -1    0    0  501  502 -0.00000000000E+00 -0.00000000000E+00 -0.21589316915E+03  0.21589316915E+03  0.00000000000E+00 0. -1.
         25    1    1    2    0    0  0.00000000000E+00  0.00000000000E+00 -0.19779972963E+03  0.23398660868E+03  0.12500000000E+03 0.  0.
<mgrwt>
<rscale>  0 0.12500000E+03</rscale>
<asrwt>0</asrwt>
<pdfrwt beam="1">  1       21 0.27836061E-02 0.12500000E+03</pdfrwt>
<pdfrwt beam="2">  1       21 0.33214333E-01 0.12500000E+03</pdfrwt>
<totfact> 0.61419466E+06</totfact>
</mgrwt>
</event>
<event>
 3    1  0.1597250E-001  0.1250000E+03  0.7546771E-02  0.1235069E+00
         21   -1    0    0  502  501  0.00000000000E+00  0.00000000000E+00  0.19445968502E+04  0.19445968502E+04  0.00000000000E+00 0.  1.
         21   -1    0    0  501  502 -0.00000000000E+00 -0.00000000000E+00 -0.20087711238E+01  0.20087711238E+01  0.00000000000E+00 0.  1.
         25    1    1    2    0    0  0.00000000000E+00  0.00000000000E+00  0.19425880791E+04  0.19466056213E+04  0.12500000000E+03 0.  0.
<mgrwt>
<rscale>  0 0.12500000E+03</rscale>
<asrwt>0</asrwt>
<pdfrwt beam="1">  1       21 0.29916724E+00 0.12500000E+03</pdfrwt>
<pdfrwt beam="2">  1       21 0.30904327E-03 0.12500000E+03</pdfrwt>
<totfact> 0.84805766E+05</totfact>
</mgrwt>
</event>
<event>
 3    1  0.1597250E-001  0.1250000E+03  0.7546771E-02  0.1235069E+00
         21   -1    0    0  502  501  0.00000000000E+00  0.00000000000E+00  0.75261342125E+02  0.75261342125E+02  0.00000000000E+00 0.  1.
         21   -1    0    0  501  502 -0.00000000000E+00 -0.00000000000E+00 -0.51902475955E+02  0.51902475955E+02  0.00000000000E+00 0.  1.
         25    1    1    2    0    0  0.00000000000E+00  0.00000000000E+00  0.23358866170E+02  0.12716381808E+03  0.12500000000E+03 0.  0.
<mgrwt>
<rscale>  0 0.12500000E+03</rscale>
<asrwt>0</asrwt>
<pdfrwt beam="1">  1       21 0.11578668E-01 0.12500000E+03</pdfrwt>
<pdfrwt beam="2">  1       21 0.79849963E-02 0.12500000E+03</pdfrwt>
<totfact> 0.73746852E+06</totfact>
</mgrwt>
</event>
<event>
 3    1  0.1597250E-001  0.1250000E+03  0.7546771E-02  0.1235069E+00
         21   -1    0    0  502  501  0.00000000000E+00  0.00000000000E+00  0.88255669741E+03  0.88255669741E+03  0.00000000000E+00 0. -1.
         21   -1    0    0  501  502 -0.00000000000E+00 -0.00000000000E+00 -0.44260612508E+01  0.44260612508E+01  0.00000000000E+00 0. -1.
         25    1    1    2    0    0  0.00000000000E+00  0.00000000000E+00  0.87813063616E+03  0.88698275866E+03  0.12500000000E+03 0.  0.
<mgrwt>
<rscale>  0 0.12500000E+03</rscale>
<asrwt>0</asrwt>
<pdfrwt beam="1">  1       21 0.13577781E+00 0.12500000E+03</pdfrwt>
<pdfrwt beam="2">  1       21 0.68093320E-03 0.12500000E+03</pdfrwt>
<totfact> 0.26674140E+06</totfact>
</mgrwt>
</event>
<event>
 3    1  0.1597250E-001  0.1250000E+03  0.7546771E-02  0.1235069E+00
         21   -1    0    0  502  501  0.00000000000E+00  0.00000000000E+00  0.26955787921E+03  0.26955787921E+03  0.00000000000E+00 0.  1.
         21   -1    0    0  501  502 -0.00000000000E+00 -0.00000000000E+00 -0.14491321906E+02  0.14491321906E+02  0.00000000000E+00 0.  1.
         25    1    1    2    0    0  0.00000000000E+00  0.00000000000E+00  0.25506655730E+03  0.28404920111E+03  0.12500000000E+03 0.  0.
<mgrwt>
<rscale>  0 0.12500000E+03</rscale>
<asrwt>0</asrwt>
<pdfrwt beam="1">  1       21 0.41470439E-01 0.12500000E+03</pdfrwt>
<pdfrwt beam="2">  1       21 0.22294343E-02 0.12500000E+03</pdfrwt>
<totfact> 0.56808359E+06</totfact>
</mgrwt>
</event>
<event>
 3    1  0.1597250E-001  0.1250000E+03  0.7546771E-02  0.1235069E+00
         21   -1    0    0  502  501  0.00000000000E+00  0.00000000000E+00  0.10029836548E+03  0.10029836548E+03  0.00000000000E+00 0.  1.
         21   -1    0    0  501  502 -0.00000000000E+00 -0.00000000000E+00 -0.38946297694E+02  0.38946297694E+02  0.00000000000E+00 0.  1.
         25    1    1    2    0    0  0.00000000000E+00  0.00000000000E+00  0.61352067782E+02  0.13924466317E+03  0.12500000000E+03 0.  0.
<mgrwt>
<rscale>  0 0.12500000E+03</rscale>
<asrwt>0</asrwt>
<pdfrwt beam="1">  1       21 0.15430518E-01 0.12500000E+03</pdfrwt>
<pdfrwt beam="2">  1       21 0.59917381E-02 0.12500000E+03</pdfrwt>
<totfact> 0.72138070E+06</totfact>
</mgrwt>
</event>
<event>
 3    1  0.1597250E-001  0.1250000E+03  0.7546771E-02  0.1235069E+00
         21   -1    0    0  502  501  0.00000000000E+00  0.00000000000E+00  0.16130946489E+03  0.16130946489E+03  0.00000000000E+00 0. -1.
         21   -1    0    0  501  502 -0.00000000000E+00 -0.00000000000E+00 -0.24215876004E+02  0.24215876004E+02  0.00000000000E+00 0. -1.
         25    1    1    2    0    0  0.00000000000E+00  0.00000000000E+00  0.13709358888E+03  0.18552534089E+03  0.12500000000E+03 0.  0.
<mgrwt>
<rscale>  0 0.12500000E+03</rscale>
<asrwt>0</asrwt>
<pdfrwt beam="1">  1       21 0.24816840E-01 0.12500000E+03</pdfrwt>
<pdfrwt beam="2">  1       21 0.37255195E-02 0.12500000E+03</pdfrwt>
<totfact> 0.66523270E+06</totfact>
</mgrwt>
</event>
<event>
 3    1  0.1597250E-001  0.1250000E+03  0.7546771E-02  0.1235069E+00
         21   -1    0    0  502  501  0.00000000000E+00  0.00000000000E+00  0.11894940747E+02  0.11894940747E+02  0.00000000000E+00 0. -1.
         21   -1    0    0  501  502 -0.00000000000E+00 -0.00000000000E+00 -0.32839591916E+03  0.32839591916E+03  0.00000000000E+00 0. -1.
         25    1    1    2    0    0  0.00000000000E+00  0.00000000000E+00 -0.31650097842E+03  0.34029085991E+03  0.12500000000E+03 0.  0.
<mgrwt>
<rscale>  0 0.12500000E+03</rscale>
<asrwt>0</asrwt>
<pdfrwt beam="1">  1       21 0.18299908E-02 0.12500000E+03</pdfrwt>
<pdfrwt beam="2">  1       21 0.50522451E-01 0.12500000E+03</pdfrwt>
<totfact> 0.52263570E+06</totfact>
</mgrwt>
</event>
<event>
 3    1  0.1597250E-001  0.1250000E+03  0.7546771E-02  0.1235069E+00
         21   -1    0    0  502  501  0.00000000000E+00  0.00000000000E+00  0.14224510787E+03  0.14224510787E+03  0.00000000000E+00 0. -1.
         21   -1    0    0  501  502 -0.00000000000E+00 -0.00000000000E+00 -0.27461401368E+02  0.27461401368E+02  0.00000000000E+00 0. -1.
         25    1    1    2    0    0  0.00000000000E+00  0.00000000000E+00  0.11478370651E+03  0.16970650924E+03  0.12500000000E+03 0.  0.
<mgrwt>
<rscale>  0 0.12500000E+03</rscale>
<asrwt>0</asrwt>
<pdfrwt beam="1">  1       21 0.21883862E-01 0.12500000E+03</pdfrwt>
<pdfrwt beam="2">  1       21 0.42248311E-02 0.12500000E+03</pdfrwt>
<totfact> 0.68352444E+06</totfact>
</mgrwt>
</event>
<event>
 3    1  0.1597250E-001  0.1250000E+03  0.7546771E-02  0.1235069E+00
         21   -1    0    0  502  501  0.00000000000E+00  0.00000000000E+00  0.21414083706E+03  0.21414083706E+03  0.00000000000E+00 0. -1.
         21   -1    0    0  501  502 -0.00000000000E+00 -0.00000000000E+00 -0.18241499630E+02  0.18241499630E+02  0.00000000000E+00 0. -1.
         25    1    1    2    0    0  0.00000000000E+00  0.00000000000E+00  0.19589933743E+03  0.23238233669E+03  0.12500000000E+03 0.  0.
<mgrwt>
<rscale>  0 0.12500000E+03</rscale>
<asrwt>0</asrwt>
<pdfrwt beam="1">  1       21 0.32944742E-01 0.12500000E+03</pdfrwt>
<pdfrwt beam="2">  1       21 0.28063847E-02 0.12500000E+03</pdfrwt>
<totfact> 0.61577692E+06</totfact>
</mgrwt>
</event>
<event>
 3    1  0.1597250E-001  0.1250000E+03  0.7546771E-02  0.1235069E+00
         21   -1    0    0  502  501  0.00000000000E+00  0.00000000000E+00  0.22024151455E+02  0.22024151455E+02  0.00000000000E+00 0.  1.
         21   -1    0    0  501  502 -0.00000000000E+00 -0.00000000000E+00 -0.17736211122E+03  0.17736211122E+03  0.00000000000E+00 0.  1.
         25    1    1    2    0    0  0.00000000000E+00  0.00000000000E+00 -0.15533795977E+03  0.19938626268E+03  0.12500000000E+03 0.  0.
<mgrwt>
<rscale>  0 0.12500000E+03</rscale>
<asrwt>0</asrwt>
<pdfrwt beam="1">  1       21 0.33883310E-02 0.12500000E+03</pdfrwt>
<pdfrwt beam="2">  1       21 0.27286478E-01 0.12500000E+03</pdfrwt>
<totfact> 0.64993815E+06</totfact>
</mgrwt>
</event>
<event>
 3    1  0.1597250E-001  0.1250000E+03  0.7546771E-02  0.1235069E+00
         21   -1    0    0  502  501  0.00000000000E+00  0.00000000000E+00  0.34291800292E+02  0.34291800292E+02  0.00000000000E+00 0.  1.
         21   -1    0    0  501  502 -0.00000000000E+00 -0.00000000000E+00 -0.11391207130E+03  0.11391207130E+03  0.00000000000E+00 0.  1.
         25    1    1    2    0    0  0.00000000000E+00  0.00000000000E+00 -0.79620271012E+02  0.14820387160E+03  0.12500000000E+03 0.  0.
<mgrwt>
<rscale>  0 0.12500000E+03</rscale>
<asrwt>0</asrwt>
<pdfrwt beam="1">  1       21 0.52756615E-02 0.12500000E+03</pdfrwt>
<pdfrwt beam="2">  1       21 0.17524934E-01 0.12500000E+03</pdfrwt>
<totfact> 0.70985562E+06</totfact>
</mgrwt>
</event>
<event>
 3    1  0.1597250E-001  0.1250000E+03  0.7546771E-02  0.1235069E+00
         21   -1    0    0  502  501  0.00000000000E+00  0.00000000000E+00  0.66469792411E+03  0.66469792411E+03  0.00000000000E+00 0.  1.
         21   -1    0    0  501  502 -0.00000000000E+00 -0.00000000000E+00 -0.58767296517E+01  0.58767296517E+01  0.00000000000E+00 0.  1.
         25    1    1    2    0    0  0.00000000000E+00  0.00000000000E+00  0.65882119445E+03  0.67057465376E+03  0.12500000000E+03 0.  0.
<mgrwt>
<rscale>  0 0.12500000E+03</rscale>
<asrwt>0</asrwt>
<pdfrwt beam="1">  1       21 0.10226116E+00 0.12500000E+03</pdfrwt>
<pdfrwt beam="2">  1       21 0.90411278E-03 0.12500000E+03</pdfrwt>
<totfact> 0.34075746E+06</totfact>
</mgrwt>
</event>
<event>
 3    1  0.1597250E-001  0.1250000E+03  0.7546771E-02  0.1235069E+00
         21   -1    0    0  502  501  0.00000000000E+00  0.00000000000E+00  0.47664743368E+03  0.47664743368E+03  0.00000000000E+00 0.  1.
         21   -1    0    0  501  502 -0.00000000000E+00 -0.00000000000E+00 -0.81952607399E+01  0.81952607399E+01  0.00000000000E+00 0.  1.
         25    1    1    2    0    0  0.00000000000E+00  0.00000000000E+00  0.46845217294E+03  0.48484269442E+03  0.12500000000E+03 0.  0.
<mgrwt>
<rscale>  0 0.12500000E+03</rscale>
<asrwt>0</asrwt>
<pdfrwt beam="1">  1       21 0.73330353E-01 0.12500000E+03</pdfrwt>
<pdfrwt beam="2">  1       21 0.12608097E-02 0.12500000E+03</pdfrwt>
<totfact> 0.42878205E+06</totfact>
</mgrwt>
</event>
<event>
 3    1  0.1597250E-001  0.1250000E+03  0.7546771E-02  0.1235069E+00
         21   -1    0    0  502  501  0.00000000000E+00  0.00000000000E+00  0.67616277457E+02  0.67616277457E+02  0.00000000000E+00 0.  1.
         21   -1    0    0  501  502 -0.00000000000E+00 -0.00000000000E+00 -0.57770852625E+02  0.57770852625E+02  0.00000000000E+00 0.  1.
         25    1    1    2    0    0  0.00000000000E+00  0.00000000000E+00  0.98454248319E+01  0.12538713008E+03  0.12500000000E+03 0.  0.
<mgrwt>
<rscale>  0 0.12500000E+03</rscale>
<asrwt>0</asrwt>
<pdfrwt beam="1">  1       21 0.10402504E-01 0.12500000E+03</pdfrwt>
<pdfrwt beam="2">  1       21 0.88878235E-02 0.12500000E+03</pdfrwt>
<totfact> 0.73991221E+06</totfact>
</mgrwt>
</event>
<event>
 3    1  0.1597250E-001  0.1250000E+03  0.7546771E-02  0.1235069E+00
         21   -1    0    0  502  501  0.00000000000E+00  0.00000000000E+00  0.71049184086E+03  0.71049184086E+03  0.00000000000E+00 0.  1.
         21   -1    0    0  501  502 -0.00000000000E+00 -0.00000000000E+00 -0.54979519473E+01  0.54979519473E+01  0.00000000000E+00 0.  1.
         25    1    1    2    0    0  0.00000000000E+00  0.00000000000E+00  0.70499388891E+03  0.71598979280E+03  0.12500000000E+03 0.  0.
<mgrwt>
<rscale>  0 0.12500000E+03</rscale>
<asrwt>0</asrwt>
<pdfrwt beam="1">  1       21 0.10930636E+00 0.12500000E+03</pdfrwt>
<pdfrwt beam="2">  1       21 0.84583933E-03 0.12500000E+03</pdfrwt>
<totfact> 0.32302745E+06</totfact>
</mgrwt>
</event>
<event>
 3    1  0.1597250E-001  0.1250000E+03  0.7546771E-02  0.1235069E+00
         21   -1    0    0  502  501  0.00000000000E+00  0.00000000000E+00  0.38103747958E+02  0.38103747958E+02  0.00000000000E+00 0.  1.
         21   -1    0    0  501  502 -0.00000000000E+00 -0.00000000000E+00 -0.10251616204E+03  0.10251616204E+03  0.00000000000E+00 0.  1.
         25    1    1    2    0    0  0.00000000000E+00  0.00000000000E+00 -0.64412414083E+02  0.14061991000E+03  0.12500000000E+03 0.  0.
<mgrwt>
<rscale>  0 0.12500000E+03</rscale>
<asrwt>0</asrwt>
<pdfrwt beam="1">  1       21 0.58621152E-02 0.12500000E+03</pdfrwt>
<pdfrwt beam="2">  1       21 0.15771717E-01 0.12500000E+03</pdfrwt>
<totfact> 0.71958484E+06</totfact>
</mgrwt>
</event>
<event>
 3    1  0.1597250E-001  0.1250000E+03  0.7546771E-02  0.1235069E+00
         21   -1    0    0  502  501  0.00000000000E+00  0.00000000000E+00  0.85331085869E+03  0.85331085869E+03  0.00000000000E+00 0. -1.
         21   -1    0    0  501  502 -0.00000000000E+00 -0.00000000000E+00 -0.45777572853E+01  0.45777572853E+01  0.00000000000E+00 0. -1.
         25    1    1    2    0    0  0.00000000000E+00  0.00000000000E+00  0.84873310140E+03  0.85788861597E+03  0.12500000000E+03 0.  0.
<mgrwt>
<rscale>  0 0.12500000E+03</rscale>
<asrwt>0</asrwt>
<pdfrwt beam="1">  1       21 0.13127847E+00 0.12500000E+03</pdfrwt>
<pdfrwt beam="2">  1       21 0.70427103E-03 0.12500000E+03</pdfrwt>
<totfact> 0.27532263E+06</totfact>
</mgrwt>
</event>
<event>
 3    1  0.1597250E-001  0.1250000E+03  0.7546771E-02  0.1235069E+00
         21   -1    0    0  502  501  0.00000000000E+00  0.00000000000E+00  0.39585525003E+02  0.39585525003E+02  0.00000000000E+00 0. -1.
         21   -1    0    0  501  502 -0.00000000000E+00 -0.00000000000E+00 -0.98678746833E+02  0.98678746833E+02  0.00000000000E+00 0. -1.
         25    1    1    2    0    0  0.00000000000E+00  0.00000000000E+00 -0.59093221831E+02  0.13826427184E+03  0.12500000000E+03 0.  0.
<mgrwt>
<rscale>  0 0.12500000E+03</rscale>
<asrwt>0</asrwt>
<pdfrwt beam="1">  1       21 0.60900809E-02 0.12500000E+03</pdfrwt>
<pdfrwt beam="2">  1       21 0.15181345E-01 0.12500000E+03</pdfrwt>
<totfact> 0.72266722E+06</totfact>
</mgrwt>
</event>
<event>
 3    1  0.1597250E-001  0.1250000E+03  0.7546771E-02  0.1235069E+00
         21   -1    0    0  502  501  0.00000000000E+00  0.00000000000E+00  0.13888659943E+03  0.13888659943E+03  0.00000000000E+00 0.  1.
         21   -1    0    0  501  502 -0.00000000000E+00 -0.00000000000E+00 -0.28125463624E+02  0.28125463624E+02  0.00000000000E+00 0.  1.
         25    1    1    2    0    0  0.00000000000E+00  0.00000000000E+00  0.11076113580E+03  0.16701206305E+03  0.12500000000E+03 0.  0.
<mgrwt>
<rscale>  0 0.12500000E+03</rscale>
<asrwt>0</asrwt>
<pdfrwt beam="1">  1       21 0.21367169E-01 0.12500000E+03</pdfrwt>
<pdfrwt beam="2">  1       21 0.43269945E-02 0.12500000E+03</pdfrwt>
<totfact> 0.68672687E+06</totfact>
</mgrwt>
</event>
<event>
 3    1  0.1597250E-001  0.1250000E+03  0.7546771E-02  0.1235069E+00
         21   -1    0    0  502  501  0.00000000000E+00  0.00000000000E+00  0.15959714552E+02  0.15959714552E+02  0.00000000000E+00 0.  1.
         21   -1    0    0  501  502 -0.00000000000E+00 -0.00000000000E+00 -0.24475688380E+03  0.24475688380E+03  0.00000000000E+00 0.  1.
         25    1    1    2    0    0  0.00000000000E+00  0.00000000000E+00 -0.22879716925E+03  0.26071659835E+03  0.12500000000E+03 0.  0.
<mgrwt>
<rscale>  0 0.12500000E+03</rscale>
<asrwt>0</asrwt>
<pdfrwt beam="1">  1       21 0.24553411E-02 0.12500000E+03</pdfrwt>
<pdfrwt beam="2">  1       21 0.37654900E-01 0.12500000E+03</pdfrwt>
<totfact> 0.58883656E+06</totfact>
</mgrwt>
</event>
<event>
 3    1  0.1597250E-001  0.1250000E+03  0.7546771E-02  0.1235069E+00
         21   -1    0    0  502  501  0.00000000000E+00  0.00000000000E+00  0.17180940911E+03  0.17180940911E+03  0.00000000000E+00 0.  1.
         21   -1    0    0  501  502 -0.00000000000E+00 -0.00000000000E+00 -0.22735949214E+02  0.22735949214E+02  0.00000000000E+00 0.  1.
         25    1    1    2    0    0  0.00000000000E+00  0.00000000000E+00  0.14907345989E+03  0.19454535832E+03  0.12500000000E+03 0.  0.
<mgrwt>
<rscale>  0 0.12500000E+03</rscale>
<asrwt>0</asrwt>
<pdfrwt beam="1">  1       21 0.26432216E-01 0.12500000E+03</pdfrwt>
<pdfrwt beam="2">  1       21 0.34978384E-02 0.12500000E+03</pdfrwt>
<totfact> 0.65520816E+06</totfact>
</mgrwt>
</event>
<event>
 3    1  0.1597250E-001  0.1250000E+03  0.7546771E-02  0.1235069E+00
         21   -1    0    0  502  501  0.00000000000E+00  0.00000000000E+00  0.30411341630E+02  0.30411341630E+02  0.00000000000E+00 0.  1.
         21   -1    0    0  501  502 -0.00000000000E+00 -0.00000000000E+00 -0.12844714474E+03  0.12844714474E+03  0.00000000000E+00 0.  1.
         25    1    1    2    0    0  0.00000000000E+00  0.00000000000E+00 -0.98035803106E+02  0.15885848637E+03  0.12500000000E+03 0.  0.
<mgrwt>
<rscale>  0 0.12500000E+03</rscale>
<asrwt>0</asrwt>
<pdfrwt beam="1">  1       21 0.46786679E-02 0.12500000E+03</pdfrwt>
<pdfrwt beam="2">  1       21 0.19761099E-01 0.12500000E+03</pdfrwt>
<totfact> 0.69659246E+06</totfact>
</mgrwt>
</event>
<event>
 3    1  0.1597250E-001  0.1250000E+03  0.7546771E-02  0.1235069E+00
         21   -1    0    0  502  501  0.00000000000E+00  0.00000000000E+00  0.22474397610E+02  0.22474397610E+02  0.00000000000E+00 0. -1.
         21   -1    0    0  501  502 -0.00000000000E+00 -0.00000000000E+00 -0.17380888546E+03  0.17380888546E+03  0.00000000000E+00 0. -1.
         25    1    1    2    0    0  0.00000000000E+00  0.00000000000E+00 -0.15133448785E+03  0.19628328307E+03  0.12500000000E+03 0.  0.
<mgrwt>
<rscale>  0 0.12500000E+03</rscale>
<asrwt>0</asrwt>
<pdfrwt beam="1">  1       21 0.34575995E-02 0.12500000E+03</pdfrwt>
<pdfrwt beam="2">  1       21 0.26739829E-01 0.12500000E+03</pdfrwt>
<totfact> 0.65330844E+06</totfact>
</mgrwt>
</event>
<event>
 3    1  0.1597250E-001  0.1250000E+03  0.7546771E-02  0.1235069E+00
         21   -1    0    0  502  501  0.00000000000E+00  0.00000000000E+00  0.49052121386E+02  0.49052121386E+02  0.00000000000E+00 0. -1.
         21   -1    0    0  501  502 -0.00000000000E+00 -0.00000000000E+00 -0.79634680207E+02  0.79634680207E+02  0.00000000000E+00 0. -1.
         25    1    1    2    0    0  0.00000000000E+00  0.00000000000E+00 -0.30582558821E+02  0.12868680159E+03  0.12500000000E+03 0.  0.
<mgrwt>
<rscale>  0 0.12500000E+03</rscale>
<asrwt>0</asrwt>
<pdfrwt beam="1">  1       21 0.75464803E-02 0.12500000E+03</pdfrwt>
<pdfrwt beam="2">  1       21 0.12251489E-01 0.12500000E+03</pdfrwt>
<totfact> 0.73540979E+06</totfact>
</mgrwt>
</event>
<event>
 3    1  0.1597250E-001  0.1250000E+03  0.7546771E-02  0.1235069E+00
         21   -1    0    0  502  501  0.00000000000E+00  0.00000000000E+00  0.10548075586E+02  0.10548075586E+02  0.00000000000E+00 0.  1.
         21   -1    0    0  501  502 -0.00000000000E+00 -0.00000000000E+00 -0.37032821469E+03  0.37032821469E+03  0.00000000000E+00 0.  1.
         25    1    1    2    0    0  0.00000000000E+00  0.00000000000E+00 -0.35978013910E+03  0.38087629028E+03  0.12500000000E+03 0.  0.
<mgrwt>
<rscale>  0 0.12500000E+03</rscale>
<asrwt>0</asrwt>
<pdfrwt beam="1">  1       21 0.16227812E-02 0.12500000E+03</pdfrwt>
<pdfrwt beam="2">  1       21 0.56973560E-01 0.12500000E+03</pdfrwt>
<totfact> 0.49335896E+06</totfact>
</mgrwt>
</event>
<event>
 3    1  0.1597250E-001  0.1250000E+03  0.7546771E-02  0.1235069E+00
         21   -1    0    0  502  501  0.00000000000E+00  0.00000000000E+00  0.41943555211E+02  0.41943555211E+02  0.00000000000E+00 0. -1.
         21   -1    0    0  501  502 -0.00000000000E+00 -0.00000000000E+00 -0.93131113478E+02  0.93131113478E+02  0.00000000000E+00 0. -1.
         25    1    1    2    0    0  0.00000000000E+00  0.00000000000E+00 -0.51187558268E+02  0.13507466869E+03  0.12500000000E+03 0.  0.
<mgrwt>
<rscale>  0 0.12500000E+03</rscale>
<asrwt>0</asrwt>
<pdfrwt beam="1">  1       21 0.64528548E-02 0.12500000E+03</pdfrwt>
<pdfrwt beam="2">  1       21 0.14327863E-01 0.12500000E+03</pdfrwt>
<totfact> 0.72686587E+06</totfact>
</mgrwt>
</event>
<event>
 3    1  0.1597250E-001  0.1250000E+03  0.7546771E-02  0.1235069E+00
         21   -1    0    0  502  501  0.00000000000E+00  0.00000000000E+00  0.82628498933E+02  0.82628498933E+02  0.00000000000E+00 0.  1.
         21   -1    0    0  501  502 -0.00000000000E+00 -0.00000000000E+00 -0.47274851297E+02  0.47274851297E+02  0.00000000000E+00 0.  1.
         25    1    1    2    0    0  0.00000000000E+00  0.00000000000E+00  0.35353647636E+02  0.12990335023E+03  0.12500000000E+03 0.  0.
<mgrwt>
<rscale>  0 0.12500000E+03</rscale>
<asrwt>0</asrwt>
<pdfrwt beam="1">  1       21 0.12712077E-01 0.12500000E+03</pdfrwt>
<pdfrwt beam="2">  1       21 0.72730540E-02 0.12500000E+03</pdfrwt>
<totfact> 0.73377835E+06</totfact>
</mgrwt>
</event>
<event>
 3    1  0.1597250E-001  0.1250000E+03  0.7546771E-02  0.1235069E+00
         21   -1    0    0  502  501  0.00000000000E+00  0.00000000000E+00  0.26763423663E+02  0.26763423663E+02  0.00000000000E+00 0.  1.
         21   -1    0    0  501  502 -0.00000000000E+00 -0.00000000000E+00 -0.14595479447E+03  0.14595479447E+03  0.00000000000E+00 0.  1.
         25    1    1    2    0    0  0.00000000000E+00  0.00000000000E+00 -0.11919137081E+03  0.17271821813E+03  0.12500000000E+03 0.  0.
<mgrwt>
<rscale>  0 0.12500000E+03</rscale>
<asrwt>0</asrwt>
<pdfrwt beam="1">  1       21 0.41174497E-02 0.12500000E+03</pdfrwt>
<pdfrwt beam="2">  1       21 0.22454584E-01 0.12500000E+03</pdfrwt>
<totfact> 0.67996858E+06</totfact>
</mgrwt>
</event>
<event>
 3    1  0.1597250E-001  0.1250000E+03  0.7546771E-02  0.1235069E+00
         21   -1    0    0  502  501  0.00000000000E+00  0.00000000000E+00  0.24074791076E+03  0.24074791076E+03  0.00000000000E+00 0. -1.
         21   -1    0    0  501  502 -0.00000000000E+00 -0.00000000000E+00 -0.16225478292E+02  0.16225478292E+02  0.00000000000E+00 0. -1.
         25    1    1    2    0    0  0.00000000000E+00  0.00000000000E+00  0.22452243247E+03  0.25697338905E+03  0.12500000000E+03 0.  0.
<mgrwt>
<rscale>  0 0.12500000E+03</rscale>
<asrwt>0</asrwt>
<pdfrwt beam="1">  1       21 0.37038137E-01 0.12500000E+03</pdfrwt>
<pdfrwt beam="2">  1       21 0.24962276E-02 0.12500000E+03</pdfrwt>
<totfact> 0.59227798E+06</totfact>
</mgrwt>
</event>
<event>
 3    1  0.1597250E-001  0.1250000E+03  0.7546771E-02  0.1235069E+00
         21   -1    0    0  502  501  0.00000000000E+00  0.00000000000E+00  0.35952771844E+03  0.35952771844E+03  0.00000000000E+00 0. -1.
         21   -1    0    0  501  502 -0.00000000000E+00 -0.00000000000E+00 -0.10864948096E+02  0.10864948096E+02  0.00000000000E+00 0. -1.
         25    1    1    2    0    0  0.00000000000E+00  0.00000000000E+00  0.34866277034E+03  0.37039266654E+03  0.12500000000E+03 0.  0.
<mgrwt>
<rscale>  0 0.12500000E+03</rscale>
<asrwt>0</asrwt>
<pdfrwt beam="1">  1       21 0.55311948E-01 0.12500000E+03</pdfrwt>
<pdfrwt beam="2">  1       21 0.16715308E-02 0.12500000E+03</pdfrwt>
<totfact> 0.50066748E+06</totfact>
</mgrwt>
</event>
<event>
 3    1  0.1597250E-001  0.1250000E+03  0.7546771E-02  0.1235069E+00
         21   -1    0    0  502  501  0.00000000000E+00  0.00000000000E+00  0.60546500771E+02  0.60546500771E+02  0.00000000000E+00 0.  1.
         21   -1    0    0  501  502 -0.00000000000E+00 -0.00000000000E+00 -0.64516527797E+02  0.64516527797E+02  0.00000000000E+00 0.  1.
         25    1    1    2    0    0  0.00000000000E+00  0.00000000000E+00 -0.39700270270E+01  0.12506302857E+03  0.12500000000E+03 0.  0.
<mgrwt>
<rscale>  0 0.12500000E+03</rscale>
<asrwt>0</asrwt>
<pdfrwt beam="1">  1       21 0.93148463E-02 0.12500000E+03</pdfrwt>
<pdfrwt beam="2">  1       21 0.99256197E-02 0.12500000E+03</pdfrwt>
<totfact> 0.74035068E+06</totfact>
</mgrwt>
</event>
<event>
 3    1  0.1597250E-001  0.1250000E+03  0.7546771E-02  0.1235069E+00
         21   -1    0    0  502  501  0.00000000000E+00  0.00000000000E+00  0.12166125656E+03  0.12166125656E+03  0.00000000000E+00 0.  1.
         21   -1    0    0  501  502 -0.00000000000E+00 -0.00000000000E+00 -0.32107592100E+02  0.32107592100E+02  0.00000000000E+00 0.  1.
         25    1    1    2    0    0  0.00000000000E+00  0.00000000000E+00  0.89553664460E+02  0.15376884866E+03  0.12500000000E+03 0.  0.
<mgrwt>
<rscale>  0 0.12500000E+03</rscale>
<asrwt>0</asrwt>
<pdfrwt beam="1">  1       21 0.18717116E-01 0.12500000E+03</pdfrwt>
<pdfrwt beam="2">  1       21 0.49396296E-02 0.12500000E+03</pdfrwt>
<totfact> 0.70288913E+06</totfact>
</mgrwt>
</event>
<event>
 3    1  0.1597250E-001  0.1250000E+03  0.7546771E-02  0.1235069E+00
         21   -1    0    0  502  501  0.00000000000E+00  0.00000000000E+00  0.45198660584E+02  0.45198660584E+02  0.00000000000E+00 0. -1.
         21   -1    0    0  501  502 -0.00000000000E+00 -0.00000000000E+00 -0.86424021188E+02  0.86424021188E+02  0.00000000000E+00 0. -1.
         25    1    1    2    0    0  0.00000000000E+00  0.00000000000E+00 -0.41225360604E+02  0.13162268177E+03  0.12500000000E+03 0.  0.
<mgrwt>
<rscale>  0 0.12500000E+03</rscale>
<asrwt>0</asrwt>
<pdfrwt beam="1">  1       21 0.69536402E-02 0.12500000E+03</pdfrwt>
<pdfrwt beam="2">  1       21 0.13296003E-01 0.12500000E+03</pdfrwt>
<totfact> 0.73146883E+06</totfact>
</mgrwt>
</event>
<event>
 3    1  0.1597250E-001  0.1250000E+03  0.7546771E-02  0.1235069E+00
         21   -1    0    0  502  501  0.00000000000E+00  0.00000000000E+00  0.28274291185E+02  0.28274291185E+02  0.00000000000E+00 0.  1.
         21   -1    0    0  501  502 -0.00000000000E+00 -0.00000000000E+00 -0.13815554118E+03  0.13815554118E+03  0.00000000000E+00 0.  1.
         25    1    1    2    0    0  0.00000000000E+00  0.00000000000E+00 -0.10988124999E+03  0.16642983236E+03  0.12500000000E+03 0.  0.
<mgrwt>
<rscale>  0 0.12500000E+03</rscale>
<asrwt>0</asrwt>
<pdfrwt beam="1">  1       21 0.43498911E-02 0.12500000E+03</pdfrwt>
<pdfrwt beam="2">  1       21 0.21254698E-01 0.12500000E+03</pdfrwt>
<totfact> 0.68742250E+06</totfact>
</mgrwt>
</event>
<event>
 3    1  0.1597250E-001  0.1250000E+03  0.7546771E-02  0.1235069E+00
         21   -1    0    0  502  501  0.00000000000E+00  0.00000000000E+00  0.39374641042E+02  0.39374641042E+02  0.00000000000E+00 0. -1.
         21   -1    0    0  501  502 -0.00000000000E+00 -0.00000000000E+00 -0.99207253619E+02  0.99207253619E+02  0.00000000000E+00 0. -1.
         25    1    1    2    0    0  0.00000000000E+00  0.00000000000E+00 -0.59832612577E+02  0.13858189466E+03  0.12500000000E+03 0.  0.
<mgrwt>
<rscale>  0 0.12500000E+03</rscale>
<asrwt>0</asrwt>
<pdfrwt beam="1">  1       21 0.60576372E-02 0.12500000E+03</pdfrwt>
<pdfrwt beam="2">  1       21 0.15262654E-01 0.12500000E+03</pdfrwt>
<totfact> 0.72224984E+06</totfact>
</mgrwt>
</event>
<event>
 3    1  0.1597250E-001  0.1250000E+03  0.7546771E-02  0.1235069E+00
         21   -1    0    0  502  501  0.00000000000E+00  0.00000000000E+00  0.48313910849E+01  0.48313910849E+01  0.00000000000E+00 0. -1.
         21   -1    0    0  501  502 -0.00000000000E+00 -0.00000000000E+00 -0.80851455229E+03  0.80851455229E+03  0.00000000000E+00 0. -1.
         25    1    1    2    0    0  0.00000000000E+00  0.00000000000E+00 -0.80368316121E+03  0.81334594338E+03  0.12500000000E+03 0.  0.
<mgrwt>
<rscale>  0 0.12500000E+03</rscale>
<asrwt>0</asrwt>
<pdfrwt beam="1">  1       21 0.74329117E-03 0.12500000E+03</pdfrwt>
<pdfrwt beam="2">  1       21 0.12438682E+00 0.12500000E+03</pdfrwt>
<totfact> 0.28925385E+06</totfact>
</mgrwt>
</event>
<event>
 3    1  0.1597250E-001  0.1250000E+03  0.7546771E-02  0.1235069E+00
         21   -1    0    0  502  501  0.00000000000E+00  0.00000000000E+00  0.14660210058E+02  0.14660210058E+02  0.00000000000E+00 0. -1.
         21   -1    0    0  501  502 -0.00000000000E+00 -0.00000000000E+00 -0.26645252588E+03  0.26645252588E+03  0.00000000000E+00 0. -1.
         25    1    1    2    0    0  0.00000000000E+00  0.00000000000E+00 -0.25179231583E+03  0.28111273594E+03  0.12500000000E+03 0.  0.
<mgrwt>
<rscale>  0 0.12500000E+03</rscale>
<asrwt>0</asrwt>
<pdfrwt beam="1">  1       21 0.22554172E-02 0.12500000E+03</pdfrwt>
<pdfrwt beam="2">  1       21 0.40992692E-01 0.12500000E+03</pdfrwt>
<totfact> 0.57063238E+06</totfact>
</mgrwt>
</event>
<event>
 3    1  0.1597250E-001  0.1250000E+03  0.7546771E-02  0.1235069E+00
         21   -1    0    0  502  501  0.00000000000E+00  0.00000000000E+00  0.52437018560E+02  0.52437018560E+02  0.00000000000E+00 0.  1.
         21   -1    0    0  501  502 -0.00000000000E+00 -0.00000000000E+00 -0.74494128524E+02  0.74494128524E+02  0.00000000000E+00 0.  1.
         25    1    1    2    0    0  0.00000000000E+00  0.00000000000E+00 -0.22057109964E+02  0.12693114708E+03  0.12500000000E+03 0.  0.
<mgrwt>
<rscale>  0 0.12500000E+03</rscale>
<asrwt>0</asrwt>
<pdfrwt beam="1">  1       21 0.80672336E-02 0.12500000E+03</pdfrwt>
<pdfrwt beam="2">  1       21 0.11460635E-01 0.12500000E+03</pdfrwt>
<totfact> 0.73778512E+06</totfact>
</mgrwt>
</event>
<event>
 3    1  0.1597250E-001  0.1250000E+03  0.7546771E-02  0.1235069E+00
         21   -1    0    0  502  501  0.00000000000E+00  0.00000000000E+00  0.16084587393E+03  0.16084587393E+03  0.00000000000E+00 0. -1.
         21   -1    0    0  501  502 -0.00000000000E+00 -0.00000000000E+00 -0.24285671150E+02  0.24285671150E+02  0.00000000000E+00 0. -1.
         25    1    1    2    0    0  0.00000000000E+00  0.00000000000E+00  0.13656020278E+03  0.18513154508E+03  0.12500000000E+03 0.  0.
<mgrwt>
<rscale>  0 0.12500000E+03</rscale>
<asrwt>0</asrwt>
<pdfrwt beam="1">  1       21 0.24745518E-01 0.12500000E+03</pdfrwt>
<pdfrwt beam="2">  1       21 0.37362572E-02 0.12500000E+03</pdfrwt>
<totfact> 0.66567682E+06</totfact>
</mgrwt>
</event>
<event>
 3    1  0.1597250E-001  0.1250000E+03  0.7546771E-02  0.1235069E+00
         21   -1    0    0  502  501  0.00000000000E+00  0.00000000000E+00  0.86236511553E+02  0.86236511553E+02  0.00000000000E+00 0. -1.
         21   -1    0    0  501  502 -0.00000000000E+00 -0.00000000000E+00 -0.45296938961E+02  0.45296938961E+02  0.00000000000E+00 0. -1.
         25    1    1    2    0    0  0.00000000000E+00  0.00000000000E+00  0.40939572592E+02  0.13153345051E+03  0.12500000000E+03 0.  0.
<mgrwt>
<rscale>  0 0.12500000E+03</rscale>
<asrwt>0</asrwt>
<pdfrwt beam="1">  1       21 0.13267156E-01 0.12500000E+03</pdfrwt>
<pdfrwt beam="2">  1       21 0.69687599E-02 0.12500000E+03</pdfrwt>
<totfact> 0.73158875E+06</totfact>
</mgrwt>
</event>
<event>
 3    1  0.1597250E-001  0.1250000E+03  0.7546771E-02  0.1235069E+00
         21   -1    0    0  502  501  0.00000000000E+00  0.00000000000E+00  0.89569339957E+03  0.89569339957E+03  0.00000000000E+00 0.  1.
         21   -1    0    0  501  502 -0.00000000000E+00 -0.00000000000E+00 -0.43611463497E+01  0.43611463497E+01  0.00000000000E+00 0.  1.
         25    1    1    2    0    0  0.00000000000E+00  0.00000000000E+00  0.89133225322E+03  0.90005454592E+03  0.12500000000E+03 0.  0.
<mgrwt>
<rscale>  0 0.12500000E+03</rscale>
<asrwt>0</asrwt>
<pdfrwt beam="1">  1       21 0.13779884E+00 0.12500000E+03</pdfrwt>
<pdfrwt beam="2">  1       21 0.67094630E-03 0.12500000E+03</pdfrwt>
<totfact> 0.26297570E+06</totfact>
</mgrwt>
</event>
<event>
 3    1  0.1597250E-001  0.1250000E+03  0.7546771E-02  0.1235069E+00
         21   -1    0    0  502  501  0.00000000000E+00  0.00000000000E+00  0.14765212952E+03  0.14765212952E+03  0.00000000000E+00 0. -1.
         21   -1    0    0  501  502 -0.00000000000E+00 -0.00000000000E+00 -0.26455764727E+02  0.26455764727E+02  0.00000000000E+00 0. -1.
         25    1    1    2    0    0  0.00000000000E+00  0.00000000000E+00  0.12119636479E+03  0.17410789425E+03  0.12500000000E+03 0.  0.
<mgrwt>
<rscale>  0 0.12500000E+03</rscale>
<asrwt>0</asrwt>
<pdfrwt beam="1">  1       21 0.22715712E-01 0.12500000E+03</pdfrwt>
<pdfrwt beam="2">  1       21 0.40701178E-02 0.12500000E+03</pdfrwt>
<totfact> 0.67833974E+06</totfact>
</mgrwt>
</event>
<event>
 3    1  0.1597250E-001  0.1250000E+03  0.7546771E-02  0.1235069E+00
         21   -1    0    0  502  501  0.00000000000E+00  0.00000000000E+00  0.40593746384E+02  0.40593746384E+02  0.00000000000E+00 0. -1.
         21   -1    0    0  501  502 -0.00000000000E+00 -0.00000000000E+00 -0.96227876163E+02  0.96227876163E+02  0.00000000000E+00 0. -1.
         25    1    1    2    0    0  0.00000000000E+00  0.00000000000E+00 -0.55634129779E+02  0.13682162255E+03  0.12500000000E+03 0.  0.
<mgrwt>
<rscale>  0 0.12500000E+03</rscale>
<asrwt>0</asrwt>
<pdfrwt beam="1">  1       21 0.62451917E-02 0.12500000E+03</pdfrwt>
<pdfrwt beam="2">  1       21 0.14804289E-01 0.12500000E+03</pdfrwt>
<totfact> 0.72456165E+06</totfact>
</mgrwt>
</event>
<event>
 3    1  0.1597250E-001  0.1250000E+03  0.7546771E-02  0.1235069E+00
         21   -1    0    0  502  501  0.00000000000E+00  0.00000000000E+00  0.15942859711E+02  0.15942859711E+02  0.00000000000E+00 0.  1.
         21   -1    0    0  501  502 -0.00000000000E+00 -0.00000000000E+00 -0.24501564153E+03  0.24501564153E+03  0.00000000000E+00 0.  1.
         25    1    1    2    0    0  0.00000000000E+00  0.00000000000E+00 -0.22907278182E+03  0.26095850125E+03  0.12500000000E+03 0.  0.
<mgrwt>
<rscale>  0 0.12500000E+03</rscale>
<asrwt>0</asrwt>
<pdfrwt beam="1">  1       21 0.24527475E-02 0.12500000E+03</pdfrwt>
<pdfrwt beam="2">  1       21 0.37694716E-01 0.12500000E+03</pdfrwt>
<totfact> 0.58861529E+06</totfact>
</mgrwt>
</event>
<event>
 3    1  0.1597250E-001  0.1250000E+03  0.7546771E-02  0.1235069E+00
         21   -1    0    0  502  501  0.00000000000E+00  0.00000000000E+00  0.19755987881E+03  0.19755987881E+03  0.00000000000E+00 0.  1.
         21   -1    0    0  501  502 -0.00000000000E+00 -0.00000000000E+00 -0.19772486314E+02  0.19772486314E+02  0.00000000000E+00 0.  1.
         25    1    1    2    0    0  0.00000000000E+00  0.00000000000E+00  0.17778739249E+03  0.21733236512E+03  0.12500000000E+03 0.  0.
<mgrwt>
<rscale>  0 0.12500000E+03</rscale>
<asrwt>0</asrwt>
<pdfrwt beam="1">  1       21 0.30393826E-01 0.12500000E+03</pdfrwt>
<pdfrwt beam="2">  1       21 0.30419211E-02 0.12500000E+03</pdfrwt>
<totfact> 0.63096249E+06</totfact>
</mgrwt>
</event>
<event>
 3    1  0.1597250E-001  0.1250000E+03  0.7546771E-02  0.1235069E+00
         21   -1    0    0  502  501  0.00000000000E+00  0.00000000000E+00  0.17583402462E+03  0.17583402462E+03  0.00000000000E+00 0.  1.
         21   -1    0    0  501  502 -0.00000000000E+00 -0.00000000000E+00 -0.22215552470E+02  0.22215552470E+02  0.00000000000E+00 0.  1.
         25    1    1    2    0    0  0.00000000000E+00  0.00000000000E+00  0.15361847215E+03  0.19804957709E+03  0.12500000000E+03 0.  0.
<mgrwt>
<rscale>  0 0.12500000E+03</rscale>
<asrwt>0</asrwt>
<pdfrwt beam="1">  1       21 0.27051388E-01 0.12500000E+03</pdfrwt>
<pdfrwt beam="2">  1       21 0.34177774E-02 0.12500000E+03</pdfrwt>
<totfact> 0.65138792E+06</totfact>
</mgrwt>
</event>
<event>
 3    1  0.1597250E-001  0.1250000E+03  0.7546771E-02  0.1235069E+00
         21   -1    0    0  502  501  0.00000000000E+00  0.00000000000E+00  0.12980741133E+02  0.12980741133E+02  0.00000000000E+00 0.  1.
         21   -1    0    0  501  502 -0.00000000000E+00 -0.00000000000E+00 -0.30092657730E+03  0.30092657730E+03  0.00000000000E+00 0.  1.
         25    1    1    2    0    0  0.00000000000E+00  0.00000000000E+00 -0.28794583616E+03  0.31390731843E+03  0.12500000000E+03 0.  0.
<mgrwt>
<rscale>  0 0.12500000E+03</rscale>
<asrwt>0</asrwt>
<pdfrwt beam="1">  1       21 0.19970372E-02 0.12500000E+03</pdfrwt>
<pdfrwt beam="2">  1       21 0.46296394E-01 0.12500000E+03</pdfrwt>
<totfact> 0.54319717E+06</totfact>
</mgrwt>
</event>
<event>
 3    1  0.1597250E-001  0.1250000E+03  0.7546771E-02  0.1235069E+00
         21   -1    0    0  502  501  0.00000000000E+00  0.00000000000E+00  0.57260595865E+02  0.57260595865E+02  0.00000000000E+00 0.  1.
         21   -1    0    0  501  502 -0.00000000000E+00 -0.00000000000E+00 -0.68218815068E+02  0.68218815068E+02  0.00000000000E+00 0.  1.
         25    1    1    2    0    0  0.00000000000E+00  0.00000000000E+00 -0.10958219204E+02  0.12547941093E+03  0.12500000000E+03 0.  0.
<mgrwt>
<rscale>  0 0.12500000E+03</rscale>
<asrwt>0</asrwt>
<pdfrwt beam="1">  1       21 0.88093225E-02 0.12500000E+03</pdfrwt>
<pdfrwt beam="2">  1       21 0.10495202E-01 0.12500000E+03</pdfrwt>
<totfact> 0.73978277E+06</totfact>
</mgrwt>
</event>
<event>
 3    1  0.1597250E-001  0.1250000E+03  0.7546771E-02  0.1235069E+00
         21   -1    0    0  502  501  0.00000000000E+00  0.00000000000E+00  0.63035127926E+02  0.63035127926E+02  0.00000000000E+00 0. -1.
         21   -1    0    0  501  502 -0.00000000000E+00 -0.00000000000E+00 -0.61969414968E+02  0.61969414968E+02  0.00000000000E+00 0. -1.
         25    1    1    2    0    0  0.00000000000E+00  0.00000000000E+00  0.10657129580E+01  0.12500454289E+03  0.12500000000E+03 0.  0.
<mgrwt>
<rscale>  0 0.12500000E+03</rscale>
<asrwt>0</asrwt>
<pdfrwt beam="1">  1       21 0.96977120E-02 0.12500000E+03</pdfrwt>
<pdfrwt beam="2">  1       21 0.95337561E-02 0.12500000E+03</pdfrwt>
<totfact> 0.74042968E+06</totfact>
</mgrwt>
</event>
<event>
 3    1  0.1597250E-001  0.1250000E+03  0.7546771E-02  0.1235069E+00
         21   -1    0    0  502  501  0.00000000000E+00  0.00000000000E+00  0.53776986681E+03  0.53776986681E+03  0.00000000000E+00 0. -1.
         21   -1    0    0  501  502 -0.00000000000E+00 -0.00000000000E+00 -0.72637948704E+01  0.72637948704E+01  0.00000000000E+00 0. -1.
         25    1    1    2    0    0  0.00000000000E+00  0.00000000000E+00  0.53050607194E+03  0.54503366168E+03  0.12500000000E+03 0.  0.
<mgrwt>
<rscale>  0 0.12500000E+03</rscale>
<asrwt>0</asrwt>
<pdfrwt beam="1">  1       21 0.82733794E-01 0.12500000E+03</pdfrwt>
<pdfrwt beam="2">  1       21 0.11175073E-02 0.12500000E+03</pdfrwt>
<totfact> 0.39702578E+06</totfact>
</mgrwt>
</event>
<event>
 3    1  0.1597250E-001  0.1250000E+03  0.7546771E-02  0.1235069E+00
         21   -1    0    0  502  501  0.00000000000E+00  0.00000000000E+00  0.15757967548E+02  0.15757967548E+02  0.00000000000E+00 0. -1.
         21   -1    0    0  501  502 -0.00000000000E+00 -0.00000000000E+00 -0.24789047116E+03  0.24789047116E+03  0.00000000000E+00 0. -1.
         25    1    1    2    0    0  0.00000000000E+00  0.00000000000E+00 -0.23213250362E+03  0.26364843871E+03  0.12500000000E+03 0.  0.
<mgrwt>
<rscale>  0 0.12500000E+03</rscale>
<asrwt>0</asrwt>
<pdfrwt beam="1">  1       21 0.24243028E-02 0.12500000E+03</pdfrwt>
<pdfrwt beam="2">  1       21 0.38136994E-01 0.12500000E+03</pdfrwt>
<totfact> 0.58616479E+06</totfact>
</mgrwt>
</event>
<event>
 3    1  0.1597250E-001  0.1250000E+03  0.7546771E-02  0.1235069E+00
         21   -1    0    0  502  501  0.00000000000E+00  0.00000000000E+00  0.10483165498E+04  0.10483165498E+04  0.00000000000E+00 0. -1.
         21   -1    0    0  501  502 -0.00000000000E+00 -0.00000000000E+00 -0.37262122788E+01  0.37262122788E+01  0.00000000000E+00 0. -1.
         25    1    1    2    0    0  0.00000000000E+00  0.00000000000E+00  0.10445903375E+04  0.10520427621E+04  0.12500000000E+03 0.  0.
<mgrwt>
<rscale>  0 0.12500000E+03</rscale>
<asrwt>0</asrwt>
<pdfrwt beam="1">  1       21 0.16127923E+00 0.12500000E+03</pdfrwt>
<pdfrwt beam="2">  1       21 0.57326426E-03 0.12500000E+03</pdfrwt>
<totfact> 0.22350726E+06</totfact>
</mgrwt>
</event>
<event>
 3    1  0.1597250E-001  0.1250000E+03  0.7546771E-02  0.1235069E+00
         21   -1    0    0  502  501  0.00000000000E+00  0.00000000000E+00  0.10105344973E+02  0.10105344973E+02  0.00000000000E+00 0.  1.
         21   -1    0    0  501  502 -0.00000000000E+00 -0.00000000000E+00 -0.38655285995E+03  0.38655285995E+03  0.00000000000E+00 0.  1.
         25    1    1    2    0    0  0.00000000000E+00  0.00000000000E+00 -0.37644751498E+03  0.39665820492E+03  0.12500000000E+03 0.  0.
<mgrwt>
<rscale>  0 0.12500000E+03</rscale>
<asrwt>0</asrwt>
<pdfrwt beam="1">  1       21 0.15546686E-02 0.12500000E+03</pdfrwt>
<pdfrwt beam="2">  1       21 0.59469664E-01 0.12500000E+03</pdfrwt>
<totfact> 0.48263804E+06</totfact>
</mgrwt>
</event>
<event>
 3    1  0.1597250E-001  0.1250000E+03  0.7546771E-02  0.1235069E+00
         21   -1    0    0  502  501  0.00000000000E+00  0.00000000000E+00  0.15901384225E+02  0.15901384225E+02  0.00000000000E+00 0.  1.
         21   -1    0    0  501  502 -0.00000000000E+00 -0.00000000000E+00 -0.24565471437E+03  0.24565471437E+03  0.00000000000E+00 0.  1.
         25    1    1    2    0    0  0.00000000000E+00  0.00000000000E+00 -0.22975333015E+03  0.26155609860E+03  0.12500000000E+03 0.  0.
<mgrwt>
<rscale>  0 0.12500000E+03</rscale>
<asrwt>0</asrwt>
<pdfrwt beam="1">  1       21 0.24463668E-02 0.12500000E+03</pdfrwt>
<pdfrwt beam="2">  1       21 0.37793032E-01 0.12500000E+03</pdfrwt>
<totfact> 0.58806939E+06</totfact>
</mgrwt>
</event>
<event>
 3    1  0.1597250E-001  0.1250000E+03  0.7546771E-02  0.1235069E+00
         21   -1    0    0  502  501  0.00000000000E+00  0.00000000000E+00  0.12176002459E+03  0.12176002459E+03  0.00000000000E+00 0.  1.
         21   -1    0    0  501  502 -0.00000000000E+00 -0.00000000000E+00 -0.32081547397E+02  0.32081547397E+02  0.00000000000E+00 0.  1.
         25    1    1    2    0    0  0.00000000000E+00  0.00000000000E+00  0.89678477194E+02  0.15384157199E+03  0.12500000000E+03 0.  0.
<mgrwt>
<rscale>  0 0.12500000E+03</rscale>
<asrwt>0</asrwt>
<pdfrwt beam="1">  1       21 0.18732311E-01 0.12500000E+03</pdfrwt>
<pdfrwt beam="2">  1       21 0.49356227E-02 0.12500000E+03</pdfrwt>
<totfact> 0.70279899E+06</totfact>
</mgrwt>
</event>
<event>
 3    1  0.1597250E-001  0.1250000E+03  0.7546771E-02  0.1235069E+00
         21   -1    0    0  502  501  0.00000000000E+00  0.00000000000E+00  0.40900963760E+02  0.40900963760E+02  0.00000000000E+00 0. -1.
         21   -1    0    0  501  502 -0.00000000000E+00 -0.00000000000E+00 -0.95505084498E+02  0.95505084498E+02  0.00000000000E+00 0. -1.
         25    1    1    2    0    0  0.00000000000E+00  0.00000000000E+00 -0.54604120738E+02  0.13640604826E+03  0.12500000000E+03 0.  0.
<mgrwt>
<rscale>  0 0.12500000E+03</rscale>
<asrwt>0</asrwt>
<pdfrwt beam="1">  1       21 0.62924561E-02 0.12500000E+03</pdfrwt>
<pdfrwt beam="2">  1       21 0.14693090E-01 0.12500000E+03</pdfrwt>
<totfact> 0.72510833E+06</totfact>
</mgrwt>
</event>
<event>
 3    1  0.1597250E-001  0.1250000E+03  0.7546771E-02  0.1235069E+00
         21   -1    0    0  502  501  0.00000000000E+00  0.00000000000E+00  0.16392772514E+02  0.16392772514E+02  0.00000000000E+00 0.  1.
         21   -1    0    0  501  502 -0.00000000000E+00 -0.00000000000E+00 -0.23829099054E+03  0.23829099054E+03  0.00000000000E+00 0.  1.
         25    1    1    2    0    0  0.00000000000E+00  0.00000000000E+00 -0.22189821803E+03  0.25468376306E+03  0.12500000000E+03 0.  0.
<mgrwt>
<rscale>  0 0.12500000E+03</rscale>
<asrwt>0</asrwt>
<pdfrwt beam="1">  1       21 0.25219652E-02 0.12500000E+03</pdfrwt>
<pdfrwt beam="2">  1       21 0.36660150E-01 0.12500000E+03</pdfrwt>
<totfact> 0.59440003E+06</totfact>
</mgrwt>
</event>
<event>
 3    1  0.1597250E-001  0.1250000E+03  0.7546771E-02  0.1235069E+00
         21   -1    0    0  502  501  0.00000000000E+00  0.00000000000E+00  0.33912155267E+03  0.33912155267E+03  0.00000000000E+00 0. -1.
         21   -1    0    0  501  502 -0.00000000000E+00 -0.00000000000E+00 -0.11518731172E+02  0.11518731172E+02  0.00000000000E+00 0. -1.
         25    1    1    2    0    0  0.00000000000E+00  0.00000000000E+00  0.32760282150E+03  0.35064028385E+03  0.12500000000E+03 0.  0.
<mgrwt>
<rscale>  0 0.12500000E+03</rscale>
<asrwt>0</asrwt>
<pdfrwt beam="1">  1       21 0.52172539E-01 0.12500000E+03</pdfrwt>
<pdfrwt beam="2">  1       21 0.17721127E-02 0.12500000E+03</pdfrwt>
<totfact> 0.51491183E+06</totfact>
</mgrwt>
</event>
<event>
 3    1  0.1597250E-001  0.1250000E+03  0.7546771E-02  0.1235069E+00
         21   -1    0    0  502  501  0.00000000000E+00  0.00000000000E+00  0.24743437807E+03  0.24743437807E+03  0.00000000000E+00 0. -1.
         21   -1    0    0  501  502 -0.00000000000E+00 -0.00000000000E+00 -0.15787014038E+02  0.15787014038E+02  0.00000000000E+00 0. -1.
         25    1    1    2    0    0  0.00000000000E+00  0.00000000000E+00  0.23164736404E+03  0.26322139211E+03  0.12500000000E+03 0.  0.
<mgrwt>
<rscale>  0 0.12500000E+03</rscale>
<asrwt>0</asrwt>
<pdfrwt beam="1">  1       21 0.38066825E-01 0.12500000E+03</pdfrwt>
<pdfrwt beam="2">  1       21 0.24287716E-02 0.12500000E+03</pdfrwt>
<totfact> 0.58655267E+06</totfact>
</mgrwt>
</event>
<event>
 3    1  0.1597250E-001  0.1250000E+03  0.7546771E-02  0.1235069E+00
         21   -1    0    0  502  501  0.00000000000E+00  0.00000000000E+00  0.34260637661E+03  0.34260637661E+03  0.00000000000E+00 0.  1.
         21   -1    0    0  501  502 -0.00000000000E+00 -0.00000000000E+00 -0.11401568291E+02  0.11401568291E+02  0.00000000000E+00 0.  1.
         25    1    1    2    0    0  0.00000000000E+00  0.00000000000E+00  0.33120480832E+03  0.35400794490E+03  0.12500000000E+03 0.  0.
<mgrwt>
<rscale>  0 0.12500000E+03</rscale>
<asrwt>0</asrwt>
<pdfrwt beam="1">  1       21 0.52708665E-01 0.12500000E+03</pdfrwt>
<pdfrwt beam="2">  1       21 0.17540877E-02 0.12500000E+03</pdfrwt>
<totfact> 0.51243793E+06</totfact>
</mgrwt>
</event>
<event>
 3    1  0.1597250E-001  0.1250000E+03  0.7546771E-02  0.1235069E+00
         21   -1    0    0  502  501  0.00000000000E+00  0.00000000000E+00  0.13569577645E+03  0.13569577645E+03  0.00000000000E+00 0. -1.
         21   -1    0    0  501  502 -0.00000000000E+00 -0.00000000000E+00 -0.28786820801E+02  0.28786820801E+02  0.00000000000E+00 0. -1.
         25    1    1    2    0    0  0.00000000000E+00  0.00000000000E+00  0.10690895564E+03  0.16448259725E+03  0.12500000000E+03 0.  0.
<mgrwt>
<rscale>  0 0.12500000E+03</rscale>
<asrwt>0</asrwt>
<pdfrwt beam="1">  1       21 0.20876273E-01 0.12500000E+03</pdfrwt>
<pdfrwt beam="2">  1       21 0.44287417E-02 0.12500000E+03</pdfrwt>
<totfact> 0.68975877E+06</totfact>
</mgrwt>
</event>
<event>
 3    1  0.1597250E-001  0.1250000E+03  0.7546771E-02  0.1235069E+00
         21   -1    0    0  502  501  0.00000000000E+00  0.00000000000E+00  0.34178052873E+02  0.34178052873E+02  0.00000000000E+00 0. -1.
         21   -1    0    0  501  502 -0.00000000000E+00 -0.00000000000E+00 -0.11429118020E+03  0.11429118020E+03  0.00000000000E+00 0. -1.
         25    1    1    2    0    0  0.00000000000E+00  0.00000000000E+00 -0.80113127331E+02  0.14846923308E+03  0.12500000000E+03 0.  0.
<mgrwt>
<rscale>  0 0.12500000E+03</rscale>
<asrwt>0</asrwt>
<pdfrwt beam="1">  1       21 0.52581619E-02 0.12500000E+03</pdfrwt>
<pdfrwt beam="2">  1       21 0.17583259E-01 0.12500000E+03</pdfrwt>
<totfact> 0.70952026E+06</totfact>
</mgrwt>
</event>
<event>
 3    1  0.1597250E-001  0.1250000E+03  0.7546771E-02  0.1235069E+00
         21   -1    0    0  502  501  0.00000000000E+00  0.00000000000E+00  0.39958309062E+02  0.39958309062E+02  0.00000000000E+00 0.  1.
         21   -1    0    0  501  502 -0.00000000000E+00 -0.00000000000E+00 -0.97758140716E+02  0.97758140716E+02  0.00000000000E+00 0.  1.
         25    1    1    2    0    0  0.00000000000E+00  0.00000000000E+00 -0.57799831654E+02  0.13771644978E+03  0.12500000000E+03 0.  0.
<mgrwt>
<rscale>  0 0.12500000E+03</rscale>
<asrwt>0</asrwt>
<pdfrwt beam="1">  1       21 0.61474322E-02 0.12500000E+03</pdfrwt>
<pdfrwt beam="2">  1       21 0.15039714E-01 0.12500000E+03</pdfrwt>
<totfact> 0.72338753E+06</totfact>
</mgrwt>
</event>
<event>
 3    1  0.1597250E-001  0.1250000E+03  0.7546771E-02  0.1235069E+00
         21   -1    0    0  502  501  0.00000000000E+00  0.00000000000E+00  0.16904101520E+03  0.16904101520E+03  0.00000000000E+00 0.  1.
         21   -1    0    0  501  502 -0.00000000000E+00 -0.00000000000E+00 -0.23108297093E+02  0.23108297093E+02  0.00000000000E+00 0.  1.
         25    1    1    2    0    0  0.00000000000E+00  0.00000000000E+00  0.14593271810E+03  0.19214931229E+03  0.12500000000E+03 0.  0.
<mgrwt>
<rscale>  0 0.12500000E+03</rscale>
<asrwt>0</asrwt>
<pdfrwt beam="1">  1       21 0.26006309E-01 0.12500000E+03</pdfrwt>
<pdfrwt beam="2">  1       21 0.35551227E-02 0.12500000E+03</pdfrwt>
<totfact> 0.65784382E+06</totfact>
</mgrwt>
</event>
<event>
 3    1  0.1597250E-001  0.1250000E+03  0.7546771E-02  0.1235069E+00
         21   -1    0    0  502  501  0.00000000000E+00  0.00000000000E+00  0.60649766640E+01  0.60649766640E+01  0.00000000000E+00 0.  1.
         21   -1    0    0  501  502 -0.00000000000E+00 -0.00000000000E+00 -0.64406678153E+03  0.64406678153E+03  0.00000000000E+00 0.  1.
         25    1    1    2    0    0  0.00000000000E+00  0.00000000000E+00 -0.63800180486E+03  0.65013175819E+03  0.12500000000E+03 0.  0.
<mgrwt>
<rscale>  0 0.12500000E+03</rscale>
<asrwt>0</asrwt>
<pdfrwt beam="1">  1       21 0.93307348E-03 0.12500000E+03</pdfrwt>
<pdfrwt beam="2">  1       21 0.99087181E-01 0.12500000E+03</pdfrwt>
<totfact> 0.34919057E+06</totfact>
</mgrwt>
</event>
<event>
 3    1  0.1597250E-001  0.1250000E+03  0.7546771E-02  0.1235069E+00
         21   -1    0    0  502  501  0.00000000000E+00  0.00000000000E+00  0.12689053409E+02  0.12689053409E+02  0.00000000000E+00 0. -1.
         21   -1    0    0  501  502 -0.00000000000E+00 -0.00000000000E+00 -0.30784408215E+03  0.30784408215E+03  0.00000000000E+00 0. -1.
         25    1    1    2    0    0  0.00000000000E+00  0.00000000000E+00 -0.29515502874E+03  0.32053313556E+03  0.12500000000E+03 0.  0.
<mgrwt>
<rscale>  0 0.12500000E+03</rscale>
<asrwt>0</asrwt>
<pdfrwt beam="1">  1       21 0.19521621E-02 0.12500000E+03</pdfrwt>
<pdfrwt beam="2">  1       21 0.47360628E-01 0.12500000E+03</pdfrwt>
<totfact> 0.53791121E+06</totfact>
</mgrwt>
</event>
<event>
 3    1  0.1597250E-001  0.1250000E+03  0.7546771E-02  0.1235069E+00
         21   -1    0    0  502  501  0.00000000000E+00  0.00000000000E+00  0.32459301120E+02  0.32459301120E+02  0.00000000000E+00 0. -1.
         21   -1    0    0  501  502 -0.00000000000E+00 -0.00000000000E+00 -0.12034301002E+03  0.12034301002E+03  0.00000000000E+00 0. -1.
         25    1    1    2    0    0  0.00000000000E+00  0.00000000000E+00 -0.87883708904E+02  0.15280231114E+03  0.12500000000E+03 0.  0.
<mgrwt>
<rscale>  0 0.12500000E+03</rscale>
<asrwt>0</asrwt>
<pdfrwt beam="1">  1       21 0.49937385E-02 0.12500000E+03</pdfrwt>
<pdfrwt beam="2">  1       21 0.18514310E-01 0.12500000E+03</pdfrwt>
<totfact> 0.70408929E+06</totfact>
</mgrwt>
</event>
<event>
 3    1  0.1597250E-001  0.1250000E+03  0.7546771E-02  0.1235069E+00
         21   -1    0    0  502  501  0.00000000000E+00  0.00000000000E+00  0.89026751144E+01  0.89026751144E+01  0.00000000000E+00 0. -1.
         21   -1    0    0  501  502 -0.00000000000E+00 -0.00000000000E+00 -0.43877261046E+03  0.43877261046E+03  0.00000000000E+00 0. -1.
         25    1    1    2    0    0  0.00000000000E+00  0.00000000000E+00 -0.42986993534E+03  0.44767528557E+03  0.12500000000E+03 0.  0.
<mgrwt>
<rscale>  0 0.12500000E+03</rscale>
<asrwt>0</asrwt>
<pdfrwt beam="1">  1       21 0.13696421E-02 0.12500000E+03</pdfrwt>
<pdfrwt beam="2">  1       21 0.67503491E-01 0.12500000E+03</pdfrwt>
<totfact> 0.45031697E+06</totfact>
</mgrwt>
</event>
<event>
 3    1  0.1597250E-001  0.1250000E+03  0.7546771E-02  0.1235069E+00
         21   -1    0    0  502  501  0.00000000000E+00  0.00000000000E+00  0.43881413990E+01  0.43881413990E+01  0.00000000000E+00 0.  1.
         21   -1    0    0  501  502 -0.00000000000E+00 -0.00000000000E+00 -0.89018325638E+03  0.89018325638E+03  0.00000000000E+00 0.  1.
         25    1    1    2    0    0  0.00000000000E+00  0.00000000000E+00 -0.88579511498E+03  0.89457139778E+03  0.12500000000E+03 0.  0.
<mgrwt>
<rscale>  0 0.12500000E+03</rscale>
<asrwt>0</asrwt>
<pdfrwt beam="1">  1       21 0.67509937E-03 0.12500000E+03</pdfrwt>
<pdfrwt beam="2">  1       21 0.13695113E+00 0.12500000E+03</pdfrwt>
<totfact> 0.26455826E+06</totfact>
</mgrwt>
</event>
<event>
 3    1  0.1597250E-001  0.1250000E+03  0.7546771E-02  0.1235069E+00
         21   -1    0    0  502  501  0.00000000000E+00  0.00000000000E+00  0.33819120547E+03  0.33819120547E+03  0.00000000000E+00 0.  1.
         21   -1    0    0  501  502 -0.00000000000E+00 -0.00000000000E+00 -0.11550418629E+02  0.11550418629E+02  0.00000000000E+00 0.  1.
         25    1    1    2    0    0  0.00000000000E+00  0.00000000000E+00  0.32664078685E+03  0.34974162410E+03  0.12500000000E+03 0.  0.
<mgrwt>
<rscale>  0 0.12500000E+03</rscale>
<asrwt>0</asrwt>
<pdfrwt beam="1">  1       21 0.52029409E-01 0.12500000E+03</pdfrwt>
<pdfrwt beam="2">  1       21 0.17769877E-02 0.12500000E+03</pdfrwt>
<totfact> 0.51557522E+06</totfact>
</mgrwt>
</event>
<event>
 3    1  0.1597250E-001  0.1250000E+03  0.7546771E-02  0.1235069E+00
         21   -1    0    0  502  501  0.00000000000E+00  0.00000000000E+00  0.34012030047E+03  0.34012030047E+03  0.00000000000E+00 0.  1.
         21   -1    0    0  501  502 -0.00000000000E+00 -0.00000000000E+00 -0.11484906942E+02  0.11484906942E+02  0.00000000000E+00 0.  1.
         25    1    1    2    0    0  0.00000000000E+00  0.00000000000E+00  0.32863539352E+03  0.35160520741E+03  0.12500000000E+03 0.  0.
<mgrwt>
<rscale>  0 0.12500000E+03</rscale>
<asrwt>0</asrwt>
<pdfrwt beam="1">  1       21 0.52326192E-01 0.12500000E+03</pdfrwt>
<pdfrwt beam="2">  1       21 0.17669090E-02 0.12500000E+03</pdfrwt>
<totfact> 0.51420104E+06</totfact>
</mgrwt>
</event>
<event>
 3    1  0.1597250E-001  0.1250000E+03  0.7546771E-02  0.1235069E+00
         21   -1    0    0  502  501  0.00000000000E+00  0.00000000000E+00  0.20296830877E+03  0.20296830877E+03  0.00000000000E+00 0.  1.
         21   -1    0    0  501  502 -0.00000000000E+00 -0.00000000000E+00 -0.19245615355E+02  0.19245615355E+02  0.00000000000E+00 0.  1.
         25    1    1    2    0    0  0.00000000000E+00  0.00000000000E+00  0.18372269342E+03  0.22221392413E+03  0.12500000000E+03 0.  0.
<mgrwt>
<rscale>  0 0.12500000E+03</rscale>
<asrwt>0</asrwt>
<pdfrwt beam="1">  1       21 0.31225892E-01 0.12500000E+03</pdfrwt>
<pdfrwt beam="2">  1       21 0.29608640E-02 0.12500000E+03</pdfrwt>
<totfact> 0.62596958E+06</totfact>
</mgrwt>
</event>
<event>
 3    1  0.1597250E-001  0.1250000E+03  0.7546771E-02  0.1235069E+00
         21   -1    0    0  502  501  0.00000000000E+00  0.00000000000E+00  0.49732603352E+02  0.49732603352E+02  0.00000000000E+00 0. -1.
         21   -1    0    0  501  502 -0.00000000000E+00 -0.00000000000E+00 -0.78545053681E+02  0.78545053681E+02  0.00000000000E+00 0. -1.
         25    1    1    2    0    0  0.00000000000E+00  0.00000000000E+00 -0.28812450329E+02  0.12827765703E+03  0.12500000000E+03 0.  0.
<mgrwt>
<rscale>  0 0.12500000E+03</rscale>
<asrwt>0</asrwt>
<pdfrwt beam="1">  1       21 0.76511697E-02 0.12500000E+03</pdfrwt>
<pdfrwt beam="2">  1       21 0.12083854E-01 0.12500000E+03</pdfrwt>
<totfact> 0.73596085E+06</totfact>
</mgrwt>
</event>
<event>
 3    1  0.1597250E-001  0.1250000E+03  0.7546771E-02  0.1235069E+00
         21   -1    0    0  502  501  0.00000000000E+00  0.00000000000E+00  0.37609157008E+03  0.37609157008E+03  0.00000000000E+00 0. -1.
         21   -1    0    0  501  502 -0.00000000000E+00 -0.00000000000E+00 -0.10386433281E+02  0.10386433281E+02  0.00000000000E+00 0. -1.
         25    1    1    2    0    0  0.00000000000E+00  0.00000000000E+00  0.36570513680E+03  0.38647800336E+03  0.12500000000E+03 0.  0.
<mgrwt>
<rscale>  0 0.12500000E+03</rscale>
<asrwt>0</asrwt>
<pdfrwt beam="1">  1       21 0.57860231E-01 0.12500000E+03</pdfrwt>
<pdfrwt beam="2">  1       21 0.15979131E-02 0.12500000E+03</pdfrwt>
<totfact> 0.48951379E+06</totfact>
</mgrwt>
</event>
<event>
 3    1  0.1597250E-001  0.1250000E+03  0.7546771E-02  0.1235069E+00
         21   -1    0    0  502  501  0.00000000000E+00  0.00000000000E+00  0.49381978999E+03  0.49381978999E+03  0.00000000000E+00 0. -1.
         21   -1    0    0  501  502 -0.00000000000E+00 -0.00000000000E+00 -0.79102743130E+01  0.79102743130E+01  0.00000000000E+00 0. -1.
         25    1    1    2    0    0  0.00000000000E+00  0.00000000000E+00  0.48590951568E+03  0.50173006430E+03  0.12500000000E+03 0.  0.
<mgrwt>
<rscale>  0 0.12500000E+03</rscale>
<asrwt>0</asrwt>
<pdfrwt beam="1">  1       21 0.75972251E-01 0.12500000E+03</pdfrwt>
<pdfrwt beam="2">  1       21 0.12169657E-02 0.12500000E+03</pdfrwt>
<totfact> 0.41950409E+06</totfact>
</mgrwt>
</event>
<event>
 3    1  0.1597250E-001  0.1250000E+03  0.7546771E-02  0.1235069E+00
         21   -1    0    0  502  501  0.00000000000E+00  0.00000000000E+00  0.35969583544E+01  0.35969583544E+01  0.00000000000E+00 0.  1.
         21   -1    0    0  501  502 -0.00000000000E+00 -0.00000000000E+00 -0.10859869966E+04  0.10859869966E+04  0.00000000000E+00 0.  1.
         25    1    1    2    0    0  0.00000000000E+00  0.00000000000E+00 -0.10823900382E+04  0.10895839549E+04  0.12500000000E+03 0.  0.
<mgrwt>
<rscale>  0 0.12500000E+03</rscale>
<asrwt>0</asrwt>
<pdfrwt beam="1">  1       21 0.55337847E-03 0.12500000E+03</pdfrwt>
<pdfrwt beam="2">  1       21 0.16707484E+00 0.12500000E+03</pdfrwt>
<totfact> 0.21484564E+06</totfact>
</mgrwt>
</event>
<event>
 3    1  0.1597250E-001  0.1250000E+03  0.7546771E-02  0.1235069E+00
         21   -1    0    0  502  501  0.00000000000E+00  0.00000000000E+00  0.99755571360E+03  0.99755571360E+03  0.00000000000E+00 0. -1.
         21   -1    0    0  501  502 -0.00000000000E+00 -0.00000000000E+00 -0.39158213890E+01  0.39158213890E+01  0.00000000000E+00 0. -1.
         25    1    1    2    0    0  0.00000000000E+00  0.00000000000E+00  0.99363989221E+03  0.10014715350E+04  0.12500000000E+03 0.  0.
<mgrwt>
<rscale>  0 0.12500000E+03</rscale>
<asrwt>0</asrwt>
<pdfrwt beam="1">  1       21 0.15346991E+00 0.12500000E+03</pdfrwt>
<pdfrwt beam="2">  1       21 0.60243485E-03 0.12500000E+03</pdfrwt>
<totfact> 0.23582006E+06</totfact>
</mgrwt>
</event>
<event>
 3    1  0.1597250E-001  0.1250000E+03  0.7546771E-02  0.1235069E+00
         21   -1    0    0  502  501  0.00000000000E+00  0.00000000000E+00  0.64833077215E+02  0.64833077215E+02  0.00000000000E+00 0. -1.
         21   -1    0    0  501  502 -0.00000000000E+00 -0.00000000000E+00 -0.60250880689E+02  0.60250880689E+02  0.00000000000E+00 0. -1.
         25    1    1    2    0    0  0.00000000000E+00  0.00000000000E+00  0.45821965257E+01  0.12508395790E+03  0.12500000000E+03 0.  0.
<mgrwt>
<rscale>  0 0.12500000E+03</rscale>
<asrwt>0</asrwt>
<pdfrwt beam="1">  1       21 0.99743196E-02 0.12500000E+03</pdfrwt>
<pdfrwt beam="2">  1       21 0.92693663E-02 0.12500000E+03</pdfrwt>
<totfact> 0.74032242E+06</totfact>
</mgrwt>
</event>
<event>
 3    1  0.1597250E-001  0.1250000E+03  0.7546771E-02  0.1235069E+00
         21   -1    0    0  502  501  0.00000000000E+00  0.00000000000E+00  0.17880876333E+02  0.17880876333E+02  0.00000000000E+00 0. -1.
         21   -1    0    0  501  502 -0.00000000000E+00 -0.00000000000E+00 -0.21845965081E+03  0.21845965081E+03  0.00000000000E+00 0. -1.
         25    1    1    2    0    0  0.00000000000E+00  0.00000000000E+00 -0.20057877448E+03  0.23634052715E+03  0.12500000000E+03 0.  0.
<mgrwt>
<rscale>  0 0.12500000E+03</rscale>
<asrwt>0</asrwt>
<pdfrwt beam="1">  1       21 0.27509041E-02 0.12500000E+03</pdfrwt>
<pdfrwt beam="2">  1       21 0.33609176E-01 0.12500000E+03</pdfrwt>
<totfact> 0.61188590E+06</totfact>
</mgrwt>
</event>
<event>
 3    1  0.1597250E-001  0.1250000E+03  0.7546771E-02  0.1235069E+00
         21   -1    0    0  502  501  0.00000000000E+00  0.00000000000E+00  0.76193819339E+01  0.76193819339E+01  0.00000000000E+00 0. -1.
         21   -1    0    0  501  502 -0.00000000000E+00 -0.00000000000E+00 -0.51267281702E+03  0.51267281702E+03  0.00000000000E+00 0. -1.
         25    1    1    2    0    0  0.00000000000E+00  0.00000000000E+00 -0.50505343509E+03  0.52029219896E+03  0.12500000000E+03 0.  0.
<mgrwt>
<rscale>  0 0.12500000E+03</rscale>
<asrwt>0</asrwt>
<pdfrwt beam="1">  1       21 0.11722124E-02 0.12500000E+03</pdfrwt>
<pdfrwt beam="2">  1       21 0.78872752E-01 0.12500000E+03</pdfrwt>
<totfact> 0.40964533E+06</totfact>
</mgrwt>
</event>
<event>
 3    1  0.1597250E-001  0.1250000E+03  0.7546771E-02  0.1235069E+00
         21   -1    0    0  502  501  0.00000000000E+00  0.00000000000E+00  0.60930592107E+02  0.60930592107E+02  0.00000000000E+00 0.  1.
         21   -1    0    0  501  502 -0.00000000000E+00 -0.00000000000E+00 -0.64109831612E+02  0.64109831612E+02  0.00000000000E+00 0.  1.
         25    1    1    2    0    0  0.00000000000E+00  0.00000000000E+00 -0.31792395050E+01  0.12504042372E+03  0.12500000000E+03 0.  0.
<mgrwt>
<rscale>  0 0.12500000E+03</rscale>
<asrwt>0</asrwt>
<pdfrwt beam="1">  1       21 0.93739373E-02 0.12500000E+03</pdfrwt>
<pdfrwt beam="2">  1       21 0.98630509E-02 0.12500000E+03</pdfrwt>
<totfact> 0.74038121E+06</totfact>
</mgrwt>
</event>
<event>
 3    1  0.1597250E-001  0.1250000E+03  0.7546771E-02  0.1235069E+00
         21   -1    0    0  502  501  0.00000000000E+00  0.00000000000E+00  0.51185287949E+03  0.51185287949E+03  0.00000000000E+00 0.  1.
         21   -1    0    0  501  502 -0.00000000000E+00 -0.00000000000E+00 -0.76315874278E+01  0.76315874278E+01  0.00000000000E+00 0.  1.
         25    1    1    2    0    0  0.00000000000E+00  0.00000000000E+00  0.50422129206E+03  0.51948446692E+03  0.12500000000E+03 0.  0.
<mgrwt>
<rscale>  0 0.12500000E+03</rscale>
<asrwt>0</asrwt>
<pdfrwt beam="1">  1       21 0.78746570E-01 0.12500000E+03</pdfrwt>
<pdfrwt beam="2">  1       21 0.11740908E-02 0.12500000E+03</pdfrwt>
<totfact> 0.41006730E+06</totfact>
</mgrwt>
</event>
<event>
 3    1  0.1597250E-001  0.1250000E+03  0.7546771E-02  0.1235069E+00
         21   -1    0    0  502  501  0.00000000000E+00  0.00000000000E+00  0.11854355630E+02  0.11854355630E+02  0.00000000000E+00 0. -1.
         21   -1    0    0  501  502 -0.00000000000E+00 -0.00000000000E+00 -0.32952023054E+03  0.32952023054E+03  0.00000000000E+00 0. -1.
         25    1    1    2    0    0  0.00000000000E+00  0.00000000000E+00 -0.31766587491E+03  0.34137458617E+03  0.12500000000E+03 0.  0.
<mgrwt>
<rscale>  0 0.12500000E+03</rscale>
<asrwt>0</asrwt>
<pdfrwt beam="1">  1       21 0.18237473E-02 0.12500000E+03</pdfrwt>
<pdfrwt beam="2">  1       21 0.50695412E-01 0.12500000E+03</pdfrwt>
<totfact> 0.52181824E+06</totfact>
</mgrwt>
</event>
<event>
 3    1  0.1597250E-001  0.1250000E+03  0.7546771E-02  0.1235069E+00
         21   -1    0    0  502  501  0.00000000000E+00  0.00000000000E+00  0.79351179287E+03  0.79351179287E+03  0.00000000000E+00 0. -1.
         21   -1    0    0  501  502 -0.00000000000E+00 -0.00000000000E+00 -0.49227371730E+01  0.49227371730E+01  0.00000000000E+00 0. -1.
         25    1    1    2    0    0  0.00000000000E+00  0.00000000000E+00  0.78858905570E+03  0.79843453005E+03  0.12500000000E+03 0.  0.
<mgrwt>
<rscale>  0 0.12500000E+03</rscale>
<asrwt>0</asrwt>
<pdfrwt beam="1">  1       21 0.12207864E+00 0.12500000E+03</pdfrwt>
<pdfrwt beam="2">  1       21 0.75734481E-03 0.12500000E+03</pdfrwt>
<totfact> 0.29414771E+06</totfact>
</mgrwt>
</event>
<event>
 3    1  0.1597250E-001  0.1250000E+03  0.7546771E-02  0.1235069E+00
         21   -1    0    0  502  501  0.00000000000E+00  0.00000000000E+00  0.15924071467E+02  0.15924071467E+02  0.00000000000E+00 0.  1.
         21   -1    0    0  501  502 -0.00000000000E+00 -0.00000000000E+00 -0.24530472676E+03  0.24530472676E+03  0.00000000000E+00 0.  1.
         25    1    1    2    0    0  0.00000000000E+00  0.00000000000E+00 -0.22938065529E+03  0.26122879822E+03  0.12500000000E+03 0.  0.
<mgrwt>
<rscale>  0 0.12500000E+03</rscale>
<asrwt>0</asrwt>
<pdfrwt beam="1">  1       21 0.24498570E-02 0.12500000E+03</pdfrwt>
<pdfrwt beam="2">  1       21 0.37739190E-01 0.12500000E+03</pdfrwt>
<totfact> 0.58836826E+06</totfact>
</mgrwt>
</event>
<event>
 3    1  0.1597250E-001  0.1250000E+03  0.7546771E-02  0.1235069E+00
         21   -1    0    0  502  501  0.00000000000E+00  0.00000000000E+00  0.93931078773E+03  0.93931078773E+03  0.00000000000E+00 0.  1.
         21   -1    0    0  501  502 -0.00000000000E+00 -0.00000000000E+00 -0.41586342359E+01  0.41586342359E+01  0.00000000000E+00 0.  1.
         25    1    1    2    0    0  0.00000000000E+00  0.00000000000E+00  0.93515215349E+03  0.94346942196E+03  0.12500000000E+03 0.  0.
<mgrwt>
<rscale>  0 0.12500000E+03</rscale>
<asrwt>0</asrwt>
<pdfrwt beam="1">  1       21 0.14450918E+00 0.12500000E+03</pdfrwt>
<pdfrwt beam="2">  1       21 0.63979063E-03 0.12500000E+03</pdfrwt>
<totfact> 0.25087102E+06</totfact>
</mgrwt>
</event>
<event>
 3    1  0.1597250E-001  0.1250000E+03  0.7546771E-02  0.1235069E+00
         21   -1    0    0  502  501  0.00000000000E+00  0.00000000000E+00  0.62745117620E+02  0.62745117620E+02  0.00000000000E+00 0.  1.
         21   -1    0    0  501  502 -0.00000000000E+00 -0.00000000000E+00 -0.62255839947E+02  0.62255839947E+02  0.00000000000E+00 0.  1.
         25    1    1    2    0    0  0.00000000000E+00  0.00000000000E+00  0.48927767323E+00  0.12500095757E+03  0.12500000000E+03 0.  0.
<mgrwt>
<rscale>  0 0.12500000E+03</rscale>
<asrwt>0</asrwt>
<pdfrwt beam="1">  1       21 0.96530950E-02 0.12500000E+03</pdfrwt>
<pdfrwt beam="2">  1       21 0.95778216E-02 0.12500000E+03</pdfrwt>
<totfact> 0.74043452E+06</totfact>
</mgrwt>
</event>
<event>
 3    1  0.1597250E-001  0.1250000E+03  0.7546771E-02  0.1235069E+00
         21   -1    0    0  502  501  0.00000000000E+00  0.00000000000E+00  0.10141384157E+02  0.10141384157E+02  0.00000000000E+00 0.  1.
         21   -1    0    0  501  502 -0.00000000000E+00 -0.00000000000E+00 -0.38517917667E+03  0.38517917667E+03  0.00000000000E+00 0.  1.
         25    1    1    2    0    0  0.00000000000E+00  0.00000000000E+00 -0.37503779251E+03  0.39532056083E+03  0.12500000000E+03 0.  0.
<mgrwt>
<rscale>  0 0.12500000E+03</rscale>
<asrwt>0</asrwt>
<pdfrwt beam="1">  1       21 0.15602130E-02 0.12500000E+03</pdfrwt>
<pdfrwt beam="2">  1       21 0.59258333E-01 0.12500000E+03</pdfrwt>
<totfact> 0.48353290E+06</totfact>
</mgrwt>
</event>
<event>
 3    1  0.1597250E-001  0.1250000E+03  0.7546771E-02  0.1235069E+00
         21   -1    0    0  502  501  0.00000000000E+00  0.00000000000E+00  0.66608569826E+01  0.66608569826E+01  0.00000000000E+00 0. -1.
         21   -1    0    0  501  502 -0.00000000000E+00 -0.00000000000E+00 -0.58644856213E+03  0.58644856213E+03  0.00000000000E+00 0. -1.
         25    1    1    2    0    0  0.00000000000E+00  0.00000000000E+00 -0.57978770514E+03  0.59310941911E+03  0.12500000000E+03 0.  0.
<mgrwt>
<rscale>  0 0.12500000E+03</rscale>
<asrwt>0</asrwt>
<pdfrwt beam="1">  1       21 0.10247473E-02 0.12500000E+03</pdfrwt>
<pdfrwt beam="2">  1       21 0.90222853E-01 0.12500000E+03</pdfrwt>
<totfact> 0.37406114E+06</totfact>
</mgrwt>
</event>
<event>
 3    1  0.1597250E-001  0.1250000E+03  0.7546771E-02  0.1235069E+00
         21   -1    0    0  502  501  0.00000000000E+00  0.00000000000E+00  0.27906458157E+03  0.27906458157E+03  0.00000000000E+00 0. -1.
         21   -1    0    0  501  502 -0.00000000000E+00 -0.00000000000E+00 -0.13997655948E+02  0.13997655948E+02  0.00000000000E+00 0. -1.
         25    1    1    2    0    0  0.00000000000E+00  0.00000000000E+00  0.26506692562E+03  0.29306223752E+03  0.12500000000E+03 0.  0.
<mgrwt>
<rscale>  0 0.12500000E+03</rscale>
<asrwt>0</asrwt>
<pdfrwt beam="1">  1       21 0.42933008E-01 0.12500000E+03</pdfrwt>
<pdfrwt beam="2">  1       21 0.21534857E-02 0.12500000E+03</pdfrwt>
<totfact> 0.56037704E+06</totfact>
</mgrwt>
</event>
<event>
 3    1  0.1597250E-001  0.1250000E+03  0.7546771E-02  0.1235069E+00
         21   -1    0    0  502  501  0.00000000000E+00  0.00000000000E+00  0.94151695252E+02  0.94151695252E+02  0.00000000000E+00 0. -1.
         21   -1    0    0  501  502 -0.00000000000E+00 -0.00000000000E+00 -0.41488897141E+02  0.41488897141E+02  0.00000000000E+00 0. -1.
         25    1    1    2    0    0  0.00000000000E+00  0.00000000000E+00  0.52662798111E+02  0.13564059239E+03  0.12500000000E+03 0.  0.
<mgrwt>
<rscale>  0 0.12500000E+03</rscale>
<asrwt>0</asrwt>
<pdfrwt beam="1">  1       21 0.14484876E-01 0.12500000E+03</pdfrwt>
<pdfrwt beam="2">  1       21 0.63829073E-02 0.12500000E+03</pdfrwt>
<totfact> 0.72611764E+06</totfact>
</mgrwt>
</event>
<event>
 3    1  0.1597250E-001  0.1250000E+03  0.7546771E-02  0.1235069E+00
         21   -1    0    0  502  501  0.00000000000E+00  0.00000000000E+00  0.30865844369E+02  0.30865844369E+02  0.00000000000E+00 0. -1.
         21   -1    0    0  501  502 -0.00000000000E+00 -0.00000000000E+00 -0.12655574730E+03  0.12655574730E+03  0.00000000000E+00 0. -1.
         25    1    1    2    0    0  0.00000000000E+00  0.00000000000E+00 -0.95689902928E+02  0.15742159167E+03  0.12500000000E+03 0.  0.
<mgrwt>
<rscale>  0 0.12500000E+03</rscale>
<asrwt>0</asrwt>
<pdfrwt beam="1">  1       21 0.47485915E-02 0.12500000E+03</pdfrwt>
<pdfrwt beam="2">  1       21 0.19470115E-01 0.12500000E+03</pdfrwt>
<totfact> 0.69835930E+06</totfact>
</mgrwt>
</event>
<event>
 3    1  0.1597250E-001  0.1250000E+03  0.7546771E-02  0.1235069E+00
         21   -1    0    0  502  501  0.00000000000E+00  0.00000000000E+00  0.96840192925E+01  0.96840192925E+01  0.00000000000E+00 0.  1.
         21   -1    0    0  501  502 -0.00000000000E+00 -0.00000000000E+00 -0.40337073709E+03  0.40337073709E+03  0.00000000000E+00 0.  1.
         25    1    1    2    0    0  0.00000000000E+00  0.00000000000E+00 -0.39368671780E+03  0.41305475638E+03  0.12500000000E+03 0.  0.
<mgrwt>
<rscale>  0 0.12500000E+03</rscale>
<asrwt>0</asrwt>
<pdfrwt beam="1">  1       21 0.14898495E-02 0.12500000E+03</pdfrwt>
<pdfrwt beam="2">  1       21 0.62057022E-01 0.12500000E+03</pdfrwt>
<totfact> 0.47187334E+06</totfact>
</mgrwt>
</event>
<event>
 3    1  0.1597250E-001  0.1250000E+03  0.7546771E-02  0.1235069E+00
         21   -1    0    0  502  501  0.00000000000E+00  0.00000000000E+00  0.15808620924E+02  0.15808620924E+02  0.00000000000E+00 0.  1.
         21   -1    0    0  501  502 -0.00000000000E+00 -0.00000000000E+00 -0.24709619004E+03  0.24709619004E+03  0.00000000000E+00 0.  1.
         25    1    1    2    0    0  0.00000000000E+00  0.00000000000E+00 -0.23128756911E+03  0.26290481096E+03  0.12500000000E+03 0.  0.
<mgrwt>
<rscale>  0 0.12500000E+03</rscale>
<asrwt>0</asrwt>
<pdfrwt beam="1">  1       21 0.24320956E-02 0.12500000E+03</pdfrwt>
<pdfrwt beam="2">  1       21 0.38014798E-01 0.12500000E+03</pdfrwt>
<totfact> 0.58684049E+06</totfact>
</mgrwt>
</event>
<event>
 3    1  0.1597250E-001  0.1250000E+03  0.7546771E-02  0.1235069E+00
         21   -1    0    0  502  501  0.00000000000E+00  0.00000000000E+00  0.91825150340E+03  0.91825150340E+03  0.00000000000E+00 0.  1.
         21   -1    0    0  501  502 -0.00000000000E+00 -0.00000000000E+00 -0.42540088261E+01  0.42540088261E+01  0.00000000000E+00 0.  1.
         25    1    1    2    0    0  0.00000000000E+00  0.00000000000E+00  0.91399749457E+03  0.92250551222E+03  0.12500000000E+03 0.  0.
<mgrwt>
<rscale>  0 0.12500000E+03</rscale>
<asrwt>0</asrwt>
<pdfrwt beam="1">  1       21 0.14126930E+00 0.12500000E+03</pdfrwt>
<pdfrwt beam="2">  1       21 0.65446363E-03 0.12500000E+03</pdfrwt>
<totfact> 0.25662275E+06</totfact>
</mgrwt>
</event>
<event>
 3    1  0.1597250E-001  0.1250000E+03  0.7546771E-02  0.1235069E+00
         21   -1    0    0  502  501  0.00000000000E+00  0.00000000000E+00  0.15355805689E+03  0.15355805689E+03  0.00000000000E+00 0.  1.
         21   -1    0    0  501  502 -0.00000000000E+00 -0.00000000000E+00 -0.25438261457E+02  0.25438261457E+02  0.00000000000E+00 0.  1.
         25    1    1    2    0    0  0.00000000000E+00  0.00000000000E+00  0.12811979544E+03  0.17899631835E+03  0.12500000000E+03 0.  0.
<mgrwt>
<rscale>  0 0.12500000E+03</rscale>
<asrwt>0</asrwt>
<pdfrwt beam="1">  1       21 0.23624316E-01 0.12500000E+03</pdfrwt>
<pdfrwt beam="2">  1       21 0.39135788E-02 0.12500000E+03</pdfrwt>
<totfact> 0.67266863E+06</totfact>
</mgrwt>
</event>
<event>
 3    1  0.1597250E-001  0.1250000E+03  0.7546771E-02  0.1235069E+00
         21   -1    0    0  502  501  0.00000000000E+00  0.00000000000E+00  0.35363806833E+03  0.35363806833E+03  0.00000000000E+00 0. -1.
         21   -1    0    0  501  502 -0.00000000000E+00 -0.00000000000E+00 -0.11045897910E+02  0.11045897910E+02  0.00000000000E+00 0. -1.
         25    1    1    2    0    0  0.00000000000E+00  0.00000000000E+00  0.34259217042E+03  0.36468396624E+03  0.12500000000E+03 0.  0.
<mgrwt>
<rscale>  0 0.12500000E+03</rscale>
<asrwt>0</asrwt>
<pdfrwt beam="1">  1       21 0.54405848E-01 0.12500000E+03</pdfrwt>
<pdfrwt beam="2">  1       21 0.16993692E-02 0.12500000E+03</pdfrwt>
<totfact> 0.50471932E+06</totfact>
</mgrwt>
</event>
<event>
 3    1  0.1597250E-001  0.1250000E+03  0.7546771E-02  0.1235069E+00
         21   -1    0    0  502  501  0.00000000000E+00  0.00000000000E+00  0.54128065243E+03  0.54128065243E+03  0.00000000000E+00 0. -1.
         21   -1    0    0  501  502 -0.00000000000E+00 -0.00000000000E+00 -0.72166813694E+01  0.72166813694E+01  0.00000000000E+00 0. -1.
         25    1    1    2    0    0  0.00000000000E+00  0.00000000000E+00  0.53406397106E+03  0.54849733380E+03  0.12500000000E+03 0.  0.
<mgrwt>
<rscale>  0 0.12500000E+03</rscale>
<asrwt>0</asrwt>
<pdfrwt beam="1">  1       21 0.83273915E-01 0.12500000E+03</pdfrwt>
<pdfrwt beam="2">  1       21 0.11102591E-02 0.12500000E+03</pdfrwt>
<totfact> 0.39530436E+06</totfact>
</mgrwt>
</event>
<event>
 3    1  0.1597250E-001  0.1250000E+03  0.7546771E-02  0.1235069E+00
         21   -1    0    0  502  501  0.00000000000E+00  0.00000000000E+00  0.58676730134E+03  0.58676730134E+03  0.00000000000E+00 0.  1.
         21   -1    0    0  501  502 -0.00000000000E+00 -0.00000000000E+00 -0.66572387232E+01  0.66572387232E+01  0.00000000000E+00 0.  1.
         25    1    1    2    0    0  0.00000000000E+00  0.00000000000E+00  0.58011006262E+03  0.59342454007E+03  0.12500000000E+03 0.  0.
<mgrwt>
<rscale>  0 0.12500000E+03</rscale>
<asrwt>0</asrwt>
<pdfrwt beam="1">  1       21 0.90271852E-01 0.12500000E+03</pdfrwt>
<pdfrwt beam="2">  1       21 0.10241910E-02 0.12500000E+03</pdfrwt>
<totfact> 0.37391707E+06</totfact>
</mgrwt>
</event>
<event>
 3    1  0.1597250E-001  0.1250000E+03  0.7546771E-02  0.1235069E+00
         21   -1    0    0  502  501  0.00000000000E+00  0.00000000000E+00  0.12127426124E+03  0.12127426124E+03  0.00000000000E+00 0.  1.
         21   -1    0    0  501  502 -0.00000000000E+00 -0.00000000000E+00 -0.32210049849E+02  0.32210049849E+02  0.00000000000E+00 0.  1.
         25    1    1    2    0    0  0.00000000000E+00  0.00000000000E+00  0.89064211393E+02  0.15348431109E+03  0.12500000000E+03 0.  0.
<mgrwt>
<rscale>  0 0.12500000E+03</rscale>
<asrwt>0</asrwt>
<pdfrwt beam="1">  1       21 0.18657578E-01 0.12500000E+03</pdfrwt>
<pdfrwt beam="2">  1       21 0.49553923E-02 0.12500000E+03</pdfrwt>
<totfact> 0.70324203E+06</totfact>
</mgrwt>
</event>
<event>
 3    1  0.1597250E-001  0.1250000E+03  0.7546771E-02  0.1235069E+00
         21   -1    0    0  502  501  0.00000000000E+00  0.00000000000E+00  0.82392808950E+02  0.82392808950E+02  0.00000000000E+00 0. -1.
         21   -1    0    0  501  502 -0.00000000000E+00 -0.00000000000E+00 -0.47410084081E+02  0.47410084081E+02  0.00000000000E+00 0. -1.
         25    1    1    2    0    0  0.00000000000E+00  0.00000000000E+00  0.34982724869E+02  0.12980289303E+03  0.12500000000E+03 0.  0.
<mgrwt>
<rscale>  0 0.12500000E+03</rscale>
<asrwt>0</asrwt>
<pdfrwt beam="1">  1       21 0.12675817E-01 0.12500000E+03</pdfrwt>
<pdfrwt beam="2">  1       21 0.72938591E-02 0.12500000E+03</pdfrwt>
<totfact> 0.73391270E+06</totfact>
</mgrwt>
</event>
<event>
 3    1  0.1597250E-001  0.1250000E+03  0.7546771E-02  0.1235069E+00
         21   -1    0    0  502  501  0.00000000000E+00  0.00000000000E+00  0.64523520933E+02  0.64523520933E+02  0.00000000000E+00 0. -1.
         21   -1    0    0  501  502 -0.00000000000E+00 -0.00000000000E+00 -0.60539938669E+02  0.60539938669E+02  0.00000000000E+00 0. -1.
         25    1    1    2    0    0  0.00000000000E+00  0.00000000000E+00  0.39835822633E+01  0.12506345960E+03  0.12500000000E+03 0.  0.
<mgrwt>
<rscale>  0 0.12500000E+03</rscale>
<asrwt>0</asrwt>
<pdfrwt beam="1">  1       21 0.99266955E-02 0.12500000E+03</pdfrwt>
<pdfrwt beam="2">  1       21 0.93138368E-02 0.12500000E+03</pdfrwt>
<totfact> 0.74035010E+06</totfact>
</mgrwt>
</event>
<event>
 3    1  0.1597250E-001  0.1250000E+03  0.7546771E-02  0.1235069E+00
         21   -1    0    0  502  501  0.00000000000E+00  0.00000000000E+00  0.14836556539E+02  0.14836556539E+02  0.00000000000E+00 0.  1.
         21   -1    0    0  501  502 -0.00000000000E+00 -0.00000000000E+00 -0.26328548607E+03  0.26328548607E+03  0.00000000000E+00 0.  1.
         25    1    1    2    0    0  0.00000000000E+00  0.00000000000E+00 -0.24844892953E+03  0.27812204261E+03  0.12500000000E+03 0.  0.
<mgrwt>
<rscale>  0 0.12500000E+03</rscale>
<asrwt>0</asrwt>
<pdfrwt beam="1">  1       21 0.22825473E-02 0.12500000E+03</pdfrwt>
<pdfrwt beam="2">  1       21 0.40505458E-01 0.12500000E+03</pdfrwt>
<totfact> 0.57324779E+06</totfact>
</mgrwt>
</event>
<event>
 3    1  0.1597250E-001  0.1250000E+03  0.7546771E-02  0.1235069E+00
         21   -1    0    0  502  501  0.00000000000E+00  0.00000000000E+00  0.14081099889E+02  0.14081099889E+02  0.00000000000E+00 0. -1.
         21   -1    0    0  501  502 -0.00000000000E+00 -0.00000000000E+00 -0.27741085788E+03  0.27741085788E+03  0.00000000000E+00 0. -1.
         25    1    1    2    0    0  0.00000000000E+00  0.00000000000E+00 -0.26332975799E+03  0.29149195777E+03  0.12500000000E+03 0.  0.
<mgrwt>
<rscale>  0 0.12500000E+03</rscale>
<asrwt>0</asrwt>
<pdfrwt beam="1">  1       21 0.21663233E-02 0.12500000E+03</pdfrwt>
<pdfrwt beam="2">  1       21 0.42678589E-01 0.12500000E+03</pdfrwt>
<totfact> 0.56170723E+06</totfact>
</mgrwt>
</event>
<event>
 3    1  0.1597250E-001  0.1250000E+03  0.7546771E-02  0.1235069E+00
         21   -1    0    0  502  501  0.00000000000E+00  0.00000000000E+00  0.19522128467E+03  0.19522128467E+03  0.00000000000E+00 0.  1.
         21   -1    0    0  501  502 -0.00000000000E+00 -0.00000000000E+00 -0.20009344814E+02  0.20009344814E+02  0.00000000000E+00 0.  1.
         25    1    1    2    0    0  0.00000000000E+00  0.00000000000E+00  0.17521193985E+03  0.21523062948E+03  0.12500000000E+03 0.  0.
<mgrwt>
<rscale>  0 0.12500000E+03</rscale>
<asrwt>0</asrwt>
<pdfrwt beam="1">  1       21 0.30034043E-01 0.12500000E+03</pdfrwt>
<pdfrwt beam="2">  1       21 0.30783609E-02 0.12500000E+03</pdfrwt>
<totfact> 0.63313382E+06</totfact>
</mgrwt>
</event>
<event>
 3    1  0.1597250E-001  0.1250000E+03  0.7546771E-02  0.1235069E+00
         21   -1    0    0  502  501  0.00000000000E+00  0.00000000000E+00  0.20707269552E+01  0.20707269552E+01  0.00000000000E+00 0. -1.
         21   -1    0    0  501  502 -0.00000000000E+00 -0.00000000000E+00 -0.18864148120E+04  0.18864148120E+04  0.00000000000E+00 0. -1.
         25    1    1    2    0    0  0.00000000000E+00  0.00000000000E+00 -0.18843440851E+04  0.18884855390E+04  0.12500000000E+03 0.  0.
<mgrwt>
<rscale>  0 0.12500000E+03</rscale>
<asrwt>0</asrwt>
<pdfrwt beam="1">  1       21 0.31857275E-03 0.12500000E+03</pdfrwt>
<pdfrwt beam="2">  1       21 0.29021823E+00 0.12500000E+03</pdfrwt>
<totfact> 0.90876251E+05</totfact>
</mgrwt>
</event>
<event>
 3    1  0.1597250E-001  0.1250000E+03  0.7546771E-02  0.1235069E+00
         21   -1    0    0  502  501  0.00000000000E+00  0.00000000000E+00  0.56663641682E+01  0.56663641682E+01  0.00000000000E+00 0.  1.
         21   -1    0    0  501  502 -0.00000000000E+00 -0.00000000000E+00 -0.68937503557E+03  0.68937503557E+03  0.00000000000E+00 0.  1.
         25    1    1    2    0    0  0.00000000000E+00  0.00000000000E+00 -0.68370867140E+03  0.69504139973E+03  0.12500000000E+03 0.  0.
<mgrwt>
<rscale>  0 0.12500000E+03</rscale>
<asrwt>0</asrwt>
<pdfrwt beam="1">  1       21 0.87174860E-03 0.12500000E+03</pdfrwt>
<pdfrwt beam="2">  1       21 0.10605767E+00 0.12500000E+03</pdfrwt>
<totfact> 0.33102197E+06</totfact>
</mgrwt>
</event>
<event>
 3    1  0.1597250E-001  0.1250000E+03  0.7546771E-02  0.1235069E+00
         21   -1    0    0  502  501  0.00000000000E+00  0.00000000000E+00  0.55280679433E+02  0.55280679433E+02  0.00000000000E+00 0. -1.
         21   -1    0    0  501  502 -0.00000000000E+00 -0.00000000000E+00 -0.70662119932E+02  0.70662119932E+02  0.00000000000E+00 0. -1.
         25    1    1    2    0    0  0.00000000000E+00  0.00000000000E+00 -0.15381440498E+02  0.12594279936E+03  0.12500000000E+03 0.  0.
<mgrwt>
<rscale>  0 0.12500000E+03</rscale>
<asrwt>0</asrwt>
<pdfrwt beam="1">  1       21 0.85047200E-02 0.12500000E+03</pdfrwt>
<pdfrwt beam="2">  1       21 0.10871095E-01 0.12500000E+03</pdfrwt>
<totfact> 0.73913930E+06</totfact>
</mgrwt>
</event>
<event>
 3    1  0.1597250E-001  0.1250000E+03  0.7546771E-02  0.1235069E+00
         21   -1    0    0  502  501  0.00000000000E+00  0.00000000000E+00  0.20730337660E+02  0.20730337660E+02  0.00000000000E+00 0.  1.
         21   -1    0    0  501  502 -0.00000000000E+00 -0.00000000000E+00 -0.18843156653E+03  0.18843156653E+03  0.00000000000E+00 0.  1.
         25    1    1    2    0    0  0.00000000000E+00  0.00000000000E+00 -0.16770122887E+03  0.20916190419E+03  0.12500000000E+03 0.  0.
<mgrwt>
<rscale>  0 0.12500000E+03</rscale>
<asrwt>0</asrwt>
<pdfrwt beam="1">  1       21 0.31892828E-02 0.12500000E+03</pdfrwt>
<pdfrwt beam="2">  1       21 0.28989471E-01 0.12500000E+03</pdfrwt>
<totfact> 0.63947821E+06</totfact>
</mgrwt>
</event>
<event>
 3    1  0.1597250E-001  0.1250000E+03  0.7546771E-02  0.1235069E+00
         21   -1    0    0  502  501  0.00000000000E+00  0.00000000000E+00  0.10234681884E+03  0.10234681884E+03  0.00000000000E+00 0.  1.
         21   -1    0    0  501  502 -0.00000000000E+00 -0.00000000000E+00 -0.38166794477E+02  0.38166794477E+02  0.00000000000E+00 0.  1.
         25    1    1    2    0    0  0.00000000000E+00  0.00000000000E+00  0.64180024361E+02  0.14051361332E+03  0.12500000000E+03 0.  0.
<mgrwt>
<rscale>  0 0.12500000E+03</rscale>
<asrwt>0</asrwt>
<pdfrwt beam="1">  1       21 0.15745664E-01 0.12500000E+03</pdfrwt>
<pdfrwt beam="2">  1       21 0.58718146E-02 0.12500000E+03</pdfrwt>
<totfact> 0.71972328E+06</totfact>
</mgrwt>
</event>
<event>
 3    1  0.1597250E-001  0.1250000E+03  0.7546771E-02  0.1235069E+00
         21   -1    0    0  502  501  0.00000000000E+00  0.00000000000E+00  0.19801376286E+04  0.19801376286E+04  0.00000000000E+00 0. -1.
         21   -1    0    0  501  502 -0.00000000000E+00 -0.00000000000E+00 -0.19727164131E+01  0.19727164131E+01  0.00000000000E+00 0. -1.
         25    1    1    2    0    0  0.00000000000E+00  0.00000000000E+00  0.19781649121E+04  0.19821103450E+04  0.12500000000E+03 0.  0.
<mgrwt>
<rscale>  0 0.12500000E+03</rscale>
<asrwt>0</asrwt>
<pdfrwt beam="1">  1       21 0.30463497E+00 0.12500000E+03</pdfrwt>
<pdfrwt beam="2">  1       21 0.30349642E-03 0.12500000E+03</pdfrwt>
<totfact> 0.81238568E+05</totfact>
</mgrwt>
</event>
<event>
 3    1  0.1597250E-001  0.1250000E+03  0.7546771E-02  0.1235069E+00
         21   -1    0    0  502  501  0.00000000000E+00  0.00000000000E+00  0.63833522232E+01  0.63833522232E+01  0.00000000000E+00 0.  1.
         21   -1    0    0  501  502 -0.00000000000E+00 -0.00000000000E+00 -0.61194335883E+03  0.61194335883E+03  0.00000000000E+00 0.  1.
         25    1    1    2    0    0  0.00000000000E+00  0.00000000000E+00 -0.60556000660E+03  0.61832671105E+03  0.12500000000E+03 0.  0.
<mgrwt>
<rscale>  0 0.12500000E+03</rscale>
<asrwt>0</asrwt>
<pdfrwt beam="1">  1       21 0.98205393E-03 0.12500000E+03</pdfrwt>
<pdfrwt beam="2">  1       21 0.94145157E-01 0.12500000E+03</pdfrwt>
<totfact> 0.36276722E+06</totfact>
</mgrwt>
</event>
<event>
 3    1  0.1597250E-001  0.1250000E+03  0.7546771E-02  0.1235069E+00
         21   -1    0    0  502  501  0.00000000000E+00  0.00000000000E+00  0.29880658649E+02  0.29880658649E+02  0.00000000000E+00 0. -1.
         21   -1    0    0  501  502 -0.00000000000E+00 -0.00000000000E+00 -0.13072837670E+03  0.13072837670E+03  0.00000000000E+00 0. -1.
         25    1    1    2    0    0  0.00000000000E+00  0.00000000000E+00 -0.10084771806E+03  0.16060903535E+03  0.12500000000E+03 0.  0.
<mgrwt>
<rscale>  0 0.12500000E+03</rscale>
<asrwt>0</asrwt>
<pdfrwt beam="1">  1       21 0.45970245E-02 0.12500000E+03</pdfrwt>
<pdfrwt beam="2">  1       21 0.20112058E-01 0.12500000E+03</pdfrwt>
<totfact> 0.69445155E+06</totfact>
</mgrwt>
</event>
<event>
 3    1  0.1597250E-001  0.1250000E+03  0.7546771E-02  0.1235069E+00
         21   -1    0    0  502  501  0.00000000000E+00  0.00000000000E+00  0.11962787369E+03  0.11962787369E+03  0.00000000000E+00 0.  1.
         21   -1    0    0  501  502 -0.00000000000E+00 -0.00000000000E+00 -0.32653343067E+02  0.32653343067E+02  0.00000000000E+00 0.  1.
         25    1    1    2    0    0  0.00000000000E+00  0.00000000000E+00  0.86974530622E+02  0.15228121676E+03  0.12500000000E+03 0.  0.
<mgrwt>
<rscale>  0 0.12500000E+03</rscale>
<asrwt>0</asrwt>
<pdfrwt beam="1">  1       21 0.18404288E-01 0.12500000E+03</pdfrwt>
<pdfrwt beam="2">  1       21 0.50235913E-02 0.12500000E+03</pdfrwt>
<totfact> 0.70473802E+06</totfact>
</mgrwt>
</event>
<event>
 3    1  0.1597250E-001  0.1250000E+03  0.7546771E-02  0.1235069E+00
         21   -1    0    0  502  501  0.00000000000E+00  0.00000000000E+00  0.16182471025E+02  0.16182471025E+02  0.00000000000E+00 0.  1.
         21   -1    0    0  501  502 -0.00000000000E+00 -0.00000000000E+00 -0.24138773330E+03  0.24138773330E+03  0.00000000000E+00 0.  1.
         25    1    1    2    0    0  0.00000000000E+00  0.00000000000E+00 -0.22520526228E+03  0.25757020433E+03  0.12500000000E+03 0.  0.
<mgrwt>
<rscale>  0 0.12500000E+03</rscale>
<asrwt>0</asrwt>
<pdfrwt beam="1">  1       21 0.24896113E-02 0.12500000E+03</pdfrwt>
<pdfrwt beam="2">  1       21 0.37136570E-01 0.12500000E+03</pdfrwt>
<totfact> 0.59172699E+06</totfact>
</mgrwt>
</event>
<event>
 3    1  0.1597250E-001  0.1250000E+03  0.7546771E-02  0.1235069E+00
         21   -1    0    0  502  501  0.00000000000E+00  0.00000000000E+00  0.13839284240E+03  0.13839284240E+03  0.00000000000E+00 0. -1.
         21   -1    0    0  501  502 -0.00000000000E+00 -0.00000000000E+00 -0.28225809458E+02  0.28225809458E+02  0.00000000000E+00 0. -1.
         25    1    1    2    0    0  0.00000000000E+00  0.00000000000E+00  0.11016703295E+03  0.16661865186E+03  0.12500000000E+03 0.  0.
<mgrwt>
<rscale>  0 0.12500000E+03</rscale>
<asrwt>0</asrwt>
<pdfrwt beam="1">  1       21 0.21291206E-01 0.12500000E+03</pdfrwt>
<pdfrwt beam="2">  1       21 0.43424323E-02 0.12500000E+03</pdfrwt>
<totfact> 0.68719676E+06</totfact>
</mgrwt>
</event>
<event>
 3    1  0.1597250E-001  0.1250000E+03  0.7546771E-02  0.1235069E+00
         21   -1    0    0  502  501  0.00000000000E+00  0.00000000000E+00  0.18981116787E+02  0.18981116787E+02  0.00000000000E+00 0. -1.
         21   -1    0    0  501  502 -0.00000000000E+00 -0.00000000000E+00 -0.20579663693E+03  0.20579663693E+03  0.00000000000E+00 0. -1.
         25    1    1    2    0    0  0.00000000000E+00  0.00000000000E+00 -0.18681552014E+03  0.22477775372E+03  0.12500000000E+03 0.  0.
<mgrwt>
<rscale>  0 0.12500000E+03</rscale>
<asrwt>0</asrwt>
<pdfrwt beam="1">  1       21 0.29201720E-02 0.12500000E+03</pdfrwt>
<pdfrwt beam="2">  1       21 0.31661019E-01 0.12500000E+03</pdfrwt>
<totfact> 0.62337498E+06</totfact>
</mgrwt>
</event>
<event>
 3    1  0.1597250E-001  0.1250000E+03  0.7546771E-02  0.1235069E+00
         21   -1    0    0  502  501  0.00000000000E+00  0.00000000000E+00  0.85676959827E+02  0.85676959827E+02  0.00000000000E+00 0. -1.
         21   -1    0    0  501  502 -0.00000000000E+00 -0.00000000000E+00 -0.45592770891E+02  0.45592770891E+02  0.00000000000E+00 0. -1.
         25    1    1    2    0    0  0.00000000000E+00  0.00000000000E+00  0.40084188937E+02  0.13126973072E+03  0.12500000000E+03 0.  0.
<mgrwt>
<rscale>  0 0.12500000E+03</rscale>
<asrwt>0</asrwt>
<pdfrwt beam="1">  1       21 0.13181071E-01 0.12500000E+03</pdfrwt>
<pdfrwt beam="2">  1       21 0.70142724E-02 0.12500000E+03</pdfrwt>
<totfact> 0.73194346E+06</totfact>
</mgrwt>
</event>
<event>
 3    1  0.1597250E-001  0.1250000E+03  0.7546771E-02  0.1235069E+00
         21   -1    0    0  502  501  0.00000000000E+00  0.00000000000E+00  0.89494847006E+02  0.89494847006E+02  0.00000000000E+00 0. -1.
         21   -1    0    0  501  502 -0.00000000000E+00 -0.00000000000E+00 -0.43647764432E+02  0.43647764432E+02  0.00000000000E+00 0. -1.
         25    1    1    2    0    0  0.00000000000E+00  0.00000000000E+00  0.45847082575E+02  0.13314261144E+03  0.12500000000E+03 0.  0.
<mgrwt>
<rscale>  0 0.12500000E+03</rscale>
<asrwt>0</asrwt>
<pdfrwt beam="1">  1       21 0.13768438E-01 0.12500000E+03</pdfrwt>
<pdfrwt beam="2">  1       21 0.67150407E-02 0.12500000E+03</pdfrwt>
<totfact> 0.72943361E+06</totfact>
</mgrwt>
</event>
<event>
 3    1  0.1597250E-001  0.1250000E+03  0.7546771E-02  0.1235069E+00
         21   -1    0    0  502  501  0.00000000000E+00  0.00000000000E+00  0.41355275404E+03  0.41355275404E+03  0.00000000000E+00 0. -1.
         21   -1    0    0  501  502 -0.00000000000E+00 -0.00000000000E+00 -0.94455905850E+01  0.94455905850E+01  0.00000000000E+00 0. -1.
         25    1    1    2    0    0  0.00000000000E+00  0.00000000000E+00  0.40410716346E+03  0.42299834463E+03  0.12500000000E+03 0.  0.
<mgrwt>
<rscale>  0 0.12500000E+03</rscale>
<asrwt>0</asrwt>
<pdfrwt beam="1">  1       21 0.63623487E-01 0.12500000E+03</pdfrwt>
<pdfrwt beam="2">  1       21 0.14531681E-02 0.12500000E+03</pdfrwt>
<totfact> 0.46552397E+06</totfact>
</mgrwt>
</event>
<event>
 3    1  0.1597250E-001  0.1250000E+03  0.7546771E-02  0.1235069E+00
         21   -1    0    0  502  501  0.00000000000E+00  0.00000000000E+00  0.12023745050E+03  0.12023745050E+03  0.00000000000E+00 0. -1.
         21   -1    0    0  501  502 -0.00000000000E+00 -0.00000000000E+00 -0.32487797968E+02  0.32487797968E+02  0.00000000000E+00 0. -1.
         25    1    1    2    0    0  0.00000000000E+00  0.00000000000E+00  0.87749652533E+02  0.15272524847E+03  0.12500000000E+03 0.  0.
<mgrwt>
<rscale>  0 0.12500000E+03</rscale>
<asrwt>0</asrwt>
<pdfrwt beam="1">  1       21 0.18498069E-01 0.12500000E+03</pdfrwt>
<pdfrwt beam="2">  1       21 0.49981228E-02 0.12500000E+03</pdfrwt>
<totfact> 0.70418516E+06</totfact>
</mgrwt>
</event>
<event>
 3    1  0.1597250E-001  0.1250000E+03  0.7546771E-02  0.1235069E+00
         21   -1    0    0  502  501  0.00000000000E+00  0.00000000000E+00  0.18037479659E+03  0.18037479659E+03  0.00000000000E+00 0. -1.
         21   -1    0    0  501  502 -0.00000000000E+00 -0.00000000000E+00 -0.21656296078E+02  0.21656296078E+02  0.00000000000E+00 0. -1.
         25    1    1    2    0    0  0.00000000000E+00  0.00000000000E+00  0.15871850052E+03  0.20203109267E+03  0.12500000000E+03 0.  0.
<mgrwt>
<rscale>  0 0.12500000E+03</rscale>
<asrwt>0</asrwt>
<pdfrwt beam="1">  1       21 0.27749968E-01 0.12500000E+03</pdfrwt>
<pdfrwt beam="2">  1       21 0.33317380E-02 0.12500000E+03</pdfrwt>
<totfact> 0.64707833E+06</totfact>
</mgrwt>
</event>
<event>
 3    1  0.1597250E-001  0.1250000E+03  0.7546771E-02  0.1235069E+00
         21   -1    0    0  502  501  0.00000000000E+00  0.00000000000E+00  0.63623882316E+03  0.63623882316E+03  0.00000000000E+00 0.  1.
         21   -1    0    0  501  502 -0.00000000000E+00 -0.00000000000E+00 -0.61395970472E+01  0.61395970472E+01  0.00000000000E+00 0.  1.
         25    1    1    2    0    0  0.00000000000E+00  0.00000000000E+00  0.63009922611E+03  0.64237842021E+03  0.12500000000E+03 0.  0.
<mgrwt>
<rscale>  0 0.12500000E+03</rscale>
<asrwt>0</asrwt>
<pdfrwt beam="1">  1       21 0.97882844E-01 0.12500000E+03</pdfrwt>
<pdfrwt beam="2">  1       21 0.94455389E-03 0.12500000E+03</pdfrwt>
<totfact> 0.35243522E+06</totfact>
</mgrwt>
</event>
<event>
 3    1  0.1597250E-001  0.1250000E+03  0.7546771E-02  0.1235069E+00
         21   -1    0    0  502  501  0.00000000000E+00  0.00000000000E+00  0.65828450713E+03  0.65828450713E+03  0.00000000000E+00 0. -1.
         21   -1    0    0  501  502 -0.00000000000E+00 -0.00000000000E+00 -0.59339844059E+01  0.59339844059E+01  0.00000000000E+00 0. -1.
         25    1    1    2    0    0  0.00000000000E+00  0.00000000000E+00  0.65235052273E+03  0.66421849154E+03  0.12500000000E+03 0.  0.
<mgrwt>
<rscale>  0 0.12500000E+03</rscale>
<asrwt>0</asrwt>
<pdfrwt beam="1">  1       21 0.10127448E+00 0.12500000E+03</pdfrwt>
<pdfrwt beam="2">  1       21 0.91292120E-03 0.12500000E+03</pdfrwt>
<totfact> 0.34335746E+06</totfact>
</mgrwt>
</event>
<event>
 3    1  0.1597250E-001  0.1250000E+03  0.7546771E-02  0.1235069E+00
         21   -1    0    0  502  501  0.00000000000E+00  0.00000000000E+00  0.13409175884E+02  0.13409175884E+02  0.00000000000E+00 0. -1.
         21   -1    0    0  501  502 -0.00000000000E+00 -0.00000000000E+00 -0.29131171325E+03  0.29131171325E+03  0.00000000000E+00 0. -1.
         25    1    1    2    0    0  0.00000000000E+00  0.00000000000E+00 -0.27790253737E+03  0.30472088913E+03  0.12500000000E+03 0.  0.
<mgrwt>
<rscale>  0 0.12500000E+03</rscale>
<asrwt>0</asrwt>
<pdfrwt beam="1">  1       21 0.20629501E-02 0.12500000E+03</pdfrwt>
<pdfrwt beam="2">  1       21 0.44817187E-01 0.12500000E+03</pdfrwt>
<totfact> 0.55066117E+06</totfact>
</mgrwt>
</event>
<event>
 3    1  0.1597250E-001  0.1250000E+03  0.7546771E-02  0.1235069E+00
         21   -1    0    0  502  501  0.00000000000E+00  0.00000000000E+00  0.21310803095E+02  0.21310803095E+02  0.00000000000E+00 0. -1.
         21   -1    0    0  501  502 -0.00000000000E+00 -0.00000000000E+00 -0.18329905178E+03  0.18329905178E+03  0.00000000000E+00 0. -1.
         25    1    1    2    0    0  0.00000000000E+00  0.00000000000E+00 -0.16198824869E+03  0.20460985488E+03  0.12500000000E+03 0.  0.
<mgrwt>
<rscale>  0 0.12500000E+03</rscale>
<asrwt>0</asrwt>
<pdfrwt beam="1">  1       21 0.32785851E-02 0.12500000E+03</pdfrwt>
<pdfrwt beam="2">  1       21 0.28199854E-01 0.12500000E+03</pdfrwt>
<totfact> 0.64431141E+06</totfact>
</mgrwt>
</event>
<event>
 3    1  0.1597250E-001  0.1250000E+03  0.7546771E-02  0.1235069E+00
         21   -1    0    0  502  501  0.00000000000E+00  0.00000000000E+00  0.89739227529E+02  0.89739227529E+02  0.00000000000E+00 0.  1.
         21   -1    0    0  501  502 -0.00000000000E+00 -0.00000000000E+00 -0.43528901547E+02  0.43528901547E+02  0.00000000000E+00 0.  1.
         25    1    1    2    0    0  0.00000000000E+00  0.00000000000E+00  0.46210325982E+02  0.13326812908E+03  0.12500000000E+03 0.  0.
<mgrwt>
<rscale>  0 0.12500000E+03</rscale>
<asrwt>0</asrwt>
<pdfrwt beam="1">  1       21 0.13806035E-01 0.12500000E+03</pdfrwt>
<pdfrwt beam="2">  1       21 0.66967541E-02 0.12500000E+03</pdfrwt>
<totfact> 0.72926615E+06</totfact>
</mgrwt>
</event>
<event>
 3    1  0.1597250E-001  0.1250000E+03  0.7546771E-02  0.1235069E+00
         21   -1    0    0  502  501  0.00000000000E+00  0.00000000000E+00  0.14390319967E+03  0.14390319967E+03  0.00000000000E+00 0. -1.
         21   -1    0    0  501  502 -0.00000000000E+00 -0.00000000000E+00 -0.27144983634E+02  0.27144983634E+02  0.00000000000E+00 0. -1.
         25    1    1    2    0    0  0.00000000000E+00  0.00000000000E+00  0.11675821604E+03  0.17104818330E+03  0.12500000000E+03 0.  0.
<mgrwt>
<rscale>  0 0.12500000E+03</rscale>
<asrwt>0</asrwt>
<pdfrwt beam="1">  1       21 0.22138953E-01 0.12500000E+03</pdfrwt>
<pdfrwt beam="2">  1       21 0.41761514E-02 0.12500000E+03</pdfrwt>
<totfact> 0.68193596E+06</totfact>
</mgrwt>
</event>
<event>
 3    1  0.1597250E-001  0.1250000E+03  0.7546771E-02  0.1235069E+00
         21   -1    0    0  502  501  0.00000000000E+00  0.00000000000E+00  0.33277785817E+03  0.33277785817E+03  0.00000000000E+00 0.  1.
         21   -1    0    0  501  502 -0.00000000000E+00 -0.00000000000E+00 -0.11738311021E+02  0.11738311021E+02  0.00000000000E+00 0.  1.
         25    1    1    2    0    0  0.00000000000E+00  0.00000000000E+00  0.32103954715E+03  0.34451616919E+03  0.12500000000E+03 0.  0.
<mgrwt>
<rscale>  0 0.12500000E+03</rscale>
<asrwt>0</asrwt>
<pdfrwt beam="1">  1       21 0.51196586E-01 0.12500000E+03</pdfrwt>
<pdfrwt beam="2">  1       21 0.18058943E-02 0.12500000E+03</pdfrwt>
<totfact> 0.51945998E+06</totfact>
</mgrwt>
</event>
<event>
 3    1  0.1597250E-001  0.1250000E+03  0.7546771E-02  0.1235069E+00
         21   -1    0    0  502  501  0.00000000000E+00  0.00000000000E+00  0.23615477618E+03  0.23615477618E+03  0.00000000000E+00 0. -1.
         21   -1    0    0  501  502 -0.00000000000E+00 -0.00000000000E+00 -0.16541058636E+02  0.16541058636E+02  0.00000000000E+00 0. -1.
         25    1    1    2    0    0  0.00000000000E+00  0.00000000000E+00  0.21961371754E+03  0.25269583481E+03  0.12500000000E+03 0.  0.
<mgrwt>
<rscale>  0 0.12500000E+03</rscale>
<asrwt>0</asrwt>
<pdfrwt beam="1">  1       21 0.36331502E-01 0.12500000E+03</pdfrwt>
<pdfrwt beam="2">  1       21 0.25447784E-02 0.12500000E+03</pdfrwt>
<totfact> 0.59625306E+06</totfact>
</mgrwt>
</event>
<event>
 3    1  0.1597250E-001  0.1250000E+03  0.7546771E-02  0.1235069E+00
         21   -1    0    0  502  501  0.00000000000E+00  0.00000000000E+00  0.21193629661E+02  0.21193629661E+02  0.00000000000E+00 0. -1.
         21   -1    0    0  501  502 -0.00000000000E+00 -0.00000000000E+00 -0.18431245910E+03  0.18431245910E+03  0.00000000000E+00 0. -1.
         25    1    1    2    0    0  0.00000000000E+00  0.00000000000E+00 -0.16311882944E+03  0.20550608876E+03  0.12500000000E+03 0.  0.
<mgrwt>
<rscale>  0 0.12500000E+03</rscale>
<asrwt>0</asrwt>
<pdfrwt beam="1">  1       21 0.32605585E-02 0.12500000E+03</pdfrwt>
<pdfrwt beam="2">  1       21 0.28355762E-01 0.12500000E+03</pdfrwt>
<totfact> 0.64335470E+06</totfact>
</mgrwt>
</event>
<event>
 3    1  0.1597250E-001  0.1250000E+03  0.7546771E-02  0.1235069E+00
         21   -1    0    0  502  501  0.00000000000E+00  0.00000000000E+00  0.29506191345E+02  0.29506191345E+02  0.00000000000E+00 0. -1.
         21   -1    0    0  501  502 -0.00000000000E+00 -0.00000000000E+00 -0.13238746927E+03  0.13238746927E+03  0.00000000000E+00 0. -1.
         25    1    1    2    0    0  0.00000000000E+00  0.00000000000E+00 -0.10288127793E+03  0.16189366062E+03  0.12500000000E+03 0.  0.
<mgrwt>
<rscale>  0 0.12500000E+03</rscale>
<asrwt>0</asrwt>
<pdfrwt beam="1">  1       21 0.45394140E-02 0.12500000E+03</pdfrwt>
<pdfrwt beam="2">  1       21 0.20367303E-01 0.12500000E+03</pdfrwt>
<totfact> 0.69288848E+06</totfact>
</mgrwt>
</event>
<event>
 3    1  0.1597250E-001  0.1250000E+03  0.7546771E-02  0.1235069E+00
         21   -1    0    0  502  501  0.00000000000E+00  0.00000000000E+00  0.39750604695E+02  0.39750604695E+02  0.00000000000E+00 0. -1.
         21   -1    0    0  501  502 -0.00000000000E+00 -0.00000000000E+00 -0.98268945339E+02  0.98268945339E+02  0.00000000000E+00 0. -1.
         25    1    1    2    0    0  0.00000000000E+00  0.00000000000E+00 -0.58518340644E+02  0.13801955003E+03  0.12500000000E+03 0.  0.
<mgrwt>
<rscale>  0 0.12500000E+03</rscale>
<asrwt>0</asrwt>
<pdfrwt beam="1">  1       21 0.61154777E-02 0.12500000E+03</pdfrwt>
<pdfrwt beam="2">  1       21 0.15118299E-01 0.12500000E+03</pdfrwt>
<totfact> 0.72298918E+06</totfact>
</mgrwt>
</event>
<event>
 3    1  0.1597250E-001  0.1250000E+03  0.7546771E-02  0.1235069E+00
         21   -1    0    0  502  501  0.00000000000E+00  0.00000000000E+00  0.49791343853E+01  0.49791343853E+01  0.00000000000E+00 0. -1.
         21   -1    0    0  501  502 -0.00000000000E+00 -0.00000000000E+00 -0.78452391475E+03  0.78452391475E+03  0.00000000000E+00 0. -1.
         25    1    1    2    0    0  0.00000000000E+00  0.00000000000E+00 -0.77954478036E+03  0.78950304913E+03  0.12500000000E+03 0.  0.
<mgrwt>
<rscale>  0 0.12500000E+03</rscale>
<asrwt>0</asrwt>
<pdfrwt beam="1">  1       21 0.76602104E-03 0.12500000E+03</pdfrwt>
<pdfrwt beam="2">  1       21 0.12069593E+00 0.12500000E+03</pdfrwt>
<totfact> 0.29713585E+06</totfact>
</mgrwt>
</event>
<event>
 3    1  0.1597250E-001  0.1250000E+03  0.7546771E-02  0.1235069E+00
         21   -1    0    0  502  501  0.00000000000E+00  0.00000000000E+00  0.50855537544E+03  0.50855537544E+03  0.00000000000E+00 0.  1.
         21   -1    0    0  501  502 -0.00000000000E+00 -0.00000000000E+00 -0.76810711058E+01  0.76810711058E+01  0.00000000000E+00 0.  1.
         25    1    1    2    0    0  0.00000000000E+00  0.00000000000E+00  0.50087430433E+03  0.51623644655E+03  0.12500000000E+03 0.  0.
<mgrwt>
<rscale>  0 0.12500000E+03</rscale>
<asrwt>0</asrwt>
<pdfrwt beam="1">  1       21 0.78239262E-01 0.12500000E+03</pdfrwt>
<pdfrwt beam="2">  1       21 0.11817036E-02 0.12500000E+03</pdfrwt>
<totfact> 0.41177011E+06</totfact>
</mgrwt>
</event>
<event>
 3    1  0.1597250E-001  0.1250000E+03  0.7546771E-02  0.1235069E+00
         21   -1    0    0  502  501  0.00000000000E+00  0.00000000000E+00  0.61610528305E+03  0.61610528305E+03  0.00000000000E+00 0.  1.
         21   -1    0    0  501  502 -0.00000000000E+00 -0.00000000000E+00 -0.63402313005E+01  0.63402313005E+01  0.00000000000E+00 0.  1.
         25    1    1    2    0    0  0.00000000000E+00  0.00000000000E+00  0.60976505175E+03  0.62244551435E+03  0.12500000000E+03 0.  0.
<mgrwt>
<rscale>  0 0.12500000E+03</rscale>
<asrwt>0</asrwt>
<pdfrwt beam="1">  1       21 0.94785381E-01 0.12500000E+03</pdfrwt>
<pdfrwt beam="2">  1       21 0.97542069E-03 0.12500000E+03</pdfrwt>
<totfact> 0.36096853E+06</totfact>
</mgrwt>
</event>
<event>
 3    1  0.1597250E-001  0.1250000E+03  0.7546771E-02  0.1235069E+00
         21   -1    0    0  502  501  0.00000000000E+00  0.00000000000E+00  0.11260146473E+03  0.11260146473E+03  0.00000000000E+00 0.  1.
         21   -1    0    0  501  502 -0.00000000000E+00 -0.00000000000E+00 -0.34690934166E+02  0.34690934166E+02  0.00000000000E+00 0.  1.
         25    1    1    2    0    0  0.00000000000E+00  0.00000000000E+00  0.77910530564E+02  0.14729239890E+03  0.12500000000E+03 0.  0.
<mgrwt>
<rscale>  0 0.12500000E+03</rscale>
<asrwt>0</asrwt>
<pdfrwt beam="1">  1       21 0.17323302E-01 0.12500000E+03</pdfrwt>
<pdfrwt beam="2">  1       21 0.53370669E-02 0.12500000E+03</pdfrwt>
<totfact> 0.71101005E+06</totfact>
</mgrwt>
</event>
<event>
 3    1  0.1597250E-001  0.1250000E+03  0.7546771E-02  0.1235069E+00
         21   -1    0    0  502  501  0.00000000000E+00  0.00000000000E+00  0.36268993246E+03  0.36268993246E+03  0.00000000000E+00 0. -1.
         21   -1    0    0  501  502 -0.00000000000E+00 -0.00000000000E+00 -0.10770218995E+02  0.10770218995E+02  0.00000000000E+00 0. -1.
         25    1    1    2    0    0  0.00000000000E+00  0.00000000000E+00  0.35191971347E+03  0.37346015146E+03  0.12500000000E+03 0.  0.
<mgrwt>
<rscale>  0 0.12500000E+03</rscale>
<asrwt>0</asrwt>
<pdfrwt beam="1">  1       21 0.55798442E-01 0.12500000E+03</pdfrwt>
<pdfrwt beam="2">  1       21 0.16569571E-02 0.12500000E+03</pdfrwt>
<totfact> 0.49851148E+06</totfact>
</mgrwt>
</event>
<event>
 3    1  0.1597250E-001  0.1250000E+03  0.7546771E-02  0.1235069E+00
         21   -1    0    0  502  501  0.00000000000E+00  0.00000000000E+00  0.41022156876E+03  0.41022156876E+03  0.00000000000E+00 0. -1.
         21   -1    0    0  501  502 -0.00000000000E+00 -0.00000000000E+00 -0.95222930667E+01  0.95222930667E+01  0.00000000000E+00 0. -1.
         25    1    1    2    0    0  0.00000000000E+00  0.00000000000E+00  0.40069927569E+03  0.41974386182E+03  0.12500000000E+03 0.  0.
<mgrwt>
<rscale>  0 0.12500000E+03</rscale>
<asrwt>0</asrwt>
<pdfrwt beam="1">  1       21 0.63110997E-01 0.12500000E+03</pdfrwt>
<pdfrwt beam="2">  1       21 0.14649685E-02 0.12500000E+03</pdfrwt>
<totfact> 0.46758759E+06</totfact>
</mgrwt>
</event>
<event>
 3    1  0.1597250E-001  0.1250000E+03  0.7546771E-02  0.1235069E+00
         21   -1    0    0  502  501  0.00000000000E+00  0.00000000000E+00  0.18033892765E+02  0.18033892765E+02  0.00000000000E+00 0. -1.
         21   -1    0    0  501  502 -0.00000000000E+00 -0.00000000000E+00 -0.21660603459E+03  0.21660603459E+03  0.00000000000E+00 0. -1.
         25    1    1    2    0    0  0.00000000000E+00  0.00000000000E+00 -0.19857214183E+03  0.23463992736E+03  0.12500000000E+03 0.  0.
<mgrwt>
<rscale>  0 0.12500000E+03</rscale>
<asrwt>0</asrwt>
<pdfrwt beam="1">  1       21 0.27744449E-02 0.12500000E+03</pdfrwt>
<pdfrwt beam="2">  1       21 0.33324007E-01 0.12500000E+03</pdfrwt>
<totfact> 0.61355233E+06</totfact>
</mgrwt>
</event>
<event>
 3    1  0.1597250E-001  0.1250000E+03  0.7546771E-02  0.1235069E+00
         21   -1    0    0  502  501  0.00000000000E+00  0.00000000000E+00  0.30885389856E+02  0.30885389856E+02  0.00000000000E+00 0. -1.
         21   -1    0    0  501  502 -0.00000000000E+00 -0.00000000000E+00 -0.12647565785E+03  0.12647565785E+03  0.00000000000E+00 0. -1.
         25    1    1    2    0    0  0.00000000000E+00  0.00000000000E+00 -0.95590267996E+02  0.15736104771E+03  0.12500000000E+03 0.  0.
<mgrwt>
<rscale>  0 0.12500000E+03</rscale>
<asrwt>0</asrwt>
<pdfrwt beam="1">  1       21 0.47515985E-02 0.12500000E+03</pdfrwt>
<pdfrwt beam="2">  1       21 0.19457793E-01 0.12500000E+03</pdfrwt>
<totfact> 0.69843393E+06</totfact>
</mgrwt>
</event>
<event>
 3    1  0.1597250E-001  0.1250000E+03  0.7546771E-02  0.1235069E+00
         21   -1    0    0  502  501  0.00000000000E+00  0.00000000000E+00  0.27980800133E+01  0.27980800133E+01  0.00000000000E+00 0. -1.
         21   -1    0    0  501  502 -0.00000000000E+00 -0.00000000000E+00 -0.13960465682E+04  0.13960465682E+04  0.00000000000E+00 0. -1.
         25    1    1    2    0    0  0.00000000000E+00  0.00000000000E+00 -0.13932484882E+04  0.13988446482E+04  0.12500000000E+03 0.  0.
<mgrwt>
<rscale>  0 0.12500000E+03</rscale>
<asrwt>0</asrwt>
<pdfrwt beam="1">  1       21 0.43047401E-03 0.12500000E+03</pdfrwt>
<pdfrwt beam="2">  1       21 0.21477631E+00 0.12500000E+03</pdfrwt>
<totfact> 0.15563599E+06</totfact>
</mgrwt>
</event>
<event>
 3    1  0.1597250E-001  0.1250000E+03  0.7546771E-02  0.1235069E+00
         21   -1    0    0  502  501  0.00000000000E+00  0.00000000000E+00  0.43658965226E+03  0.43658965226E+03  0.00000000000E+00 0.  1.
         21   -1    0    0  501  502 -0.00000000000E+00 -0.00000000000E+00 -0.89471886927E+01  0.89471886927E+01  0.00000000000E+00 0.  1.
         25    1    1    2    0    0  0.00000000000E+00  0.00000000000E+00  0.42764246356E+03  0.44553684095E+03  0.12500000000E+03 0.  0.
<mgrwt>
<rscale>  0 0.12500000E+03</rscale>
<asrwt>0</asrwt>
<pdfrwt beam="1">  1       21 0.67167622E-01 0.12500000E+03</pdfrwt>
<pdfrwt beam="2">  1       21 0.13764909E-02 0.12500000E+03</pdfrwt>
<totfact> 0.45160550E+06</totfact>
</mgrwt>
</event>
<event>
 3    1  0.1597250E-001  0.1250000E+03  0.7546771E-02  0.1235069E+00
         21   -1    0    0  502  501  0.00000000000E+00  0.00000000000E+00  0.16162655821E+04  0.16162655821E+04  0.00000000000E+00 0.  1.
         21   -1    0    0  501  502 -0.00000000000E+00 -0.00000000000E+00 -0.24168367150E+01  0.24168367150E+01  0.00000000000E+00 0.  1.
         25    1    1    2    0    0  0.00000000000E+00  0.00000000000E+00  0.16138487454E+04  0.16186824188E+04  0.12500000000E+03 0.  0.
<mgrwt>
<rscale>  0 0.12500000E+03</rscale>
<asrwt>0</asrwt>
<pdfrwt beam="1">  1       21 0.24865538E+00 0.12500000E+03</pdfrwt>
<pdfrwt beam="2">  1       21 0.37182233E-03 0.12500000E+03</pdfrwt>
<totfact> 0.12321843E+06</totfact>
</mgrwt>
</event>
<event>
 3    1  0.1597250E-001  0.1250000E+03  0.7546771E-02  0.1235069E+00
         21   -1    0    0  502  501  0.00000000000E+00  0.00000000000E+00  0.11882518904E+02  0.11882518904E+02  0.00000000000E+00 0. -1.
         21   -1    0    0  501  502 -0.00000000000E+00 -0.00000000000E+00 -0.32873922032E+03  0.32873922032E+03  0.00000000000E+00 0. -1.
         25    1    1    2    0    0  0.00000000000E+00  0.00000000000E+00 -0.31685670142E+03  0.34062173923E+03  0.12500000000E+03 0.  0.
<mgrwt>
<rscale>  0 0.12500000E+03</rscale>
<asrwt>0</asrwt>
<pdfrwt beam="1">  1       21 0.18280799E-02 0.12500000E+03</pdfrwt>
<pdfrwt beam="2">  1       21 0.50575263E-01 0.12500000E+03</pdfrwt>
<totfact> 0.52238590E+06</totfact>
</mgrwt>
</event>
<event>
 3    1  0.1597250E-001  0.1250000E+03  0.7546771E-02  0.1235069E+00
         21   -1    0    0  502  501  0.00000000000E+00  0.00000000000E+00  0.41409042820E+01  0.41409042820E+01  0.00000000000E+00 0.  1.
         21   -1    0    0  501  502 -0.00000000000E+00 -0.00000000000E+00 -0.94333259936E+03  0.94333259936E+03  0.00000000000E+00 0.  1.
         25    1    1    2    0    0  0.00000000000E+00  0.00000000000E+00 -0.93919169508E+03  0.94747350364E+03  0.12500000000E+03 0.  0.
<mgrwt>
<rscale>  0 0.12500000E+03</rscale>
<asrwt>0</asrwt>
<pdfrwt beam="1">  1       21 0.63706237E-03 0.12500000E+03</pdfrwt>
<pdfrwt beam="2">  1       21 0.14512805E+00 0.12500000E+03</pdfrwt>
<totfact> 0.24979177E+06</totfact>
</mgrwt>
</event>
<event>
 3    1  0.1597250E-001  0.1250000E+03  0.7546771E-02  0.1235069E+00
         21   -1    0    0  502  501  0.00000000000E+00  0.00000000000E+00  0.21213477491E+03  0.21213477491E+03  0.00000000000E+00 0.  1.
         21   -1    0    0  501  502 -0.00000000000E+00 -0.00000000000E+00 -0.18414001201E+02  0.18414001201E+02  0.00000000000E+00 0.  1.
         25    1    1    2    0    0  0.00000000000E+00  0.00000000000E+00  0.19372077371E+03  0.23054877611E+03  0.12500000000E+03 0.  0.
<mgrwt>
<rscale>  0 0.12500000E+03</rscale>
<asrwt>0</asrwt>
<pdfrwt beam="1">  1       21 0.32636118E-01 0.12500000E+03</pdfrwt>
<pdfrwt beam="2">  1       21 0.28329234E-02 0.12500000E+03</pdfrwt>
<totfact> 0.61759410E+06</totfact>
</mgrwt>
</event>
<event>
 3    1  0.1597250E-001  0.1250000E+03  0.7546771E-02  0.1235069E+00
         21   -1    0    0  502  501  0.00000000000E+00  0.00000000000E+00  0.13763886875E+02  0.13763886875E+02  0.00000000000E+00 0.  1.
         21   -1    0    0  501  502 -0.00000000000E+00 -0.00000000000E+00 -0.28380427966E+03  0.28380427966E+03  0.00000000000E+00 0.  1.
         25    1    1    2    0    0  0.00000000000E+00  0.00000000000E+00 -0.27004039279E+03  0.29756816654E+03  0.12500000000E+03 0.  0.
<mgrwt>
<rscale>  0 0.12500000E+03</rscale>
<asrwt>0</asrwt>
<pdfrwt beam="1">  1       21 0.21175211E-02 0.12500000E+03</pdfrwt>
<pdfrwt beam="2">  1       21 0.43662196E-01 0.12500000E+03</pdfrwt>
<totfact> 0.55658876E+06</totfact>
</mgrwt>
</event>
<event>
 3    1  0.1597250E-001  0.1250000E+03  0.7546771E-02  0.1235069E+00
         21   -1    0    0  502  501  0.00000000000E+00  0.00000000000E+00  0.58319446188E+02  0.58319446188E+02  0.00000000000E+00 0.  1.
         21   -1    0    0  501  502 -0.00000000000E+00 -0.00000000000E+00 -0.66980231387E+02  0.66980231387E+02  0.00000000000E+00 0.  1.
         25    1    1    2    0    0  0.00000000000E+00  0.00000000000E+00 -0.86607851990E+01  0.12529967757E+03  0.12500000000E+03 0.  0.
<mgrwt>
<rscale>  0 0.12500000E+03</rscale>
<asrwt>0</asrwt>
<pdfrwt beam="1">  1       21 0.89722225E-02 0.12500000E+03</pdfrwt>
<pdfrwt beam="2">  1       21 0.10304651E-01 0.12500000E+03</pdfrwt>
<totfact> 0.74003115E+06</totfact>
</mgrwt>
</event>
<event>
 3    1  0.1597250E-001  0.1250000E+03  0.7546771E-02  0.1235069E+00
         21   -1    0    0  502  501  0.00000000000E+00  0.00000000000E+00  0.10529335855E+03  0.10529335855E+03  0.00000000000E+00 0.  1.
         21   -1    0    0  501  502 -0.00000000000E+00 -0.00000000000E+00 -0.37098731144E+02  0.37098731144E+02  0.00000000000E+00 0.  1.
         25    1    1    2    0    0  0.00000000000E+00  0.00000000000E+00  0.68194627405E+02  0.14239208969E+03  0.12500000000E+03 0.  0.
<mgrwt>
<rscale>  0 0.12500000E+03</rscale>
<asrwt>0</asrwt>
<pdfrwt beam="1">  1       21 0.16198978E-01 0.12500000E+03</pdfrwt>
<pdfrwt beam="2">  1       21 0.57074972E-02 0.12500000E+03</pdfrwt>
<totfact> 0.71728544E+06</totfact>
</mgrwt>
</event>
<event>
 3    1  0.1597250E-001  0.1250000E+03  0.7546771E-02  0.1235069E+00
         21   -1    0    0  502  501  0.00000000000E+00  0.00000000000E+00  0.68748730460E+02  0.68748730460E+02  0.00000000000E+00 0.  1.
         21   -1    0    0  501  502 -0.00000000000E+00 -0.00000000000E+00 -0.56819231044E+02  0.56819231044E+02  0.00000000000E+00 0.  1.
         25    1    1    2    0    0  0.00000000000E+00  0.00000000000E+00  0.11929499416E+02  0.12556796150E+03  0.12500000000E+03 0.  0.
<mgrwt>
<rscale>  0 0.12500000E+03</rscale>
<asrwt>0</asrwt>
<pdfrwt beam="1">  1       21 0.10576728E-01 0.12500000E+03</pdfrwt>
<pdfrwt beam="2">  1       21 0.87414202E-02 0.12500000E+03</pdfrwt>
<totfact> 0.73965907E+06</totfact>
</mgrwt>
</event>
<event>
 3    1  0.1597250E-001  0.1250000E+03  0.7546771E-02  0.1235069E+00
         21   -1    0    0  502  501  0.00000000000E+00  0.00000000000E+00  0.79950955248E+02  0.79950955248E+02  0.00000000000E+00 0. -1.
         21   -1    0    0  501  502 -0.00000000000E+00 -0.00000000000E+00 -0.48858077904E+02  0.48858077904E+02  0.00000000000E+00 0. -1.
         25    1    1    2    0    0  0.00000000000E+00  0.00000000000E+00  0.31092877343E+02  0.12880903315E+03  0.12500000000E+03 0.  0.
<mgrwt>
<rscale>  0 0.12500000E+03</rscale>
<asrwt>0</asrwt>
<pdfrwt beam="1">  1       21 0.12300147E-01 0.12500000E+03</pdfrwt>
<pdfrwt beam="2">  1       21 0.75166274E-02 0.12500000E+03</pdfrwt>
<totfact> 0.73524541E+06</totfact>
</mgrwt>
</event>
<event>
 3    1  0.1597250E-001  0.1250000E+03  0.7546771E-02  0.1235069E+00
         21   -1    0    0  502  501  0.00000000000E+00  0.00000000000E+00  0.10241630892E+03  0.10241630892E+03  0.00000000000E+00 0.  1.
         21   -1    0    0  501  502 -0.00000000000E+00 -0.00000000000E+00 -0.38140898077E+02  0.38140898077E+02  0.00000000000E+00 0.  1.
         25    1    1    2    0    0  0.00000000000E+00  0.00000000000E+00  0.64275410846E+02  0.14055720700E+03  0.12500000000E+03 0.  0.
<mgrwt>
<rscale>  0 0.12500000E+03</rscale>
<asrwt>0</asrwt>
<pdfrwt beam="1">  1       21 0.15756355E-01 0.12500000E+03</pdfrwt>
<pdfrwt beam="2">  1       21 0.58678305E-02 0.12500000E+03</pdfrwt>
<totfact> 0.71966649E+06</totfact>
</mgrwt>
</event>
<event>
 3    1  0.1597250E-001  0.1250000E+03  0.7546771E-02  0.1235069E+00
         21   -1    0    0  502  501  0.00000000000E+00  0.00000000000E+00  0.41882065701E+02  0.41882065701E+02  0.00000000000E+00 0. -1.
         21   -1    0    0  501  502 -0.00000000000E+00 -0.00000000000E+00 -0.93267844711E+02  0.93267844711E+02  0.00000000000E+00 0. -1.
         25    1    1    2    0    0  0.00000000000E+00  0.00000000000E+00 -0.51385779009E+02  0.13514991041E+03  0.12500000000E+03 0.  0.
<mgrwt>
<rscale>  0 0.12500000E+03</rscale>
<asrwt>0</asrwt>
<pdfrwt beam="1">  1       21 0.64433947E-02 0.12500000E+03</pdfrwt>
<pdfrwt beam="2">  1       21 0.14348899E-01 0.12500000E+03</pdfrwt>
<totfact> 0.72676629E+06</totfact>
</mgrwt>
</event>
<event>
 3    1  0.1597250E-001  0.1250000E+03  0.7546771E-02  0.1235069E+00
         21   -1    0    0  502  501  0.00000000000E+00  0.00000000000E+00  0.41104010005E+02  0.41104010005E+02  0.00000000000E+00 0. -1.
         21   -1    0    0  501  502 -0.00000000000E+00 -0.00000000000E+00 -0.95033306957E+02  0.95033306957E+02  0.00000000000E+00 0. -1.
         25    1    1    2    0    0  0.00000000000E+00  0.00000000000E+00 -0.53929296951E+02  0.13613731696E+03  0.12500000000E+03 0.  0.
<mgrwt>
<rscale>  0 0.12500000E+03</rscale>
<asrwt>0</asrwt>
<pdfrwt beam="1">  1       21 0.63236939E-02 0.12500000E+03</pdfrwt>
<pdfrwt beam="2">  1       21 0.14620509E-01 0.12500000E+03</pdfrwt>
<totfact> 0.72546232E+06</totfact>
</mgrwt>
</event>
<event>
 3    1  0.1597250E-001  0.1250000E+03  0.7546771E-02  0.1235069E+00
         21   -1    0    0  502  501  0.00000000000E+00  0.00000000000E+00  0.74279247906E+03  0.74279247906E+03  0.00000000000E+00 0. -1.
         21   -1    0    0  501  502 -0.00000000000E+00 -0.00000000000E+00 -0.52588712327E+01  0.52588712327E+01  0.00000000000E+00 0. -1.
         25    1    1    2    0    0  0.00000000000E+00  0.00000000000E+00  0.73753360783E+03  0.74805135029E+03  0.12500000000E+03 0.  0.
<mgrwt>
<rscale>  0 0.12500000E+03</rscale>
<asrwt>0</asrwt>
<pdfrwt beam="1">  1       21 0.11427568E+00 0.12500000E+03</pdfrwt>
<pdfrwt beam="2">  1       21 0.80905770E-03 0.12500000E+03</pdfrwt>
<totfact> 0.31137533E+06</totfact>
</mgrwt>
</event>
<event>
 3    1  0.1597250E-001  0.1250000E+03  0.7546771E-02  0.1235069E+00
         21   -1    0    0  502  501  0.00000000000E+00  0.00000000000E+00  0.21410839134E+02  0.21410839134E+02  0.00000000000E+00 0. -1.
         21   -1    0    0  501  502 -0.00000000000E+00 -0.00000000000E+00 -0.18244263924E+03  0.18244263924E+03  0.00000000000E+00 0. -1.
         25    1    1    2    0    0  0.00000000000E+00  0.00000000000E+00 -0.16103180011E+03  0.20385347838E+03  0.12500000000E+03 0.  0.
<mgrwt>
<rscale>  0 0.12500000E+03</rscale>
<asrwt>0</asrwt>
<pdfrwt beam="1">  1       21 0.32939752E-02 0.12500000E+03</pdfrwt>
<pdfrwt beam="2">  1       21 0.28068099E-01 0.12500000E+03</pdfrwt>
<totfact> 0.64512078E+06</totfact>
</mgrwt>
</event>
<event>
 3    1  0.1597250E-001  0.1250000E+03  0.7546771E-02  0.1235069E+00
         21   -1    0    0  502  501  0.00000000000E+00  0.00000000000E+00  0.62820288735E+03  0.62820288735E+03  0.00000000000E+00 0.  1.
         21   -1    0    0  501  502 -0.00000000000E+00 -0.00000000000E+00 -0.62181344255E+01  0.62181344255E+01  0.00000000000E+00 0.  1.
         25    1    1    2    0    0  0.00000000000E+00  0.00000000000E+00  0.62198475292E+03  0.63442102178E+03  0.12500000000E+03 0.  0.
<mgrwt>
<rscale>  0 0.12500000E+03</rscale>
<asrwt>0</asrwt>
<pdfrwt beam="1">  1       21 0.96646548E-01 0.12500000E+03</pdfrwt>
<pdfrwt beam="2">  1       21 0.95663656E-03 0.12500000E+03</pdfrwt>
<totfact> 0.35580854E+06</totfact>
</mgrwt>
</event>
<event>
 3    1  0.1597250E-001  0.1250000E+03  0.7546771E-02  0.1235069E+00
         21   -1    0    0  502  501  0.00000000000E+00  0.00000000000E+00  0.20237774672E+03  0.20237774672E+03  0.00000000000E+00 0.  1.
         21   -1    0    0  501  502 -0.00000000000E+00 -0.00000000000E+00 -0.19301776323E+02  0.19301776323E+02  0.00000000000E+00 0.  1.
         25    1    1    2    0    0  0.00000000000E+00  0.00000000000E+00  0.18307597040E+03  0.22167952305E+03  0.12500000000E+03 0.  0.
<mgrwt>
<rscale>  0 0.12500000E+03</rscale>
<asrwt>0</asrwt>
<pdfrwt beam="1">  1       21 0.31135036E-01 0.12500000E+03</pdfrwt>
<pdfrwt beam="2">  1       21 0.29695042E-02 0.12500000E+03</pdfrwt>
<totfact> 0.62651278E+06</totfact>
</mgrwt>
</event>
<event>
 3    1  0.1597250E-001  0.1250000E+03  0.7546771E-02  0.1235069E+00
         21   -1    0    0  502  501  0.00000000000E+00  0.00000000000E+00  0.15206479490E+02  0.15206479490E+02  0.00000000000E+00 0. -1.
         21   -1    0    0  501  502 -0.00000000000E+00 -0.00000000000E+00 -0.25688062793E+03  0.25688062793E+03  0.00000000000E+00 0. -1.
         25    1    1    2    0    0  0.00000000000E+00  0.00000000000E+00 -0.24167414844E+03  0.27208710742E+03  0.12500000000E+03 0.  0.
<mgrwt>
<rscale>  0 0.12500000E+03</rscale>
<asrwt>0</asrwt>
<pdfrwt beam="1">  1       21 0.23394584E-02 0.12500000E+03</pdfrwt>
<pdfrwt beam="2">  1       21 0.39520097E-01 0.12500000E+03</pdfrwt>
<totfact> 0.57858654E+06</totfact>
</mgrwt>
</event>
<event>
 3    1  0.1597250E-001  0.1250000E+03  0.7546771E-02  0.1235069E+00
         21   -1    0    0  502  501  0.00000000000E+00  0.00000000000E+00  0.37265401580E+02  0.37265401580E+02  0.00000000000E+00 0. -1.
         21   -1    0    0  501  502 -0.00000000000E+00 -0.00000000000E+00 -0.10482243138E+03  0.10482243138E+03  0.00000000000E+00 0. -1.
         25    1    1    2    0    0  0.00000000000E+00  0.00000000000E+00 -0.67557029801E+02  0.14208783296E+03  0.12500000000E+03 0.  0.
<mgrwt>
<rscale>  0 0.12500000E+03</rscale>
<asrwt>0</asrwt>
<pdfrwt beam="1">  1       21 0.57331389E-02 0.12500000E+03</pdfrwt>
<pdfrwt beam="2">  1       21 0.16126527E-01 0.12500000E+03</pdfrwt>
<totfact> 0.71767905E+06</totfact>
</mgrwt>
</event>
<event>
 3    1  0.1597250E-001  0.1250000E+03  0.7546771E-02  0.1235069E+00
         21   -1    0    0  502  501  0.00000000000E+00  0.00000000000E+00  0.12651102570E+02  0.12651102570E+02  0.00000000000E+00 0. -1.
         21   -1    0    0  501  502 -0.00000000000E+00 -0.00000000000E+00 -0.30876755431E+03  0.30876755431E+03  0.00000000000E+00 0. -1.
         25    1    1    2    0    0  0.00000000000E+00  0.00000000000E+00 -0.29611645174E+03  0.32141865688E+03  0.12500000000E+03 0.  0.
<mgrwt>
<rscale>  0 0.12500000E+03</rscale>
<asrwt>0</asrwt>
<pdfrwt beam="1">  1       21 0.19463236E-02 0.12500000E+03</pdfrwt>
<pdfrwt beam="2">  1       21 0.47502698E-01 0.12500000E+03</pdfrwt>
<totfact> 0.53721114E+06</totfact>
</mgrwt>
</event>
<event>
 3    1  0.1597250E-001  0.1250000E+03  0.7546771E-02  0.1235069E+00
         21   -1    0    0  502  501  0.00000000000E+00  0.00000000000E+00  0.24355245028E+02  0.24355245028E+02  0.00000000000E+00 0. -1.
         21   -1    0    0  501  502 -0.00000000000E+00 -0.00000000000E+00 -0.16038639708E+03  0.16038639708E+03  0.00000000000E+00 0. -1.
         25    1    1    2    0    0  0.00000000000E+00  0.00000000000E+00 -0.13603115205E+03  0.18474164210E+03  0.12500000000E+03 0.  0.
<mgrwt>
<rscale>  0 0.12500000E+03</rscale>
<asrwt>0</asrwt>
<pdfrwt beam="1">  1       21 0.37469608E-02 0.12500000E+03</pdfrwt>
<pdfrwt beam="2">  1       21 0.24674830E-01 0.12500000E+03</pdfrwt>
<totfact> 0.66611710E+06</totfact>
</mgrwt>
</event>
<event>
 3    1  0.1597250E-001  0.1250000E+03  0.7546771E-02  0.1235069E+00
         21   -1    0    0  502  501  0.00000000000E+00  0.00000000000E+00  0.86475057425E+01  0.86475057425E+01  0.00000000000E+00 0.  1.
         21   -1    0    0  501  502 -0.00000000000E+00 -0.00000000000E+00 -0.45171985036E+03  0.45171985036E+03  0.00000000000E+00 0.  1.
         25    1    1    2    0    0  0.00000000000E+00  0.00000000000E+00 -0.44307234462E+03  0.46036735611E+03  0.12500000000E+03 0.  0.
<mgrwt>
<rscale>  0 0.12500000E+03</rscale>
<asrwt>0</asrwt>
<pdfrwt beam="1">  1       21 0.13303851E-02 0.12500000E+03</pdfrwt>
<pdfrwt beam="2">  1       21 0.69495382E-01 0.12500000E+03</pdfrwt>
<totfact> 0.44278331E+06</totfact>
</mgrwt>
</event>
<event>
 3    1  0.1597250E-001  0.1250000E+03  0.7546771E-02  0.1235069E+00
         21   -1    0    0  502  501  0.00000000000E+00  0.00000000000E+00  0.16114254297E+03  0.16114254297E+03  0.00000000000E+00 0. -1.
         21   -1    0    0  501  502 -0.00000000000E+00 -0.00000000000E+00 -0.24240960382E+02  0.24240960382E+02  0.00000000000E+00 0. -1.
         25    1    1    2    0    0  0.00000000000E+00  0.00000000000E+00  0.13690158259E+03  0.18538350335E+03  0.12500000000E+03 0.  0.
<mgrwt>
<rscale>  0 0.12500000E+03</rscale>
<asrwt>0</asrwt>
<pdfrwt beam="1">  1       21 0.24791160E-01 0.12500000E+03</pdfrwt>
<pdfrwt beam="2">  1       21 0.37293786E-02 0.12500000E+03</pdfrwt>
<totfact> 0.66539260E+06</totfact>
</mgrwt>
</event>
<event>
 3    1  0.1597250E-001  0.1250000E+03  0.7546771E-02  0.1235069E+00
         21   -1    0    0  502  501  0.00000000000E+00  0.00000000000E+00  0.60138535160E+03  0.60138535160E+03  0.00000000000E+00 0. -1.
         21   -1    0    0  501  502 -0.00000000000E+00 -0.00000000000E+00 -0.64954192675E+01  0.64954192675E+01  0.00000000000E+00 0. -1.
         25    1    1    2    0    0  0.00000000000E+00  0.00000000000E+00  0.59488993234E+03  0.60788077087E+03  0.12500000000E+03 0.  0.
<mgrwt>
<rscale>  0 0.12500000E+03</rscale>
<asrwt>0</asrwt>
<pdfrwt beam="1">  1       21 0.92520779E-01 0.12500000E+03</pdfrwt>
<pdfrwt beam="2">  1       21 0.99929575E-03 0.12500000E+03</pdfrwt>
<totfact> 0.36738654E+06</totfact>
</mgrwt>
</event>
<event>
 3    1  0.1597250E-001  0.1250000E+03  0.7546771E-02  0.1235069E+00
         21   -1    0    0  502  501  0.00000000000E+00  0.00000000000E+00  0.13932605520E+03  0.13932605520E+03  0.00000000000E+00 0. -1.
         21   -1    0    0  501  502 -0.00000000000E+00 -0.00000000000E+00 -0.28036751592E+02  0.28036751592E+02  0.00000000000E+00 0. -1.
         25    1    1    2    0    0  0.00000000000E+00  0.00000000000E+00  0.11128930361E+03  0.16736280679E+03  0.12500000000E+03 0.  0.
<mgrwt>
<rscale>  0 0.12500000E+03</rscale>
<asrwt>0</asrwt>
<pdfrwt beam="1">  1       21 0.21434777E-01 0.12500000E+03</pdfrwt>
<pdfrwt beam="2">  1       21 0.43133465E-02 0.12500000E+03</pdfrwt>
<totfact> 0.68630845E+06</totfact>
</mgrwt>
</event>
<event>
 3    1  0.1597250E-001  0.1250000E+03  0.7546771E-02  0.1235069E+00
         21   -1    0    0  502  501  0.00000000000E+00  0.00000000000E+00  0.70123184313E+03  0.70123184313E+03  0.00000000000E+00 0.  1.
         21   -1    0    0  501  502 -0.00000000000E+00 -0.00000000000E+00 -0.55705542158E+01  0.55705542158E+01  0.00000000000E+00 0.  1.
         25    1    1    2    0    0  0.00000000000E+00  0.00000000000E+00  0.69566128892E+03  0.70680239735E+03  0.12500000000E+03 0.  0.
<mgrwt>
<rscale>  0 0.12500000E+03</rscale>
<asrwt>0</asrwt>
<pdfrwt beam="1">  1       21 0.10788175E+00 0.12500000E+03</pdfrwt>
<pdfrwt beam="2">  1       21 0.85700889E-03 0.12500000E+03</pdfrwt>
<totfact> 0.32649546E+06</totfact>
</mgrwt>
</event>
<event>
 3    1  0.1597250E-001  0.1250000E+03  0.7546771E-02  0.1235069E+00
         21   -1    0    0  502  501  0.00000000000E+00  0.00000000000E+00  0.79781549676E+03  0.79781549676E+03  0.00000000000E+00 0. -1.
         21   -1    0    0  501  502 -0.00000000000E+00 -0.00000000000E+00 -0.48961821572E+01  0.48961821572E+01  0.00000000000E+00 0. -1.
         25    1    1    2    0    0  0.00000000000E+00  0.00000000000E+00  0.79291931460E+03  0.80271167892E+03  0.12500000000E+03 0.  0.
<mgrwt>
<rscale>  0 0.12500000E+03</rscale>
<asrwt>0</asrwt>
<pdfrwt beam="1">  1       21 0.12274074E+00 0.12500000E+03</pdfrwt>
<pdfrwt beam="2">  1       21 0.75325943E-03 0.12500000E+03</pdfrwt>
<totfact> 0.29273188E+06</totfact>
</mgrwt>
</event>
<event>
 3    1  0.1597250E-001  0.1250000E+03  0.7546771E-02  0.1235069E+00
         21   -1    0    0  502  501  0.00000000000E+00  0.00000000000E+00  0.57611899275E+03  0.57611899275E+03  0.00000000000E+00 0. -1.
         21   -1    0    0  501  502 -0.00000000000E+00 -0.00000000000E+00 -0.67802833254E+01  0.67802833254E+01  0.00000000000E+00 0. -1.
         25    1    1    2    0    0  0.00000000000E+00  0.00000000000E+00  0.56933870943E+03  0.58289927608E+03  0.12500000000E+03 0.  0.
<mgrwt>
<rscale>  0 0.12500000E+03</rscale>
<asrwt>0</asrwt>
<pdfrwt beam="1">  1       21 0.88633653E-01 0.12500000E+03</pdfrwt>
<pdfrwt beam="2">  1       21 0.10431210E-02 0.12500000E+03</pdfrwt>
<totfact> 0.37877598E+06</totfact>
</mgrwt>
</event>
<event>
 3    1  0.1597250E-001  0.1250000E+03  0.7546771E-02  0.1235069E+00
         21   -1    0    0  502  501  0.00000000000E+00  0.00000000000E+00  0.52560091807E+02  0.52560091807E+02  0.00000000000E+00 0. -1.
         21   -1    0    0  501  502 -0.00000000000E+00 -0.00000000000E+00 -0.74319695147E+02  0.74319695147E+02  0.00000000000E+00 0. -1.
         25    1    1    2    0    0  0.00000000000E+00  0.00000000000E+00 -0.21759603340E+02  0.12687978695E+03  0.12500000000E+03 0.  0.
<mgrwt>
<rscale>  0 0.12500000E+03</rscale>
<asrwt>0</asrwt>
<pdfrwt beam="1">  1       21 0.80861680E-02 0.12500000E+03</pdfrwt>
<pdfrwt beam="2">  1       21 0.11433799E-01 0.12500000E+03</pdfrwt>
<totfact> 0.73785510E+06</totfact>
</mgrwt>
</event>
<event>
 3    1  0.1597250E-001  0.1250000E+03  0.7546771E-02  0.1235069E+00
         21   -1    0    0  502  501  0.00000000000E+00  0.00000000000E+00  0.11406468090E+02  0.11406468090E+02  0.00000000000E+00 0. -1.
         21   -1    0    0  501  502 -0.00000000000E+00 -0.00000000000E+00 -0.34245920552E+03  0.34245920552E+03  0.00000000000E+00 0. -1.
         25    1    1    2    0    0  0.00000000000E+00  0.00000000000E+00 -0.33105273743E+03  0.35386567361E+03  0.12500000000E+03 0.  0.
<mgrwt>
<rscale>  0 0.12500000E+03</rscale>
<asrwt>0</asrwt>
<pdfrwt beam="1">  1       21 0.17548414E-02 0.12500000E+03</pdfrwt>
<pdfrwt beam="2">  1       21 0.52686026E-01 0.12500000E+03</pdfrwt>
<totfact> 0.51254205E+06</totfact>
</mgrwt>
</event>
<event>
 3    1  0.1597250E-001  0.1250000E+03  0.7546771E-02  0.1235069E+00
         21   -1    0    0  502  501  0.00000000000E+00  0.00000000000E+00  0.67588468337E+01  0.67588468337E+01  0.00000000000E+00 0. -1.
         21   -1    0    0  501  502 -0.00000000000E+00 -0.00000000000E+00 -0.57794622310E+03  0.57794622310E+03  0.00000000000E+00 0. -1.
         25    1    1    2    0    0  0.00000000000E+00  0.00000000000E+00 -0.57118737626E+03  0.58470506993E+03  0.12500000000E+03 0.  0.
<mgrwt>
<rscale>  0 0.12500000E+03</rscale>
<asrwt>0</asrwt>
<pdfrwt beam="1">  1       21 0.10398222E-02 0.12500000E+03</pdfrwt>
<pdfrwt beam="2">  1       21 0.88914836E-01 0.12500000E+03</pdfrwt>
<totfact> 0.37793577E+06</totfact>
</mgrwt>
</event>
<event>
 3    1  0.1597250E-001  0.1250000E+03  0.7546771E-02  0.1235069E+00
         21   -1    0    0  502  501  0.00000000000E+00  0.00000000000E+00  0.55399598108E+02  0.55399598108E+02  0.00000000000E+00 0.  1.
         21   -1    0    0  501  502 -0.00000000000E+00 -0.00000000000E+00 -0.70510439306E+02  0.70510439306E+02  0.00000000000E+00 0.  1.
         25    1    1    2    0    0  0.00000000000E+00  0.00000000000E+00 -0.15110841198E+02  0.12591003741E+03  0.12500000000E+03 0.  0.
<mgrwt>
<rscale>  0 0.12500000E+03</rscale>
<asrwt>0</asrwt>
<pdfrwt beam="1">  1       21 0.85230152E-02 0.12500000E+03</pdfrwt>
<pdfrwt beam="2">  1       21 0.10847760E-01 0.12500000E+03</pdfrwt>
<totfact> 0.73918454E+06</totfact>
</mgrwt>
</event>
<event>
 3    1  0.1597250E-001  0.1250000E+03  0.7546771E-02  0.1235069E+00
         21   -1    0    0  502  501  0.00000000000E+00  0.00000000000E+00  0.94050095441E+03  0.94050095441E+03  0.00000000000E+00 0. -1.
         21   -1    0    0  501  502 -0.00000000000E+00 -0.00000000000E+00 -0.41533716491E+01  0.41533716491E+01  0.00000000000E+00 0. -1.
         25    1    1    2    0    0  0.00000000000E+00  0.00000000000E+00  0.93634758276E+03  0.94465432606E+03  0.12500000000E+03 0.  0.
<mgrwt>
<rscale>  0 0.12500000E+03</rscale>
<asrwt>0</asrwt>
<pdfrwt beam="1">  1       21 0.14469228E+00 0.12500000E+03</pdfrwt>
<pdfrwt beam="2">  1       21 0.63898100E-03 0.12500000E+03</pdfrwt>
<totfact> 0.25055107E+06</totfact>
</mgrwt>
</event>
<event>
 3    1  0.1597250E-001  0.1250000E+03  0.7546771E-02  0.1235069E+00
         21   -1    0    0  502  501  0.00000000000E+00  0.00000000000E+00  0.12411631517E+03  0.12411631517E+03  0.00000000000E+00 0. -1.
         21   -1    0    0  501  502 -0.00000000000E+00 -0.00000000000E+00 -0.31472494125E+02  0.31472494125E+02  0.00000000000E+00 0. -1.
         25    1    1    2    0    0  0.00000000000E+00  0.00000000000E+00  0.92643821044E+02  0.15558880929E+03  0.12500000000E+03 0.  0.
<mgrwt>
<rscale>  0 0.12500000E+03</rscale>
<asrwt>0</asrwt>
<pdfrwt beam="1">  1       21 0.19094818E-01 0.12500000E+03</pdfrwt>
<pdfrwt beam="2">  1       21 0.48419222E-02 0.12500000E+03</pdfrwt>
<totfact> 0.70062551E+06</totfact>
</mgrwt>
</event>
<event>
 3    1  0.1597250E-001  0.1250000E+03  0.7546771E-02  0.1235069E+00
         21   -1    0    0  502  501  0.00000000000E+00  0.00000000000E+00  0.18244116889E+03  0.18244116889E+03  0.00000000000E+00 0. -1.
         21   -1    0    0  501  502 -0.00000000000E+00 -0.00000000000E+00 -0.21411011691E+02  0.21411011691E+02  0.00000000000E+00 0. -1.
         25    1    1    2    0    0  0.00000000000E+00  0.00000000000E+00  0.16103015720E+03  0.20385218058E+03  0.12500000000E+03 0.  0.
<mgrwt>
<rscale>  0 0.12500000E+03</rscale>
<asrwt>0</asrwt>
<pdfrwt beam="1">  1       21 0.28067871E-01 0.12500000E+03</pdfrwt>
<pdfrwt beam="2">  1       21 0.32940019E-02 0.12500000E+03</pdfrwt>
<totfact> 0.64512218E+06</totfact>
</mgrwt>
</event>
<event>
 3    1  0.1597250E-001  0.1250000E+03  0.7546771E-02  0.1235069E+00
         21   -1    0    0  502  501  0.00000000000E+00  0.00000000000E+00  0.62036744764E+02  0.62036744764E+02  0.00000000000E+00 0. -1.
         21   -1    0    0  501  502 -0.00000000000E+00 -0.00000000000E+00 -0.62966714563E+02  0.62966714563E+02  0.00000000000E+00 0. -1.
         25    1    1    2    0    0  0.00000000000E+00  0.00000000000E+00 -0.92996979877E+00  0.12500345933E+03  0.12500000000E+03 0.  0.
<mgrwt>
<rscale>  0 0.12500000E+03</rscale>
<asrwt>0</asrwt>
<pdfrwt beam="1">  1       21 0.95441147E-02 0.12500000E+03</pdfrwt>
<pdfrwt beam="2">  1       21 0.96871868E-02 0.12500000E+03</pdfrwt>
<totfact> 0.74043114E+06</totfact>
</mgrwt>
</event>
<event>
 3    1  0.1597250E-001  0.1250000E+03  0.7546771E-02  0.1235069E+00
         21   -1    0    0  502  501  0.00000000000E+00  0.00000000000E+00  0.77606578202E+01  0.77606578202E+01  0.00000000000E+00 0.  1.
         21   -1    0    0  501  502 -0.00000000000E+00 -0.00000000000E+00 -0.50334006350E+03  0.50334006350E+03  0.00000000000E+00 0.  1.
         25    1    1    2    0    0  0.00000000000E+00  0.00000000000E+00 -0.49557940568E+03  0.51110072132E+03  0.12500000000E+03 0.  0.
<mgrwt>
<rscale>  0 0.12500000E+03</rscale>
<asrwt>0</asrwt>
<pdfrwt beam="1">  1       21 0.11939470E-02 0.12500000E+03</pdfrwt>
<pdfrwt beam="2">  1       21 0.77436956E-01 0.12500000E+03</pdfrwt>
<totfact> 0.41448374E+06</totfact>
</mgrwt>
</event>
<event>
 3    1  0.1597250E-001  0.1250000E+03  0.7546771E-02  0.1235069E+00
         21   -1    0    0  502  501  0.00000000000E+00  0.00000000000E+00  0.10032382326E+04  0.10032382326E+04  0.00000000000E+00 0.  1.
         21   -1    0    0  501  502 -0.00000000000E+00 -0.00000000000E+00 -0.38936414833E+01  0.38936414833E+01  0.00000000000E+00 0.  1.
         25    1    1    2    0    0  0.00000000000E+00  0.00000000000E+00  0.99934459109E+03  0.10071318741E+04  0.12500000000E+03 0.  0.
<mgrwt>
<rscale>  0 0.12500000E+03</rscale>
<asrwt>0</asrwt>
<pdfrwt beam="1">  1       21 0.15434414E+00 0.12500000E+03</pdfrwt>
<pdfrwt beam="2">  1       21 0.59902257E-03 0.12500000E+03</pdfrwt>
<totfact> 0.23441433E+06</totfact>
</mgrwt>
</event>
<event>
 3    1  0.1597250E-001  0.1250000E+03  0.7546771E-02  0.1235069E+00
         21   -1    0    0  502  501  0.00000000000E+00  0.00000000000E+00  0.19236505669E+02  0.19236505669E+02  0.00000000000E+00 0.  1.
         21   -1    0    0  501  502 -0.00000000000E+00 -0.00000000000E+00 -0.20306442694E+03  0.20306442694E+03  0.00000000000E+00 0.  1.
         25    1    1    2    0    0  0.00000000000E+00  0.00000000000E+00 -0.18382792127E+03  0.22230093261E+03  0.12500000000E+03 0.  0.
<mgrwt>
<rscale>  0 0.12500000E+03</rscale>
<asrwt>0</asrwt>
<pdfrwt beam="1">  1       21 0.29594623E-02 0.12500000E+03</pdfrwt>
<pdfrwt beam="2">  1       21 0.31240682E-01 0.12500000E+03</pdfrwt>
<totfact> 0.62588120E+06</totfact>
</mgrwt>
</event>
<event>
 3    1  0.1597250E-001  0.1250000E+03  0.7546771E-02  0.1235069E+00
         21   -1    0    0  502  501  0.00000000000E+00  0.00000000000E+00  0.30194513981E+03  0.30194513981E+03  0.00000000000E+00 0. -1.
         21   -1    0    0  501  502 -0.00000000000E+00 -0.00000000000E+00 -0.12936952727E+02  0.12936952727E+02  0.00000000000E+00 0. -1.
         25    1    1    2    0    0  0.00000000000E+00  0.00000000000E+00  0.28900818708E+03  0.31488209254E+03  0.12500000000E+03 0.  0.
<mgrwt>
<rscale>  0 0.12500000E+03</rscale>
<asrwt>0</asrwt>
<pdfrwt beam="1">  1       21 0.46453093E-01 0.12500000E+03</pdfrwt>
<pdfrwt beam="2">  1       21 0.19903006E-02 0.12500000E+03</pdfrwt>
<totfact> 0.54241421E+06</totfact>
</mgrwt>
</event>
<event>
 3    1  0.1597250E-001  0.1250000E+03  0.7546771E-02  0.1235069E+00
         21   -1    0    0  502  501  0.00000000000E+00  0.00000000000E+00  0.11689117063E+02  0.11689117063E+02  0.00000000000E+00 0. -1.
         21   -1    0    0  501  502 -0.00000000000E+00 -0.00000000000E+00 -0.33417836257E+03  0.33417836257E+03  0.00000000000E+00 0. -1.
         25    1    1    2    0    0  0.00000000000E+00  0.00000000000E+00 -0.32248924551E+03  0.34586747964E+03  0.12500000000E+03 0.  0.
<mgrwt>
<rscale>  0 0.12500000E+03</rscale>
<asrwt>0</asrwt>
<pdfrwt beam="1">  1       21 0.17983258E-02 0.12500000E+03</pdfrwt>
<pdfrwt beam="2">  1       21 0.51412052E-01 0.12500000E+03</pdfrwt>
<totfact> 0.51845087E+06</totfact>
</mgrwt>
</event>
<event>
 3    1  0.1597250E-001  0.1250000E+03  0.7546771E-02  0.1235069E+00
         21   -1    0    0  502  501  0.00000000000E+00  0.00000000000E+00  0.21179223300E+03  0.21179223300E+03  0.00000000000E+00 0.  1.
         21   -1    0    0  501  502 -0.00000000000E+00 -0.00000000000E+00 -0.18443783063E+02  0.18443783063E+02  0.00000000000E+00 0.  1.
         25    1    1    2    0    0  0.00000000000E+00  0.00000000000E+00  0.19334844994E+03  0.23023601606E+03  0.12500000000E+03 0.  0.
<mgrwt>
<rscale>  0 0.12500000E+03</rscale>
<asrwt>0</asrwt>
<pdfrwt beam="1">  1       21 0.32583419E-01 0.12500000E+03</pdfrwt>
<pdfrwt beam="2">  1       21 0.28375052E-02 0.12500000E+03</pdfrwt>
<totfact> 0.61790500E+06</totfact>
</mgrwt>
</event>
<event>
 3    1  0.1597250E-001  0.1250000E+03  0.7546771E-02  0.1235069E+00
         21   -1    0    0  502  501  0.00000000000E+00  0.00000000000E+00  0.23493656236E+03  0.23493656236E+03  0.00000000000E+00 0. -1.
         21   -1    0    0  501  502 -0.00000000000E+00 -0.00000000000E+00 -0.16626828794E+02  0.16626828794E+02  0.00000000000E+00 0. -1.
         25    1    1    2    0    0  0.00000000000E+00  0.00000000000E+00  0.21830973357E+03  0.25156339116E+03  0.12500000000E+03 0.  0.
<mgrwt>
<rscale>  0 0.12500000E+03</rscale>
<asrwt>0</asrwt>
<pdfrwt beam="1">  1       21 0.36144084E-01 0.12500000E+03</pdfrwt>
<pdfrwt beam="2">  1       21 0.25579738E-02 0.12500000E+03</pdfrwt>
<totfact> 0.59731311E+06</totfact>
</mgrwt>
</event>
<event>
 3    1  0.1597250E-001  0.1250000E+03  0.7546771E-02  0.1235069E+00
         21   -1    0    0  502  501  0.00000000000E+00  0.00000000000E+00  0.49289342950E+02  0.49289342950E+02  0.00000000000E+00 0. -1.
         21   -1    0    0  501  502 -0.00000000000E+00 -0.00000000000E+00 -0.79251411486E+02  0.79251411486E+02  0.00000000000E+00 0. -1.
         25    1    1    2    0    0  0.00000000000E+00  0.00000000000E+00 -0.29962068535E+02  0.12854075444E+03  0.12500000000E+03 0.  0.
<mgrwt>
<rscale>  0 0.12500000E+03</rscale>
<asrwt>0</asrwt>
<pdfrwt beam="1">  1       21 0.75829759E-02 0.12500000E+03</pdfrwt>
<pdfrwt beam="2">  1       21 0.12192525E-01 0.12500000E+03</pdfrwt>
<totfact> 0.73560634E+06</totfact>
</mgrwt>
</event>
<event>
 3    1  0.1597250E-001  0.1250000E+03  0.7546771E-02  0.1235069E+00
         21   -1    0    0  502  501  0.00000000000E+00  0.00000000000E+00  0.40617637387E+02  0.40617637387E+02  0.00000000000E+00 0.  1.
         21   -1    0    0  501  502 -0.00000000000E+00 -0.00000000000E+00 -0.96171275616E+02  0.96171275616E+02  0.00000000000E+00 0.  1.
         25    1    1    2    0    0  0.00000000000E+00  0.00000000000E+00 -0.55553638230E+02  0.13678891300E+03  0.12500000000E+03 0.  0.
<mgrwt>
<rscale>  0 0.12500000E+03</rscale>
<asrwt>0</asrwt>
<pdfrwt beam="1">  1       21 0.62488673E-02 0.12500000E+03</pdfrwt>
<pdfrwt beam="2">  1       21 0.14795581E-01 0.12500000E+03</pdfrwt>
<totfact> 0.72460464E+06</totfact>
</mgrwt>
</event>
<event>
 3    1  0.1597250E-001  0.1250000E+03  0.7546771E-02  0.1235069E+00
         21   -1    0    0  502  501  0.00000000000E+00  0.00000000000E+00  0.13579075104E+02  0.13579075104E+02  0.00000000000E+00 0.  1.
         21   -1    0    0  501  502 -0.00000000000E+00 -0.00000000000E+00 -0.28766686760E+03  0.28766686760E+03  0.00000000000E+00 0.  1.
         25    1    1    2    0    0  0.00000000000E+00  0.00000000000E+00 -0.27408779249E+03  0.30124594270E+03  0.12500000000E+03 0.  0.
<mgrwt>
<rscale>  0 0.12500000E+03</rscale>
<asrwt>0</asrwt>
<pdfrwt beam="1">  1       21 0.20890885E-02 0.12500000E+03</pdfrwt>
<pdfrwt beam="2">  1       21 0.44256441E-01 0.12500000E+03</pdfrwt>
<totfact> 0.55352789E+06</totfact>
</mgrwt>
</event>
<event>
 3    1  0.1597250E-001  0.1250000E+03  0.7546771E-02  0.1235069E+00
         21   -1    0    0  502  501  0.00000000000E+00  0.00000000000E+00  0.21192379963E+02  0.21192379963E+02  0.00000000000E+00 0.  1.
         21   -1    0    0  501  502 -0.00000000000E+00 -0.00000000000E+00 -0.18432332786E+03  0.18432332786E+03  0.00000000000E+00 0.  1.
         25    1    1    2    0    0  0.00000000000E+00  0.00000000000E+00 -0.16313094789E+03  0.20551570782E+03  0.12500000000E+03 0.  0.
<mgrwt>
<rscale>  0 0.12500000E+03</rscale>
<asrwt>0</asrwt>
<pdfrwt beam="1">  1       21 0.32603664E-02 0.12500000E+03</pdfrwt>
<pdfrwt beam="2">  1       21 0.28357433E-01 0.12500000E+03</pdfrwt>
<totfact> 0.64334446E+06</totfact>
</mgrwt>
</event>
<event>
 3    1  0.1597250E-001  0.1250000E+03  0.7546771E-02  0.1235069E+00
         21   -1    0    0  502  501  0.00000000000E+00  0.00000000000E+00  0.77614904023E+01  0.77614904023E+01  0.00000000000E+00 0. -1.
         21   -1    0    0  501  502 -0.00000000000E+00 -0.00000000000E+00 -0.50328606976E+03  0.50328606976E+03  0.00000000000E+00 0. -1.
         25    1    1    2    0    0  0.00000000000E+00  0.00000000000E+00 -0.49552457935E+03  0.51104756016E+03  0.12500000000E+03 0.  0.
<mgrwt>
<rscale>  0 0.12500000E+03</rscale>
<asrwt>0</asrwt>
<pdfrwt beam="1">  1       21 0.11940749E-02 0.12500000E+03</pdfrwt>
<pdfrwt beam="2">  1       21 0.77428664E-01 0.12500000E+03</pdfrwt>
<totfact> 0.41451192E+06</totfact>
</mgrwt>
</event>
<event>
 3    1  0.1597250E-001  0.1250000E+03  0.7546771E-02  0.1235069E+00
         21   -1    0    0  502  501  0.00000000000E+00  0.00000000000E+00  0.19833470623E+03  0.19833470623E+03  0.00000000000E+00 0. -1.
         21   -1    0    0  501  502 -0.00000000000E+00 -0.00000000000E+00 -0.19695241817E+02  0.19695241817E+02  0.00000000000E+00 0. -1.
         25    1    1    2    0    0  0.00000000000E+00  0.00000000000E+00  0.17863946441E+03  0.21802994805E+03  0.12500000000E+03 0.  0.
<mgrwt>
<rscale>  0 0.12500000E+03</rscale>
<asrwt>0</asrwt>
<pdfrwt beam="1">  1       21 0.30513030E-01 0.12500000E+03</pdfrwt>
<pdfrwt beam="2">  1       21 0.30300373E-02 0.12500000E+03</pdfrwt>
<totfact> 0.63024471E+06</totfact>
</mgrwt>
</event>
<event>
 3    1  0.1597250E-001  0.1250000E+03  0.7546771E-02  0.1235069E+00
         21   -1    0    0  502  501  0.00000000000E+00  0.00000000000E+00  0.89083722118E+02  0.89083722118E+02  0.00000000000E+00 0.  1.
         21   -1    0    0  501  502 -0.00000000000E+00 -0.00000000000E+00 -0.43849200585E+02  0.43849200585E+02  0.00000000000E+00 0.  1.
         25    1    1    2    0    0  0.00000000000E+00  0.00000000000E+00  0.45234521533E+02  0.13293292270E+03  0.12500000000E+03 0.  0.
<mgrwt>
<rscale>  0 0.12500000E+03</rscale>
<asrwt>0</asrwt>
<pdfrwt beam="1">  1       21 0.13705188E-01 0.12500000E+03</pdfrwt>
<pdfrwt beam="2">  1       21 0.67460309E-02 0.12500000E+03</pdfrwt>
<totfact> 0.72971357E+06</totfact>
</mgrwt>
</event>
<event>
 3    1  0.1597250E-001  0.1250000E+03  0.7546771E-02  0.1235069E+00
         21   -1    0    0  502  501  0.00000000000E+00  0.00000000000E+00  0.16185886829E+03  0.16185886829E+03  0.00000000000E+00 0.  1.
         21   -1    0    0  501  502 -0.00000000000E+00 -0.00000000000E+00 -0.24133679181E+02  0.24133679181E+02  0.00000000000E+00 0.  1.
         25    1    1    2    0    0  0.00000000000E+00  0.00000000000E+00  0.13772518911E+03  0.18599254747E+03  0.12500000000E+03 0.  0.
<mgrwt>
<rscale>  0 0.12500000E+03</rscale>
<asrwt>0</asrwt>
<pdfrwt beam="1">  1       21 0.24901364E-01 0.12500000E+03</pdfrwt>
<pdfrwt beam="2">  1       21 0.37128738E-02 0.12500000E+03</pdfrwt>
<totfact> 0.66470651E+06</totfact>
</mgrwt>
</event>
<event>
 3    1  0.1597250E-001  0.1250000E+03  0.7546771E-02  0.1235069E+00
         21   -1    0    0  502  501  0.00000000000E+00  0.00000000000E+00  0.11597269562E+02  0.11597269562E+02  0.00000000000E+00 0.  1.
         21   -1    0    0  501  502 -0.00000000000E+00 -0.00000000000E+00 -0.33682497240E+03  0.33682497240E+03  0.00000000000E+00 0.  1.
         25    1    1    2    0    0  0.00000000000E+00  0.00000000000E+00 -0.32522770284E+03  0.34842224196E+03  0.12500000000E+03 0.  0.
<mgrwt>
<rscale>  0 0.12500000E+03</rscale>
<asrwt>0</asrwt>
<pdfrwt beam="1">  1       21 0.17841957E-02 0.12500000E+03</pdfrwt>
<pdfrwt beam="2">  1       21 0.51819217E-01 0.12500000E+03</pdfrwt>
<totfact> 0.51655169E+06</totfact>
</mgrwt>
</event>
<event>
 3    1  0.1597250E-001  0.1250000E+03  0.7546771E-02  0.1235069E+00
         21   -1    0    0  502  501  0.00000000000E+00  0.00000000000E+00  0.96884501023E+02  0.96884501023E+02  0.00000000000E+00 0.  1.
         21   -1    0    0  501  502 -0.00000000000E+00 -0.00000000000E+00 -0.40318626393E+02  0.40318626393E+02  0.00000000000E+00 0.  1.
         25    1    1    2    0    0  0.00000000000E+00  0.00000000000E+00  0.56565874630E+02  0.13720312742E+03  0.12500000000E+03 0.  0.
<mgrwt>
<rscale>  0 0.12500000E+03</rscale>
<asrwt>0</asrwt>
<pdfrwt beam="1">  1       21 0.14905308E-01 0.12500000E+03</pdfrwt>
<pdfrwt beam="2">  1       21 0.62028656E-02 0.12500000E+03</pdfrwt>
<totfact> 0.72406057E+06</totfact>
</mgrwt>
</event>
<event>
 3    1  0.1597250E-001  0.1250000E+03  0.7546771E-02  0.1235069E+00
         21   -1    0    0  502  501  0.00000000000E+00  0.00000000000E+00  0.39220138266E+02  0.39220138266E+02  0.00000000000E+00 0. -1.
         21   -1    0    0  501  502 -0.00000000000E+00 -0.00000000000E+00 -0.99598068051E+02  0.99598068051E+02  0.00000000000E+00 0. -1.
         25    1    1    2    0    0  0.00000000000E+00  0.00000000000E+00 -0.60377929785E+02  0.13881820632E+03  0.12500000000E+03 0.  0.
<mgrwt>
<rscale>  0 0.12500000E+03</rscale>
<asrwt>0</asrwt>
<pdfrwt beam="1">  1       21 0.60338674E-02 0.12500000E+03</pdfrwt>
<pdfrwt beam="2">  1       21 0.15322780E-01 0.12500000E+03</pdfrwt>
<totfact> 0.72193967E+06</totfact>
</mgrwt>
</event>
<event>
 3    1  0.1597250E-001  0.1250000E+03  0.7546771E-02  0.1235069E+00
         21   -1    0    0  502  501  0.00000000000E+00  0.00000000000E+00  0.28804629076E+03  0.28804629076E+03  0.00000000000E+00 0. -1.
         21   -1    0    0  501  502 -0.00000000000E+00 -0.00000000000E+00 -0.13561188341E+02  0.13561188341E+02  0.00000000000E+00 0. -1.
         25    1    1    2    0    0  0.00000000000E+00  0.00000000000E+00  0.27448510242E+03  0.30160747910E+03  0.12500000000E+03 0.  0.
<mgrwt>
<rscale>  0 0.12500000E+03</rscale>
<asrwt>0</asrwt>
<pdfrwt beam="1">  1       21 0.44314809E-01 0.12500000E+03</pdfrwt>
<pdfrwt beam="2">  1       21 0.20863369E-02 0.12500000E+03</pdfrwt>
<totfact> 0.55322852E+06</totfact>
</mgrwt>
</event>
<event>
 3    1  0.1597250E-001  0.1250000E+03  0.7546771E-02  0.1235069E+00
         21   -1    0    0  502  501  0.00000000000E+00  0.00000000000E+00  0.35056574147E+03  0.35056574147E+03  0.00000000000E+00 0.  1.
         21   -1    0    0  501  502 -0.00000000000E+00 -0.00000000000E+00 -0.11142703173E+02  0.11142703173E+02  0.00000000000E+00 0.  1.
         25    1    1    2    0    0  0.00000000000E+00  0.00000000000E+00  0.33942303830E+03  0.36170844465E+03  0.12500000000E+03 0.  0.
<mgrwt>
<rscale>  0 0.12500000E+03</rscale>
<asrwt>0</asrwt>
<pdfrwt beam="1">  1       21 0.53933182E-01 0.12500000E+03</pdfrwt>
<pdfrwt beam="2">  1       21 0.17142623E-02 0.12500000E+03</pdfrwt>
<totfact> 0.50685189E+06</totfact>
</mgrwt>
</event>
<event>
 3    1  0.1597250E-001  0.1250000E+03  0.7546771E-02  0.1235069E+00
         21   -1    0    0  502  501  0.00000000000E+00  0.00000000000E+00  0.52739049175E+03  0.52739049175E+03  0.00000000000E+00 0.  1.
         21   -1    0    0  501  502 -0.00000000000E+00 -0.00000000000E+00 -0.74067509011E+01  0.74067509011E+01  0.00000000000E+00 0.  1.
         25    1    1    2    0    0  0.00000000000E+00  0.00000000000E+00  0.51998374085E+03  0.53479724265E+03  0.12500000000E+03 0.  0.
<mgrwt>
<rscale>  0 0.12500000E+03</rscale>
<asrwt>0</asrwt>
<pdfrwt beam="1">  1       21 0.81136969E-01 0.12500000E+03</pdfrwt>
<pdfrwt beam="2">  1       21 0.11395006E-02 0.12500000E+03</pdfrwt>
<totfact> 0.40217711E+06</totfact>
</mgrwt>
</event>
<event>
 3    1  0.1597250E-001  0.1250000E+03  0.7546771E-02  0.1235069E+00
         21   -1    0    0  502  501  0.00000000000E+00  0.00000000000E+00  0.34792077770E+03  0.34792077770E+03  0.00000000000E+00 0.  1.
         21   -1    0    0  501  502 -0.00000000000E+00 -0.00000000000E+00 -0.11227412246E+02  0.11227412246E+02  0.00000000000E+00 0.  1.
         25    1    1    2    0    0  0.00000000000E+00  0.00000000000E+00  0.33669336545E+03  0.35914818994E+03  0.12500000000E+03 0.  0.
<mgrwt>
<rscale>  0 0.12500000E+03</rscale>
<asrwt>0</asrwt>
<pdfrwt beam="1">  1       21 0.53526265E-01 0.12500000E+03</pdfrwt>
<pdfrwt beam="2">  1       21 0.17272945E-02 0.12500000E+03</pdfrwt>
<totfact> 0.50869832E+06</totfact>
</mgrwt>
</event>
<event>
 3    1  0.1597250E-001  0.1250000E+03  0.7546771E-02  0.1235069E+00
         21   -1    0    0  502  501  0.00000000000E+00  0.00000000000E+00  0.13571631062E+02  0.13571631062E+02  0.00000000000E+00 0. -1.
         21   -1    0    0  501  502 -0.00000000000E+00 -0.00000000000E+00 -0.28782465293E+03  0.28782465293E+03  0.00000000000E+00 0. -1.
         25    1    1    2    0    0  0.00000000000E+00  0.00000000000E+00 -0.27425302187E+03  0.30139628399E+03  0.12500000000E+03 0.  0.
<mgrwt>
<rscale>  0 0.12500000E+03</rscale>
<asrwt>0</asrwt>
<pdfrwt beam="1">  1       21 0.20879431E-02 0.12500000E+03</pdfrwt>
<pdfrwt beam="2">  1       21 0.44280718E-01 0.12500000E+03</pdfrwt>
<totfact> 0.55340335E+06</totfact>
</mgrwt>
</event>
<event>
 3    1  0.1597250E-001  0.1250000E+03  0.7546771E-02  0.1235069E+00
         21   -1    0    0  502  501  0.00000000000E+00  0.00000000000E+00  0.43707252287E+01  0.43707252287E+01  0.00000000000E+00 0. -1.
         21   -1    0    0  501  502 -0.00000000000E+00 -0.00000000000E+00 -0.89373039842E+03  0.89373039842E+03  0.00000000000E+00 0. -1.
         25    1    1    2    0    0  0.00000000000E+00  0.00000000000E+00 -0.88935967319E+03  0.89810112365E+03  0.12500000000E+03 0.  0.
<mgrwt>
<rscale>  0 0.12500000E+03</rscale>
<asrwt>0</asrwt>
<pdfrwt beam="1">  1       21 0.67241906E-03 0.12500000E+03</pdfrwt>
<pdfrwt beam="2">  1       21 0.13749703E+00 0.12500000E+03</pdfrwt>
<totfact> 0.26353775E+06</totfact>
</mgrwt>
</event>
<event>
 3    1  0.1597250E-001  0.1250000E+03  0.7546771E-02  0.1235069E+00
         21   -1    0    0  502  501  0.00000000000E+00  0.00000000000E+00  0.13782534535E+02  0.13782534535E+02  0.00000000000E+00 0. -1.
         21   -1    0    0  501  502 -0.00000000000E+00 -0.00000000000E+00 -0.28342029472E+03  0.28342029472E+03  0.00000000000E+00 0. -1.
         25    1    1    2    0    0  0.00000000000E+00  0.00000000000E+00 -0.26963776018E+03  0.29720282925E+03  0.12500000000E+03 0.  0.
<mgrwt>
<rscale>  0 0.12500000E+03</rscale>
<asrwt>0</asrwt>
<pdfrwt beam="1">  1       21 0.21203898E-02 0.12500000E+03</pdfrwt>
<pdfrwt beam="2">  1       21 0.43603125E-01 0.12500000E+03</pdfrwt>
<totfact> 0.55689432E+06</totfact>
</mgrwt>
</event>
<event>
 3    1  0.1597250E-001  0.1250000E+03  0.7546771E-02  0.1235069E+00
         21   -1    0    0  502  501  0.00000000000E+00  0.00000000000E+00  0.70378806938E+03  0.70378806938E+03  0.00000000000E+00 0. -1.
         21   -1    0    0  501  502 -0.00000000000E+00 -0.00000000000E+00 -0.55503214248E+01  0.55503214248E+01  0.00000000000E+00 0. -1.
         25    1    1    2    0    0  0.00000000000E+00  0.00000000000E+00  0.69823774795E+03  0.70933839080E+03  0.12500000000E+03 0.  0.
<mgrwt>
<rscale>  0 0.12500000E+03</rscale>
<asrwt>0</asrwt>
<pdfrwt beam="1">  1       21 0.10827502E+00 0.12500000E+03</pdfrwt>
<pdfrwt beam="2">  1       21 0.85389616E-03 0.12500000E+03</pdfrwt>
<totfact> 0.32553227E+06</totfact>
</mgrwt>
</event>
<event>
 3    1  0.1597250E-001  0.1250000E+03  0.7546771E-02  0.1235069E+00
         21   -1    0    0  502  501  0.00000000000E+00  0.00000000000E+00  0.71926331475E+01  0.71926331475E+01  0.00000000000E+00 0.  1.
         21   -1    0    0  501  502 -0.00000000000E+00 -0.00000000000E+00 -0.54309039818E+03  0.54309039818E+03  0.00000000000E+00 0.  1.
         25    1    1    2    0    0  0.00000000000E+00  0.00000000000E+00 -0.53589776503E+03  0.55028303133E+03  0.12500000000E+03 0.  0.
<mgrwt>
<rscale>  0 0.12500000E+03</rscale>
<asrwt>0</asrwt>
<pdfrwt beam="1">  1       21 0.11065587E-02 0.12500000E+03</pdfrwt>
<pdfrwt beam="2">  1       21 0.83552386E-01 0.12500000E+03</pdfrwt>
<totfact> 0.39442089E+06</totfact>
</mgrwt>
</event>
<event>
 3    1  0.1597250E-001  0.1250000E+03  0.7546771E-02  0.1235069E+00
         21   -1    0    0  502  501  0.00000000000E+00  0.00000000000E+00  0.11555058700E+03  0.11555058700E+03  0.00000000000E+00 0. -1.
         21   -1    0    0  501  502 -0.00000000000E+00 -0.00000000000E+00 -0.33805540078E+02  0.33805540078E+02  0.00000000000E+00 0. -1.
         25    1    1    2    0    0  0.00000000000E+00  0.00000000000E+00  0.81745046926E+02  0.14935612708E+03  0.12500000000E+03 0.  0.
<mgrwt>
<rscale>  0 0.12500000E+03</rscale>
<asrwt>0</asrwt>
<pdfrwt beam="1">  1       21 0.17777013E-01 0.12500000E+03</pdfrwt>
<pdfrwt beam="2">  1       21 0.52008524E-02 0.12500000E+03</pdfrwt>
<totfact> 0.70840177E+06</totfact>
</mgrwt>
</event>
<event>
 3    1  0.1597250E-001  0.1250000E+03  0.7546771E-02  0.1235069E+00
         21   -1    0    0  502  501  0.00000000000E+00  0.00000000000E+00  0.27430157053E+02  0.27430157053E+02  0.00000000000E+00 0.  1.
         21   -1    0    0  501  502 -0.00000000000E+00 -0.00000000000E+00 -0.14240713214E+03  0.14240713214E+03  0.00000000000E+00 0.  1.
         25    1    1    2    0    0  0.00000000000E+00  0.00000000000E+00 -0.11497697508E+03  0.16983728919E+03  0.12500000000E+03 0.  0.
<mgrwt>
<rscale>  0 0.12500000E+03</rscale>
<asrwt>0</asrwt>
<pdfrwt beam="1">  1       21 0.42200241E-02 0.12500000E+03</pdfrwt>
<pdfrwt beam="2">  1       21 0.21908790E-01 0.12500000E+03</pdfrwt>
<totfact> 0.68336928E+06</totfact>
</mgrwt>
</event>
<event>
 3    1  0.1597250E-001  0.1250000E+03  0.7546771E-02  0.1235069E+00
         21   -1    0    0  502  501  0.00000000000E+00  0.00000000000E+00  0.28241252216E+03  0.28241252216E+03  0.00000000000E+00 0. -1.
         21   -1    0    0  501  502 -0.00000000000E+00 -0.00000000000E+00 -0.13831716703E+02  0.13831716703E+02  0.00000000000E+00 0. -1.
         25    1    1    2    0    0  0.00000000000E+00  0.00000000000E+00  0.26858080546E+03  0.29624423887E+03  0.12500000000E+03 0.  0.
<mgrwt>
<rscale>  0 0.12500000E+03</rscale>
<asrwt>0</asrwt>
<pdfrwt beam="1">  1       21 0.43448076E-01 0.12500000E+03</pdfrwt>
<pdfrwt beam="2">  1       21 0.21279566E-02 0.12500000E+03</pdfrwt>
<totfact> 0.55769745E+06</totfact>
</mgrwt>
</event>
<event>
 3    1  0.1597250E-001  0.1250000E+03  0.7546771E-02  0.1235069E+00
         21   -1    0    0  502  501  0.00000000000E+00  0.00000000000E+00  0.28187650032E+01  0.28187650032E+01  0.00000000000E+00 0.  1.
         21   -1    0    0  501  502 -0.00000000000E+00 -0.00000000000E+00 -0.13858019365E+04  0.13858019365E+04  0.00000000000E+00 0.  1.
         25    1    1    2    0    0  0.00000000000E+00  0.00000000000E+00 -0.13829831715E+04  0.13886207015E+04  0.12500000000E+03 0.  0.
<mgrwt>
<rscale>  0 0.12500000E+03</rscale>
<asrwt>0</asrwt>
<pdfrwt beam="1">  1       21 0.43365593E-03 0.12500000E+03</pdfrwt>
<pdfrwt beam="2">  1       21 0.21320041E+00 0.12500000E+03</pdfrwt>
<totfact> 0.15731014E+06</totfact>
</mgrwt>
</event>
<event>
 3    1  0.1597250E-001  0.1250000E+03  0.7546771E-02  0.1235069E+00
         21   -1    0    0  502  501  0.00000000000E+00  0.00000000000E+00  0.49616500315E+02  0.49616500315E+02  0.00000000000E+00 0.  1.
         21   -1    0    0  501  502 -0.00000000000E+00 -0.00000000000E+00 -0.78728849783E+02  0.78728849783E+02  0.00000000000E+00 0.  1.
         25    1    1    2    0    0  0.00000000000E+00  0.00000000000E+00 -0.29112349468E+02  0.12834535010E+03  0.12500000000E+03 0.  0.
<mgrwt>
<rscale>  0 0.12500000E+03</rscale>
<asrwt>0</asrwt>
<pdfrwt beam="1">  1       21 0.76333078E-02 0.12500000E+03</pdfrwt>
<pdfrwt beam="2">  1       21 0.12112131E-01 0.12500000E+03</pdfrwt>
<totfact> 0.73586958E+06</totfact>
</mgrwt>
</event>
<event>
 3    1  0.1597250E-001  0.1250000E+03  0.7546771E-02  0.1235069E+00
         21   -1    0    0  502  501  0.00000000000E+00  0.00000000000E+00  0.17535162608E+02  0.17535162608E+02  0.00000000000E+00 0. -1.
         21   -1    0    0  501  502 -0.00000000000E+00 -0.00000000000E+00 -0.22276668243E+03  0.22276668243E+03  0.00000000000E+00 0. -1.
         25    1    1    2    0    0  0.00000000000E+00  0.00000000000E+00 -0.20523151982E+03  0.24030184504E+03  0.12500000000E+03 0.  0.
<mgrwt>
<rscale>  0 0.12500000E+03</rscale>
<asrwt>0</asrwt>
<pdfrwt beam="1">  1       21 0.26977173E-02 0.12500000E+03</pdfrwt>
<pdfrwt beam="2">  1       21 0.34271798E-01 0.12500000E+03</pdfrwt>
<totfact> 0.60803466E+06</totfact>
</mgrwt>
</event>
<event>
 3    1  0.1597250E-001  0.1250000E+03  0.7546771E-02  0.1235069E+00
         21   -1    0    0  502  501  0.00000000000E+00  0.00000000000E+00  0.36291628035E+03  0.36291628035E+03  0.00000000000E+00 0. -1.
         21   -1    0    0  501  502 -0.00000000000E+00 -0.00000000000E+00 -0.10763501699E+02  0.10763501699E+02  0.00000000000E+00 0. -1.
         25    1    1    2    0    0  0.00000000000E+00  0.00000000000E+00  0.35215277865E+03  0.37367978205E+03  0.12500000000E+03 0.  0.
<mgrwt>
<rscale>  0 0.12500000E+03</rscale>
<asrwt>0</asrwt>
<pdfrwt beam="1">  1       21 0.55833265E-01 0.12500000E+03</pdfrwt>
<pdfrwt beam="2">  1       21 0.16559236E-02 0.12500000E+03</pdfrwt>
<totfact> 0.49835767E+06</totfact>
</mgrwt>
</event>
<event>
 3    1  0.1597250E-001  0.1250000E+03  0.7546771E-02  0.1235069E+00
         21   -1    0    0  502  501  0.00000000000E+00  0.00000000000E+00  0.13468782209E+03  0.13468782209E+03  0.00000000000E+00 0.  1.
         21   -1    0    0  501  502 -0.00000000000E+00 -0.00000000000E+00 -0.29002250830E+02  0.29002250830E+02  0.00000000000E+00 0.  1.
         25    1    1    2    0    0  0.00000000000E+00  0.00000000000E+00  0.10568557126E+03  0.16369007292E+03  0.12500000000E+03 0.  0.
<mgrwt>
<rscale>  0 0.12500000E+03</rscale>
<asrwt>0</asrwt>
<pdfrwt beam="1">  1       21 0.20721203E-01 0.12500000E+03</pdfrwt>
<pdfrwt beam="2">  1       21 0.44618848E-02 0.12500000E+03</pdfrwt>
<totfact> 0.69071397E+06</totfact>
</mgrwt>
</event>
<event>
 3    1  0.1597250E-001  0.1250000E+03  0.7546771E-02  0.1235069E+00
         21   -1    0    0  502  501  0.00000000000E+00  0.00000000000E+00  0.14174822472E+03  0.14174822472E+03  0.00000000000E+00 0. -1.
         21   -1    0    0  501  502 -0.00000000000E+00 -0.00000000000E+00 -0.27557664356E+02  0.27557664356E+02  0.00000000000E+00 0. -1.
         25    1    1    2    0    0  0.00000000000E+00  0.00000000000E+00  0.11419056037E+03  0.16930588908E+03  0.12500000000E+03 0.  0.
<mgrwt>
<rscale>  0 0.12500000E+03</rscale>
<asrwt>0</asrwt>
<pdfrwt beam="1">  1       21 0.21807419E-01 0.12500000E+03</pdfrwt>
<pdfrwt beam="2">  1       21 0.42396407E-02 0.12500000E+03</pdfrwt>
<totfact> 0.68399915E+06</totfact>
</mgrwt>
</event>
<event>
 3    1  0.1597250E-001  0.1250000E+03  0.7546771E-02  0.1235069E+00
         21   -1    0    0  502  501  0.00000000000E+00  0.00000000000E+00  0.14998797026E+03  0.14998797026E+03  0.00000000000E+00 0.  1.
         21   -1    0    0  501  502 -0.00000000000E+00 -0.00000000000E+00 -0.26043755331E+02  0.26043755331E+02  0.00000000000E+00 0.  1.
         25    1    1    2    0    0  0.00000000000E+00  0.00000000000E+00  0.12394421493E+03  0.17603172559E+03  0.12500000000E+03 0.  0.
<mgrwt>
<rscale>  0 0.12500000E+03</rscale>
<asrwt>0</asrwt>
<pdfrwt beam="1">  1       21 0.23075072E-01 0.12500000E+03</pdfrwt>
<pdfrwt beam="2">  1       21 0.40067317E-02 0.12500000E+03</pdfrwt>
<totfact> 0.67609706E+06</totfact>
</mgrwt>
</event>
<event>
 3    1  0.1597250E-001  0.1250000E+03  0.7546771E-02  0.1235069E+00
         21   -1    0    0  502  501  0.00000000000E+00  0.00000000000E+00  0.20743580719E+02  0.20743580719E+02  0.00000000000E+00 0. -1.
         21   -1    0    0  501  502 -0.00000000000E+00 -0.00000000000E+00 -0.18831126858E+03  0.18831126858E+03  0.00000000000E+00 0. -1.
         25    1    1    2    0    0  0.00000000000E+00  0.00000000000E+00 -0.16756768786E+03  0.20905484930E+03  0.12500000000E+03 0.  0.
<mgrwt>
<rscale>  0 0.12500000E+03</rscale>
<asrwt>0</asrwt>
<pdfrwt beam="1">  1       21 0.31913202E-02 0.12500000E+03</pdfrwt>
<pdfrwt beam="2">  1       21 0.28970963E-01 0.12500000E+03</pdfrwt>
<totfact> 0.63959114E+06</totfact>
</mgrwt>
</event>
<event>
 3    1  0.1597250E-001  0.1250000E+03  0.7546771E-02  0.1235069E+00
         21   -1    0    0  502  501  0.00000000000E+00  0.00000000000E+00  0.94268212447E+01  0.94268212447E+01  0.00000000000E+00 0.  1.
         21   -1    0    0  501  502 -0.00000000000E+00 -0.00000000000E+00 -0.41437616123E+03  0.41437616123E+03  0.00000000000E+00 0.  1.
         25    1    1    2    0    0  0.00000000000E+00  0.00000000000E+00 -0.40494933999E+03  0.42380298247E+03  0.12500000000E+03 0.  0.
<mgrwt>
<rscale>  0 0.12500000E+03</rscale>
<asrwt>0</asrwt>
<pdfrwt beam="1">  1       21 0.14502803E-02 0.12500000E+03</pdfrwt>
<pdfrwt beam="2">  1       21 0.63750174E-01 0.12500000E+03</pdfrwt>
<totfact> 0.46501588E+06</totfact>
</mgrwt>
</event>
<event>
 3    1  0.1597250E-001  0.1250000E+03  0.7546771E-02  0.1235069E+00
         21   -1    0    0  502  501  0.00000000000E+00  0.00000000000E+00  0.30746287361E+02  0.30746287361E+02  0.00000000000E+00 0.  1.
         21   -1    0    0  501  502 -0.00000000000E+00 -0.00000000000E+00 -0.12704785960E+03  0.12704785960E+03  0.00000000000E+00 0.  1.
         25    1    1    2    0    0  0.00000000000E+00  0.00000000000E+00 -0.96301572242E+02  0.15779414696E+03  0.12500000000E+03 0.  0.
<mgrwt>
<rscale>  0 0.12500000E+03</rscale>
<asrwt>0</asrwt>
<pdfrwt beam="1">  1       21 0.47301982E-02 0.12500000E+03</pdfrwt>
<pdfrwt beam="2">  1       21 0.19545824E-01 0.12500000E+03</pdfrwt>
<totfact> 0.69790037E+06</totfact>
</mgrwt>
</event>
<event>
 3    1  0.1597250E-001  0.1250000E+03  0.7546771E-02  0.1235069E+00
         21   -1    0    0  502  501  0.00000000000E+00  0.00000000000E+00  0.20962634953E+02  0.20962634953E+02  0.00000000000E+00 0. -1.
         21   -1    0    0  501  502 -0.00000000000E+00 -0.00000000000E+00 -0.18634346344E+03  0.18634346344E+03  0.00000000000E+00 0. -1.
         25    1    1    2    0    0  0.00000000000E+00  0.00000000000E+00 -0.16538082849E+03  0.20730609839E+03  0.12500000000E+03 0.  0.
<mgrwt>
<rscale>  0 0.12500000E+03</rscale>
<asrwt>0</asrwt>
<pdfrwt beam="1">  1       21 0.32250207E-02 0.12500000E+03</pdfrwt>
<pdfrwt beam="2">  1       21 0.28668225E-01 0.12500000E+03</pdfrwt>
<totfact> 0.64144084E+06</totfact>
</mgrwt>
</event>
<event>
 3    1  0.1597250E-001  0.1250000E+03  0.7546771E-02  0.1235069E+00
         21   -1    0    0  502  501  0.00000000000E+00  0.00000000000E+00  0.42850497189E+02  0.42850497189E+02  0.00000000000E+00 0. -1.
         21   -1    0    0  501  502 -0.00000000000E+00 -0.00000000000E+00 -0.91159969108E+02  0.91159969108E+02  0.00000000000E+00 0. -1.
         25    1    1    2    0    0  0.00000000000E+00  0.00000000000E+00 -0.48309471919E+02  0.13401046630E+03  0.12500000000E+03 0.  0.
<mgrwt>
<rscale>  0 0.12500000E+03</rscale>
<asrwt>0</asrwt>
<pdfrwt beam="1">  1       21 0.65923843E-02 0.12500000E+03</pdfrwt>
<pdfrwt beam="2">  1       21 0.14024610E-01 0.12500000E+03</pdfrwt>
<totfact> 0.72827762E+06</totfact>
</mgrwt>
</event>
<event>
 3    1  0.1597250E-001  0.1250000E+03  0.7546771E-02  0.1235069E+00
         21   -1    0    0  502  501  0.00000000000E+00  0.00000000000E+00  0.29019800437E+01  0.29019800437E+01  0.00000000000E+00 0. -1.
         21   -1    0    0  501  502 -0.00000000000E+00 -0.00000000000E+00 -0.13460637017E+04  0.13460637017E+04  0.00000000000E+00 0. -1.
         25    1    1    2    0    0  0.00000000000E+00  0.00000000000E+00 -0.13431617217E+04  0.13489656818E+04  0.12500000000E+03 0.  0.
<mgrwt>
<rscale>  0 0.12500000E+03</rscale>
<asrwt>0</asrwt>
<pdfrwt beam="1">  1       21 0.44645684E-03 0.12500000E+03</pdfrwt>
<pdfrwt beam="2">  1       21 0.20708748E+00 0.12500000E+03</pdfrwt>
<totfact> 0.16395342E+06</totfact>
</mgrwt>
</event>
<event>
 3    1  0.1597250E-001  0.1250000E+03  0.7546771E-02  0.1235069E+00
         21   -1    0    0  502  501  0.00000000000E+00  0.00000000000E+00  0.98046361487E+01  0.98046361487E+01  0.00000000000E+00 0.  1.
         21   -1    0    0  501  502 -0.00000000000E+00 -0.00000000000E+00 -0.39840846114E+03  0.39840846114E+03  0.00000000000E+00 0.  1.
         25    1    1    2    0    0  0.00000000000E+00  0.00000000000E+00 -0.38860382499E+03  0.40821309728E+03  0.12500000000E+03 0.  0.
<mgrwt>
<rscale>  0 0.12500000E+03</rscale>
<asrwt>0</asrwt>
<pdfrwt beam="1">  1       21 0.15084055E-02 0.12500000E+03</pdfrwt>
<pdfrwt beam="2">  1       21 0.61293610E-01 0.12500000E+03</pdfrwt>
<totfact> 0.47501314E+06</totfact>
</mgrwt>
</event>
<event>
 3    1  0.1597250E-001  0.1250000E+03  0.7546771E-02  0.1235069E+00
         21   -1    0    0  502  501  0.00000000000E+00  0.00000000000E+00  0.23881447029E+02  0.23881447029E+02  0.00000000000E+00 0. -1.
         21   -1    0    0  501  502 -0.00000000000E+00 -0.00000000000E+00 -0.16356839664E+03  0.16356839664E+03  0.00000000000E+00 0. -1.
         25    1    1    2    0    0  0.00000000000E+00  0.00000000000E+00 -0.13968694961E+03  0.18744984367E+03  0.12500000000E+03 0.  0.
<mgrwt>
<rscale>  0 0.12500000E+03</rscale>
<asrwt>0</asrwt>
<pdfrwt beam="1">  1       21 0.36740687E-02 0.12500000E+03</pdfrwt>
<pdfrwt beam="2">  1       21 0.25164369E-01 0.12500000E+03</pdfrwt>
<totfact> 0.66307017E+06</totfact>
</mgrwt>
</event>
<event>
 3    1  0.1597250E-001  0.1250000E+03  0.7546771E-02  0.1235069E+00
         21   -1    0    0  502  501  0.00000000000E+00  0.00000000000E+00  0.33512871197E+02  0.33512871197E+02  0.00000000000E+00 0.  1.
         21   -1    0    0  501  502 -0.00000000000E+00 -0.00000000000E+00 -0.11655969365E+03  0.11655969365E+03  0.00000000000E+00 0.  1.
         25    1    1    2    0    0  0.00000000000E+00  0.00000000000E+00 -0.83046822451E+02  0.15007256485E+03  0.12500000000E+03 0.  0.
<mgrwt>
<rscale>  0 0.12500000E+03</rscale>
<asrwt>0</asrwt>
<pdfrwt beam="1">  1       21 0.51558263E-02 0.12500000E+03</pdfrwt>
<pdfrwt beam="2">  1       21 0.17932261E-01 0.12500000E+03</pdfrwt>
<totfact> 0.70750087E+06</totfact>
</mgrwt>
</event>
<event>
 3    1  0.1597250E-001  0.1250000E+03  0.7546771E-02  0.1235069E+00
         21   -1    0    0  502  501  0.00000000000E+00  0.00000000000E+00  0.45157417202E+02  0.45157417202E+02  0.00000000000E+00 0. -1.
         21   -1    0    0  501  502 -0.00000000000E+00 -0.00000000000E+00 -0.86502954377E+02  0.86502954377E+02  0.00000000000E+00 0. -1.
         25    1    1    2    0    0  0.00000000000E+00  0.00000000000E+00 -0.41345537176E+02  0.13166037158E+03  0.12500000000E+03 0.  0.
<mgrwt>
<rscale>  0 0.12500000E+03</rscale>
<asrwt>0</asrwt>
<pdfrwt beam="1">  1       21 0.69472950E-02 0.12500000E+03</pdfrwt>
<pdfrwt beam="2">  1       21 0.13308147E-01 0.12500000E+03</pdfrwt>
<totfact> 0.73141819E+06</totfact>
</mgrwt>
</event>
<event>
 3    1  0.1597250E-001  0.1250000E+03  0.7546771E-02  0.1235069E+00
         21   -1    0    0  502  501  0.00000000000E+00  0.00000000000E+00  0.29667846115E+02  0.29667846115E+02  0.00000000000E+00 0. -1.
         21   -1    0    0  501  502 -0.00000000000E+00 -0.00000000000E+00 -0.13166611371E+03  0.13166611371E+03  0.00000000000E+00 0. -1.
         25    1    1    2    0    0  0.00000000000E+00  0.00000000000E+00 -0.10199826759E+03  0.16133395982E+03  0.12500000000E+03 0.  0.
<mgrwt>
<rscale>  0 0.12500000E+03</rscale>
<asrwt>0</asrwt>
<pdfrwt beam="1">  1       21 0.45642839E-02 0.12500000E+03</pdfrwt>
<pdfrwt beam="2">  1       21 0.20256326E-01 0.12500000E+03</pdfrwt>
<totfact> 0.69356866E+06</totfact>
</mgrwt>
</event>
<event>
 3    1  0.1597250E-001  0.1250000E+03  0.7546771E-02  0.1235069E+00
         21   -1    0    0  502  501  0.00000000000E+00  0.00000000000E+00  0.25516912866E+02  0.25516912866E+02  0.00000000000E+00 0.  1.
         21   -1    0    0  501  502 -0.00000000000E+00 -0.00000000000E+00 -0.15308474111E+03  0.15308474111E+03  0.00000000000E+00 0.  1.
         25    1    1    2    0    0  0.00000000000E+00  0.00000000000E+00 -0.12756782825E+03  0.17860165398E+03  0.12500000000E+03 0.  0.
<mgrwt>
<rscale>  0 0.12500000E+03</rscale>
<asrwt>0</asrwt>
<pdfrwt beam="1">  1       21 0.39256790E-02 0.12500000E+03</pdfrwt>
<pdfrwt beam="2">  1       21 0.23551498E-01 0.12500000E+03</pdfrwt>
<totfact> 0.67312313E+06</totfact>
</mgrwt>
</event>
<event>
 3    1  0.1597250E-001  0.1250000E+03  0.7546771E-02  0.1235069E+00
         21   -1    0    0  502  501  0.00000000000E+00  0.00000000000E+00  0.42698940606E+02  0.42698940606E+02  0.00000000000E+00 0. -1.
         21   -1    0    0  501  502 -0.00000000000E+00 -0.00000000000E+00 -0.91483534359E+02  0.91483534359E+02  0.00000000000E+00 0. -1.
         25    1    1    2    0    0  0.00000000000E+00  0.00000000000E+00 -0.48784593754E+02  0.13418247496E+03  0.12500000000E+03 0.  0.
<mgrwt>
<rscale>  0 0.12500000E+03</rscale>
<asrwt>0</asrwt>
<pdfrwt beam="1">  1       21 0.65690678E-02 0.12500000E+03</pdfrwt>
<pdfrwt beam="2">  1       21 0.14074390E-01 0.12500000E+03</pdfrwt>
<totfact> 0.72804901E+06</totfact>
</mgrwt>
</event>
<event>
 3    1  0.1597250E-001  0.1250000E+03  0.7546771E-02  0.1235069E+00
         21   -1    0    0  502  501  0.00000000000E+00  0.00000000000E+00  0.16806997463E+04  0.16806997463E+04  0.00000000000E+00 0. -1.
         21   -1    0    0  501  502 -0.00000000000E+00 -0.00000000000E+00 -0.23241807519E+01  0.23241807519E+01  0.00000000000E+00 0. -1.
         25    1    1    2    0    0  0.00000000000E+00  0.00000000000E+00  0.16783755655E+04  0.16830239270E+04  0.12500000000E+03 0.  0.
<mgrwt>
<rscale>  0 0.12500000E+03</rscale>
<asrwt>0</asrwt>
<pdfrwt beam="1">  1       21 0.25856822E+00 0.12500000E+03</pdfrwt>
<pdfrwt beam="2">  1       21 0.35756761E-03 0.12500000E+03</pdfrwt>
<totfact> 0.11483420E+06</totfact>
</mgrwt>
</event>
<event>
 3    1  0.1597250E-001  0.1250000E+03  0.7546771E-02  0.1235069E+00
         21   -1    0    0  502  501  0.00000000000E+00  0.00000000000E+00  0.62902177898E+02  0.62902177898E+02  0.00000000000E+00 0. -1.
         21   -1    0    0  501  502 -0.00000000000E+00 -0.00000000000E+00 -0.62100393508E+02  0.62100393508E+02  0.00000000000E+00 0. -1.
         25    1    1    2    0    0  0.00000000000E+00  0.00000000000E+00  0.80178439017E+00  0.12500257141E+03  0.12500000000E+03 0.  0.
<mgrwt>
<rscale>  0 0.12500000E+03</rscale>
<asrwt>0</asrwt>
<pdfrwt beam="1">  1       21 0.96772582E-02 0.12500000E+03</pdfrwt>
<pdfrwt beam="2">  1       21 0.95539066E-02 0.12500000E+03</pdfrwt>
<totfact> 0.74043234E+06</totfact>
</mgrwt>
</event>
<event>
 3    1  0.1597250E-001  0.1250000E+03  0.7546771E-02  0.1235069E+00
         21   -1    0    0  502  501  0.00000000000E+00  0.00000000000E+00  0.62305511468E+03  0.62305511468E+03  0.00000000000E+00 0.  1.
         21   -1    0    0  501  502 -0.00000000000E+00 -0.00000000000E+00 -0.62695095634E+01  0.62695095634E+01  0.00000000000E+00 0.  1.
         25    1    1    2    0    0  0.00000000000E+00  0.00000000000E+00  0.61678560512E+03  0.62932462424E+03  0.12500000000E+03 0.  0.
<mgrwt>
<rscale>  0 0.12500000E+03</rscale>
<asrwt>0</asrwt>
<pdfrwt beam="1">  1       21 0.95854584E-01 0.12500000E+03</pdfrwt>
<pdfrwt beam="2">  1       21 0.96454043E-03 0.12500000E+03</pdfrwt>
<totfact> 0.35799180E+06</totfact>
</mgrwt>
</event>
<event>
 3    1  0.1597250E-001  0.1250000E+03  0.7546771E-02  0.1235069E+00
         21   -1    0    0  502  501  0.00000000000E+00  0.00000000000E+00  0.12758602798E+03  0.12758602798E+03  0.00000000000E+00 0. -1.
         21   -1    0    0  501  502 -0.00000000000E+00 -0.00000000000E+00 -0.30616596988E+02  0.30616596988E+02  0.00000000000E+00 0. -1.
         25    1    1    2    0    0  0.00000000000E+00  0.00000000000E+00  0.96969430993E+02  0.15820262497E+03  0.12500000000E+03 0.  0.
<mgrwt>
<rscale>  0 0.12500000E+03</rscale>
<asrwt>0</asrwt>
<pdfrwt beam="1">  1       21 0.19628619E-01 0.12500000E+03</pdfrwt>
<pdfrwt beam="2">  1       21 0.47102457E-02 0.12500000E+03</pdfrwt>
<totfact> 0.69739785E+06</totfact>
</mgrwt>
</event>
<event>
 3    1  0.1597250E-001  0.1250000E+03  0.7546771E-02  0.1235069E+00
         21   -1    0    0  502  501  0.00000000000E+00  0.00000000000E+00  0.41822183621E+02  0.41822183621E+02  0.00000000000E+00 0. -1.
         21   -1    0    0  501  502 -0.00000000000E+00 -0.00000000000E+00 -0.93401388014E+02  0.93401388014E+02  0.00000000000E+00 0. -1.
         25    1    1    2    0    0  0.00000000000E+00  0.00000000000E+00 -0.51579204393E+02  0.13522357164E+03  0.12500000000E+03 0.  0.
<mgrwt>
<rscale>  0 0.12500000E+03</rscale>
<asrwt>0</asrwt>
<pdfrwt beam="1">  1       21 0.64341820E-02 0.12500000E+03</pdfrwt>
<pdfrwt beam="2">  1       21 0.14369444E-01 0.12500000E+03</pdfrwt>
<totfact> 0.72666883E+06</totfact>
</mgrwt>
</event>
<event>
 3    1  0.1597250E-001  0.1250000E+03  0.7546771E-02  0.1235069E+00
         21   -1    0    0  502  501  0.00000000000E+00  0.00000000000E+00  0.18062718470E+02  0.18062718470E+02  0.00000000000E+00 0.  1.
         21   -1    0    0  501  502 -0.00000000000E+00 -0.00000000000E+00 -0.21626036006E+03  0.21626036006E+03  0.00000000000E+00 0.  1.
         25    1    1    2    0    0  0.00000000000E+00  0.00000000000E+00 -0.19819764159E+03  0.23432307853E+03  0.12500000000E+03 0.  0.
<mgrwt>
<rscale>  0 0.12500000E+03</rscale>
<asrwt>0</asrwt>
<pdfrwt beam="1">  1       21 0.27788796E-02 0.12500000E+03</pdfrwt>
<pdfrwt beam="2">  1       21 0.33270826E-01 0.12500000E+03</pdfrwt>
<totfact> 0.61386370E+06</totfact>
</mgrwt>
</event>
<event>
 3    1  0.1597250E-001  0.1250000E+03  0.7546771E-02  0.1235069E+00
         21   -1    0    0  502  501  0.00000000000E+00  0.00000000000E+00  0.42422633551E+02  0.42422633551E+02  0.00000000000E+00 0.  1.
         21   -1    0    0  501  502 -0.00000000000E+00 -0.00000000000E+00 -0.92079384824E+02  0.92079384824E+02  0.00000000000E+00 0.  1.
         25    1    1    2    0    0  0.00000000000E+00  0.00000000000E+00 -0.49656751273E+02  0.13450201838E+03  0.12500000000E+03 0.  0.
<mgrwt>
<rscale>  0 0.12500000E+03</rscale>
<asrwt>0</asrwt>
<pdfrwt beam="1">  1       21 0.65265591E-02 0.12500000E+03</pdfrwt>
<pdfrwt beam="2">  1       21 0.14166059E-01 0.12500000E+03</pdfrwt>
<totfact> 0.72762475E+06</totfact>
</mgrwt>
</event>
<event>
 3    1  0.1597250E-001  0.1250000E+03  0.7546771E-02  0.1235069E+00
         21   -1    0    0  502  501  0.00000000000E+00  0.00000000000E+00  0.22962171302E+01  0.22962171302E+01  0.00000000000E+00 0.  1.
         21   -1    0    0  501  502 -0.00000000000E+00 -0.00000000000E+00 -0.17011675197E+04  0.17011675197E+04  0.00000000000E+00 0.  1.
         25    1    1    2    0    0  0.00000000000E+00  0.00000000000E+00 -0.16988713025E+04  0.17034637368E+04  0.12500000000E+03 0.  0.
<mgrwt>
<rscale>  0 0.12500000E+03</rscale>
<asrwt>0</asrwt>
<pdfrwt beam="1">  1       21 0.35326392E-03 0.12500000E+03</pdfrwt>
<pdfrwt beam="2">  1       21 0.26171827E+00 0.12500000E+03</pdfrwt>
<totfact> 0.11226506E+06</totfact>
</mgrwt>
</event>
<event>
 3    1  0.1597250E-001  0.1250000E+03  0.7546771E-02  0.1235069E+00
         21   -1    0    0  502  501  0.00000000000E+00  0.00000000000E+00  0.17746883756E+02  0.17746883756E+02  0.00000000000E+00 0.  1.
         21   -1    0    0  501  502 -0.00000000000E+00 -0.00000000000E+00 -0.22010906556E+03  0.22010906556E+03  0.00000000000E+00 0.  1.
         25    1    1    2    0    0  0.00000000000E+00  0.00000000000E+00 -0.20236218180E+03  0.23785594931E+03  0.12500000000E+03 0.  0.
<mgrwt>
<rscale>  0 0.12500000E+03</rscale>
<asrwt>0</asrwt>
<pdfrwt beam="1">  1       21 0.27302899E-02 0.12500000E+03</pdfrwt>
<pdfrwt beam="2">  1       21 0.33862933E-01 0.12500000E+03</pdfrwt>
<totfact> 0.61040757E+06</totfact>
</mgrwt>
</event>
<event>
 3    1  0.1597250E-001  0.1250000E+03  0.7546771E-02  0.1235069E+00
         21   -1    0    0  502  501  0.00000000000E+00  0.00000000000E+00  0.32457330046E+02  0.32457330046E+02  0.00000000000E+00 0. -1.
         21   -1    0    0  501  502 -0.00000000000E+00 -0.00000000000E+00 -0.12035031823E+03  0.12035031823E+03  0.00000000000E+00 0. -1.
         25    1    1    2    0    0  0.00000000000E+00  0.00000000000E+00 -0.87892988188E+02  0.15280764828E+03  0.12500000000E+03 0.  0.
<mgrwt>
<rscale>  0 0.12500000E+03</rscale>
<asrwt>0</asrwt>
<pdfrwt beam="1">  1       21 0.49934354E-02 0.12500000E+03</pdfrwt>
<pdfrwt beam="2">  1       21 0.18515433E-01 0.12500000E+03</pdfrwt>
<totfact> 0.70408266E+06</totfact>
</mgrwt>
</event>
<event>
 3    1  0.1597250E-001  0.1250000E+03  0.7546771E-02  0.1235069E+00
         21   -1    0    0  502  501  0.00000000000E+00  0.00000000000E+00  0.49065129977E+02  0.49065129977E+02  0.00000000000E+00 0.  1.
         21   -1    0    0  501  502 -0.00000000000E+00 -0.00000000000E+00 -0.79613566740E+02  0.79613566740E+02  0.00000000000E+00 0.  1.
         25    1    1    2    0    0  0.00000000000E+00  0.00000000000E+00 -0.30548436763E+02  0.12867869672E+03  0.12500000000E+03 0.  0.
<mgrwt>
<rscale>  0 0.12500000E+03</rscale>
<asrwt>0</asrwt>
<pdfrwt beam="1">  1       21 0.75484816E-02 0.12500000E+03</pdfrwt>
<pdfrwt beam="2">  1       21 0.12248241E-01 0.12500000E+03</pdfrwt>
<totfact> 0.73542069E+06</totfact>
</mgrwt>
</event>
<event>
 3    1  0.1597250E-001  0.1250000E+03  0.7546771E-02  0.1235069E+00
         21   -1    0    0  502  501  0.00000000000E+00  0.00000000000E+00  0.69619965682E+01  0.69619965682E+01  0.00000000000E+00 0. -1.
         21   -1    0    0  501  502 -0.00000000000E+00 -0.00000000000E+00 -0.56108186233E+03  0.56108186233E+03  0.00000000000E+00 0. -1.
         25    1    1    2    0    0  0.00000000000E+00  0.00000000000E+00 -0.55411986576E+03  0.56804385889E+03  0.12500000000E+03 0.  0.
<mgrwt>
<rscale>  0 0.12500000E+03</rscale>
<asrwt>0</asrwt>
<pdfrwt beam="1">  1       21 0.10710761E-02 0.12500000E+03</pdfrwt>
<pdfrwt beam="2">  1       21 0.86320308E-01 0.12500000E+03</pdfrwt>
<totfact> 0.38578864E+06</totfact>
</mgrwt>
</event>
<event>
 3    1  0.1597250E-001  0.1250000E+03  0.7546771E-02  0.1235069E+00
         21   -1    0    0  502  501  0.00000000000E+00  0.00000000000E+00  0.21691884329E+03  0.21691884329E+03  0.00000000000E+00 0.  1.
         21   -1    0    0  501  502 -0.00000000000E+00 -0.00000000000E+00 -0.18007886916E+02  0.18007886916E+02  0.00000000000E+00 0.  1.
         25    1    1    2    0    0  0.00000000000E+00  0.00000000000E+00  0.19891095638E+03  0.23492673021E+03  0.12500000000E+03 0.  0.
<mgrwt>
<rscale>  0 0.12500000E+03</rscale>
<asrwt>0</asrwt>
<pdfrwt beam="1">  1       21 0.33372128E-01 0.12500000E+03</pdfrwt>
<pdfrwt beam="2">  1       21 0.27704443E-02 0.12500000E+03</pdfrwt>
<totfact> 0.61327075E+06</totfact>
</mgrwt>
</event>
<event>
 3    1  0.1597250E-001  0.1250000E+03  0.7546771E-02  0.1235069E+00
         21   -1    0    0  502  501  0.00000000000E+00  0.00000000000E+00  0.30998162845E+01  0.30998162845E+01  0.00000000000E+00 0. -1.
         21   -1    0    0  501  502 -0.00000000000E+00 -0.00000000000E+00 -0.12601553258E+04  0.12601553258E+04  0.00000000000E+00 0. -1.
         25    1    1    2    0    0  0.00000000000E+00  0.00000000000E+00 -0.12570555095E+04  0.12632551421E+04  0.12500000000E+03 0.  0.
<mgrwt>
<rscale>  0 0.12500000E+03</rscale>
<asrwt>0</asrwt>
<pdfrwt beam="1">  1       21 0.47689398E-03 0.12500000E+03</pdfrwt>
<pdfrwt beam="2">  1       21 0.19387039E+00 0.12500000E+03</pdfrwt>
<totfact> 0.17925224E+06</totfact>
</mgrwt>
</event>
<event>
 3    1  0.1597250E-001  0.1250000E+03  0.7546771E-02  0.1235069E+00
         21   -1    0    0  502  501  0.00000000000E+00  0.00000000000E+00  0.74990956610E+03  0.74990956610E+03  0.00000000000E+00 0. -1.
         21   -1    0    0  501  502 -0.00000000000E+00 -0.00000000000E+00 -0.52089614222E+01  0.52089614222E+01  0.00000000000E+00 0. -1.
         25    1    1    2    0    0  0.00000000000E+00  0.00000000000E+00  0.74470060468E+03  0.75511852752E+03  0.12500000000E+03 0.  0.
<mgrwt>
<rscale>  0 0.12500000E+03</rscale>
<asrwt>0</asrwt>
<pdfrwt beam="1">  1       21 0.11537062E+00 0.12500000E+03</pdfrwt>
<pdfrwt beam="2">  1       21 0.80137927E-03 0.12500000E+03</pdfrwt>
<totfact> 0.30889667E+06</totfact>
</mgrwt>
</event>
<event>
 3    1  0.1597250E-001  0.1250000E+03  0.7546771E-02  0.1235069E+00
         21   -1    0    0  502  501  0.00000000000E+00  0.00000000000E+00  0.77070914604E+01  0.77070914604E+01  0.00000000000E+00 0. -1.
         21   -1    0    0  501  502 -0.00000000000E+00 -0.00000000000E+00 -0.50683841240E+03  0.50683841240E+03  0.00000000000E+00 0. -1.
         25    1    1    2    0    0  0.00000000000E+00  0.00000000000E+00 -0.49913132094E+03  0.51454550386E+03  0.12500000000E+03 0.  0.
<mgrwt>
<rscale>  0 0.12500000E+03</rscale>
<asrwt>0</asrwt>
<pdfrwt beam="1">  1       21 0.11857064E-02 0.12500000E+03</pdfrwt>
<pdfrwt beam="2">  1       21 0.77975137E-01 0.12500000E+03</pdfrwt>
<totfact> 0.41266065E+06</totfact>
</mgrwt>
</event>
<event>
 3    1  0.1597250E-001  0.1250000E+03  0.7546771E-02  0.1235069E+00
         21   -1    0    0  502  501  0.00000000000E+00  0.00000000000E+00  0.12526825135E+03  0.12526825135E+03  0.00000000000E+00 0. -1.
         21   -1    0    0  501  502 -0.00000000000E+00 -0.00000000000E+00 -0.31183080771E+02  0.31183080771E+02  0.00000000000E+00 0. -1.
         25    1    1    2    0    0  0.00000000000E+00  0.00000000000E+00  0.94085170584E+02  0.15645133213E+03  0.12500000000E+03 0.  0.
<mgrwt>
<rscale>  0 0.12500000E+03</rscale>
<asrwt>0</asrwt>
<pdfrwt beam="1">  1       21 0.19272038E-01 0.12500000E+03</pdfrwt>
<pdfrwt beam="2">  1       21 0.47973971E-02 0.12500000E+03</pdfrwt>
<totfact> 0.69955725E+06</totfact>
</mgrwt>
</event>
<event>
 3    1  0.1597250E-001  0.1250000E+03  0.7546771E-02  0.1235069E+00
         21   -1    0    0  502  501  0.00000000000E+00  0.00000000000E+00  0.21068033362E+03  0.21068033362E+03  0.00000000000E+00 0. -1.
         21   -1    0    0  501  502 -0.00000000000E+00 -0.00000000000E+00 -0.18541123098E+02  0.18541123098E+02  0.00000000000E+00 0. -1.
         25    1    1    2    0    0  0.00000000000E+00  0.00000000000E+00  0.19213921052E+03  0.22922145672E+03  0.12500000000E+03 0.  0.
<mgrwt>
<rscale>  0 0.12500000E+03</rscale>
<asrwt>0</asrwt>
<pdfrwt beam="1">  1       21 0.32412357E-01 0.12500000E+03</pdfrwt>
<pdfrwt beam="2">  1       21 0.28524806E-02 0.12500000E+03</pdfrwt>
<totfact> 0.61891544E+06</totfact>
</mgrwt>
</event>
<event>
 3    1  0.1597250E-001  0.1250000E+03  0.7546771E-02  0.1235069E+00
         21   -1    0    0  502  501  0.00000000000E+00  0.00000000000E+00  0.42962507817E+01  0.42962507817E+01  0.00000000000E+00 0.  1.
         21   -1    0    0  501  502 -0.00000000000E+00 -0.00000000000E+00 -0.90922299431E+03  0.90922299431E+03  0.00000000000E+00 0.  1.
         25    1    1    2    0    0  0.00000000000E+00  0.00000000000E+00 -0.90492674353E+03  0.91351924509E+03  0.12500000000E+03 0.  0.
<mgrwt>
<rscale>  0 0.12500000E+03</rscale>
<asrwt>0</asrwt>
<pdfrwt beam="1">  1       21 0.66096049E-03 0.12500000E+03</pdfrwt>
<pdfrwt beam="2">  1       21 0.13988071E+00 0.12500000E+03</pdfrwt>
<totfact> 0.25914068E+06</totfact>
</mgrwt>
</event>
<event>
 3    1  0.1597250E-001  0.1250000E+03  0.7546771E-02  0.1235069E+00
         21   -1    0    0  502  501  0.00000000000E+00  0.00000000000E+00  0.40465026460E+02  0.40465026460E+02  0.00000000000E+00 0. -1.
         21   -1    0    0  501  502 -0.00000000000E+00 -0.00000000000E+00 -0.96533978641E+02  0.96533978641E+02  0.00000000000E+00 0. -1.
         25    1    1    2    0    0  0.00000000000E+00  0.00000000000E+00 -0.56068952181E+02  0.13699900510E+03  0.12500000000E+03 0.  0.
<mgrwt>
<rscale>  0 0.12500000E+03</rscale>
<asrwt>0</asrwt>
<pdfrwt beam="1">  1       21 0.62253887E-02 0.12500000E+03</pdfrwt>
<pdfrwt beam="2">  1       21 0.14851381E-01 0.12500000E+03</pdfrwt>
<totfact> 0.72432858E+06</totfact>
</mgrwt>
</event>
<event>
 3    1  0.1597250E-001  0.1250000E+03  0.7546771E-02  0.1235069E+00
         21   -1    0    0  502  501  0.00000000000E+00  0.00000000000E+00  0.65367335911E+01  0.65367335911E+01  0.00000000000E+00 0.  1.
         21   -1    0    0  501  502 -0.00000000000E+00 -0.00000000000E+00 -0.59758439679E+03  0.59758439679E+03  0.00000000000E+00 0.  1.
         25    1    1    2    0    0  0.00000000000E+00  0.00000000000E+00 -0.59104766320E+03  0.60412113038E+03  0.12500000000E+03 0.  0.
<mgrwt>
<rscale>  0 0.12500000E+03</rscale>
<asrwt>0</asrwt>
<pdfrwt beam="1">  1       21 0.10056516E-02 0.12500000E+03</pdfrwt>
<pdfrwt beam="2">  1       21 0.91936036E-01 0.12500000E+03</pdfrwt>
<totfact> 0.36906926E+06</totfact>
</mgrwt>
</event>
<event>
 3    1  0.1597250E-001  0.1250000E+03  0.7546771E-02  0.1235069E+00
         21   -1    0    0  502  501  0.00000000000E+00  0.00000000000E+00  0.16262085847E+02  0.16262085847E+02  0.00000000000E+00 0. -1.
         21   -1    0    0  501  502 -0.00000000000E+00 -0.00000000000E+00 -0.24020596354E+03  0.24020596354E+03  0.00000000000E+00 0. -1.
         25    1    1    2    0    0  0.00000000000E+00  0.00000000000E+00 -0.22394387769E+03  0.25646804939E+03  0.12500000000E+03 0.  0.
<mgrwt>
<rscale>  0 0.12500000E+03</rscale>
<asrwt>0</asrwt>
<pdfrwt beam="1">  1       21 0.25018594E-02 0.12500000E+03</pdfrwt>
<pdfrwt beam="2">  1       21 0.36954763E-01 0.12500000E+03</pdfrwt>
<totfact> 0.59274520E+06</totfact>
</mgrwt>
</event>
<event>
 3    1  0.1597250E-001  0.1250000E+03  0.7546771E-02  0.1235069E+00
         21   -1    0    0  502  501  0.00000000000E+00  0.00000000000E+00  0.30256521760E+02  0.30256521760E+02  0.00000000000E+00 0. -1.
         21   -1    0    0  501  502 -0.00000000000E+00 -0.00000000000E+00 -0.12910439710E+03  0.12910439710E+03  0.00000000000E+00 0. -1.
         25    1    1    2    0    0  0.00000000000E+00  0.00000000000E+00 -0.98847875336E+02  0.15936091886E+03  0.12500000000E+03 0.  0.
<mgrwt>
<rscale>  0 0.12500000E+03</rscale>
<asrwt>0</asrwt>
<pdfrwt beam="1">  1       21 0.46548495E-02 0.12500000E+03</pdfrwt>
<pdfrwt beam="2">  1       21 0.19862215E-01 0.12500000E+03</pdfrwt>
<totfact> 0.69597669E+06</totfact>
</mgrwt>
</event>
<event>
 3    1  0.1597250E-001  0.1250000E+03  0.7546771E-02  0.1235069E+00
         21   -1    0    0  502  501  0.00000000000E+00  0.00000000000E+00  0.11915180107E+02  0.11915180107E+02  0.00000000000E+00 0.  1.
         21   -1    0    0  501  502 -0.00000000000E+00 -0.00000000000E+00 -0.32783809938E+03  0.32783809938E+03  0.00000000000E+00 0.  1.
         25    1    1    2    0    0  0.00000000000E+00  0.00000000000E+00 -0.31592291927E+03  0.33975327948E+03  0.12500000000E+03 0.  0.
<mgrwt>
<rscale>  0 0.12500000E+03</rscale>
<asrwt>0</asrwt>
<pdfrwt beam="1">  1       21 0.18331047E-02 0.12500000E+03</pdfrwt>
<pdfrwt beam="2">  1       21 0.50436630E-01 0.12500000E+03</pdfrwt>
<totfact> 0.52304200E+06</totfact>
</mgrwt>
</event>
<event>
 3    1  0.1597250E-001  0.1250000E+03  0.7546771E-02  0.1235069E+00
         21   -1    0    0  502  501  0.00000000000E+00  0.00000000000E+00  0.48156719322E+02  0.48156719322E+02  0.00000000000E+00 0.  1.
         21   -1    0    0  501  502 -0.00000000000E+00 -0.00000000000E+00 -0.81115367803E+02  0.81115367803E+02  0.00000000000E+00 0.  1.
         25    1    1    2    0    0  0.00000000000E+00  0.00000000000E+00 -0.32958648481E+02  0.12927208713E+03  0.12500000000E+03 0.  0.
<mgrwt>
<rscale>  0 0.12500000E+03</rscale>
<asrwt>0</asrwt>
<pdfrwt beam="1">  1       21 0.74087261E-02 0.12500000E+03</pdfrwt>
<pdfrwt beam="2">  1       21 0.12479287E-01 0.12500000E+03</pdfrwt>
<totfact> 0.73462365E+06</totfact>
</mgrwt>
</event>
<event>
 3    1  0.1597250E-001  0.1250000E+03  0.7546771E-02  0.1235069E+00
         21   -1    0    0  502  501  0.00000000000E+00  0.00000000000E+00  0.14212634877E+02  0.14212634877E+02  0.00000000000E+00 0. -1.
         21   -1    0    0  501  502 -0.00000000000E+00 -0.00000000000E+00 -0.27484347792E+03  0.27484347792E+03  0.00000000000E+00 0. -1.
         25    1    1    2    0    0  0.00000000000E+00  0.00000000000E+00 -0.26063084304E+03  0.28905611279E+03  0.12500000000E+03 0.  0.
<mgrwt>
<rscale>  0 0.12500000E+03</rscale>
<asrwt>0</asrwt>
<pdfrwt beam="1">  1       21 0.21865592E-02 0.12500000E+03</pdfrwt>
<pdfrwt beam="2">  1       21 0.42283612E-01 0.12500000E+03</pdfrwt>
<totfact> 0.56378095E+06</totfact>
</mgrwt>
</event>
<event>
 3    1  0.1597250E-001  0.1250000E+03  0.7546771E-02  0.1235069E+00
         21   -1    0    0  502  501  0.00000000000E+00  0.00000000000E+00  0.22558153730E+03  0.22558153730E+03  0.00000000000E+00 0.  1.
         21   -1    0    0  501  502 -0.00000000000E+00 -0.00000000000E+00 -0.17316355083E+02  0.17316355083E+02  0.00000000000E+00 0.  1.
         25    1    1    2    0    0  0.00000000000E+00  0.00000000000E+00  0.20826518222E+03  0.24289789238E+03  0.12500000000E+03 0.  0.
<mgrwt>
<rscale>  0 0.12500000E+03</rscale>
<asrwt>0</asrwt>
<pdfrwt beam="1">  1       21 0.34704850E-01 0.12500000E+03</pdfrwt>
<pdfrwt beam="2">  1       21 0.26640548E-02 0.12500000E+03</pdfrwt>
<totfact> 0.60553363E+06</totfact>
</mgrwt>
</event>
<event>
 3    1  0.1597250E-001  0.1250000E+03  0.7546771E-02  0.1235069E+00
         21   -1    0    0  502  501  0.00000000000E+00  0.00000000000E+00  0.27477998117E+03  0.27477998117E+03  0.00000000000E+00 0.  1.
         21   -1    0    0  501  502 -0.00000000000E+00 -0.00000000000E+00 -0.14215919163E+02  0.14215919163E+02  0.00000000000E+00 0.  1.
         25    1    1    2    0    0  0.00000000000E+00  0.00000000000E+00  0.26056406200E+03  0.28899590033E+03  0.12500000000E+03 0.  0.
<mgrwt>
<rscale>  0 0.12500000E+03</rscale>
<asrwt>0</asrwt>
<pdfrwt beam="1">  1       21 0.42273840E-01 0.12500000E+03</pdfrwt>
<pdfrwt beam="2">  1       21 0.21870647E-02 0.12500000E+03</pdfrwt>
<totfact> 0.56383240E+06</totfact>
</mgrwt>
</event>
<event>
 3    1  0.1597250E-001  0.1250000E+03  0.7546771E-02  0.1235069E+00
         21   -1    0    0  502  501  0.00000000000E+00  0.00000000000E+00  0.12695211513E+02  0.12695211513E+02  0.00000000000E+00 0.  1.
         21   -1    0    0  501  502 -0.00000000000E+00 -0.00000000000E+00 -0.30769475530E+03  0.30769475530E+03  0.00000000000E+00 0.  1.
         25    1    1    2    0    0  0.00000000000E+00  0.00000000000E+00 -0.29499954379E+03  0.32038996681E+03  0.12500000000E+03 0.  0.
<mgrwt>
<rscale>  0 0.12500000E+03</rscale>
<asrwt>0</asrwt>
<pdfrwt beam="1">  1       21 0.19531094E-02 0.12500000E+03</pdfrwt>
<pdfrwt beam="2">  1       21 0.47337656E-01 0.12500000E+03</pdfrwt>
<totfact> 0.53802453E+06</totfact>
</mgrwt>
</event>
<event>
 3    1  0.1597250E-001  0.1250000E+03  0.7546771E-02  0.1235069E+00
         21   -1    0    0  502  501  0.00000000000E+00  0.00000000000E+00  0.14660924815E+04  0.14660924815E+04  0.00000000000E+00 0.  1.
         21   -1    0    0  501  502 -0.00000000000E+00 -0.00000000000E+00 -0.26643953566E+01  0.26643953566E+01  0.00000000000E+00 0.  1.
         25    1    1    2    0    0  0.00000000000E+00  0.00000000000E+00  0.14634280861E+04  0.14687568768E+04  0.12500000000E+03 0.  0.
<mgrwt>
<rscale>  0 0.12500000E+03</rscale>
<asrwt>0</asrwt>
<pdfrwt beam="1">  1       21 0.22555205E+00 0.12500000E+03</pdfrwt>
<pdfrwt beam="2">  1       21 0.40990815E-03 0.12500000E+03</pdfrwt>
<totfact> 0.14462599E+06</totfact>
</mgrwt>
</event>
<event>
 3    1  0.1597250E-001  0.1250000E+03  0.7546771E-02  0.1235069E+00
         21   -1    0    0  502  501  0.00000000000E+00  0.00000000000E+00  0.98817136635E+01  0.98817136635E+01  0.00000000000E+00 0.  1.
         21   -1    0    0  501  502 -0.00000000000E+00 -0.00000000000E+00 -0.39530086916E+03  0.39530086916E+03  0.00000000000E+00 0.  1.
         25    1    1    2    0    0  0.00000000000E+00  0.00000000000E+00 -0.38541915550E+03  0.40518258283E+03  0.12500000000E+03 0.  0.
<mgrwt>
<rscale>  0 0.12500000E+03</rscale>
<asrwt>0</asrwt>
<pdfrwt beam="1">  1       21 0.15202638E-02 0.12500000E+03</pdfrwt>
<pdfrwt beam="2">  1       21 0.60815512E-01 0.12500000E+03</pdfrwt>
<totfact> 0.47699488E+06</totfact>
</mgrwt>
</event>
<event>
 3    1  0.1597250E-001  0.1250000E+03  0.7546771E-02  0.1235069E+00
         21   -1    0    0  502  501  0.00000000000E+00  0.00000000000E+00  0.38131697961E+01  0.38131697961E+01  0.00000000000E+00 0.  1.
         21   -1    0    0  501  502 -0.00000000000E+00 -0.00000000000E+00 -0.10244101912E+04  0.10244101912E+04  0.00000000000E+00 0.  1.
         25    1    1    2    0    0  0.00000000000E+00  0.00000000000E+00 -0.10205970214E+04  0.10282233610E+04  0.12500000000E+03 0.  0.
<mgrwt>
<rscale>  0 0.12500000E+03</rscale>
<asrwt>0</asrwt>
<pdfrwt beam="1">  1       21 0.58664118E-03 0.12500000E+03</pdfrwt>
<pdfrwt beam="2">  1       21 0.15760166E+00 0.12500000E+03</pdfrwt>
<totfact> 0.22922094E+06</totfact>
</mgrwt>
</event>
<event>
 3    1  0.1597250E-001  0.1250000E+03  0.7546771E-02  0.1235069E+00
         21   -1    0    0  502  501  0.00000000000E+00  0.00000000000E+00  0.21899093191E+03  0.21899093191E+03  0.00000000000E+00 0. -1.
         21   -1    0    0  501  502 -0.00000000000E+00 -0.00000000000E+00 -0.17837496584E+02  0.17837496584E+02  0.00000000000E+00 0. -1.
         25    1    1    2    0    0  0.00000000000E+00  0.00000000000E+00  0.20115343533E+03  0.23682842850E+03  0.12500000000E+03 0.  0.
<mgrwt>
<rscale>  0 0.12500000E+03</rscale>
<asrwt>0</asrwt>
<pdfrwt beam="1">  1       21 0.33690911E-01 0.12500000E+03</pdfrwt>
<pdfrwt beam="2">  1       21 0.27442304E-02 0.12500000E+03</pdfrwt>
<totfact> 0.61140926E+06</totfact>
</mgrwt>
</event>
<event>
 3    1  0.1597250E-001  0.1250000E+03  0.7546771E-02  0.1235069E+00
         21   -1    0    0  502  501  0.00000000000E+00  0.00000000000E+00  0.62423548917E+02  0.62423548917E+02  0.00000000000E+00 0. -1.
         21   -1    0    0  501  502 -0.00000000000E+00 -0.00000000000E+00 -0.62576544714E+02  0.62576544714E+02  0.00000000000E+00 0. -1.
         25    1    1    2    0    0  0.00000000000E+00  0.00000000000E+00 -0.15299579671E+00  0.12500009363E+03  0.12500000000E+03 0.  0.
<mgrwt>
<rscale>  0 0.12500000E+03</rscale>
<asrwt>0</asrwt>
<pdfrwt beam="1">  1       21 0.96036229E-02 0.12500000E+03</pdfrwt>
<pdfrwt beam="2">  1       21 0.96271607E-02 0.12500000E+03</pdfrwt>
<totfact> 0.74043569E+06</totfact>
</mgrwt>
</event>
<event>
 3    1  0.1597250E-001  0.1250000E+03  0.7546771E-02  0.1235069E+00
         21   -1    0    0  502  501  0.00000000000E+00  0.00000000000E+00  0.69094701863E+03  0.69094701863E+03  0.00000000000E+00 0.  1.
         21   -1    0    0  501  502 -0.00000000000E+00 -0.00000000000E+00 -0.56534725452E+01  0.56534725452E+01  0.00000000000E+00 0.  1.
         25    1    1    2    0    0  0.00000000000E+00  0.00000000000E+00  0.68529354608E+03  0.69660049117E+03  0.12500000000E+03 0.  0.
<mgrwt>
<rscale>  0 0.12500000E+03</rscale>
<asrwt>0</asrwt>
<pdfrwt beam="1">  1       21 0.10629947E+00 0.12500000E+03</pdfrwt>
<pdfrwt beam="2">  1       21 0.86976555E-03 0.12500000E+03</pdfrwt>
<totfact> 0.33041631E+06</totfact>
</mgrwt>
</event>
<event>
 3    1  0.1597250E-001  0.1250000E+03  0.7546771E-02  0.1235069E+00
         21   -1    0    0  502  501  0.00000000000E+00  0.00000000000E+00  0.74315698581E+01  0.74315698581E+01  0.00000000000E+00 0. -1.
         21   -1    0    0  501  502 -0.00000000000E+00 -0.00000000000E+00 -0.52562918396E+03  0.52562918396E+03  0.00000000000E+00 0. -1.
         25    1    1    2    0    0  0.00000000000E+00  0.00000000000E+00 -0.51819761410E+03  0.53306075381E+03  0.12500000000E+03 0.  0.
<mgrwt>
<rscale>  0 0.12500000E+03</rscale>
<asrwt>0</asrwt>
<pdfrwt beam="1">  1       21 0.11433185E-02 0.12500000E+03</pdfrwt>
<pdfrwt beam="2">  1       21 0.80866026E-01 0.12500000E+03</pdfrwt>
<totfact> 0.40306055E+06</totfact>
</mgrwt>
</event>
<event>
 3    1  0.1597250E-001  0.1250000E+03  0.7546771E-02  0.1235069E+00
         21   -1    0    0  502  501  0.00000000000E+00  0.00000000000E+00  0.12971291029E+03  0.12971291029E+03  0.00000000000E+00 0.  1.
         21   -1    0    0  501  502 -0.00000000000E+00 -0.00000000000E+00 -0.30114581434E+02  0.30114581434E+02  0.00000000000E+00 0.  1.
         25    1    1    2    0    0  0.00000000000E+00  0.00000000000E+00  0.99598328855E+02  0.15982749172E+03  0.12500000000E+03 0.  0.
<mgrwt>
<rscale>  0 0.12500000E+03</rscale>
<asrwt>0</asrwt>
<pdfrwt beam="1">  1       21 0.19955832E-01 0.12500000E+03</pdfrwt>
<pdfrwt beam="2">  1       21 0.46330126E-02 0.12500000E+03</pdfrwt>
<totfact> 0.69540581E+06</totfact>
</mgrwt>
</event>
<event>
 3    1  0.1597250E-001  0.1250000E+03  0.7546771E-02  0.1235069E+00
         21   -1    0    0  502  501  0.00000000000E+00  0.00000000000E+00  0.11912867818E+03  0.11912867818E+03  0.00000000000E+00 0.  1.
         21   -1    0    0  501  502 -0.00000000000E+00 -0.00000000000E+00 -0.32790173279E+02  0.32790173279E+02  0.00000000000E+00 0.  1.
         25    1    1    2    0    0  0.00000000000E+00  0.00000000000E+00  0.86338504899E+02  0.15191885146E+03  0.12500000000E+03 0.  0.
<mgrwt>
<rscale>  0 0.12500000E+03</rscale>
<asrwt>0</asrwt>
<pdfrwt beam="1">  1       21 0.18327489E-01 0.12500000E+03</pdfrwt>
<pdfrwt beam="2">  1       21 0.50446421E-02 0.12500000E+03</pdfrwt>
<totfact> 0.70518983E+06</totfact>
</mgrwt>
</event>
<event>
 3    1  0.1597250E-001  0.1250000E+03  0.7546771E-02  0.1235069E+00
         21   -1    0    0  502  501  0.00000000000E+00  0.00000000000E+00  0.22842465468E+03  0.22842465468E+03  0.00000000000E+00 0.  1.
         21   -1    0    0  501  502 -0.00000000000E+00 -0.00000000000E+00 -0.17100824801E+02  0.17100824801E+02  0.00000000000E+00 0.  1.
         25    1    1    2    0    0  0.00000000000E+00  0.00000000000E+00  0.21132382988E+03  0.24552547948E+03  0.12500000000E+03 0.  0.
<mgrwt>
<rscale>  0 0.12500000E+03</rscale>
<asrwt>0</asrwt>
<pdfrwt beam="1">  1       21 0.35142252E-01 0.12500000E+03</pdfrwt>
<pdfrwt beam="2">  1       21 0.26308963E-02 0.12500000E+03</pdfrwt>
<totfact> 0.60302036E+06</totfact>
</mgrwt>
</event>
<event>
 3    1  0.1597250E-001  0.1250000E+03  0.7546771E-02  0.1235069E+00
         21   -1    0    0  502  501  0.00000000000E+00  0.00000000000E+00  0.21121278642E+01  0.21121278642E+01  0.00000000000E+00 0. -1.
         21   -1    0    0  501  502 -0.00000000000E+00 -0.00000000000E+00 -0.18494382211E+04  0.18494382211E+04  0.00000000000E+00 0. -1.
         25    1    1    2    0    0  0.00000000000E+00  0.00000000000E+00 -0.18473260933E+04  0.18515503490E+04  0.12500000000E+03 0.  0.
<mgrwt>
<rscale>  0 0.12500000E+03</rscale>
<asrwt>0</asrwt>
<pdfrwt beam="1">  1       21 0.32494351E-03 0.12500000E+03</pdfrwt>
<pdfrwt beam="2">  1       21 0.28452829E+00 0.12500000E+03</pdfrwt>
<totfact> 0.94892797E+05</totfact>
</mgrwt>
</event>
<event>
 3    1  0.1597250E-001  0.1250000E+03  0.7546771E-02  0.1235069E+00
         21   -1    0    0  502  501  0.00000000000E+00  0.00000000000E+00  0.63679830301E+02  0.63679830301E+02  0.00000000000E+00 0. -1.
         21   -1    0    0  501  502 -0.00000000000E+00 -0.00000000000E+00 -0.61342029046E+02  0.61342029046E+02  0.00000000000E+00 0. -1.
         25    1    1    2    0    0  0.00000000000E+00  0.00000000000E+00  0.23378012552E+01  0.12502185935E+03  0.12500000000E+03 0.  0.
<mgrwt>
<rscale>  0 0.12500000E+03</rscale>
<asrwt>0</asrwt>
<pdfrwt beam="1">  1       21 0.97968970E-02 0.12500000E+03</pdfrwt>
<pdfrwt beam="2">  1       21 0.94372352E-02 0.12500000E+03</pdfrwt>
<totfact> 0.74040629E+06</totfact>
</mgrwt>
</event>
<event>
 3    1  0.1597250E-001  0.1250000E+03  0.7546771E-02  0.1235069E+00
         21   -1    0    0  502  501  0.00000000000E+00  0.00000000000E+00  0.87861484246E+03  0.87861484246E+03  0.00000000000E+00 0. -1.
         21   -1    0    0  501  502 -0.00000000000E+00 -0.00000000000E+00 -0.44459185200E+01  0.44459185200E+01  0.00000000000E+00 0. -1.
         25    1    1    2    0    0  0.00000000000E+00  0.00000000000E+00  0.87416892394E+03  0.88306076098E+03  0.12500000000E+03 0.  0.
<mgrwt>
<rscale>  0 0.12500000E+03</rscale>
<asrwt>0</asrwt>
<pdfrwt beam="1">  1       21 0.13517138E+00 0.12500000E+03</pdfrwt>
<pdfrwt beam="2">  1       21 0.68398816E-03 0.12500000E+03</pdfrwt>
<totfact> 0.26787607E+06</totfact>
</mgrwt>
</event>
<event>
 3    1  0.1597250E-001  0.1250000E+03  0.7546771E-02  0.1235069E+00
         21   -1    0    0  502  501  0.00000000000E+00  0.00000000000E+00  0.13590031532E+02  0.13590031532E+02  0.00000000000E+00 0.  1.
         21   -1    0    0  501  502 -0.00000000000E+00 -0.00000000000E+00 -0.28743494751E+03  0.28743494751E+03  0.00000000000E+00 0.  1.
         25    1    1    2    0    0  0.00000000000E+00  0.00000000000E+00 -0.27384491598E+03  0.30102497905E+03  0.12500000000E+03 0.  0.
<mgrwt>
<rscale>  0 0.12500000E+03</rscale>
<asrwt>0</asrwt>
<pdfrwt beam="1">  1       21 0.20907742E-02 0.12500000E+03</pdfrwt>
<pdfrwt beam="2">  1       21 0.44220759E-01 0.12500000E+03</pdfrwt>
<totfact> 0.55371102E+06</totfact>
</mgrwt>
</event>
<event>
 3    1  0.1597250E-001  0.1250000E+03  0.7546771E-02  0.1235069E+00
         21   -1    0    0  502  501  0.00000000000E+00  0.00000000000E+00  0.13839519859E+02  0.13839519859E+02  0.00000000000E+00 0.  1.
         21   -1    0    0  501  502 -0.00000000000E+00 -0.00000000000E+00 -0.28225328911E+03  0.28225328911E+03  0.00000000000E+00 0.  1.
         25    1    1    2    0    0  0.00000000000E+00  0.00000000000E+00 -0.26841376925E+03  0.29609280897E+03  0.12500000000E+03 0.  0.
<mgrwt>
<rscale>  0 0.12500000E+03</rscale>
<asrwt>0</asrwt>
<pdfrwt beam="1">  1       21 0.21291570E-02 0.12500000E+03</pdfrwt>
<pdfrwt beam="2">  1       21 0.43423580E-01 0.12500000E+03</pdfrwt>
<totfact> 0.55782448E+06</totfact>
</mgrwt>
</event>
<event>
 3    1  0.1597250E-001  0.1250000E+03  0.7546771E-02  0.1235069E+00
         21   -1    0    0  502  501  0.00000000000E+00  0.00000000000E+00  0.22597988478E+01  0.22597988478E+01  0.00000000000E+00 0.  1.
         21   -1    0    0  501  502 -0.00000000000E+00 -0.00000000000E+00 -0.17285830567E+04  0.17285830567E+04  0.00000000000E+00 0.  1.
         25    1    1    2    0    0  0.00000000000E+00  0.00000000000E+00 -0.17263232579E+04  0.17308428556E+04  0.12500000000E+03 0.  0.
<mgrwt>
<rscale>  0 0.12500000E+03</rscale>
<asrwt>0</asrwt>
<pdfrwt beam="1">  1       21 0.34766285E-03 0.12500000E+03</pdfrwt>
<pdfrwt beam="2">  1       21 0.26593471E+00 0.12500000E+03</pdfrwt>
<totfact> 0.10889401E+06</totfact>
</mgrwt>
</event>
<event>
 3    1  0.1597250E-001  0.1250000E+03  0.7546771E-02  0.1235069E+00
         21   -1    0    0  502  501  0.00000000000E+00  0.00000000000E+00  0.13795534425E+02  0.13795534425E+02  0.00000000000E+00 0.  1.
         21   -1    0    0  501  502 -0.00000000000E+00 -0.00000000000E+00 -0.28315322043E+03  0.28315322043E+03  0.00000000000E+00 0.  1.
         25    1    1    2    0    0  0.00000000000E+00  0.00000000000E+00 -0.26935768601E+03  0.29694875486E+03  0.12500000000E+03 0.  0.
<mgrwt>
<rscale>  0 0.12500000E+03</rscale>
<asrwt>0</asrwt>
<pdfrwt beam="1">  1       21 0.21223897E-02 0.12500000E+03</pdfrwt>
<pdfrwt beam="2">  1       21 0.43562039E-01 0.12500000E+03</pdfrwt>
<totfact> 0.55710698E+06</totfact>
</mgrwt>
</event>
<event>
 3    1  0.1597250E-001  0.1250000E+03  0.7546771E-02  0.1235069E+00
         21   -1    0    0  502  501  0.00000000000E+00  0.00000000000E+00  0.97238337542E+01  0.97238337542E+01  0.00000000000E+00 0. -1.
         21   -1    0    0  501  502 -0.00000000000E+00 -0.00000000000E+00 -0.40171912630E+03  0.40171912630E+03  0.00000000000E+00 0. -1.
         25    1    1    2    0    0  0.00000000000E+00  0.00000000000E+00 -0.39199529254E+03  0.41144296005E+03  0.12500000000E+03 0.  0.
<mgrwt>
<rscale>  0 0.12500000E+03</rscale>
<asrwt>0</asrwt>
<pdfrwt beam="1">  1       21 0.14959744E-02 0.12500000E+03</pdfrwt>
<pdfrwt beam="2">  1       21 0.61802943E-01 0.12500000E+03</pdfrwt>
<totfact> 0.47291499E+06</totfact>
</mgrwt>
</event>
<event>
 3    1  0.1597250E-001  0.1250000E+03  0.7546771E-02  0.1235069E+00
         21   -1    0    0  502  501  0.00000000000E+00  0.00000000000E+00  0.90528504787E+02  0.90528504787E+02  0.00000000000E+00 0. -1.
         21   -1    0    0  501  502 -0.00000000000E+00 -0.00000000000E+00 -0.43149392660E+02  0.43149392660E+02  0.00000000000E+00 0. -1.
         25    1    1    2    0    0  0.00000000000E+00  0.00000000000E+00  0.47379112127E+02  0.13367789745E+03  0.12500000000E+03 0.  0.
<mgrwt>
<rscale>  0 0.12500000E+03</rscale>
<asrwt>0</asrwt>
<pdfrwt beam="1">  1       21 0.13927462E-01 0.12500000E+03</pdfrwt>
<pdfrwt beam="2">  1       21 0.66383681E-02 0.12500000E+03</pdfrwt>
<totfact> 0.72872009E+06</totfact>
</mgrwt>
</event>
<event>
 3    1  0.1597250E-001  0.1250000E+03  0.7546771E-02  0.1235069E+00
         21   -1    0    0  502  501  0.00000000000E+00  0.00000000000E+00  0.15799776600E+03  0.15799776600E+03  0.00000000000E+00 0.  1.
         21   -1    0    0  501  502 -0.00000000000E+00 -0.00000000000E+00 -0.24723450837E+02  0.24723450837E+02  0.00000000000E+00 0.  1.
         25    1    1    2    0    0  0.00000000000E+00  0.00000000000E+00  0.13327431516E+03  0.18272121684E+03  0.12500000000E+03 0.  0.
<mgrwt>
<rscale>  0 0.12500000E+03</rscale>
<asrwt>0</asrwt>
<pdfrwt beam="1">  1       21 0.24307348E-01 0.12500000E+03</pdfrwt>
<pdfrwt beam="2">  1       21 0.38036079E-02 0.12500000E+03</pdfrwt>
<totfact> 0.66840731E+06</totfact>
</mgrwt>
</event>
<event>
 3    1  0.1597250E-001  0.1250000E+03  0.7546771E-02  0.1235069E+00
         21   -1    0    0  502  501  0.00000000000E+00  0.00000000000E+00  0.16088682160E+03  0.16088682160E+03  0.00000000000E+00 0. -1.
         21   -1    0    0  501  502 -0.00000000000E+00 -0.00000000000E+00 -0.24279490148E+02  0.24279490148E+02  0.00000000000E+00 0. -1.
         25    1    1    2    0    0  0.00000000000E+00  0.00000000000E+00  0.13660733145E+03  0.18516631175E+03  0.12500000000E+03 0.  0.
<mgrwt>
<rscale>  0 0.12500000E+03</rscale>
<asrwt>0</asrwt>
<pdfrwt beam="1">  1       21 0.24751818E-01 0.12500000E+03</pdfrwt>
<pdfrwt beam="2">  1       21 0.37353063E-02 0.12500000E+03</pdfrwt>
<totfact> 0.66563759E+06</totfact>
</mgrwt>
</event>
<event>
 3    1  0.1597250E-001  0.1250000E+03  0.7546771E-02  0.1235069E+00
         21   -1    0    0  502  501  0.00000000000E+00  0.00000000000E+00  0.16515409524E+02  0.16515409524E+02  0.00000000000E+00 0.  1.
         21   -1    0    0  501  502 -0.00000000000E+00 -0.00000000000E+00 -0.23652153428E+03  0.23652153428E+03  0.00000000000E+00 0.  1.
         25    1    1    2    0    0  0.00000000000E+00  0.00000000000E+00 -0.22000612476E+03  0.25303694381E+03  0.12500000000E+03 0.  0.
<mgrwt>
<rscale>  0 0.12500000E+03</rscale>
<asrwt>0</asrwt>
<pdfrwt beam="1">  1       21 0.25408325E-02 0.12500000E+03</pdfrwt>
<pdfrwt beam="2">  1       21 0.36387925E-01 0.12500000E+03</pdfrwt>
<totfact> 0.59593440E+06</totfact>
</mgrwt>
</event>
<event>
 3    1  0.1597250E-001  0.1250000E+03  0.7546771E-02  0.1235069E+00
         21   -1    0    0  502  501  0.00000000000E+00  0.00000000000E+00  0.37479976458E+02  0.37479976458E+02  0.00000000000E+00 0.  1.
         21   -1    0    0  501  502 -0.00000000000E+00 -0.00000000000E+00 -0.10422231733E+03  0.10422231733E+03  0.00000000000E+00 0.  1.
         25    1    1    2    0    0  0.00000000000E+00  0.00000000000E+00 -0.66742340875E+02  0.14170229379E+03  0.12500000000E+03 0.  0.
<mgrwt>
<rscale>  0 0.12500000E+03</rscale>
<asrwt>0</asrwt>
<pdfrwt beam="1">  1       21 0.57661503E-02 0.12500000E+03</pdfrwt>
<pdfrwt beam="2">  1       21 0.16034203E-01 0.12500000E+03</pdfrwt>
<totfact> 0.71817850E+06</totfact>
</mgrwt>
</event>
<event>
 3    1  0.1597250E-001  0.1250000E+03  0.7546771E-02  0.1235069E+00
         21   -1    0    0  502  501  0.00000000000E+00  0.00000000000E+00  0.84356400167E+02  0.84356400167E+02  0.00000000000E+00 0. -1.
         21   -1    0    0  501  502 -0.00000000000E+00 -0.00000000000E+00 -0.46306504216E+02  0.46306504216E+02  0.00000000000E+00 0. -1.
         25    1    1    2    0    0  0.00000000000E+00  0.00000000000E+00  0.38049895950E+02  0.13066290438E+03  0.12500000000E+03 0.  0.
<mgrwt>
<rscale>  0 0.12500000E+03</rscale>
<asrwt>0</asrwt>
<pdfrwt beam="1">  1       21 0.12977908E-01 0.12500000E+03</pdfrwt>
<pdfrwt beam="2">  1       21 0.71240776E-02 0.12500000E+03</pdfrwt>
<totfact> 0.73276134E+06</totfact>
</mgrwt>
</event>
<event>
 3    1  0.1597250E-001  0.1250000E+03  0.7546771E-02  0.1235069E+00
         21   -1    0    0  502  501  0.00000000000E+00  0.00000000000E+00  0.31120010248E+01  0.31120010248E+01  0.00000000000E+00 0. -1.
         21   -1    0    0  501  502 -0.00000000000E+00 -0.00000000000E+00 -0.12552213090E+04  0.12552213090E+04  0.00000000000E+00 0. -1.
         25    1    1    2    0    0  0.00000000000E+00  0.00000000000E+00 -0.12521093080E+04  0.12583333100E+04  0.12500000000E+03 0.  0.
<mgrwt>
<rscale>  0 0.12500000E+03</rscale>
<asrwt>0</asrwt>
<pdfrwt beam="1">  1       21 0.47876974E-03 0.12500000E+03</pdfrwt>
<pdfrwt beam="2">  1       21 0.19311083E+00 0.12500000E+03</pdfrwt>
<totfact> 0.18017449E+06</totfact>
</mgrwt>
</event>
<event>
 3    1  0.1597250E-001  0.1250000E+03  0.7546771E-02  0.1235069E+00
         21   -1    0    0  502  501  0.00000000000E+00  0.00000000000E+00  0.31524007709E+02  0.31524007709E+02  0.00000000000E+00 0. -1.
         21   -1    0    0  501  502 -0.00000000000E+00 -0.00000000000E+00 -0.12391349590E+03  0.12391349590E+03  0.00000000000E+00 0. -1.
         25    1    1    2    0    0  0.00000000000E+00  0.00000000000E+00 -0.92389488189E+02  0.15543750361E+03  0.12500000000E+03 0.  0.
<mgrwt>
<rscale>  0 0.12500000E+03</rscale>
<asrwt>0</asrwt>
<pdfrwt beam="1">  1       21 0.48498473E-02 0.12500000E+03</pdfrwt>
<pdfrwt beam="2">  1       21 0.19063615E-01 0.12500000E+03</pdfrwt>
<totfact> 0.70081324E+06</totfact>
</mgrwt>
</event>
<event>
 3    1  0.1597250E-001  0.1250000E+03  0.7546771E-02  0.1235069E+00
         21   -1    0    0  502  501  0.00000000000E+00  0.00000000000E+00  0.17840257392E+03  0.17840257392E+03  0.00000000000E+00 0.  1.
         21   -1    0    0  501  502 -0.00000000000E+00 -0.00000000000E+00 -0.21895704273E+02  0.21895704273E+02  0.00000000000E+00 0.  1.
         25    1    1    2    0    0  0.00000000000E+00  0.00000000000E+00  0.15650686964E+03  0.20029827819E+03  0.12500000000E+03 0.  0.
<mgrwt>
<rscale>  0 0.12500000E+03</rscale>
<asrwt>0</asrwt>
<pdfrwt beam="1">  1       21 0.27446549E-01 0.12500000E+03</pdfrwt>
<pdfrwt beam="2">  1       21 0.33685700E-02 0.12500000E+03</pdfrwt>
<totfact> 0.64894947E+06</totfact>
</mgrwt>
</event>
<event>
 3    1  0.1597250E-001  0.1250000E+03  0.7546771E-02  0.1235069E+00
         21   -1    0    0  502  501  0.00000000000E+00  0.00000000000E+00  0.50571949430E+02  0.50571949430E+02  0.00000000000E+00 0.  1.
         21   -1    0    0  501  502 -0.00000000000E+00 -0.00000000000E+00 -0.77241436092E+02  0.77241436092E+02  0.00000000000E+00 0.  1.
         25    1    1    2    0    0  0.00000000000E+00  0.00000000000E+00 -0.26669486662E+02  0.12781338552E+03  0.12500000000E+03 0.  0.
<mgrwt>
<rscale>  0 0.12500000E+03</rscale>
<asrwt>0</asrwt>
<pdfrwt beam="1">  1       21 0.77802999E-02 0.12500000E+03</pdfrwt>
<pdfrwt beam="2">  1       21 0.11883298E-01 0.12500000E+03</pdfrwt>
<totfact> 0.73658784E+06</totfact>
</mgrwt>
</event>
<event>
 3    1  0.1597250E-001  0.1250000E+03  0.7546771E-02  0.1235069E+00
         21   -1    0    0  502  501  0.00000000000E+00  0.00000000000E+00  0.82965971464E+01  0.82965971464E+01  0.00000000000E+00 0.  1.
         21   -1    0    0  501  502 -0.00000000000E+00 -0.00000000000E+00 -0.47082556030E+03  0.47082556030E+03  0.00000000000E+00 0.  1.
         25    1    1    2    0    0  0.00000000000E+00  0.00000000000E+00 -0.46252896315E+03  0.47912215744E+03  0.12500000000E+03 0.  0.
<mgrwt>
<rscale>  0 0.12500000E+03</rscale>
<asrwt>0</asrwt>
<pdfrwt beam="1">  1       21 0.12763991E-02 0.12500000E+03</pdfrwt>
<pdfrwt beam="2">  1       21 0.72434727E-01 0.12500000E+03</pdfrwt>
<totfact> 0.43199426E+06</totfact>
</mgrwt>
</event>
<event>
 3    1  0.1597250E-001  0.1250000E+03  0.7546771E-02  0.1235069E+00
         21   -1    0    0  502  501  0.00000000000E+00  0.00000000000E+00  0.77878225894E+02  0.77878225894E+02  0.00000000000E+00 0.  1.
         21   -1    0    0  501  502 -0.00000000000E+00 -0.00000000000E+00 -0.50158435881E+02  0.50158435881E+02  0.00000000000E+00 0.  1.
         25    1    1    2    0    0  0.00000000000E+00  0.00000000000E+00  0.27719790013E+02  0.12803666177E+03  0.12500000000E+03 0.  0.
<mgrwt>
<rscale>  0 0.12500000E+03</rscale>
<asrwt>0</asrwt>
<pdfrwt beam="1">  1       21 0.11981266E-01 0.12500000E+03</pdfrwt>
<pdfrwt beam="2">  1       21 0.77166824E-02 0.12500000E+03</pdfrwt>
<totfact> 0.73628607E+06</totfact>
</mgrwt>
</event>
<event>
 3    1  0.1597250E-001  0.1250000E+03  0.7546771E-02  0.1235069E+00
         21   -1    0    0  502  501  0.00000000000E+00  0.00000000000E+00  0.11287011322E+03  0.11287011322E+03  0.00000000000E+00 0.  1.
         21   -1    0    0  501  502 -0.00000000000E+00 -0.00000000000E+00 -0.34608364326E+02  0.34608364326E+02  0.00000000000E+00 0.  1.
         25    1    1    2    0    0  0.00000000000E+00  0.00000000000E+00  0.78261748899E+02  0.14747847755E+03  0.12500000000E+03 0.  0.
<mgrwt>
<rscale>  0 0.12500000E+03</rscale>
<asrwt>0</asrwt>
<pdfrwt beam="1">  1       21 0.17364633E-01 0.12500000E+03</pdfrwt>
<pdfrwt beam="2">  1       21 0.53243638E-02 0.12500000E+03</pdfrwt>
<totfact> 0.71077406E+06</totfact>
</mgrwt>
</event>
<event>
 3    1  0.1597250E-001  0.1250000E+03  0.7546771E-02  0.1235069E+00
         21   -1    0    0  502  501  0.00000000000E+00  0.00000000000E+00  0.24284134041E+03  0.24284134041E+03  0.00000000000E+00 0.  1.
         21   -1    0    0  501  502 -0.00000000000E+00 -0.00000000000E+00 -0.16085605496E+02  0.16085605496E+02  0.00000000000E+00 0.  1.
         25    1    1    2    0    0  0.00000000000E+00  0.00000000000E+00  0.22675573491E+03  0.25892694591E+03  0.12500000000E+03 0.  0.
<mgrwt>
<rscale>  0 0.12500000E+03</rscale>
<asrwt>0</asrwt>
<pdfrwt beam="1">  1       21 0.37360203E-01 0.12500000E+03</pdfrwt>
<pdfrwt beam="2">  1       21 0.24747087E-02 0.12500000E+03</pdfrwt>
<totfact> 0.59047764E+06</totfact>
</mgrwt>
</event>
<event>
 3    1  0.1597250E-001  0.1250000E+03  0.7546771E-02  0.1235069E+00
         21   -1    0    0  502  501  0.00000000000E+00  0.00000000000E+00  0.15258374644E+02  0.15258374644E+02  0.00000000000E+00 0. -1.
         21   -1    0    0  501  502 -0.00000000000E+00 -0.00000000000E+00 -0.25600695297E+03  0.25600695297E+03  0.00000000000E+00 0. -1.
         25    1    1    2    0    0  0.00000000000E+00  0.00000000000E+00 -0.24074857833E+03  0.27126532762E+03  0.12500000000E+03 0.  0.
<mgrwt>
<rscale>  0 0.12500000E+03</rscale>
<asrwt>0</asrwt>
<pdfrwt beam="1">  1       21 0.23474424E-02 0.12500000E+03</pdfrwt>
<pdfrwt beam="2">  1       21 0.39385683E-01 0.12500000E+03</pdfrwt>
<totfact> 0.57931875E+06</totfact>
</mgrwt>
</event>
<event>
 3    1  0.1597250E-001  0.1250000E+03  0.7546771E-02  0.1235069E+00
         21   -1    0    0  502  501  0.00000000000E+00  0.00000000000E+00  0.60521967857E+01  0.60521967857E+01  0.00000000000E+00 0. -1.
         21   -1    0    0  501  502 -0.00000000000E+00 -0.00000000000E+00 -0.64542679928E+03  0.64542679928E+03  0.00000000000E+00 0. -1.
         25    1    1    2    0    0  0.00000000000E+00  0.00000000000E+00 -0.63937460249E+03  0.65147899606E+03  0.12500000000E+03 0.  0.
<mgrwt>
<rscale>  0 0.12500000E+03</rscale>
<asrwt>0</asrwt>
<pdfrwt beam="1">  1       21 0.93110711E-03 0.12500000E+03</pdfrwt>
<pdfrwt beam="2">  1       21 0.99296440E-01 0.12500000E+03</pdfrwt>
<totfact> 0.34863094E+06</totfact>
</mgrwt>
</event>
<event>
 3    1  0.1597250E-001  0.1250000E+03  0.7546771E-02  0.1235069E+00
         21   -1    0    0  502  501  0.00000000000E+00  0.00000000000E+00  0.12028471688E+03  0.12028471688E+03  0.00000000000E+00 0.  1.
         21   -1    0    0  501  502 -0.00000000000E+00 -0.00000000000E+00 -0.32475031751E+02  0.32475031751E+02  0.00000000000E+00 0.  1.
         25    1    1    2    0    0  0.00000000000E+00  0.00000000000E+00  0.87809685134E+02  0.15275974864E+03  0.12500000000E+03 0.  0.
<mgrwt>
<rscale>  0 0.12500000E+03</rscale>
<asrwt>0</asrwt>
<pdfrwt beam="1">  1       21 0.18505341E-01 0.12500000E+03</pdfrwt>
<pdfrwt beam="2">  1       21 0.49961588E-02 0.12500000E+03</pdfrwt>
<totfact> 0.70414224E+06</totfact>
</mgrwt>
</event>
<event>
 3    1  0.1597250E-001  0.1250000E+03  0.7546771E-02  0.1235069E+00
         21   -1    0    0  502  501  0.00000000000E+00  0.00000000000E+00  0.91172778493E+02  0.91172778493E+02  0.00000000000E+00 0.  1.
         21   -1    0    0  501  502 -0.00000000000E+00 -0.00000000000E+00 -0.42844476877E+02  0.42844476877E+02  0.00000000000E+00 0.  1.
         25    1    1    2    0    0  0.00000000000E+00  0.00000000000E+00  0.48328301615E+02  0.13401725537E+03  0.12500000000E+03 0.  0.
<mgrwt>
<rscale>  0 0.12500000E+03</rscale>
<asrwt>0</asrwt>
<pdfrwt beam="1">  1       21 0.14026581E-01 0.12500000E+03</pdfrwt>
<pdfrwt beam="2">  1       21 0.65914580E-02 0.12500000E+03</pdfrwt>
<totfact> 0.72826859E+06</totfact>
</mgrwt>
</event>
<event>
 3    1  0.1597250E-001  0.1250000E+03  0.7546771E-02  0.1235069E+00
         21   -1    0    0  502  501  0.00000000000E+00  0.00000000000E+00  0.18778312699E+02  0.18778312699E+02  0.00000000000E+00 0. -1.
         21   -1    0    0  501  502 -0.00000000000E+00 -0.00000000000E+00 -0.20801922210E+03  0.20801922210E+03  0.00000000000E+00 0. -1.
         25    1    1    2    0    0  0.00000000000E+00  0.00000000000E+00 -0.18924090940E+03  0.22679753480E+03  0.12500000000E+03 0.  0.
<mgrwt>
<rscale>  0 0.12500000E+03</rscale>
<asrwt>0</asrwt>
<pdfrwt beam="1">  1       21 0.28889711E-02 0.12500000E+03</pdfrwt>
<pdfrwt beam="2">  1       21 0.32002958E-01 0.12500000E+03</pdfrwt>
<totfact> 0.62134130E+06</totfact>
</mgrwt>
</event>
<event>
 3    1  0.1597250E-001  0.1250000E+03  0.7546771E-02  0.1235069E+00
         21   -1    0    0  502  501  0.00000000000E+00  0.00000000000E+00  0.19234137961E+03  0.19234137961E+03  0.00000000000E+00 0. -1.
         21   -1    0    0  501  502 -0.00000000000E+00 -0.00000000000E+00 -0.20308942402E+02  0.20308942402E+02  0.00000000000E+00 0. -1.
         25    1    1    2    0    0  0.00000000000E+00  0.00000000000E+00  0.17203243721E+03  0.21265032201E+03  0.12500000000E+03 0.  0.
<mgrwt>
<rscale>  0 0.12500000E+03</rscale>
<asrwt>0</asrwt>
<pdfrwt beam="1">  1       21 0.29590980E-01 0.12500000E+03</pdfrwt>
<pdfrwt beam="2">  1       21 0.31244528E-02 0.12500000E+03</pdfrwt>
<totfact> 0.63581767E+06</totfact>
</mgrwt>
</event>
<event>
 3    1  0.1597250E-001  0.1250000E+03  0.7546771E-02  0.1235069E+00
         21   -1    0    0  502  501  0.00000000000E+00  0.00000000000E+00  0.58187517118E+01  0.58187517118E+01  0.00000000000E+00 0. -1.
         21   -1    0    0  501  502 -0.00000000000E+00 -0.00000000000E+00 -0.67132096254E+03  0.67132096254E+03  0.00000000000E+00 0. -1.
         25    1    1    2    0    0  0.00000000000E+00  0.00000000000E+00 -0.66550221083E+03  0.67713971426E+03  0.12500000000E+03 0.  0.
<mgrwt>
<rscale>  0 0.12500000E+03</rscale>
<asrwt>0</asrwt>
<pdfrwt beam="1">  1       21 0.89519290E-03 0.12500000E+03</pdfrwt>
<pdfrwt beam="2">  1       21 0.10328011E+00 0.12500000E+03</pdfrwt>
<totfact> 0.33810264E+06</totfact>
</mgrwt>
</event>
<event>
 3    1  0.1597250E-001  0.1250000E+03  0.7546771E-02  0.1235069E+00
         21   -1    0    0  502  501  0.00000000000E+00  0.00000000000E+00  0.60750860627E+02  0.60750860627E+02  0.00000000000E+00 0. -1.
         21   -1    0    0  501  502 -0.00000000000E+00 -0.00000000000E+00 -0.64299500611E+02  0.64299500611E+02  0.00000000000E+00 0. -1.
         25    1    1    2    0    0  0.00000000000E+00  0.00000000000E+00 -0.35486399831E+01  0.12505036124E+03  0.12500000000E+03 0.  0.
<mgrwt>
<rscale>  0 0.12500000E+03</rscale>
<asrwt>0</asrwt>
<pdfrwt beam="1">  1       21 0.93462862E-02 0.12500000E+03</pdfrwt>
<pdfrwt beam="2">  1       21 0.98922309E-02 0.12500000E+03</pdfrwt>
<totfact> 0.74036779E+06</totfact>
</mgrwt>
</event>
<event>
 3    1  0.1597250E-001  0.1250000E+03  0.7546771E-02  0.1235069E+00
         21   -1    0    0  502  501  0.00000000000E+00  0.00000000000E+00  0.88533199424E+01  0.88533199424E+01  0.00000000000E+00 0.  1.
         21   -1    0    0  501  502 -0.00000000000E+00 -0.00000000000E+00 -0.44121866434E+03  0.44121866434E+03  0.00000000000E+00 0.  1.
         25    1    1    2    0    0  0.00000000000E+00  0.00000000000E+00 -0.43236534440E+03  0.45007198429E+03  0.12500000000E+03 0.  0.
<mgrwt>
<rscale>  0 0.12500000E+03</rscale>
<asrwt>0</asrwt>
<pdfrwt beam="1">  1       21 0.13620491E-02 0.12500000E+03</pdfrwt>
<pdfrwt beam="2">  1       21 0.67879799E-01 0.12500000E+03</pdfrwt>
<totfact> 0.44887960E+06</totfact>
</mgrwt>
</event>
<event>
 3    1  0.1597250E-001  0.1250000E+03  0.7546771E-02  0.1235069E+00
         21   -1    0    0  502  501  0.00000000000E+00  0.00000000000E+00  0.36564321966E+03  0.36564321966E+03  0.00000000000E+00 0. -1.
         21   -1    0    0  501  502 -0.00000000000E+00 -0.00000000000E+00 -0.10683228322E+02  0.10683228322E+02  0.00000000000E+00 0. -1.
         25    1    1    2    0    0  0.00000000000E+00  0.00000000000E+00  0.35495999134E+03  0.37632644798E+03  0.12500000000E+03 0.  0.
<mgrwt>
<rscale>  0 0.12500000E+03</rscale>
<asrwt>0</asrwt>
<pdfrwt beam="1">  1       21 0.56252793E-01 0.12500000E+03</pdfrwt>
<pdfrwt beam="2">  1       21 0.16435739E-02 0.12500000E+03</pdfrwt>
<totfact> 0.49651007E+06</totfact>
</mgrwt>
</event>
<event>
 3    1  0.1597250E-001  0.1250000E+03  0.7546771E-02  0.1235069E+00
         21   -1    0    0  502  501  0.00000000000E+00  0.00000000000E+00  0.47139121975E+02  0.47139121975E+02  0.00000000000E+00 0. -1.
         21   -1    0    0  501  502 -0.00000000000E+00 -0.00000000000E+00 -0.82866414061E+02  0.82866414061E+02  0.00000000000E+00 0. -1.
         25    1    1    2    0    0  0.00000000000E+00  0.00000000000E+00 -0.35727292086E+02  0.13000553604E+03  0.12500000000E+03 0.  0.
<mgrwt>
<rscale>  0 0.12500000E+03</rscale>
<asrwt>0</asrwt>
<pdfrwt beam="1">  1       21 0.72521726E-02 0.12500000E+03</pdfrwt>
<pdfrwt beam="2">  1       21 0.12748679E-01 0.12500000E+03</pdfrwt>
<totfact> 0.73364175E+06</totfact>
</mgrwt>
</event>
<event>
 3    1  0.1597250E-001  0.1250000E+03  0.7546771E-02  0.1235069E+00
         21   -1    0    0  502  501  0.00000000000E+00  0.00000000000E+00  0.77260466736E+03  0.77260466736E+03  0.00000000000E+00 0.  1.
         21   -1    0    0  501  502 -0.00000000000E+00 -0.00000000000E+00 -0.50559492649E+01  0.50559492649E+01  0.00000000000E+00 0.  1.
         25    1    1    2    0    0  0.00000000000E+00  0.00000000000E+00  0.76754871810E+03  0.77766061663E+03  0.12500000000E+03 0.  0.
<mgrwt>
<rscale>  0 0.12500000E+03</rscale>
<asrwt>0</asrwt>
<pdfrwt beam="1">  1       21 0.11886216E+00 0.12500000E+03</pdfrwt>
<pdfrwt beam="2">  1       21 0.77783896E-03 0.12500000E+03</pdfrwt>
<totfact> 0.30116451E+06</totfact>
</mgrwt>
</event>
<event>
 3    1  0.1597250E-001  0.1250000E+03  0.7546771E-02  0.1235069E+00
         21   -1    0    0  502  501  0.00000000000E+00  0.00000000000E+00  0.24661480976E+02  0.24661480976E+02  0.00000000000E+00 0. -1.
         21   -1    0    0  501  502 -0.00000000000E+00 -0.00000000000E+00 -0.15839478594E+03  0.15839478594E+03  0.00000000000E+00 0. -1.
         25    1    1    2    0    0  0.00000000000E+00  0.00000000000E+00 -0.13373330496E+03  0.18305626691E+03  0.12500000000E+03 0.  0.
<mgrwt>
<rscale>  0 0.12500000E+03</rscale>
<asrwt>0</asrwt>
<pdfrwt beam="1">  1       21 0.37940739E-02 0.12500000E+03</pdfrwt>
<pdfrwt beam="2">  1       21 0.24368429E-01 0.12500000E+03</pdfrwt>
<totfact> 0.66802649E+06</totfact>
</mgrwt>
</event>
<event>
 3    1  0.1597250E-001  0.1250000E+03  0.7546771E-02  0.1235069E+00
         21   -1    0    0  502  501  0.00000000000E+00  0.00000000000E+00  0.12535535524E+03  0.12535535524E+03  0.00000000000E+00 0.  1.
         21   -1    0    0  501  502 -0.00000000000E+00 -0.00000000000E+00 -0.31161413029E+02  0.31161413029E+02  0.00000000000E+00 0.  1.
         25    1    1    2    0    0  0.00000000000E+00  0.00000000000E+00  0.94193942209E+02  0.15651676827E+03  0.12500000000E+03 0.  0.
<mgrwt>
<rscale>  0 0.12500000E+03</rscale>
<asrwt>0</asrwt>
<pdfrwt beam="1">  1       21 0.19285439E-01 0.12500000E+03</pdfrwt>
<pdfrwt beam="2">  1       21 0.47940636E-02 0.12500000E+03</pdfrwt>
<totfact> 0.69947633E+06</totfact>
</mgrwt>
</event>
<event>
 3    1  0.1597250E-001  0.1250000E+03  0.7546771E-02  0.1235069E+00
         21   -1    0    0  502  501  0.00000000000E+00  0.00000000000E+00  0.31689348231E+03  0.31689348231E+03  0.00000000000E+00 0.  1.
         21   -1    0    0  501  502 -0.00000000000E+00 -0.00000000000E+00 -0.12326697197E+02  0.12326697197E+02  0.00000000000E+00 0.  1.
         25    1    1    2    0    0  0.00000000000E+00  0.00000000000E+00  0.30456678511E+03  0.32922017951E+03  0.12500000000E+03 0.  0.
<mgrwt>
<rscale>  0 0.12500000E+03</rscale>
<asrwt>0</asrwt>
<pdfrwt beam="1">  1       21 0.48752837E-01 0.12500000E+03</pdfrwt>
<pdfrwt beam="2">  1       21 0.18964152E-02 0.12500000E+03</pdfrwt>
<totfact> 0.53110687E+06</totfact>
</mgrwt>
</event>
<event>
 3    1  0.1597250E-001  0.1250000E+03  0.7546771E-02  0.1235069E+00
         21   -1    0    0  502  501  0.00000000000E+00  0.00000000000E+00  0.28794425773E+03  0.28794425773E+03  0.00000000000E+00 0. -1.
         21   -1    0    0  501  502 -0.00000000000E+00 -0.00000000000E+00 -0.13565993747E+02  0.13565993747E+02  0.00000000000E+00 0. -1.
         25    1    1    2    0    0  0.00000000000E+00  0.00000000000E+00  0.27437826399E+03  0.30151025148E+03  0.12500000000E+03 0.  0.
<mgrwt>
<rscale>  0 0.12500000E+03</rscale>
<asrwt>0</asrwt>
<pdfrwt beam="1">  1       21 0.44299112E-01 0.12500000E+03</pdfrwt>
<pdfrwt beam="2">  1       21 0.20870762E-02 0.12500000E+03</pdfrwt>
<totfact> 0.55330901E+06</totfact>
</mgrwt>
</event>
<event>
 3    1  0.1597250E-001  0.1250000E+03  0.7546771E-02  0.1235069E+00
         21   -1    0    0  502  501  0.00000000000E+00  0.00000000000E+00  0.42954971642E+03  0.42954971642E+03  0.00000000000E+00 0.  1.
         21   -1    0    0  501  502 -0.00000000000E+00 -0.00000000000E+00 -0.90938251166E+01  0.90938251166E+01  0.00000000000E+00 0.  1.
         25    1    1    2    0    0  0.00000000000E+00  0.00000000000E+00  0.42045589130E+03  0.43864354153E+03  0.12500000000E+03 0.  0.
<mgrwt>
<rscale>  0 0.12500000E+03</rscale>
<asrwt>0</asrwt>
<pdfrwt beam="1">  1       21 0.66084556E-01 0.12500000E+03</pdfrwt>
<pdfrwt beam="2">  1       21 0.13990504E-02 0.12500000E+03</pdfrwt>
<totfact> 0.45579518E+06</totfact>
</mgrwt>
</event>
<event>
 3    1  0.1597250E-001  0.1250000E+03  0.7546771E-02  0.1235069E+00
         21   -1    0    0  502  501  0.00000000000E+00  0.00000000000E+00  0.63782914681E+02  0.63782914681E+02  0.00000000000E+00 0. -1.
         21   -1    0    0  501  502 -0.00000000000E+00 -0.00000000000E+00 -0.61242889566E+02  0.61242889566E+02  0.00000000000E+00 0. -1.
         25    1    1    2    0    0  0.00000000000E+00  0.00000000000E+00  0.25400251145E+01  0.12502580425E+03  0.12500000000E+03 0.  0.
<mgrwt>
<rscale>  0 0.12500000E+03</rscale>
<asrwt>0</asrwt>
<pdfrwt beam="1">  1       21 0.98127561E-02 0.12500000E+03</pdfrwt>
<pdfrwt beam="2">  1       21 0.94219831E-02 0.12500000E+03</pdfrwt>
<totfact> 0.74040096E+06</totfact>
</mgrwt>
</event>
<event>
 3    1  0.1597250E-001  0.1250000E+03  0.7546771E-02  0.1235069E+00
         21   -1    0    0  502  501  0.00000000000E+00  0.00000000000E+00  0.12033018644E+04  0.12033018644E+04  0.00000000000E+00 0.  1.
         21   -1    0    0  501  502 -0.00000000000E+00 -0.00000000000E+00 -0.32462760306E+01  0.32462760306E+01  0.00000000000E+00 0.  1.
         25    1    1    2    0    0  0.00000000000E+00  0.00000000000E+00  0.12000555884E+04  0.12065481404E+04  0.12500000000E+03 0.  0.
<mgrwt>
<rscale>  0 0.12500000E+03</rscale>
<asrwt>0</asrwt>
<pdfrwt beam="1">  1       21 0.18512301E+00 0.12500000E+03</pdfrwt>
<pdfrwt beam="2">  1       21 0.49942804E-03 0.12500000E+03</pdfrwt>
<totfact> 0.19013405E+06</totfact>
</mgrwt>
</event>
<event>
 3    1  0.1597250E-001  0.1250000E+03  0.7546771E-02  0.1235069E+00
         21   -1    0    0  502  501  0.00000000000E+00  0.00000000000E+00  0.11369379540E+03  0.11369379540E+03  0.00000000000E+00 0. -1.
         21   -1    0    0  501  502 -0.00000000000E+00 -0.00000000000E+00 -0.34357635668E+02  0.34357635668E+02  0.00000000000E+00 0. -1.
         25    1    1    2    0    0  0.00000000000E+00  0.00000000000E+00  0.79336159729E+02  0.14805143107E+03  0.12500000000E+03 0.  0.
<mgrwt>
<rscale>  0 0.12500000E+03</rscale>
<asrwt>0</asrwt>
<pdfrwt beam="1">  1       21 0.17491353E-01 0.12500000E+03</pdfrwt>
<pdfrwt beam="2">  1       21 0.52857902E-02 0.12500000E+03</pdfrwt>
<totfact> 0.71004843E+06</totfact>
</mgrwt>
</event>
<event>
 3    1  0.1597250E-001  0.1250000E+03  0.7546771E-02  0.1235069E+00
         21   -1    0    0  502  501  0.00000000000E+00  0.00000000000E+00  0.25165910741E+03  0.25165910741E+03  0.00000000000E+00 0.  1.
         21   -1    0    0  501  502 -0.00000000000E+00 -0.00000000000E+00 -0.15521989410E+02  0.15521989410E+02  0.00000000000E+00 0.  1.
         25    1    1    2    0    0  0.00000000000E+00  0.00000000000E+00  0.23613711800E+03  0.26718109682E+03  0.12500000000E+03 0.  0.
<mgrwt>
<rscale>  0 0.12500000E+03</rscale>
<asrwt>0</asrwt>
<pdfrwt beam="1">  1       21 0.38716783E-01 0.12500000E+03</pdfrwt>
<pdfrwt beam="2">  1       21 0.23879986E-02 0.12500000E+03</pdfrwt>
<totfact> 0.58297275E+06</totfact>
</mgrwt>
</event>
<event>
 3    1  0.1597250E-001  0.1250000E+03  0.7546771E-02  0.1235069E+00
         21   -1    0    0  502  501  0.00000000000E+00  0.00000000000E+00  0.15126500537E+01  0.15126500537E+01  0.00000000000E+00 0.  1.
         21   -1    0    0  501  502 -0.00000000000E+00 -0.00000000000E+00 -0.25823884318E+04  0.25823884318E+04  0.00000000000E+00 0.  1.
         25    1    1    2    0    0  0.00000000000E+00  0.00000000000E+00 -0.25808757818E+04  0.25839010819E+04  0.12500000000E+03 0.  0.
<mgrwt>
<rscale>  0 0.12500000E+03</rscale>
<asrwt>0</asrwt>
<pdfrwt beam="1">  1       21 0.23271520E-03 0.12500000E+03</pdfrwt>
<pdfrwt beam="2">  1       21 0.39729086E+00 0.12500000E+03</pdfrwt>
<totfact> 0.35345504E+05</totfact>
</mgrwt>
</event>
<event>
 3    1  0.1597250E-001  0.1250000E+03  0.7546771E-02  0.1235069E+00
         21   -1    0    0  502  501  0.00000000000E+00  0.00000000000E+00  0.43527755480E+01  0.43527755480E+01  0.00000000000E+00 0.  1.
         21   -1    0    0  501  502 -0.00000000000E+00 -0.00000000000E+00 -0.89741590323E+03  0.89741590323E+03  0.00000000000E+00 0.  1.
         25    1    1    2    0    0  0.00000000000E+00  0.00000000000E+00 -0.89306312768E+03  0.90176867878E+03  0.12500000000E+03 0.  0.
<mgrwt>
<rscale>  0 0.12500000E+03</rscale>
<asrwt>0</asrwt>
<pdfrwt beam="1">  1       21 0.66965797E-03 0.12500000E+03</pdfrwt>
<pdfrwt beam="2">  1       21 0.13806394E+00 0.12500000E+03</pdfrwt>
<totfact> 0.26248329E+06</totfact>
</mgrwt>
</event>
<event>
 3    1  0.1597250E-001  0.1250000E+03  0.7546771E-02  0.1235069E+00
         21   -1    0    0  502  501  0.00000000000E+00  0.00000000000E+00  0.29996239838E+03  0.29996239838E+03  0.00000000000E+00 0. -1.
         21   -1    0    0  501  502 -0.00000000000E+00 -0.00000000000E+00 -0.13022465553E+02  0.13022465553E+02  0.00000000000E+00 0. -1.
         25    1    1    2    0    0  0.00000000000E+00  0.00000000000E+00  0.28693993283E+03  0.31298486393E+03  0.12500000000E+03 0.  0.
<mgrwt>
<rscale>  0 0.12500000E+03</rscale>
<asrwt>0</asrwt>
<pdfrwt beam="1">  1       21 0.46148056E-01 0.12500000E+03</pdfrwt>
<pdfrwt beam="2">  1       21 0.20034565E-02 0.12500000E+03</pdfrwt>
<totfact> 0.54393983E+06</totfact>
</mgrwt>
</event>
<event>
 3    1  0.1597250E-001  0.1250000E+03  0.7546771E-02  0.1235069E+00
         21   -1    0    0  502  501  0.00000000000E+00  0.00000000000E+00  0.14770063464E+03  0.14770063464E+03  0.00000000000E+00 0. -1.
         21   -1    0    0  501  502 -0.00000000000E+00 -0.00000000000E+00 -0.26447076613E+02  0.26447076613E+02  0.00000000000E+00 0. -1.
         25    1    1    2    0    0  0.00000000000E+00  0.00000000000E+00  0.12125355803E+03  0.17414771125E+03  0.12500000000E+03 0.  0.
<mgrwt>
<rscale>  0 0.12500000E+03</rscale>
<asrwt>0</asrwt>
<pdfrwt beam="1">  1       21 0.22723174E-01 0.12500000E+03</pdfrwt>
<pdfrwt beam="2">  1       21 0.40687811E-02 0.12500000E+03</pdfrwt>
<totfact> 0.67829318E+06</totfact>
</mgrwt>
</event>
<event>
 3    1  0.1597250E-001  0.1250000E+03  0.7546771E-02  0.1235069E+00
         21   -1    0    0  502  501  0.00000000000E+00  0.00000000000E+00  0.31443881163E+03  0.31443881163E+03  0.00000000000E+00 0.  1.
         21   -1    0    0  501  502 -0.00000000000E+00 -0.00000000000E+00 -0.12422925719E+02  0.12422925719E+02  0.00000000000E+00 0.  1.
         25    1    1    2    0    0  0.00000000000E+00  0.00000000000E+00  0.30201588592E+03  0.32686173735E+03  0.12500000000E+03 0.  0.
<mgrwt>
<rscale>  0 0.12500000E+03</rscale>
<asrwt>0</asrwt>
<pdfrwt beam="1">  1       21 0.48375196E-01 0.12500000E+03</pdfrwt>
<pdfrwt beam="2">  1       21 0.19112196E-02 0.12500000E+03</pdfrwt>
<totfact> 0.53294028E+06</totfact>
</mgrwt>
</event>
<event>
 3    1  0.1597250E-001  0.1250000E+03  0.7546771E-02  0.1235069E+00
         21   -1    0    0  502  501  0.00000000000E+00  0.00000000000E+00  0.16144344998E+02  0.16144344998E+02  0.00000000000E+00 0. -1.
         21   -1    0    0  501  502 -0.00000000000E+00 -0.00000000000E+00 -0.24195778772E+03  0.24195778772E+03  0.00000000000E+00 0. -1.
         25    1    1    2    0    0  0.00000000000E+00  0.00000000000E+00 -0.22581344272E+03  0.25810213272E+03  0.12500000000E+03 0.  0.
<mgrwt>
<rscale>  0 0.12500000E+03</rscale>
<asrwt>0</asrwt>
<pdfrwt beam="1">  1       21 0.24837453E-02 0.12500000E+03</pdfrwt>
<pdfrwt beam="2">  1       21 0.37224276E-01 0.12500000E+03</pdfrwt>
<totfact> 0.59123660E+06</totfact>
</mgrwt>
</event>
<event>
 3    1  0.1597250E-001  0.1250000E+03  0.7546771E-02  0.1235069E+00
         21   -1    0    0  502  501  0.00000000000E+00  0.00000000000E+00  0.78284452327E+02  0.78284452327E+02  0.00000000000E+00 0. -1.
         21   -1    0    0  501  502 -0.00000000000E+00 -0.00000000000E+00 -0.49898158368E+02  0.49898158368E+02  0.00000000000E+00 0. -1.
         25    1    1    2    0    0  0.00000000000E+00  0.00000000000E+00  0.28386293959E+02  0.12818261070E+03  0.12500000000E+03 0.  0.
<mgrwt>
<rscale>  0 0.12500000E+03</rscale>
<asrwt>0</asrwt>
<pdfrwt beam="1">  1       21 0.12043762E-01 0.12500000E+03</pdfrwt>
<pdfrwt beam="2">  1       21 0.76766397E-02 0.12500000E+03</pdfrwt>
<totfact> 0.73608905E+06</totfact>
</mgrwt>
</event>
<event>
 3    1  0.1597250E-001  0.1250000E+03  0.7546771E-02  0.1235069E+00
         21   -1    0    0  502  501  0.00000000000E+00  0.00000000000E+00  0.25023864126E+03  0.25023864126E+03  0.00000000000E+00 0. -1.
         21   -1    0    0  501  502 -0.00000000000E+00 -0.00000000000E+00 -0.15610099145E+02  0.15610099145E+02  0.00000000000E+00 0. -1.
         25    1    1    2    0    0  0.00000000000E+00  0.00000000000E+00  0.23462854212E+03  0.26584874041E+03  0.12500000000E+03 0.  0.
<mgrwt>
<rscale>  0 0.12500000E+03</rscale>
<asrwt>0</asrwt>
<pdfrwt beam="1">  1       21 0.38498249E-01 0.12500000E+03</pdfrwt>
<pdfrwt beam="2">  1       21 0.24015539E-02 0.12500000E+03</pdfrwt>
<totfact> 0.58417318E+06</totfact>
</mgrwt>
</event>
<event>
 3    1  0.1597250E-001  0.1250000E+03  0.7546771E-02  0.1235069E+00
         21   -1    0    0  502  501  0.00000000000E+00  0.00000000000E+00  0.51499937851E+02  0.51499937851E+02  0.00000000000E+00 0. -1.
         21   -1    0    0  501  502 -0.00000000000E+00 -0.00000000000E+00 -0.75849606097E+02  0.75849606097E+02  0.00000000000E+00 0. -1.
         25    1    1    2    0    0  0.00000000000E+00  0.00000000000E+00 -0.24349668246E+02  0.12734954395E+03  0.12500000000E+03 0.  0.
<mgrwt>
<rscale>  0 0.12500000E+03</rscale>
<asrwt>0</asrwt>
<pdfrwt beam="1">  1       21 0.79230673E-02 0.12500000E+03</pdfrwt>
<pdfrwt beam="2">  1       21 0.11669170E-01 0.12500000E+03</pdfrwt>
<totfact> 0.73721626E+06</totfact>
</mgrwt>
</event>
<event>
 3    1  0.1597250E-001  0.1250000E+03  0.7546771E-02  0.1235069E+00
         21   -1    0    0  502  501  0.00000000000E+00  0.00000000000E+00  0.30825553270E+03  0.30825553270E+03  0.00000000000E+00 0.  1.
         21   -1    0    0  501  502 -0.00000000000E+00 -0.00000000000E+00 -0.12672116428E+02  0.12672116428E+02  0.00000000000E+00 0.  1.
         25    1    1    2    0    0  0.00000000000E+00  0.00000000000E+00  0.29558341627E+03  0.32092764913E+03  0.12500000000E+03 0.  0.
<mgrwt>
<rscale>  0 0.12500000E+03</rscale>
<asrwt>0</asrwt>
<pdfrwt beam="1">  1       21 0.47423922E-01 0.12500000E+03</pdfrwt>
<pdfrwt beam="2">  1       21 0.19495566E-02 0.12500000E+03</pdfrwt>
<totfact> 0.53759916E+06</totfact>
</mgrwt>
</event>
<event>
 3    1  0.1597250E-001  0.1250000E+03  0.7546771E-02  0.1235069E+00
         21   -1    0    0  502  501  0.00000000000E+00  0.00000000000E+00  0.84237820027E+01  0.84237820027E+01  0.00000000000E+00 0.  1.
         21   -1    0    0  501  502 -0.00000000000E+00 -0.00000000000E+00 -0.46371689091E+03  0.46371689091E+03  0.00000000000E+00 0.  1.
         25    1    1    2    0    0  0.00000000000E+00  0.00000000000E+00 -0.45529310891E+03  0.47214067291E+03  0.12500000000E+03 0.  0.
<mgrwt>
<rscale>  0 0.12500000E+03</rscale>
<asrwt>0</asrwt>
<pdfrwt beam="1">  1       21 0.12959665E-02 0.12500000E+03</pdfrwt>
<pdfrwt beam="2">  1       21 0.71341060E-01 0.12500000E+03</pdfrwt>
<totfact> 0.43596392E+06</totfact>
</mgrwt>
</event>
<event>
 3    1  0.1597250E-001  0.1250000E+03  0.7546771E-02  0.1235069E+00
         21   -1    0    0  502  501  0.00000000000E+00  0.00000000000E+00  0.16314147043E+03  0.16314147043E+03  0.00000000000E+00 0. -1.
         21   -1    0    0  501  502 -0.00000000000E+00 -0.00000000000E+00 -0.23943942577E+02  0.23943942577E+02  0.00000000000E+00 0. -1.
         25    1    1    2    0    0  0.00000000000E+00  0.00000000000E+00  0.13919752786E+03  0.18708541301E+03  0.12500000000E+03 0.  0.
<mgrwt>
<rscale>  0 0.12500000E+03</rscale>
<asrwt>0</asrwt>
<pdfrwt beam="1">  1       21 0.25098687E-01 0.12500000E+03</pdfrwt>
<pdfrwt beam="2">  1       21 0.36836836E-02 0.12500000E+03</pdfrwt>
<totfact> 0.66347868E+06</totfact>
</mgrwt>
</event>
<event>
 3    1  0.1597250E-001  0.1250000E+03  0.7546771E-02  0.1235069E+00
         21   -1    0    0  502  501  0.00000000000E+00  0.00000000000E+00  0.55822700141E+03  0.55822700141E+03  0.00000000000E+00 0.  1.
         21   -1    0    0  501  502 -0.00000000000E+00 -0.00000000000E+00 -0.69976013166E+01  0.69976013166E+01  0.00000000000E+00 0.  1.
         25    1    1    2    0    0  0.00000000000E+00  0.00000000000E+00  0.55122940009E+03  0.56522460272E+03  0.12500000000E+03 0.  0.
<mgrwt>
<rscale>  0 0.12500000E+03</rscale>
<asrwt>0</asrwt>
<pdfrwt beam="1">  1       21 0.85881042E-01 0.12500000E+03</pdfrwt>
<pdfrwt beam="2">  1       21 0.10765545E-02 0.12500000E+03</pdfrwt>
<totfact> 0.38714073E+06</totfact>
</mgrwt>
</event>
<event>
 3    1  0.1597250E-001  0.1250000E+03  0.7546771E-02  0.1235069E+00
         21   -1    0    0  502  501  0.00000000000E+00  0.00000000000E+00  0.30557061458E+02  0.30557061458E+02  0.00000000000E+00 0.  1.
         21   -1    0    0  501  502 -0.00000000000E+00 -0.00000000000E+00 -0.12783460888E+03  0.12783460888E+03  0.00000000000E+00 0.  1.
         25    1    1    2    0    0  0.00000000000E+00  0.00000000000E+00 -0.97277547420E+02  0.15839167034E+03  0.12500000000E+03 0.  0.
<mgrwt>
<rscale>  0 0.12500000E+03</rscale>
<asrwt>0</asrwt>
<pdfrwt beam="1">  1       21 0.47010864E-02 0.12500000E+03</pdfrwt>
<pdfrwt beam="2">  1       21 0.19666863E-01 0.12500000E+03</pdfrwt>
<totfact> 0.69716552E+06</totfact>
</mgrwt>
</event>
<event>
 3    1  0.1597250E-001  0.1250000E+03  0.7546771E-02  0.1235069E+00
         21   -1    0    0  502  501  0.00000000000E+00  0.00000000000E+00  0.67952558707E+02  0.67952558707E+02  0.00000000000E+00 0.  1.
         21   -1    0    0  501  502 -0.00000000000E+00 -0.00000000000E+00 -0.57484958246E+02  0.57484958246E+02  0.00000000000E+00 0.  1.
         25    1    1    2    0    0  0.00000000000E+00  0.00000000000E+00  0.10467600461E+02  0.12543751695E+03  0.12500000000E+03 0.  0.
<mgrwt>
<rscale>  0 0.12500000E+03</rscale>
<asrwt>0</asrwt>
<pdfrwt beam="1">  1       21 0.10454240E-01 0.12500000E+03</pdfrwt>
<pdfrwt beam="2">  1       21 0.88438397E-02 0.12500000E+03</pdfrwt>
<totfact> 0.73984145E+06</totfact>
</mgrwt>
</event>
<event>
 3    1  0.1597250E-001  0.1250000E+03  0.7546771E-02  0.1235069E+00
         21   -1    0    0  502  501  0.00000000000E+00  0.00000000000E+00  0.22721141736E+03  0.22721141736E+03  0.00000000000E+00 0.  1.
         21   -1    0    0  501  502 -0.00000000000E+00 -0.00000000000E+00 -0.17192137813E+02  0.17192137813E+02  0.00000000000E+00 0.  1.
         25    1    1    2    0    0  0.00000000000E+00  0.00000000000E+00  0.21001927955E+03  0.24440355517E+03  0.12500000000E+03 0.  0.
<mgrwt>
<rscale>  0 0.12500000E+03</rscale>
<asrwt>0</asrwt>
<pdfrwt beam="1">  1       21 0.34955601E-01 0.12500000E+03</pdfrwt>
<pdfrwt beam="2">  1       21 0.26449444E-02 0.12500000E+03</pdfrwt>
<totfact> 0.60409125E+06</totfact>
</mgrwt>
</event>
<event>
 3    1  0.1597250E-001  0.1250000E+03  0.7546771E-02  0.1235069E+00
         21   -1    0    0  502  501  0.00000000000E+00  0.00000000000E+00  0.20067036426E+03  0.20067036426E+03  0.00000000000E+00 0.  1.
         21   -1    0    0  501  502 -0.00000000000E+00 -0.00000000000E+00 -0.19466003435E+02  0.19466003435E+02  0.00000000000E+00 0.  1.
         25    1    1    2    0    0  0.00000000000E+00  0.00000000000E+00  0.18120436083E+03  0.22013636770E+03  0.12500000000E+03 0.  0.
<mgrwt>
<rscale>  0 0.12500000E+03</rscale>
<asrwt>0</asrwt>
<pdfrwt beam="1">  1       21 0.30872362E-01 0.12500000E+03</pdfrwt>
<pdfrwt beam="2">  1       21 0.29947699E-02 0.12500000E+03</pdfrwt>
<totfact> 0.62808600E+06</totfact>
</mgrwt>
</event>
<event>
 3    1  0.1597250E-001  0.1250000E+03  0.7546771E-02  0.1235069E+00
         21   -1    0    0  502  501  0.00000000000E+00  0.00000000000E+00  0.10598815131E+03  0.10598815131E+03  0.00000000000E+00 0. -1.
         21   -1    0    0  501  502 -0.00000000000E+00 -0.00000000000E+00 -0.36855534809E+02  0.36855534809E+02  0.00000000000E+00 0. -1.
         25    1    1    2    0    0  0.00000000000E+00  0.00000000000E+00  0.69132616504E+02  0.14284368612E+03  0.12500000000E+03 0.  0.
<mgrwt>
<rscale>  0 0.12500000E+03</rscale>
<asrwt>0</asrwt>
<pdfrwt beam="1">  1       21 0.16305869E-01 0.12500000E+03</pdfrwt>
<pdfrwt beam="2">  1       21 0.56700823E-02 0.12500000E+03</pdfrwt>
<totfact> 0.71670211E+06</totfact>
</mgrwt>
</event>
<event>
 3    1  0.1597250E-001  0.1250000E+03  0.7546771E-02  0.1235069E+00
         21   -1    0    0  502  501  0.00000000000E+00  0.00000000000E+00  0.19445239385E+02  0.19445239385E+02  0.00000000000E+00 0.  1.
         21   -1    0    0  501  502 -0.00000000000E+00 -0.00000000000E+00 -0.20088464444E+03  0.20088464444E+03  0.00000000000E+00 0.  1.
         25    1    1    2    0    0  0.00000000000E+00  0.00000000000E+00 -0.18143940506E+03  0.22032988383E+03  0.12500000000E+03 0.  0.
<mgrwt>
<rscale>  0 0.12500000E+03</rscale>
<asrwt>0</asrwt>
<pdfrwt beam="1">  1       21 0.29915752E-02 0.12500000E+03</pdfrwt>
<pdfrwt beam="2">  1       21 0.30905330E-01 0.12500000E+03</pdfrwt>
<totfact> 0.62788832E+06</totfact>
</mgrwt>
</event>
<event>
 3    1  0.1597250E-001  0.1250000E+03  0.7546771E-02  0.1235069E+00
         21   -1    0    0  502  501  0.00000000000E+00  0.00000000000E+00  0.11498209817E+03  0.11498209817E+03  0.00000000000E+00 0. -1.
         21   -1    0    0  501  502 -0.00000000000E+00 -0.00000000000E+00 -0.33972679766E+02  0.33972679766E+02  0.00000000000E+00 0. -1.
         25    1    1    2    0    0  0.00000000000E+00  0.00000000000E+00  0.81009418404E+02  0.14895477794E+03  0.12500000000E+03 0.  0.
<mgrwt>
<rscale>  0 0.12500000E+03</rscale>
<asrwt>0</asrwt>
<pdfrwt beam="1">  1       21 0.17689553E-01 0.12500000E+03</pdfrwt>
<pdfrwt beam="2">  1       21 0.52265662E-02 0.12500000E+03</pdfrwt>
<totfact> 0.70890748E+06</totfact>
</mgrwt>
</event>
<event>
 3    1  0.1597250E-001  0.1250000E+03  0.7546771E-02  0.1235069E+00
         21   -1    0    0  502  501  0.00000000000E+00  0.00000000000E+00  0.34674674272E+03  0.34674674272E+03  0.00000000000E+00 0.  1.
         21   -1    0    0  501  502 -0.00000000000E+00 -0.00000000000E+00 -0.11265426661E+02  0.11265426661E+02  0.00000000000E+00 0.  1.
         25    1    1    2    0    0  0.00000000000E+00  0.00000000000E+00  0.33548131606E+03  0.35801216938E+03  0.12500000000E+03 0.  0.
<mgrwt>
<rscale>  0 0.12500000E+03</rscale>
<asrwt>0</asrwt>
<pdfrwt beam="1">  1       21 0.53345645E-01 0.12500000E+03</pdfrwt>
<pdfrwt beam="2">  1       21 0.17331428E-02 0.12500000E+03</pdfrwt>
<totfact> 0.50952104E+06</totfact>
</mgrwt>
</event>
<event>
 3    1  0.1597250E-001  0.1250000E+03  0.7546771E-02  0.1235069E+00
         21   -1    0    0  502  501  0.00000000000E+00  0.00000000000E+00  0.13014499291E+03  0.13014499291E+03  0.00000000000E+00 0. -1.
         21   -1    0    0  501  502 -0.00000000000E+00 -0.00000000000E+00 -0.30014600736E+02  0.30014600736E+02  0.00000000000E+00 0. -1.
         25    1    1    2    0    0  0.00000000000E+00  0.00000000000E+00  0.10013039217E+03  0.16015959364E+03  0.12500000000E+03 0.  0.
<mgrwt>
<rscale>  0 0.12500000E+03</rscale>
<asrwt>0</asrwt>
<pdfrwt beam="1">  1       21 0.20022306E-01 0.12500000E+03</pdfrwt>
<pdfrwt beam="2">  1       21 0.46176310E-02 0.12500000E+03</pdfrwt>
<totfact> 0.69500001E+06</totfact>
</mgrwt>
</event>
<event>
 3    1  0.1597250E-001  0.1250000E+03  0.7546771E-02  0.1235069E+00
         21   -1    0    0  502  501  0.00000000000E+00  0.00000000000E+00  0.12914561778E+02  0.12914561778E+02  0.00000000000E+00 0. -1.
         21   -1    0    0  501  502 -0.00000000000E+00 -0.00000000000E+00 -0.30246864487E+03  0.30246864487E+03  0.00000000000E+00 0. -1.
         25    1    1    2    0    0  0.00000000000E+00  0.00000000000E+00 -0.28955408310E+03  0.31538320665E+03  0.12500000000E+03 0.  0.
<mgrwt>
<rscale>  0 0.12500000E+03</rscale>
<asrwt>0</asrwt>
<pdfrwt beam="1">  1       21 0.19868559E-02 0.12500000E+03</pdfrwt>
<pdfrwt beam="2">  1       21 0.46533633E-01 0.12500000E+03</pdfrwt>
<totfact> 0.54201242E+06</totfact>
</mgrwt>
</event>
<event>
 3    1  0.1597250E-001  0.1250000E+03  0.7546771E-02  0.1235069E+00
         21   -1    0    0  502  501  0.00000000000E+00  0.00000000000E+00  0.11995050617E+02  0.11995050617E+02  0.00000000000E+00 0. -1.
         21   -1    0    0  501  502 -0.00000000000E+00 -0.00000000000E+00 -0.32565514935E+03  0.32565514935E+03  0.00000000000E+00 0. -1.
         25    1    1    2    0    0  0.00000000000E+00  0.00000000000E+00 -0.31366009873E+03  0.33765019996E+03  0.12500000000E+03 0.  0.
<mgrwt>
<rscale>  0 0.12500000E+03</rscale>
<asrwt>0</asrwt>
<pdfrwt beam="1">  1       21 0.18453927E-02 0.12500000E+03</pdfrwt>
<pdfrwt beam="2">  1       21 0.50100784E-01 0.12500000E+03</pdfrwt>
<totfact> 0.52463640E+06</totfact>
</mgrwt>
</event>
<event>
 3    1  0.1597250E-001  0.1250000E+03  0.7546771E-02  0.1235069E+00
         21   -1    0    0  502  501  0.00000000000E+00  0.00000000000E+00  0.45186285632E+01  0.45186285632E+01  0.00000000000E+00 0. -1.
         21   -1    0    0  501  502 -0.00000000000E+00 -0.00000000000E+00 -0.86447689722E+03  0.86447689722E+03  0.00000000000E+00 0. -1.
         25    1    1    2    0    0  0.00000000000E+00  0.00000000000E+00 -0.85995826865E+03  0.86899552578E+03  0.12500000000E+03 0.  0.
<mgrwt>
<rscale>  0 0.12500000E+03</rscale>
<asrwt>0</asrwt>
<pdfrwt beam="1">  1       21 0.69517343E-03 0.12500000E+03</pdfrwt>
<pdfrwt beam="2">  1       21 0.13299648E+00 0.12500000E+03</pdfrwt>
<totfact> 0.27200077E+06</totfact>
</mgrwt>
</event>
<event>
 3    1  0.1597250E-001  0.1250000E+03  0.7546771E-02  0.1235069E+00
         21   -1    0    0  502  501  0.00000000000E+00  0.00000000000E+00  0.17847445728E+02  0.17847445728E+02  0.00000000000E+00 0. -1.
         21   -1    0    0  501  502 -0.00000000000E+00 -0.00000000000E+00 -0.21886885437E+03  0.21886885437E+03  0.00000000000E+00 0. -1.
         25    1    1    2    0    0  0.00000000000E+00  0.00000000000E+00 -0.20102140865E+03  0.23671630010E+03  0.12500000000E+03 0.  0.
<mgrwt>
<rscale>  0 0.12500000E+03</rscale>
<asrwt>0</asrwt>
<pdfrwt beam="1">  1       21 0.27457608E-02 0.12500000E+03</pdfrwt>
<pdfrwt beam="2">  1       21 0.33672132E-01 0.12500000E+03</pdfrwt>
<totfact> 0.61151873E+06</totfact>
</mgrwt>
</event>
<event>
 3    1  0.1597250E-001  0.1250000E+03  0.7546771E-02  0.1235069E+00
         21   -1    0    0  502  501  0.00000000000E+00  0.00000000000E+00  0.26389553399E+01  0.26389553399E+01  0.00000000000E+00 0.  1.
         21   -1    0    0  501  502 -0.00000000000E+00 -0.00000000000E+00 -0.14802258837E+04  0.14802258837E+04  0.00000000000E+00 0.  1.
         25    1    1    2    0    0  0.00000000000E+00  0.00000000000E+00 -0.14775869283E+04  0.14828648390E+04  0.12500000000E+03 0.  0.
<mgrwt>
<rscale>  0 0.12500000E+03</rscale>
<asrwt>0</asrwt>
<pdfrwt beam="1">  1       21 0.40599311E-03 0.12500000E+03</pdfrwt>
<pdfrwt beam="2">  1       21 0.22772707E+00 0.12500000E+03</pdfrwt>
<totfact> 0.14249155E+06</totfact>
</mgrwt>
</event>
<event>
 3    1  0.1597250E-001  0.1250000E+03  0.7546771E-02  0.1235069E+00
         21   -1    0    0  502  501  0.00000000000E+00  0.00000000000E+00  0.91672087362E+02  0.91672087362E+02  0.00000000000E+00 0. -1.
         21   -1    0    0  501  502 -0.00000000000E+00 -0.00000000000E+00 -0.42611116561E+02  0.42611116561E+02  0.00000000000E+00 0. -1.
         25    1    1    2    0    0  0.00000000000E+00  0.00000000000E+00  0.49060970801E+02  0.13428320392E+03  0.12500000000E+03 0.  0.
<mgrwt>
<rscale>  0 0.12500000E+03</rscale>
<asrwt>0</asrwt>
<pdfrwt beam="1">  1       21 0.14103398E-01 0.12500000E+03</pdfrwt>
<pdfrwt beam="2">  1       21 0.65555564E-02 0.12500000E+03</pdfrwt>
<totfact> 0.72791521E+06</totfact>
</mgrwt>
</event>
<event>
 3    1  0.1597250E-001  0.1250000E+03  0.7546771E-02  0.1235069E+00
         21   -1    0    0  502  501  0.00000000000E+00  0.00000000000E+00  0.36480123747E+03  0.36480123747E+03  0.00000000000E+00 0.  1.
         21   -1    0    0  501  502 -0.00000000000E+00 -0.00000000000E+00 -0.10707885826E+02  0.10707885826E+02  0.00000000000E+00 0.  1.
         25    1    1    2    0    0  0.00000000000E+00  0.00000000000E+00  0.35409335165E+03  0.37550912330E+03  0.12500000000E+03 0.  0.
<mgrwt>
<rscale>  0 0.12500000E+03</rscale>
<asrwt>0</asrwt>
<pdfrwt beam="1">  1       21 0.56123258E-01 0.12500000E+03</pdfrwt>
<pdfrwt beam="2">  1       21 0.16473673E-02 0.12500000E+03</pdfrwt>
<totfact> 0.49707948E+06</totfact>
</mgrwt>
</event>
<event>
 3    1  0.1597250E-001  0.1250000E+03  0.7546771E-02  0.1235069E+00
         21   -1    0    0  502  501  0.00000000000E+00  0.00000000000E+00  0.44303123446E+01  0.44303123446E+01  0.00000000000E+00 0.  1.
         21   -1    0    0  501  502 -0.00000000000E+00 -0.00000000000E+00 -0.88170984259E+03  0.88170984259E+03  0.00000000000E+00 0.  1.
         25    1    1    2    0    0  0.00000000000E+00  0.00000000000E+00 -0.87727953024E+03  0.88614015493E+03  0.12500000000E+03 0.  0.
<mgrwt>
<rscale>  0 0.12500000E+03</rscale>
<asrwt>0</asrwt>
<pdfrwt beam="1">  1       21 0.68158590E-03 0.12500000E+03</pdfrwt>
<pdfrwt beam="2">  1       21 0.13564779E+00 0.12500000E+03</pdfrwt>
<totfact> 0.26698413E+06</totfact>
</mgrwt>
</event>
<event>
 3    1  0.1597250E-001  0.1250000E+03  0.7546771E-02  0.1235069E+00
         21   -1    0    0  502  501  0.00000000000E+00  0.00000000000E+00  0.13007338065E+02  0.13007338065E+02  0.00000000000E+00 0. -1.
         21   -1    0    0  501  502 -0.00000000000E+00 -0.00000000000E+00 -0.30031125357E+03  0.30031125357E+03  0.00000000000E+00 0. -1.
         25    1    1    2    0    0  0.00000000000E+00  0.00000000000E+00 -0.28730391551E+03  0.31331859164E+03  0.12500000000E+03 0.  0.
<mgrwt>
<rscale>  0 0.12500000E+03</rscale>
<asrwt>0</asrwt>
<pdfrwt beam="1">  1       21 0.20011289E-02 0.12500000E+03</pdfrwt>
<pdfrwt beam="2">  1       21 0.46201733E-01 0.12500000E+03</pdfrwt>
<totfact> 0.54367092E+06</totfact>
</mgrwt>
</event>
<event>
 3    1  0.1597250E-001  0.1250000E+03  0.7546771E-02  0.1235069E+00
         21   -1    0    0  502  501  0.00000000000E+00  0.00000000000E+00  0.26196944513E+03  0.26196944513E+03  0.00000000000E+00 0. -1.
         21   -1    0    0  501  502 -0.00000000000E+00 -0.00000000000E+00 -0.14911090101E+02  0.14911090101E+02  0.00000000000E+00 0. -1.
         25    1    1    2    0    0  0.00000000000E+00  0.00000000000E+00  0.24705835503E+03  0.27688053523E+03  0.12500000000E+03 0.  0.
<mgrwt>
<rscale>  0 0.12500000E+03</rscale>
<asrwt>0</asrwt>
<pdfrwt beam="1">  1       21 0.40302988E-01 0.12500000E+03</pdfrwt>
<pdfrwt beam="2">  1       21 0.22940141E-02 0.12500000E+03</pdfrwt>
<totfact> 0.57433938E+06</totfact>
</mgrwt>
</event>
<event>
 3    1  0.1597250E-001  0.1250000E+03  0.7546771E-02  0.1235069E+00
         21   -1    0    0  502  501  0.00000000000E+00  0.00000000000E+00  0.52678905448E+02  0.52678905448E+02  0.00000000000E+00 0. -1.
         21   -1    0    0  501  502 -0.00000000000E+00 -0.00000000000E+00 -0.74152072197E+02  0.74152072197E+02  0.00000000000E+00 0. -1.
         25    1    1    2    0    0  0.00000000000E+00  0.00000000000E+00 -0.21473166749E+02  0.12683097764E+03  0.12500000000E+03 0.  0.
<mgrwt>
<rscale>  0 0.12500000E+03</rscale>
<asrwt>0</asrwt>
<pdfrwt beam="1">  1       21 0.81044470E-02 0.12500000E+03</pdfrwt>
<pdfrwt beam="2">  1       21 0.11408011E-01 0.12500000E+03</pdfrwt>
<totfact> 0.73792164E+06</totfact>
</mgrwt>
</event>
<event>
 3    1  0.1597250E-001  0.1250000E+03  0.7546771E-02  0.1235069E+00
         21   -1    0    0  502  501  0.00000000000E+00  0.00000000000E+00  0.82624468140E+01  0.82624468140E+01  0.00000000000E+00 0. -1.
         21   -1    0    0  501  502 -0.00000000000E+00 -0.00000000000E+00 -0.47277157577E+03  0.47277157577E+03  0.00000000000E+00 0. -1.
         25    1    1    2    0    0  0.00000000000E+00  0.00000000000E+00 -0.46450912896E+03  0.48103402259E+03  0.12500000000E+03 0.  0.
<mgrwt>
<rscale>  0 0.12500000E+03</rscale>
<asrwt>0</asrwt>
<pdfrwt beam="1">  1       21 0.12711455E-02 0.12500000E+03</pdfrwt>
<pdfrwt beam="2">  1       21 0.72734101E-01 0.12500000E+03</pdfrwt>
<totfact> 0.43091670E+06</totfact>
</mgrwt>
</event>
<event>
 3    1  0.1597250E-001  0.1250000E+03  0.7546771E-02  0.1235069E+00
         21   -1    0    0  502  501  0.00000000000E+00  0.00000000000E+00  0.33661958089E+02  0.33661958089E+02  0.00000000000E+00 0.  1.
         21   -1    0    0  501  502 -0.00000000000E+00 -0.00000000000E+00 -0.11604345741E+03  0.11604345741E+03  0.00000000000E+00 0.  1.
         25    1    1    2    0    0  0.00000000000E+00  0.00000000000E+00 -0.82381499325E+02  0.14970541550E+03  0.12500000000E+03 0.  0.
<mgrwt>
<rscale>  0 0.12500000E+03</rscale>
<asrwt>0</asrwt>
<pdfrwt beam="1">  1       21 0.51787628E-02 0.12500000E+03</pdfrwt>
<pdfrwt beam="2">  1       21 0.17852840E-01 0.12500000E+03</pdfrwt>
<totfact> 0.70796226E+06</totfact>
</mgrwt>
</event>
<event>
 3    1  0.1597250E-001  0.1250000E+03  0.7546771E-02  0.1235069E+00
         21   -1    0    0  502  501  0.00000000000E+00  0.00000000000E+00  0.82084829753E+02  0.82084829753E+02  0.00000000000E+00 0.  1.
         21   -1    0    0  501  502 -0.00000000000E+00 -0.00000000000E+00 -0.47587964935E+02  0.47587964935E+02  0.00000000000E+00 0.  1.
         25    1    1    2    0    0  0.00000000000E+00  0.00000000000E+00  0.34496864817E+02  0.12967279469E+03  0.12500000000E+03 0.  0.
<mgrwt>
<rscale>  0 0.12500000E+03</rscale>
<asrwt>0</asrwt>
<pdfrwt beam="1">  1       21 0.12628435E-01 0.12500000E+03</pdfrwt>
<pdfrwt beam="2">  1       21 0.73212254E-02 0.12500000E+03</pdfrwt>
<totfact> 0.73408678E+06</totfact>
</mgrwt>
</event>
<event>
 3    1  0.1597250E-001  0.1250000E+03  0.7546771E-02  0.1235069E+00
         21   -1    0    0  502  501  0.00000000000E+00  0.00000000000E+00  0.56965874075E+02  0.56965874075E+02  0.00000000000E+00 0. -1.
         21   -1    0    0  501  502 -0.00000000000E+00 -0.00000000000E+00 -0.68571755695E+02  0.68571755695E+02  0.00000000000E+00 0. -1.
         25    1    1    2    0    0  0.00000000000E+00  0.00000000000E+00 -0.11605881620E+02  0.12553762977E+03  0.12500000000E+03 0.  0.
<mgrwt>
<rscale>  0 0.12500000E+03</rscale>
<asrwt>0</asrwt>
<pdfrwt beam="1">  1       21 0.87639807E-02 0.12500000E+03</pdfrwt>
<pdfrwt beam="2">  1       21 0.10549501E-01 0.12500000E+03</pdfrwt>
<totfact> 0.73970139E+06</totfact>
</mgrwt>
</event>
<event>
 3    1  0.1597250E-001  0.1250000E+03  0.7546771E-02  0.1235069E+00
         21   -1    0    0  502  501  0.00000000000E+00  0.00000000000E+00  0.10195320011E+04  0.10195320011E+04  0.00000000000E+00 0.  1.
         21   -1    0    0  501  502 -0.00000000000E+00 -0.00000000000E+00 -0.38314148017E+01  0.38314148017E+01  0.00000000000E+00 0.  1.
         25    1    1    2    0    0  0.00000000000E+00  0.00000000000E+00  0.10157005863E+04  0.10233634159E+04  0.12500000000E+03 0.  0.
<mgrwt>
<rscale>  0 0.12500000E+03</rscale>
<asrwt>0</asrwt>
<pdfrwt beam="1">  1       21 0.15685086E+00 0.12500000E+03</pdfrwt>
<pdfrwt beam="2">  1       21 0.58944925E-03 0.12500000E+03</pdfrwt>
<totfact> 0.23040877E+06</totfact>
</mgrwt>
</event>
<event>
 3    1  0.1597250E-001  0.1250000E+03  0.7546771E-02  0.1235069E+00
         21   -1    0    0  502  501  0.00000000000E+00  0.00000000000E+00  0.23397379157E+03  0.23397379157E+03  0.00000000000E+00 0.  1.
         21   -1    0    0  501  502 -0.00000000000E+00 -0.00000000000E+00 -0.16695245967E+02  0.16695245967E+02  0.00000000000E+00 0.  1.
         25    1    1    2    0    0  0.00000000000E+00  0.00000000000E+00  0.21727854560E+03  0.25066903754E+03  0.12500000000E+03 0.  0.
<mgrwt>
<rscale>  0 0.12500000E+03</rscale>
<asrwt>0</asrwt>
<pdfrwt beam="1">  1       21 0.35995966E-01 0.12500000E+03</pdfrwt>
<pdfrwt beam="2">  1       21 0.25684995E-02 0.12500000E+03</pdfrwt>
<totfact> 0.59815258E+06</totfact>
</mgrwt>
</event>
<event>
 3    1  0.1597250E-001  0.1250000E+03  0.7546771E-02  0.1235069E+00
         21   -1    0    0  502  501  0.00000000000E+00  0.00000000000E+00  0.35839373421E+02  0.35839373421E+02  0.00000000000E+00 0.  1.
         21   -1    0    0  501  502 -0.00000000000E+00 -0.00000000000E+00 -0.10899325594E+03  0.10899325594E+03  0.00000000000E+00 0.  1.
         25    1    1    2    0    0  0.00000000000E+00  0.00000000000E+00 -0.73153882517E+02  0.14483262936E+03  0.12500000000E+03 0.  0.
<mgrwt>
<rscale>  0 0.12500000E+03</rscale>
<asrwt>0</asrwt>
<pdfrwt beam="1">  1       21 0.55137498E-02 0.12500000E+03</pdfrwt>
<pdfrwt beam="2">  1       21 0.16768193E-01 0.12500000E+03</pdfrwt>
<totfact> 0.71414525E+06</totfact>
</mgrwt>
</event>
<event>
 3    1  0.1597250E-001  0.1250000E+03  0.7546771E-02  0.1235069E+00
         21   -1    0    0  502  501  0.00000000000E+00  0.00000000000E+00  0.47687724148E+02  0.47687724148E+02  0.00000000000E+00 0. -1.
         21   -1    0    0  501  502 -0.00000000000E+00 -0.00000000000E+00 -0.81913114324E+02  0.81913114324E+02  0.00000000000E+00 0. -1.
         25    1    1    2    0    0  0.00000000000E+00  0.00000000000E+00 -0.34225390176E+02  0.12960083847E+03  0.12500000000E+03 0.  0.
<mgrwt>
<rscale>  0 0.12500000E+03</rscale>
<asrwt>0</asrwt>
<pdfrwt beam="1">  1       21 0.73365730E-02 0.12500000E+03</pdfrwt>
<pdfrwt beam="2">  1       21 0.12602017E-01 0.12500000E+03</pdfrwt>
<totfact> 0.73418311E+06</totfact>
</mgrwt>
</event>
<event>
 3    1  0.1597250E-001  0.1250000E+03  0.7546771E-02  0.1235069E+00
         21   -1    0    0  502  501  0.00000000000E+00  0.00000000000E+00  0.12513515564E+03  0.12513515564E+03  0.00000000000E+00 0. -1.
         21   -1    0    0  501  502 -0.00000000000E+00 -0.00000000000E+00 -0.31216247584E+02  0.31216247584E+02  0.00000000000E+00 0. -1.
         25    1    1    2    0    0  0.00000000000E+00  0.00000000000E+00  0.93918908058E+02  0.15635140323E+03  0.12500000000E+03 0.  0.
<mgrwt>
<rscale>  0 0.12500000E+03</rscale>
<asrwt>0</asrwt>
<pdfrwt beam="1">  1       21 0.19251562E-01 0.12500000E+03</pdfrwt>
<pdfrwt beam="2">  1       21 0.48024997E-02 0.12500000E+03</pdfrwt>
<totfact> 0.69968085E+06</totfact>
</mgrwt>
</event>
<event>
 3    1  0.1597250E-001  0.1250000E+03  0.7546771E-02  0.1235069E+00
         21   -1    0    0  502  501  0.00000000000E+00  0.00000000000E+00  0.54497731866E+02  0.54497731866E+02  0.00000000000E+00 0.  1.
         21   -1    0    0  501  502 -0.00000000000E+00 -0.00000000000E+00 -0.71677294930E+02  0.71677294930E+02  0.00000000000E+00 0.  1.
         25    1    1    2    0    0  0.00000000000E+00  0.00000000000E+00 -0.17179563064E+02  0.12617502680E+03  0.12500000000E+03 0.  0.
<mgrwt>
<rscale>  0 0.12500000E+03</rscale>
<asrwt>0</asrwt>
<pdfrwt beam="1">  1       21 0.83842664E-02 0.12500000E+03</pdfrwt>
<pdfrwt beam="2">  1       21 0.11027276E-01 0.12500000E+03</pdfrwt>
<totfact> 0.73881942E+06</totfact>
</mgrwt>
</event>
<event>
 3    1  0.1597250E-001  0.1250000E+03  0.7546771E-02  0.1235069E+00
         21   -1    0    0  502  501  0.00000000000E+00  0.00000000000E+00  0.70615245828E+02  0.70615245828E+02  0.00000000000E+00 0. -1.
         21   -1    0    0  501  502 -0.00000000000E+00 -0.00000000000E+00 -0.55317374516E+02  0.55317374516E+02  0.00000000000E+00 0. -1.
         25    1    1    2    0    0  0.00000000000E+00  0.00000000000E+00  0.15297871312E+02  0.12593262034E+03  0.12500000000E+03 0.  0.
<mgrwt>
<rscale>  0 0.12500000E+03</rscale>
<asrwt>0</asrwt>
<pdfrwt beam="1">  1       21 0.10863884E-01 0.12500000E+03</pdfrwt>
<pdfrwt beam="2">  1       21 0.85103653E-02 0.12500000E+03</pdfrwt>
<totfact> 0.73915335E+06</totfact>
</mgrwt>
</event>
<event>
 3    1  0.1597250E-001  0.1250000E+03  0.7546771E-02  0.1235069E+00
         21   -1    0    0  502  501  0.00000000000E+00  0.00000000000E+00  0.18544832529E+02  0.18544832529E+02  0.00000000000E+00 0. -1.
         21   -1    0    0  501  502 -0.00000000000E+00 -0.00000000000E+00 -0.21063819228E+03  0.21063819228E+03  0.00000000000E+00 0. -1.
         25    1    1    2    0    0  0.00000000000E+00  0.00000000000E+00 -0.19209335975E+03  0.22918302481E+03  0.12500000000E+03 0.  0.
<mgrwt>
<rscale>  0 0.12500000E+03</rscale>
<asrwt>0</asrwt>
<pdfrwt beam="1">  1       21 0.28530513E-02 0.12500000E+03</pdfrwt>
<pdfrwt beam="2">  1       21 0.32405875E-01 0.12500000E+03</pdfrwt>
<totfact> 0.61895377E+06</totfact>
</mgrwt>
</event>
<event>
 3    1  0.1597250E-001  0.1250000E+03  0.7546771E-02  0.1235069E+00
         21   -1    0    0  502  501  0.00000000000E+00  0.00000000000E+00  0.12945335483E+03  0.12945335483E+03  0.00000000000E+00 0. -1.
         21   -1    0    0  501  502 -0.00000000000E+00 -0.00000000000E+00 -0.30174961515E+02  0.30174961515E+02  0.00000000000E+00 0. -1.
         25    1    1    2    0    0  0.00000000000E+00  0.00000000000E+00  0.99278393315E+02  0.15962831634E+03  0.12500000000E+03 0.  0.
<mgrwt>
<rscale>  0 0.12500000E+03</rscale>
<asrwt>0</asrwt>
<pdfrwt beam="1">  1       21 0.19915901E-01 0.12500000E+03</pdfrwt>
<pdfrwt beam="2">  1       21 0.46423018E-02 0.12500000E+03</pdfrwt>
<totfact> 0.69564940E+06</totfact>
</mgrwt>
</event>
<event>
 3    1  0.1597250E-001  0.1250000E+03  0.7546771E-02  0.1235069E+00
         21   -1    0    0  502  501  0.00000000000E+00  0.00000000000E+00  0.43723129078E+02  0.43723129078E+02  0.00000000000E+00 0.  1.
         21   -1    0    0  501  502 -0.00000000000E+00 -0.00000000000E+00 -0.89340586603E+02  0.89340586603E+02  0.00000000000E+00 0.  1.
         25    1    1    2    0    0  0.00000000000E+00  0.00000000000E+00 -0.45617457525E+02  0.13306371568E+03  0.12500000000E+03 0.  0.
<mgrwt>
<rscale>  0 0.12500000E+03</rscale>
<asrwt>0</asrwt>
<pdfrwt beam="1">  1       21 0.67266354E-02 0.12500000E+03</pdfrwt>
<pdfrwt beam="2">  1       21 0.13744705E-01 0.12500000E+03</pdfrwt>
<totfact> 0.72953891E+06</totfact>
</mgrwt>
</event>
<event>
 3    1  0.1597250E-001  0.1250000E+03  0.7546771E-02  0.1235069E+00
         21   -1    0    0  502  501  0.00000000000E+00  0.00000000000E+00  0.46096984467E+02  0.46096984467E+02  0.00000000000E+00 0.  1.
         21   -1    0    0  501  502 -0.00000000000E+00 -0.00000000000E+00 -0.84739816392E+02  0.84739816392E+02  0.00000000000E+00 0.  1.
         25    1    1    2    0    0  0.00000000000E+00  0.00000000000E+00 -0.38642831925E+02  0.13083680086E+03  0.12500000000E+03 0.  0.
<mgrwt>
<rscale>  0 0.12500000E+03</rscale>
<asrwt>0</asrwt>
<pdfrwt beam="1">  1       21 0.70918438E-02 0.12500000E+03</pdfrwt>
<pdfrwt beam="2">  1       21 0.13036895E-01 0.12500000E+03</pdfrwt>
<totfact> 0.73252672E+06</totfact>
</mgrwt>
</event>
<event>
 3    1  0.1597250E-001  0.1250000E+03  0.7546771E-02  0.1235069E+00
         21   -1    0    0  502  501  0.00000000000E+00  0.00000000000E+00  0.50533845005E+01  0.50533845005E+01  0.00000000000E+00 0. -1.
         21   -1    0    0  501  502 -0.00000000000E+00 -0.00000000000E+00 -0.77299679049E+03  0.77299679049E+03  0.00000000000E+00 0. -1.
         25    1    1    2    0    0  0.00000000000E+00  0.00000000000E+00 -0.76794340599E+03  0.77805017499E+03  0.12500000000E+03 0.  0.
<mgrwt>
<rscale>  0 0.12500000E+03</rscale>
<asrwt>0</asrwt>
<pdfrwt beam="1">  1       21 0.77744381E-03 0.12500000E+03</pdfrwt>
<pdfrwt beam="2">  1       21 0.11892258E+00 0.12500000E+03</pdfrwt>
<totfact> 0.30103059E+06</totfact>
</mgrwt>
</event>
<event>
 3    1  0.1597250E-001  0.1250000E+03  0.7546771E-02  0.1235069E+00
         21   -1    0    0  502  501  0.00000000000E+00  0.00000000000E+00  0.23674553855E+02  0.23674553855E+02  0.00000000000E+00 0.  1.
         21   -1    0    0  501  502 -0.00000000000E+00 -0.00000000000E+00 -0.16499782948E+03  0.16499782948E+03  0.00000000000E+00 0.  1.
         25    1    1    2    0    0  0.00000000000E+00  0.00000000000E+00 -0.14132327562E+03  0.18867238333E+03  0.12500000000E+03 0.  0.
<mgrwt>
<rscale>  0 0.12500000E+03</rscale>
<asrwt>0</asrwt>
<pdfrwt beam="1">  1       21 0.36422391E-02 0.12500000E+03</pdfrwt>
<pdfrwt beam="2">  1       21 0.25384281E-01 0.12500000E+03</pdfrwt>
<totfact> 0.66170321E+06</totfact>
</mgrwt>
</event>
<event>
 3    1  0.1597250E-001  0.1250000E+03  0.7546771E-02  0.1235069E+00
         21   -1    0    0  502  501  0.00000000000E+00  0.00000000000E+00  0.63834506748E+03  0.63834506748E+03  0.00000000000E+00 0. -1.
         21   -1    0    0  501  502 -0.00000000000E+00 -0.00000000000E+00 -0.61193392085E+01  0.61193392085E+01  0.00000000000E+00 0. -1.
         25    1    1    2    0    0  0.00000000000E+00  0.00000000000E+00  0.63222572827E+03  0.64446440669E+03  0.12500000000E+03 0.  0.
<mgrwt>
<rscale>  0 0.12500000E+03</rscale>
<asrwt>0</asrwt>
<pdfrwt beam="1">  1       21 0.98206881E-01 0.12500000E+03</pdfrwt>
<pdfrwt beam="2">  1       21 0.94143731E-03 0.12500000E+03</pdfrwt>
<totfact> 0.35155821E+06</totfact>
</mgrwt>
</event>
<event>
 3    1  0.1597250E-001  0.1250000E+03  0.7546771E-02  0.1235069E+00
         21   -1    0    0  502  501  0.00000000000E+00  0.00000000000E+00  0.12239822909E+03  0.12239822909E+03  0.00000000000E+00 0.  1.
         21   -1    0    0  501  502 -0.00000000000E+00 -0.00000000000E+00 -0.31914268932E+02  0.31914268932E+02  0.00000000000E+00 0.  1.
         25    1    1    2    0    0  0.00000000000E+00  0.00000000000E+00  0.90483960160E+02  0.15431249802E+03  0.12500000000E+03 0.  0.
<mgrwt>
<rscale>  0 0.12500000E+03</rscale>
<asrwt>0</asrwt>
<pdfrwt beam="1">  1       21 0.18830497E-01 0.12500000E+03</pdfrwt>
<pdfrwt beam="2">  1       21 0.49098876E-02 0.12500000E+03</pdfrwt>
<totfact> 0.70221207E+06</totfact>
</mgrwt>
</event>
<event>
 3    1  0.1597250E-001  0.1250000E+03  0.7546771E-02  0.1235069E+00
         21   -1    0    0  502  501  0.00000000000E+00  0.00000000000E+00  0.11716573449E+02  0.11716573449E+02  0.00000000000E+00 0. -1.
         21   -1    0    0  501  502 -0.00000000000E+00 -0.00000000000E+00 -0.33339525562E+03  0.33339525562E+03  0.00000000000E+00 0. -1.
         25    1    1    2    0    0  0.00000000000E+00  0.00000000000E+00 -0.32167868217E+03  0.34511182907E+03  0.12500000000E+03 0.  0.
<mgrwt>
<rscale>  0 0.12500000E+03</rscale>
<asrwt>0</asrwt>
<pdfrwt beam="1">  1       21 0.18025500E-02 0.12500000E+03</pdfrwt>
<pdfrwt beam="2">  1       21 0.51291571E-01 0.12500000E+03</pdfrwt>
<totfact> 0.51901478E+06</totfact>
</mgrwt>
</event>
<event>
 3    1  0.1597250E-001  0.1250000E+03  0.7546771E-02  0.1235069E+00
         21   -1    0    0  502  501  0.00000000000E+00  0.00000000000E+00  0.27623837415E+02  0.27623837415E+02  0.00000000000E+00 0. -1.
         21   -1    0    0  501  502 -0.00000000000E+00 -0.00000000000E+00 -0.14140866605E+03  0.14140866605E+03  0.00000000000E+00 0. -1.
         25    1    1    2    0    0  0.00000000000E+00  0.00000000000E+00 -0.11378482863E+03  0.16903250346E+03  0.12500000000E+03 0.  0.
<mgrwt>
<rscale>  0 0.12500000E+03</rscale>
<asrwt>0</asrwt>
<pdfrwt beam="1">  1       21 0.42498212E-02 0.12500000E+03</pdfrwt>
<pdfrwt beam="2">  1       21 0.21755179E-01 0.12500000E+03</pdfrwt>
<totfact> 0.68432318E+06</totfact>
</mgrwt>
</event>
<event>
 3    1  0.1597250E-001  0.1250000E+03  0.7546771E-02  0.1235069E+00
         21   -1    0    0  502  501  0.00000000000E+00  0.00000000000E+00  0.32179911470E+02  0.32179911470E+02  0.00000000000E+00 0.  1.
         21   -1    0    0  501  502 -0.00000000000E+00 -0.00000000000E+00 -0.12138784172E+03  0.12138784172E+03  0.00000000000E+00 0.  1.
         25    1    1    2    0    0  0.00000000000E+00  0.00000000000E+00 -0.89207930245E+02  0.15356775319E+03  0.12500000000E+03 0.  0.
<mgrwt>
<rscale>  0 0.12500000E+03</rscale>
<asrwt>0</asrwt>
<pdfrwt beam="1">  1       21 0.49507556E-02 0.12500000E+03</pdfrwt>
<pdfrwt beam="2">  1       21 0.18675053E-01 0.12500000E+03</pdfrwt>
<totfact> 0.70313850E+06</totfact>
</mgrwt>
</event>
<event>
 3    1  0.1597250E-001  0.1250000E+03  0.7546771E-02  0.1235069E+00
         21   -1    0    0  502  501  0.00000000000E+00  0.00000000000E+00  0.19385902823E+02  0.19385902823E+02  0.00000000000E+00 0.  1.
         21   -1    0    0  501  502 -0.00000000000E+00 -0.00000000000E+00 -0.20149951414E+03  0.20149951414E+03  0.00000000000E+00 0.  1.
         25    1    1    2    0    0  0.00000000000E+00  0.00000000000E+00 -0.18211361131E+03  0.22088541696E+03  0.12500000000E+03 0.  0.
<mgrwt>
<rscale>  0 0.12500000E+03</rscale>
<asrwt>0</asrwt>
<pdfrwt beam="1">  1       21 0.29824467E-02 0.12500000E+03</pdfrwt>
<pdfrwt beam="2">  1       21 0.30999924E-01 0.12500000E+03</pdfrwt>
<totfact> 0.62732149E+06</totfact>
</mgrwt>
</event>
<event>
 3    1  0.1597250E-001  0.1250000E+03  0.7546771E-02  0.1235069E+00
         21   -1    0    0  502  501  0.00000000000E+00  0.00000000000E+00  0.31782977461E+02  0.31782977461E+02  0.00000000000E+00 0.  1.
         21   -1    0    0  501  502 -0.00000000000E+00 -0.00000000000E+00 -0.12290384074E+03  0.12290384074E+03  0.00000000000E+00 0.  1.
         25    1    1    2    0    0  0.00000000000E+00  0.00000000000E+00 -0.91120863276E+02  0.15468681820E+03  0.12500000000E+03 0.  0.
<mgrwt>
<rscale>  0 0.12500000E+03</rscale>
<asrwt>0</asrwt>
<pdfrwt beam="1">  1       21 0.48896887E-02 0.12500000E+03</pdfrwt>
<pdfrwt beam="2">  1       21 0.18908284E-01 0.12500000E+03</pdfrwt>
<totfact> 0.70174604E+06</totfact>
</mgrwt>
</event>
<event>
 3    1  0.1597250E-001  0.1250000E+03  0.7546771E-02  0.1235069E+00
         21   -1    0    0  502  501  0.00000000000E+00  0.00000000000E+00  0.71689845986E+02  0.71689845986E+02  0.00000000000E+00 0.  1.
         21   -1    0    0  501  502 -0.00000000000E+00 -0.00000000000E+00 -0.54488190709E+02  0.54488190709E+02  0.00000000000E+00 0.  1.
         25    1    1    2    0    0  0.00000000000E+00  0.00000000000E+00  0.17201655276E+02  0.12617803670E+03  0.12500000000E+03 0.  0.
<mgrwt>
<rscale>  0 0.12500000E+03</rscale>
<asrwt>0</asrwt>
<pdfrwt beam="1">  1       21 0.11029207E-01 0.12500000E+03</pdfrwt>
<pdfrwt beam="2">  1       21 0.83827986E-02 0.12500000E+03</pdfrwt>
<totfact> 0.73881529E+06</totfact>
</mgrwt>
</event>
<event>
 3    1  0.1597250E-001  0.1250000E+03  0.7546771E-02  0.1235069E+00
         21   -1    0    0  502  501  0.00000000000E+00  0.00000000000E+00  0.79913953772E+02  0.79913953772E+02  0.00000000000E+00 0.  1.
         21   -1    0    0  501  502 -0.00000000000E+00 -0.00000000000E+00 -0.48880699998E+02  0.48880699998E+02  0.00000000000E+00 0.  1.
         25    1    1    2    0    0  0.00000000000E+00  0.00000000000E+00  0.31033253773E+02  0.12879465377E+03  0.12500000000E+03 0.  0.
<mgrwt>
<rscale>  0 0.12500000E+03</rscale>
<asrwt>0</asrwt>
<pdfrwt beam="1">  1       21 0.12294454E-01 0.12500000E+03</pdfrwt>
<pdfrwt beam="2">  1       21 0.75201077E-02 0.12500000E+03</pdfrwt>
<totfact> 0.73526474E+06</totfact>
</mgrwt>
</event>
<event>
 3    1  0.1597250E-001  0.1250000E+03  0.7546771E-02  0.1235069E+00
         21   -1    0    0  502  501  0.00000000000E+00  0.00000000000E+00  0.62361385674E+02  0.62361385674E+02  0.00000000000E+00 0.  1.
         21   -1    0    0  501  502 -0.00000000000E+00 -0.00000000000E+00 -0.62638922432E+02  0.62638922432E+02  0.00000000000E+00 0.  1.
         25    1    1    2    0    0  0.00000000000E+00  0.00000000000E+00 -0.27753675787E+00  0.12500030811E+03  0.12500000000E+03 0.  0.
<mgrwt>
<rscale>  0 0.12500000E+03</rscale>
<asrwt>0</asrwt>
<pdfrwt beam="1">  1       21 0.95940593E-02 0.12500000E+03</pdfrwt>
<pdfrwt beam="2">  1       21 0.96367573E-02 0.12500000E+03</pdfrwt>
<totfact> 0.74043540E+06</totfact>
</mgrwt>
</event>
<event>
 3    1  0.1597250E-001  0.1250000E+03  0.7546771E-02  0.1235069E+00
         21   -1    0    0  502  501  0.00000000000E+00  0.00000000000E+00  0.27466920115E+02  0.27466920115E+02  0.00000000000E+00 0. -1.
         21   -1    0    0  501  502 -0.00000000000E+00 -0.00000000000E+00 -0.14221652750E+03  0.14221652750E+03  0.00000000000E+00 0. -1.
         25    1    1    2    0    0  0.00000000000E+00  0.00000000000E+00 -0.11474960739E+03  0.16968344762E+03  0.12500000000E+03 0.  0.
<mgrwt>
<rscale>  0 0.12500000E+03</rscale>
<asrwt>0</asrwt>
<pdfrwt beam="1">  1       21 0.42256800E-02 0.12500000E+03</pdfrwt>
<pdfrwt beam="2">  1       21 0.21879466E-01 0.12500000E+03</pdfrwt>
<totfact> 0.68355180E+06</totfact>
</mgrwt>
</event>
<event>
 3    1  0.1597250E-001  0.1250000E+03  0.7546771E-02  0.1235069E+00
         21   -1    0    0  502  501  0.00000000000E+00  0.00000000000E+00  0.72879418411E+01  0.72879418411E+01  0.00000000000E+00 0.  1.
         21   -1    0    0  501  502 -0.00000000000E+00 -0.00000000000E+00 -0.53598808623E+03  0.53598808623E+03  0.00000000000E+00 0.  1.
         25    1    1    2    0    0  0.00000000000E+00  0.00000000000E+00 -0.52870014439E+03  0.54327602807E+03  0.12500000000E+03 0.  0.
<mgrwt>
<rscale>  0 0.12500000E+03</rscale>
<asrwt>0</asrwt>
<pdfrwt beam="1">  1       21 0.11212217E-02 0.12500000E+03</pdfrwt>
<pdfrwt beam="2">  1       21 0.82459716E-01 0.12500000E+03</pdfrwt>
<totfact> 0.39790330E+06</totfact>
</mgrwt>
</event>
<event>
 3    1  0.1597250E-001  0.1250000E+03  0.7546771E-02  0.1235069E+00
         21   -1    0    0  502  501  0.00000000000E+00  0.00000000000E+00  0.44549958360E+02  0.44549958360E+02  0.00000000000E+00 0. -1.
         21   -1    0    0  501  502 -0.00000000000E+00 -0.00000000000E+00 -0.87682461304E+02  0.87682461304E+02  0.00000000000E+00 0. -1.
         25    1    1    2    0    0  0.00000000000E+00  0.00000000000E+00 -0.43132502944E+02  0.13223241966E+03  0.12500000000E+03 0.  0.
<mgrwt>
<rscale>  0 0.12500000E+03</rscale>
<asrwt>0</asrwt>
<pdfrwt beam="1">  1       21 0.68538397E-02 0.12500000E+03</pdfrwt>
<pdfrwt beam="2">  1       21 0.13489609E-01 0.12500000E+03</pdfrwt>
<totfact> 0.73065070E+06</totfact>
</mgrwt>
</event>
<event>
 3    1  0.1597250E-001  0.1250000E+03  0.7546771E-02  0.1235069E+00
         21   -1    0    0  502  501  0.00000000000E+00  0.00000000000E+00  0.21975892419E+03  0.21975892419E+03  0.00000000000E+00 0. -1.
         21   -1    0    0  501  502 -0.00000000000E+00 -0.00000000000E+00 -0.17775159823E+02  0.17775159823E+02  0.00000000000E+00 0. -1.
         25    1    1    2    0    0  0.00000000000E+00  0.00000000000E+00  0.20198376437E+03  0.23753408401E+03  0.12500000000E+03 0.  0.
<mgrwt>
<rscale>  0 0.12500000E+03</rscale>
<asrwt>0</asrwt>
<pdfrwt beam="1">  1       21 0.33809063E-01 0.12500000E+03</pdfrwt>
<pdfrwt beam="2">  1       21 0.27346401E-02 0.12500000E+03</pdfrwt>
<totfact> 0.61072104E+06</totfact>
</mgrwt>
</event>
<event>
 3    1  0.1597250E-001  0.1250000E+03  0.7546771E-02  0.1235069E+00
         21   -1    0    0  502  501  0.00000000000E+00  0.00000000000E+00  0.25698130457E+02  0.25698130457E+02  0.00000000000E+00 0. -1.
         21   -1    0    0  501  502 -0.00000000000E+00 -0.00000000000E+00 -0.15200522102E+03  0.15200522102E+03  0.00000000000E+00 0. -1.
         25    1    1    2    0    0  0.00000000000E+00  0.00000000000E+00 -0.12630709057E+03  0.17770335148E+03  0.12500000000E+03 0.  0.
<mgrwt>
<rscale>  0 0.12500000E+03</rscale>
<asrwt>0</asrwt>
<pdfrwt beam="1">  1       21 0.39535586E-02 0.12500000E+03</pdfrwt>
<pdfrwt beam="2">  1       21 0.23385418E-01 0.12500000E+03</pdfrwt>
<totfact> 0.67415982E+06</totfact>
</mgrwt>
</event>
<event>
 3    1  0.1597250E-001  0.1250000E+03  0.7546771E-02  0.1235069E+00
         21   -1    0    0  502  501  0.00000000000E+00  0.00000000000E+00  0.26159489722E+02  0.26159489722E+02  0.00000000000E+00 0. -1.
         21   -1    0    0  501  502 -0.00000000000E+00 -0.00000000000E+00 -0.14932439591E+03  0.14932439591E+03  0.00000000000E+00 0. -1.
         25    1    1    2    0    0  0.00000000000E+00  0.00000000000E+00 -0.12316490618E+03  0.17548388563E+03  0.12500000000E+03 0.  0.
<mgrwt>
<rscale>  0 0.12500000E+03</rscale>
<asrwt>0</asrwt>
<pdfrwt beam="1">  1       21 0.40245369E-02 0.12500000E+03</pdfrwt>
<pdfrwt beam="2">  1       21 0.22972984E-01 0.12500000E+03</pdfrwt>
<totfact> 0.67673425E+06</totfact>
</mgrwt>
</event>
<event>
 3    1  0.1597250E-001  0.1250000E+03  0.7546771E-02  0.1235069E+00
         21   -1    0    0  502  501  0.00000000000E+00  0.00000000000E+00  0.10240181155E+02  0.10240181155E+02  0.00000000000E+00 0.  1.
         21   -1    0    0  501  502 -0.00000000000E+00 -0.00000000000E+00 -0.38146297814E+03  0.38146297814E+03  0.00000000000E+00 0.  1.
         25    1    1    2    0    0  0.00000000000E+00  0.00000000000E+00 -0.37122279698E+03  0.39170315929E+03  0.12500000000E+03 0.  0.
<mgrwt>
<rscale>  0 0.12500000E+03</rscale>
<asrwt>0</asrwt>
<pdfrwt beam="1">  1       21 0.15754129E-02 0.12500000E+03</pdfrwt>
<pdfrwt beam="2">  1       21 0.58686598E-01 0.12500000E+03</pdfrwt>
<totfact> 0.48596590E+06</totfact>
</mgrwt>
</event>
<event>
 3    1  0.1597250E-001  0.1250000E+03  0.7546771E-02  0.1235069E+00
         21   -1    0    0  502  501  0.00000000000E+00  0.00000000000E+00  0.29972030612E+03  0.29972030612E+03  0.00000000000E+00 0. -1.
         21   -1    0    0  501  502 -0.00000000000E+00 -0.00000000000E+00 -0.13032984153E+02  0.13032984153E+02  0.00000000000E+00 0. -1.
         25    1    1    2    0    0  0.00000000000E+00  0.00000000000E+00  0.28668732197E+03  0.31275329027E+03  0.12500000000E+03 0.  0.
<mgrwt>
<rscale>  0 0.12500000E+03</rscale>
<asrwt>0</asrwt>
<pdfrwt beam="1">  1       21 0.46110811E-01 0.12500000E+03</pdfrwt>
<pdfrwt beam="2">  1       21 0.20050747E-02 0.12500000E+03</pdfrwt>
<totfact> 0.54412652E+06</totfact>
</mgrwt>
</event>
<event>
 3    1  0.1597250E-001  0.1250000E+03  0.7546771E-02  0.1235069E+00
         21   -1    0    0  502  501  0.00000000000E+00  0.00000000000E+00  0.26145145588E+02  0.26145145588E+02  0.00000000000E+00 0. -1.
         21   -1    0    0  501  502 -0.00000000000E+00 -0.00000000000E+00 -0.14940632045E+03  0.14940632045E+03  0.00000000000E+00 0. -1.
         25    1    1    2    0    0  0.00000000000E+00  0.00000000000E+00 -0.12326117486E+03  0.17555146604E+03  0.12500000000E+03 0.  0.
<mgrwt>
<rscale>  0 0.12500000E+03</rscale>
<asrwt>0</asrwt>
<pdfrwt beam="1">  1       21 0.40223302E-02 0.12500000E+03</pdfrwt>
<pdfrwt beam="2">  1       21 0.22985587E-01 0.12500000E+03</pdfrwt>
<totfact> 0.67665559E+06</totfact>
</mgrwt>
</event>
<event>
 3    1  0.1597250E-001  0.1250000E+03  0.7546771E-02  0.1235069E+00
         21   -1    0    0  502  501  0.00000000000E+00  0.00000000000E+00  0.25757573063E+02  0.25757573063E+02  0.00000000000E+00 0. -1.
         21   -1    0    0  501  502 -0.00000000000E+00 -0.00000000000E+00 -0.15165442763E+03  0.15165442763E+03  0.00000000000E+00 0. -1.
         25    1    1    2    0    0  0.00000000000E+00  0.00000000000E+00 -0.12589685457E+03  0.17741200069E+03  0.12500000000E+03 0.  0.
<mgrwt>
<rscale>  0 0.12500000E+03</rscale>
<asrwt>0</asrwt>
<pdfrwt beam="1">  1       21 0.39627036E-02 0.12500000E+03</pdfrwt>
<pdfrwt beam="2">  1       21 0.23331450E-01 0.12500000E+03</pdfrwt>
<totfact> 0.67449671E+06</totfact>
</mgrwt>
</event>
<event>
 3    1  0.1597250E-001  0.1250000E+03  0.7546771E-02  0.1235069E+00
         21   -1    0    0  502  501  0.00000000000E+00  0.00000000000E+00  0.10634246415E+02  0.10634246415E+02  0.00000000000E+00 0. -1.
         21   -1    0    0  501  502 -0.00000000000E+00 -0.00000000000E+00 -0.36732739185E+03  0.36732739185E+03  0.00000000000E+00 0. -1.
         25    1    1    2    0    0  0.00000000000E+00  0.00000000000E+00 -0.35669314544E+03  0.37796163827E+03  0.12500000000E+03 0.  0.
<mgrwt>
<rscale>  0 0.12500000E+03</rscale>
<asrwt>0</asrwt>
<pdfrwt beam="1">  1       21 0.16360382E-02 0.12500000E+03</pdfrwt>
<pdfrwt beam="2">  1       21 0.56511897E-01 0.12500000E+03</pdfrwt>
<totfact> 0.49537395E+06</totfact>
</mgrwt>
</event>
<event>
 3    1  0.1597250E-001  0.1250000E+03  0.7546771E-02  0.1235069E+00
         21   -1    0    0  502  501  0.00000000000E+00  0.00000000000E+00  0.16326875095E+02  0.16326875095E+02  0.00000000000E+00 0. -1.
         21   -1    0    0  501  502 -0.00000000000E+00 -0.00000000000E+00 -0.23925276437E+03  0.23925276437E+03  0.00000000000E+00 0. -1.
         25    1    1    2    0    0  0.00000000000E+00  0.00000000000E+00 -0.22292588927E+03  0.25557963946E+03  0.12500000000E+03 0.  0.
<mgrwt>
<rscale>  0 0.12500000E+03</rscale>
<asrwt>0</asrwt>
<pdfrwt beam="1">  1       21 0.25118270E-02 0.12500000E+03</pdfrwt>
<pdfrwt beam="2">  1       21 0.36808117E-01 0.12500000E+03</pdfrwt>
<totfact> 0.59356816E+06</totfact>
</mgrwt>
</event>
<event>
 3    1  0.1597250E-001  0.1250000E+03  0.7546771E-02  0.1235069E+00
         21   -1    0    0  502  501  0.00000000000E+00  0.00000000000E+00  0.89971578397E+01  0.89971578397E+01  0.00000000000E+00 0. -1.
         21   -1    0    0  501  502 -0.00000000000E+00 -0.00000000000E+00 -0.43416488513E+03  0.43416488513E+03  0.00000000000E+00 0. -1.
         25    1    1    2    0    0  0.00000000000E+00  0.00000000000E+00 -0.42516772729E+03  0.44316204297E+03  0.12500000000E+03 0.  0.
<mgrwt>
<rscale>  0 0.12500000E+03</rscale>
<asrwt>0</asrwt>
<pdfrwt beam="1">  1       21 0.13841786E-02 0.12500000E+03</pdfrwt>
<pdfrwt beam="2">  1       21 0.66794576E-01 0.12500000E+03</pdfrwt>
<totfact> 0.45304291E+06</totfact>
</mgrwt>
</event>
<event>
 3    1  0.1597250E-001  0.1250000E+03  0.7546771E-02  0.1235069E+00
         21   -1    0    0  502  501  0.00000000000E+00  0.00000000000E+00  0.11502822686E+03  0.11502822686E+03  0.00000000000E+00 0. -1.
         21   -1    0    0  501  502 -0.00000000000E+00 -0.00000000000E+00 -0.33959056023E+02  0.33959056023E+02  0.00000000000E+00 0. -1.
         25    1    1    2    0    0  0.00000000000E+00  0.00000000000E+00  0.81069170832E+02  0.14898728288E+03  0.12500000000E+03 0.  0.
<mgrwt>
<rscale>  0 0.12500000E+03</rscale>
<asrwt>0</asrwt>
<pdfrwt beam="1">  1       21 0.17696650E-01 0.12500000E+03</pdfrwt>
<pdfrwt beam="2">  1       21 0.52244702E-02 0.12500000E+03</pdfrwt>
<totfact> 0.70886649E+06</totfact>
</mgrwt>
</event>
<event>
 3    1  0.1597250E-001  0.1250000E+03  0.7546771E-02  0.1235069E+00
         21   -1    0    0  502  501  0.00000000000E+00  0.00000000000E+00  0.14203577531E+03  0.14203577531E+03  0.00000000000E+00 0.  1.
         21   -1    0    0  501  502 -0.00000000000E+00 -0.00000000000E+00 -0.27501874027E+02  0.27501874027E+02  0.00000000000E+00 0.  1.
         25    1    1    2    0    0  0.00000000000E+00  0.00000000000E+00  0.11453390129E+03  0.16953764934E+03  0.12500000000E+03 0.  0.
<mgrwt>
<rscale>  0 0.12500000E+03</rscale>
<asrwt>0</asrwt>
<pdfrwt beam="1">  1       21 0.21851657E-01 0.12500000E+03</pdfrwt>
<pdfrwt beam="2">  1       21 0.42310576E-02 0.12500000E+03</pdfrwt>
<totfact> 0.68372469E+06</totfact>
</mgrwt>
</event>
<event>
 3    1  0.1597250E-001  0.1250000E+03  0.7546771E-02  0.1235069E+00
         21   -1    0    0  502  501  0.00000000000E+00  0.00000000000E+00  0.10910919532E+03  0.10910919532E+03  0.00000000000E+00 0. -1.
         21   -1    0    0  501  502 -0.00000000000E+00 -0.00000000000E+00 -0.35801290520E+02  0.35801290520E+02  0.00000000000E+00 0. -1.
         25    1    1    2    0    0  0.00000000000E+00  0.00000000000E+00  0.73307904797E+02  0.14491048584E+03  0.12500000000E+03 0.  0.
<mgrwt>
<rscale>  0 0.12500000E+03</rscale>
<asrwt>0</asrwt>
<pdfrwt beam="1">  1       21 0.16786030E-01 0.12500000E+03</pdfrwt>
<pdfrwt beam="2">  1       21 0.55078909E-02 0.12500000E+03</pdfrwt>
<totfact> 0.71404556E+06</totfact>
</mgrwt>
</event>
<event>
 3    1  0.1597250E-001  0.1250000E+03  0.7546771E-02  0.1235069E+00
         21   -1    0    0  502  501  0.00000000000E+00  0.00000000000E+00  0.12473544259E+03  0.12473544259E+03  0.00000000000E+00 0. -1.
         21   -1    0    0  501  502 -0.00000000000E+00 -0.00000000000E+00 -0.31316279630E+02  0.31316279630E+02  0.00000000000E+00 0. -1.
         25    1    1    2    0    0  0.00000000000E+00  0.00000000000E+00  0.93419162963E+02  0.15605172222E+03  0.12500000000E+03 0.  0.
<mgrwt>
<rscale>  0 0.12500000E+03</rscale>
<asrwt>0</asrwt>
<pdfrwt beam="1">  1       21 0.19190068E-01 0.12500000E+03</pdfrwt>
<pdfrwt beam="2">  1       21 0.48178892E-02 0.12500000E+03</pdfrwt>
<totfact> 0.70005179E+06</totfact>
</mgrwt>
</event>
<event>
 3    1  0.1597250E-001  0.1250000E+03  0.7546771E-02  0.1235069E+00
         21   -1    0    0  502  501  0.00000000000E+00  0.00000000000E+00  0.30679199161E+02  0.30679199161E+02  0.00000000000E+00 0.  1.
         21   -1    0    0  501  502 -0.00000000000E+00 -0.00000000000E+00 -0.12732568342E+03  0.12732568342E+03  0.00000000000E+00 0.  1.
         25    1    1    2    0    0  0.00000000000E+00  0.00000000000E+00 -0.96646484261E+02  0.15800488258E+03  0.12500000000E+03 0.  0.
<mgrwt>
<rscale>  0 0.12500000E+03</rscale>
<asrwt>0</asrwt>
<pdfrwt beam="1">  1       21 0.47198768E-02 0.12500000E+03</pdfrwt>
<pdfrwt beam="2">  1       21 0.19588567E-01 0.12500000E+03</pdfrwt>
<totfact> 0.69764103E+06</totfact>
</mgrwt>
</event>
<event>
 3    1  0.1597250E-001  0.1250000E+03  0.7546771E-02  0.1235069E+00
         21   -1    0    0  502  501  0.00000000000E+00  0.00000000000E+00  0.35529490722E+03  0.35529490722E+03  0.00000000000E+00 0. -1.
         21   -1    0    0  501  502 -0.00000000000E+00 -0.00000000000E+00 -0.10994387819E+02  0.10994387819E+02  0.00000000000E+00 0. -1.
         25    1    1    2    0    0  0.00000000000E+00  0.00000000000E+00  0.34430051940E+03  0.36628929504E+03  0.12500000000E+03 0.  0.
<mgrwt>
<rscale>  0 0.12500000E+03</rscale>
<asrwt>0</asrwt>
<pdfrwt beam="1">  1       21 0.54660746E-01 0.12500000E+03</pdfrwt>
<pdfrwt beam="2">  1       21 0.16914446E-02 0.12500000E+03</pdfrwt>
<totfact> 0.50357468E+06</totfact>
</mgrwt>
</event>
<event>
 3    1  0.1597250E-001  0.1250000E+03  0.7546771E-02  0.1235069E+00
         21   -1    0    0  502  501  0.00000000000E+00  0.00000000000E+00  0.99843770457E+02  0.99843770457E+02  0.00000000000E+00 0. -1.
         21   -1    0    0  501  502 -0.00000000000E+00 -0.00000000000E+00 -0.39123622657E+02  0.39123622657E+02  0.00000000000E+00 0. -1.
         25    1    1    2    0    0  0.00000000000E+00  0.00000000000E+00  0.60720147801E+02  0.13896739311E+03  0.12500000000E+03 0.  0.
<mgrwt>
<rscale>  0 0.12500000E+03</rscale>
<asrwt>0</asrwt>
<pdfrwt beam="1">  1       21 0.15360580E-01 0.12500000E+03</pdfrwt>
<pdfrwt beam="2">  1       21 0.60190189E-02 0.12500000E+03</pdfrwt>
<totfact> 0.72174401E+06</totfact>
</mgrwt>
</event>
<event>
 3    1  0.1597250E-001  0.1250000E+03  0.7546771E-02  0.1235069E+00
         21   -1    0    0  502  501  0.00000000000E+00  0.00000000000E+00  0.12308249101E+02  0.12308249101E+02  0.00000000000E+00 0.  1.
         21   -1    0    0  501  502 -0.00000000000E+00 -0.00000000000E+00 -0.31736845493E+03  0.31736845493E+03  0.00000000000E+00 0.  1.
         25    1    1    2    0    0  0.00000000000E+00  0.00000000000E+00 -0.30506020583E+03  0.32967670403E+03  0.12500000000E+03 0.  0.
<mgrwt>
<rscale>  0 0.12500000E+03</rscale>
<asrwt>0</asrwt>
<pdfrwt beam="1">  1       21 0.18935765E-02 0.12500000E+03</pdfrwt>
<pdfrwt beam="2">  1       21 0.48825922E-01 0.12500000E+03</pdfrwt>
<totfact> 0.53075310E+06</totfact>
</mgrwt>
</event>
<event>
 3    1  0.1597250E-001  0.1250000E+03  0.7546771E-02  0.1235069E+00
         21   -1    0    0  502  501  0.00000000000E+00  0.00000000000E+00  0.34563693284E+02  0.34563693284E+02  0.00000000000E+00 0. -1.
         21   -1    0    0  501  502 -0.00000000000E+00 -0.00000000000E+00 -0.11301598958E+03  0.11301598958E+03  0.00000000000E+00 0. -1.
         25    1    1    2    0    0  0.00000000000E+00  0.00000000000E+00 -0.78452296293E+02  0.14757968286E+03  0.12500000000E+03 0.  0.
<mgrwt>
<rscale>  0 0.12500000E+03</rscale>
<asrwt>0</asrwt>
<pdfrwt beam="1">  1       21 0.53174915E-02 0.12500000E+03</pdfrwt>
<pdfrwt beam="2">  1       21 0.17387075E-01 0.12500000E+03</pdfrwt>
<totfact> 0.71064577E+06</totfact>
</mgrwt>
</event>
<event>
 3    1  0.1597250E-001  0.1250000E+03  0.7546771E-02  0.1235069E+00
         21   -1    0    0  502  501  0.00000000000E+00  0.00000000000E+00  0.18580997019E+02  0.18580997019E+02  0.00000000000E+00 0. -1.
         21   -1    0    0  501  502 -0.00000000000E+00 -0.00000000000E+00 -0.21022822381E+03  0.21022822381E+03  0.00000000000E+00 0. -1.
         25    1    1    2    0    0  0.00000000000E+00  0.00000000000E+00 -0.19164722679E+03  0.22880922083E+03  0.12500000000E+03 0.  0.
<mgrwt>
<rscale>  0 0.12500000E+03</rscale>
<asrwt>0</asrwt>
<pdfrwt beam="1">  1       21 0.28586150E-02 0.12500000E+03</pdfrwt>
<pdfrwt beam="2">  1       21 0.32342803E-01 0.12500000E+03</pdfrwt>
<totfact> 0.61932683E+06</totfact>
</mgrwt>
</event>
<event>
 3    1  0.1597250E-001  0.1250000E+03  0.7546771E-02  0.1235069E+00
         21   -1    0    0  502  501  0.00000000000E+00  0.00000000000E+00  0.70285865783E+03  0.70285865783E+03  0.00000000000E+00 0. -1.
         21   -1    0    0  501  502 -0.00000000000E+00 -0.00000000000E+00 -0.55576607850E+01  0.55576607850E+01  0.00000000000E+00 0. -1.
         25    1    1    2    0    0  0.00000000000E+00  0.00000000000E+00  0.69730099705E+03  0.70841631862E+03  0.12500000000E+03 0.  0.
<mgrwt>
<rscale>  0 0.12500000E+03</rscale>
<asrwt>0</asrwt>
<pdfrwt beam="1">  1       21 0.10813203E+00 0.12500000E+03</pdfrwt>
<pdfrwt beam="2">  1       21 0.85502529E-03 0.12500000E+03</pdfrwt>
<totfact> 0.32588196E+06</totfact>
</mgrwt>
</event>
<event>
 3    1  0.1597250E-001  0.1250000E+03  0.7546771E-02  0.1235069E+00
         21   -1    0    0  502  501  0.00000000000E+00  0.00000000000E+00  0.16301568198E+03  0.16301568198E+03  0.00000000000E+00 0. -1.
         21   -1    0    0  501  502 -0.00000000000E+00 -0.00000000000E+00 -0.23962418539E+02  0.23962418539E+02  0.00000000000E+00 0. -1.
         25    1    1    2    0    0  0.00000000000E+00  0.00000000000E+00  0.13905326344E+03  0.18697810052E+03  0.12500000000E+03 0.  0.
<mgrwt>
<rscale>  0 0.12500000E+03</rscale>
<asrwt>0</asrwt>
<pdfrwt beam="1">  1       21 0.25079335E-01 0.12500000E+03</pdfrwt>
<pdfrwt beam="2">  1       21 0.36865260E-02 0.12500000E+03</pdfrwt>
<totfact> 0.66359906E+06</totfact>
</mgrwt>
</event>
<event>
 3    1  0.1597250E-001  0.1250000E+03  0.7546771E-02  0.1235069E+00
         21   -1    0    0  502  501  0.00000000000E+00  0.00000000000E+00  0.14892669932E+02  0.14892669932E+02  0.00000000000E+00 0. -1.
         21   -1    0    0  501  502 -0.00000000000E+00 -0.00000000000E+00 -0.26229346503E+03  0.26229346503E+03  0.00000000000E+00 0. -1.
         25    1    1    2    0    0  0.00000000000E+00  0.00000000000E+00 -0.24740079510E+03  0.27718613496E+03  0.12500000000E+03 0.  0.
<mgrwt>
<rscale>  0 0.12500000E+03</rscale>
<asrwt>0</asrwt>
<pdfrwt beam="1">  1       21 0.22911804E-02 0.12500000E+03</pdfrwt>
<pdfrwt beam="2">  1       21 0.40352834E-01 0.12500000E+03</pdfrwt>
<totfact> 0.57407038E+06</totfact>
</mgrwt>
</event>
<event>
 3    1  0.1597250E-001  0.1250000E+03  0.7546771E-02  0.1235069E+00
         21   -1    0    0  502  501  0.00000000000E+00  0.00000000000E+00  0.21395718000E+02  0.21395718000E+02  0.00000000000E+00 0. -1.
         21   -1    0    0  501  502 -0.00000000000E+00 -0.00000000000E+00 -0.18257157811E+03  0.18257157811E+03  0.00000000000E+00 0. -1.
         25    1    1    2    0    0  0.00000000000E+00  0.00000000000E+00 -0.16117586011E+03  0.20396729611E+03  0.12500000000E+03 0.  0.
<mgrwt>
<rscale>  0 0.12500000E+03</rscale>
<asrwt>0</asrwt>
<pdfrwt beam="1">  1       21 0.32916490E-02 0.12500000E+03</pdfrwt>
<pdfrwt beam="2">  1       21 0.28087934E-01 0.12500000E+03</pdfrwt>
<totfact> 0.64499888E+06</totfact>
</mgrwt>
</event>
<event>
 3    1  0.1597250E-001  0.1250000E+03  0.7546771E-02  0.1235069E+00
         21   -1    0    0  502  501  0.00000000000E+00  0.00000000000E+00  0.11181224738E+03  0.11181224738E+03  0.00000000000E+00 0.  1.
         21   -1    0    0  501  502 -0.00000000000E+00 -0.00000000000E+00 -0.34935797210E+02  0.34935797210E+02  0.00000000000E+00 0.  1.
         25    1    1    2    0    0  0.00000000000E+00  0.00000000000E+00  0.76876450169E+02  0.14674804459E+03  0.12500000000E+03 0.  0.
<mgrwt>
<rscale>  0 0.12500000E+03</rscale>
<asrwt>0</asrwt>
<pdfrwt beam="1">  1       21 0.17201884E-01 0.12500000E+03</pdfrwt>
<pdfrwt beam="2">  1       21 0.53747381E-02 0.12500000E+03</pdfrwt>
<totfact> 0.71170137E+06</totfact>
</mgrwt>
</event>
<event>
 3    1  0.1597250E-001  0.1250000E+03  0.7546771E-02  0.1235069E+00
         21   -1    0    0  502  501  0.00000000000E+00  0.00000000000E+00  0.89456644259E+03  0.89456644259E+03  0.00000000000E+00 0.  1.
         21   -1    0    0  501  502 -0.00000000000E+00 -0.00000000000E+00 -0.43666404350E+01  0.43666404350E+01  0.00000000000E+00 0.  1.
         25    1    1    2    0    0  0.00000000000E+00  0.00000000000E+00  0.89019980215E+03  0.89893308302E+03  0.12500000000E+03 0.  0.
<mgrwt>
<rscale>  0 0.12500000E+03</rscale>
<asrwt>0</asrwt>
<pdfrwt beam="1">  1       21 0.13762546E+00 0.12500000E+03</pdfrwt>
<pdfrwt beam="2">  1       21 0.67179155E-03 0.12500000E+03</pdfrwt>
<totfact> 0.26329839E+06</totfact>
</mgrwt>
</event>
<event>
 3    1  0.1597250E-001  0.1250000E+03  0.7546771E-02  0.1235069E+00
         21   -1    0    0  502  501  0.00000000000E+00  0.00000000000E+00  0.30027810444E+03  0.30027810444E+03  0.00000000000E+00 0.  1.
         21   -1    0    0  501  502 -0.00000000000E+00 -0.00000000000E+00 -0.13008774007E+02  0.13008774007E+02  0.00000000000E+00 0.  1.
         25    1    1    2    0    0  0.00000000000E+00  0.00000000000E+00  0.28726933044E+03  0.31328687845E+03  0.12500000000E+03 0.  0.
<mgrwt>
<rscale>  0 0.12500000E+03</rscale>
<asrwt>0</asrwt>
<pdfrwt beam="1">  1       21 0.46196626E-01 0.12500000E+03</pdfrwt>
<pdfrwt beam="2">  1       21 0.20013501E-02 0.12500000E+03</pdfrwt>
<totfact> 0.54369650E+06</totfact>
</mgrwt>
</event>
<event>
 3    1  0.1597250E-001  0.1250000E+03  0.7546771E-02  0.1235069E+00
         21   -1    0    0  502  501  0.00000000000E+00  0.00000000000E+00  0.67237953977E+02  0.67237953977E+02  0.00000000000E+00 0.  1.
         21   -1    0    0  501  502 -0.00000000000E+00 -0.00000000000E+00 -0.58095908173E+02  0.58095908173E+02  0.00000000000E+00 0.  1.
         25    1    1    2    0    0  0.00000000000E+00  0.00000000000E+00  0.91420458042E+01  0.12533386215E+03  0.12500000000E+03 0.  0.
<mgrwt>
<rscale>  0 0.12500000E+03</rscale>
<asrwt>0</asrwt>
<pdfrwt beam="1">  1       21 0.10344301E-01 0.12500000E+03</pdfrwt>
<pdfrwt beam="2">  1       21 0.89378320E-02 0.12500000E+03</pdfrwt>
<totfact> 0.73998501E+06</totfact>
</mgrwt>
</event>
<event>
 3    1  0.1597250E-001  0.1250000E+03  0.7546771E-02  0.1235069E+00
         21   -1    0    0  502  501  0.00000000000E+00  0.00000000000E+00  0.12617518345E+02  0.12617518345E+02  0.00000000000E+00 0. -1.
         21   -1    0    0  501  502 -0.00000000000E+00 -0.00000000000E+00 -0.30958940523E+03  0.30958940523E+03  0.00000000000E+00 0. -1.
         25    1    1    2    0    0  0.00000000000E+00  0.00000000000E+00 -0.29697188688E+03  0.32220692357E+03  0.12500000000E+03 0.  0.
<mgrwt>
<rscale>  0 0.12500000E+03</rscale>
<asrwt>0</asrwt>
<pdfrwt beam="1">  1       21 0.19411568E-02 0.12500000E+03</pdfrwt>
<pdfrwt beam="2">  1       21 0.47629135E-01 0.12500000E+03</pdfrwt>
<totfact> 0.53658919E+06</totfact>
</mgrwt>
</event>
<event>
 3    1  0.1597250E-001  0.1250000E+03  0.7546771E-02  0.1235069E+00
         21   -1    0    0  502  501  0.00000000000E+00  0.00000000000E+00  0.64318964512E+02  0.64318964512E+02  0.00000000000E+00 0.  1.
         21   -1    0    0  501  502 -0.00000000000E+00 -0.00000000000E+00 -0.60732476488E+02  0.60732476488E+02  0.00000000000E+00 0.  1.
         25    1    1    2    0    0  0.00000000000E+00  0.00000000000E+00  0.35864880242E+01  0.12505144100E+03  0.12500000000E+03 0.  0.
<mgrwt>
<rscale>  0 0.12500000E+03</rscale>
<asrwt>0</asrwt>
<pdfrwt beam="1">  1       21 0.98952253E-02 0.12500000E+03</pdfrwt>
<pdfrwt beam="2">  1       21 0.93434579E-02 0.12500000E+03</pdfrwt>
<totfact> 0.74036633E+06</totfact>
</mgrwt>
</event>
<event>
 3    1  0.1597250E-001  0.1250000E+03  0.7546771E-02  0.1235069E+00
         21   -1    0    0  502  501  0.00000000000E+00  0.00000000000E+00  0.43319145151E+01  0.43319145151E+01  0.00000000000E+00 0. -1.
         21   -1    0    0  501  502 -0.00000000000E+00 -0.00000000000E+00 -0.90173755423E+03  0.90173755423E+03  0.00000000000E+00 0. -1.
         25    1    1    2    0    0  0.00000000000E+00  0.00000000000E+00 -0.89740563972E+03  0.90606946875E+03  0.12500000000E+03 0.  0.
<mgrwt>
<rscale>  0 0.12500000E+03</rscale>
<asrwt>0</asrwt>
<pdfrwt beam="1">  1       21 0.66644795E-03 0.12500000E+03</pdfrwt>
<pdfrwt beam="2">  1       21 0.13872895E+00 0.12500000E+03</pdfrwt>
<totfact> 0.26125331E+06</totfact>
</mgrwt>
</event>
<event>
 3    1  0.1597250E-001  0.1250000E+03  0.7546771E-02  0.1235069E+00
         21   -1    0    0  502  501  0.00000000000E+00  0.00000000000E+00  0.74754473510E+01  0.74754473510E+01  0.00000000000E+00 0. -1.
         21   -1    0    0  501  502 -0.00000000000E+00 -0.00000000000E+00 -0.52254397852E+03  0.52254397852E+03  0.00000000000E+00 0. -1.
         25    1    1    2    0    0  0.00000000000E+00  0.00000000000E+00 -0.51506853117E+03  0.53001942587E+03  0.12500000000E+03 0.  0.
<mgrwt>
<rscale>  0 0.12500000E+03</rscale>
<asrwt>0</asrwt>
<pdfrwt beam="1">  1       21 0.11500689E-02 0.12500000E+03</pdfrwt>
<pdfrwt beam="2">  1       21 0.80391378E-01 0.12500000E+03</pdfrwt>
<totfact> 0.40461483E+06</totfact>
</mgrwt>
</event>
<event>
 3    1  0.1597250E-001  0.1250000E+03  0.7546771E-02  0.1235069E+00
         21   -1    0    0  502  501  0.00000000000E+00  0.00000000000E+00  0.20278287190E+03  0.20278287190E+03  0.00000000000E+00 0.  1.
         21   -1    0    0  501  502 -0.00000000000E+00 -0.00000000000E+00 -0.19263214705E+02  0.19263214705E+02  0.00000000000E+00 0.  1.
         25    1    1    2    0    0  0.00000000000E+00  0.00000000000E+00  0.18351965720E+03  0.22204608661E+03  0.12500000000E+03 0.  0.
<mgrwt>
<rscale>  0 0.12500000E+03</rscale>
<asrwt>0</asrwt>
<pdfrwt beam="1">  1       21 0.31197363E-01 0.12500000E+03</pdfrwt>
<pdfrwt beam="2">  1       21 0.29635716E-02 0.12500000E+03</pdfrwt>
<totfact> 0.62614009E+06</totfact>
</mgrwt>
</event>
<event>
 3    1  0.1597250E-001  0.1250000E+03  0.7546771E-02  0.1235069E+00
         21   -1    0    0  502  501  0.00000000000E+00  0.00000000000E+00  0.26544358980E+02  0.26544358980E+02  0.00000000000E+00 0. -1.
         21   -1    0    0  501  502 -0.00000000000E+00 -0.00000000000E+00 -0.14715932688E+03  0.14715932688E+03  0.00000000000E+00 0. -1.
         25    1    1    2    0    0  0.00000000000E+00  0.00000000000E+00 -0.12061496790E+03  0.17370368586E+03  0.12500000000E+03 0.  0.
<mgrwt>
<rscale>  0 0.12500000E+03</rscale>
<asrwt>0</asrwt>
<pdfrwt beam="1">  1       21 0.40837475E-02 0.12500000E+03</pdfrwt>
<pdfrwt beam="2">  1       21 0.22639897E-01 0.12500000E+03</pdfrwt>
<totfact> 0.67881274E+06</totfact>
</mgrwt>
</event>
<event>
 3    1  0.1597250E-001  0.1250000E+03  0.7546771E-02  0.1235069E+00
         21   -1    0    0  502  501  0.00000000000E+00  0.00000000000E+00  0.56731992147E+03  0.56731992147E+03  0.00000000000E+00 0.  1.
         21   -1    0    0  501  502 -0.00000000000E+00 -0.00000000000E+00 -0.68854447943E+01  0.68854447943E+01  0.00000000000E+00 0.  1.
         25    1    1    2    0    0  0.00000000000E+00  0.00000000000E+00  0.56043447668E+03  0.57420536627E+03  0.12500000000E+03 0.  0.
<mgrwt>
<rscale>  0 0.12500000E+03</rscale>
<asrwt>0</asrwt>
<pdfrwt beam="1">  1       21 0.87279951E-01 0.12500000E+03</pdfrwt>
<pdfrwt beam="2">  1       21 0.10592996E-02 0.12500000E+03</pdfrwt>
<totfact> 0.38285773E+06</totfact>
</mgrwt>
</event>
<event>
 3    1  0.1597250E-001  0.1250000E+03  0.7546771E-02  0.1235069E+00
         21   -1    0    0  502  501  0.00000000000E+00  0.00000000000E+00  0.18437277211E+02  0.18437277211E+02  0.00000000000E+00 0. -1.
         21   -1    0    0  501  502 -0.00000000000E+00 -0.00000000000E+00 -0.21186696686E+03  0.21186696686E+03  0.00000000000E+00 0. -1.
         25    1    1    2    0    0  0.00000000000E+00  0.00000000000E+00 -0.19342968965E+03  0.23030424407E+03  0.12500000000E+03 0.  0.
<mgrwt>
<rscale>  0 0.12500000E+03</rscale>
<asrwt>0</asrwt>
<pdfrwt beam="1">  1       21 0.28365039E-02 0.12500000E+03</pdfrwt>
<pdfrwt beam="2">  1       21 0.32594921E-01 0.12500000E+03</pdfrwt>
<totfact> 0.61783713E+06</totfact>
</mgrwt>
</event>
<event>
 3    1  0.1597250E-001  0.1250000E+03  0.7546771E-02  0.1235069E+00
         21   -1    0    0  502  501  0.00000000000E+00  0.00000000000E+00  0.14982513634E+02  0.14982513634E+02  0.00000000000E+00 0.  1.
         21   -1    0    0  501  502 -0.00000000000E+00 -0.00000000000E+00 -0.26072060372E+03  0.26072060372E+03  0.00000000000E+00 0.  1.
         25    1    1    2    0    0  0.00000000000E+00  0.00000000000E+00 -0.24573809009E+03  0.27570311736E+03  0.12500000000E+03 0.  0.
<mgrwt>
<rscale>  0 0.12500000E+03</rscale>
<asrwt>0</asrwt>
<pdfrwt beam="1">  1       21 0.23050021E-02 0.12500000E+03</pdfrwt>
<pdfrwt beam="2">  1       21 0.40110863E-01 0.12500000E+03</pdfrwt>
<totfact> 0.57537778E+06</totfact>
</mgrwt>
</event>
<event>
 3    1  0.1597250E-001  0.1250000E+03  0.7546771E-02  0.1235069E+00
         21   -1    0    0  502  501  0.00000000000E+00  0.00000000000E+00  0.24841033815E+02  0.24841033815E+02  0.00000000000E+00 0. -1.
         21   -1    0    0  501  502 -0.00000000000E+00 -0.00000000000E+00 -0.15724989664E+03  0.15724989664E+03  0.00000000000E+00 0. -1.
         25    1    1    2    0    0  0.00000000000E+00  0.00000000000E+00 -0.13240886283E+03  0.18209093046E+03  0.12500000000E+03 0.  0.
<mgrwt>
<rscale>  0 0.12500000E+03</rscale>
<asrwt>0</asrwt>
<pdfrwt beam="1">  1       21 0.38216976E-02 0.12500000E+03</pdfrwt>
<pdfrwt beam="2">  1       21 0.24192291E-01 0.12500000E+03</pdfrwt>
<totfact> 0.66912478E+06</totfact>
</mgrwt>
</event>
<event>
 3    1  0.1597250E-001  0.1250000E+03  0.7546771E-02  0.1235069E+00
         21   -1    0    0  502  501  0.00000000000E+00  0.00000000000E+00  0.37601936315E+02  0.37601936315E+02  0.00000000000E+00 0.  1.
         21   -1    0    0  501  502 -0.00000000000E+00 -0.00000000000E+00 -0.10388427786E+03  0.10388427786E+03  0.00000000000E+00 0.  1.
         25    1    1    2    0    0  0.00000000000E+00  0.00000000000E+00 -0.66282341541E+02  0.14148621417E+03  0.12500000000E+03 0.  0.
<mgrwt>
<rscale>  0 0.12500000E+03</rscale>
<asrwt>0</asrwt>
<pdfrwt beam="1">  1       21 0.57849134E-02 0.12500000E+03</pdfrwt>
<pdfrwt beam="2">  1       21 0.15982196E-01 0.12500000E+03</pdfrwt>
<totfact> 0.71845876E+06</totfact>
</mgrwt>
</event>
<event>
 3    1  0.1597250E-001  0.1250000E+03  0.7546771E-02  0.1235069E+00
         21   -1    0    0  502  501  0.00000000000E+00  0.00000000000E+00  0.18131402063E+02  0.18131402063E+02  0.00000000000E+00 0.  1.
         21   -1    0    0  501  502 -0.00000000000E+00 -0.00000000000E+00 -0.21544114384E+03  0.21544114384E+03  0.00000000000E+00 0.  1.
         25    1    1    2    0    0  0.00000000000E+00  0.00000000000E+00 -0.19730974178E+03  0.23357254591E+03  0.12500000000E+03 0.  0.
<mgrwt>
<rscale>  0 0.12500000E+03</rscale>
<asrwt>0</asrwt>
<pdfrwt beam="1">  1       21 0.27894462E-02 0.12500000E+03</pdfrwt>
<pdfrwt beam="2">  1       21 0.33144794E-01 0.12500000E+03</pdfrwt>
<totfact> 0.61460234E+06</totfact>
</mgrwt>
</event>
<event>
 3    1  0.1597250E-001  0.1250000E+03  0.7546771E-02  0.1235069E+00
         21   -1    0    0  502  501  0.00000000000E+00  0.00000000000E+00  0.19472071627E+03  0.19472071627E+03  0.00000000000E+00 0.  1.
         21   -1    0    0  501  502 -0.00000000000E+00 -0.00000000000E+00 -0.20060782822E+02  0.20060782822E+02  0.00000000000E+00 0.  1.
         25    1    1    2    0    0  0.00000000000E+00  0.00000000000E+00  0.17465993344E+03  0.21478149909E+03  0.12500000000E+03 0.  0.
<mgrwt>
<rscale>  0 0.12500000E+03</rscale>
<asrwt>0</asrwt>
<pdfrwt beam="1">  1       21 0.29957032E-01 0.12500000E+03</pdfrwt>
<pdfrwt beam="2">  1       21 0.30862744E-02 0.12500000E+03</pdfrwt>
<totfact> 0.63359953E+06</totfact>
</mgrwt>
</event>
<event>
 3    1  0.1597250E-001  0.1250000E+03  0.7546771E-02  0.1235069E+00
         21   -1    0    0  502  501  0.00000000000E+00  0.00000000000E+00  0.39959563980E+02  0.39959563980E+02  0.00000000000E+00 0. -1.
         21   -1    0    0  501  502 -0.00000000000E+00 -0.00000000000E+00 -0.97755070649E+02  0.97755070649E+02  0.00000000000E+00 0. -1.
         25    1    1    2    0    0  0.00000000000E+00  0.00000000000E+00 -0.57795506669E+02  0.13771463463E+03  0.12500000000E+03 0.  0.
<mgrwt>
<rscale>  0 0.12500000E+03</rscale>
<asrwt>0</asrwt>
<pdfrwt beam="1">  1       21 0.61476252E-02 0.12500000E+03</pdfrwt>
<pdfrwt beam="2">  1       21 0.15039242E-01 0.12500000E+03</pdfrwt>
<totfact> 0.72338991E+06</totfact>
</mgrwt>
</event>
<event>
 3    1  0.1597250E-001  0.1250000E+03  0.7546771E-02  0.1235069E+00
         21   -1    0    0  502  501  0.00000000000E+00  0.00000000000E+00  0.13281265138E+03  0.13281265138E+03  0.00000000000E+00 0.  1.
         21   -1    0    0  501  502 -0.00000000000E+00 -0.00000000000E+00 -0.29411731183E+02  0.29411731183E+02  0.00000000000E+00 0.  1.
         25    1    1    2    0    0  0.00000000000E+00  0.00000000000E+00  0.10340092019E+03  0.16222438256E+03  0.12500000000E+03 0.  0.
<mgrwt>
<rscale>  0 0.12500000E+03</rscale>
<asrwt>0</asrwt>
<pdfrwt beam="1">  1       21 0.20432715E-01 0.12500000E+03</pdfrwt>
<pdfrwt beam="2">  1       21 0.45248818E-02 0.12500000E+03</pdfrwt>
<totfact> 0.69248717E+06</totfact>
</mgrwt>
</event>
<event>
 3    1  0.1597250E-001  0.1250000E+03  0.7546771E-02  0.1235069E+00
         21   -1    0    0  502  501  0.00000000000E+00  0.00000000000E+00  0.36555401189E+01  0.36555401189E+01  0.00000000000E+00 0.  1.
         21   -1    0    0  501  502 -0.00000000000E+00 -0.00000000000E+00 -0.10685835398E+04  0.10685835398E+04  0.00000000000E+00 0.  1.
         25    1    1    2    0    0  0.00000000000E+00  0.00000000000E+00 -0.10649279996E+04  0.10722390799E+04  0.12500000000E+03 0.  0.
<mgrwt>
<rscale>  0 0.12500000E+03</rscale>
<asrwt>0</asrwt>
<pdfrwt beam="1">  1       21 0.56239100E-03 0.12500000E+03</pdfrwt>
<pdfrwt beam="2">  1       21 0.16439741E+00 0.12500000E+03</pdfrwt>
<totfact> 0.21879618E+06</totfact>
</mgrwt>
</event>
<event>
 3    1  0.1597250E-001  0.1250000E+03  0.7546771E-02  0.1235069E+00
         21   -1    0    0  502  501  0.00000000000E+00  0.00000000000E+00  0.30293557958E+03  0.30293557958E+03  0.00000000000E+00 0. -1.
         21   -1    0    0  501  502 -0.00000000000E+00 -0.00000000000E+00 -0.12894655707E+02  0.12894655707E+02  0.00000000000E+00 0. -1.
         25    1    1    2    0    0  0.00000000000E+00  0.00000000000E+00  0.29004092387E+03  0.31583023529E+03  0.12500000000E+03 0.  0.
<mgrwt>
<rscale>  0 0.12500000E+03</rscale>
<asrwt>0</asrwt>
<pdfrwt beam="1">  1       21 0.46605468E-01 0.12500000E+03</pdfrwt>
<pdfrwt beam="2">  1       21 0.19837934E-02 0.12500000E+03</pdfrwt>
<totfact> 0.54165441E+06</totfact>
</mgrwt>
</event>
<event>
 3    1  0.1597250E-001  0.1250000E+03  0.7546771E-02  0.1235069E+00
         21   -1    0    0  502  501  0.00000000000E+00  0.00000000000E+00  0.35317499775E+02  0.35317499775E+02  0.00000000000E+00 0. -1.
         21   -1    0    0  501  502 -0.00000000000E+00 -0.00000000000E+00 -0.11060380902E+03  0.11060380902E+03  0.00000000000E+00 0. -1.
         25    1    1    2    0    0  0.00000000000E+00  0.00000000000E+00 -0.75286309241E+02  0.14592130879E+03  0.12500000000E+03 0.  0.
<mgrwt>
<rscale>  0 0.12500000E+03</rscale>
<asrwt>0</asrwt>
<pdfrwt beam="1">  1       21 0.54334615E-02 0.12500000E+03</pdfrwt>
<pdfrwt beam="2">  1       21 0.17015971E-01 0.12500000E+03</pdfrwt>
<totfact> 0.71275402E+06</totfact>
</mgrwt>
</event>
<event>
 3    1  0.1597250E-001  0.1250000E+03  0.7546771E-02  0.1235069E+00
         21   -1    0    0  502  501  0.00000000000E+00  0.00000000000E+00  0.21747736879E+03  0.21747736879E+03  0.00000000000E+00 0. -1.
         21   -1    0    0  501  502 -0.00000000000E+00 -0.00000000000E+00 -0.17961639052E+02  0.17961639052E+02  0.00000000000E+00 0. -1.
         25    1    1    2    0    0  0.00000000000E+00  0.00000000000E+00  0.19951572973E+03  0.23543900784E+03  0.12500000000E+03 0.  0.
<mgrwt>
<rscale>  0 0.12500000E+03</rscale>
<asrwt>0</asrwt>
<pdfrwt beam="1">  1       21 0.33458055E-01 0.12500000E+03</pdfrwt>
<pdfrwt beam="2">  1       21 0.27633292E-02 0.12500000E+03</pdfrwt>
<totfact> 0.61276833E+06</totfact>
</mgrwt>
</event>
<event>
 3    1  0.1597250E-001  0.1250000E+03  0.7546771E-02  0.1235069E+00
         21   -1    0    0  502  501  0.00000000000E+00  0.00000000000E+00  0.40305977918E+03  0.40305977918E+03  0.00000000000E+00 0. -1.
         21   -1    0    0  501  502 -0.00000000000E+00 -0.00000000000E+00 -0.96914904483E+01  0.96914904483E+01  0.00000000000E+00 0. -1.
         25    1    1    2    0    0  0.00000000000E+00  0.00000000000E+00  0.39336828873E+03  0.41275126963E+03  0.12500000000E+03 0.  0.
<mgrwt>
<rscale>  0 0.12500000E+03</rscale>
<asrwt>0</asrwt>
<pdfrwt beam="1">  1       21 0.62009184E-01 0.12500000E+03</pdfrwt>
<pdfrwt beam="2">  1       21 0.14909988E-02 0.12500000E+03</pdfrwt>
<totfact> 0.47206921E+06</totfact>
</mgrwt>
</event>
<event>
 3    1  0.1597250E-001  0.1250000E+03  0.7546771E-02  0.1235069E+00
         21   -1    0    0  502  501  0.00000000000E+00  0.00000000000E+00  0.14155593838E+02  0.14155593838E+02  0.00000000000E+00 0. -1.
         21   -1    0    0  501  502 -0.00000000000E+00 -0.00000000000E+00 -0.27595098056E+03  0.27595098056E+03  0.00000000000E+00 0. -1.
         25    1    1    2    0    0  0.00000000000E+00  0.00000000000E+00 -0.26179538672E+03  0.29010657440E+03  0.12500000000E+03 0.  0.
<mgrwt>
<rscale>  0 0.12500000E+03</rscale>
<asrwt>0</asrwt>
<pdfrwt beam="1">  1       21 0.21777836E-02 0.12500000E+03</pdfrwt>
<pdfrwt beam="2">  1       21 0.42453998E-01 0.12500000E+03</pdfrwt>
<totfact> 0.56288509E+06</totfact>
</mgrwt>
</event>
<event>
 3    1  0.1597250E-001  0.1250000E+03  0.7546771E-02  0.1235069E+00
         21   -1    0    0  502  501  0.00000000000E+00  0.00000000000E+00  0.10173301525E+04  0.10173301525E+04  0.00000000000E+00 0. -1.
         21   -1    0    0  501  502 -0.00000000000E+00 -0.00000000000E+00 -0.38397072871E+01  0.38397072871E+01  0.00000000000E+00 0. -1.
         25    1    1    2    0    0  0.00000000000E+00  0.00000000000E+00  0.10134904452E+04  0.10211698598E+04  0.12500000000E+03 0.  0.
<mgrwt>
<rscale>  0 0.12500000E+03</rscale>
<asrwt>0</asrwt>
<pdfrwt beam="1">  1       21 0.15651212E+00 0.12500000E+03</pdfrwt>
<pdfrwt beam="2">  1       21 0.59072501E-03 0.12500000E+03</pdfrwt>
<totfact> 0.23094709E+06</totfact>
</mgrwt>
</event>
<event>
 3    1  0.1597250E-001  0.1250000E+03  0.7546771E-02  0.1235069E+00
         21   -1    0    0  502  501  0.00000000000E+00  0.00000000000E+00  0.17187052394E+01  0.17187052394E+01  0.00000000000E+00 0.  1.
         21   -1    0    0  501  502 -0.00000000000E+00 -0.00000000000E+00 -0.22727864618E+04  0.22727864618E+04  0.00000000000E+00 0.  1.
         25    1    1    2    0    0  0.00000000000E+00  0.00000000000E+00 -0.22710677566E+04  0.22745051670E+04  0.12500000000E+03 0.  0.
<mgrwt>
<rscale>  0 0.12500000E+03</rscale>
<asrwt>0</asrwt>
<pdfrwt beam="1">  1       21 0.26441495E-03 0.12500000E+03</pdfrwt>
<pdfrwt beam="2">  1       21 0.34966110E+00 0.12500000E+03</pdfrwt>
<totfact> 0.55675061E+05</totfact>
</mgrwt>
</event>
<event>
 3    1  0.1597250E-001  0.1250000E+03  0.7546771E-02  0.1235069E+00
         21   -1    0    0  502  501  0.00000000000E+00  0.00000000000E+00  0.18067860128E+02  0.18067860128E+02  0.00000000000E+00 0.  1.
         21   -1    0    0  501  502 -0.00000000000E+00 -0.00000000000E+00 -0.21619881780E+03  0.21619881780E+03  0.00000000000E+00 0.  1.
         25    1    1    2    0    0  0.00000000000E+00  0.00000000000E+00 -0.19813095768E+03  0.23426667793E+03  0.12500000000E+03 0.  0.
<mgrwt>
<rscale>  0 0.12500000E+03</rscale>
<asrwt>0</asrwt>
<pdfrwt beam="1">  1       21 0.27796706E-02 0.12500000E+03</pdfrwt>
<pdfrwt beam="2">  1       21 0.33261359E-01 0.12500000E+03</pdfrwt>
<totfact> 0.61391915E+06</totfact>
</mgrwt>
</event>
<event>
 3    1  0.1597250E-001  0.1250000E+03  0.7546771E-02  0.1235069E+00
         21   -1    0    0  502  501  0.00000000000E+00  0.00000000000E+00  0.11791227405E+03  0.11791227405E+03  0.00000000000E+00 0.  1.
         21   -1    0    0  501  502 -0.00000000000E+00 -0.00000000000E+00 -0.33128442577E+02  0.33128442577E+02  0.00000000000E+00 0.  1.
         25    1    1    2    0    0  0.00000000000E+00  0.00000000000E+00  0.84783831472E+02  0.15104071663E+03  0.12500000000E+03 0.  0.
<mgrwt>
<rscale>  0 0.12500000E+03</rscale>
<asrwt>0</asrwt>
<pdfrwt beam="1">  1       21 0.18140350E-01 0.12500000E+03</pdfrwt>
<pdfrwt beam="2">  1       21 0.50966835E-02 0.12500000E+03</pdfrwt>
<totfact> 0.70628712E+06</totfact>
</mgrwt>
</event>
<event>
 3    1  0.1597250E-001  0.1250000E+03  0.7546771E-02  0.1235069E+00
         21   -1    0    0  502  501  0.00000000000E+00  0.00000000000E+00  0.40051881157E+02  0.40051881157E+02  0.00000000000E+00 0.  1.
         21   -1    0    0  501  502 -0.00000000000E+00 -0.00000000000E+00 -0.97529751091E+02  0.97529751091E+02  0.00000000000E+00 0.  1.
         25    1    1    2    0    0  0.00000000000E+00  0.00000000000E+00 -0.57477869934E+02  0.13758163225E+03  0.12500000000E+03 0.  0.
<mgrwt>
<rscale>  0 0.12500000E+03</rscale>
<asrwt>0</asrwt>
<pdfrwt beam="1">  1       21 0.61618279E-02 0.12500000E+03</pdfrwt>
<pdfrwt beam="2">  1       21 0.15004577E-01 0.12500000E+03</pdfrwt>
<totfact> 0.72356416E+06</totfact>
</mgrwt>
</event>
<event>
 3    1  0.1597250E-001  0.1250000E+03  0.7546771E-02  0.1235069E+00
         21   -1    0    0  502  501  0.00000000000E+00  0.00000000000E+00  0.44335863270E+03  0.44335863270E+03  0.00000000000E+00 0. -1.
         21   -1    0    0  501  502 -0.00000000000E+00 -0.00000000000E+00 -0.88105874384E+01  0.88105874384E+01  0.00000000000E+00 0. -1.
         25    1    1    2    0    0  0.00000000000E+00  0.00000000000E+00  0.43454804527E+03  0.45216922014E+03  0.12500000000E+03 0.  0.
<mgrwt>
<rscale>  0 0.12500000E+03</rscale>
<asrwt>0</asrwt>
<pdfrwt beam="1">  1       21 0.68209003E-01 0.12500000E+03</pdfrwt>
<pdfrwt beam="2">  1       21 0.13554753E-02 0.12500000E+03</pdfrwt>
<totfact> 0.44762758E+06</totfact>
</mgrwt>
</event>
<event>
 3    1  0.1597250E-001  0.1250000E+03  0.7546771E-02  0.1235069E+00
         21   -1    0    0  502  501  0.00000000000E+00  0.00000000000E+00  0.19560377345E+03  0.19560377345E+03  0.00000000000E+00 0.  1.
         21   -1    0    0  501  502 -0.00000000000E+00 -0.00000000000E+00 -0.19970218014E+02  0.19970218014E+02  0.00000000000E+00 0.  1.
         25    1    1    2    0    0  0.00000000000E+00  0.00000000000E+00  0.17563355543E+03  0.21557399146E+03  0.12500000000E+03 0.  0.
<mgrwt>
<rscale>  0 0.12500000E+03</rscale>
<asrwt>0</asrwt>
<pdfrwt beam="1">  1       21 0.30092887E-01 0.12500000E+03</pdfrwt>
<pdfrwt beam="2">  1       21 0.30723414E-02 0.12500000E+03</pdfrwt>
<totfact> 0.63277819E+06</totfact>
</mgrwt>
</event>
<event>
 3    1  0.1597250E-001  0.1250000E+03  0.7546771E-02  0.1235069E+00
         21   -1    0    0  502  501  0.00000000000E+00  0.00000000000E+00  0.24132036203E+03  0.24132036203E+03  0.00000000000E+00 0.  1.
         21   -1    0    0  501  502 -0.00000000000E+00 -0.00000000000E+00 -0.16186988811E+02  0.16186988811E+02  0.00000000000E+00 0.  1.
         25    1    1    2    0    0  0.00000000000E+00  0.00000000000E+00  0.22513337321E+03  0.25750735084E+03  0.12500000000E+03 0.  0.
<mgrwt>
<rscale>  0 0.12500000E+03</rscale>
<asrwt>0</asrwt>
<pdfrwt beam="1">  1       21 0.37126207E-01 0.12500000E+03</pdfrwt>
<pdfrwt beam="2">  1       21 0.24903062E-02 0.12500000E+03</pdfrwt>
<totfact> 0.59178497E+06</totfact>
</mgrwt>
</event>
<event>
 3    1  0.1597250E-001  0.1250000E+03  0.7546771E-02  0.1235069E+00
         21   -1    0    0  502  501  0.00000000000E+00  0.00000000000E+00  0.21427034539E+03  0.21427034539E+03  0.00000000000E+00 0.  1.
         21   -1    0    0  501  502 -0.00000000000E+00 -0.00000000000E+00 -0.18230474184E+02  0.18230474184E+02  0.00000000000E+00 0.  1.
         25    1    1    2    0    0  0.00000000000E+00  0.00000000000E+00  0.19603987120E+03  0.23250081957E+03  0.12500000000E+03 0.  0.
<mgrwt>
<rscale>  0 0.12500000E+03</rscale>
<asrwt>0</asrwt>
<pdfrwt beam="1">  1       21 0.32964667E-01 0.12500000E+03</pdfrwt>
<pdfrwt beam="2">  1       21 0.28046885E-02 0.12500000E+03</pdfrwt>
<totfact> 0.61565982E+06</totfact>
</mgrwt>
</event>
<event>
 3    1  0.1597250E-001  0.1250000E+03  0.7546771E-02  0.1235069E+00
         21   -1    0    0  502  501  0.00000000000E+00  0.00000000000E+00  0.93131551698E+02  0.93131551698E+02  0.00000000000E+00 0. -1.
         21   -1    0    0  501  502 -0.00000000000E+00 -0.00000000000E+00 -0.41943357850E+02  0.41943357850E+02  0.00000000000E+00 0. -1.
         25    1    1    2    0    0  0.00000000000E+00  0.00000000000E+00  0.51188193848E+02  0.13507490955E+03  0.12500000000E+03 0.  0.
<mgrwt>
<rscale>  0 0.12500000E+03</rscale>
<asrwt>0</asrwt>
<pdfrwt beam="1">  1       21 0.14327931E-01 0.12500000E+03</pdfrwt>
<pdfrwt beam="2">  1       21 0.64528243E-02 0.12500000E+03</pdfrwt>
<totfact> 0.72686555E+06</totfact>
</mgrwt>
</event>
<event>
 3    1  0.1597250E-001  0.1250000E+03  0.7546771E-02  0.1235069E+00
         21   -1    0    0  502  501  0.00000000000E+00  0.00000000000E+00  0.25040918141E+02  0.25040918141E+02  0.00000000000E+00 0.  1.
         21   -1    0    0  501  502 -0.00000000000E+00 -0.00000000000E+00 -0.15599467951E+03  0.15599467951E+03  0.00000000000E+00 0.  1.
         25    1    1    2    0    0  0.00000000000E+00  0.00000000000E+00 -0.13095376137E+03  0.18103559765E+03  0.12500000000E+03 0.  0.
<mgrwt>
<rscale>  0 0.12500000E+03</rscale>
<asrwt>0</asrwt>
<pdfrwt beam="1">  1       21 0.38524490E-02 0.12500000E+03</pdfrwt>
<pdfrwt beam="2">  1       21 0.23999181E-01 0.12500000E+03</pdfrwt>
<totfact> 0.67032934E+06</totfact>
</mgrwt>
</event>
<event>
 3    1  0.1597250E-001  0.1250000E+03  0.7546771E-02  0.1235069E+00
         21   -1    0    0  502  501  0.00000000000E+00  0.00000000000E+00  0.29225593197E+03  0.29225593197E+03  0.00000000000E+00 0.  1.
         21   -1    0    0  501  502 -0.00000000000E+00 -0.00000000000E+00 -0.13365853599E+02  0.13365853599E+02  0.00000000000E+00 0.  1.
         25    1    1    2    0    0  0.00000000000E+00  0.00000000000E+00  0.27889007837E+03  0.30562178556E+03  0.12500000000E+03 0.  0.
<mgrwt>
<rscale>  0 0.12500000E+03</rscale>
<asrwt>0</asrwt>
<pdfrwt beam="1">  1       21 0.44962446E-01 0.12500000E+03</pdfrwt>
<pdfrwt beam="2">  1       21 0.20562854E-02 0.12500000E+03</pdfrwt>
<totfact> 0.54992196E+06</totfact>
</mgrwt>
</event>
<event>
 3    1  0.1597250E-001  0.1250000E+03  0.7546771E-02  0.1235069E+00
         21   -1    0    0  502  501  0.00000000000E+00  0.00000000000E+00  0.72977773527E+03  0.72977773527E+03  0.00000000000E+00 0. -1.
         21   -1    0    0  501  502 -0.00000000000E+00 -0.00000000000E+00 -0.53526571327E+01  0.53526571327E+01  0.00000000000E+00 0. -1.
         25    1    1    2    0    0  0.00000000000E+00  0.00000000000E+00  0.72442507814E+03  0.73513039241E+03  0.12500000000E+03 0.  0.
<mgrwt>
<rscale>  0 0.12500000E+03</rscale>
<asrwt>0</asrwt>
<pdfrwt beam="1">  1       21 0.11227342E+00 0.12500000E+03</pdfrwt>
<pdfrwt beam="2">  1       21 0.82348629E-03 0.12500000E+03</pdfrwt>
<totfact> 0.31598909E+06</totfact>
</mgrwt>
</event>
<event>
 3    1  0.1597250E-001  0.1250000E+03  0.7546771E-02  0.1235069E+00
         21   -1    0    0  502  501  0.00000000000E+00  0.00000000000E+00  0.12738211337E+02  0.12738211337E+02  0.00000000000E+00 0. -1.
         21   -1    0    0  501  502 -0.00000000000E+00 -0.00000000000E+00 -0.30665608355E+03  0.30665608355E+03  0.00000000000E+00 0. -1.
         25    1    1    2    0    0  0.00000000000E+00  0.00000000000E+00 -0.29391787222E+03  0.31939429489E+03  0.12500000000E+03 0.  0.
<mgrwt>
<rscale>  0 0.12500000E+03</rscale>
<asrwt>0</asrwt>
<pdfrwt beam="1">  1       21 0.19597246E-02 0.12500000E+03</pdfrwt>
<pdfrwt beam="2">  1       21 0.47177864E-01 0.12500000E+03</pdfrwt>
<totfact> 0.53881374E+06</totfact>
</mgrwt>
</event>
<event>
 3    1  0.1597250E-001  0.1250000E+03  0.7546771E-02  0.1235069E+00
         21   -1    0    0  502  501  0.00000000000E+00  0.00000000000E+00  0.16596450313E+02  0.16596450313E+02  0.00000000000E+00 0. -1.
         21   -1    0    0  501  502 -0.00000000000E+00 -0.00000000000E+00 -0.23536659504E+03  0.23536659504E+03  0.00000000000E+00 0. -1.
         25    1    1    2    0    0  0.00000000000E+00  0.00000000000E+00 -0.21877014473E+03  0.25196304535E+03  0.12500000000E+03 0.  0.
<mgrwt>
<rscale>  0 0.12500000E+03</rscale>
<asrwt>0</asrwt>
<pdfrwt beam="1">  1       21 0.25533002E-02 0.12500000E+03</pdfrwt>
<pdfrwt beam="2">  1       21 0.36210244E-01 0.12500000E+03</pdfrwt>
<totfact> 0.59693863E+06</totfact>
</mgrwt>
</event>
<event>
 3    1  0.1597250E-001  0.1250000E+03  0.7546771E-02  0.1235069E+00
         21   -1    0    0  502  501  0.00000000000E+00  0.00000000000E+00  0.16249125151E+03  0.16249125151E+03  0.00000000000E+00 0. -1.
         21   -1    0    0  501  502 -0.00000000000E+00 -0.00000000000E+00 -0.24039755763E+02  0.24039755763E+02  0.00000000000E+00 0. -1.
         25    1    1    2    0    0  0.00000000000E+00  0.00000000000E+00  0.13845149575E+03  0.18653100728E+03  0.12500000000E+03 0.  0.
<mgrwt>
<rscale>  0 0.12500000E+03</rscale>
<asrwt>0</asrwt>
<pdfrwt beam="1">  1       21 0.24998653E-01 0.12500000E+03</pdfrwt>
<pdfrwt beam="2">  1       21 0.36984241E-02 0.12500000E+03</pdfrwt>
<totfact> 0.66410102E+06</totfact>
</mgrwt>
</event>
<event>
 3    1  0.1597250E-001  0.1250000E+03  0.7546771E-02  0.1235069E+00
         21   -1    0    0  502  501  0.00000000000E+00  0.00000000000E+00  0.16274638344E+02  0.16274638344E+02  0.00000000000E+00 0.  1.
         21   -1    0    0  501  502 -0.00000000000E+00 -0.00000000000E+00 -0.24002069462E+03  0.24002069462E+03  0.00000000000E+00 0.  1.
         25    1    1    2    0    0  0.00000000000E+00  0.00000000000E+00 -0.22374605627E+03  0.25629533296E+03  0.12500000000E+03 0.  0.
<mgrwt>
<rscale>  0 0.12500000E+03</rscale>
<asrwt>0</asrwt>
<pdfrwt beam="1">  1       21 0.25037906E-02 0.12500000E+03</pdfrwt>
<pdfrwt beam="2">  1       21 0.36926259E-01 0.12500000E+03</pdfrwt>
<totfact> 0.59290505E+06</totfact>
</mgrwt>
</event>
<event>
 3    1  0.1597250E-001  0.1250000E+03  0.7546771E-02  0.1235069E+00
         21   -1    0    0  502  501  0.00000000000E+00  0.00000000000E+00  0.37526303255E+01  0.37526303255E+01  0.00000000000E+00 0.  1.
         21   -1    0    0  501  502 -0.00000000000E+00 -0.00000000000E+00 -0.10409365328E+04  0.10409365328E+04  0.00000000000E+00 0.  1.
         25    1    1    2    0    0  0.00000000000E+00  0.00000000000E+00 -0.10371839025E+04  0.10446891631E+04  0.12500000000E+03 0.  0.
<mgrwt>
<rscale>  0 0.12500000E+03</rscale>
<asrwt>0</asrwt>
<pdfrwt beam="1">  1       21 0.57732853E-03 0.12500000E+03</pdfrwt>
<pdfrwt beam="2">  1       21 0.16014386E+00 0.12500000E+03</pdfrwt>
<totfact> 0.22525284E+06</totfact>
</mgrwt>
</event>
<event>
 3    1  0.1597250E-001  0.1250000E+03  0.7546771E-02  0.1235069E+00
         21   -1    0    0  502  501  0.00000000000E+00  0.00000000000E+00  0.13942081747E+02  0.13942081747E+02  0.00000000000E+00 0. -1.
         21   -1    0    0  501  502 -0.00000000000E+00 -0.00000000000E+00 -0.28017695426E+03  0.28017695426E+03  0.00000000000E+00 0. -1.
         25    1    1    2    0    0  0.00000000000E+00  0.00000000000E+00 -0.26623487251E+03  0.29411903601E+03  0.12500000000E+03 0.  0.
<mgrwt>
<rscale>  0 0.12500000E+03</rscale>
<asrwt>0</asrwt>
<pdfrwt beam="1">  1       21 0.21449356E-02 0.12500000E+03</pdfrwt>
<pdfrwt beam="2">  1       21 0.43104148E-01 0.12500000E+03</pdfrwt>
<totfact> 0.55948472E+06</totfact>
</mgrwt>
</event>
<event>
 3    1  0.1597250E-001  0.1250000E+03  0.7546771E-02  0.1235069E+00
         21   -1    0    0  502  501  0.00000000000E+00  0.00000000000E+00  0.15441657437E+02  0.15441657437E+02  0.00000000000E+00 0. -1.
         21   -1    0    0  501  502 -0.00000000000E+00 -0.00000000000E+00 -0.25296831094E+03  0.25296831094E+03  0.00000000000E+00 0. -1.
         25    1    1    2    0    0  0.00000000000E+00  0.00000000000E+00 -0.23752665351E+03  0.26840996838E+03  0.12500000000E+03 0.  0.
<mgrwt>
<rscale>  0 0.12500000E+03</rscale>
<asrwt>0</asrwt>
<pdfrwt beam="1">  1       21 0.23756397E-02 0.12500000E+03</pdfrwt>
<pdfrwt beam="2">  1       21 0.38918200E-01 0.12500000E+03</pdfrwt>
<totfact> 0.58186924E+06</totfact>
</mgrwt>
</event>
<event>
 3    1  0.1597250E-001  0.1250000E+03  0.7546771E-02  0.1235069E+00
         21   -1    0    0  502  501  0.00000000000E+00  0.00000000000E+00  0.40473378097E+03  0.40473378097E+03  0.00000000000E+00 0. -1.
         21   -1    0    0  501  502 -0.00000000000E+00 -0.00000000000E+00 -0.96514058962E+01  0.96514058962E+01  0.00000000000E+00 0. -1.
         25    1    1    2    0    0  0.00000000000E+00  0.00000000000E+00  0.39508237507E+03  0.41438518686E+03  0.12500000000E+03 0.  0.
<mgrwt>
<rscale>  0 0.12500000E+03</rscale>
<asrwt>0</asrwt>
<pdfrwt beam="1">  1       21 0.62266722E-01 0.12500000E+03</pdfrwt>
<pdfrwt beam="2">  1       21 0.14848320E-02 0.12500000E+03</pdfrwt>
<totfact> 0.47101613E+06</totfact>
</mgrwt>
</event>
<event>
 3    1  0.1597250E-001  0.1250000E+03  0.7546771E-02  0.1235069E+00
         21   -1    0    0  502  501  0.00000000000E+00  0.00000000000E+00  0.67058737638E+02  0.67058737638E+02  0.00000000000E+00 0.  1.
         21   -1    0    0  501  502 -0.00000000000E+00 -0.00000000000E+00 -0.58251171101E+02  0.58251171101E+02  0.00000000000E+00 0.  1.
         25    1    1    2    0    0  0.00000000000E+00  0.00000000000E+00  0.88075665367E+01  0.12530990874E+03  0.12500000000E+03 0.  0.
<mgrwt>
<rscale>  0 0.12500000E+03</rscale>
<asrwt>0</asrwt>
<pdfrwt beam="1">  1       21 0.10316729E-01 0.12500000E+03</pdfrwt>
<pdfrwt beam="2">  1       21 0.89617186E-02 0.12500000E+03</pdfrwt>
<totfact> 0.74001734E+06</totfact>
</mgrwt>
</event>
<event>
 3    1  0.1597250E-001  0.1250000E+03  0.7546771E-02  0.1235069E+00
         21   -1    0    0  502  501  0.00000000000E+00  0.00000000000E+00  0.44426130980E+03  0.44426130980E+03  0.00000000000E+00 0. -1.
         21   -1    0    0  501  502 -0.00000000000E+00 -0.00000000000E+00 -0.87926855521E+01  0.87926855521E+01  0.00000000000E+00 0. -1.
         25    1    1    2    0    0  0.00000000000E+00  0.00000000000E+00  0.43546862424E+03  0.45305399535E+03  0.12500000000E+03 0.  0.
<mgrwt>
<rscale>  0 0.12500000E+03</rscale>
<asrwt>0</asrwt>
<pdfrwt beam="1">  1       21 0.68347876E-01 0.12500000E+03</pdfrwt>
<pdfrwt beam="2">  1       21 0.13527212E-02 0.12500000E+03</pdfrwt>
<totfact> 0.44710094E+06</totfact>
</mgrwt>
</event>
<event>
 3    1  0.1597250E-001  0.1250000E+03  0.7546771E-02  0.1235069E+00
         21   -1    0    0  502  501  0.00000000000E+00  0.00000000000E+00  0.79156153717E+02  0.79156153717E+02  0.00000000000E+00 0. -1.
         21   -1    0    0  501  502 -0.00000000000E+00 -0.00000000000E+00 -0.49348658526E+02  0.49348658526E+02  0.00000000000E+00 0. -1.
         25    1    1    2    0    0  0.00000000000E+00  0.00000000000E+00  0.29807495192E+02  0.12850481224E+03  0.12500000000E+03 0.  0.
<mgrwt>
<rscale>  0 0.12500000E+03</rscale>
<asrwt>0</asrwt>
<pdfrwt beam="1">  1       21 0.12177870E-01 0.12500000E+03</pdfrwt>
<pdfrwt beam="2">  1       21 0.75921013E-02 0.12500000E+03</pdfrwt>
<totfact> 0.73565474E+06</totfact>
</mgrwt>
</event>
<event>
 3    1  0.1597250E-001  0.1250000E+03  0.7546771E-02  0.1235069E+00
         21   -1    0    0  502  501  0.00000000000E+00  0.00000000000E+00  0.50611091773E+02  0.50611091773E+02  0.00000000000E+00 0. -1.
         21   -1    0    0  501  502 -0.00000000000E+00 -0.00000000000E+00 -0.77181697986E+02  0.77181697986E+02  0.00000000000E+00 0. -1.
         25    1    1    2    0    0  0.00000000000E+00  0.00000000000E+00 -0.26570606213E+02  0.12779278976E+03  0.12500000000E+03 0.  0.
<mgrwt>
<rscale>  0 0.12500000E+03</rscale>
<asrwt>0</asrwt>
<pdfrwt beam="1">  1       21 0.77863218E-02 0.12500000E+03</pdfrwt>
<pdfrwt beam="2">  1       21 0.11874107E-01 0.12500000E+03</pdfrwt>
<totfact> 0.73661570E+06</totfact>
</mgrwt>
</event>
<event>
 3    1  0.1597250E-001  0.1250000E+03  0.7546771E-02  0.1235069E+00
         21   -1    0    0  502  501  0.00000000000E+00  0.00000000000E+00  0.48716202045E+03  0.48716202045E+03  0.00000000000E+00 0.  1.
         21   -1    0    0  501  502 -0.00000000000E+00 -0.00000000000E+00 -0.80183795863E+01  0.80183795863E+01  0.00000000000E+00 0.  1.
         25    1    1    2    0    0  0.00000000000E+00  0.00000000000E+00  0.47914364087E+03  0.49518040004E+03  0.12500000000E+03 0.  0.
<mgrwt>
<rscale>  0 0.12500000E+03</rscale>
<asrwt>0</asrwt>
<pdfrwt beam="1">  1       21 0.74947980E-01 0.12500000E+03</pdfrwt>
<pdfrwt beam="2">  1       21 0.12335972E-02 0.12500000E+03</pdfrwt>
<totfact> 0.42306668E+06</totfact>
</mgrwt>
</event>
<event>
 3    1  0.1597250E-001  0.1250000E+03  0.7546771E-02  0.1235069E+00
         21   -1    0    0  502  501  0.00000000000E+00  0.00000000000E+00  0.55903333812E+03  0.55903333812E+03  0.00000000000E+00 0.  1.
         21   -1    0    0  501  502 -0.00000000000E+00 -0.00000000000E+00 -0.69875081388E+01  0.69875081388E+01  0.00000000000E+00 0.  1.
         25    1    1    2    0    0  0.00000000000E+00  0.00000000000E+00  0.55204582998E+03  0.56602084626E+03  0.12500000000E+03 0.  0.
<mgrwt>
<rscale>  0 0.12500000E+03</rscale>
<asrwt>0</asrwt>
<pdfrwt beam="1">  1       21 0.86005094E-01 0.12500000E+03</pdfrwt>
<pdfrwt beam="2">  1       21 0.10750017E-02 0.12500000E+03</pdfrwt>
<totfact> 0.38675822E+06</totfact>
</mgrwt>
</event>
<event>
 3    1  0.1597250E-001  0.1250000E+03  0.7546771E-02  0.1235069E+00
         21   -1    0    0  502  501  0.00000000000E+00  0.00000000000E+00  0.56480312098E+02  0.56480312098E+02  0.00000000000E+00 0. -1.
         21   -1    0    0  501  502 -0.00000000000E+00 -0.00000000000E+00 -0.69161267970E+02  0.69161267970E+02  0.00000000000E+00 0. -1.
         25    1    1    2    0    0  0.00000000000E+00  0.00000000000E+00 -0.12680955872E+02  0.12564158007E+03  0.12500000000E+03 0.  0.
<mgrwt>
<rscale>  0 0.12500000E+03</rscale>
<asrwt>0</asrwt>
<pdfrwt beam="1">  1       21 0.86892787E-02 0.12500000E+03</pdfrwt>
<pdfrwt beam="2">  1       21 0.10640195E-01 0.12500000E+03</pdfrwt>
<totfact> 0.73955655E+06</totfact>
</mgrwt>
</event>
<event>
 3    1  0.1597250E-001  0.1250000E+03  0.7546771E-02  0.1235069E+00
         21   -1    0    0  502  501  0.00000000000E+00  0.00000000000E+00  0.15673915396E+03  0.15673915396E+03  0.00000000000E+00 0.  1.
         21   -1    0    0  501  502 -0.00000000000E+00 -0.00000000000E+00 -0.24921979616E+02  0.24921979616E+02  0.00000000000E+00 0.  1.
         25    1    1    2    0    0  0.00000000000E+00  0.00000000000E+00  0.13181717434E+03  0.18166113357E+03  0.12500000000E+03 0.  0.
<mgrwt>
<rscale>  0 0.12500000E+03</rscale>
<asrwt>0</asrwt>
<pdfrwt beam="1">  1       21 0.24113715E-01 0.12500000E+03</pdfrwt>
<pdfrwt beam="2">  1       21 0.38341508E-02 0.12500000E+03</pdfrwt>
<totfact> 0.66961486E+06</totfact>
</mgrwt>
</event>
<event>
 3    1  0.1597250E-001  0.1250000E+03  0.7546771E-02  0.1235069E+00
         21   -1    0    0  502  501  0.00000000000E+00  0.00000000000E+00  0.16934552926E+02  0.16934552926E+02  0.00000000000E+00 0.  1.
         21   -1    0    0  501  502 -0.00000000000E+00 -0.00000000000E+00 -0.23066744172E+03  0.23066744172E+03  0.00000000000E+00 0.  1.
         25    1    1    2    0    0  0.00000000000E+00  0.00000000000E+00 -0.21373288879E+03  0.24760199464E+03  0.12500000000E+03 0.  0.
<mgrwt>
<rscale>  0 0.12500000E+03</rscale>
<asrwt>0</asrwt>
<pdfrwt beam="1">  1       21 0.26053159E-02 0.12500000E+03</pdfrwt>
<pdfrwt beam="2">  1       21 0.35487297E-01 0.12500000E+03</pdfrwt>
<totfact> 0.60104696E+06</totfact>
</mgrwt>
</event>
<event>
 3    1  0.1597250E-001  0.1250000E+03  0.7546771E-02  0.1235069E+00
         21   -1    0    0  502  501  0.00000000000E+00  0.00000000000E+00  0.13735672027E+03  0.13735672027E+03  0.00000000000E+00 0.  1.
         21   -1    0    0  501  502 -0.00000000000E+00 -0.00000000000E+00 -0.28438725040E+02  0.28438725040E+02  0.00000000000E+00 0.  1.
         25    1    1    2    0    0  0.00000000000E+00  0.00000000000E+00  0.10891799523E+03  0.16579544531E+03  0.12500000000E+03 0.  0.
<mgrwt>
<rscale>  0 0.12500000E+03</rscale>
<asrwt>0</asrwt>
<pdfrwt beam="1">  1       21 0.21131803E-01 0.12500000E+03</pdfrwt>
<pdfrwt beam="2">  1       21 0.43751885E-02 0.12500000E+03</pdfrwt>
<totfact> 0.68818198E+06</totfact>
</mgrwt>
</event>
<event>
 3    1  0.1597250E-001  0.1250000E+03  0.7546771E-02  0.1235069E+00
         21   -1    0    0  502  501  0.00000000000E+00  0.00000000000E+00  0.10720029004E+03  0.10720029004E+03  0.00000000000E+00 0. -1.
         21   -1    0    0  501  502 -0.00000000000E+00 -0.00000000000E+00 -0.36438800664E+02  0.36438800664E+02  0.00000000000E+00 0. -1.
         25    1    1    2    0    0  0.00000000000E+00  0.00000000000E+00  0.70761489381E+02  0.14363909071E+03  0.12500000000E+03 0.  0.
<mgrwt>
<rscale>  0 0.12500000E+03</rscale>
<asrwt>0</asrwt>
<pdfrwt beam="1">  1       21 0.16492352E-01 0.12500000E+03</pdfrwt>
<pdfrwt beam="2">  1       21 0.56059694E-02 0.12500000E+03</pdfrwt>
<totfact> 0.71567720E+06</totfact>
</mgrwt>
</event>
<event>
 3    1  0.1597250E-001  0.1250000E+03  0.7546771E-02  0.1235069E+00
         21   -1    0    0  502  501  0.00000000000E+00  0.00000000000E+00  0.32127764345E+02  0.32127764345E+02  0.00000000000E+00 0.  1.
         21   -1    0    0  501  502 -0.00000000000E+00 -0.00000000000E+00 -0.12158486840E+03  0.12158486840E+03  0.00000000000E+00 0.  1.
         25    1    1    2    0    0  0.00000000000E+00  0.00000000000E+00 -0.89457104059E+02  0.15371263275E+03  0.12500000000E+03 0.  0.
<mgrwt>
<rscale>  0 0.12500000E+03</rscale>
<asrwt>0</asrwt>
<pdfrwt beam="1">  1       21 0.49427330E-02 0.12500000E+03</pdfrwt>
<pdfrwt beam="2">  1       21 0.18705364E-01 0.12500000E+03</pdfrwt>
<totfact> 0.70295882E+06</totfact>
</mgrwt>
</event>
<event>
 3    1  0.1597250E-001  0.1250000E+03  0.7546771E-02  0.1235069E+00
         21   -1    0    0  502  501  0.00000000000E+00  0.00000000000E+00  0.11846765278E+04  0.11846765278E+04  0.00000000000E+00 0. -1.
         21   -1    0    0  501  502 -0.00000000000E+00 -0.00000000000E+00 -0.32973135775E+01  0.32973135775E+01  0.00000000000E+00 0. -1.
         25    1    1    2    0    0  0.00000000000E+00  0.00000000000E+00  0.11813792142E+04  0.11879738414E+04  0.12500000000E+03 0.  0.
<mgrwt>
<rscale>  0 0.12500000E+03</rscale>
<asrwt>0</asrwt>
<pdfrwt beam="1">  1       21 0.18225759E+00 0.12500000E+03</pdfrwt>
<pdfrwt beam="2">  1       21 0.50727996E-03 0.12500000E+03</pdfrwt>
<totfact> 0.19384734E+06</totfact>
</mgrwt>
</event>
<event>
 3    1  0.1597250E-001  0.1250000E+03  0.7546771E-02  0.1235069E+00
         21   -1    0    0  502  501  0.00000000000E+00  0.00000000000E+00  0.13156205486E+02  0.13156205486E+02  0.00000000000E+00 0. -1.
         21   -1    0    0  501  502 -0.00000000000E+00 -0.00000000000E+00 -0.29691311863E+03  0.29691311863E+03  0.00000000000E+00 0. -1.
         25    1    1    2    0    0  0.00000000000E+00  0.00000000000E+00 -0.28375691314E+03  0.31006932411E+03  0.12500000000E+03 0.  0.
<mgrwt>
<rscale>  0 0.12500000E+03</rscale>
<asrwt>0</asrwt>
<pdfrwt beam="1">  1       21 0.20240320E-02 0.12500000E+03</pdfrwt>
<pdfrwt beam="2">  1       21 0.45678933E-01 0.12500000E+03</pdfrwt>
<totfact> 0.54629622E+06</totfact>
</mgrwt>
</event>
<event>
 3    1  0.1597250E-001  0.1250000E+03  0.7546771E-02  0.1235069E+00
         21   -1    0    0  502  501  0.00000000000E+00  0.00000000000E+00  0.26585017057E+03  0.26585017057E+03  0.00000000000E+00 0.  1.
         21   -1    0    0  501  502 -0.00000000000E+00 -0.00000000000E+00 -0.14693426721E+02  0.14693426721E+02  0.00000000000E+00 0.  1.
         25    1    1    2    0    0  0.00000000000E+00  0.00000000000E+00  0.25115674385E+03  0.28054359729E+03  0.12500000000E+03 0.  0.
<mgrwt>
<rscale>  0 0.12500000E+03</rscale>
<asrwt>0</asrwt>
<pdfrwt beam="1">  1       21 0.40900023E-01 0.12500000E+03</pdfrwt>
<pdfrwt beam="2">  1       21 0.22605274E-02 0.12500000E+03</pdfrwt>
<totfact> 0.57112857E+06</totfact>
</mgrwt>
</event>
<event>
 3    1  0.1597250E-001  0.1250000E+03  0.7546771E-02  0.1235069E+00
         21   -1    0    0  502  501  0.00000000000E+00  0.00000000000E+00  0.12935834474E+03  0.12935834474E+03  0.00000000000E+00 0.  1.
         21   -1    0    0  501  502 -0.00000000000E+00 -0.00000000000E+00 -0.30197124181E+02  0.30197124181E+02  0.00000000000E+00 0.  1.
         25    1    1    2    0    0  0.00000000000E+00  0.00000000000E+00  0.99161220558E+02  0.15955546892E+03  0.12500000000E+03 0.  0.
<mgrwt>
<rscale>  0 0.12500000E+03</rscale>
<asrwt>0</asrwt>
<pdfrwt beam="1">  1       21 0.19901283E-01 0.12500000E+03</pdfrwt>
<pdfrwt beam="2">  1       21 0.46457115E-02 0.12500000E+03</pdfrwt>
<totfact> 0.69573854E+06</totfact>
</mgrwt>
</event>
<event>
 3    1  0.1597250E-001  0.1250000E+03  0.7546771E-02  0.1235069E+00
         21   -1    0    0  502  501  0.00000000000E+00  0.00000000000E+00  0.19224302978E+03  0.19224302978E+03  0.00000000000E+00 0. -1.
         21   -1    0    0  501  502 -0.00000000000E+00 -0.00000000000E+00 -0.20319332277E+02  0.20319332277E+02  0.00000000000E+00 0. -1.
         25    1    1    2    0    0  0.00000000000E+00  0.00000000000E+00  0.17192369751E+03  0.21256236206E+03  0.12500000000E+03 0.  0.
<mgrwt>
<rscale>  0 0.12500000E+03</rscale>
<asrwt>0</asrwt>
<pdfrwt beam="1">  1       21 0.29575850E-01 0.12500000E+03</pdfrwt>
<pdfrwt beam="2">  1       21 0.31260512E-02 0.12500000E+03</pdfrwt>
<totfact> 0.63590951E+06</totfact>
</mgrwt>
</event>
<event>
 3    1  0.1597250E-001  0.1250000E+03  0.7546771E-02  0.1235069E+00
         21   -1    0    0  502  501  0.00000000000E+00  0.00000000000E+00  0.84245990118E+02  0.84245990118E+02  0.00000000000E+00 0. -1.
         21   -1    0    0  501  502 -0.00000000000E+00 -0.00000000000E+00 -0.46367192012E+02  0.46367192012E+02  0.00000000000E+00 0. -1.
         25    1    1    2    0    0  0.00000000000E+00  0.00000000000E+00  0.37878798106E+02  0.13061318213E+03  0.12500000000E+03 0.  0.
<mgrwt>
<rscale>  0 0.12500000E+03</rscale>
<asrwt>0</asrwt>
<pdfrwt beam="1">  1       21 0.12960922E-01 0.12500000E+03</pdfrwt>
<pdfrwt beam="2">  1       21 0.71334142E-02 0.12500000E+03</pdfrwt>
<totfact> 0.73282847E+06</totfact>
</mgrwt>
</event>
<event>
 3    1  0.1597250E-001  0.1250000E+03  0.7546771E-02  0.1235069E+00
         21   -1    0    0  502  501  0.00000000000E+00  0.00000000000E+00  0.34394067289E+02  0.34394067289E+02  0.00000000000E+00 0. -1.
         21   -1    0    0  501  502 -0.00000000000E+00 -0.00000000000E+00 -0.11357336622E+03  0.11357336622E+03  0.00000000000E+00 0. -1.
         25    1    1    2    0    0  0.00000000000E+00  0.00000000000E+00 -0.79179298931E+02  0.14796743351E+03  0.12500000000E+03 0.  0.
<mgrwt>
<rscale>  0 0.12500000E+03</rscale>
<asrwt>0</asrwt>
<pdfrwt beam="1">  1       21 0.52913949E-02 0.12500000E+03</pdfrwt>
<pdfrwt beam="2">  1       21 0.17472826E-01 0.12500000E+03</pdfrwt>
<totfact> 0.71015471E+06</totfact>
</mgrwt>
</event>
<event>
 3    1  0.1597250E-001  0.1250000E+03  0.7546771E-02  0.1235069E+00
         21   -1    0    0  502  501  0.00000000000E+00  0.00000000000E+00  0.31075688868E+01  0.31075688868E+01  0.00000000000E+00 0. -1.
         21   -1    0    0  501  502 -0.00000000000E+00 -0.00000000000E+00 -0.12570115554E+04  0.12570115554E+04  0.00000000000E+00 0. -1.
         25    1    1    2    0    0  0.00000000000E+00  0.00000000000E+00 -0.12539039865E+04  0.12601191243E+04  0.12500000000E+03 0.  0.
<mgrwt>
<rscale>  0 0.12500000E+03</rscale>
<asrwt>0</asrwt>
<pdfrwt beam="1">  1       21 0.47808866E-03 0.12500000E+03</pdfrwt>
<pdfrwt beam="2">  1       21 0.19338593E+00 0.12500000E+03</pdfrwt>
<totfact> 0.17983990E+06</totfact>
</mgrwt>
</event>
<event>
 3    1  0.1597250E-001  0.1250000E+03  0.7546771E-02  0.1235069E+00
         21   -1    0    0  502  501  0.00000000000E+00  0.00000000000E+00  0.11743803829E+03  0.11743803829E+03  0.00000000000E+00 0.  1.
         21   -1    0    0  501  502 -0.00000000000E+00 -0.00000000000E+00 -0.33262221141E+02  0.33262221141E+02  0.00000000000E+00 0.  1.
         25    1    1    2    0    0  0.00000000000E+00  0.00000000000E+00  0.84175817151E+02  0.15070025943E+03  0.12500000000E+03 0.  0.
<mgrwt>
<rscale>  0 0.12500000E+03</rscale>
<asrwt>0</asrwt>
<pdfrwt beam="1">  1       21 0.18067390E-01 0.12500000E+03</pdfrwt>
<pdfrwt beam="2">  1       21 0.51172649E-02 0.12500000E+03</pdfrwt>
<totfact> 0.70671347E+06</totfact>
</mgrwt>
</event>
<event>
 3    1  0.1597250E-001  0.1250000E+03  0.7546771E-02  0.1235069E+00
         21   -1    0    0  502  501  0.00000000000E+00  0.00000000000E+00  0.45082508470E+03  0.45082508470E+03  0.00000000000E+00 0.  1.
         21   -1    0    0  501  502 -0.00000000000E+00 -0.00000000000E+00 -0.86646686988E+01  0.86646686988E+01  0.00000000000E+00 0.  1.
         25    1    1    2    0    0  0.00000000000E+00  0.00000000000E+00  0.44216041600E+03  0.45948975340E+03  0.12500000000E+03 0.  0.
<mgrwt>
<rscale>  0 0.12500000E+03</rscale>
<asrwt>0</asrwt>
<pdfrwt beam="1">  1       21 0.69357687E-01 0.12500000E+03</pdfrwt>
<pdfrwt beam="2">  1       21 0.13330263E-02 0.12500000E+03</pdfrwt>
<totfact> 0.44329822E+06</totfact>
</mgrwt>
</event>
<event>
 3    1  0.1597250E-001  0.1250000E+03  0.7546771E-02  0.1235069E+00
         21   -1    0    0  502  501  0.00000000000E+00  0.00000000000E+00  0.17548275187E+01  0.17548275187E+01  0.00000000000E+00 0.  1.
         21   -1    0    0  501  502 -0.00000000000E+00 -0.00000000000E+00 -0.22260022471E+04  0.22260022471E+04  0.00000000000E+00 0.  1.
         25    1    1    2    0    0  0.00000000000E+00  0.00000000000E+00 -0.22242474196E+04  0.22277570747E+04  0.12500000000E+03 0.  0.
<mgrwt>
<rscale>  0 0.12500000E+03</rscale>
<asrwt>0</asrwt>
<pdfrwt beam="1">  1       21 0.26997443E-03 0.12500000E+03</pdfrwt>
<pdfrwt beam="2">  1       21 0.34246065E+00 0.12500000E+03</pdfrwt>
<totfact> 0.59328718E+05</totfact>
</mgrwt>
</event>
<event>
 3    1  0.1597250E-001  0.1250000E+03  0.7546771E-02  0.1235069E+00
         21   -1    0    0  502  501  0.00000000000E+00  0.00000000000E+00  0.37946676932E+02  0.37946676932E+02  0.00000000000E+00 0. -1.
         21   -1    0    0  501  502 -0.00000000000E+00 -0.00000000000E+00 -0.10294050272E+03  0.10294050272E+03  0.00000000000E+00 0. -1.
         25    1    1    2    0    0  0.00000000000E+00  0.00000000000E+00 -0.64993825791E+02  0.14088717965E+03  0.12500000000E+03 0.  0.
<mgrwt>
<rscale>  0 0.12500000E+03</rscale>
<asrwt>0</asrwt>
<pdfrwt beam="1">  1       21 0.58379503E-02 0.12500000E+03</pdfrwt>
<pdfrwt beam="2">  1       21 0.15837000E-01 0.12500000E+03</pdfrwt>
<totfact> 0.71923700E+06</totfact>
</mgrwt>
</event>
<event>
 3    1  0.1597250E-001  0.1250000E+03  0.7546771E-02  0.1235069E+00
         21   -1    0    0  502  501  0.00000000000E+00  0.00000000000E+00  0.19616736499E+02  0.19616736499E+02  0.00000000000E+00 0. -1.
         21   -1    0    0  501  502 -0.00000000000E+00 -0.00000000000E+00 -0.19912843302E+03  0.19912843302E+03  0.00000000000E+00 0. -1.
         25    1    1    2    0    0  0.00000000000E+00  0.00000000000E+00 -0.17951169653E+03  0.21874516952E+03  0.12500000000E+03 0.  0.
<mgrwt>
<rscale>  0 0.12500000E+03</rscale>
<asrwt>0</asrwt>
<pdfrwt beam="1">  1       21 0.30179594E-02 0.12500000E+03</pdfrwt>
<pdfrwt beam="2">  1       21 0.30635145E-01 0.12500000E+03</pdfrwt>
<totfact> 0.62951026E+06</totfact>
</mgrwt>
</event>
<event>
 3    1  0.1597250E-001  0.1250000E+03  0.7546771E-02  0.1235069E+00
         21   -1    0    0  502  501  0.00000000000E+00  0.00000000000E+00  0.10836013103E+03  0.10836013103E+03  0.00000000000E+00 0. -1.
         21   -1    0    0  501  502 -0.00000000000E+00 -0.00000000000E+00 -0.36048775163E+02  0.36048775163E+02  0.00000000000E+00 0. -1.
         25    1    1    2    0    0  0.00000000000E+00  0.00000000000E+00  0.72311355863E+02  0.14440890619E+03  0.12500000000E+03 0.  0.
<mgrwt>
<rscale>  0 0.12500000E+03</rscale>
<asrwt>0</asrwt>
<pdfrwt beam="1">  1       21 0.16670789E-01 0.12500000E+03</pdfrwt>
<pdfrwt beam="2">  1       21 0.55459655E-02 0.12500000E+03</pdfrwt>
<totfact> 0.71468830E+06</totfact>
</mgrwt>
</event>
<event>
 3    1  0.1597250E-001  0.1250000E+03  0.7546771E-02  0.1235069E+00
         21   -1    0    0  502  501  0.00000000000E+00  0.00000000000E+00  0.43218907024E+03  0.43218907024E+03  0.00000000000E+00 0.  1.
         21   -1    0    0  501  502 -0.00000000000E+00 -0.00000000000E+00 -0.90382896492E+01  0.90382896492E+01  0.00000000000E+00 0.  1.
         25    1    1    2    0    0  0.00000000000E+00  0.00000000000E+00  0.42315078059E+03  0.44122735988E+03  0.12500000000E+03 0.  0.
<mgrwt>
<rscale>  0 0.12500000E+03</rscale>
<asrwt>0</asrwt>
<pdfrwt beam="1">  1       21 0.66490610E-01 0.12500000E+03</pdfrwt>
<pdfrwt beam="2">  1       21 0.13905064E-02 0.12500000E+03</pdfrwt>
<totfact> 0.45421829E+06</totfact>
</mgrwt>
</event>
<event>
 3    1  0.1597250E-001  0.1250000E+03  0.7546771E-02  0.1235069E+00
         21   -1    0    0  502  501  0.00000000000E+00  0.00000000000E+00  0.12602959669E+02  0.12602959669E+02  0.00000000000E+00 0. -1.
         21   -1    0    0  501  502 -0.00000000000E+00 -0.00000000000E+00 -0.30994703646E+03  0.30994703646E+03  0.00000000000E+00 0. -1.
         25    1    1    2    0    0  0.00000000000E+00  0.00000000000E+00 -0.29734407679E+03  0.32254999613E+03  0.12500000000E+03 0.  0.
<mgrwt>
<rscale>  0 0.12500000E+03</rscale>
<asrwt>0</asrwt>
<pdfrwt beam="1">  1       21 0.19389170E-02 0.12500000E+03</pdfrwt>
<pdfrwt beam="2">  1       21 0.47684156E-01 0.12500000E+03</pdfrwt>
<totfact> 0.53631887E+06</totfact>
</mgrwt>
</event>
<event>
 3    1  0.1597250E-001  0.1250000E+03  0.7546771E-02  0.1235069E+00
         21   -1    0    0  502  501  0.00000000000E+00  0.00000000000E+00  0.18808971080E+02  0.18808971080E+02  0.00000000000E+00 0. -1.
         21   -1    0    0  501  502 -0.00000000000E+00 -0.00000000000E+00 -0.20768015344E+03  0.20768015344E+03  0.00000000000E+00 0. -1.
         25    1    1    2    0    0  0.00000000000E+00  0.00000000000E+00 -0.18887118236E+03  0.22648912452E+03  0.12500000000E+03 0.  0.
<mgrwt>
<rscale>  0 0.12500000E+03</rscale>
<asrwt>0</asrwt>
<pdfrwt beam="1">  1       21 0.28936877E-02 0.12500000E+03</pdfrwt>
<pdfrwt beam="2">  1       21 0.31950795E-01 0.12500000E+03</pdfrwt>
<totfact> 0.62165116E+06</totfact>
</mgrwt>
</event>
<event>
 3    1  0.1597250E-001  0.1250000E+03  0.7546771E-02  0.1235069E+00
         21   -1    0    0  502  501  0.00000000000E+00  0.00000000000E+00  0.28135469565E+02  0.28135469565E+02  0.00000000000E+00 0.  1.
         21   -1    0    0  501  502 -0.00000000000E+00 -0.00000000000E+00 -0.13883720657E+03  0.13883720657E+03  0.00000000000E+00 0.  1.
         25    1    1    2    0    0  0.00000000000E+00  0.00000000000E+00 -0.11070173701E+03  0.16697267614E+03  0.12500000000E+03 0.  0.
<mgrwt>
<rscale>  0 0.12500000E+03</rscale>
<asrwt>0</asrwt>
<pdfrwt beam="1">  1       21 0.43285338E-02 0.12500000E+03</pdfrwt>
<pdfrwt beam="2">  1       21 0.21359570E-01 0.12500000E+03</pdfrwt>
<totfact> 0.68677388E+06</totfact>
</mgrwt>
</event>
<event>
 3    1  0.1597250E-001  0.1250000E+03  0.7546771E-02  0.1235069E+00
         21   -1    0    0  502  501  0.00000000000E+00  0.00000000000E+00  0.13476882235E+02  0.13476882235E+02  0.00000000000E+00 0.  1.
         21   -1    0    0  501  502 -0.00000000000E+00 -0.00000000000E+00 -0.28984819574E+03  0.28984819574E+03  0.00000000000E+00 0.  1.
         25    1    1    2    0    0  0.00000000000E+00  0.00000000000E+00 -0.27637131350E+03  0.30332507797E+03  0.12500000000E+03 0.  0.
<mgrwt>
<rscale>  0 0.12500000E+03</rscale>
<asrwt>0</asrwt>
<pdfrwt beam="1">  1       21 0.20733665E-02 0.12500000E+03</pdfrwt>
<pdfrwt beam="2">  1       21 0.44592031E-01 0.12500000E+03</pdfrwt>
<totfact> 0.55180973E+06</totfact>
</mgrwt>
</event>
<event>
 3    1  0.1597250E-001  0.1250000E+03  0.7546771E-02  0.1235069E+00
         21   -1    0    0  502  501  0.00000000000E+00  0.00000000000E+00  0.65897509648E+02  0.65897509648E+02  0.00000000000E+00 0.  1.
         21   -1    0    0  501  502 -0.00000000000E+00 -0.00000000000E+00 -0.59277657394E+02  0.59277657394E+02  0.00000000000E+00 0.  1.
         25    1    1    2    0    0  0.00000000000E+00  0.00000000000E+00  0.66198522541E+01  0.12517516704E+03  0.12500000000E+03 0.  0.
<mgrwt>
<rscale>  0 0.12500000E+03</rscale>
<asrwt>0</asrwt>
<pdfrwt beam="1">  1       21 0.10138078E-01 0.12500000E+03</pdfrwt>
<pdfrwt beam="2">  1       21 0.91196396E-02 0.12500000E+03</pdfrwt>
<totfact> 0.74019925E+06</totfact>
</mgrwt>
</event>
<event>
 3    1  0.1597250E-001  0.1250000E+03  0.7546771E-02  0.1235069E+00
         21   -1    0    0  502  501  0.00000000000E+00  0.00000000000E+00  0.80491310021E+01  0.80491310021E+01  0.00000000000E+00 0.  1.
         21   -1    0    0  501  502 -0.00000000000E+00 -0.00000000000E+00 -0.48530083546E+03  0.48530083546E+03  0.00000000000E+00 0.  1.
         25    1    1    2    0    0  0.00000000000E+00  0.00000000000E+00 -0.47725170445E+03  0.49334996646E+03  0.12500000000E+03 0.  0.
<mgrwt>
<rscale>  0 0.12500000E+03</rscale>
<asrwt>0</asrwt>
<pdfrwt beam="1">  1       21 0.12383275E-02 0.12500000E+03</pdfrwt>
<pdfrwt beam="2">  1       21 0.74661689E-01 0.12500000E+03</pdfrwt>
<totfact> 0.42407020E+06</totfact>
</mgrwt>
</event>
<event>
 3    1  0.1597250E-001  0.1250000E+03  0.7546771E-02  0.1235069E+00
         21   -1    0    0  502  501  0.00000000000E+00  0.00000000000E+00  0.64315331988E+01  0.64315331988E+01  0.00000000000E+00 0.  1.
         21   -1    0    0  501  502 -0.00000000000E+00 -0.00000000000E+00 -0.60735906654E+03  0.60735906654E+03  0.00000000000E+00 0.  1.
         25    1    1    2    0    0  0.00000000000E+00  0.00000000000E+00 -0.60092753334E+03  0.61379059973E+03  0.12500000000E+03 0.  0.
<mgrwt>
<rscale>  0 0.12500000E+03</rscale>
<asrwt>0</asrwt>
<pdfrwt beam="1">  1       21 0.98946668E-03 0.12500000E+03</pdfrwt>
<pdfrwt beam="2">  1       21 0.93439853E-01 0.12500000E+03</pdfrwt>
<totfact> 0.36476304E+06</totfact>
</mgrwt>
</event>
<event>
 3    1  0.1597250E-001  0.1250000E+03  0.7546771E-02  0.1235069E+00
         21   -1    0    0  502  501  0.00000000000E+00  0.00000000000E+00  0.32437577870E+03  0.32437577870E+03  0.00000000000E+00 0.  1.
         21   -1    0    0  501  502 -0.00000000000E+00 -0.00000000000E+00 -0.12042360301E+02  0.12042360301E+02  0.00000000000E+00 0.  1.
         25    1    1    2    0    0  0.00000000000E+00  0.00000000000E+00  0.31233341840E+03  0.33641813900E+03  0.12500000000E+03 0.  0.
<mgrwt>
<rscale>  0 0.12500000E+03</rscale>
<asrwt>0</asrwt>
<pdfrwt beam="1">  1       21 0.49903959E-01 0.12500000E+03</pdfrwt>
<pdfrwt beam="2">  1       21 0.18526711E-02 0.12500000E+03</pdfrwt>
<totfact> 0.52557408E+06</totfact>
</mgrwt>
</event>
<event>
 3    1  0.1597250E-001  0.1250000E+03  0.7546771E-02  0.1235069E+00
         21   -1    0    0  502  501  0.00000000000E+00  0.00000000000E+00  0.11342603372E+04  0.11342603372E+04  0.00000000000E+00 0. -1.
         21   -1    0    0  501  502 -0.00000000000E+00 -0.00000000000E+00 -0.34438742781E+01  0.34438742781E+01  0.00000000000E+00 0. -1.
         25    1    1    2    0    0  0.00000000000E+00  0.00000000000E+00  0.11308164630E+04  0.11377042115E+04  0.12500000000E+03 0.  0.
<mgrwt>
<rscale>  0 0.12500000E+03</rscale>
<asrwt>0</asrwt>
<pdfrwt beam="1">  1       21 0.17450129E+00 0.12500000E+03</pdfrwt>
<pdfrwt beam="2">  1       21 0.52982772E-03 0.12500000E+03</pdfrwt>
<totfact> 0.20430704E+06</totfact>
</mgrwt>
</event>
<event>
 3    1  0.1597250E-001  0.1250000E+03  0.7546771E-02  0.1235069E+00
         21   -1    0    0  502  501  0.00000000000E+00  0.00000000000E+00  0.36527563819E+02  0.36527563819E+02  0.00000000000E+00 0. -1.
         21   -1    0    0  501  502 -0.00000000000E+00 -0.00000000000E+00 -0.10693978989E+03  0.10693978989E+03  0.00000000000E+00 0. -1.
         25    1    1    2    0    0  0.00000000000E+00  0.00000000000E+00 -0.70412226070E+02  0.14346735371E+03  0.12500000000E+03 0.  0.
<mgrwt>
<rscale>  0 0.12500000E+03</rscale>
<asrwt>0</asrwt>
<pdfrwt beam="1">  1       21 0.56196253E-02 0.12500000E+03</pdfrwt>
<pdfrwt beam="2">  1       21 0.16452275E-01 0.12500000E+03</pdfrwt>
<totfact> 0.71589822E+06</totfact>
</mgrwt>
</event>
<event>
 3    1  0.1597250E-001  0.1250000E+03  0.7546771E-02  0.1235069E+00
         21   -1    0    0  502  501  0.00000000000E+00  0.00000000000E+00  0.16363986362E+02  0.16363986362E+02  0.00000000000E+00 0.  1.
         21   -1    0    0  501  502 -0.00000000000E+00 -0.00000000000E+00 -0.23871017205E+03  0.23871017205E+03  0.00000000000E+00 0.  1.
         25    1    1    2    0    0  0.00000000000E+00  0.00000000000E+00 -0.22234618569E+03  0.25507415842E+03  0.12500000000E+03 0.  0.
<mgrwt>
<rscale>  0 0.12500000E+03</rscale>
<asrwt>0</asrwt>
<pdfrwt beam="1">  1       21 0.25175364E-02 0.12500000E+03</pdfrwt>
<pdfrwt beam="2">  1       21 0.36724641E-01 0.12500000E+03</pdfrwt>
<totfact> 0.59403727E+06</totfact>
</mgrwt>
</event>
<event>
 3    1  0.1597250E-001  0.1250000E+03  0.7546771E-02  0.1235069E+00
         21   -1    0    0  502  501  0.00000000000E+00  0.00000000000E+00  0.34326136797E+02  0.34326136797E+02  0.00000000000E+00 0.  1.
         21   -1    0    0  501  502 -0.00000000000E+00 -0.00000000000E+00 -0.11379812482E+03  0.11379812482E+03  0.00000000000E+00 0.  1.
         25    1    1    2    0    0  0.00000000000E+00  0.00000000000E+00 -0.79471988027E+02  0.14812426162E+03  0.12500000000E+03 0.  0.
<mgrwt>
<rscale>  0 0.12500000E+03</rscale>
<asrwt>0</asrwt>
<pdfrwt beam="1">  1       21 0.52809441E-02 0.12500000E+03</pdfrwt>
<pdfrwt beam="2">  1       21 0.17507404E-01 0.12500000E+03</pdfrwt>
<totfact> 0.70995630E+06</totfact>
</mgrwt>
</event>
<event>
 3    1  0.1597250E-001  0.1250000E+03  0.7546771E-02  0.1235069E+00
         21   -1    0    0  502  501  0.00000000000E+00  0.00000000000E+00  0.42481522483E+02  0.42481522483E+02  0.00000000000E+00 0. -1.
         21   -1    0    0  501  502 -0.00000000000E+00 -0.00000000000E+00 -0.91951742116E+02  0.91951742116E+02  0.00000000000E+00 0. -1.
         25    1    1    2    0    0  0.00000000000E+00  0.00000000000E+00 -0.49470219633E+02  0.13443326460E+03  0.12500000000E+03 0.  0.
<mgrwt>
<rscale>  0 0.12500000E+03</rscale>
<asrwt>0</asrwt>
<pdfrwt beam="1">  1       21 0.65356189E-02 0.12500000E+03</pdfrwt>
<pdfrwt beam="2">  1       21 0.14146422E-01 0.12500000E+03</pdfrwt>
<totfact> 0.72771599E+06</totfact>
</mgrwt>
</event>
<event>
 3    1  0.1597250E-001  0.1250000E+03  0.7546771E-02  0.1235069E+00
         21   -1    0    0  502  501  0.00000000000E+00  0.00000000000E+00  0.36574098083E+02  0.36574098083E+02  0.00000000000E+00 0. -1.
         21   -1    0    0  501  502 -0.00000000000E+00 -0.00000000000E+00 -0.10680372736E+03  0.10680372736E+03  0.00000000000E+00 0. -1.
         25    1    1    2    0    0  0.00000000000E+00  0.00000000000E+00 -0.70229629274E+02  0.14337782544E+03  0.12500000000E+03 0.  0.
<mgrwt>
<rscale>  0 0.12500000E+03</rscale>
<asrwt>0</asrwt>
<pdfrwt beam="1">  1       21 0.56267844E-02 0.12500000E+03</pdfrwt>
<pdfrwt beam="2">  1       21 0.16431342E-01 0.12500000E+03</pdfrwt>
<totfact> 0.71601350E+06</totfact>
</mgrwt>
</event>
<event>
 3    1  0.1597250E-001  0.1250000E+03  0.7546771E-02  0.1235069E+00
         21   -1    0    0  502  501  0.00000000000E+00  0.00000000000E+00  0.26187902027E+03  0.26187902027E+03  0.00000000000E+00 0.  1.
         21   -1    0    0  501  502 -0.00000000000E+00 -0.00000000000E+00 -0.14916238788E+02  0.14916238788E+02  0.00000000000E+00 0.  1.
         25    1    1    2    0    0  0.00000000000E+00  0.00000000000E+00  0.24696278148E+03  0.27679525906E+03  0.12500000000E+03 0.  0.
<mgrwt>
<rscale>  0 0.12500000E+03</rscale>
<asrwt>0</asrwt>
<pdfrwt beam="1">  1       21 0.40289077E-01 0.12500000E+03</pdfrwt>
<pdfrwt beam="2">  1       21 0.22948062E-02 0.12500000E+03</pdfrwt>
<totfact> 0.57441448E+06</totfact>
</mgrwt>
</event>
<event>
 3    1  0.1597250E-001  0.1250000E+03  0.7546771E-02  0.1235069E+00
         21   -1    0    0  502  501  0.00000000000E+00  0.00000000000E+00  0.34937950733E+02  0.34937950733E+02  0.00000000000E+00 0. -1.
         21   -1    0    0  501  502 -0.00000000000E+00 -0.00000000000E+00 -0.11180535544E+03  0.11180535544E+03  0.00000000000E+00 0. -1.
         25    1    1    2    0    0  0.00000000000E+00  0.00000000000E+00 -0.76867404707E+02  0.14674330617E+03  0.12500000000E+03 0.  0.
<mgrwt>
<rscale>  0 0.12500000E+03</rscale>
<asrwt>0</asrwt>
<pdfrwt beam="1">  1       21 0.53750694E-02 0.12500000E+03</pdfrwt>
<pdfrwt beam="2">  1       21 0.17200824E-01 0.12500000E+03</pdfrwt>
<totfact> 0.71170740E+06</totfact>
</mgrwt>
</event>
<event>
 3    1  0.1597250E-001  0.1250000E+03  0.7546771E-02  0.1235069E+00
         21   -1    0    0  502  501  0.00000000000E+00  0.00000000000E+00  0.57740134852E+03  0.57740134852E+03  0.00000000000E+00 0. -1.
         21   -1    0    0  501  502 -0.00000000000E+00 -0.00000000000E+00 -0.67652249341E+01  0.67652249341E+01  0.00000000000E+00 0. -1.
         25    1    1    2    0    0  0.00000000000E+00  0.00000000000E+00  0.57063612359E+03  0.58416657345E+03  0.12500000000E+03 0.  0.
<mgrwt>
<rscale>  0 0.12500000E+03</rscale>
<asrwt>0</asrwt>
<pdfrwt beam="1">  1       21 0.88830938E-01 0.12500000E+03</pdfrwt>
<pdfrwt beam="2">  1       21 0.10408043E-02 0.12500000E+03</pdfrwt>
<totfact> 0.37818619E+06</totfact>
</mgrwt>
</event>
<event>
 3    1  0.1597250E-001  0.1250000E+03  0.7546771E-02  0.1235069E+00
         21   -1    0    0  502  501  0.00000000000E+00  0.00000000000E+00  0.21891496630E+02  0.21891496630E+02  0.00000000000E+00 0. -1.
         21   -1    0    0  501  502 -0.00000000000E+00 -0.00000000000E+00 -0.17843686368E+03  0.17843686368E+03  0.00000000000E+00 0. -1.
         25    1    1    2    0    0  0.00000000000E+00  0.00000000000E+00 -0.15654536705E+03  0.20032836031E+03  0.12500000000E+03 0.  0.
<mgrwt>
<rscale>  0 0.12500000E+03</rscale>
<asrwt>0</asrwt>
<pdfrwt beam="1">  1       21 0.33679224E-02 0.12500000E+03</pdfrwt>
<pdfrwt beam="2">  1       21 0.27451827E-01 0.12500000E+03</pdfrwt>
<totfact> 0.64891689E+06</totfact>
</mgrwt>
</event>
<event>
 3    1  0.1597250E-001  0.1250000E+03  0.7546771E-02  0.1235069E+00
         21   -1    0    0  502  501  0.00000000000E+00  0.00000000000E+00  0.49180706045E+02  0.49180706045E+02  0.00000000000E+00 0.  1.
         21   -1    0    0  501  502 -0.00000000000E+00 -0.00000000000E+00 -0.79426472577E+02  0.79426472577E+02  0.00000000000E+00 0.  1.
         25    1    1    2    0    0  0.00000000000E+00  0.00000000000E+00 -0.30245766532E+02  0.12860717862E+03  0.12500000000E+03 0.  0.
<mgrwt>
<rscale>  0 0.12500000E+03</rscale>
<asrwt>0</asrwt>
<pdfrwt beam="1">  1       21 0.75662625E-02 0.12500000E+03</pdfrwt>
<pdfrwt beam="2">  1       21 0.12219457E-01 0.12500000E+03</pdfrwt>
<totfact> 0.73551693E+06</totfact>
</mgrwt>
</event>
<event>
 3    1  0.1597250E-001  0.1250000E+03  0.7546771E-02  0.1235069E+00
         21   -1    0    0  502  501  0.00000000000E+00  0.00000000000E+00  0.28318677685E+02  0.28318677685E+02  0.00000000000E+00 0. -1.
         21   -1    0    0  501  502 -0.00000000000E+00 -0.00000000000E+00 -0.13793899713E+03  0.13793899713E+03  0.00000000000E+00 0. -1.
         25    1    1    2    0    0  0.00000000000E+00  0.00000000000E+00 -0.10962031945E+03  0.16625767482E+03  0.12500000000E+03 0.  0.
<mgrwt>
<rscale>  0 0.12500000E+03</rscale>
<asrwt>0</asrwt>
<pdfrwt beam="1">  1       21 0.43567196E-02 0.12500000E+03</pdfrwt>
<pdfrwt beam="2">  1       21 0.21221384E-01 0.12500000E+03</pdfrwt>
<totfact> 0.68762845E+06</totfact>
</mgrwt>
</event>
<event>
 3    1  0.1597250E-001  0.1250000E+03  0.7546771E-02  0.1235069E+00
         21   -1    0    0  502  501  0.00000000000E+00  0.00000000000E+00  0.95437432361E+01  0.95437432361E+01  0.00000000000E+00 0. -1.
         21   -1    0    0  501  502 -0.00000000000E+00 -0.00000000000E+00 -0.40929956971E+03  0.40929956971E+03  0.00000000000E+00 0. -1.
         25    1    1    2    0    0  0.00000000000E+00  0.00000000000E+00 -0.39975582648E+03  0.41884331295E+03  0.12500000000E+03 0.  0.
<mgrwt>
<rscale>  0 0.12500000E+03</rscale>
<asrwt>0</asrwt>
<pdfrwt beam="1">  1       21 0.14682682E-02 0.12500000E+03</pdfrwt>
<pdfrwt beam="2">  1       21 0.62969165E-01 0.12500000E+03</pdfrwt>
<totfact> 0.46816103E+06</totfact>
</mgrwt>
</event>
<event>
 3    1  0.1597250E-001  0.1250000E+03  0.7546771E-02  0.1235069E+00
         21   -1    0    0  502  501  0.00000000000E+00  0.00000000000E+00  0.20302064118E+03  0.20302064118E+03  0.00000000000E+00 0. -1.
         21   -1    0    0  501  502 -0.00000000000E+00 -0.00000000000E+00 -0.19240654434E+02  0.19240654434E+02  0.00000000000E+00 0. -1.
         25    1    1    2    0    0  0.00000000000E+00  0.00000000000E+00  0.18377998675E+03  0.22226129562E+03  0.12500000000E+03 0.  0.
<mgrwt>
<rscale>  0 0.12500000E+03</rscale>
<asrwt>0</asrwt>
<pdfrwt beam="1">  1       21 0.31233943E-01 0.12500000E+03</pdfrwt>
<pdfrwt beam="2">  1       21 0.29601008E-02 0.12500000E+03</pdfrwt>
<totfact> 0.62592147E+06</totfact>
</mgrwt>
</event>
<event>
 3    1  0.1597250E-001  0.1250000E+03  0.7546771E-02  0.1235069E+00
         21   -1    0    0  502  501  0.00000000000E+00  0.00000000000E+00  0.42540561376E+01  0.42540561376E+01  0.00000000000E+00 0.  1.
         21   -1    0    0  501  502 -0.00000000000E+00 -0.00000000000E+00 -0.91824129106E+03  0.91824129106E+03  0.00000000000E+00 0.  1.
         25    1    1    2    0    0  0.00000000000E+00  0.00000000000E+00 -0.91398723492E+03  0.92249534719E+03  0.12500000000E+03 0.  0.
<mgrwt>
<rscale>  0 0.12500000E+03</rscale>
<asrwt>0</asrwt>
<pdfrwt beam="1">  1       21 0.65447058E-03 0.12500000E+03</pdfrwt>
<pdfrwt beam="2">  1       21 0.14126780E+00 0.12500000E+03</pdfrwt>
<totfact> 0.25662546E+06</totfact>
</mgrwt>
</event>
<event>
 3    1  0.1597250E-001  0.1250000E+03  0.7546771E-02  0.1235069E+00
         21   -1    0    0  502  501  0.00000000000E+00  0.00000000000E+00  0.20177891833E+04  0.20177891833E+04  0.00000000000E+00 0.  1.
         21   -1    0    0  501  502 -0.00000000000E+00 -0.00000000000E+00 -0.19359059074E+01  0.19359059074E+01  0.00000000000E+00 0.  1.
         25    1    1    2    0    0  0.00000000000E+00  0.00000000000E+00  0.20158532774E+04  0.20197250892E+04  0.12500000000E+03 0.  0.
<mgrwt>
<rscale>  0 0.12500000E+03</rscale>
<asrwt>0</asrwt>
<pdfrwt beam="1">  1       21 0.31042742E+00 0.12500000E+03</pdfrwt>
<pdfrwt beam="2">  1       21 0.29783329E-03 0.12500000E+03</pdfrwt>
<totfact> 0.77572850E+05</totfact>
</mgrwt>
</event>
<event>
 3    1  0.1597250E-001  0.1250000E+03  0.7546771E-02  0.1235069E+00
         21   -1    0    0  502  501  0.00000000000E+00  0.00000000000E+00  0.33001109283E+02  0.33001109283E+02  0.00000000000E+00 0.  1.
         21   -1    0    0  501  502 -0.00000000000E+00 -0.00000000000E+00 -0.11836723325E+03  0.11836723325E+03  0.00000000000E+00 0.  1.
         25    1    1    2    0    0  0.00000000000E+00  0.00000000000E+00 -0.85366123965E+02  0.15136834253E+03  0.12500000000E+03 0.  0.
<mgrwt>
<rscale>  0 0.12500000E+03</rscale>
<asrwt>0</asrwt>
<pdfrwt beam="1">  1       21 0.50770936E-02 0.12500000E+03</pdfrwt>
<pdfrwt beam="2">  1       21 0.18210344E-01 0.12500000E+03</pdfrwt>
<totfact> 0.70587733E+06</totfact>
</mgrwt>
</event>
<event>
 3    1  0.1597250E-001  0.1250000E+03  0.7546771E-02  0.1235069E+00
         21   -1    0    0  502  501  0.00000000000E+00  0.00000000000E+00  0.97446716087E+02  0.97446716087E+02  0.00000000000E+00 0. -1.
         21   -1    0    0  501  502 -0.00000000000E+00 -0.00000000000E+00 -0.40086009635E+02  0.40086009635E+02  0.00000000000E+00 0. -1.
         25    1    1    2    0    0  0.00000000000E+00  0.00000000000E+00  0.57360706452E+02  0.13753272572E+03  0.12500000000E+03 0.  0.
<mgrwt>
<rscale>  0 0.12500000E+03</rscale>
<asrwt>0</asrwt>
<pdfrwt beam="1">  1       21 0.14991802E-01 0.12500000E+03</pdfrwt>
<pdfrwt beam="2">  1       21 0.61670784E-02 0.12500000E+03</pdfrwt>
<totfact> 0.72362826E+06</totfact>
</mgrwt>
</event>
<event>
 3    1  0.1597250E-001  0.1250000E+03  0.7546771E-02  0.1235069E+00
         21   -1    0    0  502  501  0.00000000000E+00  0.00000000000E+00  0.14358414102E+02  0.14358414102E+02  0.00000000000E+00 0.  1.
         21   -1    0    0  501  502 -0.00000000000E+00 -0.00000000000E+00 -0.27205302565E+03  0.27205302565E+03  0.00000000000E+00 0.  1.
         25    1    1    2    0    0  0.00000000000E+00  0.00000000000E+00 -0.25769461155E+03  0.28641143975E+03  0.12500000000E+03 0.  0.
<mgrwt>
<rscale>  0 0.12500000E+03</rscale>
<asrwt>0</asrwt>
<pdfrwt beam="1">  1       21 0.22089870E-02 0.12500000E+03</pdfrwt>
<pdfrwt beam="2">  1       21 0.41854308E-01 0.12500000E+03</pdfrwt>
<totfact> 0.56604689E+06</totfact>
</mgrwt>
</event>
<event>
 3    1  0.1597250E-001  0.1250000E+03  0.7546771E-02  0.1235069E+00
         21   -1    0    0  502  501  0.00000000000E+00  0.00000000000E+00  0.18012511960E+03  0.18012511960E+03  0.00000000000E+00 0.  1.
         21   -1    0    0  501  502 -0.00000000000E+00 -0.00000000000E+00 -0.21686314538E+02  0.21686314538E+02  0.00000000000E+00 0.  1.
         25    1    1    2    0    0  0.00000000000E+00  0.00000000000E+00  0.15843880507E+03  0.20181143414E+03  0.12500000000E+03 0.  0.
<mgrwt>
<rscale>  0 0.12500000E+03</rscale>
<asrwt>0</asrwt>
<pdfrwt beam="1">  1       21 0.27711556E-01 0.12500000E+03</pdfrwt>
<pdfrwt beam="2">  1       21 0.33363562E-02 0.12500000E+03</pdfrwt>
<totfact> 0.64731499E+06</totfact>
</mgrwt>
</event>
<event>
 3    1  0.1597250E-001  0.1250000E+03  0.7546771E-02  0.1235069E+00
         21   -1    0    0  502  501  0.00000000000E+00  0.00000000000E+00  0.23328936182E+02  0.23328936182E+02  0.00000000000E+00 0.  1.
         21   -1    0    0  501  502 -0.00000000000E+00 -0.00000000000E+00 -0.16744226867E+03  0.16744226867E+03  0.00000000000E+00 0.  1.
         25    1    1    2    0    0  0.00000000000E+00  0.00000000000E+00 -0.14411333249E+03  0.19077120485E+03  0.12500000000E+03 0.  0.
<mgrwt>
<rscale>  0 0.12500000E+03</rscale>
<asrwt>0</asrwt>
<pdfrwt beam="1">  1       21 0.35890670E-02 0.12500000E+03</pdfrwt>
<pdfrwt beam="2">  1       21 0.25760350E-01 0.12500000E+03</pdfrwt>
<totfact> 0.65936854E+06</totfact>
</mgrwt>
</event>
<event>
 3    1  0.1597250E-001  0.1250000E+03  0.7546771E-02  0.1235069E+00
         21   -1    0    0  502  501  0.00000000000E+00  0.00000000000E+00  0.42427502488E+03  0.42427502488E+03  0.00000000000E+00 0.  1.
         21   -1    0    0  501  502 -0.00000000000E+00 -0.00000000000E+00 -0.92068817887E+01  0.92068817887E+01  0.00000000000E+00 0.  1.
         25    1    1    2    0    0  0.00000000000E+00  0.00000000000E+00  0.41506814309E+03  0.43348190667E+03  0.12500000000E+03 0.  0.
<mgrwt>
<rscale>  0 0.12500000E+03</rscale>
<asrwt>0</asrwt>
<pdfrwt beam="1">  1       21 0.65273066E-01 0.12500000E+03</pdfrwt>
<pdfrwt beam="2">  1       21 0.14164437E-02 0.12500000E+03</pdfrwt>
<totfact> 0.45897034E+06</totfact>
</mgrwt>
</event>
<event>
 3    1  0.1597250E-001  0.1250000E+03  0.7546771E-02  0.1235069E+00
         21   -1    0    0  502  501  0.00000000000E+00  0.00000000000E+00  0.81561116523E+01  0.81561116523E+01  0.00000000000E+00 0. -1.
         21   -1    0    0  501  502 -0.00000000000E+00 -0.00000000000E+00 -0.47893532685E+03  0.47893532685E+03  0.00000000000E+00 0. -1.
         25    1    1    2    0    0  0.00000000000E+00  0.00000000000E+00 -0.47077921520E+03  0.48709143850E+03  0.12500000000E+03 0.  0.
<mgrwt>
<rscale>  0 0.12500000E+03</rscale>
<asrwt>0</asrwt>
<pdfrwt beam="1">  1       21 0.12547866E-02 0.12500000E+03</pdfrwt>
<pdfrwt beam="2">  1       21 0.73682347E-01 0.12500000E+03</pdfrwt>
<totfact> 0.42752899E+06</totfact>
</mgrwt>
</event>
<event>
 3    1  0.1597250E-001  0.1250000E+03  0.7546771E-02  0.1235069E+00
         21   -1    0    0  502  501  0.00000000000E+00  0.00000000000E+00  0.18738356402E+02  0.18738356402E+02  0.00000000000E+00 0.  1.
         21   -1    0    0  501  502 -0.00000000000E+00 -0.00000000000E+00 -0.20846278704E+03  0.20846278704E+03  0.00000000000E+00 0.  1.
         25    1    1    2    0    0  0.00000000000E+00  0.00000000000E+00 -0.18972443064E+03  0.22720114344E+03  0.12500000000E+03 0.  0.
<mgrwt>
<rscale>  0 0.12500000E+03</rscale>
<asrwt>0</asrwt>
<pdfrwt beam="1">  1       21 0.28828240E-02 0.12500000E+03</pdfrwt>
<pdfrwt beam="2">  1       21 0.32071199E-01 0.12500000E+03</pdfrwt>
<totfact> 0.62093621E+06</totfact>
</mgrwt>
</event>
<event>
 3    1  0.1597250E-001  0.1250000E+03  0.7546771E-02  0.1235069E+00
         21   -1    0    0  502  501  0.00000000000E+00  0.00000000000E+00  0.21307911380E+02  0.21307911380E+02  0.00000000000E+00 0.  1.
         21   -1    0    0  501  502 -0.00000000000E+00 -0.00000000000E+00 -0.18332392745E+03  0.18332392745E+03  0.00000000000E+00 0.  1.
         25    1    1    2    0    0  0.00000000000E+00  0.00000000000E+00 -0.16201601607E+03  0.20463183883E+03  0.12500000000E+03 0.  0.
<mgrwt>
<rscale>  0 0.12500000E+03</rscale>
<asrwt>0</asrwt>
<pdfrwt beam="1">  1       21 0.32781404E-02 0.12500000E+03</pdfrwt>
<pdfrwt beam="2">  1       21 0.28203680E-01 0.12500000E+03</pdfrwt>
<totfact> 0.64428792E+06</totfact>
</mgrwt>
</event>
<event>
 3    1  0.1597250E-001  0.1250000E+03  0.7546771E-02  0.1235069E+00
         21   -1    0    0  502  501  0.00000000000E+00  0.00000000000E+00  0.55942415080E+02  0.55942415080E+02  0.00000000000E+00 0.  1.
         21   -1    0    0  501  502 -0.00000000000E+00 -0.00000000000E+00 -0.69826266785E+02  0.69826266785E+02  0.00000000000E+00 0.  1.
         25    1    1    2    0    0  0.00000000000E+00  0.00000000000E+00 -0.13883851705E+02  0.12576868187E+03  0.12500000000E+03 0.  0.
<mgrwt>
<rscale>  0 0.12500000E+03</rscale>
<asrwt>0</asrwt>
<pdfrwt beam="1">  1       21 0.86065254E-02 0.12500000E+03</pdfrwt>
<pdfrwt beam="2">  1       21 0.10742503E-01 0.12500000E+03</pdfrwt>
<totfact> 0.73938010E+06</totfact>
</mgrwt>
</event>
<event>
 3    1  0.1597250E-001  0.1250000E+03  0.7546771E-02  0.1235069E+00
         21   -1    0    0  502  501  0.00000000000E+00  0.00000000000E+00  0.59302883063E+01  0.59302883063E+01  0.00000000000E+00 0. -1.
         21   -1    0    0  501  502 -0.00000000000E+00 -0.00000000000E+00 -0.65869478823E+03  0.65869478823E+03  0.00000000000E+00 0. -1.
         25    1    1    2    0    0  0.00000000000E+00  0.00000000000E+00 -0.65276449992E+03  0.66462507653E+03  0.12500000000E+03 0.  0.
<mgrwt>
<rscale>  0 0.12500000E+03</rscale>
<asrwt>0</asrwt>
<pdfrwt beam="1">  1       21 0.91235228E-03 0.12500000E+03</pdfrwt>
<pdfrwt beam="2">  1       21 0.10133763E+00 0.12500000E+03</pdfrwt>
<totfact> 0.34319019E+06</totfact>
</mgrwt>
</event>
<event>
 3    1  0.1597250E-001  0.1250000E+03  0.7546771E-02  0.1235069E+00
         21   -1    0    0  502  501  0.00000000000E+00  0.00000000000E+00  0.84739448859E+02  0.84739448859E+02  0.00000000000E+00 0.  1.
         21   -1    0    0  501  502 -0.00000000000E+00 -0.00000000000E+00 -0.46097184400E+02  0.46097184400E+02  0.00000000000E+00 0.  1.
         25    1    1    2    0    0  0.00000000000E+00  0.00000000000E+00  0.38642264459E+02  0.13083663326E+03  0.12500000000E+03 0.  0.
<mgrwt>
<rscale>  0 0.12500000E+03</rscale>
<asrwt>0</asrwt>
<pdfrwt beam="1">  1       21 0.13036838E-01 0.12500000E+03</pdfrwt>
<pdfrwt beam="2">  1       21 0.70918745E-02 0.12500000E+03</pdfrwt>
<totfact> 0.73252695E+06</totfact>
</mgrwt>
</event>
<event>
 3    1  0.1597250E-001  0.1250000E+03  0.7546771E-02  0.1235069E+00
         21   -1    0    0  502  501  0.00000000000E+00  0.00000000000E+00  0.39984963791E+02  0.39984963791E+02  0.00000000000E+00 0. -1.
         21   -1    0    0  501  502 -0.00000000000E+00 -0.00000000000E+00 -0.97692973300E+02  0.97692973300E+02  0.00000000000E+00 0. -1.
         25    1    1    2    0    0  0.00000000000E+00  0.00000000000E+00 -0.57708009509E+02  0.13767793709E+03  0.12500000000E+03 0.  0.
<mgrwt>
<rscale>  0 0.12500000E+03</rscale>
<asrwt>0</asrwt>
<pdfrwt beam="1">  1       21 0.61515330E-02 0.12500000E+03</pdfrwt>
<pdfrwt beam="2">  1       21 0.15029688E-01 0.12500000E+03</pdfrwt>
<totfact> 0.72343798E+06</totfact>
</mgrwt>
</event>
<event>
 3    1  0.1597250E-001  0.1250000E+03  0.7546771E-02  0.1235069E+00
         21   -1    0    0  502  501  0.00000000000E+00  0.00000000000E+00  0.61437513117E+01  0.61437513117E+01  0.00000000000E+00 0. -1.
         21   -1    0    0  501  502 -0.00000000000E+00 -0.00000000000E+00 -0.63580861298E+03  0.63580861298E+03  0.00000000000E+00 0. -1.
         25    1    1    2    0    0  0.00000000000E+00  0.00000000000E+00 -0.62966486167E+03  0.64195236430E+03  0.12500000000E+03 0.  0.
<mgrwt>
<rscale>  0 0.12500000E+03</rscale>
<asrwt>0</asrwt>
<pdfrwt beam="1">  1       21 0.94519273E-03 0.12500000E+03</pdfrwt>
<pdfrwt beam="2">  1       21 0.97816687E-01 0.12500000E+03</pdfrwt>
<totfact> 0.35261465E+06</totfact>
</mgrwt>
</event>
<event>
 3    1  0.1597250E-001  0.1250000E+03  0.7546771E-02  0.1235069E+00
         21   -1    0    0  502  501  0.00000000000E+00  0.00000000000E+00  0.15139484447E+03  0.15139484447E+03  0.00000000000E+00 0.  1.
         21   -1    0    0  501  502 -0.00000000000E+00 -0.00000000000E+00 -0.25801737263E+02  0.25801737263E+02  0.00000000000E+00 0.  1.
         25    1    1    2    0    0  0.00000000000E+00  0.00000000000E+00  0.12559310721E+03  0.17719658173E+03  0.12500000000E+03 0.  0.
<mgrwt>
<rscale>  0 0.12500000E+03</rscale>
<asrwt>0</asrwt>
<pdfrwt beam="1">  1       21 0.23291514E-01 0.12500000E+03</pdfrwt>
<pdfrwt beam="2">  1       21 0.39694981E-02 0.12500000E+03</pdfrwt>
<totfact> 0.67474600E+06</totfact>
</mgrwt>
</event>
<event>
 3    1  0.1597250E-001  0.1250000E+03  0.7546771E-02  0.1235069E+00
         21   -1    0    0  502  501  0.00000000000E+00  0.00000000000E+00  0.43589575382E+03  0.43589575382E+03  0.00000000000E+00 0.  1.
         21   -1    0    0  501  502 -0.00000000000E+00 -0.00000000000E+00 -0.89614316399E+01  0.89614316399E+01  0.00000000000E+00 0.  1.
         25    1    1    2    0    0  0.00000000000E+00  0.00000000000E+00  0.42693432218E+03  0.44485718546E+03  0.12500000000E+03 0.  0.
<mgrwt>
<rscale>  0 0.12500000E+03</rscale>
<asrwt>0</asrwt>
<pdfrwt beam="1">  1       21 0.67060869E-01 0.12500000E+03</pdfrwt>
<pdfrwt beam="2">  1       21 0.13786821E-02 0.12500000E+03</pdfrwt>
<totfact> 0.45201616E+06</totfact>
</mgrwt>
</event>
<event>
 3    1  0.1597250E-001  0.1250000E+03  0.7546771E-02  0.1235069E+00
         21   -1    0    0  502  501  0.00000000000E+00  0.00000000000E+00  0.98976384660E+02  0.98976384660E+02  0.00000000000E+00 0. -1.
         21   -1    0    0  501  502 -0.00000000000E+00 -0.00000000000E+00 -0.39466484995E+02  0.39466484995E+02  0.00000000000E+00 0. -1.
         25    1    1    2    0    0  0.00000000000E+00  0.00000000000E+00  0.59509899665E+02  0.13844286965E+03  0.12500000000E+03 0.  0.
<mgrwt>
<rscale>  0 0.12500000E+03</rscale>
<asrwt>0</asrwt>
<pdfrwt beam="1">  1       21 0.15227136E-01 0.12500000E+03</pdfrwt>
<pdfrwt beam="2">  1       21 0.60717669E-02 0.12500000E+03</pdfrwt>
<totfact> 0.72243246E+06</totfact>
</mgrwt>
</event>
<event>
 3    1  0.1597250E-001  0.1250000E+03  0.7546771E-02  0.1235069E+00
         21   -1    0    0  502  501  0.00000000000E+00  0.00000000000E+00  0.17911049586E+02  0.17911049586E+02  0.00000000000E+00 0. -1.
         21   -1    0    0  501  502 -0.00000000000E+00 -0.00000000000E+00 -0.21809163004E+03  0.21809163004E+03  0.00000000000E+00 0. -1.
         25    1    1    2    0    0  0.00000000000E+00  0.00000000000E+00 -0.20018058046E+03  0.23600267963E+03  0.12500000000E+03 0.  0.
<mgrwt>
<rscale>  0 0.12500000E+03</rscale>
<asrwt>0</asrwt>
<pdfrwt beam="1">  1       21 0.27555464E-02 0.12500000E+03</pdfrwt>
<pdfrwt beam="2">  1       21 0.33552555E-01 0.12500000E+03</pdfrwt>
<totfact> 0.61221635E+06</totfact>
</mgrwt>
</event>
<event>
 3    1  0.1597250E-001  0.1250000E+03  0.7546771E-02  0.1235069E+00
         21   -1    0    0  502  501  0.00000000000E+00  0.00000000000E+00  0.78637337623E+01  0.78637337623E+01  0.00000000000E+00 0.  1.
         21   -1    0    0  501  502 -0.00000000000E+00 -0.00000000000E+00 -0.49674240228E+03  0.49674240228E+03  0.00000000000E+00 0.  1.
         25    1    1    2    0    0  0.00000000000E+00  0.00000000000E+00 -0.48887866852E+03  0.50460613604E+03  0.12500000000E+03 0.  0.
<mgrwt>
<rscale>  0 0.12500000E+03</rscale>
<asrwt>0</asrwt>
<pdfrwt beam="1">  1       21 0.12098052E-02 0.12500000E+03</pdfrwt>
<pdfrwt beam="2">  1       21 0.76421905E-01 0.12500000E+03</pdfrwt>
<totfact> 0.41795367E+06</totfact>
</mgrwt>
</event>
<event>
 3    1  0.1597250E-001  0.1250000E+03  0.7546771E-02  0.1235069E+00
         21   -1    0    0  502  501  0.00000000000E+00  0.00000000000E+00  0.17722849247E+03  0.17722849247E+03  0.00000000000E+00 0.  1.
         21   -1    0    0  501  502 -0.00000000000E+00 -0.00000000000E+00 -0.22040756232E+02  0.22040756232E+02  0.00000000000E+00 0.  1.
         25    1    1    2    0    0  0.00000000000E+00  0.00000000000E+00  0.15518773624E+03  0.19926924871E+03  0.12500000000E+03 0.  0.
<mgrwt>
<rscale>  0 0.12500000E+03</rscale>
<asrwt>0</asrwt>
<pdfrwt beam="1">  1       21 0.27265921E-01 0.12500000E+03</pdfrwt>
<pdfrwt beam="2">  1       21 0.33908857E-02 0.12500000E+03</pdfrwt>
<totfact> 0.65006520E+06</totfact>
</mgrwt>
</event>
<event>
 3    1  0.1597250E-001  0.1250000E+03  0.7546771E-02  0.1235069E+00
         21   -1    0    0  502  501  0.00000000000E+00  0.00000000000E+00  0.13817735264E+02  0.13817735264E+02  0.00000000000E+00 0.  1.
         21   -1    0    0  501  502 -0.00000000000E+00 -0.00000000000E+00 -0.28269828054E+03  0.28269828054E+03  0.00000000000E+00 0.  1.
         25    1    1    2    0    0  0.00000000000E+00  0.00000000000E+00 -0.26888054527E+03  0.29651601580E+03  0.12500000000E+03 0.  0.
<mgrwt>
<rscale>  0 0.12500000E+03</rscale>
<asrwt>0</asrwt>
<pdfrwt beam="1">  1       21 0.21258055E-02 0.12500000E+03</pdfrwt>
<pdfrwt beam="2">  1       21 0.43492042E-01 0.12500000E+03</pdfrwt>
<totfact> 0.55746955E+06</totfact>
</mgrwt>
</event>
<event>
 3    1  0.1597250E-001  0.1250000E+03  0.7546771E-02  0.1235069E+00
         21   -1    0    0  502  501  0.00000000000E+00  0.00000000000E+00  0.27939768271E+02  0.27939768271E+02  0.00000000000E+00 0. -1.
         21   -1    0    0  501  502 -0.00000000000E+00 -0.00000000000E+00 -0.13980967781E+03  0.13980967781E+03  0.00000000000E+00 0. -1.
         25    1    1    2    0    0  0.00000000000E+00  0.00000000000E+00 -0.11186990954E+03  0.16774944608E+03  0.12500000000E+03 0.  0.
<mgrwt>
<rscale>  0 0.12500000E+03</rscale>
<asrwt>0</asrwt>
<pdfrwt beam="1">  1       21 0.42984259E-02 0.12500000E+03</pdfrwt>
<pdfrwt beam="2">  1       21 0.21509181E-01 0.12500000E+03</pdfrwt>
<totfact> 0.68584776E+06</totfact>
</mgrwt>
</event>
<event>
 3    1  0.1597250E-001  0.1250000E+03  0.7546771E-02  0.1235069E+00
         21   -1    0    0  502  501  0.00000000000E+00  0.00000000000E+00  0.47396058720E+02  0.47396058720E+02  0.00000000000E+00 0. -1.
         21   -1    0    0  501  502 -0.00000000000E+00 -0.00000000000E+00 -0.82417190489E+02  0.82417190489E+02  0.00000000000E+00 0. -1.
         25    1    1    2    0    0  0.00000000000E+00  0.00000000000E+00 -0.35021131769E+02  0.12981324921E+03  0.12500000000E+03 0.  0.
<mgrwt>
<rscale>  0 0.12500000E+03</rscale>
<asrwt>0</asrwt>
<pdfrwt beam="1">  1       21 0.72917015E-02 0.12500000E+03</pdfrwt>
<pdfrwt beam="2">  1       21 0.12679568E-01 0.12500000E+03</pdfrwt>
<totfact> 0.73389885E+06</totfact>
</mgrwt>
</event>
<event>
 3    1  0.1597250E-001  0.1250000E+03  0.7546771E-02  0.1235069E+00
         21   -1    0    0  502  501  0.00000000000E+00  0.00000000000E+00  0.38354305032E+03  0.38354305032E+03  0.00000000000E+00 0. -1.
         21   -1    0    0  501  502 -0.00000000000E+00 -0.00000000000E+00 -0.10184645496E+02  0.10184645496E+02  0.00000000000E+00 0. -1.
         25    1    1    2    0    0  0.00000000000E+00  0.00000000000E+00  0.37335840482E+03  0.39372769582E+03  0.12500000000E+03 0.  0.
<mgrwt>
<rscale>  0 0.12500000E+03</rscale>
<asrwt>0</asrwt>
<pdfrwt beam="1">  1       21 0.59006612E-01 0.12500000E+03</pdfrwt>
<pdfrwt beam="2">  1       21 0.15668688E-02 0.12500000E+03</pdfrwt>
<totfact> 0.48460192E+06</totfact>
</mgrwt>
</event>
<event>
 3    1  0.1597250E-001  0.1250000E+03  0.7546771E-02  0.1235069E+00
         21   -1    0    0  502  501  0.00000000000E+00  0.00000000000E+00  0.15322561186E+03  0.15322561186E+03  0.00000000000E+00 0.  1.
         21   -1    0    0  501  502 -0.00000000000E+00 -0.00000000000E+00 -0.25493453429E+02  0.25493453429E+02  0.00000000000E+00 0.  1.
         25    1    1    2    0    0  0.00000000000E+00  0.00000000000E+00  0.12773215843E+03  0.17871906529E+03  0.12500000000E+03 0.  0.
<mgrwt>
<rscale>  0 0.12500000E+03</rscale>
<asrwt>0</asrwt>
<pdfrwt beam="1">  1       21 0.23573170E-01 0.12500000E+03</pdfrwt>
<pdfrwt beam="2">  1       21 0.39220699E-02 0.12500000E+03</pdfrwt>
<totfact> 0.67298786E+06</totfact>
</mgrwt>
</event>
<event>
 3    1  0.1597250E-001  0.1250000E+03  0.7546771E-02  0.1235069E+00
         21   -1    0    0  502  501  0.00000000000E+00  0.00000000000E+00  0.37129387518E+03  0.37129387518E+03  0.00000000000E+00 0. -1.
         21   -1    0    0  501  502 -0.00000000000E+00 -0.00000000000E+00 -0.10520642168E+02  0.10520642168E+02  0.00000000000E+00 0. -1.
         25    1    1    2    0    0  0.00000000000E+00  0.00000000000E+00  0.36077323301E+03  0.38181451734E+03  0.12500000000E+03 0.  0.
<mgrwt>
<rscale>  0 0.12500000E+03</rscale>
<asrwt>0</asrwt>
<pdfrwt beam="1">  1       21 0.57122125E-01 0.12500000E+03</pdfrwt>
<pdfrwt beam="2">  1       21 0.16185606E-02 0.12500000E+03</pdfrwt>
<totfact> 0.49271306E+06</totfact>
</mgrwt>
</event>
<event>
 3    1  0.1597250E-001  0.1250000E+03  0.7546771E-02  0.1235069E+00
         21   -1    0    0  502  501  0.00000000000E+00  0.00000000000E+00  0.11401207833E+03  0.11401207833E+03  0.00000000000E+00 0.  1.
         21   -1    0    0  501  502 -0.00000000000E+00 -0.00000000000E+00 -0.34261720838E+02  0.34261720838E+02  0.00000000000E+00 0.  1.
         25    1    1    2    0    0  0.00000000000E+00  0.00000000000E+00  0.79750357496E+02  0.14827379917E+03  0.12500000000E+03 0.  0.
<mgrwt>
<rscale>  0 0.12500000E+03</rscale>
<asrwt>0</asrwt>
<pdfrwt beam="1">  1       21 0.17540320E-01 0.12500000E+03</pdfrwt>
<pdfrwt beam="2">  1       21 0.52710340E-02 0.12500000E+03</pdfrwt>
<totfact> 0.70976722E+06</totfact>
</mgrwt>
</event>
<event>
 3    1  0.1597250E-001  0.1250000E+03  0.7546771E-02  0.1235069E+00
         21   -1    0    0  502  501  0.00000000000E+00  0.00000000000E+00  0.17425452532E+02  0.17425452532E+02  0.00000000000E+00 0.  1.
         21   -1    0    0  501  502 -0.00000000000E+00 -0.00000000000E+00 -0.22416921413E+03  0.22416921413E+03  0.00000000000E+00 0.  1.
         25    1    1    2    0    0  0.00000000000E+00  0.00000000000E+00 -0.20674376160E+03  0.24159466666E+03  0.12500000000E+03 0.  0.
<mgrwt>
<rscale>  0 0.12500000E+03</rscale>
<asrwt>0</asrwt>
<pdfrwt beam="1">  1       21 0.26808392E-02 0.12500000E+03</pdfrwt>
<pdfrwt beam="2">  1       21 0.34487567E-01 0.12500000E+03</pdfrwt>
<totfact> 0.60678693E+06</totfact>
</mgrwt>
</event>
<event>
 3    1  0.1597250E-001  0.1250000E+03  0.7546771E-02  0.1235069E+00
         21   -1    0    0  502  501  0.00000000000E+00  0.00000000000E+00  0.34640833777E+02  0.34640833777E+02  0.00000000000E+00 0.  1.
         21   -1    0    0  501  502 -0.00000000000E+00 -0.00000000000E+00 -0.11276431812E+03  0.11276431812E+03  0.00000000000E+00 0.  1.
         25    1    1    2    0    0  0.00000000000E+00  0.00000000000E+00 -0.78123484345E+02  0.14740515190E+03  0.12500000000E+03 0.  0.
<mgrwt>
<rscale>  0 0.12500000E+03</rscale>
<asrwt>0</asrwt>
<pdfrwt beam="1">  1       21 0.53293591E-02 0.12500000E+03</pdfrwt>
<pdfrwt beam="2">  1       21 0.17348356E-01 0.12500000E+03</pdfrwt>
<totfact> 0.71086703E+06</totfact>
</mgrwt>
</event>
<event>
 3    1  0.1597250E-001  0.1250000E+03  0.7546771E-02  0.1235069E+00
         21   -1    0    0  502  501  0.00000000000E+00  0.00000000000E+00  0.84995232702E+03  0.84995232702E+03  0.00000000000E+00 0.  1.
         21   -1    0    0  501  502 -0.00000000000E+00 -0.00000000000E+00 -0.45958459973E+01  0.45958459973E+01  0.00000000000E+00 0.  1.
         25    1    1    2    0    0  0.00000000000E+00  0.00000000000E+00  0.84535648102E+03  0.85454817302E+03  0.12500000000E+03 0.  0.
<mgrwt>
<rscale>  0 0.12500000E+03</rscale>
<asrwt>0</asrwt>
<pdfrwt beam="1">  1       21 0.13076177E+00 0.12500000E+03</pdfrwt>
<pdfrwt beam="2">  1       21 0.70705391E-03 0.12500000E+03</pdfrwt>
<totfact> 0.27633304E+06</totfact>
</mgrwt>
</event>
<event>
 3    1  0.1597250E-001  0.1250000E+03  0.7546771E-02  0.1235069E+00
         21   -1    0    0  502  501  0.00000000000E+00  0.00000000000E+00  0.10310796566E+02  0.10310796566E+02  0.00000000000E+00 0.  1.
         21   -1    0    0  501  502 -0.00000000000E+00 -0.00000000000E+00 -0.37885045786E+03  0.37885045786E+03  0.00000000000E+00 0.  1.
         25    1    1    2    0    0  0.00000000000E+00  0.00000000000E+00 -0.36853966129E+03  0.38916125442E+03  0.12500000000E+03 0.  0.
<mgrwt>
<rscale>  0 0.12500000E+03</rscale>
<asrwt>0</asrwt>
<pdfrwt beam="1">  1       21 0.15862762E-02 0.12500000E+03</pdfrwt>
<pdfrwt beam="2">  1       21 0.58284695E-01 0.12500000E+03</pdfrwt>
<totfact> 0.48768677E+06</totfact>
</mgrwt>
</event>
<event>
 3    1  0.1597250E-001  0.1250000E+03  0.7546771E-02  0.1235069E+00
         21   -1    0    0  502  501  0.00000000000E+00  0.00000000000E+00  0.33410075984E+01  0.33410075984E+01  0.00000000000E+00 0.  1.
         21   -1    0    0  501  502 -0.00000000000E+00 -0.00000000000E+00 -0.11691832134E+04  0.11691832134E+04  0.00000000000E+00 0.  1.
         25    1    1    2    0    0  0.00000000000E+00  0.00000000000E+00 -0.11658422058E+04  0.11725242210E+04  0.12500000000E+03 0.  0.
<mgrwt>
<rscale>  0 0.12500000E+03</rscale>
<asrwt>0</asrwt>
<pdfrwt beam="1">  1       21 0.51400092E-03 0.12500000E+03</pdfrwt>
<pdfrwt beam="2">  1       21 0.17987443E+00 0.12500000E+03</pdfrwt>
<totfact> 0.19699667E+06</totfact>
</mgrwt>
</event>
<event>
 3    1  0.1597250E-001  0.1250000E+03  0.7546771E-02  0.1235069E+00
         21   -1    0    0  502  501  0.00000000000E+00  0.00000000000E+00  0.39009258825E+02  0.39009258825E+02  0.00000000000E+00 0. -1.
         21   -1    0    0  501  502 -0.00000000000E+00 -0.00000000000E+00 -0.10013648343E+03  0.10013648343E+03  0.00000000000E+00 0. -1.
         25    1    1    2    0    0  0.00000000000E+00  0.00000000000E+00 -0.61127224605E+02  0.13914574226E+03  0.12500000000E+03 0.  0.
<mgrwt>
<rscale>  0 0.12500000E+03</rscale>
<asrwt>0</asrwt>
<pdfrwt beam="1">  1       21 0.60014244E-02 0.12500000E+03</pdfrwt>
<pdfrwt beam="2">  1       21 0.15405613E-01 0.12500000E+03</pdfrwt>
<totfact> 0.72151027E+06</totfact>
</mgrwt>
</event>
<event>
 3    1  0.1597250E-001  0.1250000E+03  0.7546771E-02  0.1235069E+00
         21   -1    0    0  502  501  0.00000000000E+00  0.00000000000E+00  0.46303833434E+01  0.46303833434E+01  0.00000000000E+00 0. -1.
         21   -1    0    0  501  502 -0.00000000000E+00 -0.00000000000E+00 -0.84361265802E+03  0.84361265802E+03  0.00000000000E+00 0. -1.
         25    1    1    2    0    0  0.00000000000E+00  0.00000000000E+00 -0.83898227467E+03  0.84824304136E+03  0.12500000000E+03 0.  0.
<mgrwt>
<rscale>  0 0.12500000E+03</rscale>
<asrwt>0</asrwt>
<pdfrwt beam="1">  1       21 0.71236673E-03 0.12500000E+03</pdfrwt>
<pdfrwt beam="2">  1       21 0.12978655E+00 0.12500000E+03</pdfrwt>
<totfact> 0.27825472E+06</totfact>
</mgrwt>
</event>
<event>
 3    1  0.1597250E-001  0.1250000E+03  0.7546771E-02  0.1235069E+00
         21   -1    0    0  502  501  0.00000000000E+00  0.00000000000E+00  0.51494524126E+03  0.51494524126E+03  0.00000000000E+00 0.  1.
         21   -1    0    0  501  502 -0.00000000000E+00 -0.00000000000E+00 -0.75857580321E+01  0.75857580321E+01  0.00000000000E+00 0.  1.
         25    1    1    2    0    0  0.00000000000E+00  0.00000000000E+00  0.50735948323E+03  0.52253099929E+03  0.12500000000E+03 0.  0.
<mgrwt>
<rscale>  0 0.12500000E+03</rscale>
<asrwt>0</asrwt>
<pdfrwt beam="1">  1       21 0.79222317E-01 0.12500000E+03</pdfrwt>
<pdfrwt beam="2">  1       21 0.11670401E-02 0.12500000E+03</pdfrwt>
<totfact> 0.40847953E+06</totfact>
</mgrwt>
</event>
<event>
 3    1  0.1597250E-001  0.1250000E+03  0.7546771E-02  0.1235069E+00
         21   -1    0    0  502  501  0.00000000000E+00  0.00000000000E+00  0.44012004119E+02  0.44012004119E+02  0.00000000000E+00 0.  1.
         21   -1    0    0  501  502 -0.00000000000E+00 -0.00000000000E+00 -0.88754195093E+02  0.88754195093E+02  0.00000000000E+00 0.  1.
         25    1    1    2    0    0  0.00000000000E+00  0.00000000000E+00 -0.44742190975E+02  0.13276619921E+03  0.12500000000E+03 0.  0.
<mgrwt>
<rscale>  0 0.12500000E+03</rscale>
<asrwt>0</asrwt>
<pdfrwt beam="1">  1       21 0.67710776E-02 0.12500000E+03</pdfrwt>
<pdfrwt beam="2">  1       21 0.13654491E-01 0.12500000E+03</pdfrwt>
<totfact> 0.72993635E+06</totfact>
</mgrwt>
</event>
<event>
 3    1  0.1597250E-001  0.1250000E+03  0.7546771E-02  0.1235069E+00
         21   -1    0    0  502  501  0.00000000000E+00  0.00000000000E+00  0.26667709763E+01  0.26667709763E+01  0.00000000000E+00 0.  1.
         21   -1    0    0  501  502 -0.00000000000E+00 -0.00000000000E+00 -0.14647864532E+04  0.14647864532E+04  0.00000000000E+00 0.  1.
         25    1    1    2    0    0  0.00000000000E+00  0.00000000000E+00 -0.14621196823E+04  0.14674532242E+04  0.12500000000E+03 0.  0.
<mgrwt>
<rscale>  0 0.12500000E+03</rscale>
<asrwt>0</asrwt>
<pdfrwt beam="1">  1       21 0.41027344E-03 0.12500000E+03</pdfrwt>
<pdfrwt beam="2">  1       21 0.22535122E+00 0.12500000E+03</pdfrwt>
<totfact> 0.14482449E+06</totfact>
</mgrwt>
</event>
<event>
 3    1  0.1597250E-001  0.1250000E+03  0.7546771E-02  0.1235069E+00
         21   -1    0    0  502  501  0.00000000000E+00  0.00000000000E+00  0.97877711279E+02  0.97877711279E+02  0.00000000000E+00 0.  1.
         21   -1    0    0  501  502 -0.00000000000E+00 -0.00000000000E+00 -0.39909494705E+02  0.39909494705E+02  0.00000000000E+00 0.  1.
         25    1    1    2    0    0  0.00000000000E+00  0.00000000000E+00  0.57968216574E+02  0.13778720598E+03  0.12500000000E+03 0.  0.
<mgrwt>
<rscale>  0 0.12500000E+03</rscale>
<asrwt>0</asrwt>
<pdfrwt beam="1">  1       21 0.15058109E-01 0.12500000E+03</pdfrwt>
<pdfrwt beam="2">  1       21 0.61399223E-02 0.12500000E+03</pdfrwt>
<totfact> 0.72329486E+06</totfact>
</mgrwt>
</event>
<event>
 3    1  0.1597250E-001  0.1250000E+03  0.7546771E-02  0.1235069E+00
         21   -1    0    0  502  501  0.00000000000E+00  0.00000000000E+00  0.16463388990E+02  0.16463388990E+02  0.00000000000E+00 0. -1.
         21   -1    0    0  501  502 -0.00000000000E+00 -0.00000000000E+00 -0.23726888809E+03  0.23726888809E+03  0.00000000000E+00 0. -1.
         25    1    1    2    0    0  0.00000000000E+00  0.00000000000E+00 -0.22080549910E+03  0.25373227708E+03  0.12500000000E+03 0.  0.
<mgrwt>
<rscale>  0 0.12500000E+03</rscale>
<asrwt>0</asrwt>
<pdfrwt beam="1">  1       21 0.25328291E-02 0.12500000E+03</pdfrwt>
<pdfrwt beam="2">  1       21 0.36502905E-01 0.12500000E+03</pdfrwt>
<totfact> 0.59528570E+06</totfact>
</mgrwt>
</event>
<event>
 3    1  0.1597250E-001  0.1250000E+03  0.7546771E-02  0.1235069E+00
         21   -1    0    0  502  501  0.00000000000E+00  0.00000000000E+00  0.12593298884E+03  0.12593298884E+03  0.00000000000E+00 0. -1.
         21   -1    0    0  501  502 -0.00000000000E+00 -0.00000000000E+00 -0.31018480828E+02  0.31018480828E+02  0.00000000000E+00 0. -1.
         25    1    1    2    0    0  0.00000000000E+00  0.00000000000E+00  0.94914508014E+02  0.15695146967E+03  0.12500000000E+03 0.  0.
<mgrwt>
<rscale>  0 0.12500000E+03</rscale>
<asrwt>0</asrwt>
<pdfrwt beam="1">  1       21 0.19374306E-01 0.12500000E+03</pdfrwt>
<pdfrwt beam="2">  1       21 0.47720740E-02 0.12500000E+03</pdfrwt>
<totfact> 0.69893925E+06</totfact>
</mgrwt>
</event>
<event>
 3    1  0.1597250E-001  0.1250000E+03  0.7546771E-02  0.1235069E+00
         21   -1    0    0  502  501  0.00000000000E+00  0.00000000000E+00  0.62146434396E+01  0.62146434396E+01  0.00000000000E+00 0. -1.
         21   -1    0    0  501  502 -0.00000000000E+00 -0.00000000000E+00 -0.62855577121E+03  0.62855577121E+03  0.00000000000E+00 0. -1.
         25    1    1    2    0    0  0.00000000000E+00  0.00000000000E+00 -0.62234112777E+03  0.63477041465E+03  0.12500000000E+03 0.  0.
<mgrwt>
<rscale>  0 0.12500000E+03</rscale>
<asrwt>0</asrwt>
<pdfrwt beam="1">  1       21 0.95609882E-03 0.12500000E+03</pdfrwt>
<pdfrwt beam="2">  1       21 0.96700905E-01 0.12500000E+03</pdfrwt>
<totfact> 0.35565936E+06</totfact>
</mgrwt>
</event>
<event>
 3    1  0.1597250E-001  0.1250000E+03  0.7546771E-02  0.1235069E+00
         21   -1    0    0  502  501  0.00000000000E+00  0.00000000000E+00  0.62121764132E+01  0.62121764132E+01  0.00000000000E+00 0. -1.
         21   -1    0    0  501  502 -0.00000000000E+00 -0.00000000000E+00 -0.62880538802E+03  0.62880538802E+03  0.00000000000E+00 0. -1.
         25    1    1    2    0    0  0.00000000000E+00  0.00000000000E+00 -0.62259321161E+03  0.63501756444E+03  0.12500000000E+03 0.  0.
<mgrwt>
<rscale>  0 0.12500000E+03</rscale>
<asrwt>0</asrwt>
<pdfrwt beam="1">  1       21 0.95571950E-03 0.12500000E+03</pdfrwt>
<pdfrwt beam="2">  1       21 0.96739286E-01 0.12500000E+03</pdfrwt>
<totfact> 0.35555408E+06</totfact>
</mgrwt>
</event>
<event>
 3    1  0.1597250E-001  0.1250000E+03  0.7546771E-02  0.1235069E+00
         21   -1    0    0  502  501  0.00000000000E+00  0.00000000000E+00  0.54249231247E+01  0.54249231247E+01  0.00000000000E+00 0. -1.
         21   -1    0    0  501  502 -0.00000000000E+00 -0.00000000000E+00 -0.72005628655E+03  0.72005628655E+03  0.00000000000E+00 0. -1.
         25    1    1    2    0    0  0.00000000000E+00  0.00000000000E+00 -0.71463136342E+03  0.72548120967E+03  0.12500000000E+03 0.  0.
<mgrwt>
<rscale>  0 0.12500000E+03</rscale>
<asrwt>0</asrwt>
<pdfrwt beam="1">  1       21 0.83460326E-03 0.12500000E+03</pdfrwt>
<pdfrwt beam="2">  1       21 0.11077793E+00 0.12500000E+03</pdfrwt>
<totfact> 0.31950592E+06</totfact>
</mgrwt>
</event>
<event>
 3    1  0.1597250E-001  0.1250000E+03  0.7546771E-02  0.1235069E+00
         21   -1    0    0  502  501  0.00000000000E+00  0.00000000000E+00  0.11310387652E+04  0.11310387652E+04  0.00000000000E+00 0.  1.
         21   -1    0    0  501  502 -0.00000000000E+00 -0.00000000000E+00 -0.34536835696E+01  0.34536835696E+01  0.00000000000E+00 0.  1.
         25    1    1    2    0    0  0.00000000000E+00  0.00000000000E+00  0.11275850816E+04  0.11344924488E+04  0.12500000000E+03 0.  0.
<mgrwt>
<rscale>  0 0.12500000E+03</rscale>
<asrwt>0</asrwt>
<pdfrwt beam="1">  1       21 0.17400567E+00 0.12500000E+03</pdfrwt>
<pdfrwt beam="2">  1       21 0.53133684E-03 0.12500000E+03</pdfrwt>
<totfact> 0.20499629E+06</totfact>
</mgrwt>
</event>
<event>
 3    1  0.1597250E-001  0.1250000E+03  0.7546771E-02  0.1235069E+00
         21   -1    0    0  502  501  0.00000000000E+00  0.00000000000E+00  0.62251699152E+03  0.62251699152E+03  0.00000000000E+00 0.  1.
         21   -1    0    0  501  502 -0.00000000000E+00 -0.00000000000E+00 -0.62749291235E+01  0.62749291235E+01  0.00000000000E+00 0.  1.
         25    1    1    2    0    0  0.00000000000E+00  0.00000000000E+00  0.61624206240E+03  0.62879192065E+03  0.12500000000E+03 0.  0.
<mgrwt>
<rscale>  0 0.12500000E+03</rscale>
<asrwt>0</asrwt>
<pdfrwt beam="1">  1       21 0.95771796E-01 0.12500000E+03</pdfrwt>
<pdfrwt beam="2">  1       21 0.96537420E-03 0.12500000E+03</pdfrwt>
<totfact> 0.35822109E+06</totfact>
</mgrwt>
</event>
<event>
 3    1  0.1597250E-001  0.1250000E+03  0.7546771E-02  0.1235069E+00
         21   -1    0    0  502  501  0.00000000000E+00  0.00000000000E+00  0.13410755968E+03  0.13410755968E+03  0.00000000000E+00 0. -1.
         21   -1    0    0  501  502 -0.00000000000E+00 -0.00000000000E+00 -0.29127739027E+02  0.29127739027E+02  0.00000000000E+00 0. -1.
         25    1    1    2    0    0  0.00000000000E+00  0.00000000000E+00  0.10497982066E+03  0.16323529871E+03  0.12500000000E+03 0.  0.
<mgrwt>
<rscale>  0 0.12500000E+03</rscale>
<asrwt>0</asrwt>
<pdfrwt beam="1">  1       21 0.20631932E-01 0.12500000E+03</pdfrwt>
<pdfrwt beam="2">  1       21 0.44811907E-02 0.12500000E+03</pdfrwt>
<totfact> 0.69126323E+06</totfact>
</mgrwt>
</event>
<event>
 3    1  0.1597250E-001  0.1250000E+03  0.7546771E-02  0.1235069E+00
         21   -1    0    0  502  501  0.00000000000E+00  0.00000000000E+00  0.51244482371E+03  0.51244482371E+03  0.00000000000E+00 0. -1.
         21   -1    0    0  501  502 -0.00000000000E+00 -0.00000000000E+00 -0.76227718952E+01  0.76227718952E+01  0.00000000000E+00 0. -1.
         25    1    1    2    0    0  0.00000000000E+00  0.00000000000E+00  0.50482205181E+03  0.52006759560E+03  0.12500000000E+03 0.  0.
<mgrwt>
<rscale>  0 0.12500000E+03</rscale>
<asrwt>0</asrwt>
<pdfrwt beam="1">  1       21 0.78837638E-01 0.12500000E+03</pdfrwt>
<pdfrwt beam="2">  1       21 0.11727345E-02 0.12500000E+03</pdfrwt>
<totfact> 0.40976269E+06</totfact>
</mgrwt>
</event>
<event>
 3    1  0.1597250E-001  0.1250000E+03  0.7546771E-02  0.1235069E+00
         21   -1    0    0  502  501  0.00000000000E+00  0.00000000000E+00  0.49864321739E+02  0.49864321739E+02  0.00000000000E+00 0. -1.
         21   -1    0    0  501  502 -0.00000000000E+00 -0.00000000000E+00 -0.78337574116E+02  0.78337574116E+02  0.00000000000E+00 0. -1.
         25    1    1    2    0    0  0.00000000000E+00  0.00000000000E+00 -0.28473252377E+02  0.12820189586E+03  0.12500000000E+03 0.  0.
<mgrwt>
<rscale>  0 0.12500000E+03</rscale>
<asrwt>0</asrwt>
<pdfrwt beam="1">  1       21 0.76714341E-02 0.12500000E+03</pdfrwt>
<pdfrwt beam="2">  1       21 0.12051934E-01 0.12500000E+03</pdfrwt>
<totfact> 0.73606304E+06</totfact>
</mgrwt>
</event>
<event>
 3    1  0.1597250E-001  0.1250000E+03  0.7546771E-02  0.1235069E+00
         21   -1    0    0  502  501  0.00000000000E+00  0.00000000000E+00  0.65630227164E+02  0.65630227164E+02  0.00000000000E+00 0.  1.
         21   -1    0    0  501  502 -0.00000000000E+00 -0.00000000000E+00 -0.59519068710E+02  0.59519068710E+02  0.00000000000E+00 0.  1.
         25    1    1    2    0    0  0.00000000000E+00  0.00000000000E+00  0.61111584546E+01  0.12514929587E+03  0.12500000000E+03 0.  0.
<mgrwt>
<rscale>  0 0.12500000E+03</rscale>
<asrwt>0</asrwt>
<pdfrwt beam="1">  1       21 0.10096958E-01 0.12500000E+03</pdfrwt>
<pdfrwt beam="2">  1       21 0.91567797E-02 0.12500000E+03</pdfrwt>
<totfact> 0.74023418E+06</totfact>
</mgrwt>
</event>
<event>
 3    1  0.1597250E-001  0.1250000E+03  0.7546771E-02  0.1235069E+00
         21   -1    0    0  502  501  0.00000000000E+00  0.00000000000E+00  0.91148814821E+01  0.91148814821E+01  0.00000000000E+00 0.  1.
         21   -1    0    0  501  502 -0.00000000000E+00 -0.00000000000E+00 -0.42855740996E+03  0.42855740996E+03  0.00000000000E+00 0.  1.
         25    1    1    2    0    0  0.00000000000E+00  0.00000000000E+00 -0.41944252847E+03  0.43767229144E+03  0.12500000000E+03 0.  0.
<mgrwt>
<rscale>  0 0.12500000E+03</rscale>
<asrwt>0</asrwt>
<pdfrwt beam="1">  1       21 0.14022893E-02 0.12500000E+03</pdfrwt>
<pdfrwt beam="2">  1       21 0.65931915E-01 0.12500000E+03</pdfrwt>
<totfact> 0.45639000E+06</totfact>
</mgrwt>
</event>
<event>
 3    1  0.1597250E-001  0.1250000E+03  0.7546771E-02  0.1235069E+00
         21   -1    0    0  502  501  0.00000000000E+00  0.00000000000E+00  0.30489328678E+02  0.30489328678E+02  0.00000000000E+00 0.  1.
         21   -1    0    0  501  502 -0.00000000000E+00 -0.00000000000E+00 -0.12811859655E+03  0.12811859655E+03  0.00000000000E+00 0.  1.
         25    1    1    2    0    0  0.00000000000E+00  0.00000000000E+00 -0.97629267874E+02  0.15860792523E+03  0.12500000000E+03 0.  0.
<mgrwt>
<rscale>  0 0.12500000E+03</rscale>
<asrwt>0</asrwt>
<pdfrwt beam="1">  1       21 0.46906659E-02 0.12500000E+03</pdfrwt>
<pdfrwt beam="2">  1       21 0.19710554E-01 0.12500000E+03</pdfrwt>
<totfact> 0.69689993E+06</totfact>
</mgrwt>
</event>
<event>
 3    1  0.1597250E-001  0.1250000E+03  0.7546771E-02  0.1235069E+00
         21   -1    0    0  502  501  0.00000000000E+00  0.00000000000E+00  0.11822144983E+03  0.11822144983E+03  0.00000000000E+00 0.  1.
         21   -1    0    0  501  502 -0.00000000000E+00 -0.00000000000E+00 -0.33041804220E+02  0.33041804220E+02  0.00000000000E+00 0.  1.
         25    1    1    2    0    0  0.00000000000E+00  0.00000000000E+00  0.85179645612E+02  0.15126325405E+03  0.12500000000E+03 0.  0.
<mgrwt>
<rscale>  0 0.12500000E+03</rscale>
<asrwt>0</asrwt>
<pdfrwt beam="1">  1       21 0.18187915E-01 0.12500000E+03</pdfrwt>
<pdfrwt beam="2">  1       21 0.50833546E-02 0.12500000E+03</pdfrwt>
<totfact> 0.70600872E+06</totfact>
</mgrwt>
</event>
<event>
 3    1  0.1597250E-001  0.1250000E+03  0.7546771E-02  0.1235069E+00
         21   -1    0    0  502  501  0.00000000000E+00  0.00000000000E+00  0.70147894440E+03  0.70147894440E+03  0.00000000000E+00 0.  1.
         21   -1    0    0  501  502 -0.00000000000E+00 -0.00000000000E+00 -0.55685919459E+01  0.55685919459E+01  0.00000000000E+00 0.  1.
         25    1    1    2    0    0  0.00000000000E+00  0.00000000000E+00  0.69591035245E+03  0.70704753634E+03  0.12500000000E+03 0.  0.
<mgrwt>
<rscale>  0 0.12500000E+03</rscale>
<asrwt>0</asrwt>
<pdfrwt beam="1">  1       21 0.10791977E+00 0.12500000E+03</pdfrwt>
<pdfrwt beam="2">  1       21 0.85670701E-03 0.12500000E+03</pdfrwt>
<totfact> 0.32640216E+06</totfact>
</mgrwt>
</event>
<event>
 3    1  0.1597250E-001  0.1250000E+03  0.7546771E-02  0.1235069E+00
         21   -1    0    0  502  501  0.00000000000E+00  0.00000000000E+00  0.19268979080E+04  0.19268979080E+04  0.00000000000E+00 0. -1.
         21   -1    0    0  501  502 -0.00000000000E+00 -0.00000000000E+00 -0.20272220878E+01  0.20272220878E+01  0.00000000000E+00 0. -1.
         25    1    1    2    0    0  0.00000000000E+00  0.00000000000E+00  0.19248706859E+04  0.19289251301E+04  0.12500000000E+03 0.  0.
<mgrwt>
<rscale>  0 0.12500000E+03</rscale>
<asrwt>0</asrwt>
<pdfrwt beam="1">  1       21 0.29644437E+00 0.12500000E+03</pdfrwt>
<pdfrwt beam="2">  1       21 0.31188186E-03 0.12500000E+03</pdfrwt>
<totfact> 0.86621509E+05</totfact>
</mgrwt>
</event>
<event>
 3    1  0.1597250E-001  0.1250000E+03  0.7546771E-02  0.1235069E+00
         21   -1    0    0  502  501  0.00000000000E+00  0.00000000000E+00  0.41975005422E+02  0.41975005422E+02  0.00000000000E+00 0.  1.
         21   -1    0    0  501  502 -0.00000000000E+00 -0.00000000000E+00 -0.93061334018E+02  0.93061334018E+02  0.00000000000E+00 0.  1.
         25    1    1    2    0    0  0.00000000000E+00  0.00000000000E+00 -0.51086328597E+02  0.13503633944E+03  0.12500000000E+03 0.  0.
<mgrwt>
<rscale>  0 0.12500000E+03</rscale>
<asrwt>0</asrwt>
<pdfrwt beam="1">  1       21 0.64576932E-02 0.12500000E+03</pdfrwt>
<pdfrwt beam="2">  1       21 0.14317128E-01 0.12500000E+03</pdfrwt>
<totfact> 0.72691661E+06</totfact>
</mgrwt>
</event>
<event>
 3    1  0.1597250E-001  0.1250000E+03  0.7546771E-02  0.1235069E+00
         21   -1    0    0  502  501  0.00000000000E+00  0.00000000000E+00  0.56276627093E+02  0.56276627093E+02  0.00000000000E+00 0.  1.
         21   -1    0    0  501  502 -0.00000000000E+00 -0.00000000000E+00 -0.69411587044E+02  0.69411587044E+02  0.00000000000E+00 0.  1.
         25    1    1    2    0    0  0.00000000000E+00  0.00000000000E+00 -0.13134959951E+02  0.12568821414E+03  0.12500000000E+03 0.  0.
<mgrwt>
<rscale>  0 0.12500000E+03</rscale>
<asrwt>0</asrwt>
<pdfrwt beam="1">  1       21 0.86579426E-02 0.12500000E+03</pdfrwt>
<pdfrwt beam="2">  1       21 0.10678706E-01 0.12500000E+03</pdfrwt>
<totfact> 0.73949174E+06</totfact>
</mgrwt>
</event>
<event>
 3    1  0.1597250E-001  0.1250000E+03  0.7546771E-02  0.1235069E+00
         21   -1    0    0  502  501  0.00000000000E+00  0.00000000000E+00  0.52002426424E+03  0.52002426424E+03  0.00000000000E+00 0. -1.
         21   -1    0    0  501  502 -0.00000000000E+00 -0.00000000000E+00 -0.75116687213E+01  0.75116687213E+01  0.00000000000E+00 0. -1.
         25    1    1    2    0    0  0.00000000000E+00  0.00000000000E+00  0.51251259552E+03  0.52753593296E+03  0.12500000000E+03 0.  0.
<mgrwt>
<rscale>  0 0.12500000E+03</rscale>
<asrwt>0</asrwt>
<pdfrwt beam="1">  1       21 0.80003705E-01 0.12500000E+03</pdfrwt>
<pdfrwt beam="2">  1       21 0.11556418E-02 0.12500000E+03</pdfrwt>
<totfact> 0.40589063E+06</totfact>
</mgrwt>
</event>
<event>
 3    1  0.1597250E-001  0.1250000E+03  0.7546771E-02  0.1235069E+00
         21   -1    0    0  502  501  0.00000000000E+00  0.00000000000E+00  0.39693392853E+02  0.39693392853E+02  0.00000000000E+00 0.  1.
         21   -1    0    0  501  502 -0.00000000000E+00 -0.00000000000E+00 -0.98410584715E+02  0.98410584715E+02  0.00000000000E+00 0.  1.
         25    1    1    2    0    0  0.00000000000E+00  0.00000000000E+00 -0.58717191862E+02  0.13810397757E+03  0.12500000000E+03 0.  0.
<mgrwt>
<rscale>  0 0.12500000E+03</rscale>
<asrwt>0</asrwt>
<pdfrwt beam="1">  1       21 0.61066759E-02 0.12500000E+03</pdfrwt>
<pdfrwt beam="2">  1       21 0.15140090E-01 0.12500000E+03</pdfrwt>
<totfact> 0.72287807E+06</totfact>
</mgrwt>
</event>
<event>
 3    1  0.1597250E-001  0.1250000E+03  0.7546771E-02  0.1235069E+00
         21   -1    0    0  502  501  0.00000000000E+00  0.00000000000E+00  0.51150151915E+02  0.51150151915E+02  0.00000000000E+00 0. -1.
         21   -1    0    0  501  502 -0.00000000000E+00 -0.00000000000E+00 -0.76368297136E+02  0.76368297136E+02  0.00000000000E+00 0. -1.
         25    1    1    2    0    0  0.00000000000E+00  0.00000000000E+00 -0.25218145221E+02  0.12751844905E+03  0.12500000000E+03 0.  0.
<mgrwt>
<rscale>  0 0.12500000E+03</rscale>
<asrwt>0</asrwt>
<pdfrwt beam="1">  1       21 0.78692542E-02 0.12500000E+03</pdfrwt>
<pdfrwt beam="2">  1       21 0.11748969E-01 0.12500000E+03</pdfrwt>
<totfact> 0.73698717E+06</totfact>
</mgrwt>
</event>
<event>
 3    1  0.1597250E-001  0.1250000E+03  0.7546771E-02  0.1235069E+00
         21   -1    0    0  502  501  0.00000000000E+00  0.00000000000E+00  0.55233143336E+02  0.55233143336E+02  0.00000000000E+00 0. -1.
         21   -1    0    0  501  502 -0.00000000000E+00 -0.00000000000E+00 -0.70722934891E+02  0.70722934891E+02  0.00000000000E+00 0. -1.
         25    1    1    2    0    0  0.00000000000E+00  0.00000000000E+00 -0.15489791555E+02  0.12595607823E+03  0.12500000000E+03 0.  0.
<mgrwt>
<rscale>  0 0.12500000E+03</rscale>
<asrwt>0</asrwt>
<pdfrwt beam="1">  1       21 0.84974067E-02 0.12500000E+03</pdfrwt>
<pdfrwt beam="2">  1       21 0.10880451E-01 0.12500000E+03</pdfrwt>
<totfact> 0.73912097E+06</totfact>
</mgrwt>
</event>
<event>
 3    1  0.1597250E-001  0.1250000E+03  0.7546771E-02  0.1235069E+00
         21   -1    0    0  502  501  0.00000000000E+00  0.00000000000E+00  0.30444684209E+02  0.30444684209E+02  0.00000000000E+00 0. -1.
         21   -1    0    0  501  502 -0.00000000000E+00 -0.00000000000E+00 -0.12830647128E+03  0.12830647128E+03  0.00000000000E+00 0. -1.
         25    1    1    2    0    0  0.00000000000E+00  0.00000000000E+00 -0.97861787067E+02  0.15875115549E+03  0.12500000000E+03 0.  0.
<mgrwt>
<rscale>  0 0.12500000E+03</rscale>
<asrwt>0</asrwt>
<pdfrwt beam="1">  1       21 0.46837975E-02 0.12500000E+03</pdfrwt>
<pdfrwt beam="2">  1       21 0.19739457E-01 0.12500000E+03</pdfrwt>
<totfact> 0.69672414E+06</totfact>
</mgrwt>
</event>
<event>
 3    1  0.1597250E-001  0.1250000E+03  0.7546771E-02  0.1235069E+00
         21   -1    0    0  502  501  0.00000000000E+00  0.00000000000E+00  0.62721781174E+03  0.62721781174E+03  0.00000000000E+00 0. -1.
         21   -1    0    0  501  502 -0.00000000000E+00 -0.00000000000E+00 -0.62279003034E+01  0.62279003034E+01  0.00000000000E+00 0. -1.
         25    1    1    2    0    0  0.00000000000E+00  0.00000000000E+00  0.62098991143E+03  0.63344571204E+03  0.12500000000E+03 0.  0.
<mgrwt>
<rscale>  0 0.12500000E+03</rscale>
<asrwt>0</asrwt>
<pdfrwt beam="1">  1       21 0.96494998E-01 0.12500000E+03</pdfrwt>
<pdfrwt beam="2">  1       21 0.95813900E-03 0.12500000E+03</pdfrwt>
<totfact> 0.35622492E+06</totfact>
</mgrwt>
</event>
<event>
 3    1  0.1597250E-001  0.1250000E+03  0.7546771E-02  0.1235069E+00
         21   -1    0    0  502  501  0.00000000000E+00  0.00000000000E+00  0.88152158128E+03  0.88152158128E+03  0.00000000000E+00 0. -1.
         21   -1    0    0  501  502 -0.00000000000E+00 -0.00000000000E+00 -0.44312585000E+01  0.44312585000E+01  0.00000000000E+00 0. -1.
         25    1    1    2    0    0  0.00000000000E+00  0.00000000000E+00  0.87709032278E+03  0.88595283978E+03  0.12500000000E+03 0.  0.
<mgrwt>
<rscale>  0 0.12500000E+03</rscale>
<asrwt>0</asrwt>
<pdfrwt beam="1">  1       21 0.13561857E+00 0.12500000E+03</pdfrwt>
<pdfrwt beam="2">  1       21 0.68173278E-03 0.12500000E+03</pdfrwt>
<totfact> 0.26703873E+06</totfact>
</mgrwt>
</event>
<event>
 3    1  0.1597250E-001  0.1250000E+03  0.7546771E-02  0.1235069E+00
         21   -1    0    0  502  501  0.00000000000E+00  0.00000000000E+00  0.13113822659E+03  0.13113822659E+03  0.00000000000E+00 0. -1.
         21   -1    0    0  501  502 -0.00000000000E+00 -0.00000000000E+00 -0.29787271810E+02  0.29787271810E+02  0.00000000000E+00 0. -1.
         25    1    1    2    0    0  0.00000000000E+00  0.00000000000E+00  0.10135095478E+03  0.16092549840E+03  0.12500000000E+03 0.  0.
<mgrwt>
<rscale>  0 0.12500000E+03</rscale>
<asrwt>0</asrwt>
<pdfrwt beam="1">  1       21 0.20175111E-01 0.12500000E+03</pdfrwt>
<pdfrwt beam="2">  1       21 0.45826573E-02 0.12500000E+03</pdfrwt>
<totfact> 0.69406587E+06</totfact>
</mgrwt>
</event>
<event>
 3    1  0.1597250E-001  0.1250000E+03  0.7546771E-02  0.1235069E+00
         21   -1    0    0  502  501  0.00000000000E+00  0.00000000000E+00  0.24965008610E+03  0.24965008610E+03  0.00000000000E+00 0. -1.
         21   -1    0    0  501  502 -0.00000000000E+00 -0.00000000000E+00 -0.15646900272E+02  0.15646900272E+02  0.00000000000E+00 0. -1.
         25    1    1    2    0    0  0.00000000000E+00  0.00000000000E+00  0.23400318582E+03  0.26529698637E+03  0.12500000000E+03 0.  0.
<mgrwt>
<rscale>  0 0.12500000E+03</rscale>
<asrwt>0</asrwt>
<pdfrwt beam="1">  1       21 0.38407703E-01 0.12500000E+03</pdfrwt>
<pdfrwt beam="2">  1       21 0.24072156E-02 0.12500000E+03</pdfrwt>
<totfact> 0.58467152E+06</totfact>
</mgrwt>
</event>
<event>
 3    1  0.1597250E-001  0.1250000E+03  0.7546771E-02  0.1235069E+00
         21   -1    0    0  502  501  0.00000000000E+00  0.00000000000E+00  0.63816649319E+03  0.63816649319E+03  0.00000000000E+00 0.  1.
         21   -1    0    0  501  502 -0.00000000000E+00 -0.00000000000E+00 -0.61210515464E+01  0.61210515464E+01  0.00000000000E+00 0.  1.
         25    1    1    2    0    0  0.00000000000E+00  0.00000000000E+00  0.63204544164E+03  0.64428754473E+03  0.12500000000E+03 0.  0.
<mgrwt>
<rscale>  0 0.12500000E+03</rscale>
<asrwt>0</asrwt>
<pdfrwt beam="1">  1       21 0.98179408E-01 0.12500000E+03</pdfrwt>
<pdfrwt beam="2">  1       21 0.94170074E-03 0.12500000E+03</pdfrwt>
<totfact> 0.35163245E+06</totfact>
</mgrwt>
</event>
<event>
 3    1  0.1597250E-001  0.1250000E+03  0.7546771E-02  0.1235069E+00
         21   -1    0    0  502  501  0.00000000000E+00  0.00000000000E+00  0.10996479945E+04  0.10996479945E+04  0.00000000000E+00 0. -1.
         21   -1    0    0  501  502 -0.00000000000E+00 -0.00000000000E+00 -0.35522731088E+01  0.35522731088E+01  0.00000000000E+00 0. -1.
         25    1    1    2    0    0  0.00000000000E+00  0.00000000000E+00  0.10960957214E+04  0.11032002676E+04  0.12500000000E+03 0.  0.
<mgrwt>
<rscale>  0 0.12500000E+03</rscale>
<asrwt>0</asrwt>
<pdfrwt beam="1">  1       21 0.16917634E+00 0.12500000E+03</pdfrwt>
<pdfrwt beam="2">  1       21 0.54650443E-03 0.12500000E+03</pdfrwt>
<totfact> 0.21180412E+06</totfact>
</mgrwt>
</event>
<event>
 3    1  0.1597250E-001  0.1250000E+03  0.7546771E-02  0.1235069E+00
         21   -1    0    0  502  501  0.00000000000E+00  0.00000000000E+00  0.38587130054E+02  0.38587130054E+02  0.00000000000E+00 0.  1.
         21   -1    0    0  501  502 -0.00000000000E+00 -0.00000000000E+00 -0.10123193911E+03  0.10123193911E+03  0.00000000000E+00 0.  1.
         25    1    1    2    0    0  0.00000000000E+00  0.00000000000E+00 -0.62644809054E+02  0.13981906916E+03  0.12500000000E+03 0.  0.
<mgrwt>
<rscale>  0 0.12500000E+03</rscale>
<asrwt>0</asrwt>
<pdfrwt beam="1">  1       21 0.59364816E-02 0.12500000E+03</pdfrwt>
<pdfrwt beam="2">  1       21 0.15574144E-01 0.12500000E+03</pdfrwt>
<totfact> 0.72062937E+06</totfact>
</mgrwt>
</event>
<event>
 3    1  0.1597250E-001  0.1250000E+03  0.7546771E-02  0.1235069E+00
         21   -1    0    0  502  501  0.00000000000E+00  0.00000000000E+00  0.58307136294E+03  0.58307136294E+03  0.00000000000E+00 0.  1.
         21   -1    0    0  501  502 -0.00000000000E+00 -0.00000000000E+00 -0.66994372357E+01  0.66994372357E+01  0.00000000000E+00 0.  1.
         25    1    1    2    0    0  0.00000000000E+00  0.00000000000E+00  0.57637192571E+03  0.58977080018E+03  0.12500000000E+03 0.  0.
<mgrwt>
<rscale>  0 0.12500000E+03</rscale>
<asrwt>0</asrwt>
<pdfrwt beam="1">  1       21 0.89703247E-01 0.12500000E+03</pdfrwt>
<pdfrwt beam="2">  1       21 0.10306831E-02 0.12500000E+03</pdfrwt>
<totfact> 0.37559368E+06</totfact>
</mgrwt>
</event>
<event>
 3    1  0.1597250E-001  0.1250000E+03  0.7546771E-02  0.1235069E+00
         21   -1    0    0  502  501  0.00000000000E+00  0.00000000000E+00  0.43231274417E+02  0.43231274417E+02  0.00000000000E+00 0. -1.
         21   -1    0    0  501  502 -0.00000000000E+00 -0.00000000000E+00 -0.90357040192E+02  0.90357040192E+02  0.00000000000E+00 0. -1.
         25    1    1    2    0    0  0.00000000000E+00  0.00000000000E+00 -0.47125765775E+02  0.13358831461E+03  0.12500000000E+03 0.  0.
<mgrwt>
<rscale>  0 0.12500000E+03</rscale>
<asrwt>0</asrwt>
<pdfrwt beam="1">  1       21 0.66509654E-02 0.12500000E+03</pdfrwt>
<pdfrwt beam="2">  1       21 0.13901083E-01 0.12500000E+03</pdfrwt>
<totfact> 0.72883939E+06</totfact>
</mgrwt>
</event>
<event>
 3    1  0.1597250E-001  0.1250000E+03  0.7546771E-02  0.1235069E+00
         21   -1    0    0  502  501  0.00000000000E+00  0.00000000000E+00  0.12340776071E+02  0.12340776071E+02  0.00000000000E+00 0. -1.
         21   -1    0    0  501  502 -0.00000000000E+00 -0.00000000000E+00 -0.31653195695E+03  0.31653195695E+03  0.00000000000E+00 0. -1.
         25    1    1    2    0    0  0.00000000000E+00  0.00000000000E+00 -0.30419118088E+03  0.32887273302E+03  0.12500000000E+03 0.  0.
<mgrwt>
<rscale>  0 0.12500000E+03</rscale>
<asrwt>0</asrwt>
<pdfrwt beam="1">  1       21 0.18985809E-02 0.12500000E+03</pdfrwt>
<pdfrwt beam="2">  1       21 0.48697226E-01 0.12500000E+03</pdfrwt>
<totfact> 0.53137629E+06</totfact>
</mgrwt>
</event>
<event>
 3    1  0.1597250E-001  0.1250000E+03  0.7546771E-02  0.1235069E+00
         21   -1    0    0  502  501  0.00000000000E+00  0.00000000000E+00  0.45841911855E+03  0.45841911855E+03  0.00000000000E+00 0. -1.
         21   -1    0    0  501  502 -0.00000000000E+00 -0.00000000000E+00 -0.85211323916E+01  0.85211323916E+01  0.00000000000E+00 0. -1.
         25    1    1    2    0    0  0.00000000000E+00  0.00000000000E+00  0.44989798616E+03  0.46694025094E+03  0.12500000000E+03 0.  0.
<mgrwt>
<rscale>  0 0.12500000E+03</rscale>
<asrwt>0</asrwt>
<pdfrwt beam="1">  1       21 0.70525999E-01 0.12500000E+03</pdfrwt>
<pdfrwt beam="2">  1       21 0.13109438E-02 0.12500000E+03</pdfrwt>
<totfact> 0.43895659E+06</totfact>
</mgrwt>
</event>
<event>
 3    1  0.1597250E-001  0.1250000E+03  0.7546771E-02  0.1235069E+00
         21   -1    0    0  502  501  0.00000000000E+00  0.00000000000E+00  0.10293141659E+03  0.10293141659E+03  0.00000000000E+00 0. -1.
         21   -1    0    0  501  502 -0.00000000000E+00 -0.00000000000E+00 -0.37950026623E+02  0.37950026623E+02  0.00000000000E+00 0. -1.
         25    1    1    2    0    0  0.00000000000E+00  0.00000000000E+00  0.64981389970E+02  0.14088144322E+03  0.12500000000E+03 0.  0.
<mgrwt>
<rscale>  0 0.12500000E+03</rscale>
<asrwt>0</asrwt>
<pdfrwt beam="1">  1       21 0.15835602E-01 0.12500000E+03</pdfrwt>
<pdfrwt beam="2">  1       21 0.58384657E-02 0.12500000E+03</pdfrwt>
<totfact> 0.71924446E+06</totfact>
</mgrwt>
</event>
<event>
 3    1  0.1597250E-001  0.1250000E+03  0.7546771E-02  0.1235069E+00
         21   -1    0    0  502  501  0.00000000000E+00  0.00000000000E+00  0.40728027055E+02  0.40728027055E+02  0.00000000000E+00 0. -1.
         21   -1    0    0  501  502 -0.00000000000E+00 -0.00000000000E+00 -0.95910611989E+02  0.95910611989E+02  0.00000000000E+00 0. -1.
         25    1    1    2    0    0  0.00000000000E+00  0.00000000000E+00 -0.55182584934E+02  0.13663863904E+03  0.12500000000E+03 0.  0.
<mgrwt>
<rscale>  0 0.12500000E+03</rscale>
<asrwt>0</asrwt>
<pdfrwt beam="1">  1       21 0.62658504E-02 0.12500000E+03</pdfrwt>
<pdfrwt beam="2">  1       21 0.14755479E-01 0.12500000E+03</pdfrwt>
<totfact> 0.72480225E+06</totfact>
</mgrwt>
</event>
<event>
 3    1  0.1597250E-001  0.1250000E+03  0.7546771E-02  0.1235069E+00
         21   -1    0    0  502  501  0.00000000000E+00  0.00000000000E+00  0.13999641939E+02  0.13999641939E+02  0.00000000000E+00 0.  1.
         21   -1    0    0  501  502 -0.00000000000E+00 -0.00000000000E+00 -0.27902499342E+03  0.27902499342E+03  0.00000000000E+00 0.  1.
         25    1    1    2    0    0  0.00000000000E+00  0.00000000000E+00 -0.26502535149E+03  0.29302463536E+03  0.12500000000E+03 0.  0.
<mgrwt>
<rscale>  0 0.12500000E+03</rscale>
<asrwt>0</asrwt>
<pdfrwt beam="1">  1       21 0.21537911E-02 0.12500000E+03</pdfrwt>
<pdfrwt beam="2">  1       21 0.42926922E-01 0.12500000E+03</pdfrwt>
<totfact> 0.56040881E+06</totfact>
</mgrwt>
</event>
<event>
 3    1  0.1597250E-001  0.1250000E+03  0.7546771E-02  0.1235069E+00
         21   -1    0    0  502  501  0.00000000000E+00  0.00000000000E+00  0.97906158891E+02  0.97906158891E+02  0.00000000000E+00 0. -1.
         21   -1    0    0  501  502 -0.00000000000E+00 -0.00000000000E+00 -0.39897898603E+02  0.39897898603E+02  0.00000000000E+00 0. -1.
         25    1    1    2    0    0  0.00000000000E+00  0.00000000000E+00  0.58008260288E+02  0.13780405749E+03  0.12500000000E+03 0.  0.
<mgrwt>
<rscale>  0 0.12500000E+03</rscale>
<asrwt>0</asrwt>
<pdfrwt beam="1">  1       21 0.15062486E-01 0.12500000E+03</pdfrwt>
<pdfrwt beam="2">  1       21 0.61381383E-02 0.12500000E+03</pdfrwt>
<totfact> 0.72327280E+06</totfact>
</mgrwt>
</event>
<event>
 3    1  0.1597250E-001  0.1250000E+03  0.7546771E-02  0.1235069E+00
         21   -1    0    0  502  501  0.00000000000E+00  0.00000000000E+00  0.16908050075E+03  0.16908050075E+03  0.00000000000E+00 0.  1.
         21   -1    0    0  501  502 -0.00000000000E+00 -0.00000000000E+00 -0.23102900587E+02  0.23102900587E+02  0.00000000000E+00 0.  1.
         25    1    1    2    0    0  0.00000000000E+00  0.00000000000E+00  0.14597760016E+03  0.19218340134E+03  0.12500000000E+03 0.  0.
<mgrwt>
<rscale>  0 0.12500000E+03</rscale>
<asrwt>0</asrwt>
<pdfrwt beam="1">  1       21 0.26012384E-01 0.12500000E+03</pdfrwt>
<pdfrwt beam="2">  1       21 0.35542925E-02 0.12500000E+03</pdfrwt>
<totfact> 0.65780618E+06</totfact>
</mgrwt>
</event>
<event>
 3    1  0.1597250E-001  0.1250000E+03  0.7546771E-02  0.1235069E+00
         21   -1    0    0  502  501  0.00000000000E+00  0.00000000000E+00  0.42339330413E+02  0.42339330413E+02  0.00000000000E+00 0. -1.
         21   -1    0    0  501  502 -0.00000000000E+00 -0.00000000000E+00 -0.92260552114E+02  0.92260552114E+02  0.00000000000E+00 0. -1.
         25    1    1    2    0    0  0.00000000000E+00  0.00000000000E+00 -0.49921221701E+02  0.13459988253E+03  0.12500000000E+03 0.  0.
<mgrwt>
<rscale>  0 0.12500000E+03</rscale>
<asrwt>0</asrwt>
<pdfrwt beam="1">  1       21 0.65137432E-02 0.12500000E+03</pdfrwt>
<pdfrwt beam="2">  1       21 0.14193931E-01 0.12500000E+03</pdfrwt>
<totfact> 0.72749494E+06</totfact>
</mgrwt>
</event>
<event>
 3    1  0.1597250E-001  0.1250000E+03  0.7546771E-02  0.1235069E+00
         21   -1    0    0  502  501  0.00000000000E+00  0.00000000000E+00  0.10034858422E+02  0.10034858422E+02  0.00000000000E+00 0. -1.
         21   -1    0    0  501  502 -0.00000000000E+00 -0.00000000000E+00 -0.38926807293E+03  0.38926807293E+03  0.00000000000E+00 0. -1.
         25    1    1    2    0    0  0.00000000000E+00  0.00000000000E+00 -0.37923321451E+03  0.39930293135E+03  0.12500000000E+03 0.  0.
<mgrwt>
<rscale>  0 0.12500000E+03</rscale>
<asrwt>0</asrwt>
<pdfrwt beam="1">  1       21 0.15438242E-02 0.12500000E+03</pdfrwt>
<pdfrwt beam="2">  1       21 0.59887404E-01 0.12500000E+03</pdfrwt>
<totfact> 0.48087617E+06</totfact>
</mgrwt>
</event>
<event>
 3    1  0.1597250E-001  0.1250000E+03  0.7546771E-02  0.1235069E+00
         21   -1    0    0  502  501  0.00000000000E+00  0.00000000000E+00  0.13852719101E+02  0.13852719101E+02  0.00000000000E+00 0.  1.
         21   -1    0    0  501  502 -0.00000000000E+00 -0.00000000000E+00 -0.28198435062E+03  0.28198435062E+03  0.00000000000E+00 0.  1.
         25    1    1    2    0    0  0.00000000000E+00  0.00000000000E+00 -0.26813163152E+03  0.29583706973E+03  0.12500000000E+03 0.  0.
<mgrwt>
<rscale>  0 0.12500000E+03</rscale>
<asrwt>0</asrwt>
<pdfrwt beam="1">  1       21 0.21311876E-02 0.12500000E+03</pdfrwt>
<pdfrwt beam="2">  1       21 0.43382207E-01 0.12500000E+03</pdfrwt>
<totfact> 0.55803914E+06</totfact>
</mgrwt>
</event>
<event>
 3    1  0.1597250E-001  0.1250000E+03  0.7546771E-02  0.1235069E+00
         21   -1    0    0  502  501  0.00000000000E+00  0.00000000000E+00  0.25066588861E+03  0.25066588861E+03  0.00000000000E+00 0.  1.
         21   -1    0    0  501  502 -0.00000000000E+00 -0.00000000000E+00 -0.15583492519E+02  0.15583492519E+02  0.00000000000E+00 0.  1.
         25    1    1    2    0    0  0.00000000000E+00  0.00000000000E+00  0.23508239609E+03  0.26624938113E+03  0.12500000000E+03 0.  0.
<mgrwt>
<rscale>  0 0.12500000E+03</rscale>
<asrwt>0</asrwt>
<pdfrwt beam="1">  1       21 0.38563980E-01 0.12500000E+03</pdfrwt>
<pdfrwt beam="2">  1       21 0.23974606E-02 0.12500000E+03</pdfrwt>
<totfact> 0.58381177E+06</totfact>
</mgrwt>
</event>
<event>
 3    1  0.1597250E-001  0.1250000E+03  0.7546771E-02  0.1235069E+00
         21   -1    0    0  502  501  0.00000000000E+00  0.00000000000E+00  0.65673121987E+01  0.65673121987E+01  0.00000000000E+00 0.  1.
         21   -1    0    0  501  502 -0.00000000000E+00 -0.00000000000E+00 -0.59480193446E+03  0.59480193446E+03  0.00000000000E+00 0.  1.
         25    1    1    2    0    0  0.00000000000E+00  0.00000000000E+00 -0.58823462226E+03  0.60136924666E+03  0.12500000000E+03 0.  0.
<mgrwt>
<rscale>  0 0.12500000E+03</rscale>
<asrwt>0</asrwt>
<pdfrwt beam="1">  1       21 0.10103561E-02 0.12500000E+03</pdfrwt>
<pdfrwt beam="2">  1       21 0.91507960E-01 0.12500000E+03</pdfrwt>
<totfact> 0.37030790E+06</totfact>
</mgrwt>
</event>
<event>
 3    1  0.1597250E-001  0.1250000E+03  0.7546771E-02  0.1235069E+00
         21   -1    0    0  502  501  0.00000000000E+00  0.00000000000E+00  0.10252357782E+03  0.10252357782E+03  0.00000000000E+00 0.  1.
         21   -1    0    0  501  502 -0.00000000000E+00 -0.00000000000E+00 -0.38100991822E+02  0.38100991822E+02  0.00000000000E+00 0.  1.
         25    1    1    2    0    0  0.00000000000E+00  0.00000000000E+00  0.64422585995E+02  0.14062456964E+03  0.12500000000E+03 0.  0.
<mgrwt>
<rscale>  0 0.12500000E+03</rscale>
<asrwt>0</asrwt>
<pdfrwt beam="1">  1       21 0.15772858E-01 0.12500000E+03</pdfrwt>
<pdfrwt beam="2">  1       21 0.58616911E-02 0.12500000E+03</pdfrwt>
<totfact> 0.71957877E+06</totfact>
</mgrwt>
</event>
<event>
 3    1  0.1597250E-001  0.1250000E+03  0.7546771E-02  0.1235069E+00
         21   -1    0    0  502  501  0.00000000000E+00  0.00000000000E+00  0.32596536818E+03  0.32596536818E+03  0.00000000000E+00 0.  1.
         21   -1    0    0  501  502 -0.00000000000E+00 -0.00000000000E+00 -0.11983635016E+02  0.11983635016E+02  0.00000000000E+00 0.  1.
         25    1    1    2    0    0  0.00000000000E+00  0.00000000000E+00  0.31398173316E+03  0.33794900319E+03  0.12500000000E+03 0.  0.
<mgrwt>
<rscale>  0 0.12500000E+03</rscale>
<asrwt>0</asrwt>
<pdfrwt beam="1">  1       21 0.50148512E-01 0.12500000E+03</pdfrwt>
<pdfrwt beam="2">  1       21 0.18436364E-02 0.12500000E+03</pdfrwt>
<totfact> 0.52440939E+06</totfact>
</mgrwt>
</event>
<event>
 3    1  0.1597250E-001  0.1250000E+03  0.7546771E-02  0.1235069E+00
         21   -1    0    0  502  501  0.00000000000E+00  0.00000000000E+00  0.15145088974E+03  0.15145088974E+03  0.00000000000E+00 0. -1.
         21   -1    0    0  501  502 -0.00000000000E+00 -0.00000000000E+00 -0.25792189183E+02  0.25792189183E+02  0.00000000000E+00 0. -1.
         25    1    1    2    0    0  0.00000000000E+00  0.00000000000E+00  0.12565870055E+03  0.17724307892E+03  0.12500000000E+03 0.  0.
<mgrwt>
<rscale>  0 0.12500000E+03</rscale>
<asrwt>0</asrwt>
<pdfrwt beam="1">  1       21 0.23300136E-01 0.12500000E+03</pdfrwt>
<pdfrwt beam="2">  1       21 0.39680292E-02 0.12500000E+03</pdfrwt>
<totfact> 0.67469218E+06</totfact>
</mgrwt>
</event>
<event>
 3    1  0.1597250E-001  0.1250000E+03  0.7546771E-02  0.1235069E+00
         21   -1    0    0  502  501  0.00000000000E+00  0.00000000000E+00  0.81712699999E+02  0.81712699999E+02  0.00000000000E+00 0.  1.
         21   -1    0    0  501  502 -0.00000000000E+00 -0.00000000000E+00 -0.47804686420E+02  0.47804686420E+02  0.00000000000E+00 0.  1.
         25    1    1    2    0    0  0.00000000000E+00  0.00000000000E+00  0.33908013579E+02  0.12951738642E+03  0.12500000000E+03 0.  0.
<mgrwt>
<rscale>  0 0.12500000E+03</rscale>
<asrwt>0</asrwt>
<pdfrwt beam="1">  1       21 0.12571185E-01 0.12500000E+03</pdfrwt>
<pdfrwt beam="2">  1       21 0.73545672E-02 0.12500000E+03</pdfrwt>
<totfact> 0.73429487E+06</totfact>
</mgrwt>
</event>
<event>
 3    1  0.1597250E-001  0.1250000E+03  0.7546771E-02  0.1235069E+00
         21   -1    0    0  502  501  0.00000000000E+00  0.00000000000E+00  0.64881226038E+01  0.64881226038E+01  0.00000000000E+00 0. -1.
         21   -1    0    0  501  502 -0.00000000000E+00 -0.00000000000E+00 -0.60206168078E+03  0.60206168078E+03  0.00000000000E+00 0. -1.
         25    1    1    2    0    0  0.00000000000E+00  0.00000000000E+00 -0.59557355818E+03  0.60854980339E+03  0.12500000000E+03 0.  0.
<mgrwt>
<rscale>  0 0.12500000E+03</rscale>
<asrwt>0</asrwt>
<pdfrwt beam="1">  1       21 0.99817298E-03 0.12500000E+03</pdfrwt>
<pdfrwt beam="2">  1       21 0.92624849E-01 0.12500000E+03</pdfrwt>
<totfact> 0.36708817E+06</totfact>
</mgrwt>
</event>
<event>
 3    1  0.1597250E-001  0.1250000E+03  0.7546771E-02  0.1235069E+00
         21   -1    0    0  502  501  0.00000000000E+00  0.00000000000E+00  0.63751714093E+02  0.63751714093E+02  0.00000000000E+00 0.  1.
         21   -1    0    0  501  502 -0.00000000000E+00 -0.00000000000E+00 -0.61272862315E+02  0.61272862315E+02  0.00000000000E+00 0.  1.
         25    1    1    2    0    0  0.00000000000E+00  0.00000000000E+00  0.24788517775E+01  0.12502457641E+03  0.12500000000E+03 0.  0.
<mgrwt>
<rscale>  0 0.12500000E+03</rscale>
<asrwt>0</asrwt>
<pdfrwt beam="1">  1       21 0.98079560E-02 0.12500000E+03</pdfrwt>
<pdfrwt beam="2">  1       21 0.94265942E-02 0.12500000E+03</pdfrwt>
<totfact> 0.74040262E+06</totfact>
</mgrwt>
</event>
<event>
 3    1  0.1597250E-001  0.1250000E+03  0.7546771E-02  0.1235069E+00
         21   -1    0    0  502  501  0.00000000000E+00  0.00000000000E+00  0.16141166590E+02  0.16141166590E+02  0.00000000000E+00 0.  1.
         21   -1    0    0  501  502 -0.00000000000E+00 -0.00000000000E+00 -0.24200543240E+03  0.24200543240E+03  0.00000000000E+00 0.  1.
         25    1    1    2    0    0  0.00000000000E+00  0.00000000000E+00 -0.22586426581E+03  0.25814659899E+03  0.12500000000E+03 0.  0.
<mgrwt>
<rscale>  0 0.12500000E+03</rscale>
<asrwt>0</asrwt>
<pdfrwt beam="1">  1       21 0.24832565E-02 0.12500000E+03</pdfrwt>
<pdfrwt beam="2">  1       21 0.37231604E-01 0.12500000E+03</pdfrwt>
<totfact> 0.59119565E+06</totfact>
</mgrwt>
</event>
<event>
 3    1  0.1597250E-001  0.1250000E+03  0.7546771E-02  0.1235069E+00
         21   -1    0    0  502  501  0.00000000000E+00  0.00000000000E+00  0.23188711997E+03  0.23188711997E+03  0.00000000000E+00 0. -1.
         21   -1    0    0  501  502 -0.00000000000E+00 -0.00000000000E+00 -0.16845480683E+02  0.16845480683E+02  0.00000000000E+00 0. -1.
         25    1    1    2    0    0  0.00000000000E+00  0.00000000000E+00  0.21504163929E+03  0.24873260065E+03  0.12500000000E+03 0.  0.
<mgrwt>
<rscale>  0 0.12500000E+03</rscale>
<asrwt>0</asrwt>
<pdfrwt beam="1">  1       21 0.35674939E-01 0.12500000E+03</pdfrwt>
<pdfrwt beam="2">  1       21 0.25916126E-02 0.12500000E+03</pdfrwt>
<totfact> 0.59997719E+06</totfact>
</mgrwt>
</event>
<event>
 3    1  0.1597250E-001  0.1250000E+03  0.7546771E-02  0.1235069E+00
         21   -1    0    0  502  501  0.00000000000E+00  0.00000000000E+00  0.23820555970E+02  0.23820555970E+02  0.00000000000E+00 0.  1.
         21   -1    0    0  501  502 -0.00000000000E+00 -0.00000000000E+00 -0.16398651672E+03  0.16398651672E+03  0.00000000000E+00 0.  1.
         25    1    1    2    0    0  0.00000000000E+00  0.00000000000E+00 -0.14016596075E+03  0.18780707270E+03  0.12500000000E+03 0.  0.
<mgrwt>
<rscale>  0 0.12500000E+03</rscale>
<asrwt>0</asrwt>
<pdfrwt beam="1">  1       21 0.36647010E-02 0.12500000E+03</pdfrwt>
<pdfrwt beam="2">  1       21 0.25228695E-01 0.12500000E+03</pdfrwt>
<totfact> 0.66267020E+06</totfact>
</mgrwt>
</event>
<event>
 3    1  0.1597250E-001  0.1250000E+03  0.7546771E-02  0.1235069E+00
         21   -1    0    0  502  501  0.00000000000E+00  0.00000000000E+00  0.16551713285E+04  0.16551713285E+04  0.00000000000E+00 0. -1.
         21   -1    0    0  501  502 -0.00000000000E+00 -0.00000000000E+00 -0.23600275891E+01  0.23600275891E+01  0.00000000000E+00 0. -1.
         25    1    1    2    0    0  0.00000000000E+00  0.00000000000E+00  0.16528113010E+04  0.16575313561E+04  0.12500000000E+03 0.  0.
<mgrwt>
<rscale>  0 0.12500000E+03</rscale>
<asrwt>0</asrwt>
<pdfrwt beam="1">  1       21 0.25464082E+00 0.12500000E+03</pdfrwt>
<pdfrwt beam="2">  1       21 0.36308249E-03 0.12500000E+03</pdfrwt>
<totfact> 0.11810078E+06</totfact>
</mgrwt>
</event>
<event>
 3    1  0.1597250E-001  0.1250000E+03  0.7546771E-02  0.1235069E+00
         21   -1    0    0  502  501  0.00000000000E+00  0.00000000000E+00  0.53600795247E+03  0.53600795247E+03  0.00000000000E+00 0.  1.
         21   -1    0    0  501  502 -0.00000000000E+00 -0.00000000000E+00 -0.72876717257E+01  0.72876717257E+01  0.00000000000E+00 0.  1.
         25    1    1    2    0    0  0.00000000000E+00  0.00000000000E+00  0.52872028075E+03  0.54329562420E+03  0.12500000000E+03 0.  0.
<mgrwt>
<rscale>  0 0.12500000E+03</rscale>
<asrwt>0</asrwt>
<pdfrwt beam="1">  1       21 0.82462731E-01 0.12500000E+03</pdfrwt>
<pdfrwt beam="2">  1       21 0.11211807E-02 0.12500000E+03</pdfrwt>
<totfact> 0.39789363E+06</totfact>
</mgrwt>
</event>
<event>
 3    1  0.1597250E-001  0.1250000E+03  0.7546771E-02  0.1235069E+00
         21   -1    0    0  502  501  0.00000000000E+00  0.00000000000E+00  0.77308040264E+02  0.77308040264E+02  0.00000000000E+00 0.  1.
         21   -1    0    0  501  502 -0.00000000000E+00 -0.00000000000E+00 -0.50528379541E+02  0.50528379541E+02  0.00000000000E+00 0.  1.
         25    1    1    2    0    0  0.00000000000E+00  0.00000000000E+00  0.26779660723E+02  0.12783641980E+03  0.12500000000E+03 0.  0.
<mgrwt>
<rscale>  0 0.12500000E+03</rscale>
<asrwt>0</asrwt>
<pdfrwt beam="1">  1       21 0.11893545E-01 0.12500000E+03</pdfrwt>
<pdfrwt beam="2">  1       21 0.77735969E-02 0.12500000E+03</pdfrwt>
<totfact> 0.73655669E+06</totfact>
</mgrwt>
</event>
<event>
 3    1  0.1597250E-001  0.1250000E+03  0.7546771E-02  0.1235069E+00
         21   -1    0    0  502  501  0.00000000000E+00  0.00000000000E+00  0.25051029713E+02  0.25051029713E+02  0.00000000000E+00 0. -1.
         21   -1    0    0  501  502 -0.00000000000E+00 -0.00000000000E+00 -0.15593171398E+03  0.15593171398E+03  0.00000000000E+00 0. -1.
         25    1    1    2    0    0  0.00000000000E+00  0.00000000000E+00 -0.13088068426E+03  0.18098274369E+03  0.12500000000E+03 0.  0.
<mgrwt>
<rscale>  0 0.12500000E+03</rscale>
<asrwt>0</asrwt>
<pdfrwt beam="1">  1       21 0.38540045E-02 0.12500000E+03</pdfrwt>
<pdfrwt beam="2">  1       21 0.23989495E-01 0.12500000E+03</pdfrwt>
<totfact> 0.67038978E+06</totfact>
</mgrwt>
</event>
<event>
 3    1  0.1597250E-001  0.1250000E+03  0.7546771E-02  0.1235069E+00
         21   -1    0    0  502  501  0.00000000000E+00  0.00000000000E+00  0.15645489501E+03  0.15645489501E+03  0.00000000000E+00 0.  1.
         21   -1    0    0  501  502 -0.00000000000E+00 -0.00000000000E+00 -0.24967259732E+02  0.24967259732E+02  0.00000000000E+00 0.  1.
         25    1    1    2    0    0  0.00000000000E+00  0.00000000000E+00  0.13148763528E+03  0.18142215474E+03  0.12500000000E+03 0.  0.
<mgrwt>
<rscale>  0 0.12500000E+03</rscale>
<asrwt>0</asrwt>
<pdfrwt beam="1">  1       21 0.24069983E-01 0.12500000E+03</pdfrwt>
<pdfrwt beam="2">  1       21 0.38411170E-02 0.12500000E+03</pdfrwt>
<totfact> 0.66988765E+06</totfact>
</mgrwt>
</event>
<event>
 3    1  0.1597250E-001  0.1250000E+03  0.7546771E-02  0.1235069E+00
         21   -1    0    0  502  501  0.00000000000E+00  0.00000000000E+00  0.41983308550E+02  0.41983308550E+02  0.00000000000E+00 0. -1.
         21   -1    0    0  501  502 -0.00000000000E+00 -0.00000000000E+00 -0.93042929080E+02  0.93042929080E+02  0.00000000000E+00 0. -1.
         25    1    1    2    0    0  0.00000000000E+00  0.00000000000E+00 -0.51059620530E+02  0.13502623763E+03  0.12500000000E+03 0.  0.
<mgrwt>
<rscale>  0 0.12500000E+03</rscale>
<asrwt>0</asrwt>
<pdfrwt beam="1">  1       21 0.64589706E-02 0.12500000E+03</pdfrwt>
<pdfrwt beam="2">  1       21 0.14314297E-01 0.12500000E+03</pdfrwt>
<totfact> 0.72692998E+06</totfact>
</mgrwt>
</event>
<event>
 3    1  0.1597250E-001  0.1250000E+03  0.7546771E-02  0.1235069E+00
         21   -1    0    0  502  501  0.00000000000E+00  0.00000000000E+00  0.52370012952E+01  0.52370012952E+01  0.00000000000E+00 0. -1.
         21   -1    0    0  501  502 -0.00000000000E+00 -0.00000000000E+00 -0.74589441167E+03  0.74589441167E+03  0.00000000000E+00 0. -1.
         25    1    1    2    0    0  0.00000000000E+00  0.00000000000E+00 -0.74065741038E+03  0.75113141297E+03  0.12500000000E+03 0.  0.
<mgrwt>
<rscale>  0 0.12500000E+03</rscale>
<asrwt>0</asrwt>
<pdfrwt beam="1">  1       21 0.80569245E-03 0.12500000E+03</pdfrwt>
<pdfrwt beam="2">  1       21 0.11475299E+00 0.12500000E+03</pdfrwt>
<totfact> 0.31029104E+06</totfact>
</mgrwt>
</event>
<event>
 3    1  0.1597250E-001  0.1250000E+03  0.7546771E-02  0.1235069E+00
         21   -1    0    0  502  501  0.00000000000E+00  0.00000000000E+00  0.14255272462E+03  0.14255272462E+03  0.00000000000E+00 0. -1.
         21   -1    0    0  501  502 -0.00000000000E+00 -0.00000000000E+00 -0.27402141982E+02  0.27402141982E+02  0.00000000000E+00 0. -1.
         25    1    1    2    0    0  0.00000000000E+00  0.00000000000E+00  0.11515058264E+03  0.16995486660E+03  0.12500000000E+03 0.  0.
<mgrwt>
<rscale>  0 0.12500000E+03</rscale>
<asrwt>0</asrwt>
<pdfrwt beam="1">  1       21 0.21931188E-01 0.12500000E+03</pdfrwt>
<pdfrwt beam="2">  1       21 0.42157143E-02 0.12500000E+03</pdfrwt>
<totfact> 0.68322986E+06</totfact>
</mgrwt>
</event>
<event>
 3    1  0.1597250E-001  0.1250000E+03  0.7546771E-02  0.1235069E+00
         21   -1    0    0  502  501  0.00000000000E+00  0.00000000000E+00  0.12801372573E+02  0.12801372573E+02  0.00000000000E+00 0. -1.
         21   -1    0    0  501  502 -0.00000000000E+00 -0.00000000000E+00 -0.30514306007E+03  0.30514306007E+03  0.00000000000E+00 0. -1.
         25    1    1    2    0    0  0.00000000000E+00  0.00000000000E+00 -0.29234168750E+03  0.31794443265E+03  0.12500000000E+03 0.  0.
<mgrwt>
<rscale>  0 0.12500000E+03</rscale>
<asrwt>0</asrwt>
<pdfrwt beam="1">  1       21 0.19694421E-02 0.12500000E+03</pdfrwt>
<pdfrwt beam="2">  1       21 0.46945083E-01 0.12500000E+03</pdfrwt>
<totfact> 0.53996640E+06</totfact>
</mgrwt>
</event>
<event>
 3    1  0.1597250E-001  0.1250000E+03  0.7546771E-02  0.1235069E+00
         21   -1    0    0  502  501  0.00000000000E+00  0.00000000000E+00  0.68911833594E+02  0.68911833594E+02  0.00000000000E+00 0.  1.
         21   -1    0    0  501  502 -0.00000000000E+00 -0.00000000000E+00 -0.56684749139E+02  0.56684749139E+02  0.00000000000E+00 0.  1.
         25    1    1    2    0    0  0.00000000000E+00  0.00000000000E+00  0.12227084454E+02  0.12559658273E+03  0.12500000000E+03 0.  0.
<mgrwt>
<rscale>  0 0.12500000E+03</rscale>
<asrwt>0</asrwt>
<pdfrwt beam="1">  1       21 0.10601821E-01 0.12500000E+03</pdfrwt>
<pdfrwt beam="2">  1       21 0.87207306E-02 0.12500000E+03</pdfrwt>
<totfact> 0.73961919E+06</totfact>
</mgrwt>
</event>
<event>
 3    1  0.1597250E-001  0.1250000E+03  0.7546771E-02  0.1235069E+00
         21   -1    0    0  502  501  0.00000000000E+00  0.00000000000E+00  0.58382528854E+02  0.58382528854E+02  0.00000000000E+00 0. -1.
         21   -1    0    0  501  502 -0.00000000000E+00 -0.00000000000E+00 -0.66907858852E+02  0.66907858852E+02  0.00000000000E+00 0. -1.
         25    1    1    2    0    0  0.00000000000E+00  0.00000000000E+00 -0.85253299977E+01  0.12529038771E+03  0.12500000000E+03 0.  0.
<mgrwt>
<rscale>  0 0.12500000E+03</rscale>
<asrwt>0</asrwt>
<pdfrwt beam="1">  1       21 0.89819276E-02 0.12500000E+03</pdfrwt>
<pdfrwt beam="2">  1       21 0.10293517E-01 0.12500000E+03</pdfrwt>
<totfact> 0.74004369E+06</totfact>
</mgrwt>
</event>
<event>
 3    1  0.1597250E-001  0.1250000E+03  0.7546771E-02  0.1235069E+00
         21   -1    0    0  502  501  0.00000000000E+00  0.00000000000E+00  0.16142540769E+02  0.16142540769E+02  0.00000000000E+00 0.  1.
         21   -1    0    0  501  502 -0.00000000000E+00 -0.00000000000E+00 -0.24198483100E+03  0.24198483100E+03  0.00000000000E+00 0.  1.
         25    1    1    2    0    0  0.00000000000E+00  0.00000000000E+00 -0.22584229023E+03  0.25812737177E+03  0.12500000000E+03 0.  0.
<mgrwt>
<rscale>  0 0.12500000E+03</rscale>
<asrwt>0</asrwt>
<pdfrwt beam="1">  1       21 0.24834679E-02 0.12500000E+03</pdfrwt>
<pdfrwt beam="2">  1       21 0.37228433E-01 0.12500000E+03</pdfrwt>
<totfact> 0.59121337E+06</totfact>
</mgrwt>
</event>
<event>
 3    1  0.1597250E-001  0.1250000E+03  0.7546771E-02  0.1235069E+00
         21   -1    0    0  502  501  0.00000000000E+00  0.00000000000E+00  0.74020746607E+02  0.74020746607E+02  0.00000000000E+00 0. -1.
         21   -1    0    0  501  502 -0.00000000000E+00 -0.00000000000E+00 -0.52772366925E+02  0.52772366925E+02  0.00000000000E+00 0. -1.
         25    1    1    2    0    0  0.00000000000E+00  0.00000000000E+00  0.21248379682E+02  0.12679311353E+03  0.12500000000E+03 0.  0.
<mgrwt>
<rscale>  0 0.12500000E+03</rscale>
<asrwt>0</asrwt>
<pdfrwt beam="1">  1       21 0.11387807E-01 0.12500000E+03</pdfrwt>
<pdfrwt beam="2">  1       21 0.81188257E-02 0.12500000E+03</pdfrwt>
<totfact> 0.73797327E+06</totfact>
</mgrwt>
</event>
<event>
 3    1  0.1597250E-001  0.1250000E+03  0.7546771E-02  0.1235069E+00
         21   -1    0    0  502  501  0.00000000000E+00  0.00000000000E+00  0.11896396672E+03  0.11896396672E+03  0.00000000000E+00 0. -1.
         21   -1    0    0  501  502 -0.00000000000E+00 -0.00000000000E+00 -0.32835572886E+02  0.32835572886E+02  0.00000000000E+00 0. -1.
         25    1    1    2    0    0  0.00000000000E+00  0.00000000000E+00  0.86128393832E+02  0.15179953960E+03  0.12500000000E+03 0.  0.
<mgrwt>
<rscale>  0 0.12500000E+03</rscale>
<asrwt>0</asrwt>
<pdfrwt beam="1">  1       21 0.18302149E-01 0.12500000E+03</pdfrwt>
<pdfrwt beam="2">  1       21 0.50516266E-02 0.12500000E+03</pdfrwt>
<totfact> 0.70533872E+06</totfact>
</mgrwt>
</event>
<event>
 3    1  0.1597250E-001  0.1250000E+03  0.7546771E-02  0.1235069E+00
         21   -1    0    0  502  501  0.00000000000E+00  0.00000000000E+00  0.69980857435E+02  0.69980857435E+02  0.00000000000E+00 0.  1.
         21   -1    0    0  501  502 -0.00000000000E+00 -0.00000000000E+00 -0.55818835938E+02  0.55818835938E+02  0.00000000000E+00 0.  1.
         25    1    1    2    0    0  0.00000000000E+00  0.00000000000E+00  0.14162021497E+02  0.12579969337E+03  0.12500000000E+03 0.  0.
<mgrwt>
<rscale>  0 0.12500000E+03</rscale>
<asrwt>0</asrwt>
<pdfrwt beam="1">  1       21 0.10766286E-01 0.12500000E+03</pdfrwt>
<pdfrwt beam="2">  1       21 0.85875132E-02 0.12500000E+03</pdfrwt>
<totfact> 0.73933714E+06</totfact>
</mgrwt>
</event>
<event>
 3    1  0.1597250E-001  0.1250000E+03  0.7546771E-02  0.1235069E+00
         21   -1    0    0  502  501  0.00000000000E+00  0.00000000000E+00  0.12065362020E+02  0.12065362020E+02  0.00000000000E+00 0.  1.
         21   -1    0    0  501  502 -0.00000000000E+00 -0.00000000000E+00 -0.32375738030E+03  0.32375738030E+03  0.00000000000E+00 0.  1.
         25    1    1    2    0    0  0.00000000000E+00  0.00000000000E+00 -0.31169201828E+03  0.33582274232E+03  0.12500000000E+03 0.  0.
<mgrwt>
<rscale>  0 0.12500000E+03</rscale>
<asrwt>0</asrwt>
<pdfrwt beam="1">  1       21 0.18562097E-02 0.12500000E+03</pdfrwt>
<pdfrwt beam="2">  1       21 0.49808824E-01 0.12500000E+03</pdfrwt>
<totfact> 0.52602818E+06</totfact>
</mgrwt>
</event>
<event>
 3    1  0.1597250E-001  0.1250000E+03  0.7546771E-02  0.1235069E+00
         21   -1    0    0  502  501  0.00000000000E+00  0.00000000000E+00  0.21475237619E+02  0.21475237619E+02  0.00000000000E+00 0.  1.
         21   -1    0    0  501  502 -0.00000000000E+00 -0.00000000000E+00 -0.18189554264E+03  0.18189554264E+03  0.00000000000E+00 0.  1.
         25    1    1    2    0    0  0.00000000000E+00  0.00000000000E+00 -0.16042030502E+03  0.20337078026E+03  0.12500000000E+03 0.  0.
<mgrwt>
<rscale>  0 0.12500000E+03</rscale>
<asrwt>0</asrwt>
<pdfrwt beam="1">  1       21 0.33038826E-02 0.12500000E+03</pdfrwt>
<pdfrwt beam="2">  1       21 0.27983930E-01 0.12500000E+03</pdfrwt>
<totfact> 0.64563825E+06</totfact>
</mgrwt>
</event>
<event>
 3    1  0.1597250E-001  0.1250000E+03  0.7546771E-02  0.1235069E+00
         21   -1    0    0  502  501  0.00000000000E+00  0.00000000000E+00  0.11289084472E+02  0.11289084472E+02  0.00000000000E+00 0. -1.
         21   -1    0    0  501  502 -0.00000000000E+00 -0.00000000000E+00 -0.34602008779E+03  0.34602008779E+03  0.00000000000E+00 0. -1.
         25    1    1    2    0    0  0.00000000000E+00  0.00000000000E+00 -0.33473100332E+03  0.35730917226E+03  0.12500000000E+03 0.  0.
<mgrwt>
<rscale>  0 0.12500000E+03</rscale>
<asrwt>0</asrwt>
<pdfrwt beam="1">  1       21 0.17367822E-02 0.12500000E+03</pdfrwt>
<pdfrwt beam="2">  1       21 0.53233860E-01 0.12500000E+03</pdfrwt>
<totfact> 0.51003118E+06</totfact>
</mgrwt>
</event>
<event>
 3    1  0.1597250E-001  0.1250000E+03  0.7546771E-02  0.1235069E+00
         21   -1    0    0  502  501  0.00000000000E+00  0.00000000000E+00  0.13775021330E+03  0.13775021330E+03  0.00000000000E+00 0.  1.
         21   -1    0    0  501  502 -0.00000000000E+00 -0.00000000000E+00 -0.28357487850E+02  0.28357487850E+02  0.00000000000E+00 0.  1.
         25    1    1    2    0    0  0.00000000000E+00  0.00000000000E+00  0.10939272545E+03  0.16610770115E+03  0.12500000000E+03 0.  0.
<mgrwt>
<rscale>  0 0.12500000E+03</rscale>
<asrwt>0</asrwt>
<pdfrwt beam="1">  1       21 0.21192340E-01 0.12500000E+03</pdfrwt>
<pdfrwt beam="2">  1       21 0.43626905E-02 0.12500000E+03</pdfrwt>
<totfact> 0.68780795E+06</totfact>
</mgrwt>
</event>
<event>
 3    1  0.1597250E-001  0.1250000E+03  0.7546771E-02  0.1235069E+00
         21   -1    0    0  502  501  0.00000000000E+00  0.00000000000E+00  0.12340273764E+03  0.12340273764E+03  0.00000000000E+00 0.  1.
         21   -1    0    0  501  502 -0.00000000000E+00 -0.00000000000E+00 -0.31654484129E+02  0.31654484129E+02  0.00000000000E+00 0.  1.
         25    1    1    2    0    0  0.00000000000E+00  0.00000000000E+00  0.91748253508E+02  0.15505722177E+03  0.12500000000E+03 0.  0.
<mgrwt>
<rscale>  0 0.12500000E+03</rscale>
<asrwt>0</asrwt>
<pdfrwt beam="1">  1       21 0.18985036E-01 0.12500000E+03</pdfrwt>
<pdfrwt beam="2">  1       21 0.48699207E-02 0.12500000E+03</pdfrwt>
<totfact> 0.70128548E+06</totfact>
</mgrwt>
</event>
<event>
 3    1  0.1597250E-001  0.1250000E+03  0.7546771E-02  0.1235069E+00
         21   -1    0    0  502  501  0.00000000000E+00  0.00000000000E+00  0.38604949999E+02  0.38604949999E+02  0.00000000000E+00 0. -1.
         21   -1    0    0  501  502 -0.00000000000E+00 -0.00000000000E+00 -0.10118521071E+03  0.10118521071E+03  0.00000000000E+00 0. -1.
         25    1    1    2    0    0  0.00000000000E+00  0.00000000000E+00 -0.62580260708E+02  0.13979016071E+03  0.12500000000E+03 0.  0.
<mgrwt>
<rscale>  0 0.12500000E+03</rscale>
<asrwt>0</asrwt>
<pdfrwt beam="1">  1       21 0.59392233E-02 0.12500000E+03</pdfrwt>
<pdfrwt beam="2">  1       21 0.15566955E-01 0.12500000E+03</pdfrwt>
<totfact> 0.72066714E+06</totfact>
</mgrwt>
</event>
<event>
 3    1  0.1597250E-001  0.1250000E+03  0.7546771E-02  0.1235069E+00
         21   -1    0    0  502  501  0.00000000000E+00  0.00000000000E+00  0.55852603669E+02  0.55852603669E+02  0.00000000000E+00 0.  1.
         21   -1    0    0  501  502 -0.00000000000E+00 -0.00000000000E+00 -0.69938547953E+02  0.69938547953E+02  0.00000000000E+00 0.  1.
         25    1    1    2    0    0  0.00000000000E+00  0.00000000000E+00 -0.14085944283E+02  0.12579115162E+03  0.12500000000E+03 0.  0.
<mgrwt>
<rscale>  0 0.12500000E+03</rscale>
<asrwt>0</asrwt>
<pdfrwt beam="1">  1       21 0.85927083E-02 0.12500000E+03</pdfrwt>
<pdfrwt beam="2">  1       21 0.10759777E-01 0.12500000E+03</pdfrwt>
<totfact> 0.73934897E+06</totfact>
</mgrwt>
</event>
<event>
 3    1  0.1597250E-001  0.1250000E+03  0.7546771E-02  0.1235069E+00
         21   -1    0    0  502  501  0.00000000000E+00  0.00000000000E+00  0.32657327775E+02  0.32657327775E+02  0.00000000000E+00 0. -1.
         21   -1    0    0  501  502 -0.00000000000E+00 -0.00000000000E+00 -0.11961327721E+03  0.11961327721E+03  0.00000000000E+00 0. -1.
         25    1    1    2    0    0  0.00000000000E+00  0.00000000000E+00 -0.86955949431E+02  0.15227060498E+03  0.12500000000E+03 0.  0.
<mgrwt>
<rscale>  0 0.12500000E+03</rscale>
<asrwt>0</asrwt>
<pdfrwt beam="1">  1       21 0.50242043E-02 0.12500000E+03</pdfrwt>
<pdfrwt beam="2">  1       21 0.18402043E-01 0.12500000E+03</pdfrwt>
<totfact> 0.70475124E+06</totfact>
</mgrwt>
</event>
<event>
 3    1  0.1597250E-001  0.1250000E+03  0.7546771E-02  0.1235069E+00
         21   -1    0    0  502  501  0.00000000000E+00  0.00000000000E+00  0.19718018893E+03  0.19718018893E+03  0.00000000000E+00 0. -1.
         21   -1    0    0  501  502 -0.00000000000E+00 -0.00000000000E+00 -0.19810560185E+02  0.19810560185E+02  0.00000000000E+00 0. -1.
         25    1    1    2    0    0  0.00000000000E+00  0.00000000000E+00  0.17736962874E+03  0.21699074911E+03  0.12500000000E+03 0.  0.
<mgrwt>
<rscale>  0 0.12500000E+03</rscale>
<asrwt>0</asrwt>
<pdfrwt beam="1">  1       21 0.30335412E-01 0.12500000E+03</pdfrwt>
<pdfrwt beam="2">  1       21 0.30477786E-02 0.12500000E+03</pdfrwt>
<totfact> 0.63131452E+06</totfact>
</mgrwt>
</event>
<event>
 3    1  0.1597250E-001  0.1250000E+03  0.7546771E-02  0.1235069E+00
         21   -1    0    0  502  501  0.00000000000E+00  0.00000000000E+00  0.80015839237E+01  0.80015839237E+01  0.00000000000E+00 0.  1.
         21   -1    0    0  501  502 -0.00000000000E+00 -0.00000000000E+00 -0.48818459411E+03  0.48818459411E+03  0.00000000000E+00 0.  1.
         25    1    1    2    0    0  0.00000000000E+00  0.00000000000E+00 -0.48018301019E+03  0.49618617803E+03  0.12500000000E+03 0.  0.
<mgrwt>
<rscale>  0 0.12500000E+03</rscale>
<asrwt>0</asrwt>
<pdfrwt beam="1">  1       21 0.12310127E-02 0.12500000E+03</pdfrwt>
<pdfrwt beam="2">  1       21 0.75105333E-01 0.12500000E+03</pdfrwt>
<totfact> 0.42251657E+06</totfact>
</mgrwt>
</event>
<event>
 3    1  0.1597250E-001  0.1250000E+03  0.7546771E-02  0.1235069E+00
         21   -1    0    0  502  501  0.00000000000E+00  0.00000000000E+00  0.55689899244E+02  0.55689899244E+02  0.00000000000E+00 0. -1.
         21   -1    0    0  501  502 -0.00000000000E+00 -0.00000000000E+00 -0.70142881439E+02  0.70142881439E+02  0.00000000000E+00 0. -1.
         25    1    1    2    0    0  0.00000000000E+00  0.00000000000E+00 -0.14452982195E+02  0.12583278068E+03  0.12500000000E+03 0.  0.
<mgrwt>
<rscale>  0 0.12500000E+03</rscale>
<asrwt>0</asrwt>
<pdfrwt beam="1">  1       21 0.85676768E-02 0.12500000E+03</pdfrwt>
<pdfrwt beam="2">  1       21 0.10791213E-01 0.12500000E+03</pdfrwt>
<totfact> 0.73929134E+06</totfact>
</mgrwt>
</event>
<event>
 3    1  0.1597250E-001  0.1250000E+03  0.7546771E-02  0.1235069E+00
         21   -1    0    0  502  501  0.00000000000E+00  0.00000000000E+00  0.15302060238E+03  0.15302060238E+03  0.00000000000E+00 0.  1.
         21   -1    0    0  501  502 -0.00000000000E+00 -0.00000000000E+00 -0.25527608305E+02  0.25527608305E+02  0.00000000000E+00 0.  1.
         25    1    1    2    0    0  0.00000000000E+00  0.00000000000E+00  0.12749299407E+03  0.17854821068E+03  0.12500000000E+03 0.  0.
<mgrwt>
<rscale>  0 0.12500000E+03</rscale>
<asrwt>0</asrwt>
<pdfrwt beam="1">  1       21 0.23541631E-01 0.12500000E+03</pdfrwt>
<pdfrwt beam="2">  1       21 0.39273244E-02 0.12500000E+03</pdfrwt>
<totfact> 0.67318473E+06</totfact>
</mgrwt>
</event>
<event>
 3    1  0.1597250E-001  0.1250000E+03  0.7546771E-02  0.1235069E+00
         21   -1    0    0  502  501  0.00000000000E+00  0.00000000000E+00  0.36660790717E+03  0.36660790717E+03  0.00000000000E+00 0. -1.
         21   -1    0    0  501  502 -0.00000000000E+00 -0.00000000000E+00 -0.10655116607E+02  0.10655116607E+02  0.00000000000E+00 0. -1.
         25    1    1    2    0    0  0.00000000000E+00  0.00000000000E+00  0.35595279056E+03  0.37726302378E+03  0.12500000000E+03 0.  0.
<mgrwt>
<rscale>  0 0.12500000E+03</rscale>
<asrwt>0</asrwt>
<pdfrwt beam="1">  1       21 0.56401207E-01 0.12500000E+03</pdfrwt>
<pdfrwt beam="2">  1       21 0.16392490E-02 0.12500000E+03</pdfrwt>
<totfact> 0.49585884E+06</totfact>
</mgrwt>
</event>
<event>
 3    1  0.1597250E-001  0.1250000E+03  0.7546771E-02  0.1235069E+00
         21   -1    0    0  502  501  0.00000000000E+00  0.00000000000E+00  0.36720542290E+02  0.36720542290E+02  0.00000000000E+00 0.  1.
         21   -1    0    0  501  502 -0.00000000000E+00 -0.00000000000E+00 -0.10637778629E+03  0.10637778629E+03  0.00000000000E+00 0.  1.
         25    1    1    2    0    0  0.00000000000E+00  0.00000000000E+00 -0.69657243996E+02  0.14309832858E+03  0.12500000000E+03 0.  0.
<mgrwt>
<rscale>  0 0.12500000E+03</rscale>
<asrwt>0</asrwt>
<pdfrwt beam="1">  1       21 0.56493141E-02 0.12500000E+03</pdfrwt>
<pdfrwt beam="2">  1       21 0.16365813E-01 0.12500000E+03</pdfrwt>
<totfact> 0.71637364E+06</totfact>
</mgrwt>
</event>
<event>
 3    1  0.1597250E-001  0.1250000E+03  0.7546771E-02  0.1235069E+00
         21   -1    0    0  502  501  0.00000000000E+00  0.00000000000E+00  0.17508448068E+03  0.17508448068E+03  0.00000000000E+00 0. -1.
         21   -1    0    0  501  502 -0.00000000000E+00 -0.00000000000E+00 -0.22310658174E+02  0.22310658174E+02  0.00000000000E+00 0. -1.
         25    1    1    2    0    0  0.00000000000E+00  0.00000000000E+00  0.15277382251E+03  0.19739513885E+03  0.12500000000E+03 0.  0.
<mgrwt>
<rscale>  0 0.12500000E+03</rscale>
<asrwt>0</asrwt>
<pdfrwt beam="1">  1       21 0.26936073E-01 0.12500000E+03</pdfrwt>
<pdfrwt beam="2">  1       21 0.34324091E-02 0.12500000E+03</pdfrwt>
<totfact> 0.65209831E+06</totfact>
</mgrwt>
</event>
<event>
 3    1  0.1597250E-001  0.1250000E+03  0.7546771E-02  0.1235069E+00
         21   -1    0    0  502  501  0.00000000000E+00  0.00000000000E+00  0.26990603398E+02  0.26990603398E+02  0.00000000000E+00 0.  1.
         21   -1    0    0  501  502 -0.00000000000E+00 -0.00000000000E+00 -0.14472629390E+03  0.14472629390E+03  0.00000000000E+00 0.  1.
         25    1    1    2    0    0  0.00000000000E+00  0.00000000000E+00 -0.11773569050E+03  0.17171689730E+03  0.12500000000E+03 0.  0.
<mgrwt>
<rscale>  0 0.12500000E+03</rscale>
<asrwt>0</asrwt>
<pdfrwt beam="1">  1       21 0.41524006E-02 0.12500000E+03</pdfrwt>
<pdfrwt beam="2">  1       21 0.22265584E-01 0.12500000E+03</pdfrwt>
<totfact> 0.68114688E+06</totfact>
</mgrwt>
</event>
<event>
 3    1  0.1597250E-001  0.1250000E+03  0.7546771E-02  0.1235069E+00
         21   -1    0    0  502  501  0.00000000000E+00  0.00000000000E+00  0.13772183500E+04  0.13772183500E+04  0.00000000000E+00 0. -1.
         21   -1    0    0  501  502 -0.00000000000E+00 -0.00000000000E+00 -0.28363331059E+01  0.28363331059E+01  0.00000000000E+00 0. -1.
         25    1    1    2    0    0  0.00000000000E+00  0.00000000000E+00  0.13743820169E+04  0.13800546831E+04  0.12500000000E+03 0.  0.
<mgrwt>
<rscale>  0 0.12500000E+03</rscale>
<asrwt>0</asrwt>
<pdfrwt beam="1">  1       21 0.21187921E+00 0.12500000E+03</pdfrwt>
<pdfrwt beam="2">  1       21 0.43636004E-03 0.12500000E+03</pdfrwt>
<totfact> 0.15872678E+06</totfact>
</mgrwt>
</event>
<event>
 3    1  0.1597250E-001  0.1250000E+03  0.7546771E-02  0.1235069E+00
         21   -1    0    0  502  501  0.00000000000E+00  0.00000000000E+00  0.66081787468E+01  0.66081787468E+01  0.00000000000E+00 0. -1.
         21   -1    0    0  501  502 -0.00000000000E+00 -0.00000000000E+00 -0.59112353792E+03  0.59112353792E+03  0.00000000000E+00 0. -1.
         25    1    1    2    0    0  0.00000000000E+00  0.00000000000E+00 -0.58451535917E+03  0.59773171666E+03  0.12500000000E+03 0.  0.
<mgrwt>
<rscale>  0 0.12500000E+03</rscale>
<asrwt>0</asrwt>
<pdfrwt beam="1">  1       21 0.10166425E-02 0.12500000E+03</pdfrwt>
<pdfrwt beam="2">  1       21 0.90942116E-01 0.12500000E+03</pdfrwt>
<totfact> 0.37195402E+06</totfact>
</mgrwt>
</event>
<event>
 3    1  0.1597250E-001  0.1250000E+03  0.7546771E-02  0.1235069E+00
         21   -1    0    0  502  501  0.00000000000E+00  0.00000000000E+00  0.17690646400E+03  0.17690646400E+03  0.00000000000E+00 0. -1.
         21   -1    0    0  501  502 -0.00000000000E+00 -0.00000000000E+00 -0.22080877723E+02  0.22080877723E+02  0.00000000000E+00 0. -1.
         25    1    1    2    0    0  0.00000000000E+00  0.00000000000E+00  0.15482558628E+03  0.19898734172E+03  0.12500000000E+03 0.  0.
<mgrwt>
<rscale>  0 0.12500000E+03</rscale>
<asrwt>0</asrwt>
<pdfrwt beam="1">  1       21 0.27216378E-01 0.12500000E+03</pdfrwt>
<pdfrwt beam="2">  1       21 0.33970582E-02 0.12500000E+03</pdfrwt>
<totfact> 0.65037146E+06</totfact>
</mgrwt>
</event>
<event>
 3    1  0.1597250E-001  0.1250000E+03  0.7546771E-02  0.1235069E+00
         21   -1    0    0  502  501  0.00000000000E+00  0.00000000000E+00  0.38045293457E+02  0.38045293457E+02  0.00000000000E+00 0.  1.
         21   -1    0    0  501  502 -0.00000000000E+00 -0.00000000000E+00 -0.10267367249E+03  0.10267367249E+03  0.00000000000E+00 0.  1.
         25    1    1    2    0    0  0.00000000000E+00  0.00000000000E+00 -0.64628379030E+02  0.14071896594E+03  0.12500000000E+03 0.  0.
<mgrwt>
<rscale>  0 0.12500000E+03</rscale>
<asrwt>0</asrwt>
<pdfrwt beam="1">  1       21 0.58531220E-02 0.12500000E+03</pdfrwt>
<pdfrwt beam="2">  1       21 0.15795950E-01 0.12500000E+03</pdfrwt>
<totfact> 0.71945587E+06</totfact>
</mgrwt>
</event>
<event>
 3    1  0.1597250E-001  0.1250000E+03  0.7546771E-02  0.1235069E+00
         21   -1    0    0  502  501  0.00000000000E+00  0.00000000000E+00  0.11131399660E+03  0.11131399660E+03  0.00000000000E+00 0. -1.
         21   -1    0    0  501  502 -0.00000000000E+00 -0.00000000000E+00 -0.35092172768E+02  0.35092172768E+02  0.00000000000E+00 0. -1.
         25    1    1    2    0    0  0.00000000000E+00  0.00000000000E+00  0.76221823828E+02  0.14640616936E+03  0.12500000000E+03 0.  0.
<mgrwt>
<rscale>  0 0.12500000E+03</rscale>
<asrwt>0</asrwt>
<pdfrwt beam="1">  1       21 0.17125230E-01 0.12500000E+03</pdfrwt>
<pdfrwt beam="2">  1       21 0.53987959E-02 0.12500000E+03</pdfrwt>
<totfact> 0.71213627E+06</totfact>
</mgrwt>
</event>
<event>
 3    1  0.1597250E-001  0.1250000E+03  0.7546771E-02  0.1235069E+00
         21   -1    0    0  502  501  0.00000000000E+00  0.00000000000E+00  0.22650027423E+03  0.22650027423E+03  0.00000000000E+00 0. -1.
         21   -1    0    0  501  502 -0.00000000000E+00 -0.00000000000E+00 -0.17246115985E+02  0.17246115985E+02  0.00000000000E+00 0. -1.
         25    1    1    2    0    0  0.00000000000E+00  0.00000000000E+00  0.20925415824E+03  0.24374639021E+03  0.12500000000E+03 0.  0.
<mgrwt>
<rscale>  0 0.12500000E+03</rscale>
<asrwt>0</asrwt>
<pdfrwt beam="1">  1       21 0.34846194E-01 0.12500000E+03</pdfrwt>
<pdfrwt beam="2">  1       21 0.26532488E-02 0.12500000E+03</pdfrwt>
<totfact> 0.60472006E+06</totfact>
</mgrwt>
</event>
<event>
 3    1  0.1597250E-001  0.1250000E+03  0.7546771E-02  0.1235069E+00
         21   -1    0    0  502  501  0.00000000000E+00  0.00000000000E+00  0.86479040078E+02  0.86479040078E+02  0.00000000000E+00 0.  1.
         21   -1    0    0  501  502 -0.00000000000E+00 -0.00000000000E+00 -0.45169904713E+02  0.45169904713E+02  0.00000000000E+00 0.  1.
         25    1    1    2    0    0  0.00000000000E+00  0.00000000000E+00  0.41309135364E+02  0.13164894479E+03  0.12500000000E+03 0.  0.
<mgrwt>
<rscale>  0 0.12500000E+03</rscale>
<asrwt>0</asrwt>
<pdfrwt beam="1">  1       21 0.13304468E-01 0.12500000E+03</pdfrwt>
<pdfrwt beam="2">  1       21 0.69492161E-02 0.12500000E+03</pdfrwt>
<totfact> 0.73143354E+06</totfact>
</mgrwt>
</event>
<event>
 3    1  0.1597250E-001  0.1250000E+03  0.7546771E-02  0.1235069E+00
         21   -1    0    0  502  501  0.00000000000E+00  0.00000000000E+00  0.32192725451E+01  0.32192725451E+01  0.00000000000E+00 0.  1.
         21   -1    0    0  501  502 -0.00000000000E+00 -0.00000000000E+00 -0.12133952454E+04  0.12133952454E+04  0.00000000000E+00 0.  1.
         25    1    1    2    0    0  0.00000000000E+00  0.00000000000E+00 -0.12101759729E+04  0.12166145180E+04  0.12500000000E+03 0.  0.
<mgrwt>
<rscale>  0 0.12500000E+03</rscale>
<asrwt>0</asrwt>
<pdfrwt beam="1">  1       21 0.49527274E-03 0.12500000E+03</pdfrwt>
<pdfrwt beam="2">  1       21 0.18667618E+00 0.12500000E+03</pdfrwt>
<totfact> 0.18815392E+06</totfact>
</mgrwt>
</event>
<event>
 3    1  0.1597250E-001  0.1250000E+03  0.7546771E-02  0.1235069E+00
         21   -1    0    0  502  501  0.00000000000E+00  0.00000000000E+00  0.97005564564E+02  0.97005564564E+02  0.00000000000E+00 0.  1.
         21   -1    0    0  501  502 -0.00000000000E+00 -0.00000000000E+00 -0.40268308499E+02  0.40268308499E+02  0.00000000000E+00 0.  1.
         25    1    1    2    0    0  0.00000000000E+00  0.00000000000E+00  0.56737256065E+02  0.13727387306E+03  0.12500000000E+03 0.  0.
<mgrwt>
<rscale>  0 0.12500000E+03</rscale>
<asrwt>0</asrwt>
<pdfrwt beam="1">  1       21 0.14923933E-01 0.12500000E+03</pdfrwt>
<pdfrwt beam="2">  1       21 0.61951244E-02 0.12500000E+03</pdfrwt>
<totfact> 0.72396773E+06</totfact>
</mgrwt>
</event>
<event>
 3    1  0.1597250E-001  0.1250000E+03  0.7546771E-02  0.1235069E+00
         21   -1    0    0  502  501  0.00000000000E+00  0.00000000000E+00  0.54948658417E+02  0.54948658417E+02  0.00000000000E+00 0. -1.
         21   -1    0    0  501  502 -0.00000000000E+00 -0.00000000000E+00 -0.71089087750E+02  0.71089087750E+02  0.00000000000E+00 0. -1.
         25    1    1    2    0    0  0.00000000000E+00  0.00000000000E+00 -0.16140429333E+02  0.12603774617E+03  0.12500000000E+03 0.  0.
<mgrwt>
<rscale>  0 0.12500000E+03</rscale>
<asrwt>0</asrwt>
<pdfrwt beam="1">  1       21 0.84536398E-02 0.12500000E+03</pdfrwt>
<pdfrwt beam="2">  1       21 0.10936783E-01 0.12500000E+03</pdfrwt>
<totfact> 0.73900836E+06</totfact>
</mgrwt>
</event>
<event>
 3    1  0.1597250E-001  0.1250000E+03  0.7546771E-02  0.1235069E+00
         21   -1    0    0  502  501  0.00000000000E+00  0.00000000000E+00  0.53230913170E+02  0.53230913170E+02  0.00000000000E+00 0. -1.
         21   -1    0    0  501  502 -0.00000000000E+00 -0.00000000000E+00 -0.73383110816E+02  0.73383110816E+02  0.00000000000E+00 0. -1.
         25    1    1    2    0    0  0.00000000000E+00  0.00000000000E+00 -0.20152197647E+02  0.12661402399E+03  0.12500000000E+03 0.  0.
<mgrwt>
<rscale>  0 0.12500000E+03</rscale>
<asrwt>0</asrwt>
<pdfrwt beam="1">  1       21 0.81893713E-02 0.12500000E+03</pdfrwt>
<pdfrwt beam="2">  1       21 0.11289709E-01 0.12500000E+03</pdfrwt>
<totfact> 0.73821779E+06</totfact>
</mgrwt>
</event>
<event>
 3    1  0.1597250E-001  0.1250000E+03  0.7546771E-02  0.1235069E+00
         21   -1    0    0  502  501  0.00000000000E+00  0.00000000000E+00  0.27123651234E+02  0.27123651234E+02  0.00000000000E+00 0. -1.
         21   -1    0    0  501  502 -0.00000000000E+00 -0.00000000000E+00 -0.14401637768E+03  0.14401637768E+03  0.00000000000E+00 0. -1.
         25    1    1    2    0    0  0.00000000000E+00  0.00000000000E+00 -0.11689272644E+03  0.17114002891E+03  0.12500000000E+03 0.  0.
<mgrwt>
<rscale>  0 0.12500000E+03</rscale>
<asrwt>0</asrwt>
<pdfrwt beam="1">  1       21 0.41728694E-02 0.12500000E+03</pdfrwt>
<pdfrwt beam="2">  1       21 0.22156366E-01 0.12500000E+03</pdfrwt>
<totfact> 0.68182748E+06</totfact>
</mgrwt>
</event>
<event>
 3    1  0.1597250E-001  0.1250000E+03  0.7546771E-02  0.1235069E+00
         21   -1    0    0  502  501  0.00000000000E+00  0.00000000000E+00  0.19235520643E+02  0.19235520643E+02  0.00000000000E+00 0.  1.
         21   -1    0    0  501  502 -0.00000000000E+00 -0.00000000000E+00 -0.20307482561E+03  0.20307482561E+03  0.00000000000E+00 0.  1.
         25    1    1    2    0    0  0.00000000000E+00  0.00000000000E+00 -0.18383930497E+03  0.22231034625E+03  0.12500000000E+03 0.  0.
<mgrwt>
<rscale>  0 0.12500000E+03</rscale>
<asrwt>0</asrwt>
<pdfrwt beam="1">  1       21 0.29593107E-02 0.12500000E+03</pdfrwt>
<pdfrwt beam="2">  1       21 0.31242282E-01 0.12500000E+03</pdfrwt>
<totfact> 0.62587164E+06</totfact>
</mgrwt>
</event>
<event>
 3    1  0.1597250E-001  0.1250000E+03  0.7546771E-02  0.1235069E+00
         21   -1    0    0  502  501  0.00000000000E+00  0.00000000000E+00  0.25439633491E+02  0.25439633491E+02  0.00000000000E+00 0. -1.
         21   -1    0    0  501  502 -0.00000000000E+00 -0.00000000000E+00 -0.15354977505E+03  0.15354977505E+03  0.00000000000E+00 0. -1.
         25    1    1    2    0    0  0.00000000000E+00  0.00000000000E+00 -0.12811014156E+03  0.17898940855E+03  0.12500000000E+03 0.  0.
<mgrwt>
<rscale>  0 0.12500000E+03</rscale>
<asrwt>0</asrwt>
<pdfrwt beam="1">  1       21 0.39137898E-02 0.12500000E+03</pdfrwt>
<pdfrwt beam="2">  1       21 0.23623042E-01 0.12500000E+03</pdfrwt>
<totfact> 0.67267658E+06</totfact>
</mgrwt>
</event>
<event>
 3    1  0.1597250E-001  0.1250000E+03  0.7546771E-02  0.1235069E+00
         21   -1    0    0  502  501  0.00000000000E+00  0.00000000000E+00  0.22107016499E+02  0.22107016499E+02  0.00000000000E+00 0. -1.
         21   -1    0    0  501  502 -0.00000000000E+00 -0.00000000000E+00 -0.17669729428E+03  0.17669729428E+03  0.00000000000E+00 0. -1.
         25    1    1    2    0    0  0.00000000000E+00  0.00000000000E+00 -0.15459027779E+03  0.19880431078E+03  0.12500000000E+03 0.  0.
<mgrwt>
<rscale>  0 0.12500000E+03</rscale>
<asrwt>0</asrwt>
<pdfrwt beam="1">  1       21 0.34010794E-02 0.12500000E+03</pdfrwt>
<pdfrwt beam="2">  1       21 0.27184199E-01 0.12500000E+03</pdfrwt>
<totfact> 0.65057037E+06</totfact>
</mgrwt>
</event>
<event>
 3    1  0.1597250E-001  0.1250000E+03  0.7546771E-02  0.1235069E+00
         21   -1    0    0  502  501  0.00000000000E+00  0.00000000000E+00  0.15653015032E+03  0.15653015032E+03  0.00000000000E+00 0.  1.
         21   -1    0    0  501  502 -0.00000000000E+00 -0.00000000000E+00 -0.24955256173E+02  0.24955256173E+02  0.00000000000E+00 0.  1.
         25    1    1    2    0    0  0.00000000000E+00  0.00000000000E+00  0.13157489414E+03  0.18148540649E+03  0.12500000000E+03 0.  0.
<mgrwt>
<rscale>  0 0.12500000E+03</rscale>
<asrwt>0</asrwt>
<pdfrwt beam="1">  1       21 0.24081561E-01 0.12500000E+03</pdfrwt>
<pdfrwt beam="2">  1       21 0.38392703E-02 0.12500000E+03</pdfrwt>
<totfact> 0.66981543E+06</totfact>
</mgrwt>
</event>
<event>
 3    1  0.1597250E-001  0.1250000E+03  0.7546771E-02  0.1235069E+00
         21   -1    0    0  502  501  0.00000000000E+00  0.00000000000E+00  0.22117659268E+02  0.22117659268E+02  0.00000000000E+00 0. -1.
         21   -1    0    0  501  502 -0.00000000000E+00 -0.00000000000E+00 -0.17661226953E+03  0.17661226953E+03  0.00000000000E+00 0. -1.
         25    1    1    2    0    0  0.00000000000E+00  0.00000000000E+00 -0.15449461026E+03  0.19872992879E+03  0.12500000000E+03 0.  0.
<mgrwt>
<rscale>  0 0.12500000E+03</rscale>
<asrwt>0</asrwt>
<pdfrwt beam="1">  1       21 0.34027167E-02 0.12500000E+03</pdfrwt>
<pdfrwt beam="2">  1       21 0.27171119E-01 0.12500000E+03</pdfrwt>
<totfact> 0.65065086E+06</totfact>
</mgrwt>
</event>
<event>
 3    1  0.1597250E-001  0.1250000E+03  0.7546771E-02  0.1235069E+00
         21   -1    0    0  502  501  0.00000000000E+00  0.00000000000E+00  0.77427401656E+01  0.77427401656E+01  0.00000000000E+00 0.  1.
         21   -1    0    0  501  502 -0.00000000000E+00 -0.00000000000E+00 -0.50450485442E+03  0.50450485442E+03  0.00000000000E+00 0.  1.
         25    1    1    2    0    0  0.00000000000E+00  0.00000000000E+00 -0.49676211425E+03  0.51224759458E+03  0.12500000000E+03 0.  0.
<mgrwt>
<rscale>  0 0.12500000E+03</rscale>
<asrwt>0</asrwt>
<pdfrwt beam="1">  1       21 0.11911906E-02 0.12500000E+03</pdfrwt>
<pdfrwt beam="2">  1       21 0.77616147E-01 0.12500000E+03</pdfrwt>
<totfact> 0.41387546E+06</totfact>
</mgrwt>
</event>
<event>
 3    1  0.1597250E-001  0.1250000E+03  0.7546771E-02  0.1235069E+00
         21   -1    0    0  502  501  0.00000000000E+00  0.00000000000E+00  0.69796326598E+02  0.69796326598E+02  0.00000000000E+00 0. -1.
         21   -1    0    0  501  502 -0.00000000000E+00 -0.00000000000E+00 -0.55966412423E+02  0.55966412423E+02  0.00000000000E+00 0. -1.
         25    1    1    2    0    0  0.00000000000E+00  0.00000000000E+00  0.13829914176E+02  0.12576273902E+03  0.12500000000E+03 0.  0.
<mgrwt>
<rscale>  0 0.12500000E+03</rscale>
<asrwt>0</asrwt>
<pdfrwt beam="1">  1       21 0.10737896E-01 0.12500000E+03</pdfrwt>
<pdfrwt beam="2">  1       21 0.86102173E-02 0.12500000E+03</pdfrwt>
<totfact> 0.73938834E+06</totfact>
</mgrwt>
</event>
<event>
 3    1  0.1597250E-001  0.1250000E+03  0.7546771E-02  0.1235069E+00
         21   -1    0    0  502  501  0.00000000000E+00  0.00000000000E+00  0.13060471935E+02  0.13060471935E+02  0.00000000000E+00 0.  1.
         21   -1    0    0  501  502 -0.00000000000E+00 -0.00000000000E+00 -0.29908949841E+03  0.29908949841E+03  0.00000000000E+00 0.  1.
         25    1    1    2    0    0  0.00000000000E+00  0.00000000000E+00 -0.28602902647E+03  0.31214997034E+03  0.12500000000E+03 0.  0.
<mgrwt>
<rscale>  0 0.12500000E+03</rscale>
<asrwt>0</asrwt>
<pdfrwt beam="1">  1       21 0.20093034E-02 0.12500000E+03</pdfrwt>
<pdfrwt beam="2">  1       21 0.46013768E-01 0.12500000E+03</pdfrwt>
<totfact> 0.54461339E+06</totfact>
</mgrwt>
</event>
<event>
 3    1  0.1597250E-001  0.1250000E+03  0.7546771E-02  0.1235069E+00
         21   -1    0    0  502  501  0.00000000000E+00  0.00000000000E+00  0.54170641962E+03  0.54170641962E+03  0.00000000000E+00 0.  1.
         21   -1    0    0  501  502 -0.00000000000E+00 -0.00000000000E+00 -0.72110092450E+01  0.72110092450E+01  0.00000000000E+00 0.  1.
         25    1    1    2    0    0  0.00000000000E+00  0.00000000000E+00  0.53449541038E+03  0.54891742887E+03  0.12500000000E+03 0.  0.
<mgrwt>
<rscale>  0 0.12500000E+03</rscale>
<asrwt>0</asrwt>
<pdfrwt beam="1">  1       21 0.83339418E-01 0.12500000E+03</pdfrwt>
<pdfrwt beam="2">  1       21 0.11093865E-02 0.12500000E+03</pdfrwt>
<totfact> 0.39509629E+06</totfact>
</mgrwt>
</event>
<event>
 3    1  0.1597250E-001  0.1250000E+03  0.7546771E-02  0.1235069E+00
         21   -1    0    0  502  501  0.00000000000E+00  0.00000000000E+00  0.52666355676E+03  0.52666355676E+03  0.00000000000E+00 0.  1.
         21   -1    0    0  501  502 -0.00000000000E+00 -0.00000000000E+00 -0.74169741761E+01  0.74169741761E+01  0.00000000000E+00 0.  1.
         25    1    1    2    0    0  0.00000000000E+00  0.00000000000E+00  0.51924658258E+03  0.53408053094E+03  0.12500000000E+03 0.  0.
<mgrwt>
<rscale>  0 0.12500000E+03</rscale>
<asrwt>0</asrwt>
<pdfrwt beam="1">  1       21 0.81025133E-01 0.12500000E+03</pdfrwt>
<pdfrwt beam="2">  1       21 0.11410734E-02 0.12500000E+03</pdfrwt>
<totfact> 0.40254143E+06</totfact>
</mgrwt>
</event>
<event>
 3    1  0.1597250E-001  0.1250000E+03  0.7546771E-02  0.1235069E+00
         21   -1    0    0  502  501  0.00000000000E+00  0.00000000000E+00  0.78430136797E+02  0.78430136797E+02  0.00000000000E+00 0. -1.
         21   -1    0    0  501  502 -0.00000000000E+00 -0.00000000000E+00 -0.49805472227E+02  0.49805472227E+02  0.00000000000E+00 0. -1.
         25    1    1    2    0    0  0.00000000000E+00  0.00000000000E+00  0.28624664569E+02  0.12823560902E+03  0.12500000000E+03 0.  0.
<mgrwt>
<rscale>  0 0.12500000E+03</rscale>
<asrwt>0</asrwt>
<pdfrwt beam="1">  1       21 0.12066175E-01 0.12500000E+03</pdfrwt>
<pdfrwt beam="2">  1       21 0.76623803E-02 0.12500000E+03</pdfrwt>
<totfact> 0.73601756E+06</totfact>
</mgrwt>
</event>
<event>
 3    1  0.1597250E-001  0.1250000E+03  0.7546771E-02  0.1235069E+00
         21   -1    0    0  502  501  0.00000000000E+00  0.00000000000E+00  0.67540179678E+03  0.67540179678E+03  0.00000000000E+00 0.  1.
         21   -1    0    0  501  502 -0.00000000000E+00 -0.00000000000E+00 -0.57835943266E+01  0.57835943266E+01  0.00000000000E+00 0.  1.
         25    1    1    2    0    0  0.00000000000E+00  0.00000000000E+00  0.66961820245E+03  0.68118539110E+03  0.12500000000E+03 0.  0.
<mgrwt>
<rscale>  0 0.12500000E+03</rscale>
<asrwt>0</asrwt>
<pdfrwt beam="1">  1       21 0.10390791E+00 0.12500000E+03</pdfrwt>
<pdfrwt beam="2">  1       21 0.88978428E-03 0.12500000E+03</pdfrwt>
<totfact> 0.33648227E+06</totfact>
</mgrwt>
</event>
<event>
 3    1  0.1597250E-001  0.1250000E+03  0.7546771E-02  0.1235069E+00
         21   -1    0    0  502  501  0.00000000000E+00  0.00000000000E+00  0.27002952790E+03  0.27002952790E+03  0.00000000000E+00 0.  1.
         21   -1    0    0  501  502 -0.00000000000E+00 -0.00000000000E+00 -0.14466010552E+02  0.14466010552E+02  0.00000000000E+00 0.  1.
         25    1    1    2    0    0  0.00000000000E+00  0.00000000000E+00  0.25556351735E+03  0.28449553845E+03  0.12500000000E+03 0.  0.
<mgrwt>
<rscale>  0 0.12500000E+03</rscale>
<asrwt>0</asrwt>
<pdfrwt beam="1">  1       21 0.41543000E-01 0.12500000E+03</pdfrwt>
<pdfrwt beam="2">  1       21 0.22255403E-02 0.12500000E+03</pdfrwt>
<totfact> 0.56769783E+06</totfact>
</mgrwt>
</event>
<event>
 3    1  0.1597250E-001  0.1250000E+03  0.7546771E-02  0.1235069E+00
         21   -1    0    0  502  501  0.00000000000E+00  0.00000000000E+00  0.11880500520E+04  0.11880500520E+04  0.00000000000E+00 0. -1.
         21   -1    0    0  501  502 -0.00000000000E+00 -0.00000000000E+00 -0.32879506999E+01  0.32879506999E+01  0.00000000000E+00 0. -1.
         25    1    1    2    0    0  0.00000000000E+00  0.00000000000E+00  0.11847621013E+04  0.11913380027E+04  0.12500000000E+03 0.  0.
<mgrwt>
<rscale>  0 0.12500000E+03</rscale>
<asrwt>0</asrwt>
<pdfrwt beam="1">  1       21 0.18277659E+00 0.12500000E+03</pdfrwt>
<pdfrwt beam="2">  1       21 0.50583952E-03 0.12500000E+03</pdfrwt>
<totfact> 0.19316889E+06</totfact>
</mgrwt>
</event>
<event>
 3    1  0.1597250E-001  0.1250000E+03  0.7546771E-02  0.1235069E+00
         21   -1    0    0  502  501  0.00000000000E+00  0.00000000000E+00  0.59899272699E+01  0.59899272699E+01  0.00000000000E+00 0. -1.
         21   -1    0    0  501  502 -0.00000000000E+00 -0.00000000000E+00 -0.65213646576E+03  0.65213646576E+03  0.00000000000E+00 0. -1.
         25    1    1    2    0    0  0.00000000000E+00  0.00000000000E+00 -0.64614653849E+03  0.65812639303E+03  0.12500000000E+03 0.  0.
<mgrwt>
<rscale>  0 0.12500000E+03</rscale>
<asrwt>0</asrwt>
<pdfrwt beam="1">  1       21 0.92152725E-03 0.12500000E+03</pdfrwt>
<pdfrwt beam="2">  1       21 0.10032869E+00 0.12500000E+03</pdfrwt>
<totfact> 0.34587664E+06</totfact>
</mgrwt>
</event>
<event>
 3    1  0.1597250E-001  0.1250000E+03  0.7546771E-02  0.1235069E+00
         21   -1    0    0  502  501  0.00000000000E+00  0.00000000000E+00  0.25840688115E+01  0.25840688115E+01  0.00000000000E+00 0. -1.
         21   -1    0    0  501  502 -0.00000000000E+00 -0.00000000000E+00 -0.15116664009E+04  0.15116664009E+04  0.00000000000E+00 0. -1.
         25    1    1    2    0    0  0.00000000000E+00  0.00000000000E+00 -0.15090823321E+04  0.15142504697E+04  0.12500000000E+03 0.  0.
<mgrwt>
<rscale>  0 0.12500000E+03</rscale>
<asrwt>0</asrwt>
<pdfrwt beam="1">  1       21 0.39754957E-03 0.12500000E+03</pdfrwt>
<pdfrwt beam="2">  1       21 0.23256376E+00 0.12500000E+03</pdfrwt>
<totfact> 0.13782922E+06</totfact>
</mgrwt>
</event>
<event>
 3    1  0.1597250E-001  0.1250000E+03  0.7546771E-02  0.1235069E+00
         21   -1    0    0  502  501  0.00000000000E+00  0.00000000000E+00  0.25594338764E+02  0.25594338764E+02  0.00000000000E+00 0.  1.
         21   -1    0    0  501  502 -0.00000000000E+00 -0.00000000000E+00 -0.15262164168E+03  0.15262164168E+03  0.00000000000E+00 0.  1.
         25    1    1    2    0    0  0.00000000000E+00  0.00000000000E+00 -0.12702730292E+03  0.17821598045E+03  0.12500000000E+03 0.  0.
<mgrwt>
<rscale>  0 0.12500000E+03</rscale>
<asrwt>0</asrwt>
<pdfrwt beam="1">  1       21 0.39375905E-02 0.12500000E+03</pdfrwt>
<pdfrwt beam="2">  1       21 0.23480253E-01 0.12500000E+03</pdfrwt>
<totfact> 0.67356785E+06</totfact>
</mgrwt>
</event>
<event>
 3    1  0.1597250E-001  0.1250000E+03  0.7546771E-02  0.1235069E+00
         21   -1    0    0  502  501  0.00000000000E+00  0.00000000000E+00  0.17400545727E+03  0.17400545727E+03  0.00000000000E+00 0. -1.
         21   -1    0    0  501  502 -0.00000000000E+00 -0.00000000000E+00 -0.22449008561E+02  0.22449008561E+02  0.00000000000E+00 0. -1.
         25    1    1    2    0    0  0.00000000000E+00  0.00000000000E+00  0.15155644871E+03  0.19645446583E+03  0.12500000000E+03 0.  0.
<mgrwt>
<rscale>  0 0.12500000E+03</rscale>
<asrwt>0</asrwt>
<pdfrwt beam="1">  1       21 0.26770070E-01 0.12500000E+03</pdfrwt>
<pdfrwt beam="2">  1       21 0.34536937E-02 0.12500000E+03</pdfrwt>
<totfact> 0.65312187E+06</totfact>
</mgrwt>
</event>
<event>
 3    1  0.1597250E-001  0.1250000E+03  0.7546771E-02  0.1235069E+00
         21   -1    0    0  502  501  0.00000000000E+00  0.00000000000E+00  0.36736587024E+02  0.36736587024E+02  0.00000000000E+00 0. -1.
         21   -1    0    0  501  502 -0.00000000000E+00 -0.00000000000E+00 -0.10633132570E+03  0.10633132570E+03  0.00000000000E+00 0. -1.
         25    1    1    2    0    0  0.00000000000E+00  0.00000000000E+00 -0.69594738676E+02  0.14306791272E+03  0.12500000000E+03 0.  0.
<mgrwt>
<rscale>  0 0.12500000E+03</rscale>
<asrwt>0</asrwt>
<pdfrwt beam="1">  1       21 0.56517827E-02 0.12500000E+03</pdfrwt>
<pdfrwt beam="2">  1       21 0.16358665E-01 0.12500000E+03</pdfrwt>
<totfact> 0.71641286E+06</totfact>
</mgrwt>
</event>
<event>
 3    1  0.1597250E-001  0.1250000E+03  0.7546771E-02  0.1235069E+00
         21   -1    0    0  502  501  0.00000000000E+00  0.00000000000E+00  0.11325155522E+03  0.11325155522E+03  0.00000000000E+00 0.  1.
         21   -1    0    0  501  502 -0.00000000000E+00 -0.00000000000E+00 -0.34491800068E+02  0.34491800068E+02  0.00000000000E+00 0.  1.
         25    1    1    2    0    0  0.00000000000E+00  0.00000000000E+00  0.78759755149E+02  0.14774335529E+03  0.12500000000E+03 0.  0.
<mgrwt>
<rscale>  0 0.12500000E+03</rscale>
<asrwt>0</asrwt>
<pdfrwt beam="1">  1       21 0.17423316E-01 0.12500000E+03</pdfrwt>
<pdfrwt beam="2">  1       21 0.53064308E-02 0.12500000E+03</pdfrwt>
<totfact> 0.71043841E+06</totfact>
</mgrwt>
</event>
<event>
 3    1  0.1597250E-001  0.1250000E+03  0.7546771E-02  0.1235069E+00
         21   -1    0    0  502  501  0.00000000000E+00  0.00000000000E+00  0.22505165462E+03  0.22505165462E+03  0.00000000000E+00 0. -1.
         21   -1    0    0  501  502 -0.00000000000E+00 -0.00000000000E+00 -0.17357126330E+02  0.17357126330E+02  0.00000000000E+00 0. -1.
         25    1    1    2    0    0  0.00000000000E+00  0.00000000000E+00  0.20769452829E+03  0.24240878095E+03  0.12500000000E+03 0.  0.
<mgrwt>
<rscale>  0 0.12500000E+03</rscale>
<asrwt>0</asrwt>
<pdfrwt beam="1">  1       21 0.34623329E-01 0.12500000E+03</pdfrwt>
<pdfrwt beam="2">  1       21 0.26703273E-02 0.12500000E+03</pdfrwt>
<totfact> 0.60600347E+06</totfact>
</mgrwt>
</event>
<event>
 3    1  0.1597250E-001  0.1250000E+03  0.7546771E-02  0.1235069E+00
         21   -1    0    0  502  501  0.00000000000E+00  0.00000000000E+00  0.79706856118E+02  0.79706856118E+02  0.00000000000E+00 0.  1.
         21   -1    0    0  501  502 -0.00000000000E+00 -0.00000000000E+00 -0.49007703857E+02  0.49007703857E+02  0.00000000000E+00 0.  1.
         25    1    1    2    0    0  0.00000000000E+00  0.00000000000E+00  0.30699152261E+02  0.12871455998E+03  0.12500000000E+03 0.  0.
<mgrwt>
<rscale>  0 0.12500000E+03</rscale>
<asrwt>0</asrwt>
<pdfrwt beam="1">  1       21 0.12262593E-01 0.12500000E+03</pdfrwt>
<pdfrwt beam="2">  1       21 0.75396467E-02 0.12500000E+03</pdfrwt>
<totfact> 0.73537245E+06</totfact>
</mgrwt>
</event>
<event>
 3    1  0.1597250E-001  0.1250000E+03  0.7546771E-02  0.1235069E+00
         21   -1    0    0  502  501  0.00000000000E+00  0.00000000000E+00  0.14799354900E+03  0.14799354900E+03  0.00000000000E+00 0.  1.
         21   -1    0    0  501  502 -0.00000000000E+00 -0.00000000000E+00 -0.26394731570E+02  0.26394731570E+02  0.00000000000E+00 0.  1.
         25    1    1    2    0    0  0.00000000000E+00  0.00000000000E+00  0.12159881743E+03  0.17438828057E+03  0.12500000000E+03 0.  0.
<mgrwt>
<rscale>  0 0.12500000E+03</rscale>
<asrwt>0</asrwt>
<pdfrwt beam="1">  1       21 0.22768238E-01 0.12500000E+03</pdfrwt>
<pdfrwt beam="2">  1       21 0.40607280E-02 0.12500000E+03</pdfrwt>
<totfact> 0.67801200E+06</totfact>
</mgrwt>
</event>
<event>
 3    1  0.1597250E-001  0.1250000E+03  0.7546771E-02  0.1235069E+00
         21   -1    0    0  502  501  0.00000000000E+00  0.00000000000E+00  0.23573909272E+02  0.23573909272E+02  0.00000000000E+00 0. -1.
         21   -1    0    0  501  502 -0.00000000000E+00 -0.00000000000E+00 -0.16570225816E+03  0.16570225816E+03  0.00000000000E+00 0. -1.
         25    1    1    2    0    0  0.00000000000E+00  0.00000000000E+00 -0.14212834889E+03  0.18927616743E+03  0.12500000000E+03 0.  0.
<mgrwt>
<rscale>  0 0.12500000E+03</rscale>
<asrwt>0</asrwt>
<pdfrwt beam="1">  1       21 0.36267552E-02 0.12500000E+03</pdfrwt>
<pdfrwt beam="2">  1       21 0.25492655E-01 0.12500000E+03</pdfrwt>
<totfact> 0.66103001E+06</totfact>
</mgrwt>
</event>
<event>
 3    1  0.1597250E-001  0.1250000E+03  0.7546771E-02  0.1235069E+00
         21   -1    0    0  502  501  0.00000000000E+00  0.00000000000E+00  0.18513276024E+01  0.18513276024E+01  0.00000000000E+00 0. -1.
         21   -1    0    0  501  502 -0.00000000000E+00 -0.00000000000E+00 -0.21099723220E+04  0.21099723220E+04  0.00000000000E+00 0. -1.
         25    1    1    2    0    0  0.00000000000E+00  0.00000000000E+00 -0.21081209944E+04  0.21118236496E+04  0.12500000000E+03 0.  0.
<mgrwt>
<rscale>  0 0.12500000E+03</rscale>
<asrwt>0</asrwt>
<pdfrwt beam="1">  1       21 0.28482029E-03 0.12500000E+03</pdfrwt>
<pdfrwt beam="2">  1       21 0.32461038E+00 0.12500000E+03</pdfrwt>
<totfact> 0.69082860E+05</totfact>
</mgrwt>
</event>
<event>
 3    1  0.1597250E-001  0.1250000E+03  0.7546771E-02  0.1235069E+00
         21   -1    0    0  502  501  0.00000000000E+00  0.00000000000E+00  0.56057022037E+02  0.56057022037E+02  0.00000000000E+00 0. -1.
         21   -1    0    0  501  502 -0.00000000000E+00 -0.00000000000E+00 -0.69683509007E+02  0.69683509007E+02  0.00000000000E+00 0. -1.
         25    1    1    2    0    0  0.00000000000E+00  0.00000000000E+00 -0.13626486970E+02  0.12574053104E+03  0.12500000000E+03 0.  0.
<mgrwt>
<rscale>  0 0.12500000E+03</rscale>
<asrwt>0</asrwt>
<pdfrwt beam="1">  1       21 0.86241572E-02 0.12500000E+03</pdfrwt>
<pdfrwt beam="2">  1       21 0.10720540E-01 0.12500000E+03</pdfrwt>
<totfact> 0.73941913E+06</totfact>
</mgrwt>
</event>
<event>
 3    1  0.1597250E-001  0.1250000E+03  0.7546771E-02  0.1235069E+00
         21   -1    0    0  502  501  0.00000000000E+00  0.00000000000E+00  0.16280244932E+02  0.16280244932E+02  0.00000000000E+00 0.  1.
         21   -1    0    0  501  502 -0.00000000000E+00 -0.00000000000E+00 -0.23993803633E+03  0.23993803633E+03  0.00000000000E+00 0.  1.
         25    1    1    2    0    0  0.00000000000E+00  0.00000000000E+00 -0.22365779140E+03  0.25621828126E+03  0.12500000000E+03 0.  0.
<mgrwt>
<rscale>  0 0.12500000E+03</rscale>
<asrwt>0</asrwt>
<pdfrwt beam="1">  1       21 0.25046530E-02 0.12500000E+03</pdfrwt>
<pdfrwt beam="2">  1       21 0.36913545E-01 0.12500000E+03</pdfrwt>
<totfact> 0.59297636E+06</totfact>
</mgrwt>
</event>
<event>
 3    1  0.1597250E-001  0.1250000E+03  0.7546771E-02  0.1235069E+00
         21   -1    0    0  502  501  0.00000000000E+00  0.00000000000E+00  0.10424263238E+03  0.10424263238E+03  0.00000000000E+00 0.  1.
         21   -1    0    0  501  502 -0.00000000000E+00 -0.00000000000E+00 -0.37472672272E+02  0.37472672272E+02  0.00000000000E+00 0.  1.
         25    1    1    2    0    0  0.00000000000E+00  0.00000000000E+00  0.66769960110E+02  0.14171530465E+03  0.12500000000E+03 0.  0.
<mgrwt>
<rscale>  0 0.12500000E+03</rscale>
<asrwt>0</asrwt>
<pdfrwt beam="1">  1       21 0.16037328E-01 0.12500000E+03</pdfrwt>
<pdfrwt beam="2">  1       21 0.57650266E-02 0.12500000E+03</pdfrwt>
<totfact> 0.71816163E+06</totfact>
</mgrwt>
</event>
<event>
 3    1  0.1597250E-001  0.1250000E+03  0.7546771E-02  0.1235069E+00
         21   -1    0    0  502  501  0.00000000000E+00  0.00000000000E+00  0.15789443949E+02  0.15789443949E+02  0.00000000000E+00 0. -1.
         21   -1    0    0  501  502 -0.00000000000E+00 -0.00000000000E+00 -0.24739629924E+03  0.24739629924E+03  0.00000000000E+00 0. -1.
         25    1    1    2    0    0  0.00000000000E+00  0.00000000000E+00 -0.23160685529E+03  0.26318574319E+03  0.12500000000E+03 0.  0.
<mgrwt>
<rscale>  0 0.12500000E+03</rscale>
<asrwt>0</asrwt>
<pdfrwt beam="1">  1       21 0.24291451E-02 0.12500000E+03</pdfrwt>
<pdfrwt beam="2">  1       21 0.38060971E-01 0.12500000E+03</pdfrwt>
<totfact> 0.58658504E+06</totfact>
</mgrwt>
</event>
<event>
 3    1  0.1597250E-001  0.1250000E+03  0.7546771E-02  0.1235069E+00
         21   -1    0    0  502  501  0.00000000000E+00  0.00000000000E+00  0.94964414862E+02  0.94964414862E+02  0.00000000000E+00 0.  1.
         21   -1    0    0  501  502 -0.00000000000E+00 -0.00000000000E+00 -0.41133828979E+02  0.41133828979E+02  0.00000000000E+00 0.  1.
         25    1    1    2    0    0  0.00000000000E+00  0.00000000000E+00  0.53830585883E+02  0.13609824384E+03  0.12500000000E+03 0.  0.
<mgrwt>
<rscale>  0 0.12500000E+03</rscale>
<asrwt>0</asrwt>
<pdfrwt beam="1">  1       21 0.14609910E-01 0.12500000E+03</pdfrwt>
<pdfrwt beam="2">  1       21 0.63282814E-02 0.12500000E+03</pdfrwt>
<totfact> 0.72551382E+06</totfact>
</mgrwt>
</event>
<event>
 3    1  0.1597250E-001  0.1250000E+03  0.7546771E-02  0.1235069E+00
         21   -1    0    0  502  501  0.00000000000E+00  0.00000000000E+00  0.53956292941E+02  0.53956292941E+02  0.00000000000E+00 0. -1.
         21   -1    0    0  501  502 -0.00000000000E+00 -0.00000000000E+00 -0.72396560013E+02  0.72396560013E+02  0.00000000000E+00 0. -1.
         25    1    1    2    0    0  0.00000000000E+00  0.00000000000E+00 -0.18440267072E+02  0.12635285295E+03  0.12500000000E+03 0.  0.
<mgrwt>
<rscale>  0 0.12500000E+03</rscale>
<asrwt>0</asrwt>
<pdfrwt beam="1">  1       21 0.83009682E-02 0.12500000E+03</pdfrwt>
<pdfrwt beam="2">  1       21 0.11137932E-01 0.12500000E+03</pdfrwt>
<totfact> 0.73857529E+06</totfact>
</mgrwt>
</event>
<event>
 3    1  0.1597250E-001  0.1250000E+03  0.7546771E-02  0.1235069E+00
         21   -1    0    0  502  501  0.00000000000E+00  0.00000000000E+00  0.19815559389E+02  0.19815559389E+02  0.00000000000E+00 0. -1.
         21   -1    0    0  501  502 -0.00000000000E+00 -0.00000000000E+00 -0.19713044297E+03  0.19713044297E+03  0.00000000000E+00 0. -1.
         25    1    1    2    0    0  0.00000000000E+00  0.00000000000E+00 -0.17731488358E+03  0.21694600236E+03  0.12500000000E+03 0.  0.
<mgrwt>
<rscale>  0 0.12500000E+03</rscale>
<asrwt>0</asrwt>
<pdfrwt beam="1">  1       21 0.30485477E-02 0.12500000E+03</pdfrwt>
<pdfrwt beam="2">  1       21 0.30327760E-01 0.12500000E+03</pdfrwt>
<totfact> 0.63136065E+06</totfact>
</mgrwt>
</event>
<event>
 3    1  0.1597250E-001  0.1250000E+03  0.7546771E-02  0.1235069E+00
         21   -1    0    0  502  501  0.00000000000E+00  0.00000000000E+00  0.82330422217E+03  0.82330422217E+03  0.00000000000E+00 0.  1.
         21   -1    0    0  501  502 -0.00000000000E+00 -0.00000000000E+00 -0.47446009565E+01  0.47446009565E+01  0.00000000000E+00 0.  1.
         25    1    1    2    0    0  0.00000000000E+00  0.00000000000E+00  0.81855962121E+03  0.82804882312E+03  0.12500000000E+03 0.  0.
<mgrwt>
<rscale>  0 0.12500000E+03</rscale>
<asrwt>0</asrwt>
<pdfrwt beam="1">  1       21 0.12666207E+00 0.12500000E+03</pdfrwt>
<pdfrwt beam="2">  1       21 0.72993926E-03 0.12500000E+03</pdfrwt>
<totfact> 0.28454365E+06</totfact>
</mgrwt>
</event>
<event>
 3    1  0.1597250E-001  0.1250000E+03  0.7546771E-02  0.1235069E+00
         21   -1    0    0  502  501  0.00000000000E+00  0.00000000000E+00  0.19102838593E+03  0.19102838593E+03  0.00000000000E+00 0. -1.
         21   -1    0    0  501  502 -0.00000000000E+00 -0.00000000000E+00 -0.20448531672E+02  0.20448531672E+02  0.00000000000E+00 0. -1.
         25    1    1    2    0    0  0.00000000000E+00  0.00000000000E+00  0.17057985426E+03  0.21147691760E+03  0.12500000000E+03 0.  0.
<mgrwt>
<rscale>  0 0.12500000E+03</rscale>
<asrwt>0</asrwt>
<pdfrwt beam="1">  1       21 0.29388981E-01 0.12500000E+03</pdfrwt>
<pdfrwt beam="2">  1       21 0.31459281E-02 0.12500000E+03</pdfrwt>
<totfact> 0.63704482E+06</totfact>
</mgrwt>
</event>
<event>
 3    1  0.1597250E-001  0.1250000E+03  0.7546771E-02  0.1235069E+00
         21   -1    0    0  502  501  0.00000000000E+00  0.00000000000E+00  0.94159042148E+01  0.94159042148E+01  0.00000000000E+00 0. -1.
         21   -1    0    0  501  502 -0.00000000000E+00 -0.00000000000E+00 -0.41485659910E+03  0.41485659910E+03  0.00000000000E+00 0. -1.
         25    1    1    2    0    0  0.00000000000E+00  0.00000000000E+00 -0.40544069488E+03  0.42427250331E+03  0.12500000000E+03 0.  0.
<mgrwt>
<rscale>  0 0.12500000E+03</rscale>
<asrwt>0</asrwt>
<pdfrwt beam="1">  1       21 0.14486005E-02 0.12500000E+03</pdfrwt>
<pdfrwt beam="2">  1       21 0.63824099E-01 0.12500000E+03</pdfrwt>
<totfact> 0.46471976E+06</totfact>
</mgrwt>
</event>
<event>
 3    1  0.1597250E-001  0.1250000E+03  0.7546771E-02  0.1235069E+00
         21   -1    0    0  502  501  0.00000000000E+00  0.00000000000E+00  0.20932358651E+02  0.20932358651E+02  0.00000000000E+00 0. -1.
         21   -1    0    0  501  502 -0.00000000000E+00 -0.00000000000E+00 -0.18661298830E+03  0.18661298830E+03  0.00000000000E+00 0. -1.
         25    1    1    2    0    0  0.00000000000E+00  0.00000000000E+00 -0.16568062965E+03  0.20754534695E+03  0.12500000000E+03 0.  0.
<mgrwt>
<rscale>  0 0.12500000E+03</rscale>
<asrwt>0</asrwt>
<pdfrwt beam="1">  1       21 0.32203627E-02 0.12500000E+03</pdfrwt>
<pdfrwt beam="2">  1       21 0.28709692E-01 0.12500000E+03</pdfrwt>
<totfact> 0.64118721E+06</totfact>
</mgrwt>
</event>
<event>
 3    1  0.1597250E-001  0.1250000E+03  0.7546771E-02  0.1235069E+00
         21   -1    0    0  502  501  0.00000000000E+00  0.00000000000E+00  0.11969013934E+04  0.11969013934E+04  0.00000000000E+00 0.  1.
         21   -1    0    0  501  502 -0.00000000000E+00 -0.00000000000E+00 -0.32636356023E+01  0.32636356023E+01  0.00000000000E+00 0.  1.
         25    1    1    2    0    0  0.00000000000E+00  0.00000000000E+00  0.11936377578E+04  0.12001650290E+04  0.12500000000E+03 0.  0.
<mgrwt>
<rscale>  0 0.12500000E+03</rscale>
<asrwt>0</asrwt>
<pdfrwt beam="1">  1       21 0.18413833E+00 0.12500000E+03</pdfrwt>
<pdfrwt beam="2">  1       21 0.50209874E-03 0.12500000E+03</pdfrwt>
<totfact> 0.19140120E+06</totfact>
</mgrwt>
</event>
<event>
 3    1  0.1597250E-001  0.1250000E+03  0.7546771E-02  0.1235069E+00
         21   -1    0    0  502  501  0.00000000000E+00  0.00000000000E+00  0.30881990175E+03  0.30881990175E+03  0.00000000000E+00 0. -1.
         21   -1    0    0  501  502 -0.00000000000E+00 -0.00000000000E+00 -0.12648958108E+02  0.12648958108E+02  0.00000000000E+00 0. -1.
         25    1    1    2    0    0  0.00000000000E+00  0.00000000000E+00  0.29617094364E+03  0.32146885986E+03  0.12500000000E+03 0.  0.
<mgrwt>
<rscale>  0 0.12500000E+03</rscale>
<asrwt>0</asrwt>
<pdfrwt beam="1">  1       21 0.47510748E-01 0.12500000E+03</pdfrwt>
<pdfrwt beam="2">  1       21 0.19459938E-02 0.12500000E+03</pdfrwt>
<totfact> 0.53717151E+06</totfact>
</mgrwt>
</event>
<event>
 3    1  0.1597250E-001  0.1250000E+03  0.7546771E-02  0.1235069E+00
         21   -1    0    0  502  501  0.00000000000E+00  0.00000000000E+00  0.37320228978E+02  0.37320228978E+02  0.00000000000E+00 0. -1.
         21   -1    0    0  501  502 -0.00000000000E+00 -0.00000000000E+00 -0.10466843605E+03  0.10466843605E+03  0.00000000000E+00 0. -1.
         25    1    1    2    0    0  0.00000000000E+00  0.00000000000E+00 -0.67348207069E+02  0.14198866502E+03  0.12500000000E+03 0.  0.
<mgrwt>
<rscale>  0 0.12500000E+03</rscale>
<asrwt>0</asrwt>
<pdfrwt beam="1">  1       21 0.57415737E-02 0.12500000E+03</pdfrwt>
<pdfrwt beam="2">  1       21 0.16102836E-01 0.12500000E+03</pdfrwt>
<totfact> 0.71780744E+06</totfact>
</mgrwt>
</event>
<event>
 3    1  0.1597250E-001  0.1250000E+03  0.7546771E-02  0.1235069E+00
         21   -1    0    0  502  501  0.00000000000E+00  0.00000000000E+00  0.57440162892E+03  0.57440162892E+03  0.00000000000E+00 0. -1.
         21   -1    0    0  501  502 -0.00000000000E+00 -0.00000000000E+00 -0.68005552271E+01  0.68005552271E+01  0.00000000000E+00 0. -1.
         25    1    1    2    0    0  0.00000000000E+00  0.00000000000E+00  0.56760107369E+03  0.58120218415E+03  0.12500000000E+03 0.  0.
<mgrwt>
<rscale>  0 0.12500000E+03</rscale>
<asrwt>0</asrwt>
<pdfrwt beam="1">  1       21 0.88369444E-01 0.12500000E+03</pdfrwt>
<pdfrwt beam="2">  1       21 0.10462397E-02 0.12500000E+03</pdfrwt>
<totfact> 0.37956785E+06</totfact>
</mgrwt>
</event>
<event>
 3    1  0.1597250E-001  0.1250000E+03  0.7546771E-02  0.1235069E+00
         21   -1    0    0  502  501  0.00000000000E+00  0.00000000000E+00  0.11400034867E+03  0.11400034867E+03  0.00000000000E+00 0. -1.
         21   -1    0    0  501  502 -0.00000000000E+00 -0.00000000000E+00 -0.34265246076E+02  0.34265246076E+02  0.00000000000E+00 0. -1.
         25    1    1    2    0    0  0.00000000000E+00  0.00000000000E+00  0.79735102594E+02  0.14826559475E+03  0.12500000000E+03 0.  0.
<mgrwt>
<rscale>  0 0.12500000E+03</rscale>
<asrwt>0</asrwt>
<pdfrwt beam="1">  1       21 0.17538515E-01 0.12500000E+03</pdfrwt>
<pdfrwt beam="2">  1       21 0.52715764E-02 0.12500000E+03</pdfrwt>
<totfact> 0.70977759E+06</totfact>
</mgrwt>
</event>
<event>
 3    1  0.1597250E-001  0.1250000E+03  0.7546771E-02  0.1235069E+00
         21   -1    0    0  502  501  0.00000000000E+00  0.00000000000E+00  0.91532967463E+02  0.91532967463E+02  0.00000000000E+00 0.  1.
         21   -1    0    0  501  502 -0.00000000000E+00 -0.00000000000E+00 -0.42675880705E+02  0.42675880705E+02  0.00000000000E+00 0.  1.
         25    1    1    2    0    0  0.00000000000E+00  0.00000000000E+00  0.48857086758E+02  0.13420884817E+03  0.12500000000E+03 0.  0.
<mgrwt>
<rscale>  0 0.12500000E+03</rscale>
<asrwt>0</asrwt>
<pdfrwt beam="1">  1       21 0.14081995E-01 0.12500000E+03</pdfrwt>
<pdfrwt beam="2">  1       21 0.65655201E-02 0.12500000E+03</pdfrwt>
<totfact> 0.72801397E+06</totfact>
</mgrwt>
</event>
<event>
 3    1  0.1597250E-001  0.1250000E+03  0.7546771E-02  0.1235069E+00
         21   -1    0    0  502  501  0.00000000000E+00  0.00000000000E+00  0.23053363545E+03  0.23053363545E+03  0.00000000000E+00 0.  1.
         21   -1    0    0  501  502 -0.00000000000E+00 -0.00000000000E+00 -0.16944382074E+02  0.16944382074E+02  0.00000000000E+00 0.  1.
         25    1    1    2    0    0  0.00000000000E+00  0.00000000000E+00  0.21358925338E+03  0.24747801752E+03  0.12500000000E+03 0.  0.
<mgrwt>
<rscale>  0 0.12500000E+03</rscale>
<asrwt>0</asrwt>
<pdfrwt beam="1">  1       21 0.35466711E-01 0.12500000E+03</pdfrwt>
<pdfrwt beam="2">  1       21 0.26068282E-02 0.12500000E+03</pdfrwt>
<totfact> 0.60116447E+06</totfact>
</mgrwt>
</event>
<event>
 3    1  0.1597250E-001  0.1250000E+03  0.7546771E-02  0.1235069E+00
         21   -1    0    0  502  501  0.00000000000E+00  0.00000000000E+00  0.69893669027E+02  0.69893669027E+02  0.00000000000E+00 0.  1.
         21   -1    0    0  501  502 -0.00000000000E+00 -0.00000000000E+00 -0.55888466787E+02  0.55888466787E+02  0.00000000000E+00 0.  1.
         25    1    1    2    0    0  0.00000000000E+00  0.00000000000E+00  0.14005202240E+02  0.12578213581E+03  0.12500000000E+03 0.  0.
<mgrwt>
<rscale>  0 0.12500000E+03</rscale>
<asrwt>0</asrwt>
<pdfrwt beam="1">  1       21 0.10752872E-01 0.12500000E+03</pdfrwt>
<pdfrwt beam="2">  1       21 0.85982256E-02 0.12500000E+03</pdfrwt>
<totfact> 0.73936146E+06</totfact>
</mgrwt>
</event>
<event>
 3    1  0.1597250E-001  0.1250000E+03  0.7546771E-02  0.1235069E+00
         21   -1    0    0  502  501  0.00000000000E+00  0.00000000000E+00  0.44869821428E+01  0.44869821428E+01  0.00000000000E+00 0.  1.
         21   -1    0    0  501  502 -0.00000000000E+00 -0.00000000000E+00 -0.87057400179E+03  0.87057400179E+03  0.00000000000E+00 0.  1.
         25    1    1    2    0    0  0.00000000000E+00  0.00000000000E+00 -0.86608701964E+03  0.87506098393E+03  0.12500000000E+03 0.  0.
<mgrwt>
<rscale>  0 0.12500000E+03</rscale>
<asrwt>0</asrwt>
<pdfrwt beam="1">  1       21 0.69030586E-03 0.12500000E+03</pdfrwt>
<pdfrwt beam="2">  1       21 0.13393428E+00 0.12500000E+03</pdfrwt>
<totfact> 0.27021142E+06</totfact>
</mgrwt>
</event>
<event>
 3    1  0.1597250E-001  0.1250000E+03  0.7546771E-02  0.1235069E+00
         21   -1    0    0  502  501  0.00000000000E+00  0.00000000000E+00  0.29248045054E+02  0.29248045054E+02  0.00000000000E+00 0. -1.
         21   -1    0    0  501  502 -0.00000000000E+00 -0.00000000000E+00 -0.13355593486E+03  0.13355593486E+03  0.00000000000E+00 0. -1.
         25    1    1    2    0    0  0.00000000000E+00  0.00000000000E+00 -0.10430788981E+03  0.16280397991E+03  0.12500000000E+03 0.  0.
<mgrwt>
<rscale>  0 0.12500000E+03</rscale>
<asrwt>0</asrwt>
<pdfrwt beam="1">  1       21 0.44996993E-02 0.12500000E+03</pdfrwt>
<pdfrwt beam="2">  1       21 0.20547067E-01 0.12500000E+03</pdfrwt>
<totfact> 0.69178493E+06</totfact>
</mgrwt>
</event>
<event>
 3    1  0.1597250E-001  0.1250000E+03  0.7546771E-02  0.1235069E+00
         21   -1    0    0  502  501  0.00000000000E+00  0.00000000000E+00  0.13898703007E+03  0.13898703007E+03  0.00000000000E+00 0.  1.
         21   -1    0    0  501  502 -0.00000000000E+00 -0.00000000000E+00 -0.28105140443E+02  0.28105140443E+02  0.00000000000E+00 0.  1.
         25    1    1    2    0    0  0.00000000000E+00  0.00000000000E+00  0.11088188963E+03  0.16709217052E+03  0.12500000000E+03 0.  0.
<mgrwt>
<rscale>  0 0.12500000E+03</rscale>
<asrwt>0</asrwt>
<pdfrwt beam="1">  1       21 0.21382620E-01 0.12500000E+03</pdfrwt>
<pdfrwt beam="2">  1       21 0.43238678E-02 0.12500000E+03</pdfrwt>
<totfact> 0.68663126E+06</totfact>
</mgrwt>
</event>
<event>
 3    1  0.1597250E-001  0.1250000E+03  0.7546771E-02  0.1235069E+00
         21   -1    0    0  502  501  0.00000000000E+00  0.00000000000E+00  0.79862623606E+02  0.79862623606E+02  0.00000000000E+00 0. -1.
         21   -1    0    0  501  502 -0.00000000000E+00 -0.00000000000E+00 -0.48912117128E+02  0.48912117128E+02  0.00000000000E+00 0. -1.
         25    1    1    2    0    0  0.00000000000E+00  0.00000000000E+00  0.30950506478E+02  0.12877474073E+03  0.12500000000E+03 0.  0.
<mgrwt>
<rscale>  0 0.12500000E+03</rscale>
<asrwt>0</asrwt>
<pdfrwt beam="1">  1       21 0.12286557E-01 0.12500000E+03</pdfrwt>
<pdfrwt beam="2">  1       21 0.75249411E-02 0.12500000E+03</pdfrwt>
<totfact> 0.73529151E+06</totfact>
</mgrwt>
</event>
<event>
 3    1  0.1597250E-001  0.1250000E+03  0.7546771E-02  0.1235069E+00
         21   -1    0    0  502  501  0.00000000000E+00  0.00000000000E+00  0.39758772558E+02  0.39758772558E+02  0.00000000000E+00 0. -1.
         21   -1    0    0  501  502 -0.00000000000E+00 -0.00000000000E+00 -0.98248757412E+02  0.98248757412E+02  0.00000000000E+00 0. -1.
         25    1    1    2    0    0  0.00000000000E+00  0.00000000000E+00 -0.58489984854E+02  0.13800752997E+03  0.12500000000E+03 0.  0.
<mgrwt>
<rscale>  0 0.12500000E+03</rscale>
<asrwt>0</asrwt>
<pdfrwt beam="1">  1       21 0.61167343E-02 0.12500000E+03</pdfrwt>
<pdfrwt beam="2">  1       21 0.15115193E-01 0.12500000E+03</pdfrwt>
<totfact> 0.72300500E+06</totfact>
</mgrwt>
</event>
<event>
 3    1  0.1597250E-001  0.1250000E+03  0.7546771E-02  0.1235069E+00
         21   -1    0    0  502  501  0.00000000000E+00  0.00000000000E+00  0.10791856215E+02  0.10791856215E+02  0.00000000000E+00 0.  1.
         21   -1    0    0  501  502 -0.00000000000E+00 -0.00000000000E+00 -0.36196275433E+03  0.36196275433E+03  0.00000000000E+00 0.  1.
         25    1    1    2    0    0  0.00000000000E+00  0.00000000000E+00 -0.35117089812E+03  0.37275461055E+03  0.12500000000E+03 0.  0.
<mgrwt>
<rscale>  0 0.12500000E+03</rscale>
<asrwt>0</asrwt>
<pdfrwt beam="1">  1       21 0.16602859E-02 0.12500000E+03</pdfrwt>
<pdfrwt beam="2">  1       21 0.55686568E-01 0.12500000E+03</pdfrwt>
<totfact> 0.49900607E+06</totfact>
</mgrwt>
</event>
<event>
 3    1  0.1597250E-001  0.1250000E+03  0.7546771E-02  0.1235069E+00
         21   -1    0    0  502  501  0.00000000000E+00  0.00000000000E+00  0.40228581218E+02  0.40228581218E+02  0.00000000000E+00 0. -1.
         21   -1    0    0  501  502 -0.00000000000E+00 -0.00000000000E+00 -0.97101361313E+02  0.97101361313E+02  0.00000000000E+00 0. -1.
         25    1    1    2    0    0  0.00000000000E+00  0.00000000000E+00 -0.56872780095E+02  0.13732994253E+03  0.12500000000E+03 0.  0.
<mgrwt>
<rscale>  0 0.12500000E+03</rscale>
<asrwt>0</asrwt>
<pdfrwt beam="1">  1       21 0.61890125E-02 0.12500000E+03</pdfrwt>
<pdfrwt beam="2">  1       21 0.14938671E-01 0.12500000E+03</pdfrwt>
<totfact> 0.72389417E+06</totfact>
</mgrwt>
</event>
<event>
 3    1  0.1597250E-001  0.1250000E+03  0.7546771E-02  0.1235069E+00
         21   -1    0    0  502  501  0.00000000000E+00  0.00000000000E+00  0.95804132968E+03  0.95804132968E+03  0.00000000000E+00 0. -1.
         21   -1    0    0  501  502 -0.00000000000E+00 -0.00000000000E+00 -0.40773293166E+01  0.40773293166E+01  0.00000000000E+00 0. -1.
         25    1    1    2    0    0  0.00000000000E+00  0.00000000000E+00  0.95396400036E+03  0.96211865899E+03  0.12500000000E+03 0.  0.
<mgrwt>
<rscale>  0 0.12500000E+03</rscale>
<asrwt>0</asrwt>
<pdfrwt beam="1">  1       21 0.14739080E+00 0.12500000E+03</pdfrwt>
<pdfrwt beam="2">  1       21 0.62728219E-03 0.12500000E+03</pdfrwt>
<totfact> 0.24589756E+06</totfact>
</mgrwt>
</event>
<event>
 3    1  0.1597250E-001  0.1250000E+03  0.7546771E-02  0.1235069E+00
         21   -1    0    0  502  501  0.00000000000E+00  0.00000000000E+00  0.18312548391E+02  0.18312548391E+02  0.00000000000E+00 0. -1.
         21   -1    0    0  501  502 -0.00000000000E+00 -0.00000000000E+00 -0.21331001653E+03  0.21331001653E+03  0.00000000000E+00 0. -1.
         25    1    1    2    0    0  0.00000000000E+00  0.00000000000E+00 -0.19499746813E+03  0.23162256492E+03  0.12500000000E+03 0.  0.
<mgrwt>
<rscale>  0 0.12500000E+03</rscale>
<asrwt>0</asrwt>
<pdfrwt beam="1">  1       21 0.28173151E-02 0.12500000E+03</pdfrwt>
<pdfrwt beam="2">  1       21 0.32816926E-01 0.12500000E+03</pdfrwt>
<totfact> 0.61652875E+06</totfact>
</mgrwt>
</event>
<event>
 3    1  0.1597250E-001  0.1250000E+03  0.7546771E-02  0.1235069E+00
         21   -1    0    0  502  501  0.00000000000E+00  0.00000000000E+00  0.54243402662E+02  0.54243402662E+02  0.00000000000E+00 0. -1.
         21   -1    0    0  501  502 -0.00000000000E+00 -0.00000000000E+00 -0.72013365834E+02  0.72013365834E+02  0.00000000000E+00 0. -1.
         25    1    1    2    0    0  0.00000000000E+00  0.00000000000E+00 -0.17769963171E+02  0.12625676850E+03  0.12500000000E+03 0.  0.
<mgrwt>
<rscale>  0 0.12500000E+03</rscale>
<asrwt>0</asrwt>
<pdfrwt beam="1">  1       21 0.83451389E-02 0.12500000E+03</pdfrwt>
<pdfrwt beam="2">  1       21 0.11078979E-01 0.12500000E+03</pdfrwt>
<totfact> 0.73870712E+06</totfact>
</mgrwt>
</event>
<event>
 3    1  0.1597250E-001  0.1250000E+03  0.7546771E-02  0.1235069E+00
         21   -1    0    0  502  501  0.00000000000E+00  0.00000000000E+00  0.18919817121E+03  0.18919817121E+03  0.00000000000E+00 0. -1.
         21   -1    0    0  501  502 -0.00000000000E+00 -0.00000000000E+00 -0.20646341214E+02  0.20646341214E+02  0.00000000000E+00 0. -1.
         25    1    1    2    0    0  0.00000000000E+00  0.00000000000E+00  0.16855183000E+03  0.20984451243E+03  0.12500000000E+03 0.  0.
<mgrwt>
<rscale>  0 0.12500000E+03</rscale>
<asrwt>0</asrwt>
<pdfrwt beam="1">  1       21 0.29107410E-01 0.12500000E+03</pdfrwt>
<pdfrwt beam="2">  1       21 0.31763603E-02 0.12500000E+03</pdfrwt>
<totfact> 0.63875899E+06</totfact>
</mgrwt>
</event>
<event>
 3    1  0.1597250E-001  0.1250000E+03  0.7546771E-02  0.1235069E+00
         21   -1    0    0  502  501  0.00000000000E+00  0.00000000000E+00  0.72808809165E+03  0.72808809165E+03  0.00000000000E+00 0.  1.
         21   -1    0    0  501  502 -0.00000000000E+00 -0.00000000000E+00 -0.53650788205E+01  0.53650788205E+01  0.00000000000E+00 0.  1.
         25    1    1    2    0    0  0.00000000000E+00  0.00000000000E+00  0.72272301283E+03  0.73345317047E+03  0.12500000000E+03 0.  0.
<mgrwt>
<rscale>  0 0.12500000E+03</rscale>
<asrwt>0</asrwt>
<pdfrwt beam="1">  1       21 0.11201347E+00 0.12500000E+03</pdfrwt>
<pdfrwt beam="2">  1       21 0.82539732E-03 0.12500000E+03</pdfrwt>
<totfact> 0.31659597E+06</totfact>
</mgrwt>
</event>
<event>
 3    1  0.1597250E-001  0.1250000E+03  0.7546771E-02  0.1235069E+00
         21   -1    0    0  502  501  0.00000000000E+00  0.00000000000E+00  0.36497750123E+02  0.36497750123E+02  0.00000000000E+00 0.  1.
         21   -1    0    0  501  502 -0.00000000000E+00 -0.00000000000E+00 -0.10702714515E+03  0.10702714515E+03  0.00000000000E+00 0.  1.
         25    1    1    2    0    0  0.00000000000E+00  0.00000000000E+00 -0.70529395025E+02  0.14352489527E+03  0.12500000000E+03 0.  0.
<mgrwt>
<rscale>  0 0.12500000E+03</rscale>
<asrwt>0</asrwt>
<pdfrwt beam="1">  1       21 0.56150385E-02 0.12500000E+03</pdfrwt>
<pdfrwt beam="2">  1       21 0.16465714E-01 0.12500000E+03</pdfrwt>
<totfact> 0.71582415E+06</totfact>
</mgrwt>
</event>
<event>
 3    1  0.1597250E-001  0.1250000E+03  0.7546771E-02  0.1235069E+00
         21   -1    0    0  502  501  0.00000000000E+00  0.00000000000E+00  0.25413359167E+02  0.25413359167E+02  0.00000000000E+00 0. -1.
         21   -1    0    0  501  502 -0.00000000000E+00 -0.00000000000E+00 -0.15370852686E+03  0.15370852686E+03  0.00000000000E+00 0. -1.
         25    1    1    2    0    0  0.00000000000E+00  0.00000000000E+00 -0.12829516769E+03  0.17912188602E+03  0.12500000000E+03 0.  0.
<mgrwt>
<rscale>  0 0.12500000E+03</rscale>
<asrwt>0</asrwt>
<pdfrwt beam="1">  1       21 0.39097475E-02 0.12500000E+03</pdfrwt>
<pdfrwt beam="2">  1       21 0.23647466E-01 0.12500000E+03</pdfrwt>
<totfact> 0.67252413E+06</totfact>
</mgrwt>
</event>
<event>
 3    1  0.1597250E-001  0.1250000E+03  0.7546771E-02  0.1235069E+00
         21   -1    0    0  502  501  0.00000000000E+00  0.00000000000E+00  0.12645388365E+03  0.12645388365E+03  0.00000000000E+00 0. -1.
         21   -1    0    0  501  502 -0.00000000000E+00 -0.00000000000E+00 -0.30890708038E+02  0.30890708038E+02  0.00000000000E+00 0. -1.
         25    1    1    2    0    0  0.00000000000E+00  0.00000000000E+00  0.95563175610E+02  0.15734459169E+03  0.12500000000E+03 0.  0.
<mgrwt>
<rscale>  0 0.12500000E+03</rscale>
<asrwt>0</asrwt>
<pdfrwt beam="1">  1       21 0.19454443E-01 0.12500000E+03</pdfrwt>
<pdfrwt beam="2">  1       21 0.47524167E-02 0.12500000E+03</pdfrwt>
<totfact> 0.69845422E+06</totfact>
</mgrwt>
</event>
<event>
 3    1  0.1597250E-001  0.1250000E+03  0.7546771E-02  0.1235069E+00
         21   -1    0    0  502  501  0.00000000000E+00  0.00000000000E+00  0.40661684447E+02  0.40661684447E+02  0.00000000000E+00 0.  1.
         21   -1    0    0  501  502 -0.00000000000E+00 -0.00000000000E+00 -0.96067097395E+02  0.96067097395E+02  0.00000000000E+00 0.  1.
         25    1    1    2    0    0  0.00000000000E+00  0.00000000000E+00 -0.55405412949E+02  0.13672878184E+03  0.12500000000E+03 0.  0.
<mgrwt>
<rscale>  0 0.12500000E+03</rscale>
<asrwt>0</asrwt>
<pdfrwt beam="1">  1       21 0.62556437E-02 0.12500000E+03</pdfrwt>
<pdfrwt beam="2">  1       21 0.14779554E-01 0.12500000E+03</pdfrwt>
<totfact> 0.72468370E+06</totfact>
</mgrwt>
</event>
<event>
 3    1  0.1597250E-001  0.1250000E+03  0.7546771E-02  0.1235069E+00
         21   -1    0    0  502  501  0.00000000000E+00  0.00000000000E+00  0.40607113747E+01  0.40607113747E+01  0.00000000000E+00 0.  1.
         21   -1    0    0  501  502 -0.00000000000E+00 -0.00000000000E+00 -0.96196199128E+03  0.96196199128E+03  0.00000000000E+00 0.  1.
         25    1    1    2    0    0  0.00000000000E+00  0.00000000000E+00 -0.95790127991E+03  0.96602270266E+03  0.12500000000E+03 0.  0.
<mgrwt>
<rscale>  0 0.12500000E+03</rscale>
<asrwt>0</asrwt>
<pdfrwt beam="1">  1       21 0.62472496E-03 0.12500000E+03</pdfrwt>
<pdfrwt beam="2">  1       21 0.14799412E+00 0.12500000E+03</pdfrwt>
<totfact> 0.24487275E+06</totfact>
</mgrwt>
</event>
<event>
 3    1  0.1597250E-001  0.1250000E+03  0.7546771E-02  0.1235069E+00
         21   -1    0    0  502  501  0.00000000000E+00  0.00000000000E+00  0.27728296232E+03  0.27728296232E+03  0.00000000000E+00 0. -1.
         21   -1    0    0  501  502 -0.00000000000E+00 -0.00000000000E+00 -0.14087594735E+02  0.14087594735E+02  0.00000000000E+00 0. -1.
         25    1    1    2    0    0  0.00000000000E+00  0.00000000000E+00  0.26319536759E+03  0.29137055706E+03  0.12500000000E+03 0.  0.
<mgrwt>
<rscale>  0 0.12500000E+03</rscale>
<asrwt>0</asrwt>
<pdfrwt beam="1">  1       21 0.42658913E-01 0.12500000E+03</pdfrwt>
<pdfrwt beam="2">  1       21 0.21673225E-02 0.12500000E+03</pdfrwt>
<totfact> 0.56181028E+06</totfact>
</mgrwt>
</event>
<event>
 3    1  0.1597250E-001  0.1250000E+03  0.7546771E-02  0.1235069E+00
         21   -1    0    0  502  501  0.00000000000E+00  0.00000000000E+00  0.49984140604E+02  0.49984140604E+02  0.00000000000E+00 0.  1.
         21   -1    0    0  501  502 -0.00000000000E+00 -0.00000000000E+00 -0.78149788169E+02  0.78149788169E+02  0.00000000000E+00 0.  1.
         25    1    1    2    0    0  0.00000000000E+00  0.00000000000E+00 -0.28165647566E+02  0.12813392877E+03  0.12500000000E+03 0.  0.
<mgrwt>
<rscale>  0 0.12500000E+03</rscale>
<asrwt>0</asrwt>
<pdfrwt beam="1">  1       21 0.76898677E-02 0.12500000E+03</pdfrwt>
<pdfrwt beam="2">  1       21 0.12023044E-01 0.12500000E+03</pdfrwt>
<totfact> 0.73615475E+06</totfact>
</mgrwt>
</event>
<event>
 3    1  0.1597250E-001  0.1250000E+03  0.7546771E-02  0.1235069E+00
         21   -1    0    0  502  501  0.00000000000E+00  0.00000000000E+00  0.12900207139E+03  0.12900207139E+03  0.00000000000E+00 0.  1.
         21   -1    0    0  501  502 -0.00000000000E+00 -0.00000000000E+00 -0.30280521530E+02  0.30280521530E+02  0.00000000000E+00 0.  1.
         25    1    1    2    0    0  0.00000000000E+00  0.00000000000E+00  0.98721549856E+02  0.15928259292E+03  0.12500000000E+03 0.  0.
<mgrwt>
<rscale>  0 0.12500000E+03</rscale>
<asrwt>0</asrwt>
<pdfrwt beam="1">  1       21 0.19846472E-01 0.12500000E+03</pdfrwt>
<pdfrwt beam="2">  1       21 0.46585418E-02 0.12500000E+03</pdfrwt>
<totfact> 0.69607262E+06</totfact>
</mgrwt>
</event>
<event>
 3    1  0.1597250E-001  0.1250000E+03  0.7546771E-02  0.1235069E+00
         21   -1    0    0  502  501  0.00000000000E+00  0.00000000000E+00  0.16709094390E+03  0.16709094390E+03  0.00000000000E+00 0.  1.
         21   -1    0    0  501  502 -0.00000000000E+00 -0.00000000000E+00 -0.23377987513E+02  0.23377987513E+02  0.00000000000E+00 0.  1.
         25    1    1    2    0    0  0.00000000000E+00  0.00000000000E+00  0.14371295638E+03  0.19046893141E+03  0.12500000000E+03 0.  0.
<mgrwt>
<rscale>  0 0.12500000E+03</rscale>
<asrwt>0</asrwt>
<pdfrwt beam="1">  1       21 0.25706298E-01 0.12500000E+03</pdfrwt>
<pdfrwt beam="2">  1       21 0.35966136E-02 0.12500000E+03</pdfrwt>
<totfact> 0.65970385E+06</totfact>
</mgrwt>
</event>
<event>
 3    1  0.1597250E-001  0.1250000E+03  0.7546771E-02  0.1235069E+00
         21   -1    0    0  502  501  0.00000000000E+00  0.00000000000E+00  0.32366989551E+03  0.32366989551E+03  0.00000000000E+00 0. -1.
         21   -1    0    0  501  502 -0.00000000000E+00 -0.00000000000E+00 -0.12068623169E+02  0.12068623169E+02  0.00000000000E+00 0. -1.
         25    1    1    2    0    0  0.00000000000E+00  0.00000000000E+00  0.31160127234E+03  0.33573851868E+03  0.12500000000E+03 0.  0.
<mgrwt>
<rscale>  0 0.12500000E+03</rscale>
<asrwt>0</asrwt>
<pdfrwt beam="1">  1       21 0.49795362E-01 0.12500000E+03</pdfrwt>
<pdfrwt beam="2">  1       21 0.18567115E-02 0.12500000E+03</pdfrwt>
<totfact> 0.52609248E+06</totfact>
</mgrwt>
</event>
<event>
 3    1  0.1597250E-001  0.1250000E+03  0.7546771E-02  0.1235069E+00
         21   -1    0    0  502  501  0.00000000000E+00  0.00000000000E+00  0.19083082138E+02  0.19083082138E+02  0.00000000000E+00 0.  1.
         21   -1    0    0  501  502 -0.00000000000E+00 -0.00000000000E+00 -0.20469701758E+03  0.20469701758E+03  0.00000000000E+00 0.  1.
         25    1    1    2    0    0  0.00000000000E+00  0.00000000000E+00 -0.18561393544E+03  0.22378009972E+03  0.12500000000E+03 0.  0.
<mgrwt>
<rscale>  0 0.12500000E+03</rscale>
<asrwt>0</asrwt>
<pdfrwt beam="1">  1       21 0.29358589E-02 0.12500000E+03</pdfrwt>
<pdfrwt beam="2">  1       21 0.31491848E-01 0.12500000E+03</pdfrwt>
<totfact> 0.62438236E+06</totfact>
</mgrwt>
</event>
<event>
 3    1  0.1597250E-001  0.1250000E+03  0.7546771E-02  0.1235069E+00
         21   -1    0    0  502  501  0.00000000000E+00  0.00000000000E+00  0.40574434681E+02  0.40574434681E+02  0.00000000000E+00 0. -1.
         21   -1    0    0  501  502 -0.00000000000E+00 -0.00000000000E+00 -0.96273676533E+02  0.96273676533E+02  0.00000000000E+00 0. -1.
         25    1    1    2    0    0  0.00000000000E+00  0.00000000000E+00 -0.55699241851E+02  0.13684811121E+03  0.12500000000E+03 0.  0.
<mgrwt>
<rscale>  0 0.12500000E+03</rscale>
<asrwt>0</asrwt>
<pdfrwt beam="1">  1       21 0.62422208E-02 0.12500000E+03</pdfrwt>
<pdfrwt beam="2">  1       21 0.14811335E-01 0.12500000E+03</pdfrwt>
<totfact> 0.72452683E+06</totfact>
</mgrwt>
</event>
<event>
 3    1  0.1597250E-001  0.1250000E+03  0.7546771E-02  0.1235069E+00
         21   -1    0    0  502  501  0.00000000000E+00  0.00000000000E+00  0.32321391048E+02  0.32321391048E+02  0.00000000000E+00 0.  1.
         21   -1    0    0  501  502 -0.00000000000E+00 -0.00000000000E+00 -0.12085649390E+03  0.12085649390E+03  0.00000000000E+00 0.  1.
         25    1    1    2    0    0  0.00000000000E+00  0.00000000000E+00 -0.88535102851E+02  0.15317788495E+03  0.12500000000E+03 0.  0.
<mgrwt>
<rscale>  0 0.12500000E+03</rscale>
<asrwt>0</asrwt>
<pdfrwt beam="1">  1       21 0.49725218E-02 0.12500000E+03</pdfrwt>
<pdfrwt beam="2">  1       21 0.18593307E-01 0.12500000E+03</pdfrwt>
<totfact> 0.70362246E+06</totfact>
</mgrwt>
</event>
<event>
 3    1  0.1597250E-001  0.1250000E+03  0.7546771E-02  0.1235069E+00
         21   -1    0    0  502  501  0.00000000000E+00  0.00000000000E+00  0.75074157185E+01  0.75074157185E+01  0.00000000000E+00 0.  1.
         21   -1    0    0  501  502 -0.00000000000E+00 -0.00000000000E+00 -0.52031886157E+03  0.52031886157E+03  0.00000000000E+00 0.  1.
         25    1    1    2    0    0  0.00000000000E+00  0.00000000000E+00 -0.51281144585E+03  0.52782627729E+03  0.12500000000E+03 0.  0.
<mgrwt>
<rscale>  0 0.12500000E+03</rscale>
<asrwt>0</asrwt>
<pdfrwt beam="1">  1       21 0.11549873E-02 0.12500000E+03</pdfrwt>
<pdfrwt beam="2">  1       21 0.80049037E-01 0.12500000E+03</pdfrwt>
<totfact> 0.40574115E+06</totfact>
</mgrwt>
</event>
<event>
 3    1  0.1597250E-001  0.1250000E+03  0.7546771E-02  0.1235069E+00
         21   -1    0    0  502  501  0.00000000000E+00  0.00000000000E+00  0.40030864840E+02  0.40030864840E+02  0.00000000000E+00 0. -1.
         21   -1    0    0  501  502 -0.00000000000E+00 -0.00000000000E+00 -0.97580954486E+02  0.97580954486E+02  0.00000000000E+00 0. -1.
         25    1    1    2    0    0  0.00000000000E+00  0.00000000000E+00 -0.57550089646E+02  0.13761181933E+03  0.12500000000E+03 0.  0.
<mgrwt>
<rscale>  0 0.12500000E+03</rscale>
<asrwt>0</asrwt>
<pdfrwt beam="1">  1       21 0.61585946E-02 0.12500000E+03</pdfrwt>
<pdfrwt beam="2">  1       21 0.15012454E-01 0.12500000E+03</pdfrwt>
<totfact> 0.72352461E+06</totfact>
</mgrwt>
</event>
<event>
 3    1  0.1597250E-001  0.1250000E+03  0.7546771E-02  0.1235069E+00
         21   -1    0    0  502  501  0.00000000000E+00  0.00000000000E+00  0.22427734165E+03  0.22427734165E+03  0.00000000000E+00 0. -1.
         21   -1    0    0  501  502 -0.00000000000E+00 -0.00000000000E+00 -0.17417051456E+02  0.17417051456E+02  0.00000000000E+00 0. -1.
         25    1    1    2    0    0  0.00000000000E+00  0.00000000000E+00  0.20686029019E+03  0.24169439310E+03  0.12500000000E+03 0.  0.
<mgrwt>
<rscale>  0 0.12500000E+03</rscale>
<asrwt>0</asrwt>
<pdfrwt beam="1">  1       21 0.34504204E-01 0.12500000E+03</pdfrwt>
<pdfrwt beam="2">  1       21 0.26795465E-02 0.12500000E+03</pdfrwt>
<totfact> 0.60669085E+06</totfact>
</mgrwt>
</event>
<event>
 3    1  0.1597250E-001  0.1250000E+03  0.7546771E-02  0.1235069E+00
         21   -1    0    0  502  501  0.00000000000E+00  0.00000000000E+00  0.11386237031E+03  0.11386237031E+03  0.00000000000E+00 0. -1.
         21   -1    0    0  501  502 -0.00000000000E+00 -0.00000000000E+00 -0.34306768682E+02  0.34306768682E+02  0.00000000000E+00 0. -1.
         25    1    1    2    0    0  0.00000000000E+00  0.00000000000E+00  0.79555601632E+02  0.14816913900E+03  0.12500000000E+03 0.  0.
<mgrwt>
<rscale>  0 0.12500000E+03</rscale>
<asrwt>0</asrwt>
<pdfrwt beam="1">  1       21 0.17517288E-01 0.12500000E+03</pdfrwt>
<pdfrwt beam="2">  1       21 0.52779645E-02 0.12500000E+03</pdfrwt>
<totfact> 0.70989955E+06</totfact>
</mgrwt>
</event>
<event>
 3    1  0.1597250E-001  0.1250000E+03  0.7546771E-02  0.1235069E+00
         21   -1    0    0  502  501  0.00000000000E+00  0.00000000000E+00  0.14312878879E+02  0.14312878879E+02  0.00000000000E+00 0.  1.
         21   -1    0    0  501  502 -0.00000000000E+00 -0.00000000000E+00 -0.27291853952E+03  0.27291853952E+03  0.00000000000E+00 0.  1.
         25    1    1    2    0    0  0.00000000000E+00  0.00000000000E+00 -0.25860566064E+03  0.28723141840E+03  0.12500000000E+03 0.  0.
<mgrwt>
<rscale>  0 0.12500000E+03</rscale>
<asrwt>0</asrwt>
<pdfrwt beam="1">  1       21 0.22019815E-02 0.12500000E+03</pdfrwt>
<pdfrwt beam="2">  1       21 0.41987465E-01 0.12500000E+03</pdfrwt>
<totfact> 0.56534273E+06</totfact>
</mgrwt>
</event>
<event>
 3    1  0.1597250E-001  0.1250000E+03  0.7546771E-02  0.1235069E+00
         21   -1    0    0  502  501  0.00000000000E+00  0.00000000000E+00  0.36784918072E+03  0.36784918072E+03  0.00000000000E+00 0. -1.
         21   -1    0    0  501  502 -0.00000000000E+00 -0.00000000000E+00 -0.10619161887E+02  0.10619161887E+02  0.00000000000E+00 0. -1.
         25    1    1    2    0    0  0.00000000000E+00  0.00000000000E+00  0.35723001883E+03  0.37846834261E+03  0.12500000000E+03 0.  0.
<mgrwt>
<rscale>  0 0.12500000E+03</rscale>
<asrwt>0</asrwt>
<pdfrwt beam="1">  1       21 0.56592172E-01 0.12500000E+03</pdfrwt>
<pdfrwt beam="2">  1       21 0.16337175E-02 0.12500000E+03</pdfrwt>
<totfact> 0.49502272E+06</totfact>
</mgrwt>
</event>
<event>
 3    1  0.1597250E-001  0.1250000E+03  0.7546771E-02  0.1235069E+00
         21   -1    0    0  502  501  0.00000000000E+00  0.00000000000E+00  0.68157559622E+02  0.68157559622E+02  0.00000000000E+00 0. -1.
         21   -1    0    0  501  502 -0.00000000000E+00 -0.00000000000E+00 -0.57312057851E+02  0.57312057851E+02  0.00000000000E+00 0. -1.
         25    1    1    2    0    0  0.00000000000E+00  0.00000000000E+00  0.10845501771E+02  0.12546961747E+03  0.12500000000E+03 0.  0.
<mgrwt>
<rscale>  0 0.12500000E+03</rscale>
<asrwt>0</asrwt>
<pdfrwt beam="1">  1       21 0.10485778E-01 0.12500000E+03</pdfrwt>
<pdfrwt beam="2">  1       21 0.88172397E-02 0.12500000E+03</pdfrwt>
<totfact> 0.73979647E+06</totfact>
</mgrwt>
</event>
<event>
 3    1  0.1597250E-001  0.1250000E+03  0.7546771E-02  0.1235069E+00
         21   -1    0    0  502  501  0.00000000000E+00  0.00000000000E+00  0.12359235710E+02  0.12359235710E+02  0.00000000000E+00 0.  1.
         21   -1    0    0  501  502 -0.00000000000E+00 -0.00000000000E+00 -0.31605918777E+03  0.31605918777E+03  0.00000000000E+00 0.  1.
         25    1    1    2    0    0  0.00000000000E+00  0.00000000000E+00 -0.30369995206E+03  0.32841842348E+03  0.12500000000E+03 0.  0.
<mgrwt>
<rscale>  0 0.12500000E+03</rscale>
<asrwt>0</asrwt>
<pdfrwt beam="1">  1       21 0.19014210E-02 0.12500000E+03</pdfrwt>
<pdfrwt beam="2">  1       21 0.48624487E-01 0.12500000E+03</pdfrwt>
<totfact> 0.53172898E+06</totfact>
</mgrwt>
</event>
<event>
 3    1  0.1597250E-001  0.1250000E+03  0.7546771E-02  0.1235069E+00
         21   -1    0    0  502  501  0.00000000000E+00  0.00000000000E+00  0.70897328651E+01  0.70897328651E+01  0.00000000000E+00 0.  1.
         21   -1    0    0  501  502 -0.00000000000E+00 -0.00000000000E+00 -0.55097280452E+03  0.55097280452E+03  0.00000000000E+00 0.  1.
         25    1    1    2    0    0  0.00000000000E+00  0.00000000000E+00 -0.54388307166E+03  0.55806253739E+03  0.12500000000E+03 0.  0.
<mgrwt>
<rscale>  0 0.12500000E+03</rscale>
<asrwt>0</asrwt>
<pdfrwt beam="1">  1       21 0.10907285E-02 0.12500000E+03</pdfrwt>
<pdfrwt beam="2">  1       21 0.84765020E-01 0.12500000E+03</pdfrwt>
<totfact> 0.39060598E+06</totfact>
</mgrwt>
</event>
<event>
 3    1  0.1597250E-001  0.1250000E+03  0.7546771E-02  0.1235069E+00
         21   -1    0    0  502  501  0.00000000000E+00  0.00000000000E+00  0.14672394631E+02  0.14672394631E+02  0.00000000000E+00 0. -1.
         21   -1    0    0  501  502 -0.00000000000E+00 -0.00000000000E+00 -0.26623125251E+03  0.26623125251E+03  0.00000000000E+00 0. -1.
         25    1    1    2    0    0  0.00000000000E+00  0.00000000000E+00 -0.25155885788E+03  0.28090364715E+03  0.12500000000E+03 0.  0.
<mgrwt>
<rscale>  0 0.12500000E+03</rscale>
<asrwt>0</asrwt>
<pdfrwt beam="1">  1       21 0.22572919E-02 0.12500000E+03</pdfrwt>
<pdfrwt beam="2">  1       21 0.40958647E-01 0.12500000E+03</pdfrwt>
<totfact> 0.57081461E+06</totfact>
</mgrwt>
</event>
<event>
 3    1  0.1597250E-001  0.1250000E+03  0.7546771E-02  0.1235069E+00
         21   -1    0    0  502  501  0.00000000000E+00  0.00000000000E+00  0.36181400645E+03  0.36181400645E+03  0.00000000000E+00 0.  1.
         21   -1    0    0  501  502 -0.00000000000E+00 -0.00000000000E+00 -0.10796292931E+02  0.10796292931E+02  0.00000000000E+00 0.  1.
         25    1    1    2    0    0  0.00000000000E+00  0.00000000000E+00  0.35101771352E+03  0.37261029938E+03  0.12500000000E+03 0.  0.
<mgrwt>
<rscale>  0 0.12500000E+03</rscale>
<asrwt>0</asrwt>
<pdfrwt beam="1">  1       21 0.55663684E-01 0.12500000E+03</pdfrwt>
<pdfrwt beam="2">  1       21 0.16609684E-02 0.12500000E+03</pdfrwt>
<totfact> 0.49910733E+06</totfact>
</mgrwt>
</event>
<event>
 3    1  0.1597250E-001  0.1250000E+03  0.7546771E-02  0.1235069E+00
         21   -1    0    0  502  501  0.00000000000E+00  0.00000000000E+00  0.66797688564E+01  0.66797688564E+01  0.00000000000E+00 0.  1.
         21   -1    0    0  501  502 -0.00000000000E+00 -0.00000000000E+00 -0.58478819911E+03  0.58478819911E+03  0.00000000000E+00 0.  1.
         25    1    1    2    0    0  0.00000000000E+00  0.00000000000E+00 -0.57810843025E+03  0.59146796797E+03  0.12500000000E+03 0.  0.
<mgrwt>
<rscale>  0 0.12500000E+03</rscale>
<asrwt>0</asrwt>
<pdfrwt beam="1">  1       21 0.10276572E-02 0.12500000E+03</pdfrwt>
<pdfrwt beam="2">  1       21 0.89967376E-01 0.12500000E+03</pdfrwt>
<totfact> 0.37481357E+06</totfact>
</mgrwt>
</event>
<event>
 3    1  0.1597250E-001  0.1250000E+03  0.7546771E-02  0.1235069E+00
         21   -1    0    0  502  501  0.00000000000E+00  0.00000000000E+00  0.33310536043E+02  0.33310536043E+02  0.00000000000E+00 0. -1.
         21   -1    0    0  501  502 -0.00000000000E+00 -0.00000000000E+00 -0.11726770157E+03  0.11726770157E+03  0.00000000000E+00 0. -1.
         25    1    1    2    0    0  0.00000000000E+00  0.00000000000E+00 -0.83957165532E+02  0.15057823762E+03  0.12500000000E+03 0.  0.
<mgrwt>
<rscale>  0 0.12500000E+03</rscale>
<asrwt>0</asrwt>
<pdfrwt beam="1">  1       21 0.51246979E-02 0.12500000E+03</pdfrwt>
<pdfrwt beam="2">  1       21 0.18041185E-01 0.12500000E+03</pdfrwt>
<totfact> 0.70686639E+06</totfact>
</mgrwt>
</event>
<event>
 3    1  0.1597250E-001  0.1250000E+03  0.7546771E-02  0.1235069E+00
         21   -1    0    0  502  501  0.00000000000E+00  0.00000000000E+00  0.33610776796E+01  0.33610776796E+01  0.00000000000E+00 0. -1.
         21   -1    0    0  501  502 -0.00000000000E+00 -0.00000000000E+00 -0.11622016426E+04  0.11622016426E+04  0.00000000000E+00 0. -1.
         25    1    1    2    0    0  0.00000000000E+00  0.00000000000E+00 -0.11588405649E+04  0.11655627202E+04  0.12500000000E+03 0.  0.
<mgrwt>
<rscale>  0 0.12500000E+03</rscale>
<asrwt>0</asrwt>
<pdfrwt beam="1">  1       21 0.51708874E-03 0.12500000E+03</pdfrwt>
<pdfrwt beam="2">  1       21 0.17880030E+00 0.12500000E+03</pdfrwt>
<totfact> 0.19843461E+06</totfact>
</mgrwt>
</event>
<event>
 3    1  0.1597250E-001  0.1250000E+03  0.7546771E-02  0.1235069E+00
         21   -1    0    0  502  501  0.00000000000E+00  0.00000000000E+00  0.43239814827E+01  0.43239814827E+01  0.00000000000E+00 0. -1.
         21   -1    0    0  501  502 -0.00000000000E+00 -0.00000000000E+00 -0.90339193533E+03  0.90339193533E+03  0.00000000000E+00 0. -1.
         25    1    1    2    0    0  0.00000000000E+00  0.00000000000E+00 -0.89906795384E+03  0.90771591681E+03  0.12500000000E+03 0.  0.
<mgrwt>
<rscale>  0 0.12500000E+03</rscale>
<asrwt>0</asrwt>
<pdfrwt beam="1">  1       21 0.66522771E-03 0.12500000E+03</pdfrwt>
<pdfrwt beam="2">  1       21 0.13898342E+00 0.12500000E+03</pdfrwt>
<totfact> 0.26078462E+06</totfact>
</mgrwt>
</event>
<event>
 3    1  0.1597250E-001  0.1250000E+03  0.7546771E-02  0.1235069E+00
         21   -1    0    0  502  501  0.00000000000E+00  0.00000000000E+00  0.34338157868E+02  0.34338157868E+02  0.00000000000E+00 0.  1.
         21   -1    0    0  501  502 -0.00000000000E+00 -0.00000000000E+00 -0.11375828648E+03  0.11375828648E+03  0.00000000000E+00 0.  1.
         25    1    1    2    0    0  0.00000000000E+00  0.00000000000E+00 -0.79420128612E+02  0.14809644435E+03  0.12500000000E+03 0.  0.
<mgrwt>
<rscale>  0 0.12500000E+03</rscale>
<asrwt>0</asrwt>
<pdfrwt beam="1">  1       21 0.52827935E-02 0.12500000E+03</pdfrwt>
<pdfrwt beam="2">  1       21 0.17501275E-01 0.12500000E+03</pdfrwt>
<totfact> 0.70999148E+06</totfact>
</mgrwt>
</event>
<event>
 3    1  0.1597250E-001  0.1250000E+03  0.7546771E-02  0.1235069E+00
         21   -1    0    0  502  501  0.00000000000E+00  0.00000000000E+00  0.81911742147E+02  0.81911742147E+02  0.00000000000E+00 0.  1.
         21   -1    0    0  501  502 -0.00000000000E+00 -0.00000000000E+00 -0.47688523008E+02  0.47688523008E+02  0.00000000000E+00 0.  1.
         25    1    1    2    0    0  0.00000000000E+00  0.00000000000E+00  0.34223219139E+02  0.12960026515E+03  0.12500000000E+03 0.  0.
<mgrwt>
<rscale>  0 0.12500000E+03</rscale>
<asrwt>0</asrwt>
<pdfrwt beam="1">  1       21 0.12601806E-01 0.12500000E+03</pdfrwt>
<pdfrwt beam="2">  1       21 0.73366958E-02 0.12500000E+03</pdfrwt>
<totfact> 0.73418388E+06</totfact>
</mgrwt>
</event>
<event>
 3    1  0.1597250E-001  0.1250000E+03  0.7546771E-02  0.1235069E+00
         21   -1    0    0  502  501  0.00000000000E+00  0.00000000000E+00  0.12973774702E+03  0.12973774702E+03  0.00000000000E+00 0. -1.
         21   -1    0    0  501  502 -0.00000000000E+00 -0.00000000000E+00 -0.30108816361E+02  0.30108816361E+02  0.00000000000E+00 0. -1.
         25    1    1    2    0    0  0.00000000000E+00  0.00000000000E+00  0.99628930655E+02  0.15984656338E+03  0.12500000000E+03 0.  0.
<mgrwt>
<rscale>  0 0.12500000E+03</rscale>
<asrwt>0</asrwt>
<pdfrwt beam="1">  1       21 0.19959653E-01 0.12500000E+03</pdfrwt>
<pdfrwt beam="2">  1       21 0.46321256E-02 0.12500000E+03</pdfrwt>
<totfact> 0.69538249E+06</totfact>
</mgrwt>
</event>
<event>
 3    1  0.1597250E-001  0.1250000E+03  0.7546771E-02  0.1235069E+00
         21   -1    0    0  502  501  0.00000000000E+00  0.00000000000E+00  0.37026706999E+02  0.37026706999E+02  0.00000000000E+00 0.  1.
         21   -1    0    0  501  502 -0.00000000000E+00 -0.00000000000E+00 -0.10549817460E+03  0.10549817460E+03  0.00000000000E+00 0.  1.
         25    1    1    2    0    0  0.00000000000E+00  0.00000000000E+00 -0.68471467604E+02  0.14252488160E+03  0.12500000000E+03 0.  0.
<mgrwt>
<rscale>  0 0.12500000E+03</rscale>
<asrwt>0</asrwt>
<pdfrwt beam="1">  1       21 0.56964165E-02 0.12500000E+03</pdfrwt>
<pdfrwt beam="2">  1       21 0.16230488E-01 0.12500000E+03</pdfrwt>
<totfact> 0.71711380E+06</totfact>
</mgrwt>
</event>
<event>
 3    1  0.1597250E-001  0.1250000E+03  0.7546771E-02  0.1235069E+00
         21   -1    0    0  502  501  0.00000000000E+00  0.00000000000E+00  0.34122494760E+02  0.34122494760E+02  0.00000000000E+00 0.  1.
         21   -1    0    0  501  502 -0.00000000000E+00 -0.00000000000E+00 -0.11447726866E+03  0.11447726866E+03  0.00000000000E+00 0.  1.
         25    1    1    2    0    0  0.00000000000E+00  0.00000000000E+00 -0.80354773899E+02  0.14859976342E+03  0.12500000000E+03 0.  0.
<mgrwt>
<rscale>  0 0.12500000E+03</rscale>
<asrwt>0</asrwt>
<pdfrwt beam="1">  1       21 0.52496145E-02 0.12500000E+03</pdfrwt>
<pdfrwt beam="2">  1       21 0.17611888E-01 0.12500000E+03</pdfrwt>
<totfact> 0.70935542E+06</totfact>
</mgrwt>
</event>
<event>
 3    1  0.1597250E-001  0.1250000E+03  0.7546771E-02  0.1235069E+00
         21   -1    0    0  502  501  0.00000000000E+00  0.00000000000E+00  0.84427761523E+03  0.84427761523E+03  0.00000000000E+00 0.  1.
         21   -1    0    0  501  502 -0.00000000000E+00 -0.00000000000E+00 -0.46267364307E+01  0.46267364307E+01  0.00000000000E+00 0.  1.
         25    1    1    2    0    0  0.00000000000E+00  0.00000000000E+00  0.83965087880E+03  0.84890435166E+03  0.12500000000E+03 0.  0.
<mgrwt>
<rscale>  0 0.12500000E+03</rscale>
<asrwt>0</asrwt>
<pdfrwt beam="1">  1       21 0.12988874E+00 0.12500000E+03</pdfrwt>
<pdfrwt beam="2">  1       21 0.71180628E-03 0.12500000E+03</pdfrwt>
<totfact> 0.27805245E+06</totfact>
</mgrwt>
</event>
<event>
 3    1  0.1597250E-001  0.1250000E+03  0.7546771E-02  0.1235069E+00
         21   -1    0    0  502  501  0.00000000000E+00  0.00000000000E+00  0.67180024880E+02  0.67180024880E+02  0.00000000000E+00 0.  1.
         21   -1    0    0  501  502 -0.00000000000E+00 -0.00000000000E+00 -0.58146004069E+02  0.58146004069E+02  0.00000000000E+00 0.  1.
         25    1    1    2    0    0  0.00000000000E+00  0.00000000000E+00  0.90340208115E+01  0.12532602895E+03  0.12500000000E+03 0.  0.
<mgrwt>
<rscale>  0 0.12500000E+03</rscale>
<asrwt>0</asrwt>
<pdfrwt beam="1">  1       21 0.10335388E-01 0.12500000E+03</pdfrwt>
<pdfrwt beam="2">  1       21 0.89455391E-02 0.12500000E+03</pdfrwt>
<totfact> 0.73999558E+06</totfact>
</mgrwt>
</event>
<event>
 3    1  0.1597250E-001  0.1250000E+03  0.7546771E-02  0.1235069E+00
         21   -1    0    0  502  501  0.00000000000E+00  0.00000000000E+00  0.10369583514E+03  0.10369583514E+03  0.00000000000E+00 0. -1.
         21   -1    0    0  501  502 -0.00000000000E+00 -0.00000000000E+00 -0.37670268962E+02  0.37670268962E+02  0.00000000000E+00 0. -1.
         25    1    1    2    0    0  0.00000000000E+00  0.00000000000E+00  0.66025566180E+02  0.14136610410E+03  0.12500000000E+03 0.  0.
<mgrwt>
<rscale>  0 0.12500000E+03</rscale>
<asrwt>0</asrwt>
<pdfrwt beam="1">  1       21 0.15953205E-01 0.12500000E+03</pdfrwt>
<pdfrwt beam="2">  1       21 0.57954260E-02 0.12500000E+03</pdfrwt>
<totfact> 0.71861465E+06</totfact>
</mgrwt>
</event>
<event>
 3    1  0.1597250E-001  0.1250000E+03  0.7546771E-02  0.1235069E+00
         21   -1    0    0  502  501  0.00000000000E+00  0.00000000000E+00  0.10101237923E+03  0.10101237923E+03  0.00000000000E+00 0.  1.
         21   -1    0    0  501  502 -0.00000000000E+00 -0.00000000000E+00 -0.38671002800E+02  0.38671002800E+02  0.00000000000E+00 0.  1.
         25    1    1    2    0    0  0.00000000000E+00  0.00000000000E+00  0.62341376430E+02  0.13968338203E+03  0.12500000000E+03 0.  0.
<mgrwt>
<rscale>  0 0.12500000E+03</rscale>
<asrwt>0</asrwt>
<pdfrwt beam="1">  1       21 0.15540366E-01 0.12500000E+03</pdfrwt>
<pdfrwt beam="2">  1       21 0.59493851E-02 0.12500000E+03</pdfrwt>
<totfact> 0.72080669E+06</totfact>
</mgrwt>
</event>
<event>
 3    1  0.1597250E-001  0.1250000E+03  0.7546771E-02  0.1235069E+00
         21   -1    0    0  502  501  0.00000000000E+00  0.00000000000E+00  0.58467925243E+02  0.58467925243E+02  0.00000000000E+00 0.  1.
         21   -1    0    0  501  502 -0.00000000000E+00 -0.00000000000E+00 -0.66810135365E+02  0.66810135365E+02  0.00000000000E+00 0.  1.
         25    1    1    2    0    0  0.00000000000E+00  0.00000000000E+00 -0.83422101213E+01  0.12527806061E+03  0.12500000000E+03 0.  0.
<mgrwt>
<rscale>  0 0.12500000E+03</rscale>
<asrwt>0</asrwt>
<pdfrwt beam="1">  1       21 0.89950654E-02 0.12500000E+03</pdfrwt>
<pdfrwt beam="2">  1       21 0.10278482E-01 0.12500000E+03</pdfrwt>
<totfact> 0.74006033E+06</totfact>
</mgrwt>
</event>
<event>
 3    1  0.1597250E-001  0.1250000E+03  0.7546771E-02  0.1235069E+00
         21   -1    0    0  502  501  0.00000000000E+00  0.00000000000E+00  0.38086057305E+02  0.38086057305E+02  0.00000000000E+00 0.  1.
         21   -1    0    0  501  502 -0.00000000000E+00 -0.00000000000E+00 -0.10256377993E+03  0.10256377993E+03  0.00000000000E+00 0.  1.
         25    1    1    2    0    0  0.00000000000E+00  0.00000000000E+00 -0.64477722629E+02  0.14064983724E+03  0.12500000000E+03 0.  0.
<mgrwt>
<rscale>  0 0.12500000E+03</rscale>
<asrwt>0</asrwt>
<pdfrwt beam="1">  1       21 0.58593935E-02 0.12500000E+03</pdfrwt>
<pdfrwt beam="2">  1       21 0.15779043E-01 0.12500000E+03</pdfrwt>
<totfact> 0.71954587E+06</totfact>
</mgrwt>
</event>
<event>
 3    1  0.1597250E-001  0.1250000E+03  0.7546771E-02  0.1235069E+00
         21   -1    0    0  502  501  0.00000000000E+00  0.00000000000E+00  0.69685243709E+03  0.69685243709E+03  0.00000000000E+00 0.  1.
         21   -1    0    0  501  502 -0.00000000000E+00 -0.00000000000E+00 -0.56055626587E+01  0.56055626587E+01  0.00000000000E+00 0.  1.
         25    1    1    2    0    0  0.00000000000E+00  0.00000000000E+00  0.69124687443E+03  0.70245799975E+03  0.12500000000E+03 0.  0.
<mgrwt>
<rscale>  0 0.12500000E+03</rscale>
<asrwt>0</asrwt>
<pdfrwt beam="1">  1       21 0.10720800E+00 0.12500000E+03</pdfrwt>
<pdfrwt beam="2">  1       21 0.86239481E-03 0.12500000E+03</pdfrwt>
<totfact> 0.32815607E+06</totfact>
</mgrwt>
</event>
<event>
 3    1  0.1597250E-001  0.1250000E+03  0.7546771E-02  0.1235069E+00
         21   -1    0    0  502  501  0.00000000000E+00  0.00000000000E+00  0.19536943755E+02  0.19536943755E+02  0.00000000000E+00 0.  1.
         21   -1    0    0  501  502 -0.00000000000E+00 -0.00000000000E+00 -0.19994171294E+03  0.19994171294E+03  0.00000000000E+00 0.  1.
         25    1    1    2    0    0  0.00000000000E+00  0.00000000000E+00 -0.18040476919E+03  0.21947865670E+03  0.12500000000E+03 0.  0.
<mgrwt>
<rscale>  0 0.12500000E+03</rscale>
<asrwt>0</asrwt>
<pdfrwt beam="1">  1       21 0.30056838E-02 0.12500000E+03</pdfrwt>
<pdfrwt beam="2">  1       21 0.30760262E-01 0.12500000E+03</pdfrwt>
<totfact> 0.62875864E+06</totfact>
</mgrwt>
</event>
<event>
 3    1  0.1597250E-001  0.1250000E+03  0.7546771E-02  0.1235069E+00
         21   -1    0    0  502  501  0.00000000000E+00  0.00000000000E+00  0.18946905333E+03  0.18946905333E+03  0.00000000000E+00 0. -1.
         21   -1    0    0  501  502 -0.00000000000E+00 -0.00000000000E+00 -0.20616823336E+02  0.20616823336E+02  0.00000000000E+00 0. -1.
         25    1    1    2    0    0  0.00000000000E+00  0.00000000000E+00  0.16885222999E+03  0.21008587666E+03  0.12500000000E+03 0.  0.
<mgrwt>
<rscale>  0 0.12500000E+03</rscale>
<asrwt>0</asrwt>
<pdfrwt beam="1">  1       21 0.29149084E-01 0.12500000E+03</pdfrwt>
<pdfrwt beam="2">  1       21 0.31718191E-02 0.12500000E+03</pdfrwt>
<totfact> 0.63850502E+06</totfact>
</mgrwt>
</event>
<event>
 3    1  0.1597250E-001  0.1250000E+03  0.7546771E-02  0.1235069E+00
         21   -1    0    0  502  501  0.00000000000E+00  0.00000000000E+00  0.44164735905E+01  0.44164735905E+01  0.00000000000E+00 0. -1.
         21   -1    0    0  501  502 -0.00000000000E+00 -0.00000000000E+00 -0.88447262730E+03  0.88447262730E+03  0.00000000000E+00 0. -1.
         25    1    1    2    0    0  0.00000000000E+00  0.00000000000E+00 -0.88005615371E+03  0.88888910089E+03  0.12500000000E+03 0.  0.
<mgrwt>
<rscale>  0 0.12500000E+03</rscale>
<asrwt>0</asrwt>
<pdfrwt beam="1">  1       21 0.67945787E-03 0.12500000E+03</pdfrwt>
<pdfrwt beam="2">  1       21 0.13607263E+00 0.12500000E+03</pdfrwt>
<totfact> 0.26619215E+06</totfact>
</mgrwt>
</event>
<event>
 3    1  0.1597250E-001  0.1250000E+03  0.7546771E-02  0.1235069E+00
         21   -1    0    0  502  501  0.00000000000E+00  0.00000000000E+00  0.14034466128E+02  0.14034466128E+02  0.00000000000E+00 0. -1.
         21   -1    0    0  501  502 -0.00000000000E+00 -0.00000000000E+00 -0.27833263940E+03  0.27833263940E+03  0.00000000000E+00 0. -1.
         25    1    1    2    0    0  0.00000000000E+00  0.00000000000E+00 -0.26429817327E+03  0.29236710553E+03  0.12500000000E+03 0.  0.
<mgrwt>
<rscale>  0 0.12500000E+03</rscale>
<asrwt>0</asrwt>
<pdfrwt beam="1">  1       21 0.21591489E-02 0.12500000E+03</pdfrwt>
<pdfrwt beam="2">  1       21 0.42820402E-01 0.12500000E+03</pdfrwt>
<totfact> 0.56096524E+06</totfact>
</mgrwt>
</event>
<event>
 3    1  0.1597250E-001  0.1250000E+03  0.7546771E-02  0.1235069E+00
         21   -1    0    0  502  501  0.00000000000E+00  0.00000000000E+00  0.18975026464E+04  0.18975026464E+04  0.00000000000E+00 0. -1.
         21   -1    0    0  501  502 -0.00000000000E+00 -0.00000000000E+00 -0.20586269049E+01  0.20586269049E+01  0.00000000000E+00 0. -1.
         25    1    1    2    0    0  0.00000000000E+00  0.00000000000E+00  0.18954440195E+04  0.18995612733E+04  0.12500000000E+03 0.  0.
<mgrwt>
<rscale>  0 0.12500000E+03</rscale>
<asrwt>0</asrwt>
<pdfrwt beam="1">  1       21 0.29192208E+00 0.12500000E+03</pdfrwt>
<pdfrwt beam="2">  1       21 0.31671335E-03 0.12500000E+03</pdfrwt>
<totfact> 0.89697468E+05</totfact>
</mgrwt>
</event>
<event>
 3    1  0.1597250E-001  0.1250000E+03  0.7546771E-02  0.1235069E+00
         21   -1    0    0  502  501  0.00000000000E+00  0.00000000000E+00  0.11356319818E+03  0.11356319818E+03  0.00000000000E+00 0.  1.
         21   -1    0    0  501  502 -0.00000000000E+00 -0.00000000000E+00 -0.34397146810E+02  0.34397146810E+02  0.00000000000E+00 0.  1.
         25    1    1    2    0    0  0.00000000000E+00  0.00000000000E+00  0.79166051370E+02  0.14796034499E+03  0.12500000000E+03 0.  0.
<mgrwt>
<rscale>  0 0.12500000E+03</rscale>
<asrwt>0</asrwt>
<pdfrwt beam="1">  1       21 0.17471261E-01 0.12500000E+03</pdfrwt>
<pdfrwt beam="2">  1       21 0.52918688E-02 0.12500000E+03</pdfrwt>
<totfact> 0.71016368E+06</totfact>
</mgrwt>
</event>
<event>
 3    1  0.1597250E-001  0.1250000E+03  0.7546771E-02  0.1235069E+00
         21   -1    0    0  502  501  0.00000000000E+00  0.00000000000E+00  0.60189469188E+02  0.60189469188E+02  0.00000000000E+00 0.  1.
         21   -1    0    0  501  502 -0.00000000000E+00 -0.00000000000E+00 -0.64899226604E+02  0.64899226604E+02  0.00000000000E+00 0.  1.
         25    1    1    2    0    0  0.00000000000E+00  0.00000000000E+00 -0.47097574154E+01  0.12508869579E+03  0.12500000000E+03 0.  0.
<mgrwt>
<rscale>  0 0.12500000E+03</rscale>
<asrwt>0</asrwt>
<pdfrwt beam="1">  1       21 0.92599184E-02 0.12500000E+03</pdfrwt>
<pdfrwt beam="2">  1       21 0.99844963E-02 0.12500000E+03</pdfrwt>
<totfact> 0.74031602E+06</totfact>
</mgrwt>
</event>
<event>
 3    1  0.1597250E-001  0.1250000E+03  0.7546771E-02  0.1235069E+00
         21   -1    0    0  502  501  0.00000000000E+00  0.00000000000E+00  0.12983782332E+01  0.12983782332E+01  0.00000000000E+00 0. -1.
         21   -1    0    0  501  502 -0.00000000000E+00 -0.00000000000E+00 -0.30085609108E+04  0.30085609108E+04  0.00000000000E+00 0. -1.
         25    1    1    2    0    0  0.00000000000E+00  0.00000000000E+00 -0.30072625326E+04  0.30098592891E+04  0.12500000000E+03 0.  0.
<mgrwt>
<rscale>  0 0.12500000E+03</rscale>
<asrwt>0</asrwt>
<pdfrwt beam="1">  1       21 0.19975095E-03 0.12500000E+03</pdfrwt>
<pdfrwt beam="2">  1       21 0.46285448E+00 0.12500000E+03</pdfrwt>
<totfact> 0.17050424E+05</totfact>
</mgrwt>
</event>
<event>
 3    1  0.1597250E-001  0.1250000E+03  0.7546771E-02  0.1235069E+00
         21   -1    0    0  502  501  0.00000000000E+00  0.00000000000E+00  0.58191609454E+02  0.58191609454E+02  0.00000000000E+00 0.  1.
         21   -1    0    0  501  502 -0.00000000000E+00 -0.00000000000E+00 -0.67127375177E+02  0.67127375177E+02  0.00000000000E+00 0.  1.
         25    1    1    2    0    0  0.00000000000E+00  0.00000000000E+00 -0.89357657234E+01  0.12531898463E+03  0.12500000000E+03 0.  0.
<mgrwt>
<rscale>  0 0.12500000E+03</rscale>
<asrwt>0</asrwt>
<pdfrwt beam="1">  1       21 0.89525553E-02 0.12500000E+03</pdfrwt>
<pdfrwt beam="2">  1       21 0.10327288E-01 0.12500000E+03</pdfrwt>
<totfact> 0.74000509E+06</totfact>
</mgrwt>
</event>
<event>
 3    1  0.1597250E-001  0.1250000E+03  0.7546771E-02  0.1235069E+00
         21   -1    0    0  502  501  0.00000000000E+00  0.00000000000E+00  0.45267974404E+02  0.45267974404E+02  0.00000000000E+00 0. -1.
         21   -1    0    0  501  502 -0.00000000000E+00 -0.00000000000E+00 -0.86291689686E+02  0.86291689686E+02  0.00000000000E+00 0. -1.
         25    1    1    2    0    0  0.00000000000E+00  0.00000000000E+00 -0.41023715282E+02  0.13155966409E+03  0.12500000000E+03 0.  0.
<mgrwt>
<rscale>  0 0.12500000E+03</rscale>
<asrwt>0</asrwt>
<pdfrwt beam="1">  1       21 0.69643038E-02 0.12500000E+03</pdfrwt>
<pdfrwt beam="2">  1       21 0.13275645E-01 0.12500000E+03</pdfrwt>
<totfact> 0.73155351E+06</totfact>
</mgrwt>
</event>
<event>
 3    1  0.1597250E-001  0.1250000E+03  0.7546771E-02  0.1235069E+00
         21   -1    0    0  502  501  0.00000000000E+00  0.00000000000E+00  0.16729986161E+03  0.16729986161E+03  0.00000000000E+00 0.  1.
         21   -1    0    0  501  502 -0.00000000000E+00 -0.00000000000E+00 -0.23348793970E+02  0.23348793970E+02  0.00000000000E+00 0.  1.
         25    1    1    2    0    0  0.00000000000E+00  0.00000000000E+00  0.14395106764E+03  0.19064865558E+03  0.12500000000E+03 0.  0.
<mgrwt>
<rscale>  0 0.12500000E+03</rscale>
<asrwt>0</asrwt>
<pdfrwt beam="1">  1       21 0.25738440E-01 0.12500000E+03</pdfrwt>
<pdfrwt beam="2">  1       21 0.35921223E-02 0.12500000E+03</pdfrwt>
<totfact> 0.65950445E+06</totfact>
</mgrwt>
</event>
<event>
 3    1  0.1597250E-001  0.1250000E+03  0.7546771E-02  0.1235069E+00
         21   -1    0    0  502  501  0.00000000000E+00  0.00000000000E+00  0.28037758634E+02  0.28037758634E+02  0.00000000000E+00 0.  1.
         21   -1    0    0  501  502 -0.00000000000E+00 -0.00000000000E+00 -0.13932105098E+03  0.13932105098E+03  0.00000000000E+00 0.  1.
         25    1    1    2    0    0  0.00000000000E+00  0.00000000000E+00 -0.11128329235E+03  0.16735880961E+03  0.12500000000E+03 0.  0.
<mgrwt>
<rscale>  0 0.12500000E+03</rscale>
<asrwt>0</asrwt>
<pdfrwt beam="1">  1       21 0.43135014E-02 0.12500000E+03</pdfrwt>
<pdfrwt beam="2">  1       21 0.21434008E-01 0.12500000E+03</pdfrwt>
<totfact> 0.68631321E+06</totfact>
</mgrwt>
</event>
<event>
 3    1  0.1597250E-001  0.1250000E+03  0.7546771E-02  0.1235069E+00
         21   -1    0    0  502  501  0.00000000000E+00  0.00000000000E+00  0.13639853223E+02  0.13639853223E+02  0.00000000000E+00 0. -1.
         21   -1    0    0  501  502 -0.00000000000E+00 -0.00000000000E+00 -0.28638504653E+03  0.28638504653E+03  0.00000000000E+00 0. -1.
         25    1    1    2    0    0  0.00000000000E+00  0.00000000000E+00 -0.27274519330E+03  0.30002489975E+03  0.12500000000E+03 0.  0.
<mgrwt>
<rscale>  0 0.12500000E+03</rscale>
<asrwt>0</asrwt>
<pdfrwt beam="1">  1       21 0.20984390E-02 0.12500000E+03</pdfrwt>
<pdfrwt beam="2">  1       21 0.44059236E-01 0.12500000E+03</pdfrwt>
<totfact> 0.55454105E+06</totfact>
</mgrwt>
</event>
<event>
 3    1  0.1597250E-001  0.1250000E+03  0.7546771E-02  0.1235069E+00
         21   -1    0    0  502  501  0.00000000000E+00  0.00000000000E+00  0.17822883838E+02  0.17822883838E+02  0.00000000000E+00 0. -1.
         21   -1    0    0  501  502 -0.00000000000E+00 -0.00000000000E+00 -0.21917047967E+03  0.21917047967E+03  0.00000000000E+00 0. -1.
         25    1    1    2    0    0  0.00000000000E+00  0.00000000000E+00 -0.20134759583E+03  0.23699336351E+03  0.12500000000E+03 0.  0.
<mgrwt>
<rscale>  0 0.12500000E+03</rscale>
<asrwt>0</asrwt>
<pdfrwt beam="1">  1       21 0.27419821E-02 0.12500000E+03</pdfrwt>
<pdfrwt beam="2">  1       21 0.33718536E-01 0.12500000E+03</pdfrwt>
<totfact> 0.61124827E+06</totfact>
</mgrwt>
</event>
<event>
 3    1  0.1597250E-001  0.1250000E+03  0.7546771E-02  0.1235069E+00
         21   -1    0    0  502  501  0.00000000000E+00  0.00000000000E+00  0.90661279644E+03  0.90661279644E+03  0.00000000000E+00 0.  1.
         21   -1    0    0  501  502 -0.00000000000E+00 -0.00000000000E+00 -0.43086199702E+01  0.43086199702E+01  0.00000000000E+00 0.  1.
         25    1    1    2    0    0  0.00000000000E+00  0.00000000000E+00  0.90230417647E+03  0.91092141641E+03  0.12500000000E+03 0.  0.
<mgrwt>
<rscale>  0 0.12500000E+03</rscale>
<asrwt>0</asrwt>
<pdfrwt beam="1">  1       21 0.13947874E+00 0.12500000E+03</pdfrwt>
<pdfrwt beam="2">  1       21 0.66286533E-03 0.12500000E+03</pdfrwt>
<totfact> 0.25987546E+06</totfact>
</mgrwt>
</event>
<event>
 3    1  0.1597250E-001  0.1250000E+03  0.7546771E-02  0.1235069E+00
         21   -1    0    0  502  501  0.00000000000E+00  0.00000000000E+00  0.89808145397E+02  0.89808145397E+02  0.00000000000E+00 0. -1.
         21   -1    0    0  501  502 -0.00000000000E+00 -0.00000000000E+00 -0.43495497905E+02  0.43495497905E+02  0.00000000000E+00 0. -1.
         25    1    1    2    0    0  0.00000000000E+00  0.00000000000E+00  0.46312647491E+02  0.13330364330E+03  0.12500000000E+03 0.  0.
<mgrwt>
<rscale>  0 0.12500000E+03</rscale>
<asrwt>0</asrwt>
<pdfrwt beam="1">  1       21 0.13816638E-01 0.12500000E+03</pdfrwt>
<pdfrwt beam="2">  1       21 0.66916151E-02 0.12500000E+03</pdfrwt>
<totfact> 0.72921878E+06</totfact>
</mgrwt>
</event>
<event>
 3    1  0.1597250E-001  0.1250000E+03  0.7546771E-02  0.1235069E+00
         21   -1    0    0  502  501  0.00000000000E+00  0.00000000000E+00  0.20268747110E+03  0.20268747110E+03  0.00000000000E+00 0. -1.
         21   -1    0    0  501  502 -0.00000000000E+00 -0.00000000000E+00 -0.19272281502E+02  0.19272281502E+02  0.00000000000E+00 0. -1.
         25    1    1    2    0    0  0.00000000000E+00  0.00000000000E+00  0.18341518960E+03  0.22195975261E+03  0.12500000000E+03 0.  0.
<mgrwt>
<rscale>  0 0.12500000E+03</rscale>
<asrwt>0</asrwt>
<pdfrwt beam="1">  1       21 0.31182686E-01 0.12500000E+03</pdfrwt>
<pdfrwt beam="2">  1       21 0.29649665E-02 0.12500000E+03</pdfrwt>
<totfact> 0.62622783E+06</totfact>
</mgrwt>
</event>
<event>
 3    1  0.1597250E-001  0.1250000E+03  0.7546771E-02  0.1235069E+00
         21   -1    0    0  502  501  0.00000000000E+00  0.00000000000E+00  0.76674205949E+03  0.76674205949E+03  0.00000000000E+00 0. -1.
         21   -1    0    0  501  502 -0.00000000000E+00 -0.00000000000E+00 -0.50946076997E+01  0.50946076997E+01  0.00000000000E+00 0. -1.
         25    1    1    2    0    0  0.00000000000E+00  0.00000000000E+00  0.76164745179E+03  0.77183666719E+03  0.12500000000E+03 0.  0.
<mgrwt>
<rscale>  0 0.12500000E+03</rscale>
<asrwt>0</asrwt>
<pdfrwt beam="1">  1       21 0.11796023E+00 0.12500000E+03</pdfrwt>
<pdfrwt beam="2">  1       21 0.78378641E-03 0.12500000E+03</pdfrwt>
<totfact> 0.30315295E+06</totfact>
</mgrwt>
</event>
<event>
 3    1  0.1597250E-001  0.1250000E+03  0.7546771E-02  0.1235069E+00
         21   -1    0    0  502  501  0.00000000000E+00  0.00000000000E+00  0.14057399344E+04  0.14057399344E+04  0.00000000000E+00 0.  1.
         21   -1    0    0  501  502 -0.00000000000E+00 -0.00000000000E+00 -0.27787856804E+01  0.27787856804E+01  0.00000000000E+00 0.  1.
         25    1    1    2    0    0  0.00000000000E+00  0.00000000000E+00  0.14029611487E+04  0.14085187201E+04  0.12500000000E+03 0.  0.
<mgrwt>
<rscale>  0 0.12500000E+03</rscale>
<asrwt>0</asrwt>
<pdfrwt beam="1">  1       21 0.21626711E+00 0.12500000E+03</pdfrwt>
<pdfrwt beam="2">  1       21 0.42750661E-03 0.12500000E+03</pdfrwt>
<totfact> 0.15406771E+06</totfact>
</mgrwt>
</event>
<event>
 3    1  0.1597250E-001  0.1250000E+03  0.7546771E-02  0.1235069E+00
         21   -1    0    0  502  501  0.00000000000E+00  0.00000000000E+00  0.41160068059E+02  0.41160068059E+02  0.00000000000E+00 0.  1.
         21   -1    0    0  501  502 -0.00000000000E+00 -0.00000000000E+00 -0.94903876116E+02  0.94903876116E+02  0.00000000000E+00 0.  1.
         25    1    1    2    0    0  0.00000000000E+00  0.00000000000E+00 -0.53743808057E+02  0.13606394417E+03  0.12500000000E+03 0.  0.
<mgrwt>
<rscale>  0 0.12500000E+03</rscale>
<asrwt>0</asrwt>
<pdfrwt beam="1">  1       21 0.63323182E-02 0.12500000E+03</pdfrwt>
<pdfrwt beam="2">  1       21 0.14600596E-01 0.12500000E+03</pdfrwt>
<totfact> 0.72555904E+06</totfact>
</mgrwt>
</event>
<event>
 3    1  0.1597250E-001  0.1250000E+03  0.7546771E-02  0.1235069E+00
         21   -1    0    0  502  501  0.00000000000E+00  0.00000000000E+00  0.79780730723E+01  0.79780730723E+01  0.00000000000E+00 0. -1.
         21   -1    0    0  501  502 -0.00000000000E+00 -0.00000000000E+00 -0.48962324168E+03  0.48962324168E+03  0.00000000000E+00 0. -1.
         25    1    1    2    0    0  0.00000000000E+00  0.00000000000E+00 -0.48164516861E+03  0.49760131475E+03  0.12500000000E+03 0.  0.
<mgrwt>
<rscale>  0 0.12500000E+03</rscale>
<asrwt>0</asrwt>
<pdfrwt beam="1">  1       21 0.12273958E-02 0.12500000E+03</pdfrwt>
<pdfrwt beam="2">  1       21 0.75326657E-01 0.12500000E+03</pdfrwt>
<totfact> 0.42174454E+06</totfact>
</mgrwt>
</event>
<event>
 3    1  0.1597250E-001  0.1250000E+03  0.7546771E-02  0.1235069E+00
         21   -1    0    0  502  501  0.00000000000E+00  0.00000000000E+00  0.44700837439E+02  0.44700837439E+02  0.00000000000E+00 0. -1.
         21   -1    0    0  501  502 -0.00000000000E+00 -0.00000000000E+00 -0.87386506021E+02  0.87386506021E+02  0.00000000000E+00 0. -1.
         25    1    1    2    0    0  0.00000000000E+00  0.00000000000E+00 -0.42685668582E+02  0.13208734346E+03  0.12500000000E+03 0.  0.
<mgrwt>
<rscale>  0 0.12500000E+03</rscale>
<asrwt>0</asrwt>
<pdfrwt beam="1">  1       21 0.68770520E-02 0.12500000E+03</pdfrwt>
<pdfrwt beam="2">  1       21 0.13444078E-01 0.12500000E+03</pdfrwt>
<totfact> 0.73084516E+06</totfact>
</mgrwt>
</event>
<event>
 3    1  0.1597250E-001  0.1250000E+03  0.7546771E-02  0.1235069E+00
         21   -1    0    0  502  501  0.00000000000E+00  0.00000000000E+00  0.19284244851E+03  0.19284244851E+03  0.00000000000E+00 0.  1.
         21   -1    0    0  501  502 -0.00000000000E+00 -0.00000000000E+00 -0.20256173007E+02  0.20256173007E+02  0.00000000000E+00 0.  1.
         25    1    1    2    0    0  0.00000000000E+00  0.00000000000E+00  0.17258627550E+03  0.21309862151E+03  0.12500000000E+03 0.  0.
<mgrwt>
<rscale>  0 0.12500000E+03</rscale>
<asrwt>0</asrwt>
<pdfrwt beam="1">  1       21 0.29668068E-01 0.12500000E+03</pdfrwt>
<pdfrwt beam="2">  1       21 0.31163344E-02 0.12500000E+03</pdfrwt>
<totfact> 0.63534993E+06</totfact>
</mgrwt>
</event>
<event>
 3    1  0.1597250E-001  0.1250000E+03  0.7546771E-02  0.1235069E+00
         21   -1    0    0  502  501  0.00000000000E+00  0.00000000000E+00  0.35859204998E+02  0.35859204998E+02  0.00000000000E+00 0.  1.
         21   -1    0    0  501  502 -0.00000000000E+00 -0.00000000000E+00 -0.10893297830E+03  0.10893297830E+03  0.00000000000E+00 0.  1.
         25    1    1    2    0    0  0.00000000000E+00  0.00000000000E+00 -0.73073773304E+02  0.14479218330E+03  0.12500000000E+03 0.  0.
<mgrwt>
<rscale>  0 0.12500000E+03</rscale>
<asrwt>0</asrwt>
<pdfrwt beam="1">  1       21 0.55168008E-02 0.12500000E+03</pdfrwt>
<pdfrwt beam="2">  1       21 0.16758920E-01 0.12500000E+03</pdfrwt>
<totfact> 0.71419705E+06</totfact>
</mgrwt>
</event>
<event>
 3    1  0.1597250E-001  0.1250000E+03  0.7546771E-02  0.1235069E+00
         21   -1    0    0  502  501  0.00000000000E+00  0.00000000000E+00  0.53542869715E+02  0.53542869715E+02  0.00000000000E+00 0. -1.
         21   -1    0    0  501  502 -0.00000000000E+00 -0.00000000000E+00 -0.72955559176E+02  0.72955559176E+02  0.00000000000E+00 0. -1.
         25    1    1    2    0    0  0.00000000000E+00  0.00000000000E+00 -0.19412689461E+02  0.12649842889E+03  0.12500000000E+03 0.  0.
<mgrwt>
<rscale>  0 0.12500000E+03</rscale>
<asrwt>0</asrwt>
<pdfrwt beam="1">  1       21 0.82373646E-02 0.12500000E+03</pdfrwt>
<pdfrwt beam="2">  1       21 0.11223932E-01 0.12500000E+03</pdfrwt>
<totfact> 0.73837588E+06</totfact>
</mgrwt>
</event>
<event>
 3    1  0.1597250E-001  0.1250000E+03  0.7546771E-02  0.1235069E+00
         21   -1    0    0  502  501  0.00000000000E+00  0.00000000000E+00  0.12559248832E+02  0.12559248832E+02  0.00000000000E+00 0. -1.
         21   -1    0    0  501  502 -0.00000000000E+00 -0.00000000000E+00 -0.31102576694E+03  0.31102576694E+03  0.00000000000E+00 0. -1.
         25    1    1    2    0    0  0.00000000000E+00  0.00000000000E+00 -0.29846651811E+03  0.32358501577E+03  0.12500000000E+03 0.  0.
<mgrwt>
<rscale>  0 0.12500000E+03</rscale>
<asrwt>0</asrwt>
<pdfrwt beam="1">  1       21 0.19321922E-02 0.12500000E+03</pdfrwt>
<pdfrwt beam="2">  1       21 0.47850117E-01 0.12500000E+03</pdfrwt>
<totfact> 0.53550466E+06</totfact>
</mgrwt>
</event>
<event>
 3    1  0.1597250E-001  0.1250000E+03  0.7546771E-02  0.1235069E+00
         21   -1    0    0  502  501  0.00000000000E+00  0.00000000000E+00  0.35476024865E+02  0.35476024865E+02  0.00000000000E+00 0.  1.
         21   -1    0    0  501  502 -0.00000000000E+00 -0.00000000000E+00 -0.11010957442E+03  0.11010957442E+03  0.00000000000E+00 0.  1.
         25    1    1    2    0    0  0.00000000000E+00  0.00000000000E+00 -0.74633549553E+02  0.14558559928E+03  0.12500000000E+03 0.  0.
<mgrwt>
<rscale>  0 0.12500000E+03</rscale>
<asrwt>0</asrwt>
<pdfrwt beam="1">  1       21 0.54578501E-02 0.12500000E+03</pdfrwt>
<pdfrwt beam="2">  1       21 0.16939934E-01 0.12500000E+03</pdfrwt>
<totfact> 0.71318241E+06</totfact>
</mgrwt>
</event>
<event>
 3    1  0.1597250E-001  0.1250000E+03  0.7546771E-02  0.1235069E+00
         21   -1    0    0  502  501  0.00000000000E+00  0.00000000000E+00  0.35351317282E+03  0.35351317282E+03  0.00000000000E+00 0. -1.
         21   -1    0    0  501  502 -0.00000000000E+00 -0.00000000000E+00 -0.11049800404E+02  0.11049800404E+02  0.00000000000E+00 0. -1.
         25    1    1    2    0    0  0.00000000000E+00  0.00000000000E+00  0.34246337242E+03  0.36456297323E+03  0.12500000000E+03 0.  0.
<mgrwt>
<rscale>  0 0.12500000E+03</rscale>
<asrwt>0</asrwt>
<pdfrwt beam="1">  1       21 0.54386633E-01 0.12500000E+03</pdfrwt>
<pdfrwt beam="2">  1       21 0.16999696E-02 0.12500000E+03</pdfrwt>
<totfact> 0.50480576E+06</totfact>
</mgrwt>
</event>
<event>
 3    1  0.1597250E-001  0.1250000E+03  0.7546771E-02  0.1235069E+00
         21   -1    0    0  502  501  0.00000000000E+00  0.00000000000E+00  0.87302605167E+01  0.87302605167E+01  0.00000000000E+00 0. -1.
         21   -1    0    0  501  502 -0.00000000000E+00 -0.00000000000E+00 -0.44743796506E+03  0.44743796506E+03  0.00000000000E+00 0. -1.
         25    1    1    2    0    0  0.00000000000E+00  0.00000000000E+00 -0.43870770454E+03  0.45616822557E+03  0.12500000000E+03 0.  0.
<mgrwt>
<rscale>  0 0.12500000E+03</rscale>
<asrwt>0</asrwt>
<pdfrwt beam="1">  1       21 0.13431173E-02 0.12500000E+03</pdfrwt>
<pdfrwt beam="2">  1       21 0.68836592E-01 0.12500000E+03</pdfrwt>
<totfact> 0.44525469E+06</totfact>
</mgrwt>
</event>
<event>
 3    1  0.1597250E-001  0.1250000E+03  0.7546771E-02  0.1235069E+00
         21   -1    0    0  502  501  0.00000000000E+00  0.00000000000E+00  0.59607713057E+03  0.59607713057E+03  0.00000000000E+00 0. -1.
         21   -1    0    0  501  502 -0.00000000000E+00 -0.00000000000E+00 -0.65532626562E+01  0.65532626562E+01  0.00000000000E+00 0. -1.
         25    1    1    2    0    0  0.00000000000E+00  0.00000000000E+00  0.58952386792E+03  0.60263039323E+03  0.12500000000E+03 0.  0.
<mgrwt>
<rscale>  0 0.12500000E+03</rscale>
<asrwt>0</asrwt>
<pdfrwt beam="1">  1       21 0.91704131E-01 0.12500000E+03</pdfrwt>
<pdfrwt beam="2">  1       21 0.10081947E-02 0.12500000E+03</pdfrwt>
<totfact> 0.36973957E+06</totfact>
</mgrwt>
</event>
<event>
 3    1  0.1597250E-001  0.1250000E+03  0.7546771E-02  0.1235069E+00
         21   -1    0    0  502  501  0.00000000000E+00  0.00000000000E+00  0.67821311460E+02  0.67821311460E+02  0.00000000000E+00 0. -1.
         21   -1    0    0  501  502 -0.00000000000E+00 -0.00000000000E+00 -0.57596202667E+02  0.57596202667E+02  0.00000000000E+00 0. -1.
         25    1    1    2    0    0  0.00000000000E+00  0.00000000000E+00  0.10225108793E+02  0.12541751413E+03  0.12500000000E+03 0.  0.
<mgrwt>
<rscale>  0 0.12500000E+03</rscale>
<asrwt>0</asrwt>
<pdfrwt beam="1">  1       21 0.10434048E-01 0.12500000E+03</pdfrwt>
<pdfrwt beam="2">  1       21 0.88609542E-02 0.12500000E+03</pdfrwt>
<totfact> 0.73986952E+06</totfact>
</mgrwt>
</event>
<event>
 3    1  0.1597250E-001  0.1250000E+03  0.7546771E-02  0.1235069E+00
         21   -1    0    0  502  501  0.00000000000E+00  0.00000000000E+00  0.49201680123E+01  0.49201680123E+01  0.00000000000E+00 0. -1.
         21   -1    0    0  501  502 -0.00000000000E+00 -0.00000000000E+00 -0.79392614038E+03  0.79392614038E+03  0.00000000000E+00 0. -1.
         25    1    1    2    0    0  0.00000000000E+00  0.00000000000E+00 -0.78900597236E+03  0.79884630839E+03  0.12500000000E+03 0.  0.
<mgrwt>
<rscale>  0 0.12500000E+03</rscale>
<asrwt>0</asrwt>
<pdfrwt beam="1">  1       21 0.75694880E-03 0.12500000E+03</pdfrwt>
<pdfrwt beam="2">  1       21 0.12214250E+00 0.12500000E+03</pdfrwt>
<totfact> 0.29401071E+06</totfact>
</mgrwt>
</event>
<event>
 3    1  0.1597250E-001  0.1250000E+03  0.7546771E-02  0.1235069E+00
         21   -1    0    0  502  501  0.00000000000E+00  0.00000000000E+00  0.87929981047E+01  0.87929981047E+01  0.00000000000E+00 0. -1.
         21   -1    0    0  501  502 -0.00000000000E+00 -0.00000000000E+00 -0.44424551825E+03  0.44424551825E+03  0.00000000000E+00 0. -1.
         25    1    1    2    0    0  0.00000000000E+00  0.00000000000E+00 -0.43545252014E+03  0.45303851635E+03  0.12500000000E+03 0.  0.
<mgrwt>
<rscale>  0 0.12500000E+03</rscale>
<asrwt>0</asrwt>
<pdfrwt beam="1">  1       21 0.13527689E-02 0.12500000E+03</pdfrwt>
<pdfrwt beam="2">  1       21 0.68345465E-01 0.12500000E+03</pdfrwt>
<totfact> 0.44711007E+06</totfact>
</mgrwt>
</event>
<event>
 3    1  0.1597250E-001  0.1250000E+03  0.7546771E-02  0.1235069E+00
         21   -1    0    0  502  501  0.00000000000E+00  0.00000000000E+00  0.35382641441E+02  0.35382641441E+02  0.00000000000E+00 0. -1.
         21   -1    0    0  501  502 -0.00000000000E+00 -0.00000000000E+00 -0.11040018045E+03  0.11040018045E+03  0.00000000000E+00 0. -1.
         25    1    1    2    0    0  0.00000000000E+00  0.00000000000E+00 -0.75017539011E+02  0.14578282189E+03  0.12500000000E+03 0.  0.
<mgrwt>
<rscale>  0 0.12500000E+03</rscale>
<asrwt>0</asrwt>
<pdfrwt beam="1">  1       21 0.54434833E-02 0.12500000E+03</pdfrwt>
<pdfrwt beam="2">  1       21 0.16984643E-01 0.12500000E+03</pdfrwt>
<totfact> 0.71293067E+06</totfact>
</mgrwt>
</event>
<event>
 3    1  0.1597250E-001  0.1250000E+03  0.7546771E-02  0.1235069E+00
         21   -1    0    0  502  501  0.00000000000E+00  0.00000000000E+00  0.95158516541E+02  0.95158516541E+02  0.00000000000E+00 0.  1.
         21   -1    0    0  501  502 -0.00000000000E+00 -0.00000000000E+00 -0.41049925346E+02  0.41049925346E+02  0.00000000000E+00 0.  1.
         25    1    1    2    0    0  0.00000000000E+00  0.00000000000E+00  0.54108591195E+02  0.13620844189E+03  0.12500000000E+03 0.  0.
<mgrwt>
<rscale>  0 0.12500000E+03</rscale>
<asrwt>0</asrwt>
<pdfrwt beam="1">  1       21 0.14639772E-01 0.12500000E+03</pdfrwt>
<pdfrwt beam="2">  1       21 0.63153732E-02 0.12500000E+03</pdfrwt>
<totfact> 0.72536859E+06</totfact>
</mgrwt>
</event>
<event>
 3    1  0.1597250E-001  0.1250000E+03  0.7546771E-02  0.1235069E+00
         21   -1    0    0  502  501  0.00000000000E+00  0.00000000000E+00  0.16106972025E+03  0.16106972025E+03  0.00000000000E+00 0.  1.
         21   -1    0    0  501  502 -0.00000000000E+00 -0.00000000000E+00 -0.24251920187E+02  0.24251920187E+02  0.00000000000E+00 0.  1.
         25    1    1    2    0    0  0.00000000000E+00  0.00000000000E+00  0.13681780006E+03  0.18532164044E+03  0.12500000000E+03 0.  0.
<mgrwt>
<rscale>  0 0.12500000E+03</rscale>
<asrwt>0</asrwt>
<pdfrwt beam="1">  1       21 0.24779956E-01 0.12500000E+03</pdfrwt>
<pdfrwt beam="2">  1       21 0.37310648E-02 0.12500000E+03</pdfrwt>
<totfact> 0.66546237E+06</totfact>
</mgrwt>
</event>
<event>
 3    1  0.1597250E-001  0.1250000E+03  0.7546771E-02  0.1235069E+00
         21   -1    0    0  502  501  0.00000000000E+00  0.00000000000E+00  0.17075864257E+03  0.17075864257E+03  0.00000000000E+00 0.  1.
         21   -1    0    0  501  502 -0.00000000000E+00 -0.00000000000E+00 -0.22875855308E+02  0.22875855308E+02  0.00000000000E+00 0.  1.
         25    1    1    2    0    0  0.00000000000E+00  0.00000000000E+00  0.14788278726E+03  0.19363449788E+03  0.12500000000E+03 0.  0.
<mgrwt>
<rscale>  0 0.12500000E+03</rscale>
<asrwt>0</asrwt>
<pdfrwt beam="1">  1       21 0.26270560E-01 0.12500000E+03</pdfrwt>
<pdfrwt beam="2">  1       21 0.35193625E-02 0.12500000E+03</pdfrwt>
<totfact> 0.65620783E+06</totfact>
</mgrwt>
</event>
<event>
 3    1  0.1597250E-001  0.1250000E+03  0.7546771E-02  0.1235069E+00
         21   -1    0    0  502  501  0.00000000000E+00  0.00000000000E+00  0.16648427779E+02  0.16648427779E+02  0.00000000000E+00 0.  1.
         21   -1    0    0  501  502 -0.00000000000E+00 -0.00000000000E+00 -0.23463176534E+03  0.23463176534E+03  0.00000000000E+00 0.  1.
         25    1    1    2    0    0  0.00000000000E+00  0.00000000000E+00 -0.21798333756E+03  0.25128019312E+03  0.12500000000E+03 0.  0.
<mgrwt>
<rscale>  0 0.12500000E+03</rscale>
<asrwt>0</asrwt>
<pdfrwt beam="1">  1       21 0.25612964E-02 0.12500000E+03</pdfrwt>
<pdfrwt beam="2">  1       21 0.36097197E-01 0.12500000E+03</pdfrwt>
<totfact> 0.59757868E+06</totfact>
</mgrwt>
</event>
<event>
 3    1  0.1597250E-001  0.1250000E+03  0.7546771E-02  0.1235069E+00
         21   -1    0    0  502  501  0.00000000000E+00  0.00000000000E+00  0.87395742687E+02  0.87395742687E+02  0.00000000000E+00 0. -1.
         21   -1    0    0  501  502 -0.00000000000E+00 -0.00000000000E+00 -0.44696113104E+02  0.44696113104E+02  0.00000000000E+00 0. -1.
         25    1    1    2    0    0  0.00000000000E+00  0.00000000000E+00  0.42699629583E+02  0.13209185579E+03  0.12500000000E+03 0.  0.
<mgrwt>
<rscale>  0 0.12500000E+03</rscale>
<asrwt>0</asrwt>
<pdfrwt beam="1">  1       21 0.13445499E-01 0.12500000E+03</pdfrwt>
<pdfrwt beam="2">  1       21 0.68763251E-02 0.12500000E+03</pdfrwt>
<totfact> 0.73083911E+06</totfact>
</mgrwt>
</event>
<event>
 3    1  0.1597250E-001  0.1250000E+03  0.7546771E-02  0.1235069E+00
         21   -1    0    0  502  501  0.00000000000E+00  0.00000000000E+00  0.14019735571E+02  0.14019735571E+02  0.00000000000E+00 0.  1.
         21   -1    0    0  501  502 -0.00000000000E+00 -0.00000000000E+00 -0.27862508393E+03  0.27862508393E+03  0.00000000000E+00 0.  1.
         25    1    1    2    0    0  0.00000000000E+00  0.00000000000E+00 -0.26460534835E+03  0.29264481950E+03  0.12500000000E+03 0.  0.
<mgrwt>
<rscale>  0 0.12500000E+03</rscale>
<asrwt>0</asrwt>
<pdfrwt beam="1">  1       21 0.21568822E-02 0.12500000E+03</pdfrwt>
<pdfrwt beam="2">  1       21 0.42865401E-01 0.12500000E+03</pdfrwt>
<totfact> 0.56073009E+06</totfact>
</mgrwt>
</event>
<event>
 3    1  0.1597250E-001  0.1250000E+03  0.7546771E-02  0.1235069E+00
         21   -1    0    0  502  501  0.00000000000E+00  0.00000000000E+00  0.29227659749E+03  0.29227659749E+03  0.00000000000E+00 0. -1.
         21   -1    0    0  501  502 -0.00000000000E+00 -0.00000000000E+00 -0.13364908561E+02  0.13364908561E+02  0.00000000000E+00 0. -1.
         25    1    1    2    0    0  0.00000000000E+00  0.00000000000E+00  0.27891168893E+03  0.30564150605E+03  0.12500000000E+03 0.  0.
<mgrwt>
<rscale>  0 0.12500000E+03</rscale>
<asrwt>0</asrwt>
<pdfrwt beam="1">  1       21 0.44965625E-01 0.12500000E+03</pdfrwt>
<pdfrwt beam="2">  1       21 0.20561400E-02 0.12500000E+03</pdfrwt>
<totfact> 0.54990579E+06</totfact>
</mgrwt>
</event>
<event>
 3    1  0.1597250E-001  0.1250000E+03  0.7546771E-02  0.1235069E+00
         21   -1    0    0  502  501  0.00000000000E+00  0.00000000000E+00  0.22193450719E+02  0.22193450719E+02  0.00000000000E+00 0. -1.
         21   -1    0    0  501  502 -0.00000000000E+00 -0.00000000000E+00 -0.17600913213E+03  0.17600913213E+03  0.00000000000E+00 0. -1.
         25    1    1    2    0    0  0.00000000000E+00  0.00000000000E+00 -0.15381568141E+03  0.19820258285E+03  0.12500000000E+03 0.  0.
<mgrwt>
<rscale>  0 0.12500000E+03</rscale>
<asrwt>0</asrwt>
<pdfrwt beam="1">  1       21 0.34143770E-02 0.12500000E+03</pdfrwt>
<pdfrwt beam="2">  1       21 0.27078328E-01 0.12500000E+03</pdfrwt>
<totfact> 0.65122202E+06</totfact>
</mgrwt>
</event>
<event>
 3    1  0.1597250E-001  0.1250000E+03  0.7546771E-02  0.1235069E+00
         21   -1    0    0  502  501  0.00000000000E+00  0.00000000000E+00  0.75580831722E+03  0.75580831722E+03  0.00000000000E+00 0. -1.
         21   -1    0    0  501  502 -0.00000000000E+00 -0.00000000000E+00 -0.51683077719E+01  0.51683077719E+01  0.00000000000E+00 0. -1.
         25    1    1    2    0    0  0.00000000000E+00  0.00000000000E+00  0.75064000945E+03  0.76097662499E+03  0.12500000000E+03 0.  0.
<mgrwt>
<rscale>  0 0.12500000E+03</rscale>
<asrwt>0</asrwt>
<pdfrwt beam="1">  1       21 0.11627811E+00 0.12500000E+03</pdfrwt>
<pdfrwt beam="2">  1       21 0.79512487E-03 0.12500000E+03</pdfrwt>
<totfact> 0.30686527E+06</totfact>
</mgrwt>
</event>
<event>
 3    1  0.1597250E-001  0.1250000E+03  0.7546771E-02  0.1235069E+00
         21   -1    0    0  502  501  0.00000000000E+00  0.00000000000E+00  0.29542752802E+02  0.29542752802E+02  0.00000000000E+00 0.  1.
         21   -1    0    0  501  502 -0.00000000000E+00 -0.00000000000E+00 -0.13222362947E+03  0.13222362947E+03  0.00000000000E+00 0.  1.
         25    1    1    2    0    0  0.00000000000E+00  0.00000000000E+00 -0.10268087667E+03  0.16176638227E+03  0.12500000000E+03 0.  0.
<mgrwt>
<rscale>  0 0.12500000E+03</rscale>
<asrwt>0</asrwt>
<pdfrwt beam="1">  1       21 0.45450390E-02 0.12500000E+03</pdfrwt>
<pdfrwt beam="2">  1       21 0.20342096E-01 0.12500000E+03</pdfrwt>
<totfact> 0.69304305E+06</totfact>
</mgrwt>
</event>
<event>
 3    1  0.1597250E-001  0.1250000E+03  0.7546771E-02  0.1235069E+00
         21   -1    0    0  502  501  0.00000000000E+00  0.00000000000E+00  0.63466502571E+02  0.63466502571E+02  0.00000000000E+00 0. -1.
         21   -1    0    0  501  502 -0.00000000000E+00 -0.00000000000E+00 -0.61548215858E+02  0.61548215858E+02  0.00000000000E+00 0. -1.
         25    1    1    2    0    0  0.00000000000E+00  0.00000000000E+00  0.19182867129E+01  0.12501471843E+03  0.12500000000E+03 0.  0.
<mgrwt>
<rscale>  0 0.12500000E+03</rscale>
<asrwt>0</asrwt>
<pdfrwt beam="1">  1       21 0.97640774E-02 0.12500000E+03</pdfrwt>
<pdfrwt beam="2">  1       21 0.94689562E-02 0.12500000E+03</pdfrwt>
<totfact> 0.74041593E+06</totfact>
</mgrwt>
</event>
<event>
 3    1  0.1597250E-001  0.1250000E+03  0.7546771E-02  0.1235069E+00
         21   -1    0    0  502  501  0.00000000000E+00  0.00000000000E+00  0.20001208993E+02  0.20001208993E+02  0.00000000000E+00 0.  1.
         21   -1    0    0  501  502 -0.00000000000E+00 -0.00000000000E+00 -0.19530069414E+03  0.19530069414E+03  0.00000000000E+00 0.  1.
         25    1    1    2    0    0  0.00000000000E+00  0.00000000000E+00 -0.17529948515E+03  0.21530190313E+03  0.12500000000E+03 0.  0.
<mgrwt>
<rscale>  0 0.12500000E+03</rscale>
<asrwt>0</asrwt>
<pdfrwt beam="1">  1       21 0.30771090E-02 0.12500000E+03</pdfrwt>
<pdfrwt beam="2">  1       21 0.30046262E-01 0.12500000E+03</pdfrwt>
<totfact> 0.63305995E+06</totfact>
</mgrwt>
</event>
<event>
 3    1  0.1597250E-001  0.1250000E+03  0.7546771E-02  0.1235069E+00
         21   -1    0    0  502  501  0.00000000000E+00  0.00000000000E+00  0.13048467359E+03  0.13048467359E+03  0.00000000000E+00 0.  1.
         21   -1    0    0  501  502 -0.00000000000E+00 -0.00000000000E+00 -0.29936466043E+02  0.29936466043E+02  0.00000000000E+00 0.  1.
         25    1    1    2    0    0  0.00000000000E+00  0.00000000000E+00  0.10054820755E+03  0.16042113963E+03  0.12500000000E+03 0.  0.
<mgrwt>
<rscale>  0 0.12500000E+03</rscale>
<asrwt>0</asrwt>
<pdfrwt beam="1">  1       21 0.20074565E-01 0.12500000E+03</pdfrwt>
<pdfrwt beam="2">  1       21 0.46056102E-02 0.12500000E+03</pdfrwt>
<totfact> 0.69468074E+06</totfact>
</mgrwt>
</event>
<event>
 3    1  0.1597250E-001  0.1250000E+03  0.7546771E-02  0.1235069E+00
         21   -1    0    0  502  501  0.00000000000E+00  0.00000000000E+00  0.69580575802E+02  0.69580575802E+02  0.00000000000E+00 0.  1.
         21   -1    0    0  501  502 -0.00000000000E+00 -0.00000000000E+00 -0.56139949332E+02  0.56139949332E+02  0.00000000000E+00 0.  1.
         25    1    1    2    0    0  0.00000000000E+00  0.00000000000E+00  0.13440626470E+02  0.12572052513E+03  0.12500000000E+03 0.  0.
<mgrwt>
<rscale>  0 0.12500000E+03</rscale>
<asrwt>0</asrwt>
<pdfrwt beam="1">  1       21 0.10704704E-01 0.12500000E+03</pdfrwt>
<pdfrwt beam="2">  1       21 0.86369153E-02 0.12500000E+03</pdfrwt>
<totfact> 0.73944688E+06</totfact>
</mgrwt>
</event>
<event>
 3    1  0.1597250E-001  0.1250000E+03  0.7546771E-02  0.1235069E+00
         21   -1    0    0  502  501  0.00000000000E+00  0.00000000000E+00  0.74499752055E+02  0.74499752055E+02  0.00000000000E+00 0.  1.
         21   -1    0    0  501  502 -0.00000000000E+00 -0.00000000000E+00 -0.52433060410E+02  0.52433060410E+02  0.00000000000E+00 0.  1.
         25    1    1    2    0    0  0.00000000000E+00  0.00000000000E+00  0.22066691645E+02  0.12693281246E+03  0.12500000000E+03 0.  0.
<mgrwt>
<rscale>  0 0.12500000E+03</rscale>
<asrwt>0</asrwt>
<pdfrwt beam="1">  1       21 0.11461500E-01 0.12500000E+03</pdfrwt>
<pdfrwt beam="2">  1       21 0.80666247E-02 0.12500000E+03</pdfrwt>
<totfact> 0.73778285E+06</totfact>
</mgrwt>
</event>
<event>
 3    1  0.1597250E-001  0.1250000E+03  0.7546771E-02  0.1235069E+00
         21   -1    0    0  502  501  0.00000000000E+00  0.00000000000E+00  0.29156915313E+03  0.29156915313E+03  0.00000000000E+00 0. -1.
         21   -1    0    0  501  502 -0.00000000000E+00 -0.00000000000E+00 -0.13397336303E+02  0.13397336303E+02  0.00000000000E+00 0. -1.
         25    1    1    2    0    0  0.00000000000E+00  0.00000000000E+00  0.27817181683E+03  0.30496648943E+03  0.12500000000E+03 0.  0.
<mgrwt>
<rscale>  0 0.12500000E+03</rscale>
<asrwt>0</asrwt>
<pdfrwt beam="1">  1       21 0.44856788E-01 0.12500000E+03</pdfrwt>
<pdfrwt beam="2">  1       21 0.20611289E-02 0.12500000E+03</pdfrwt>
<totfact> 0.55045950E+06</totfact>
</mgrwt>
</event>
<event>
 3    1  0.1597250E-001  0.1250000E+03  0.7546771E-02  0.1235069E+00
         21   -1    0    0  502  501  0.00000000000E+00  0.00000000000E+00  0.99535664337E+01  0.99535664337E+01  0.00000000000E+00 0. -1.
         21   -1    0    0  501  502 -0.00000000000E+00 -0.00000000000E+00 -0.39244727265E+03  0.39244727265E+03  0.00000000000E+00 0. -1.
         25    1    1    2    0    0  0.00000000000E+00  0.00000000000E+00 -0.38249370621E+03  0.40240083908E+03  0.12500000000E+03 0.  0.
<mgrwt>
<rscale>  0 0.12500000E+03</rscale>
<asrwt>0</asrwt>
<pdfrwt beam="1">  1       21 0.15313179E-02 0.12500000E+03</pdfrwt>
<pdfrwt beam="2">  1       21 0.60376503E-01 0.12500000E+03</pdfrwt>
<totfact> 0.47882513E+06</totfact>
</mgrwt>
</event>
<event>
 3    1  0.1597250E-001  0.1250000E+03  0.7546771E-02  0.1235069E+00
         21   -1    0    0  502  501  0.00000000000E+00  0.00000000000E+00  0.20414257007E+03  0.20414257007E+03  0.00000000000E+00 0. -1.
         21   -1    0    0  501  502 -0.00000000000E+00 -0.00000000000E+00 -0.19134911443E+02  0.19134911443E+02  0.00000000000E+00 0. -1.
         25    1    1    2    0    0  0.00000000000E+00  0.00000000000E+00  0.18500765863E+03  0.22327748151E+03  0.12500000000E+03 0.  0.
<mgrwt>
<rscale>  0 0.12500000E+03</rscale>
<asrwt>0</asrwt>
<pdfrwt beam="1">  1       21 0.31406548E-01 0.12500000E+03</pdfrwt>
<pdfrwt beam="2">  1       21 0.29438327E-02 0.12500000E+03</pdfrwt>
<totfact> 0.62489096E+06</totfact>
</mgrwt>
</event>
<event>
 3    1  0.1597250E-001  0.1250000E+03  0.7546771E-02  0.1235069E+00
         21   -1    0    0  502  501  0.00000000000E+00  0.00000000000E+00  0.54077881093E+01  0.54077881093E+01  0.00000000000E+00 0. -1.
         21   -1    0    0  501  502 -0.00000000000E+00 -0.00000000000E+00 -0.72233784332E+03  0.72233784332E+03  0.00000000000E+00 0. -1.
         25    1    1    2    0    0  0.00000000000E+00  0.00000000000E+00 -0.71693005521E+03  0.72774563143E+03  0.12500000000E+03 0.  0.
<mgrwt>
<rscale>  0 0.12500000E+03</rscale>
<asrwt>0</asrwt>
<pdfrwt beam="1">  1       21 0.83196778E-03 0.12500000E+03</pdfrwt>
<pdfrwt beam="2">  1       21 0.11112885E+00 0.12500000E+03</pdfrwt>
<totfact> 0.31867514E+06</totfact>
</mgrwt>
</event>
<event>
 3    1  0.1597250E-001  0.1250000E+03  0.7546771E-02  0.1235069E+00
         21   -1    0    0  502  501  0.00000000000E+00  0.00000000000E+00  0.45982837428E+02  0.45982837428E+02  0.00000000000E+00 0. -1.
         21   -1    0    0  501  502 -0.00000000000E+00 -0.00000000000E+00 -0.84950173119E+02  0.84950173119E+02  0.00000000000E+00 0. -1.
         25    1    1    2    0    0  0.00000000000E+00  0.00000000000E+00 -0.38967335692E+02  0.13093301055E+03  0.12500000000E+03 0.  0.
<mgrwt>
<rscale>  0 0.12500000E+03</rscale>
<asrwt>0</asrwt>
<pdfrwt beam="1">  1       21 0.70742828E-02 0.12500000E+03</pdfrwt>
<pdfrwt beam="2">  1       21 0.13069257E-01 0.12500000E+03</pdfrwt>
<totfact> 0.73239700E+06</totfact>
</mgrwt>
</event>
<event>
 3    1  0.1597250E-001  0.1250000E+03  0.7546771E-02  0.1235069E+00
         21   -1    0    0  502  501  0.00000000000E+00  0.00000000000E+00  0.61207724354E+01  0.61207724354E+01  0.00000000000E+00 0.  1.
         21   -1    0    0  501  502 -0.00000000000E+00 -0.00000000000E+00 -0.63819559398E+03  0.63819559398E+03  0.00000000000E+00 0.  1.
         25    1    1    2    0    0  0.00000000000E+00  0.00000000000E+00 -0.63207482154E+03  0.64431636641E+03  0.12500000000E+03 0.  0.
<mgrwt>
<rscale>  0 0.12500000E+03</rscale>
<asrwt>0</asrwt>
<pdfrwt beam="1">  1       21 0.94165741E-03 0.12500000E+03</pdfrwt>
<pdfrwt beam="2">  1       21 0.98183926E-01 0.12500000E+03</pdfrwt>
<totfact> 0.35162024E+06</totfact>
</mgrwt>
</event>
<event>
 3    1  0.1597250E-001  0.1250000E+03  0.7546771E-02  0.1235069E+00
         21   -1    0    0  502  501  0.00000000000E+00  0.00000000000E+00  0.99789624142E+03  0.99789624142E+03  0.00000000000E+00 0. -1.
         21   -1    0    0  501  502 -0.00000000000E+00 -0.00000000000E+00 -0.39144851317E+01  0.39144851317E+01  0.00000000000E+00 0. -1.
         25    1    1    2    0    0  0.00000000000E+00  0.00000000000E+00  0.99398175629E+03  0.10018107266E+04  0.12500000000E+03 0.  0.
<mgrwt>
<rscale>  0 0.12500000E+03</rscale>
<asrwt>0</asrwt>
<pdfrwt beam="1">  1       21 0.15352230E+00 0.12500000E+03</pdfrwt>
<pdfrwt beam="2">  1       21 0.60222928E-03 0.12500000E+03</pdfrwt>
<totfact> 0.23573553E+06</totfact>
</mgrwt>
</event>
<event>
 3    1  0.1597250E-001  0.1250000E+03  0.7546771E-02  0.1235069E+00
         21   -1    0    0  502  501  0.00000000000E+00  0.00000000000E+00  0.19138032970E+03  0.19138032970E+03  0.00000000000E+00 0. -1.
         21   -1    0    0  501  502 -0.00000000000E+00 -0.00000000000E+00 -0.20410927320E+02  0.20410927320E+02  0.00000000000E+00 0. -1.
         25    1    1    2    0    0  0.00000000000E+00  0.00000000000E+00  0.17096940238E+03  0.21179125702E+03  0.12500000000E+03 0.  0.
<mgrwt>
<rscale>  0 0.12500000E+03</rscale>
<asrwt>0</asrwt>
<pdfrwt beam="1">  1       21 0.29443126E-01 0.12500000E+03</pdfrwt>
<pdfrwt beam="2">  1       21 0.31401428E-02 0.12500000E+03</pdfrwt>
<totfact> 0.63671567E+06</totfact>
</mgrwt>
</event>
<event>
 3    1  0.1597250E-001  0.1250000E+03  0.7546771E-02  0.1235069E+00
         21   -1    0    0  502  501  0.00000000000E+00  0.00000000000E+00  0.51235730093E+01  0.51235730093E+01  0.00000000000E+00 0. -1.
         21   -1    0    0  501  502 -0.00000000000E+00 -0.00000000000E+00 -0.76240740455E+03  0.76240740455E+03  0.00000000000E+00 0. -1.
         25    1    1    2    0    0  0.00000000000E+00  0.00000000000E+00 -0.75728383154E+03  0.76753097756E+03  0.12500000000E+03 0.  0.
<mgrwt>
<rscale>  0 0.12500000E+03</rscale>
<asrwt>0</asrwt>
<pdfrwt beam="1">  1       21 0.78824218E-03 0.12500000E+03</pdfrwt>
<pdfrwt beam="2">  1       21 0.11729342E+00 0.12500000E+03</pdfrwt>
<totfact> 0.30461648E+06</totfact>
</mgrwt>
</event>
<event>
 3    1  0.1597250E-001  0.1250000E+03  0.7546771E-02  0.1235069E+00
         21   -1    0    0  502  501  0.00000000000E+00  0.00000000000E+00  0.15308506367E+03  0.15308506367E+03  0.00000000000E+00 0. -1.
         21   -1    0    0  501  502 -0.00000000000E+00 -0.00000000000E+00 -0.25516859099E+02  0.25516859099E+02  0.00000000000E+00 0. -1.
         25    1    1    2    0    0  0.00000000000E+00  0.00000000000E+00  0.12756820458E+03  0.17860192277E+03  0.12500000000E+03 0.  0.
<mgrwt>
<rscale>  0 0.12500000E+03</rscale>
<asrwt>0</asrwt>
<pdfrwt beam="1">  1       21 0.23551548E-01 0.12500000E+03</pdfrwt>
<pdfrwt beam="2">  1       21 0.39256707E-02 0.12500000E+03</pdfrwt>
<totfact> 0.67312282E+06</totfact>
</mgrwt>
</event>
<event>
 3    1  0.1597250E-001  0.1250000E+03  0.7546771E-02  0.1235069E+00
         21   -1    0    0  502  501  0.00000000000E+00  0.00000000000E+00  0.10253032553E+02  0.10253032553E+02  0.00000000000E+00 0. -1.
         21   -1    0    0  501  502 -0.00000000000E+00 -0.00000000000E+00 -0.38098484323E+03  0.38098484323E+03  0.00000000000E+00 0. -1.
         25    1    1    2    0    0  0.00000000000E+00  0.00000000000E+00 -0.37073181068E+03  0.39123787578E+03  0.12500000000E+03 0.  0.
<mgrwt>
<rscale>  0 0.12500000E+03</rscale>
<asrwt>0</asrwt>
<pdfrwt beam="1">  1       21 0.15773895E-02 0.12500000E+03</pdfrwt>
<pdfrwt beam="2">  1       21 0.58613057E-01 0.12500000E+03</pdfrwt>
<totfact> 0.48628013E+06</totfact>
</mgrwt>
</event>
<event>
 3    1  0.1597250E-001  0.1250000E+03  0.7546771E-02  0.1235069E+00
         21   -1    0    0  502  501  0.00000000000E+00  0.00000000000E+00  0.75852994870E+03  0.75852994870E+03  0.00000000000E+00 0.  1.
         21   -1    0    0  501  502 -0.00000000000E+00 -0.00000000000E+00 -0.51497637063E+01  0.51497637063E+01  0.00000000000E+00 0.  1.
         25    1    1    2    0    0  0.00000000000E+00  0.00000000000E+00  0.75338018500E+03  0.76367971241E+03  0.12500000000E+03 0.  0.
<mgrwt>
<rscale>  0 0.12500000E+03</rscale>
<asrwt>0</asrwt>
<pdfrwt beam="1">  1       21 0.11669683E+00 0.12500000E+03</pdfrwt>
<pdfrwt beam="2">  1       21 0.79227194E-03 0.12500000E+03</pdfrwt>
<totfact> 0.30593485E+06</totfact>
</mgrwt>
</event>
<event>
 3    1  0.1597250E-001  0.1250000E+03  0.7546771E-02  0.1235069E+00
         21   -1    0    0  502  501  0.00000000000E+00  0.00000000000E+00  0.92128989696E+01  0.92128989696E+01  0.00000000000E+00 0. -1.
         21   -1    0    0  501  502 -0.00000000000E+00 -0.00000000000E+00 -0.42399791997E+03  0.42399791997E+03  0.00000000000E+00 0. -1.
         25    1    1    2    0    0  0.00000000000E+00  0.00000000000E+00 -0.41478502100E+03  0.43321081894E+03  0.12500000000E+03 0.  0.
<mgrwt>
<rscale>  0 0.12500000E+03</rscale>
<asrwt>0</asrwt>
<pdfrwt beam="1">  1       21 0.14173689E-02 0.12500000E+03</pdfrwt>
<pdfrwt beam="2">  1       21 0.65230458E-01 0.12500000E+03</pdfrwt>
<totfact> 0.45913793E+06</totfact>
</mgrwt>
</event>
<event>
 3    1  0.1597250E-001  0.1250000E+03  0.7546771E-02  0.1235069E+00
         21   -1    0    0  502  501  0.00000000000E+00  0.00000000000E+00  0.15272453715E+02  0.15272453715E+02  0.00000000000E+00 0. -1.
         21   -1    0    0  501  502 -0.00000000000E+00 -0.00000000000E+00 -0.25577095029E+03  0.25577095029E+03  0.00000000000E+00 0. -1.
         25    1    1    2    0    0  0.00000000000E+00  0.00000000000E+00 -0.24049849658E+03  0.27104340401E+03  0.12500000000E+03 0.  0.
<mgrwt>
<rscale>  0 0.12500000E+03</rscale>
<asrwt>0</asrwt>
<pdfrwt beam="1">  1       21 0.23496085E-02 0.12500000E+03</pdfrwt>
<pdfrwt beam="2">  1       21 0.39349373E-01 0.12500000E+03</pdfrwt>
<totfact> 0.57951631E+06</totfact>
</mgrwt>
</event>
<event>
 3    1  0.1597250E-001  0.1250000E+03  0.7546771E-02  0.1235069E+00
         21   -1    0    0  502  501  0.00000000000E+00  0.00000000000E+00  0.21520407837E+03  0.21520407837E+03  0.00000000000E+00 0. -1.
         21   -1    0    0  501  502 -0.00000000000E+00 -0.00000000000E+00 -0.18151375335E+02  0.18151375335E+02  0.00000000000E+00 0. -1.
         25    1    1    2    0    0  0.00000000000E+00  0.00000000000E+00  0.19705270303E+03  0.23335545370E+03  0.12500000000E+03 0.  0.
<mgrwt>
<rscale>  0 0.12500000E+03</rscale>
<asrwt>0</asrwt>
<pdfrwt beam="1">  1       21 0.33108318E-01 0.12500000E+03</pdfrwt>
<pdfrwt beam="2">  1       21 0.27925194E-02 0.12500000E+03</pdfrwt>
<totfact> 0.61481631E+06</totfact>
</mgrwt>
</event>
<event>
 3    1  0.1597250E-001  0.1250000E+03  0.7546771E-02  0.1235069E+00
         21   -1    0    0  502  501  0.00000000000E+00  0.00000000000E+00  0.19254428378E+02  0.19254428378E+02  0.00000000000E+00 0. -1.
         21   -1    0    0  501  502 -0.00000000000E+00 -0.00000000000E+00 -0.20287540733E+03  0.20287540733E+03  0.00000000000E+00 0. -1.
         25    1    1    2    0    0  0.00000000000E+00  0.00000000000E+00 -0.18362097895E+03  0.22212983571E+03  0.12500000000E+03 0.  0.
<mgrwt>
<rscale>  0 0.12500000E+03</rscale>
<asrwt>0</asrwt>
<pdfrwt beam="1">  1       21 0.29622197E-02 0.12500000E+03</pdfrwt>
<pdfrwt beam="2">  1       21 0.31211601E-01 0.12500000E+03</pdfrwt>
<totfact> 0.62605498E+06</totfact>
</mgrwt>
</event>
<event>
 3    1  0.1597250E-001  0.1250000E+03  0.7546771E-02  0.1235069E+00
         21   -1    0    0  502  501  0.00000000000E+00  0.00000000000E+00  0.16783762308E+02  0.16783762308E+02  0.00000000000E+00 0. -1.
         21   -1    0    0  501  502 -0.00000000000E+00 -0.00000000000E+00 -0.23273983082E+03  0.23273983082E+03  0.00000000000E+00 0. -1.
         25    1    1    2    0    0  0.00000000000E+00  0.00000000000E+00 -0.21595606851E+03  0.24952359312E+03  0.12500000000E+03 0.  0.
<mgrwt>
<rscale>  0 0.12500000E+03</rscale>
<asrwt>0</asrwt>
<pdfrwt beam="1">  1       21 0.25821171E-02 0.12500000E+03</pdfrwt>
<pdfrwt beam="2">  1       21 0.35806130E-01 0.12500000E+03</pdfrwt>
<totfact> 0.59923070E+06</totfact>
</mgrwt>
</event>
<event>
 3    1  0.1597250E-001  0.1250000E+03  0.7546771E-02  0.1235069E+00
         21   -1    0    0  502  501  0.00000000000E+00  0.00000000000E+00  0.13962666132E+02  0.13962666132E+02  0.00000000000E+00 0. -1.
         21   -1    0    0  501  502 -0.00000000000E+00 -0.00000000000E+00 -0.27976390491E+03  0.27976390491E+03  0.00000000000E+00 0. -1.
         25    1    1    2    0    0  0.00000000000E+00  0.00000000000E+00 -0.26580123878E+03  0.29372657105E+03  0.12500000000E+03 0.  0.
<mgrwt>
<rscale>  0 0.12500000E+03</rscale>
<asrwt>0</asrwt>
<pdfrwt beam="1">  1       21 0.21481025E-02 0.12500000E+03</pdfrwt>
<pdfrwt beam="2">  1       21 0.43040600E-01 0.12500000E+03</pdfrwt>
<totfact> 0.55981583E+06</totfact>
</mgrwt>
</event>
<event>
 3    1  0.1597250E-001  0.1250000E+03  0.7546771E-02  0.1235069E+00
         21   -1    0    0  502  501  0.00000000000E+00  0.00000000000E+00  0.22163943788E+02  0.22163943788E+02  0.00000000000E+00 0. -1.
         21   -1    0    0  501  502 -0.00000000000E+00 -0.00000000000E+00 -0.17624345366E+03  0.17624345366E+03  0.00000000000E+00 0. -1.
         25    1    1    2    0    0  0.00000000000E+00  0.00000000000E+00 -0.15407950987E+03  0.19840739745E+03  0.12500000000E+03 0.  0.
<mgrwt>
<rscale>  0 0.12500000E+03</rscale>
<asrwt>0</asrwt>
<pdfrwt beam="1">  1       21 0.34098373E-02 0.12500000E+03</pdfrwt>
<pdfrwt beam="2">  1       21 0.27114379E-01 0.12500000E+03</pdfrwt>
<totfact> 0.65100008E+06</totfact>
</mgrwt>
</event>
<event>
 3    1  0.1597250E-001  0.1250000E+03  0.7546771E-02  0.1235069E+00
         21   -1    0    0  502  501  0.00000000000E+00  0.00000000000E+00  0.71661647883E+02  0.71661647883E+02  0.00000000000E+00 0. -1.
         21   -1    0    0  501  502 -0.00000000000E+00 -0.00000000000E+00 -0.54509631238E+02  0.54509631238E+02  0.00000000000E+00 0. -1.
         25    1    1    2    0    0  0.00000000000E+00  0.00000000000E+00  0.17152016645E+02  0.12617127912E+03  0.12500000000E+03 0.  0.
<mgrwt>
<rscale>  0 0.12500000E+03</rscale>
<asrwt>0</asrwt>
<pdfrwt beam="1">  1       21 0.11024869E-01 0.12500000E+03</pdfrwt>
<pdfrwt beam="2">  1       21 0.83860971E-02 0.12500000E+03</pdfrwt>
<totfact> 0.73882457E+06</totfact>
</mgrwt>
</event>
<event>
 3    1  0.1597250E-001  0.1250000E+03  0.7546771E-02  0.1235069E+00
         21   -1    0    0  502  501  0.00000000000E+00  0.00000000000E+00  0.14684151094E+02  0.14684151094E+02  0.00000000000E+00 0.  1.
         21   -1    0    0  501  502 -0.00000000000E+00 -0.00000000000E+00 -0.26601810175E+03  0.26601810175E+03  0.00000000000E+00 0.  1.
         25    1    1    2    0    0  0.00000000000E+00  0.00000000000E+00 -0.25133395066E+03  0.28070225285E+03  0.12500000000E+03 0.  0.
<mgrwt>
<rscale>  0 0.12500000E+03</rscale>
<asrwt>0</asrwt>
<pdfrwt beam="1">  1       21 0.22591003E-02 0.12500000E+03</pdfrwt>
<pdfrwt beam="2">  1       21 0.40925859E-01 0.12500000E+03</pdfrwt>
<totfact> 0.57099018E+06</totfact>
</mgrwt>
</event>
<event>
 3    1  0.1597250E-001  0.1250000E+03  0.7546771E-02  0.1235069E+00
         21   -1    0    0  502  501  0.00000000000E+00  0.00000000000E+00  0.14334043917E+03  0.14334043917E+03  0.00000000000E+00 0. -1.
         21   -1    0    0  501  502 -0.00000000000E+00 -0.00000000000E+00 -0.27251555965E+02  0.27251555965E+02  0.00000000000E+00 0. -1.
         25    1    1    2    0    0  0.00000000000E+00  0.00000000000E+00  0.11608888320E+03  0.17059199513E+03  0.12500000000E+03 0.  0.
<mgrwt>
<rscale>  0 0.12500000E+03</rscale>
<asrwt>0</asrwt>
<pdfrwt beam="1">  1       21 0.22052375E-01 0.12500000E+03</pdfrwt>
<pdfrwt beam="2">  1       21 0.41925472E-02 0.12500000E+03</pdfrwt>
<totfact> 0.68247527E+06</totfact>
</mgrwt>
</event>
<event>
 3    1  0.1597250E-001  0.1250000E+03  0.7546771E-02  0.1235069E+00
         21   -1    0    0  502  501  0.00000000000E+00  0.00000000000E+00  0.87133211556E+02  0.87133211556E+02  0.00000000000E+00 0.  1.
         21   -1    0    0  501  502 -0.00000000000E+00 -0.00000000000E+00 -0.44830781859E+02  0.44830781859E+02  0.00000000000E+00 0.  1.
         25    1    1    2    0    0  0.00000000000E+00  0.00000000000E+00  0.42302429697E+02  0.13196399342E+03  0.12500000000E+03 0.  0.
<mgrwt>
<rscale>  0 0.12500000E+03</rscale>
<asrwt>0</asrwt>
<pdfrwt beam="1">  1       21 0.13405109E-01 0.12500000E+03</pdfrwt>
<pdfrwt beam="2">  1       21 0.68970434E-02 0.12500000E+03</pdfrwt>
<totfact> 0.73101059E+06</totfact>
</mgrwt>
</event>
<event>
 3    1  0.1597250E-001  0.1250000E+03  0.7546771E-02  0.1235069E+00
         21   -1    0    0  502  501  0.00000000000E+00  0.00000000000E+00  0.11843717424E+03  0.11843717424E+03  0.00000000000E+00 0.  1.
         21   -1    0    0  501  502 -0.00000000000E+00 -0.00000000000E+00 -0.32981621059E+02  0.32981621059E+02  0.00000000000E+00 0.  1.
         25    1    1    2    0    0  0.00000000000E+00  0.00000000000E+00  0.85455553176E+02  0.15141879530E+03  0.12500000000E+03 0.  0.
<mgrwt>
<rscale>  0 0.12500000E+03</rscale>
<asrwt>0</asrwt>
<pdfrwt beam="1">  1       21 0.18221104E-01 0.12500000E+03</pdfrwt>
<pdfrwt beam="2">  1       21 0.50740956E-02 0.12500000E+03</pdfrwt>
<totfact> 0.70581427E+06</totfact>
</mgrwt>
</event>
<event>
 3    1  0.1597250E-001  0.1250000E+03  0.7546771E-02  0.1235069E+00
         21   -1    0    0  502  501  0.00000000000E+00  0.00000000000E+00  0.99575129590E+02  0.99575129590E+02  0.00000000000E+00 0. -1.
         21   -1    0    0  501  502 -0.00000000000E+00 -0.00000000000E+00 -0.39229173149E+02  0.39229173149E+02  0.00000000000E+00 0. -1.
         25    1    1    2    0    0  0.00000000000E+00  0.00000000000E+00  0.60345956441E+02  0.13880430274E+03  0.12500000000E+03 0.  0.
<mgrwt>
<rscale>  0 0.12500000E+03</rscale>
<asrwt>0</asrwt>
<pdfrwt beam="1">  1       21 0.15319251E-01 0.12500000E+03</pdfrwt>
<pdfrwt beam="2">  1       21 0.60352575E-02 0.12500000E+03</pdfrwt>
<totfact> 0.72195791E+06</totfact>
</mgrwt>
</event>
<event>
 3    1  0.1597250E-001  0.1250000E+03  0.7546771E-02  0.1235069E+00
         21   -1    0    0  502  501  0.00000000000E+00  0.00000000000E+00  0.49009782721E+02  0.49009782721E+02  0.00000000000E+00 0. -1.
         21   -1    0    0  501  502 -0.00000000000E+00 -0.00000000000E+00 -0.79703475165E+02  0.79703475165E+02  0.00000000000E+00 0. -1.
         25    1    1    2    0    0  0.00000000000E+00  0.00000000000E+00 -0.30693692444E+02  0.12871325789E+03  0.12500000000E+03 0.  0.
<mgrwt>
<rscale>  0 0.12500000E+03</rscale>
<asrwt>0</asrwt>
<pdfrwt beam="1">  1       21 0.75399666E-02 0.12500000E+03</pdfrwt>
<pdfrwt beam="2">  1       21 0.12262073E-01 0.12500000E+03</pdfrwt>
<totfact> 0.73537420E+06</totfact>
</mgrwt>
</event>
<event>
 3    1  0.1597250E-001  0.1250000E+03  0.7546771E-02  0.1235069E+00
         21   -1    0    0  502  501  0.00000000000E+00  0.00000000000E+00  0.26149696402E+01  0.26149696402E+01  0.00000000000E+00 0. -1.
         21   -1    0    0  501  502 -0.00000000000E+00 -0.00000000000E+00 -0.14938031937E+04  0.14938031937E+04  0.00000000000E+00 0. -1.
         25    1    1    2    0    0  0.00000000000E+00  0.00000000000E+00 -0.14911882241E+04  0.14964181634E+04  0.12500000000E+03 0.  0.
<mgrwt>
<rscale>  0 0.12500000E+03</rscale>
<asrwt>0</asrwt>
<pdfrwt beam="1">  1       21 0.40230237E-03 0.12500000E+03</pdfrwt>
<pdfrwt beam="2">  1       21 0.22981625E+00 0.12500000E+03</pdfrwt>
<totfact> 0.14046300E+06</totfact>
</mgrwt>
</event>
<event>
 3    1  0.1597250E-001  0.1250000E+03  0.7546771E-02  0.1235069E+00
         21   -1    0    0  502  501  0.00000000000E+00  0.00000000000E+00  0.20244898022E+03  0.20244898022E+03  0.00000000000E+00 0. -1.
         21   -1    0    0  501  502 -0.00000000000E+00 -0.00000000000E+00 -0.19294984819E+02  0.19294984819E+02  0.00000000000E+00 0. -1.
         25    1    1    2    0    0  0.00000000000E+00  0.00000000000E+00  0.18315399540E+03  0.22174396504E+03  0.12500000000E+03 0.  0.
<mgrwt>
<rscale>  0 0.12500000E+03</rscale>
<asrwt>0</asrwt>
<pdfrwt beam="1">  1       21 0.31145995E-01 0.12500000E+03</pdfrwt>
<pdfrwt beam="2">  1       21 0.29684593E-02 0.12500000E+03</pdfrwt>
<totfact> 0.62644723E+06</totfact>
</mgrwt>
</event>
<event>
 3    1  0.1597250E-001  0.1250000E+03  0.7546771E-02  0.1235069E+00
         21   -1    0    0  502  501  0.00000000000E+00  0.00000000000E+00  0.32664579915E+01  0.32664579915E+01  0.00000000000E+00 0. -1.
         21   -1    0    0  501  502 -0.00000000000E+00 -0.00000000000E+00 -0.11958672085E+04  0.11958672085E+04  0.00000000000E+00 0. -1.
         25    1    1    2    0    0  0.00000000000E+00  0.00000000000E+00 -0.11926007505E+04  0.11991336665E+04  0.12500000000E+03 0.  0.
<mgrwt>
<rscale>  0 0.12500000E+03</rscale>
<asrwt>0</asrwt>
<pdfrwt beam="1">  1       21 0.50253225E-03 0.12500000E+03</pdfrwt>
<pdfrwt beam="2">  1       21 0.18397948E+00 0.12500000E+03</pdfrwt>
<totfact> 0.19160648E+06</totfact>
</mgrwt>
</event>
<event>
 3    1  0.1597250E-001  0.1250000E+03  0.7546771E-02  0.1235069E+00
         21   -1    0    0  502  501  0.00000000000E+00  0.00000000000E+00  0.81669609176E+01  0.81669609176E+01  0.00000000000E+00 0. -1.
         21   -1    0    0  501  502 -0.00000000000E+00 -0.00000000000E+00 -0.47829909306E+03  0.47829909306E+03  0.00000000000E+00 0. -1.
         25    1    1    2    0    0  0.00000000000E+00  0.00000000000E+00 -0.47013213215E+03  0.48646605398E+03  0.12500000000E+03 0.  0.
<mgrwt>
<rscale>  0 0.12500000E+03</rscale>
<asrwt>0</asrwt>
<pdfrwt beam="1">  1       21 0.12564553E-02 0.12500000E+03</pdfrwt>
<pdfrwt beam="2">  1       21 0.73584488E-01 0.12500000E+03</pdfrwt>
<totfact> 0.42787683E+06</totfact>
</mgrwt>
</event>
<event>
 3    1  0.1597250E-001  0.1250000E+03  0.7546771E-02  0.1235069E+00
         21   -1    0    0  502  501  0.00000000000E+00  0.00000000000E+00  0.36082263932E+02  0.36082263932E+02  0.00000000000E+00 0. -1.
         21   -1    0    0  501  502 -0.00000000000E+00 -0.00000000000E+00 -0.10825955953E+03  0.10825955953E+03  0.00000000000E+00 0. -1.
         25    1    1    2    0    0  0.00000000000E+00  0.00000000000E+00 -0.72177295596E+02  0.14434182346E+03  0.12500000000E+03 0.  0.
<mgrwt>
<rscale>  0 0.12500000E+03</rscale>
<asrwt>0</asrwt>
<pdfrwt beam="1">  1       21 0.55511176E-02 0.12500000E+03</pdfrwt>
<pdfrwt beam="2">  1       21 0.16655317E-01 0.12500000E+03</pdfrwt>
<totfact> 0.71477436E+06</totfact>
</mgrwt>
</event>
<event>
 3    1  0.1597250E-001  0.1250000E+03  0.7546771E-02  0.1235069E+00
         21   -1    0    0  502  501  0.00000000000E+00  0.00000000000E+00  0.81059296737E+01  0.81059296737E+01  0.00000000000E+00 0. -1.
         21   -1    0    0  501  502 -0.00000000000E+00 -0.00000000000E+00 -0.48190030721E+03  0.48190030721E+03  0.00000000000E+00 0. -1.
         25    1    1    2    0    0  0.00000000000E+00  0.00000000000E+00 -0.47379437754E+03  0.49000623689E+03  0.12500000000E+03 0.  0.
<mgrwt>
<rscale>  0 0.12500000E+03</rscale>
<asrwt>0</asrwt>
<pdfrwt beam="1">  1       21 0.12470656E-02 0.12500000E+03</pdfrwt>
<pdfrwt beam="2">  1       21 0.74138538E-01 0.12500000E+03</pdfrwt>
<totfact> 0.42591282E+06</totfact>
</mgrwt>
</event>
<event>
 3    1  0.1597250E-001  0.1250000E+03  0.7546771E-02  0.1235069E+00
         21   -1    0    0  502  501  0.00000000000E+00  0.00000000000E+00  0.35842105496E+02  0.35842105496E+02  0.00000000000E+00 0. -1.
         21   -1    0    0  501  502 -0.00000000000E+00 -0.00000000000E+00 -0.10898494790E+03  0.10898494790E+03  0.00000000000E+00 0. -1.
         25    1    1    2    0    0  0.00000000000E+00  0.00000000000E+00 -0.73142842400E+02  0.14482705339E+03  0.12500000000E+03 0.  0.
<mgrwt>
<rscale>  0 0.12500000E+03</rscale>
<asrwt>0</asrwt>
<pdfrwt beam="1">  1       21 0.55141701E-02 0.12500000E+03</pdfrwt>
<pdfrwt beam="2">  1       21 0.16766915E-01 0.12500000E+03</pdfrwt>
<totfact> 0.71415239E+06</totfact>
</mgrwt>
</event>
<event>
 3    1  0.1597250E-001  0.1250000E+03  0.7546771E-02  0.1235069E+00
         21   -1    0    0  502  501  0.00000000000E+00  0.00000000000E+00  0.34089595179E+01  0.34089595179E+01  0.00000000000E+00 0.  1.
         21   -1    0    0  501  502 -0.00000000000E+00 -0.00000000000E+00 -0.11458774971E+04  0.11458774971E+04  0.00000000000E+00 0.  1.
         25    1    1    2    0    0  0.00000000000E+00  0.00000000000E+00 -0.11424685376E+04  0.11492864566E+04  0.12500000000E+03 0.  0.
<mgrwt>
<rscale>  0 0.12500000E+03</rscale>
<asrwt>0</asrwt>
<pdfrwt beam="1">  1       21 0.52445569E-03 0.12500000E+03</pdfrwt>
<pdfrwt beam="2">  1       21 0.17628872E+00 0.12500000E+03</pdfrwt>
<totfact> 0.20184243E+06</totfact>
</mgrwt>
</event>
<event>
 3    1  0.1597250E-001  0.1250000E+03  0.7546771E-02  0.1235069E+00
         21   -1    0    0  502  501  0.00000000000E+00  0.00000000000E+00  0.93629488752E+03  0.93629488752E+03  0.00000000000E+00 0. -1.
         21   -1    0    0  501  502 -0.00000000000E+00 -0.00000000000E+00 -0.41720296160E+01  0.41720296160E+01  0.00000000000E+00 0. -1.
         25    1    1    2    0    0  0.00000000000E+00  0.00000000000E+00  0.93212285790E+03  0.94046691714E+03  0.12500000000E+03 0.  0.
<mgrwt>
<rscale>  0 0.12500000E+03</rscale>
<asrwt>0</asrwt>
<pdfrwt beam="1">  1       21 0.14404520E+00 0.12500000E+03</pdfrwt>
<pdfrwt beam="2">  1       21 0.64185146E-03 0.12500000E+03</pdfrwt>
<totfact> 0.25168421E+06</totfact>
</mgrwt>
</event>
<event>
 3    1  0.1597250E-001  0.1250000E+03  0.7546771E-02  0.1235069E+00
         21   -1    0    0  502  501  0.00000000000E+00  0.00000000000E+00  0.83535049730E+03  0.83535049730E+03  0.00000000000E+00 0. -1.
         21   -1    0    0  501  502 -0.00000000000E+00 -0.00000000000E+00 -0.46761808518E+01  0.46761808518E+01  0.00000000000E+00 0. -1.
         25    1    1    2    0    0  0.00000000000E+00  0.00000000000E+00  0.83067431644E+03  0.84002667815E+03  0.12500000000E+03 0.  0.
<mgrwt>
<rscale>  0 0.12500000E+03</rscale>
<asrwt>0</asrwt>
<pdfrwt beam="1">  1       21 0.12851534E+00 0.12500000E+03</pdfrwt>
<pdfrwt beam="2">  1       21 0.71941310E-03 0.12500000E+03</pdfrwt>
<totfact> 0.28078881E+06</totfact>
</mgrwt>
</event>
<event>
 3    1  0.1597250E-001  0.1250000E+03  0.7546771E-02  0.1235069E+00
         21   -1    0    0  502  501  0.00000000000E+00  0.00000000000E+00  0.14363053876E+02  0.14363053876E+02  0.00000000000E+00 0. -1.
         21   -1    0    0  501  502 -0.00000000000E+00 -0.00000000000E+00 -0.27196514291E+03  0.27196514291E+03  0.00000000000E+00 0. -1.
         25    1    1    2    0    0  0.00000000000E+00  0.00000000000E+00 -0.25760208904E+03  0.28632819679E+03  0.12500000000E+03 0.  0.
<mgrwt>
<rscale>  0 0.12500000E+03</rscale>
<asrwt>0</asrwt>
<pdfrwt beam="1">  1       21 0.22097007E-02 0.12500000E+03</pdfrwt>
<pdfrwt beam="2">  1       21 0.41840790E-01 0.12500000E+03</pdfrwt>
<totfact> 0.56611844E+06</totfact>
</mgrwt>
</event>
<event>
 3    1  0.1597250E-001  0.1250000E+03  0.7546771E-02  0.1235069E+00
         21   -1    0    0  502  501  0.00000000000E+00  0.00000000000E+00  0.88126942442E+01  0.88126942442E+01  0.00000000000E+00 0.  1.
         21   -1    0    0  501  502 -0.00000000000E+00 -0.00000000000E+00 -0.44325264122E+03  0.44325264122E+03  0.00000000000E+00 0.  1.
         25    1    1    2    0    0  0.00000000000E+00  0.00000000000E+00 -0.43443994697E+03  0.45206533546E+03  0.12500000000E+03 0.  0.
<mgrwt>
<rscale>  0 0.12500000E+03</rscale>
<asrwt>0</asrwt>
<pdfrwt beam="1">  1       21 0.13557990E-02 0.12500000E+03</pdfrwt>
<pdfrwt beam="2">  1       21 0.68192719E-01 0.12500000E+03</pdfrwt>
<totfact> 0.44768939E+06</totfact>
</mgrwt>
</event>
<event>
 3    1  0.1597250E-001  0.1250000E+03  0.7546771E-02  0.1235069E+00
         21   -1    0    0  502  501  0.00000000000E+00  0.00000000000E+00  0.28098996122E+03  0.28098996122E+03  0.00000000000E+00 0. -1.
         21   -1    0    0  501  502 -0.00000000000E+00 -0.00000000000E+00 -0.13901742194E+02  0.13901742194E+02  0.00000000000E+00 0. -1.
         25    1    1    2    0    0  0.00000000000E+00  0.00000000000E+00  0.26708821902E+03  0.29489170341E+03  0.12500000000E+03 0.  0.
<mgrwt>
<rscale>  0 0.12500000E+03</rscale>
<asrwt>0</asrwt>
<pdfrwt beam="1">  1       21 0.43229221E-01 0.12500000E+03</pdfrwt>
<pdfrwt beam="2">  1       21 0.21387298E-02 0.12500000E+03</pdfrwt>
<totfact> 0.55883384E+06</totfact>
</mgrwt>
</event>
<event>
 3    1  0.1597250E-001  0.1250000E+03  0.7546771E-02  0.1235069E+00
         21   -1    0    0  502  501  0.00000000000E+00  0.00000000000E+00  0.38871921227E+03  0.38871921227E+03  0.00000000000E+00 0.  1.
         21   -1    0    0  501  502 -0.00000000000E+00 -0.00000000000E+00 -0.10049027361E+02  0.10049027361E+02  0.00000000000E+00 0.  1.
         25    1    1    2    0    0  0.00000000000E+00  0.00000000000E+00  0.37867018491E+03  0.39876823963E+03  0.12500000000E+03 0.  0.
<mgrwt>
<rscale>  0 0.12500000E+03</rscale>
<asrwt>0</asrwt>
<pdfrwt beam="1">  1       21 0.59802944E-01 0.12500000E+03</pdfrwt>
<pdfrwt beam="2">  1       21 0.15460045E-02 0.12500000E+03</pdfrwt>
<totfact> 0.48123164E+06</totfact>
</mgrwt>
</event>
<event>
 3    1  0.1597250E-001  0.1250000E+03  0.7546771E-02  0.1235069E+00
         21   -1    0    0  502  501  0.00000000000E+00  0.00000000000E+00  0.58773494653E+03  0.58773494653E+03  0.00000000000E+00 0.  1.
         21   -1    0    0  501  502 -0.00000000000E+00 -0.00000000000E+00 -0.66462782638E+01  0.66462782638E+01  0.00000000000E+00 0.  1.
         25    1    1    2    0    0  0.00000000000E+00  0.00000000000E+00  0.58108866827E+03  0.59438122480E+03  0.12500000000E+03 0.  0.
<mgrwt>
<rscale>  0 0.12500000E+03</rscale>
<asrwt>0</asrwt>
<pdfrwt beam="1">  1       21 0.90420720E-01 0.12500000E+03</pdfrwt>
<pdfrwt beam="2">  1       21 0.10225048E-02 0.12500000E+03</pdfrwt>
<totfact> 0.37347983E+06</totfact>
</mgrwt>
</event>
<event>
 3    1  0.1597250E-001  0.1250000E+03  0.7546771E-02  0.1235069E+00
         21   -1    0    0  502  501  0.00000000000E+00  0.00000000000E+00  0.29288575768E+02  0.29288575768E+02  0.00000000000E+00 0. -1.
         21   -1    0    0  501  502 -0.00000000000E+00 -0.00000000000E+00 -0.13337111476E+03  0.13337111476E+03  0.00000000000E+00 0. -1.
         25    1    1    2    0    0  0.00000000000E+00  0.00000000000E+00 -0.10408253900E+03  0.16265969053E+03  0.12500000000E+03 0.  0.
<mgrwt>
<rscale>  0 0.12500000E+03</rscale>
<asrwt>0</asrwt>
<pdfrwt beam="1">  1       21 0.45059349E-02 0.12500000E+03</pdfrwt>
<pdfrwt beam="2">  1       21 0.20518632E-01 0.12500000E+03</pdfrwt>
<totfact> 0.69195962E+06</totfact>
</mgrwt>
</event>
<event>
 3    1  0.1597250E-001  0.1250000E+03  0.7546771E-02  0.1235069E+00
         21   -1    0    0  502  501  0.00000000000E+00  0.00000000000E+00  0.78886710850E+02  0.78886710850E+02  0.00000000000E+00 0.  1.
         21   -1    0    0  501  502 -0.00000000000E+00 -0.00000000000E+00 -0.49517212188E+02  0.49517212188E+02  0.00000000000E+00 0.  1.
         25    1    1    2    0    0  0.00000000000E+00  0.00000000000E+00  0.29369498662E+02  0.12840392304E+03  0.12500000000E+03 0.  0.
<mgrwt>
<rscale>  0 0.12500000E+03</rscale>
<asrwt>0</asrwt>
<pdfrwt beam="1">  1       21 0.12136417E-01 0.12500000E+03</pdfrwt>
<pdfrwt beam="2">  1       21 0.76180327E-02 0.12500000E+03</pdfrwt>
<totfact> 0.73579064E+06</totfact>
</mgrwt>
</event>
<event>
 3    1  0.1597250E-001  0.1250000E+03  0.7546771E-02  0.1235069E+00
         21   -1    0    0  502  501  0.00000000000E+00  0.00000000000E+00  0.16131289746E+02  0.16131289746E+02  0.00000000000E+00 0. -1.
         21   -1    0    0  501  502 -0.00000000000E+00 -0.00000000000E+00 -0.24215360715E+03  0.24215360715E+03  0.00000000000E+00 0. -1.
         25    1    1    2    0    0  0.00000000000E+00  0.00000000000E+00 -0.22602231741E+03  0.25828489690E+03  0.12500000000E+03 0.  0.
<mgrwt>
<rscale>  0 0.12500000E+03</rscale>
<asrwt>0</asrwt>
<pdfrwt beam="1">  1       21 0.24817368E-02 0.12500000E+03</pdfrwt>
<pdfrwt beam="2">  1       21 0.37254402E-01 0.12500000E+03</pdfrwt>
<totfact> 0.59106828E+06</totfact>
</mgrwt>
</event>
<event>
 3    1  0.1597250E-001  0.1250000E+03  0.7546771E-02  0.1235069E+00
         21   -1    0    0  502  501  0.00000000000E+00  0.00000000000E+00  0.21209742116E+02  0.21209742116E+02  0.00000000000E+00 0.  1.
         21   -1    0    0  501  502 -0.00000000000E+00 -0.00000000000E+00 -0.18417244202E+03  0.18417244202E+03  0.00000000000E+00 0.  1.
         25    1    1    2    0    0  0.00000000000E+00  0.00000000000E+00 -0.16296269990E+03  0.20538218413E+03  0.12500000000E+03 0.  0.
<mgrwt>
<rscale>  0 0.12500000E+03</rscale>
<asrwt>0</asrwt>
<pdfrwt beam="1">  1       21 0.32630374E-02 0.12500000E+03</pdfrwt>
<pdfrwt beam="2">  1       21 0.28334220E-01 0.12500000E+03</pdfrwt>
<totfact> 0.64348682E+06</totfact>
</mgrwt>
</event>
<event>
 3    1  0.1597250E-001  0.1250000E+03  0.7546771E-02  0.1235069E+00
         21   -1    0    0  502  501  0.00000000000E+00  0.00000000000E+00  0.62951121929E+03  0.62951121929E+03  0.00000000000E+00 0.  1.
         21   -1    0    0  501  502 -0.00000000000E+00 -0.00000000000E+00 -0.62052110912E+01  0.62052110912E+01  0.00000000000E+00 0.  1.
         25    1    1    2    0    0  0.00000000000E+00  0.00000000000E+00  0.62330600820E+03  0.63571643038E+03  0.12500000000E+03 0.  0.
<mgrwt>
<rscale>  0 0.12500000E+03</rscale>
<asrwt>0</asrwt>
<pdfrwt beam="1">  1       21 0.96847830E-01 0.12500000E+03</pdfrwt>
<pdfrwt beam="2">  1       21 0.95464836E-03 0.12500000E+03</pdfrwt>
<totfact> 0.35525656E+06</totfact>
</mgrwt>
</event>
<event>
 3    1  0.1597250E-001  0.1250000E+03  0.7546771E-02  0.1235069E+00
         21   -1    0    0  502  501  0.00000000000E+00  0.00000000000E+00  0.99551517804E+02  0.99551517804E+02  0.00000000000E+00 0. -1.
         21   -1    0    0  501  502 -0.00000000000E+00 -0.00000000000E+00 -0.39238477586E+02  0.39238477586E+02  0.00000000000E+00 0. -1.
         25    1    1    2    0    0  0.00000000000E+00  0.00000000000E+00  0.60313040218E+02  0.13878999539E+03  0.12500000000E+03 0.  0.
<mgrwt>
<rscale>  0 0.12500000E+03</rscale>
<asrwt>0</asrwt>
<pdfrwt beam="1">  1       21 0.15315618E-01 0.12500000E+03</pdfrwt>
<pdfrwt beam="2">  1       21 0.60366889E-02 0.12500000E+03</pdfrwt>
<totfact> 0.72197668E+06</totfact>
</mgrwt>
</event>
<event>
 3    1  0.1597250E-001  0.1250000E+03  0.7546771E-02  0.1235069E+00
         21   -1    0    0  502  501  0.00000000000E+00  0.00000000000E+00  0.18931922805E+02  0.18931922805E+02  0.00000000000E+00 0.  1.
         21   -1    0    0  501  502 -0.00000000000E+00 -0.00000000000E+00 -0.20633139276E+03  0.20633139276E+03  0.00000000000E+00 0.  1.
         25    1    1    2    0    0  0.00000000000E+00  0.00000000000E+00 -0.18739946995E+03  0.22526331556E+03  0.12500000000E+03 0.  0.
<mgrwt>
<rscale>  0 0.12500000E+03</rscale>
<asrwt>0</asrwt>
<pdfrwt beam="1">  1       21 0.29126036E-02 0.12500000E+03</pdfrwt>
<pdfrwt beam="2">  1       21 0.31743290E-01 0.12500000E+03</pdfrwt>
<totfact> 0.62288543E+06</totfact>
</mgrwt>
</event>
<event>
 3    1  0.1597250E-001  0.1250000E+03  0.7546771E-02  0.1235069E+00
         21   -1    0    0  502  501  0.00000000000E+00  0.00000000000E+00  0.47646627592E+02  0.47646627592E+02  0.00000000000E+00 0.  1.
         21   -1    0    0  501  502 -0.00000000000E+00 -0.00000000000E+00 -0.81983766688E+02  0.81983766688E+02  0.00000000000E+00 0.  1.
         25    1    1    2    0    0  0.00000000000E+00  0.00000000000E+00 -0.34337139096E+02  0.12963039428E+03  0.12500000000E+03 0.  0.
<mgrwt>
<rscale>  0 0.12500000E+03</rscale>
<asrwt>0</asrwt>
<pdfrwt beam="1">  1       21 0.73302505E-02 0.12500000E+03</pdfrwt>
<pdfrwt beam="2">  1       21 0.12612887E-01 0.12500000E+03</pdfrwt>
<totfact> 0.73414354E+06</totfact>
</mgrwt>
</event>
<event>
 3    1  0.1597250E-001  0.1250000E+03  0.7546771E-02  0.1235069E+00
         21   -1    0    0  502  501  0.00000000000E+00  0.00000000000E+00  0.11261484081E+02  0.11261484081E+02  0.00000000000E+00 0. -1.
         21   -1    0    0  501  502 -0.00000000000E+00 -0.00000000000E+00 -0.34686813674E+03  0.34686813674E+03  0.00000000000E+00 0. -1.
         25    1    1    2    0    0  0.00000000000E+00  0.00000000000E+00 -0.33560665266E+03  0.35812962082E+03  0.12500000000E+03 0.  0.
<mgrwt>
<rscale>  0 0.12500000E+03</rscale>
<asrwt>0</asrwt>
<pdfrwt beam="1">  1       21 0.17325362E-02 0.12500000E+03</pdfrwt>
<pdfrwt beam="2">  1       21 0.53364324E-01 0.12500000E+03</pdfrwt>
<totfact> 0.50943586E+06</totfact>
</mgrwt>
</event>
<event>
 3    1  0.1597250E-001  0.1250000E+03  0.7546771E-02  0.1235069E+00
         21   -1    0    0  502  501  0.00000000000E+00  0.00000000000E+00  0.14204691753E+02  0.14204691753E+02  0.00000000000E+00 0.  1.
         21   -1    0    0  501  502 -0.00000000000E+00 -0.00000000000E+00 -0.27499716770E+03  0.27499716770E+03  0.00000000000E+00 0.  1.
         25    1    1    2    0    0  0.00000000000E+00  0.00000000000E+00 -0.26079247595E+03  0.28920185945E+03  0.12500000000E+03 0.  0.
<mgrwt>
<rscale>  0 0.12500000E+03</rscale>
<asrwt>0</asrwt>
<pdfrwt beam="1">  1       21 0.21853372E-02 0.12500000E+03</pdfrwt>
<pdfrwt beam="2">  1       21 0.42307257E-01 0.12500000E+03</pdfrwt>
<totfact> 0.56365651E+06</totfact>
</mgrwt>
</event>
<event>
 3    1  0.1597250E-001  0.1250000E+03  0.7546771E-02  0.1235069E+00
         21   -1    0    0  502  501  0.00000000000E+00  0.00000000000E+00  0.26144429398E+02  0.26144429398E+02  0.00000000000E+00 0.  1.
         21   -1    0    0  501  502 -0.00000000000E+00 -0.00000000000E+00 -0.14941041323E+03  0.14941041323E+03  0.00000000000E+00 0.  1.
         25    1    1    2    0    0  0.00000000000E+00  0.00000000000E+00 -0.12326598383E+03  0.17555484263E+03  0.12500000000E+03 0.  0.
<mgrwt>
<rscale>  0 0.12500000E+03</rscale>
<asrwt>0</asrwt>
<pdfrwt beam="1">  1       21 0.40222199E-02 0.12500000E+03</pdfrwt>
<pdfrwt beam="2">  1       21 0.22986217E-01 0.12500000E+03</pdfrwt>
<totfact> 0.67665166E+06</totfact>
</mgrwt>
</event>
<event>
 3    1  0.1597250E-001  0.1250000E+03  0.7546771E-02  0.1235069E+00
         21   -1    0    0  502  501  0.00000000000E+00  0.00000000000E+00  0.12902119678E+02  0.12902119678E+02  0.00000000000E+00 0. -1.
         21   -1    0    0  501  502 -0.00000000000E+00 -0.00000000000E+00 -0.30276032910E+03  0.30276032910E+03  0.00000000000E+00 0. -1.
         25    1    1    2    0    0  0.00000000000E+00  0.00000000000E+00 -0.28985820943E+03  0.31566244878E+03  0.12500000000E+03 0.  0.
<mgrwt>
<rscale>  0 0.12500000E+03</rscale>
<asrwt>0</asrwt>
<pdfrwt beam="1">  1       21 0.19849417E-02 0.12500000E+03</pdfrwt>
<pdfrwt beam="2">  1       21 0.46578508E-01 0.12500000E+03</pdfrwt>
<totfact> 0.54178873E+06</totfact>
</mgrwt>
</event>
<event>
 3    1  0.1597250E-001  0.1250000E+03  0.7546771E-02  0.1235069E+00
         21   -1    0    0  502  501  0.00000000000E+00  0.00000000000E+00  0.13935250202E+03  0.13935250202E+03  0.00000000000E+00 0.  1.
         21   -1    0    0  501  502 -0.00000000000E+00 -0.00000000000E+00 -0.28031430676E+02  0.28031430676E+02  0.00000000000E+00 0.  1.
         25    1    1    2    0    0  0.00000000000E+00  0.00000000000E+00  0.11132107135E+03  0.16738393270E+03  0.12500000000E+03 0.  0.
<mgrwt>
<rscale>  0 0.12500000E+03</rscale>
<asrwt>0</asrwt>
<pdfrwt beam="1">  1       21 0.21438846E-01 0.12500000E+03</pdfrwt>
<pdfrwt beam="2">  1       21 0.43125279E-02 0.12500000E+03</pdfrwt>
<totfact> 0.68628326E+06</totfact>
</mgrwt>
</event>
<event>
 3    1  0.1597250E-001  0.1250000E+03  0.7546771E-02  0.1235069E+00
         21   -1    0    0  502  501  0.00000000000E+00  0.00000000000E+00  0.13965608709E+03  0.13965608709E+03  0.00000000000E+00 0. -1.
         21   -1    0    0  501  502 -0.00000000000E+00 -0.00000000000E+00 -0.27970495819E+02  0.27970495819E+02  0.00000000000E+00 0. -1.
         25    1    1    2    0    0  0.00000000000E+00  0.00000000000E+00  0.11168559127E+03  0.16762658291E+03  0.12500000000E+03 0.  0.
<mgrwt>
<rscale>  0 0.12500000E+03</rscale>
<asrwt>0</asrwt>
<pdfrwt beam="1">  1       21 0.21485552E-01 0.12500000E+03</pdfrwt>
<pdfrwt beam="2">  1       21 0.43031533E-02 0.12500000E+03</pdfrwt>
<totfact> 0.68599409E+06</totfact>
</mgrwt>
</event>
<event>
 3    1  0.1597250E-001  0.1250000E+03  0.7546771E-02  0.1235069E+00
         21   -1    0    0  502  501  0.00000000000E+00  0.00000000000E+00  0.37648693483E+03  0.37648693483E+03  0.00000000000E+00 0. -1.
         21   -1    0    0  501  502 -0.00000000000E+00 -0.00000000000E+00 -0.10375526051E+02  0.10375526051E+02  0.00000000000E+00 0. -1.
         25    1    1    2    0    0  0.00000000000E+00  0.00000000000E+00  0.36611140878E+03  0.38686246088E+03  0.12500000000E+03 0.  0.
<mgrwt>
<rscale>  0 0.12500000E+03</rscale>
<asrwt>0</asrwt>
<pdfrwt beam="1">  1       21 0.57921056E-01 0.12500000E+03</pdfrwt>
<pdfrwt beam="2">  1       21 0.15962351E-02 0.12500000E+03</pdfrwt>
<totfact> 0.48925137E+06</totfact>
</mgrwt>
</event>
<event>
 3    1  0.1597250E-001  0.1250000E+03  0.7546771E-02  0.1235069E+00
         21   -1    0    0  502  501  0.00000000000E+00  0.00000000000E+00  0.18666065966E+01  0.18666065966E+01  0.00000000000E+00 0. -1.
         21   -1    0    0  501  502 -0.00000000000E+00 -0.00000000000E+00 -0.20927012725E+04  0.20927012725E+04  0.00000000000E+00 0. -1.
         25    1    1    2    0    0  0.00000000000E+00  0.00000000000E+00 -0.20908346659E+04  0.20945678791E+04  0.12500000000E+03 0.  0.
<mgrwt>
<rscale>  0 0.12500000E+03</rscale>
<asrwt>0</asrwt>
<pdfrwt beam="1">  1       21 0.28717130E-03 0.12500000E+03</pdfrwt>
<pdfrwt beam="2">  1       21 0.32195285E+00 0.12500000E+03</pdfrwt>
<totfact> 0.70623235E+05</totfact>
</mgrwt>
</event>
<event>
 3    1  0.1597250E-001  0.1250000E+03  0.7546771E-02  0.1235069E+00
         21   -1    0    0  502  501  0.00000000000E+00  0.00000000000E+00  0.59898379008E+02  0.59898379008E+02  0.00000000000E+00 0. -1.
         21   -1    0    0  501  502 -0.00000000000E+00 -0.00000000000E+00 -0.65214619573E+02  0.65214619573E+02  0.00000000000E+00 0. -1.
         25    1    1    2    0    0  0.00000000000E+00  0.00000000000E+00 -0.53162405649E+01  0.12511299858E+03  0.12500000000E+03 0.  0.
<mgrwt>
<rscale>  0 0.12500000E+03</rscale>
<asrwt>0</asrwt>
<pdfrwt beam="1">  1       21 0.92151352E-02 0.12500000E+03</pdfrwt>
<pdfrwt beam="2">  1       21 0.10033018E-01 0.12500000E+03</pdfrwt>
<totfact> 0.74028320E+06</totfact>
</mgrwt>
</event>
<event>
 3    1  0.1597250E-001  0.1250000E+03  0.7546771E-02  0.1235069E+00
         21   -1    0    0  502  501  0.00000000000E+00  0.00000000000E+00  0.15806208884E+02  0.15806208884E+02  0.00000000000E+00 0. -1.
         21   -1    0    0  501  502 -0.00000000000E+00 -0.00000000000E+00 -0.24713389711E+03  0.24713389711E+03  0.00000000000E+00 0. -1.
         25    1    1    2    0    0  0.00000000000E+00  0.00000000000E+00 -0.23132768822E+03  0.26294010599E+03  0.12500000000E+03 0.  0.
<mgrwt>
<rscale>  0 0.12500000E+03</rscale>
<asrwt>0</asrwt>
<pdfrwt beam="1">  1       21 0.24317244E-02 0.12500000E+03</pdfrwt>
<pdfrwt beam="2">  1       21 0.38020601E-01 0.12500000E+03</pdfrwt>
<totfact> 0.58680838E+06</totfact>
</mgrwt>
</event>
<event>
 3    1  0.1597250E-001  0.1250000E+03  0.7546771E-02  0.1235069E+00
         21   -1    0    0  502  501  0.00000000000E+00  0.00000000000E+00  0.85064188697E+01  0.85064188697E+01  0.00000000000E+00 0.  1.
         21   -1    0    0  501  502 -0.00000000000E+00 -0.00000000000E+00 -0.45921204444E+03  0.45921204444E+03  0.00000000000E+00 0.  1.
         25    1    1    2    0    0  0.00000000000E+00  0.00000000000E+00 -0.45070562557E+03  0.46771846331E+03  0.12500000000E+03 0.  0.
<mgrwt>
<rscale>  0 0.12500000E+03</rscale>
<asrwt>0</asrwt>
<pdfrwt beam="1">  1       21 0.13086794E-02 0.12500000E+03</pdfrwt>
<pdfrwt beam="2">  1       21 0.70648031E-01 0.12500000E+03</pdfrwt>
<totfact> 0.43850665E+06</totfact>
</mgrwt>
</event>
<event>
 3    1  0.1597250E-001  0.1250000E+03  0.7546771E-02  0.1235069E+00
         21   -1    0    0  502  501  0.00000000000E+00  0.00000000000E+00  0.13210360738E+02  0.13210360738E+02  0.00000000000E+00 0. -1.
         21   -1    0    0  501  502 -0.00000000000E+00 -0.00000000000E+00 -0.29569593725E+03  0.29569593725E+03  0.00000000000E+00 0. -1.
         25    1    1    2    0    0  0.00000000000E+00  0.00000000000E+00 -0.28248557651E+03  0.30890629799E+03  0.12500000000E+03 0.  0.
<mgrwt>
<rscale>  0 0.12500000E+03</rscale>
<asrwt>0</asrwt>
<pdfrwt beam="1">  1       21 0.20323635E-02 0.12500000E+03</pdfrwt>
<pdfrwt beam="2">  1       21 0.45491675E-01 0.12500000E+03</pdfrwt>
<totfact> 0.54724056E+06</totfact>
</mgrwt>
</event>
<event>
 3    1  0.1597250E-001  0.1250000E+03  0.7546771E-02  0.1235069E+00
         21   -1    0    0  502  501  0.00000000000E+00  0.00000000000E+00  0.76369177086E+02  0.76369177086E+02  0.00000000000E+00 0.  1.
         21   -1    0    0  501  502 -0.00000000000E+00 -0.00000000000E+00 -0.51149562546E+02  0.51149562546E+02  0.00000000000E+00 0.  1.
         25    1    1    2    0    0  0.00000000000E+00  0.00000000000E+00  0.25219614540E+02  0.12751873963E+03  0.12500000000E+03 0.  0.
<mgrwt>
<rscale>  0 0.12500000E+03</rscale>
<asrwt>0</asrwt>
<pdfrwt beam="1">  1       21 0.11749104E-01 0.12500000E+03</pdfrwt>
<pdfrwt beam="2">  1       21 0.78691635E-02 0.12500000E+03</pdfrwt>
<totfact> 0.73698678E+06</totfact>
</mgrwt>
</event>
<event>
 3    1  0.1597250E-001  0.1250000E+03  0.7546771E-02  0.1235069E+00
         21   -1    0    0  502  501  0.00000000000E+00  0.00000000000E+00  0.58742751281E+02  0.58742751281E+02  0.00000000000E+00 0.  1.
         21   -1    0    0  501  502 -0.00000000000E+00 -0.00000000000E+00 -0.66497566334E+02  0.66497566334E+02  0.00000000000E+00 0.  1.
         25    1    1    2    0    0  0.00000000000E+00  0.00000000000E+00 -0.77548150528E+01  0.12524031762E+03  0.12500000000E+03 0.  0.
<mgrwt>
<rscale>  0 0.12500000E+03</rscale>
<asrwt>0</asrwt>
<pdfrwt beam="1">  1       21 0.90373463E-02 0.12500000E+03</pdfrwt>
<pdfrwt beam="2">  1       21 0.10230395E-01 0.12500000E+03</pdfrwt>
<totfact> 0.74011129E+06</totfact>
</mgrwt>
</event>
<event>
 3    1  0.1597250E-001  0.1250000E+03  0.7546771E-02  0.1235069E+00
         21   -1    0    0  502  501  0.00000000000E+00  0.00000000000E+00  0.23232058127E+02  0.23232058127E+02  0.00000000000E+00 0. -1.
         21   -1    0    0  501  502 -0.00000000000E+00 -0.00000000000E+00 -0.16814050561E+03  0.16814050561E+03  0.00000000000E+00 0. -1.
         25    1    1    2    0    0  0.00000000000E+00  0.00000000000E+00 -0.14490844749E+03  0.19137256374E+03  0.12500000000E+03 0.  0.
<mgrwt>
<rscale>  0 0.12500000E+03</rscale>
<asrwt>0</asrwt>
<pdfrwt beam="1">  1       21 0.35741629E-02 0.12500000E+03</pdfrwt>
<pdfrwt beam="2">  1       21 0.25867770E-01 0.12500000E+03</pdfrwt>
<totfact> 0.65870241E+06</totfact>
</mgrwt>
</event>
<event>
 3    1  0.1597250E-001  0.1250000E+03  0.7546771E-02  0.1235069E+00
         21   -1    0    0  502  501  0.00000000000E+00  0.00000000000E+00  0.28703811519E+03  0.28703811519E+03  0.00000000000E+00 0.  1.
         21   -1    0    0  501  502 -0.00000000000E+00 -0.00000000000E+00 -0.13608819851E+02  0.13608819851E+02  0.00000000000E+00 0.  1.
         25    1    1    2    0    0  0.00000000000E+00  0.00000000000E+00  0.27342929534E+03  0.30064693504E+03  0.12500000000E+03 0.  0.
<mgrwt>
<rscale>  0 0.12500000E+03</rscale>
<asrwt>0</asrwt>
<pdfrwt beam="1">  1       21 0.44159706E-01 0.12500000E+03</pdfrwt>
<pdfrwt beam="2">  1       21 0.20936648E-02 0.12500000E+03</pdfrwt>
<totfact> 0.55402456E+06</totfact>
</mgrwt>
</event>
<event>
 3    1  0.1597250E-001  0.1250000E+03  0.7546771E-02  0.1235069E+00
         21   -1    0    0  502  501  0.00000000000E+00  0.00000000000E+00  0.16637487818E+03  0.16637487818E+03  0.00000000000E+00 0.  1.
         21   -1    0    0  501  502 -0.00000000000E+00 -0.00000000000E+00 -0.23478604719E+02  0.23478604719E+02  0.00000000000E+00 0.  1.
         25    1    1    2    0    0  0.00000000000E+00  0.00000000000E+00  0.14289627346E+03  0.18985348290E+03  0.12500000000E+03 0.  0.
<mgrwt>
<rscale>  0 0.12500000E+03</rscale>
<asrwt>0</asrwt>
<pdfrwt beam="1">  1       21 0.25596134E-01 0.12500000E+03</pdfrwt>
<pdfrwt beam="2">  1       21 0.36120931E-02 0.12500000E+03</pdfrwt>
<totfact> 0.66038752E+06</totfact>
</mgrwt>
</event>
<event>
 3    1  0.1597250E-001  0.1250000E+03  0.7546771E-02  0.1235069E+00
         21   -1    0    0  502  501  0.00000000000E+00  0.00000000000E+00  0.17566397703E+04  0.17566397703E+04  0.00000000000E+00 0. -1.
         21   -1    0    0  501  502 -0.00000000000E+00 -0.00000000000E+00 -0.22237057739E+01  0.22237057739E+01  0.00000000000E+00 0. -1.
         25    1    1    2    0    0  0.00000000000E+00  0.00000000000E+00  0.17544160646E+04  0.17588634761E+04  0.12500000000E+03 0.  0.
<mgrwt>
<rscale>  0 0.12500000E+03</rscale>
<asrwt>0</asrwt>
<pdfrwt beam="1">  1       21 0.27025116E+00 0.12500000E+03</pdfrwt>
<pdfrwt beam="2">  1       21 0.34210999E-03 0.12500000E+03</pdfrwt>
<totfact> 0.10551646E+06</totfact>
</mgrwt>
</event>
<event>
 3    1  0.1597250E-001  0.1250000E+03  0.7546771E-02  0.1235069E+00
         21   -1    0    0  502  501  0.00000000000E+00  0.00000000000E+00  0.54004251084E+02  0.54004251084E+02  0.00000000000E+00 0. -1.
         21   -1    0    0  501  502 -0.00000000000E+00 -0.00000000000E+00 -0.72332268693E+02  0.72332268693E+02  0.00000000000E+00 0. -1.
         25    1    1    2    0    0  0.00000000000E+00  0.00000000000E+00 -0.18328017609E+02  0.12633651978E+03  0.12500000000E+03 0.  0.
<mgrwt>
<rscale>  0 0.12500000E+03</rscale>
<asrwt>0</asrwt>
<pdfrwt beam="1">  1       21 0.83083463E-02 0.12500000E+03</pdfrwt>
<pdfrwt beam="2">  1       21 0.11128041E-01 0.12500000E+03</pdfrwt>
<totfact> 0.73859769E+06</totfact>
</mgrwt>
</event>
<event>
 3    1  0.1597250E-001  0.1250000E+03  0.7546771E-02  0.1235069E+00
         21   -1    0    0  502  501  0.00000000000E+00  0.00000000000E+00  0.11363056902E+02  0.11363056902E+02  0.00000000000E+00 0. -1.
         21   -1    0    0  501  502 -0.00000000000E+00 -0.00000000000E+00 -0.34376752962E+03  0.34376752962E+03  0.00000000000E+00 0. -1.
         25    1    1    2    0    0  0.00000000000E+00  0.00000000000E+00 -0.33240447272E+03  0.35513058652E+03  0.12500000000E+03 0.  0.
<mgrwt>
<rscale>  0 0.12500000E+03</rscale>
<asrwt>0</asrwt>
<pdfrwt beam="1">  1       21 0.17481628E-02 0.12500000E+03</pdfrwt>
<pdfrwt beam="2">  1       21 0.52887305E-01 0.12500000E+03</pdfrwt>
<totfact> 0.51161745E+06</totfact>
</mgrwt>
</event>
<event>
 3    1  0.1597250E-001  0.1250000E+03  0.7546771E-02  0.1235069E+00
         21   -1    0    0  502  501  0.00000000000E+00  0.00000000000E+00  0.65468708168E+02  0.65468708168E+02  0.00000000000E+00 0. -1.
         21   -1    0    0  501  502 -0.00000000000E+00 -0.00000000000E+00 -0.59665909246E+02  0.59665909246E+02  0.00000000000E+00 0. -1.
         25    1    1    2    0    0  0.00000000000E+00  0.00000000000E+00  0.58027989221E+01  0.12513461741E+03  0.12500000000E+03 0.  0.
<mgrwt>
<rscale>  0 0.12500000E+03</rscale>
<asrwt>0</asrwt>
<pdfrwt beam="1">  1       21 0.10072109E-01 0.12500000E+03</pdfrwt>
<pdfrwt beam="2">  1       21 0.91793706E-02 0.12500000E+03</pdfrwt>
<totfact> 0.74025400E+06</totfact>
</mgrwt>
</event>
<event>
 3    1  0.1597250E-001  0.1250000E+03  0.7546771E-02  0.1235069E+00
         21   -1    0    0  502  501  0.00000000000E+00  0.00000000000E+00  0.62823362039E+01  0.62823362039E+01  0.00000000000E+00 0.  1.
         21   -1    0    0  501  502 -0.00000000000E+00 -0.00000000000E+00 -0.62178302358E+03  0.62178302358E+03  0.00000000000E+00 0.  1.
         25    1    1    2    0    0  0.00000000000E+00  0.00000000000E+00 -0.61550068738E+03  0.62806535978E+03  0.12500000000E+03 0.  0.
<mgrwt>
<rscale>  0 0.12500000E+03</rscale>
<asrwt>0</asrwt>
<pdfrwt beam="1">  1       21 0.96651359E-03 0.12500000E+03</pdfrwt>
<pdfrwt beam="2">  1       21 0.95658894E-01 0.12500000E+03</pdfrwt>
<totfact> 0.35853409E+06</totfact>
</mgrwt>
</event>
<event>
 3    1  0.1597250E-001  0.1250000E+03  0.7546771E-02  0.1235069E+00
         21   -1    0    0  502  501  0.00000000000E+00  0.00000000000E+00  0.52986404134E+02  0.52986404134E+02  0.00000000000E+00 0.  1.
         21   -1    0    0  501  502 -0.00000000000E+00 -0.00000000000E+00 -0.73721741715E+02  0.73721741715E+02  0.00000000000E+00 0.  1.
         25    1    1    2    0    0  0.00000000000E+00  0.00000000000E+00 -0.20735337581E+02  0.12670814585E+03  0.12500000000E+03 0.  0.
<mgrwt>
<rscale>  0 0.12500000E+03</rscale>
<asrwt>0</asrwt>
<pdfrwt beam="1">  1       21 0.81517546E-02 0.12500000E+03</pdfrwt>
<pdfrwt beam="2">  1       21 0.11341806E-01 0.12500000E+03</pdfrwt>
<totfact> 0.73808923E+06</totfact>
</mgrwt>
</event>
<event>
 3    1  0.1597250E-001  0.1250000E+03  0.7546771E-02  0.1235069E+00
         21   -1    0    0  502  501  0.00000000000E+00  0.00000000000E+00  0.29539114444E+02  0.29539114444E+02  0.00000000000E+00 0.  1.
         21   -1    0    0  501  502 -0.00000000000E+00 -0.00000000000E+00 -0.13223991557E+03  0.13223991557E+03  0.00000000000E+00 0.  1.
         25    1    1    2    0    0  0.00000000000E+00  0.00000000000E+00 -0.10270080112E+03  0.16177903001E+03  0.12500000000E+03 0.  0.
<mgrwt>
<rscale>  0 0.12500000E+03</rscale>
<asrwt>0</asrwt>
<pdfrwt beam="1">  1       21 0.45444791E-02 0.12500000E+03</pdfrwt>
<pdfrwt beam="2">  1       21 0.20344602E-01 0.12500000E+03</pdfrwt>
<totfact> 0.69302768E+06</totfact>
</mgrwt>
</event>
<event>
 3    1  0.1597250E-001  0.1250000E+03  0.7546771E-02  0.1235069E+00
         21   -1    0    0  502  501  0.00000000000E+00  0.00000000000E+00  0.49128813291E+02  0.49128813291E+02  0.00000000000E+00 0.  1.
         21   -1    0    0  501  502 -0.00000000000E+00 -0.00000000000E+00 -0.79510367508E+02  0.79510367508E+02  0.00000000000E+00 0.  1.
         25    1    1    2    0    0  0.00000000000E+00  0.00000000000E+00 -0.30381554217E+02  0.12863918080E+03  0.12500000000E+03 0.  0.
<mgrwt>
<rscale>  0 0.12500000E+03</rscale>
<asrwt>0</asrwt>
<pdfrwt beam="1">  1       21 0.75582790E-02 0.12500000E+03</pdfrwt>
<pdfrwt beam="2">  1       21 0.12232364E-01 0.12500000E+03</pdfrwt>
<totfact> 0.73547386E+06</totfact>
</mgrwt>
</event>
<event>
 3    1  0.1597250E-001  0.1250000E+03  0.7546771E-02  0.1235069E+00
         21   -1    0    0  502  501  0.00000000000E+00  0.00000000000E+00  0.49703749808E+01  0.49703749808E+01  0.00000000000E+00 0.  1.
         21   -1    0    0  501  502 -0.00000000000E+00 -0.00000000000E+00 -0.78590649903E+03  0.78590649903E+03  0.00000000000E+00 0.  1.
         25    1    1    2    0    0  0.00000000000E+00  0.00000000000E+00 -0.78093612405E+03  0.79087687401E+03  0.12500000000E+03 0.  0.
<mgrwt>
<rscale>  0 0.12500000E+03</rscale>
<asrwt>0</asrwt>
<pdfrwt beam="1">  1       21 0.76467292E-03 0.12500000E+03</pdfrwt>
<pdfrwt beam="2">  1       21 0.12090872E+00 0.12500000E+03</pdfrwt>
<totfact> 0.29667322E+06</totfact>
</mgrwt>
</event>
<event>
 3    1  0.1597250E-001  0.1250000E+03  0.7546771E-02  0.1235069E+00
         21   -1    0    0  502  501  0.00000000000E+00  0.00000000000E+00  0.78088796527E+02  0.78088796527E+02  0.00000000000E+00 0. -1.
         21   -1    0    0  501  502 -0.00000000000E+00 -0.00000000000E+00 -0.50023180965E+02  0.50023180965E+02  0.00000000000E+00 0. -1.
         25    1    1    2    0    0  0.00000000000E+00  0.00000000000E+00  0.28065615561E+02  0.12811197749E+03  0.12500000000E+03 0.  0.
<mgrwt>
<rscale>  0 0.12500000E+03</rscale>
<asrwt>0</asrwt>
<pdfrwt beam="1">  1       21 0.12013661E-01 0.12500000E+03</pdfrwt>
<pdfrwt beam="2">  1       21 0.76958740E-02 0.12500000E+03</pdfrwt>
<totfact> 0.73618438E+06</totfact>
</mgrwt>
</event>
<event>
 3    1  0.1597250E-001  0.1250000E+03  0.7546771E-02  0.1235069E+00
         21   -1    0    0  502  501  0.00000000000E+00  0.00000000000E+00  0.24872497243E+02  0.24872497243E+02  0.00000000000E+00 0.  1.
         21   -1    0    0  501  502 -0.00000000000E+00 -0.00000000000E+00 -0.15705097730E+03  0.15705097730E+03  0.00000000000E+00 0.  1.
         25    1    1    2    0    0  0.00000000000E+00  0.00000000000E+00 -0.13217848006E+03  0.18192347455E+03  0.12500000000E+03 0.  0.
<mgrwt>
<rscale>  0 0.12500000E+03</rscale>
<asrwt>0</asrwt>
<pdfrwt beam="1">  1       21 0.38265381E-02 0.12500000E+03</pdfrwt>
<pdfrwt beam="2">  1       21 0.24161688E-01 0.12500000E+03</pdfrwt>
<totfact> 0.66931564E+06</totfact>
</mgrwt>
</event>
<event>
 3    1  0.1597250E-001  0.1250000E+03  0.7546771E-02  0.1235069E+00
         21   -1    0    0  502  501  0.00000000000E+00  0.00000000000E+00  0.17172516322E+02  0.17172516322E+02  0.00000000000E+00 0.  1.
         21   -1    0    0  501  502 -0.00000000000E+00 -0.00000000000E+00 -0.22747103142E+03  0.22747103142E+03  0.00000000000E+00 0.  1.
         25    1    1    2    0    0  0.00000000000E+00  0.00000000000E+00 -0.21029851510E+03  0.24464354775E+03  0.12500000000E+03 0.  0.
<mgrwt>
<rscale>  0 0.12500000E+03</rscale>
<asrwt>0</asrwt>
<pdfrwt beam="1">  1       21 0.26419257E-02 0.12500000E+03</pdfrwt>
<pdfrwt beam="2">  1       21 0.34995542E-01 0.12500000E+03</pdfrwt>
<totfact> 0.60386190E+06</totfact>
</mgrwt>
</event>
<event>
 3    1  0.1597250E-001  0.1250000E+03  0.7546771E-02  0.1235069E+00
         21   -1    0    0  502  501  0.00000000000E+00  0.00000000000E+00  0.21511711945E+02  0.21511711945E+02  0.00000000000E+00 0.  1.
         21   -1    0    0  501  502 -0.00000000000E+00 -0.00000000000E+00 -0.18158712844E+03  0.18158712844E+03  0.00000000000E+00 0.  1.
         25    1    1    2    0    0  0.00000000000E+00  0.00000000000E+00 -0.16007541650E+03  0.20309884039E+03  0.12500000000E+03 0.  0.
<mgrwt>
<rscale>  0 0.12500000E+03</rscale>
<asrwt>0</asrwt>
<pdfrwt beam="1">  1       21 0.33094943E-02 0.12500000E+03</pdfrwt>
<pdfrwt beam="2">  1       21 0.27936480E-01 0.12500000E+03</pdfrwt>
<totfact> 0.64593012E+06</totfact>
</mgrwt>
</event>
<event>
 3    1  0.1597250E-001  0.1250000E+03  0.7546771E-02  0.1235069E+00
         21   -1    0    0  502  501  0.00000000000E+00  0.00000000000E+00  0.40309150918E+01  0.40309150918E+01  0.00000000000E+00 0. -1.
         21   -1    0    0  501  502 -0.00000000000E+00 -0.00000000000E+00 -0.96907275669E+03  0.96907275669E+03  0.00000000000E+00 0. -1.
         25    1    1    2    0    0  0.00000000000E+00  0.00000000000E+00 -0.96504184160E+03  0.97310367179E+03  0.12500000000E+03 0.  0.
<mgrwt>
<rscale>  0 0.12500000E+03</rscale>
<asrwt>0</asrwt>
<pdfrwt beam="1">  1       21 0.62014005E-03 0.12500000E+03</pdfrwt>
<pdfrwt beam="2">  1       21 0.14908829E+00 0.12500000E+03</pdfrwt>
<totfact> 0.24302842E+06</totfact>
</mgrwt>
</event>
<event>
 3    1  0.1597250E-001  0.1250000E+03  0.7546771E-02  0.1235069E+00
         21   -1    0    0  502  501  0.00000000000E+00  0.00000000000E+00  0.10510664413E+02  0.10510664413E+02  0.00000000000E+00 0. -1.
         21   -1    0    0  501  502 -0.00000000000E+00 -0.00000000000E+00 -0.37164634378E+03  0.37164634378E+03  0.00000000000E+00 0. -1.
         25    1    1    2    0    0  0.00000000000E+00  0.00000000000E+00 -0.36113567937E+03  0.38215700820E+03  0.12500000000E+03 0.  0.
<mgrwt>
<rscale>  0 0.12500000E+03</rscale>
<asrwt>0</asrwt>
<pdfrwt beam="1">  1       21 0.16170257E-02 0.12500000E+03</pdfrwt>
<pdfrwt beam="2">  1       21 0.57176345E-01 0.12500000E+03</pdfrwt>
<totfact> 0.49247764E+06</totfact>
</mgrwt>
</event>
<event>
 3    1  0.1597250E-001  0.1250000E+03  0.7546771E-02  0.1235069E+00
         21   -1    0    0  502  501  0.00000000000E+00  0.00000000000E+00  0.55040456579E+02  0.55040456579E+02  0.00000000000E+00 0. -1.
         21   -1    0    0  501  502 -0.00000000000E+00 -0.00000000000E+00 -0.70970523190E+02  0.70970523190E+02  0.00000000000E+00 0. -1.
         25    1    1    2    0    0  0.00000000000E+00  0.00000000000E+00 -0.15930066611E+02  0.12601097977E+03  0.12500000000E+03 0.  0.
<mgrwt>
<rscale>  0 0.12500000E+03</rscale>
<asrwt>0</asrwt>
<pdfrwt beam="1">  1       21 0.84677626E-02 0.12500000E+03</pdfrwt>
<pdfrwt beam="2">  1       21 0.10918542E-01 0.12500000E+03</pdfrwt>
<totfact> 0.73904525E+06</totfact>
</mgrwt>
</event>
<event>
 3    1  0.1597250E-001  0.1250000E+03  0.7546771E-02  0.1235069E+00
         21   -1    0    0  502  501  0.00000000000E+00  0.00000000000E+00  0.93159124799E+02  0.93159124799E+02  0.00000000000E+00 0.  1.
         21   -1    0    0  501  502 -0.00000000000E+00 -0.00000000000E+00 -0.41930943517E+02  0.41930943517E+02  0.00000000000E+00 0.  1.
         25    1    1    2    0    0  0.00000000000E+00  0.00000000000E+00  0.51228181282E+02  0.13509006832E+03  0.12500000000E+03 0.  0.
<mgrwt>
<rscale>  0 0.12500000E+03</rscale>
<asrwt>0</asrwt>
<pdfrwt beam="1">  1       21 0.14332173E-01 0.12500000E+03</pdfrwt>
<pdfrwt beam="2">  1       21 0.64509144E-02 0.12500000E+03</pdfrwt>
<totfact> 0.72684548E+06</totfact>
</mgrwt>
</event>
<event>
 3    1  0.1597250E-001  0.1250000E+03  0.7546771E-02  0.1235069E+00
         21   -1    0    0  502  501  0.00000000000E+00  0.00000000000E+00  0.25624781362E+03  0.25624781362E+03  0.00000000000E+00 0.  1.
         21   -1    0    0  501  502 -0.00000000000E+00 -0.00000000000E+00 -0.15244032505E+02  0.15244032505E+02  0.00000000000E+00 0.  1.
         25    1    1    2    0    0  0.00000000000E+00  0.00000000000E+00  0.24100378111E+03  0.27149184612E+03  0.12500000000E+03 0.  0.
<mgrwt>
<rscale>  0 0.12500000E+03</rscale>
<asrwt>0</asrwt>
<pdfrwt beam="1">  1       21 0.39422737E-01 0.12500000E+03</pdfrwt>
<pdfrwt beam="2">  1       21 0.23452360E-02 0.12500000E+03</pdfrwt>
<totfact> 0.57911722E+06</totfact>
</mgrwt>
</event>
<event>
 3    1  0.1597250E-001  0.1250000E+03  0.7546771E-02  0.1235069E+00
         21   -1    0    0  502  501  0.00000000000E+00  0.00000000000E+00  0.57994637729E+02  0.57994637729E+02  0.00000000000E+00 0.  1.
         21   -1    0    0  501  502 -0.00000000000E+00 -0.00000000000E+00 -0.67355365133E+02  0.67355365133E+02  0.00000000000E+00 0.  1.
         25    1    1    2    0    0  0.00000000000E+00  0.00000000000E+00 -0.93607274034E+01  0.12535000286E+03  0.12500000000E+03 0.  0.
<mgrwt>
<rscale>  0 0.12500000E+03</rscale>
<asrwt>0</asrwt>
<pdfrwt beam="1">  1       21 0.89222520E-02 0.12500000E+03</pdfrwt>
<pdfrwt beam="2">  1       21 0.10362364E-01 0.12500000E+03</pdfrwt>
<totfact> 0.73996322E+06</totfact>
</mgrwt>
</event>
<event>
 3    1  0.1597250E-001  0.1250000E+03  0.7546771E-02  0.1235069E+00
         21   -1    0    0  502  501  0.00000000000E+00  0.00000000000E+00  0.36149983717E+03  0.36149983717E+03  0.00000000000E+00 0. -1.
         21   -1    0    0  501  502 -0.00000000000E+00 -0.00000000000E+00 -0.10805675683E+02  0.10805675683E+02  0.00000000000E+00 0. -1.
         25    1    1    2    0    0  0.00000000000E+00  0.00000000000E+00  0.35069416149E+03  0.37230551286E+03  0.12500000000E+03 0.  0.
<mgrwt>
<rscale>  0 0.12500000E+03</rscale>
<asrwt>0</asrwt>
<pdfrwt beam="1">  1       21 0.55615350E-01 0.12500000E+03</pdfrwt>
<pdfrwt beam="2">  1       21 0.16624119E-02 0.12500000E+03</pdfrwt>
<totfact> 0.49932130E+06</totfact>
</mgrwt>
</event>
<event>
 3    1  0.1597250E-001  0.1250000E+03  0.7546771E-02  0.1235069E+00
         21   -1    0    0  502  501  0.00000000000E+00  0.00000000000E+00  0.42286563702E+01  0.42286563702E+01  0.00000000000E+00 0. -1.
         21   -1    0    0  501  502 -0.00000000000E+00 -0.00000000000E+00 -0.92375678182E+03  0.92375678182E+03  0.00000000000E+00 0. -1.
         25    1    1    2    0    0  0.00000000000E+00  0.00000000000E+00 -0.91952812545E+03  0.92798543819E+03  0.12500000000E+03 0.  0.
<mgrwt>
<rscale>  0 0.12500000E+03</rscale>
<asrwt>0</asrwt>
<pdfrwt beam="1">  1       21 0.65056231E-03 0.12500000E+03</pdfrwt>
<pdfrwt beam="2">  1       21 0.14211647E+00 0.12500000E+03</pdfrwt>
<totfact> 0.25510213E+06</totfact>
</mgrwt>
</event>
<event>
 3    1  0.1597250E-001  0.1250000E+03  0.7546771E-02  0.1235069E+00
         21   -1    0    0  502  501  0.00000000000E+00  0.00000000000E+00  0.70279091116E+01  0.70279091116E+01  0.00000000000E+00 0. -1.
         21   -1    0    0  501  502 -0.00000000000E+00 -0.00000000000E+00 -0.55581965247E+03  0.55581965247E+03  0.00000000000E+00 0. -1.
         25    1    1    2    0    0  0.00000000000E+00  0.00000000000E+00 -0.54879174336E+03  0.56284756158E+03  0.12500000000E+03 0.  0.
<mgrwt>
<rscale>  0 0.12500000E+03</rscale>
<asrwt>0</asrwt>
<pdfrwt beam="1">  1       21 0.10812167E-02 0.12500000E+03</pdfrwt>
<pdfrwt beam="2">  1       21 0.85510721E-01 0.12500000E+03</pdfrwt>
<totfact> 0.38828577E+06</totfact>
</mgrwt>
</event>
<event>
 3    1  0.1597250E-001  0.1250000E+03  0.7546771E-02  0.1235069E+00
         21   -1    0    0  502  501  0.00000000000E+00  0.00000000000E+00  0.65968866214E+02  0.65968866214E+02  0.00000000000E+00 0. -1.
         21   -1    0    0  501  502 -0.00000000000E+00 -0.00000000000E+00 -0.59213538510E+02  0.59213538510E+02  0.00000000000E+00 0. -1.
         25    1    1    2    0    0  0.00000000000E+00  0.00000000000E+00  0.67553277046E+01  0.12518240472E+03  0.12500000000E+03 0.  0.
<mgrwt>
<rscale>  0 0.12500000E+03</rscale>
<asrwt>0</asrwt>
<pdfrwt beam="1">  1       21 0.10149056E-01 0.12500000E+03</pdfrwt>
<pdfrwt beam="2">  1       21 0.91097752E-02 0.12500000E+03</pdfrwt>
<totfact> 0.74018948E+06</totfact>
</mgrwt>
</event>
<event>
 3    1  0.1597250E-001  0.1250000E+03  0.7546771E-02  0.1235069E+00
         21   -1    0    0  502  501  0.00000000000E+00  0.00000000000E+00  0.48009297800E+01  0.48009297800E+01  0.00000000000E+00 0. -1.
         21   -1    0    0  501  502 -0.00000000000E+00 -0.00000000000E+00 -0.81364447700E+03  0.81364447700E+03  0.00000000000E+00 0. -1.
         25    1    1    2    0    0  0.00000000000E+00  0.00000000000E+00 -0.80884354722E+03  0.81844540678E+03  0.12500000000E+03 0.  0.
<mgrwt>
<rscale>  0 0.12500000E+03</rscale>
<asrwt>0</asrwt>
<pdfrwt beam="1">  1       21 0.73860456E-03 0.12500000E+03</pdfrwt>
<pdfrwt beam="2">  1       21 0.12517608E+00 0.12500000E+03</pdfrwt>
<totfact> 0.28760725E+06</totfact>
</mgrwt>
</event>
<event>
 3    1  0.1597250E-001  0.1250000E+03  0.7546771E-02  0.1235069E+00
         21   -1    0    0  502  501  0.00000000000E+00  0.00000000000E+00  0.63026251279E+03  0.63026251279E+03  0.00000000000E+00 0. -1.
         21   -1    0    0  501  502 -0.00000000000E+00 -0.00000000000E+00 -0.61978142770E+01  0.61978142770E+01  0.00000000000E+00 0. -1.
         25    1    1    2    0    0  0.00000000000E+00  0.00000000000E+00  0.62406469851E+03  0.63646032706E+03  0.12500000000E+03 0.  0.
<mgrwt>
<rscale>  0 0.12500000E+03</rscale>
<asrwt>0</asrwt>
<pdfrwt beam="1">  1       21 0.96963413E-01 0.12500000E+03</pdfrwt>
<pdfrwt beam="2">  1       21 0.95351039E-03 0.12500000E+03</pdfrwt>
<totfact> 0.35493998E+06</totfact>
</mgrwt>
</event>
<event>
 3    1  0.1597250E-001  0.1250000E+03  0.7546771E-02  0.1235069E+00
         21   -1    0    0  502  501  0.00000000000E+00  0.00000000000E+00  0.30212314662E+03  0.30212314662E+03  0.00000000000E+00 0. -1.
         21   -1    0    0  501  502 -0.00000000000E+00 -0.00000000000E+00 -0.12929330453E+02  0.12929330453E+02  0.00000000000E+00 0. -1.
         25    1    1    2    0    0  0.00000000000E+00  0.00000000000E+00  0.28919381616E+03  0.31505247707E+03  0.12500000000E+03 0.  0.
<mgrwt>
<rscale>  0 0.12500000E+03</rscale>
<asrwt>0</asrwt>
<pdfrwt beam="1">  1       21 0.46480479E-01 0.12500000E+03</pdfrwt>
<pdfrwt beam="2">  1       21 0.19891280E-02 0.12500000E+03</pdfrwt>
<totfact> 0.54227754E+06</totfact>
</mgrwt>
</event>
<event>
 3    1  0.1597250E-001  0.1250000E+03  0.7546771E-02  0.1235069E+00
         21   -1    0    0  502  501  0.00000000000E+00  0.00000000000E+00  0.10725831572E+03  0.10725831572E+03  0.00000000000E+00 0.  1.
         21   -1    0    0  501  502 -0.00000000000E+00 -0.00000000000E+00 -0.36419087637E+02  0.36419087637E+02  0.00000000000E+00 0.  1.
         25    1    1    2    0    0  0.00000000000E+00  0.00000000000E+00  0.70839228082E+02  0.14367740336E+03  0.12500000000E+03 0.  0.
<mgrwt>
<rscale>  0 0.12500000E+03</rscale>
<asrwt>0</asrwt>
<pdfrwt beam="1">  1       21 0.16501279E-01 0.12500000E+03</pdfrwt>
<pdfrwt beam="2">  1       21 0.56029366E-02 0.12500000E+03</pdfrwt>
<totfact> 0.71562791E+06</totfact>
</mgrwt>
</event>
<event>
 3    1  0.1597250E-001  0.1250000E+03  0.7546771E-02  0.1235069E+00
         21   -1    0    0  502  501  0.00000000000E+00  0.00000000000E+00  0.21052909679E+02  0.21052909679E+02  0.00000000000E+00 0.  1.
         21   -1    0    0  501  502 -0.00000000000E+00 -0.00000000000E+00 -0.18554442401E+03  0.18554442401E+03  0.00000000000E+00 0.  1.
         25    1    1    2    0    0  0.00000000000E+00  0.00000000000E+00 -0.16449151433E+03  0.20659733368E+03  0.12500000000E+03 0.  0.
<mgrwt>
<rscale>  0 0.12500000E+03</rscale>
<asrwt>0</asrwt>
<pdfrwt beam="1">  1       21 0.32389093E-02 0.12500000E+03</pdfrwt>
<pdfrwt beam="2">  1       21 0.28545295E-01 0.12500000E+03</pdfrwt>
<totfact> 0.64219323E+06</totfact>
</mgrwt>
</event>
<event>
 3    1  0.1597250E-001  0.1250000E+03  0.7546771E-02  0.1235069E+00
         21   -1    0    0  502  501  0.00000000000E+00  0.00000000000E+00  0.69682854699E+01  0.69682854699E+01  0.00000000000E+00 0. -1.
         21   -1    0    0  501  502 -0.00000000000E+00 -0.00000000000E+00 -0.56057548401E+03  0.56057548401E+03  0.00000000000E+00 0. -1.
         25    1    1    2    0    0  0.00000000000E+00  0.00000000000E+00 -0.55360719854E+03  0.56754376947E+03  0.12500000000E+03 0.  0.
<mgrwt>
<rscale>  0 0.12500000E+03</rscale>
<asrwt>0</asrwt>
<pdfrwt beam="1">  1       21 0.10720439E-02 0.12500000E+03</pdfrwt>
<pdfrwt beam="2">  1       21 0.86242387E-01 0.12500000E+03</pdfrwt>
<totfact> 0.38602800E+06</totfact>
</mgrwt>
</event>
<event>
 3    1  0.1597250E-001  0.1250000E+03  0.7546771E-02  0.1235069E+00
         21   -1    0    0  502  501  0.00000000000E+00  0.00000000000E+00  0.70946646304E+02  0.70946646304E+02  0.00000000000E+00 0. -1.
         21   -1    0    0  501  502 -0.00000000000E+00 -0.00000000000E+00 -0.55058980283E+02  0.55058980283E+02  0.00000000000E+00 0. -1.
         25    1    1    2    0    0  0.00000000000E+00  0.00000000000E+00  0.15887666021E+02  0.12600562659E+03  0.12500000000E+03 0.  0.
<mgrwt>
<rscale>  0 0.12500000E+03</rscale>
<asrwt>0</asrwt>
<pdfrwt beam="1">  1       21 0.10914869E-01 0.12500000E+03</pdfrwt>
<pdfrwt beam="2">  1       21 0.84706124E-02 0.12500000E+03</pdfrwt>
<totfact> 0.73905263E+06</totfact>
</mgrwt>
</event>
<event>
 3    1  0.1597250E-001  0.1250000E+03  0.7546771E-02  0.1235069E+00
         21   -1    0    0  502  501  0.00000000000E+00  0.00000000000E+00  0.51438708358E+02  0.51438708358E+02  0.00000000000E+00 0. -1.
         21   -1    0    0  501  502 -0.00000000000E+00 -0.00000000000E+00 -0.75939892829E+02  0.75939892829E+02  0.00000000000E+00 0. -1.
         25    1    1    2    0    0  0.00000000000E+00  0.00000000000E+00 -0.24501184471E+02  0.12737860119E+03  0.12500000000E+03 0.  0.
<mgrwt>
<rscale>  0 0.12500000E+03</rscale>
<asrwt>0</asrwt>
<pdfrwt beam="1">  1       21 0.79136475E-02 0.12500000E+03</pdfrwt>
<pdfrwt beam="2">  1       21 0.11683060E-01 0.12500000E+03</pdfrwt>
<totfact> 0.73717683E+06</totfact>
</mgrwt>
</event>
<event>
 3    1  0.1597250E-001  0.1250000E+03  0.7546771E-02  0.1235069E+00
         21   -1    0    0  502  501  0.00000000000E+00  0.00000000000E+00  0.55680739746E+02  0.55680739746E+02  0.00000000000E+00 0.  1.
         21   -1    0    0  501  502 -0.00000000000E+00 -0.00000000000E+00 -0.70154419963E+02  0.70154419963E+02  0.00000000000E+00 0.  1.
         25    1    1    2    0    0  0.00000000000E+00  0.00000000000E+00 -0.14473680218E+02  0.12583515971E+03  0.12500000000E+03 0.  0.
<mgrwt>
<rscale>  0 0.12500000E+03</rscale>
<asrwt>0</asrwt>
<pdfrwt beam="1">  1       21 0.85662676E-02 0.12500000E+03</pdfrwt>
<pdfrwt beam="2">  1       21 0.10792988E-01 0.12500000E+03</pdfrwt>
<totfact> 0.73928805E+06</totfact>
</mgrwt>
</event>
<event>
 3    1  0.1597250E-001  0.1250000E+03  0.7546771E-02  0.1235069E+00
         21   -1    0    0  502  501  0.00000000000E+00  0.00000000000E+00  0.57110447147E+03  0.57110447147E+03  0.00000000000E+00 0. -1.
         21   -1    0    0  501  502 -0.00000000000E+00 -0.00000000000E+00 -0.68398168727E+01  0.68398168727E+01  0.00000000000E+00 0. -1.
         25    1    1    2    0    0  0.00000000000E+00  0.00000000000E+00  0.56426465460E+03  0.57794428834E+03  0.12500000000E+03 0.  0.
<mgrwt>
<rscale>  0 0.12500000E+03</rscale>
<asrwt>0</asrwt>
<pdfrwt beam="1">  1       21 0.87862189E-01 0.12500000E+03</pdfrwt>
<pdfrwt beam="2">  1       21 0.10522800E-02 0.12500000E+03</pdfrwt>
<totfact> 0.38109465E+06</totfact>
</mgrwt>
</event>
<event>
 3    1  0.1597250E-001  0.1250000E+03  0.7546771E-02  0.1235069E+00
         21   -1    0    0  502  501  0.00000000000E+00  0.00000000000E+00  0.66608955367E+03  0.66608955367E+03  0.00000000000E+00 0.  1.
         21   -1    0    0  501  502 -0.00000000000E+00 -0.00000000000E+00 -0.58644516770E+01  0.58644516770E+01  0.00000000000E+00 0.  1.
         25    1    1    2    0    0  0.00000000000E+00  0.00000000000E+00  0.66022510199E+03  0.67195400534E+03  0.12500000000E+03 0.  0.
<mgrwt>
<rscale>  0 0.12500000E+03</rscale>
<asrwt>0</asrwt>
<pdfrwt beam="1">  1       21 0.10247526E+00 0.12500000E+03</pdfrwt>
<pdfrwt beam="2">  1       21 0.90222386E-03 0.12500000E+03</pdfrwt>
<totfact> 0.34019710E+06</totfact>
</mgrwt>
</event>
<event>
 3    1  0.1597250E-001  0.1250000E+03  0.7546771E-02  0.1235069E+00
         21   -1    0    0  502  501  0.00000000000E+00  0.00000000000E+00  0.28770677655E+01  0.28770677655E+01  0.00000000000E+00 0. -1.
         21   -1    0    0  501  502 -0.00000000000E+00 -0.00000000000E+00 -0.13577191496E+04  0.13577191496E+04  0.00000000000E+00 0. -1.
         25    1    1    2    0    0  0.00000000000E+00  0.00000000000E+00 -0.13548420819E+04  0.13605962174E+04  0.12500000000E+03 0.  0.
<mgrwt>
<rscale>  0 0.12500000E+03</rscale>
<asrwt>0</asrwt>
<pdfrwt beam="1">  1       21 0.44262430E-03 0.12500000E+03</pdfrwt>
<pdfrwt beam="2">  1       21 0.20888058E+00 0.12500000E+03</pdfrwt>
<totfact> 0.16198120E+06</totfact>
</mgrwt>
</event>
<event>
 3    1  0.1597250E-001  0.1250000E+03  0.7546771E-02  0.1235069E+00
         21   -1    0    0  502  501  0.00000000000E+00  0.00000000000E+00  0.96342490227E+02  0.96342490227E+02  0.00000000000E+00 0.  1.
         21   -1    0    0  501  502 -0.00000000000E+00 -0.00000000000E+00 -0.40545453940E+02  0.40545453940E+02  0.00000000000E+00 0.  1.
         25    1    1    2    0    0  0.00000000000E+00  0.00000000000E+00  0.55797036287E+02  0.13688794417E+03  0.12500000000E+03 0.  0.
<mgrwt>
<rscale>  0 0.12500000E+03</rscale>
<asrwt>0</asrwt>
<pdfrwt beam="1">  1       21 0.14821921E-01 0.12500000E+03</pdfrwt>
<pdfrwt beam="2">  1       21 0.62377622E-02 0.12500000E+03</pdfrwt>
<totfact> 0.72447449E+06</totfact>
</mgrwt>
</event>
<event>
 3    1  0.1597250E-001  0.1250000E+03  0.7546771E-02  0.1235069E+00
         21   -1    0    0  502  501  0.00000000000E+00  0.00000000000E+00  0.29909028095E+03  0.29909028095E+03  0.00000000000E+00 0. -1.
         21   -1    0    0  501  502 -0.00000000000E+00 -0.00000000000E+00 -0.13060437764E+02  0.13060437764E+02  0.00000000000E+00 0. -1.
         25    1    1    2    0    0  0.00000000000E+00  0.00000000000E+00  0.28602984318E+03  0.31215071871E+03  0.12500000000E+03 0.  0.
<mgrwt>
<rscale>  0 0.12500000E+03</rscale>
<asrwt>0</asrwt>
<pdfrwt beam="1">  1       21 0.46013884E-01 0.12500000E+03</pdfrwt>
<pdfrwt beam="2">  1       21 0.20092983E-02 0.12500000E+03</pdfrwt>
<totfact> 0.54461280E+06</totfact>
</mgrwt>
</event>
<event>
 3    1  0.1597250E-001  0.1250000E+03  0.7546771E-02  0.1235069E+00
         21   -1    0    0  502  501  0.00000000000E+00  0.00000000000E+00  0.10349377199E+03  0.10349377199E+03  0.00000000000E+00 0.  1.
         21   -1    0    0  501  502 -0.00000000000E+00 -0.00000000000E+00 -0.37743817090E+02  0.37743817090E+02  0.00000000000E+00 0.  1.
         25    1    1    2    0    0  0.00000000000E+00  0.00000000000E+00  0.65749954900E+02  0.14123758908E+03  0.12500000000E+03 0.  0.
<mgrwt>
<rscale>  0 0.12500000E+03</rscale>
<asrwt>0</asrwt>
<pdfrwt beam="1">  1       21 0.15922119E-01 0.12500000E+03</pdfrwt>
<pdfrwt beam="2">  1       21 0.58067411E-02 0.12500000E+03</pdfrwt>
<totfact> 0.71878153E+06</totfact>
</mgrwt>
</event>
<event>
 3    1  0.1597250E-001  0.1250000E+03  0.7546771E-02  0.1235069E+00
         21   -1    0    0  502  501  0.00000000000E+00  0.00000000000E+00  0.51644462178E+01  0.51644462178E+01  0.00000000000E+00 0.  1.
         21   -1    0    0  501  502 -0.00000000000E+00 -0.00000000000E+00 -0.75637344940E+03  0.75637344940E+03  0.00000000000E+00 0.  1.
         25    1    1    2    0    0  0.00000000000E+00  0.00000000000E+00 -0.75120900318E+03  0.76153789562E+03  0.12500000000E+03 0.  0.
<mgrwt>
<rscale>  0 0.12500000E+03</rscale>
<asrwt>0</asrwt>
<pdfrwt beam="1">  1       21 0.79453004E-03 0.12500000E+03</pdfrwt>
<pdfrwt beam="2">  1       21 0.11636517E+00 0.12500000E+03</pdfrwt>
<totfact> 0.30667148E+06</totfact>
</mgrwt>
</event>
<event>
 3    1  0.1597250E-001  0.1250000E+03  0.7546771E-02  0.1235069E+00
         21   -1    0    0  502  501  0.00000000000E+00  0.00000000000E+00  0.14194661172E+03  0.14194661172E+03  0.00000000000E+00 0.  1.
         21   -1    0    0  501  502 -0.00000000000E+00 -0.00000000000E+00 -0.27519149296E+02  0.27519149296E+02  0.00000000000E+00 0.  1.
         25    1    1    2    0    0  0.00000000000E+00  0.00000000000E+00  0.11442746243E+03  0.16946576102E+03  0.12500000000E+03 0.  0.
<mgrwt>
<rscale>  0 0.12500000E+03</rscale>
<asrwt>0</asrwt>
<pdfrwt beam="1">  1       21 0.21837940E-01 0.12500000E+03</pdfrwt>
<pdfrwt beam="2">  1       21 0.42337153E-02 0.12500000E+03</pdfrwt>
<totfact> 0.68380980E+06</totfact>
</mgrwt>
</event>
<event>
 3    1  0.1597250E-001  0.1250000E+03  0.7546771E-02  0.1235069E+00
         21   -1    0    0  502  501  0.00000000000E+00  0.00000000000E+00  0.18263227854E+04  0.18263227854E+04  0.00000000000E+00 0. -1.
         21   -1    0    0  501  502 -0.00000000000E+00 -0.00000000000E+00 -0.21388606829E+01  0.21388606829E+01  0.00000000000E+00 0. -1.
         25    1    1    2    0    0  0.00000000000E+00  0.00000000000E+00  0.18241839247E+04  0.18284616461E+04  0.12500000000E+03 0.  0.
<mgrwt>
<rscale>  0 0.12500000E+03</rscale>
<asrwt>0</asrwt>
<pdfrwt beam="1">  1       21 0.28097149E+00 0.12500000E+03</pdfrwt>
<pdfrwt beam="2">  1       21 0.32905695E-03 0.12500000E+03</pdfrwt>
<totfact> 0.97463649E+05</totfact>
</mgrwt>
</event>
<event>
 3    1  0.1597250E-001  0.1250000E+03  0.7546771E-02  0.1235069E+00
         21   -1    0    0  502  501  0.00000000000E+00  0.00000000000E+00  0.43246401732E+03  0.43246401732E+03  0.00000000000E+00 0. -1.
         21   -1    0    0  501  502 -0.00000000000E+00 -0.00000000000E+00 -0.90325433876E+01  0.90325433876E+01  0.00000000000E+00 0. -1.
         25    1    1    2    0    0  0.00000000000E+00  0.00000000000E+00  0.42343147393E+03  0.44149656071E+03  0.12500000000E+03 0.  0.
<mgrwt>
<rscale>  0 0.12500000E+03</rscale>
<asrwt>0</asrwt>
<pdfrwt beam="1">  1       21 0.66532910E-01 0.12500000E+03</pdfrwt>
<pdfrwt beam="2">  1       21 0.13896224E-02 0.12500000E+03</pdfrwt>
<totfact> 0.45405447E+06</totfact>
</mgrwt>
</event>
<event>
 3    1  0.1597250E-001  0.1250000E+03  0.7546771E-02  0.1235069E+00
         21   -1    0    0  502  501  0.00000000000E+00  0.00000000000E+00  0.40564391553E+01  0.40564391553E+01  0.00000000000E+00 0. -1.
         21   -1    0    0  501  502 -0.00000000000E+00 -0.00000000000E+00 -0.96297512436E+03  0.96297512436E+03  0.00000000000E+00 0. -1.
         25    1    1    2    0    0  0.00000000000E+00  0.00000000000E+00 -0.95891868520E+03  0.96703156351E+03  0.12500000000E+03 0.  0.
<mgrwt>
<rscale>  0 0.12500000E+03</rscale>
<asrwt>0</asrwt>
<pdfrwt beam="1">  1       21 0.62406834E-03 0.12500000E+03</pdfrwt>
<pdfrwt beam="2">  1       21 0.14814984E+00 0.12500000E+03</pdfrwt>
<totfact> 0.24460917E+06</totfact>
</mgrwt>
</event>
<event>
 3    1  0.1597250E-001  0.1250000E+03  0.7546771E-02  0.1235069E+00
         21   -1    0    0  502  501  0.00000000000E+00  0.00000000000E+00  0.14232687955E+04  0.14232687955E+04  0.00000000000E+00 0. -1.
         21   -1    0    0  501  502 -0.00000000000E+00 -0.00000000000E+00 -0.27445623850E+01  0.27445623850E+01  0.00000000000E+00 0. -1.
         25    1    1    2    0    0  0.00000000000E+00  0.00000000000E+00  0.14205242331E+04  0.14260133579E+04  0.12500000000E+03 0.  0.
<mgrwt>
<rscale>  0 0.12500000E+03</rscale>
<asrwt>0</asrwt>
<pdfrwt beam="1">  1       21 0.21896384E+00 0.12500000E+03</pdfrwt>
<pdfrwt beam="2">  1       21 0.42224150E-03 0.12500000E+03</pdfrwt>
<totfact> 0.15126842E+06</totfact>
</mgrwt>
</event>
<event>
 3    1  0.1597250E-001  0.1250000E+03  0.7546771E-02  0.1235069E+00
         21   -1    0    0  502  501  0.00000000000E+00  0.00000000000E+00  0.28600486846E+03  0.28600486846E+03  0.00000000000E+00 0.  1.
         21   -1    0    0  501  502 -0.00000000000E+00 -0.00000000000E+00 -0.13657984289E+02  0.13657984289E+02  0.00000000000E+00 0.  1.
         25    1    1    2    0    0  0.00000000000E+00  0.00000000000E+00  0.27234688417E+03  0.29966285275E+03  0.12500000000E+03 0.  0.
<mgrwt>
<rscale>  0 0.12500000E+03</rscale>
<asrwt>0</asrwt>
<pdfrwt beam="1">  1       21 0.44000745E-01 0.12500000E+03</pdfrwt>
<pdfrwt beam="2">  1       21 0.21012286E-02 0.12500000E+03</pdfrwt>
<totfact> 0.55484205E+06</totfact>
</mgrwt>
</event>
<event>
 3    1  0.1597250E-001  0.1250000E+03  0.7546771E-02  0.1235069E+00
         21   -1    0    0  502  501  0.00000000000E+00  0.00000000000E+00  0.21844676897E+01  0.21844676897E+01  0.00000000000E+00 0. -1.
         21   -1    0    0  501  502 -0.00000000000E+00 -0.00000000000E+00 -0.17881930771E+04  0.17881930771E+04  0.00000000000E+00 0. -1.
         25    1    1    2    0    0  0.00000000000E+00  0.00000000000E+00 -0.17860086095E+04  0.17903775448E+04  0.12500000000E+03 0.  0.
<mgrwt>
<rscale>  0 0.12500000E+03</rscale>
<asrwt>0</asrwt>
<pdfrwt beam="1">  1       21 0.33607096E-03 0.12500000E+03</pdfrwt>
<pdfrwt beam="2">  1       21 0.27510744E+00 0.12500000E+03</pdfrwt>
<totfact> 0.10181021E+06</totfact>
</mgrwt>
</event>
<event>
 3    1  0.1597250E-001  0.1250000E+03  0.7546771E-02  0.1235069E+00
         21   -1    0    0  502  501  0.00000000000E+00  0.00000000000E+00  0.50850579708E+02  0.50850579708E+02  0.00000000000E+00 0. -1.
         21   -1    0    0  501  502 -0.00000000000E+00 -0.00000000000E+00 -0.76818199958E+02  0.76818199958E+02  0.00000000000E+00 0. -1.
         25    1    1    2    0    0  0.00000000000E+00  0.00000000000E+00 -0.25967620250E+02  0.12766877967E+03  0.12500000000E+03 0.  0.
<mgrwt>
<rscale>  0 0.12500000E+03</rscale>
<asrwt>0</asrwt>
<pdfrwt beam="1">  1       21 0.78231662E-02 0.12500000E+03</pdfrwt>
<pdfrwt beam="2">  1       21 0.11818185E-01 0.12500000E+03</pdfrwt>
<totfact> 0.73678352E+06</totfact>
</mgrwt>
</event>
<event>
 3    1  0.1597250E-001  0.1250000E+03  0.7546771E-02  0.1235069E+00
         21   -1    0    0  502  501  0.00000000000E+00  0.00000000000E+00  0.74739998507E+01  0.74739998507E+01  0.00000000000E+00 0.  1.
         21   -1    0    0  501  502 -0.00000000000E+00 -0.00000000000E+00 -0.52264518036E+03  0.52264518036E+03  0.00000000000E+00 0.  1.
         25    1    1    2    0    0  0.00000000000E+00  0.00000000000E+00 -0.51517118051E+03  0.53011918021E+03  0.12500000000E+03 0.  0.
<mgrwt>
<rscale>  0 0.12500000E+03</rscale>
<asrwt>0</asrwt>
<pdfrwt beam="1">  1       21 0.11498456E-02 0.12500000E+03</pdfrwt>
<pdfrwt beam="2">  1       21 0.80406987E-01 0.12500000E+03</pdfrwt>
<totfact> 0.40456358E+06</totfact>
</mgrwt>
</event>
