<event>
 4    1  0.2318373E-002  0.4103154E+03  0.7818608E-02  0.1040265E+00
         -2   -1    0    0    0  501 -0.00000000000E+00  0.00000000000E+00  0.16015281510E+03  0.16015281510E+03  0.00000000000E+00 0. -1.
          2   -1    0    0  502    0  0.00000000000E+00 -0.00000000000E+00 -0.11946066626E+04  0.11946066626E+04  0.00000000000E+00 0.  1.
    9000005    1    1    2  502    0 -0.40189028745E+02 -0.82118990351E+02 -0.28256252003E+03  0.49819701358E+03  0.40000000000E+03 0. -1.
   -9000005    1    1    2    0  501  0.40189028745E+02  0.82118990351E+02 -0.75189132742E+03  0.85656246408E+03  0.40000000000E+03 0.  1.
<mgrwt>
<rscale>  2 0.41031535E+03</rscale>
<asrwt>0</asrwt>
<pdfrwt beam="1">  1        2 0.18378564E+00 0.41031535E+03</pdfrwt>
<pdfrwt beam="2">  1       -2 0.24638895E-01 0.41031535E+03</pdfrwt>
<totfact> 0.29091226E+02</totfact>
</mgrwt>
</event>
<event>
 4    1  0.2318373E-002  0.5393441E+03  0.7818608E-02  0.1003991E+00
         -2   -1    0    0    0  501 -0.00000000000E+00  0.00000000000E+00  0.96014864981E+02  0.96014864981E+02  0.00000000000E+00 0.  1.
          2   -1    0    0  502    0  0.00000000000E+00 -0.00000000000E+00 -0.35866349596E+04  0.35866349596E+04  0.00000000000E+00 0. -1.
    9000005    1    1    2  502    0  0.30164199401E+03  0.19976019837E+03 -0.10196951949E+04  0.11535468434E+04  0.40000000000E+03 0.  1.
   -9000005    1    1    2    0  501 -0.30164199401E+03 -0.19976019837E+03 -0.24709248996E+04  0.25291029811E+04  0.40000000000E+03 0. -1.
<mgrwt>
<rscale>  2 0.53934407E+03</rscale>
<asrwt>0</asrwt>
<pdfrwt beam="1">  1        2 0.55178986E+00 0.53934407E+03</pdfrwt>
<pdfrwt beam="2">  1       -2 0.14771521E-01 0.53934407E+03</pdfrwt>
<totfact> 0.28598821E+01</totfact>
</mgrwt>
</event>
<event>
 4    1  0.2318373E-002  0.4444986E+03  0.7818608E-02  0.1029375E+00
         -2   -1    0    0    0  501 -0.00000000000E+00  0.00000000000E+00  0.12028599672E+03  0.12028599672E+03  0.00000000000E+00 0.  1.
          2   -1    0    0  502    0  0.00000000000E+00 -0.00000000000E+00 -0.16763205085E+04  0.16763205085E+04  0.00000000000E+00 0. -1.
    9000005    1    1    2  502    0 -0.13953082727E+01 -0.19384810433E+03 -0.65056769557E+03  0.78791964118E+03  0.40000000000E+03 0. -1.
   -9000005    1    1    2    0  501  0.13953082727E+01  0.19384810433E+03 -0.90546681619E+03  0.10086868640E+04  0.40000000000E+03 0. -1.
<mgrwt>
<rscale>  2 0.44449863E+03</rscale>
<asrwt>0</asrwt>
<pdfrwt beam="1">  1        2 0.25789545E+00 0.44449863E+03</pdfrwt>
<pdfrwt beam="2">  1       -2 0.18505539E-01 0.44449863E+03</pdfrwt>
<totfact> 0.25867647E+02</totfact>
</mgrwt>
</event>
<event>
 4    1  0.2318373E-002  0.5678797E+03  0.7818608E-02  0.9974381E-01
          2   -1    0    0  502    0  0.00000000000E+00  0.00000000000E+00  0.68855698407E+03  0.68855698407E+03  0.00000000000E+00 0. -1.
         -2   -1    0    0    0  501 -0.00000000000E+00 -0.00000000000E+00 -0.52101939683E+03  0.52101939683E+03  0.00000000000E+00 0.  1.
    9000005    1    1    2  502    0  0.37341752082E+03 -0.15181154112E+03 -0.10851611382E+03  0.57815494102E+03  0.40000000000E+03 0.  1.
   -9000005    1    1    2    0  501 -0.37341752082E+03  0.15181154112E+03  0.27605370107E+03  0.63142143988E+03  0.40000000000E+03 0. -1.
<mgrwt>
<rscale>  2 0.56787973E+03</rscale>
<asrwt>0</asrwt>
<pdfrwt beam="1">  1        2 0.10593184E+00 0.56787973E+03</pdfrwt>
<pdfrwt beam="2">  1       -2 0.80156831E-01 0.56787973E+03</pdfrwt>
<totfact> 0.59180841E+01</totfact>
</mgrwt>
</event>
<event>
 4    1  0.2318373E-002  0.1045593E+04  0.7818608E-02  0.9259906E-01
          1   -1    0    0  502    0  0.00000000000E+00  0.00000000000E+00  0.56642729102E+03  0.56642729102E+03  0.00000000000E+00 0.  1.
         -1   -1    0    0    0  501 -0.00000000000E+00 -0.00000000000E+00 -0.19418953378E+04  0.19418953378E+04  0.00000000000E+00 0. -1.
    9000005    1    1    2  502    0  0.84598372899E+03  0.46644963668E+03 -0.78546158243E+03  0.13077513643E+04  0.40000000000E+03 0. -1.
   -9000005    1    1    2    0  501 -0.84598372899E+03 -0.46644963668E+03 -0.59000646433E+03  0.12005712645E+04  0.40000000000E+03 0. -1.
<mgrwt>
<rscale>  2 0.10455925E+04</rscale>
<asrwt>0</asrwt>
<pdfrwt beam="1">  1        1 0.87142661E-01 0.10455925E+04</pdfrwt>
<pdfrwt beam="2">  1       -1 0.29875313E+00 0.10455925E+04</pdfrwt>
<totfact> 0.12616480E+00</totfact>
</mgrwt>
</event>
<event>
 4    1  0.2318373E-002  0.4151719E+03  0.7818608E-02  0.1038649E+00
         -1   -1    0    0    0  501 -0.00000000000E+00  0.00000000000E+00  0.13312005257E+03  0.13312005257E+03  0.00000000000E+00 0. -1.
          1   -1    0    0  502    0  0.00000000000E+00 -0.00000000000E+00 -0.12991853918E+04  0.12991853918E+04  0.00000000000E+00 0.  1.
    9000005    1    1    2  502    0 -0.10814064959E+03  0.25948586304E+02 -0.54156359855E+03  0.68239201380E+03  0.40000000000E+03 0. -1.
   -9000005    1    1    2    0  501  0.10814064959E+03 -0.25948586304E+02 -0.62450174066E+03  0.74991343054E+03  0.40000000000E+03 0.  1.
<mgrwt>
<rscale>  2 0.41517193E+03</rscale>
<asrwt>0</asrwt>
<pdfrwt beam="1">  1        1 0.19987467E+00 0.41517193E+03</pdfrwt>
<pdfrwt beam="2">  1       -1 0.20480009E-01 0.41517193E+03</pdfrwt>
<totfact> 0.18680370E+02</totfact>
</mgrwt>
</event>
<event>
 4    1  0.2318373E-002  0.4214236E+03  0.7818608E-02  0.1036604E+00
          1   -1    0    0  502    0  0.00000000000E+00  0.00000000000E+00  0.27018562974E+04  0.27018562974E+04  0.00000000000E+00 0.  1.
         -1   -1    0    0    0  501 -0.00000000000E+00 -0.00000000000E+00 -0.65763295489E+02  0.65763295489E+02  0.00000000000E+00 0. -1.
    9000005    1    1    2  502    0  0.13036014943E+03 -0.24577769583E+02  0.13483377446E+04  0.14126614984E+04  0.40000000000E+03 0. -1.
   -9000005    1    1    2    0  501 -0.13036014943E+03  0.24577769583E+02  0.12877552573E+04  0.13549580945E+04  0.40000000000E+03 0.  1.
<mgrwt>
<rscale>  2 0.42142358E+03</rscale>
<asrwt>0</asrwt>
<pdfrwt beam="1">  1        1 0.41567011E+00 0.42142358E+03</pdfrwt>
<pdfrwt beam="2">  1       -1 0.10117432E-01 0.42142358E+03</pdfrwt>
<totfact> 0.66905766E+01</totfact>
</mgrwt>
</event>
<event>
 4    1  0.2318373E-002  0.6180342E+03  0.7818608E-02  0.9868681E-01
         -2   -1    0    0    0  501 -0.00000000000E+00  0.00000000000E+00  0.19659904723E+03  0.19659904723E+03  0.00000000000E+00 0. -1.
          2   -1    0    0  502    0  0.00000000000E+00 -0.00000000000E+00 -0.20477550775E+04  0.20477550775E+04  0.00000000000E+00 0.  1.
    9000005    1    1    2  502    0  0.58487046802E+02 -0.46748854796E+03 -0.67160917733E+03  0.91270212237E+03  0.40000000000E+03 0. -1.
   -9000005    1    1    2    0  501 -0.58487046802E+02  0.46748854796E+03 -0.11795468529E+04  0.13316520024E+04  0.40000000000E+03 0.  1.
<mgrwt>
<rscale>  2 0.61803420E+03</rscale>
<asrwt>0</asrwt>
<pdfrwt beam="1">  1        2 0.31503924E+00 0.61803420E+03</pdfrwt>
<pdfrwt beam="2">  1       -2 0.30246008E-01 0.61803420E+03</pdfrwt>
<totfact> 0.66413080E+01</totfact>
</mgrwt>
</event>
<event>
 4    1  0.2318373E-002  0.5026292E+03  0.7818608E-02  0.1013095E+00
          2   -1    0    0  502    0  0.00000000000E+00  0.00000000000E+00  0.34574722073E+03  0.34574722073E+03  0.00000000000E+00 0.  1.
         -2   -1    0    0    0  501 -0.00000000000E+00 -0.00000000000E+00 -0.96647799695E+03  0.96647799695E+03  0.00000000000E+00 0. -1.
    9000005    1    1    2  502    0 -0.28218423524E+03  0.11405315777E+03 -0.63443465080E+03  0.80940928556E+03  0.40000000000E+03 0. -1.
   -9000005    1    1    2    0  501  0.28218423524E+03 -0.11405315777E+03  0.13703874580E+02  0.50281593212E+03  0.40000000000E+03 0.  1.
<mgrwt>
<rscale>  2 0.50262915E+03</rscale>
<asrwt>0</asrwt>
<pdfrwt beam="1">  1        2 0.53191881E-01 0.50262915E+03</pdfrwt>
<pdfrwt beam="2">  1       -2 0.14868892E+00 0.50262915E+03</pdfrwt>
<totfact> 0.29719771E+01</totfact>
</mgrwt>
</event>
<event>
 4    1  0.2318373E-002  0.4358941E+03  0.7818608E-02  0.1032014E+00
         -2   -1    0    0    0  501 -0.00000000000E+00  0.00000000000E+00  0.14564508617E+03  0.14564508617E+03  0.00000000000E+00 0.  1.
          2   -1    0    0  502    0  0.00000000000E+00 -0.00000000000E+00 -0.15384616617E+04  0.15384616617E+04  0.00000000000E+00 0. -1.
    9000005    1    1    2  502    0  0.14862259914E+03 -0.88966219997E+02 -0.36808089070E+03  0.57051486166E+03  0.40000000000E+03 0.  1.
   -9000005    1    1    2    0  501 -0.14862259914E+03  0.88966219997E+02 -0.10247356848E+04  0.11135918862E+04  0.40000000000E+03 0. -1.
<mgrwt>
<rscale>  2 0.43589410E+03</rscale>
<asrwt>0</asrwt>
<pdfrwt beam="1">  1        2 0.23668641E+00 0.43589410E+03</pdfrwt>
<pdfrwt beam="2">  1       -2 0.22406936E-01 0.43589410E+03</pdfrwt>
<totfact> 0.22047738E+02</totfact>
</mgrwt>
</event>
<event>
 4    1  0.2318373E-002  0.4011806E+03  0.7818608E-02  0.1043372E+00
         -1   -1    0    0    0  501 -0.00000000000E+00  0.00000000000E+00  0.10526305501E+03  0.10526305501E+03  0.00000000000E+00 0.  1.
          1   -1    0    0  502    0  0.00000000000E+00 -0.00000000000E+00 -0.15502248175E+04  0.15502248175E+04  0.00000000000E+00 0. -1.
    9000005    1    1    2  502    0  0.25196329546E+02 -0.17636670339E+02 -0.62559793312E+03  0.74318145906E+03  0.40000000000E+03 0.  1.
   -9000005    1    1    2    0  501 -0.25196329546E+02  0.17636670339E+02 -0.81936382939E+03  0.91230641348E+03  0.40000000000E+03 0.  1.
<mgrwt>
<rscale>  2 0.40118064E+03</rscale>
<asrwt>0</asrwt>
<pdfrwt beam="1">  1        1 0.23849611E+00 0.40118064E+03</pdfrwt>
<pdfrwt beam="2">  1       -1 0.16194317E-01 0.40118064E+03</pdfrwt>
<totfact> 0.18534709E+02</totfact>
</mgrwt>
</event>
<event>
 4    1  0.2318373E-002  0.4674068E+03  0.7818608E-02  0.1022655E+00
         -2   -1    0    0    0  501 -0.00000000000E+00  0.00000000000E+00  0.17172280953E+03  0.17172280953E+03  0.00000000000E+00 0.  1.
          2   -1    0    0  502    0  0.00000000000E+00 -0.00000000000E+00 -0.13568887904E+04  0.13568887904E+04  0.00000000000E+00 0. -1.
    9000005    1    1    2  502    0 -0.23106477139E+03  0.71261247442E+02 -0.78350596005E+03  0.91233255088E+03  0.40000000000E+03 0.  1.
   -9000005    1    1    2    0  501  0.23106477139E+03 -0.71261247442E+02 -0.40166002078E+03  0.61627904901E+03  0.40000000000E+03 0.  1.
<mgrwt>
<rscale>  2 0.46740678E+03</rscale>
<asrwt>0</asrwt>
<pdfrwt beam="1">  1        2 0.20875212E+00 0.46740678E+03</pdfrwt>
<pdfrwt beam="2">  1       -2 0.26418895E-01 0.46740678E+03</pdfrwt>
<totfact> 0.20625019E+02</totfact>
</mgrwt>
</event>
<event>
 4    1  0.2318373E-002  0.4238295E+03  0.7818608E-02  0.1035827E+00
         -2   -1    0    0    0  501 -0.00000000000E+00  0.00000000000E+00  0.12812316419E+03  0.12812316419E+03  0.00000000000E+00 0.  1.
          2   -1    0    0  502    0  0.00000000000E+00 -0.00000000000E+00 -0.35011026900E+04  0.35011026900E+04  0.00000000000E+00 0. -1.
    9000005    1    1    2  502    0 -0.12926055783E+03 -0.54066546993E+02 -0.28142561622E+03  0.50875520713E+03  0.40000000000E+03 0.  1.
   -9000005    1    1    2    0  501  0.12926055783E+03  0.54066546993E+02 -0.30915539096E+04  0.31204706471E+04  0.40000000000E+03 0. -1.
<mgrwt>
<rscale>  2 0.42382955E+03</rscale>
<asrwt>0</asrwt>
<pdfrwt beam="1">  1        2 0.53863122E+00 0.42382955E+03</pdfrwt>
<pdfrwt beam="2">  1       -2 0.19711255E-01 0.42382955E+03</pdfrwt>
<totfact> 0.20664761E+01</totfact>
</mgrwt>
</event>
<event>
 4    1  0.2318373E-002  0.5267099E+03  0.7818608E-02  0.1007033E+00
          2   -1    0    0  502    0  0.00000000000E+00  0.00000000000E+00  0.12032173797E+04  0.12032173797E+04  0.00000000000E+00 0. -1.
         -2   -1    0    0    0  501 -0.00000000000E+00 -0.00000000000E+00 -0.26792204192E+03  0.26792204192E+03  0.00000000000E+00 0.  1.
    9000005    1    1    2  502    0 -0.32410567600E+03 -0.11125997155E+03  0.19299162396E+03  0.56095368562E+03  0.40000000000E+03 0.  1.
   -9000005    1    1    2    0  501  0.32410567600E+03  0.11125997155E+03  0.74230371385E+03  0.91018573603E+03  0.40000000000E+03 0. -1.
<mgrwt>
<rscale>  2 0.52670985E+03</rscale>
<asrwt>0</asrwt>
<pdfrwt beam="1">  1        2 0.18511036E+00 0.52670985E+03</pdfrwt>
<pdfrwt beam="2">  1       -2 0.41218776E-01 0.52670985E+03</pdfrwt>
<totfact> 0.10895343E+02</totfact>
</mgrwt>
</event>
<event>
 4    1  0.2318373E-002  0.5902010E+03  0.7818608E-02  0.9925947E-01
         -2   -1    0    0    0  501 -0.00000000000E+00  0.00000000000E+00  0.23879486465E+03  0.23879486465E+03  0.00000000000E+00 0.  1.
          2   -1    0    0  502    0  0.00000000000E+00 -0.00000000000E+00 -0.14804857863E+04  0.14804857863E+04  0.00000000000E+00 0. -1.
    9000005    1    1    2  502    0  0.41379462761E+03  0.13080976896E+03 -0.51663678781E+03  0.78437921952E+03  0.40000000000E+03 0.  1.
   -9000005    1    1    2    0  501 -0.41379462761E+03 -0.13080976896E+03 -0.72505413385E+03  0.93490143144E+03  0.40000000000E+03 0.  1.
<mgrwt>
<rscale>  2 0.59020097E+03</rscale>
<asrwt>0</asrwt>
<pdfrwt beam="1">  1        2 0.22776704E+00 0.59020097E+03</pdfrwt>
<pdfrwt beam="2">  1       -2 0.36737672E-01 0.59020097E+03</pdfrwt>
<totfact> 0.94078496E+01</totfact>
</mgrwt>
</event>
<event>
 4    1  0.2318373E-002  0.5996900E+03  0.7818608E-02  0.9906049E-01
          4   -1    0    0  502    0  0.00000000000E+00  0.00000000000E+00  0.77779491448E+03  0.77779491448E+03  0.00000000000E+00 0. -1.
         -4   -1    0    0    0  501 -0.00000000000E+00 -0.00000000000E+00 -0.46316698052E+03  0.46316698052E+03  0.00000000000E+00 0.  1.
    9000005    1    1    2  502    0 -0.15847157724E+03 -0.41774977762E+03  0.13155641780E+03  0.61395049358E+03  0.40000000000E+03 0.  1.
   -9000005    1    1    2    0  501  0.15847157724E+03  0.41774977762E+03  0.18307151616E+03  0.62701140143E+03  0.40000000000E+03 0. -1.
<mgrwt>
<rscale>  2 0.59969002E+03</rscale>
<asrwt>0</asrwt>
<pdfrwt beam="1">  1        4 0.11966076E+00 0.59969002E+03</pdfrwt>
<pdfrwt beam="2">  1       -4 0.71256459E-01 0.59969002E+03</pdfrwt>
<totfact> 0.18787923E+00</totfact>
</mgrwt>
</event>
<event>
 4    1  0.2318373E-002  0.4080375E+03  0.7818608E-02  0.1041032E+00
          1   -1    0    0  502    0  0.00000000000E+00  0.00000000000E+00  0.66354998607E+03  0.66354998607E+03  0.00000000000E+00 0. -1.
         -1   -1    0    0    0  501 -0.00000000000E+00 -0.00000000000E+00 -0.29426439333E+03  0.29426439333E+03  0.00000000000E+00 0.  1.
    9000005    1    1    2  502    0 -0.72817999237E+02 -0.34527842645E+02  0.83069459704E+00  0.40803838420E+03  0.40000000000E+03 0.  1.
   -9000005    1    1    2    0  501  0.72817999237E+02  0.34527842645E+02  0.36845489814E+03  0.54977599520E+03  0.40000000000E+03 0. -1.
<mgrwt>
<rscale>  2 0.40803754E+03</rscale>
<asrwt>0</asrwt>
<pdfrwt beam="1">  1        1 0.10208461E+00 0.40803754E+03</pdfrwt>
<pdfrwt beam="2">  1       -1 0.45271445E-01 0.40803754E+03</pdfrwt>
<totfact> 0.14938690E+02</totfact>
</mgrwt>
</event>
<event>
 4    1  0.2318373E-002  0.5316525E+03  0.7818608E-02  0.1005832E+00
          2   -1    0    0  502    0  0.00000000000E+00  0.00000000000E+00  0.34364340070E+04  0.34364340070E+04  0.00000000000E+00 0.  1.
         -2   -1    0    0    0  501 -0.00000000000E+00 -0.00000000000E+00 -0.85071493777E+02  0.85071493777E+02  0.00000000000E+00 0. -1.
    9000005    1    1    2  502    0 -0.20848451909E+03 -0.28140474178E+03  0.19962142860E+04  0.20657990946E+04  0.40000000000E+03 0.  1.
   -9000005    1    1    2    0  501  0.20848451909E+03  0.28140474178E+03  0.13551482272E+04  0.14557064062E+04  0.40000000000E+03 0.  1.
<mgrwt>
<rscale>  2 0.53165254E+03</rscale>
<asrwt>0</asrwt>
<pdfrwt beam="1">  1        2 0.52868205E+00 0.53165254E+03</pdfrwt>
<pdfrwt beam="2">  1       -2 0.13087925E-01 0.53165254E+03</pdfrwt>
<totfact> 0.44324534E+01</totfact>
</mgrwt>
</event>
<event>
 4    1  0.2318373E-002  0.6597623E+03  0.7818608E-02  0.9788631E-01
         -2   -1    0    0    0  501 -0.00000000000E+00  0.00000000000E+00  0.69477779818E+03  0.69477779818E+03  0.00000000000E+00 0. -1.
          2   -1    0    0  502    0  0.00000000000E+00 -0.00000000000E+00 -0.93313719389E+03  0.93313719389E+03  0.00000000000E+00 0.  1.
    9000005    1    1    2  502    0  0.21206137502E+03  0.47991271519E+03 -0.58576740144E+03  0.88227529126E+03  0.40000000000E+03 0.  1.
   -9000005    1    1    2    0  501 -0.21206137502E+03 -0.47991271519E+03  0.34740800573E+03  0.74563970081E+03  0.40000000000E+03 0. -1.
<mgrwt>
<rscale>  2 0.65976226E+03</rscale>
<asrwt>0</asrwt>
<pdfrwt beam="1">  1        2 0.14355957E+00 0.65976226E+03</pdfrwt>
<pdfrwt beam="2">  1       -2 0.10688889E+00 0.65976226E+03</pdfrwt>
<totfact> 0.20124694E+01</totfact>
</mgrwt>
</event>
<event>
 4    1  0.2318373E-002  0.4959682E+03  0.7818608E-02  0.1014837E+00
         -1   -1    0    0    0  501 -0.00000000000E+00  0.00000000000E+00  0.10659697477E+04  0.10659697477E+04  0.00000000000E+00 0. -1.
          1   -1    0    0  502    0  0.00000000000E+00 -0.00000000000E+00 -0.41242173280E+03  0.41242173280E+03  0.00000000000E+00 0.  1.
    9000005    1    1    2  502    0 -0.29210786424E+03  0.25640989755E+02 -0.16381630567E+03  0.52232197610E+03  0.40000000000E+03 0.  1.
   -9000005    1    1    2    0  501  0.29210786424E+03 -0.25640989755E+02  0.81736432057E+03  0.95606950440E+03  0.40000000000E+03 0. -1.
<mgrwt>
<rscale>  2 0.49596821E+03</rscale>
<asrwt>0</asrwt>
<pdfrwt beam="1">  1        1 0.63449498E-01 0.49596821E+03</pdfrwt>
<pdfrwt beam="2">  1       -1 0.16399534E+00 0.49596821E+03</pdfrwt>
<totfact> 0.16694563E+01</totfact>
</mgrwt>
</event>
<event>
 4    1  0.2318373E-002  0.4331651E+03  0.7818608E-02  0.1032865E+00
         -1   -1    0    0    0  501 -0.00000000000E+00  0.00000000000E+00  0.72876393157E+02  0.72876393157E+02  0.00000000000E+00 0. -1.
          1   -1    0    0  502    0  0.00000000000E+00 -0.00000000000E+00 -0.26122371490E+04  0.26122371490E+04  0.00000000000E+00 0.  1.
    9000005    1    1    2  502    0 -0.12850303973E+03  0.10544666236E+03 -0.11086600504E+04  0.11902769162E+04  0.40000000000E+03 0. -1.
   -9000005    1    1    2    0  501  0.12850303973E+03 -0.10544666236E+03 -0.14307007054E+04  0.14948366260E+04  0.40000000000E+03 0.  1.
<mgrwt>
<rscale>  2 0.43316513E+03</rscale>
<asrwt>0</asrwt>
<pdfrwt beam="1">  1        1 0.40188268E+00 0.43316513E+03</pdfrwt>
<pdfrwt beam="2">  1       -1 0.11211752E-01 0.43316513E+03</pdfrwt>
<totfact> 0.65372285E+01</totfact>
</mgrwt>
</event>
<event>
 4    1  0.2318373E-002  0.4492047E+03  0.7818608E-02  0.1027959E+00
          2   -1    0    0  502    0  0.00000000000E+00  0.00000000000E+00  0.35680141654E+03  0.35680141654E+03  0.00000000000E+00 0. -1.
         -2   -1    0    0    0  501 -0.00000000000E+00 -0.00000000000E+00 -0.66405254415E+03  0.66405254415E+03  0.00000000000E+00 0.  1.
    9000005    1    1    2  502    0  0.83130036653E+02  0.18674642156E+03  0.42973817579E+02  0.45125555726E+03  0.40000000000E+03 0. -1.
   -9000005    1    1    2    0  501 -0.83130036653E+02 -0.18674642156E+03 -0.35022494519E+03  0.56959840343E+03  0.40000000000E+03 0.  1.
<mgrwt>
<rscale>  2 0.44920466E+03</rscale>
<asrwt>0</asrwt>
<pdfrwt beam="1">  1        2 0.54892526E-01 0.44920466E+03</pdfrwt>
<pdfrwt beam="2">  1       -2 0.10216193E+00 0.44920466E+03</pdfrwt>
<totfact> 0.73189079E+01</totfact>
</mgrwt>
</event>
<event>
 4    1  0.2318373E-002  0.4556505E+03  0.7818608E-02  0.1026050E+00
          2   -1    0    0  502    0  0.00000000000E+00  0.00000000000E+00  0.46726100574E+03  0.46726100574E+03  0.00000000000E+00 0.  1.
         -2   -1    0    0    0  501 -0.00000000000E+00 -0.00000000000E+00 -0.51088887116E+03  0.51088887116E+03  0.00000000000E+00 0. -1.
    9000005    1    1    2  502    0  0.97676162338E+00 -0.21821197376E+03 -0.19834444908E+03  0.49694862917E+03  0.40000000000E+03 0.  1.
   -9000005    1    1    2    0  501 -0.97676162338E+00  0.21821197376E+03  0.15471658366E+03  0.48120124772E+03  0.40000000000E+03 0.  1.
<mgrwt>
<rscale>  2 0.45565055E+03</rscale>
<asrwt>0</asrwt>
<pdfrwt beam="1">  1        2 0.71886308E-01 0.45565055E+03</pdfrwt>
<pdfrwt beam="2">  1       -2 0.78598288E-01 0.45565055E+03</pdfrwt>
<totfact> 0.98717824E+01</totfact>
</mgrwt>
</event>
<event>
 4    1  0.2318373E-002  0.4616515E+03  0.7818608E-02  0.1024303E+00
          2   -1    0    0  502    0  0.00000000000E+00  0.00000000000E+00  0.34645011707E+03  0.34645011707E+03  0.00000000000E+00 0.  1.
         -2   -1    0    0    0  501 -0.00000000000E+00 -0.00000000000E+00 -0.61954316611E+03  0.61954316611E+03  0.00000000000E+00 0. -1.
    9000005    1    1    2  502    0  0.81783610732E+02  0.21548449061E+03 -0.17717408861E+03  0.49448233776E+03  0.40000000000E+03 0.  1.
   -9000005    1    1    2    0  501 -0.81783610732E+02 -0.21548449061E+03 -0.95918960422E+02  0.47151094542E+03  0.40000000000E+03 0. -1.
<mgrwt>
<rscale>  2 0.46165152E+03</rscale>
<asrwt>0</asrwt>
<pdfrwt beam="1">  1        2 0.53300019E-01 0.46165152E+03</pdfrwt>
<pdfrwt beam="2">  1       -2 0.95314332E-01 0.46165152E+03</pdfrwt>
<totfact> 0.88862773E+01</totfact>
</mgrwt>
</event>
<event>
 4    1  0.2318373E-002  0.5256941E+03  0.7818608E-02  0.1007282E+00
          2   -1    0    0  502    0  0.00000000000E+00  0.00000000000E+00  0.18967663725E+03  0.18967663725E+03  0.00000000000E+00 0.  1.
         -2   -1    0    0    0  501 -0.00000000000E+00 -0.00000000000E+00 -0.15201126968E+04  0.15201126968E+04  0.00000000000E+00 0. -1.
    9000005    1    1    2  502    0  0.20188004688E+02  0.34050952751E+03 -0.83944520843E+03  0.99046582567E+03  0.40000000000E+03 0.  1.
   -9000005    1    1    2    0  501 -0.20188004688E+02 -0.34050952751E+03 -0.49099085116E+03  0.71932350843E+03  0.40000000000E+03 0.  1.
<mgrwt>
<rscale>  2 0.52569411E+03</rscale>
<asrwt>0</asrwt>
<pdfrwt beam="1">  1        2 0.29181021E-01 0.52569411E+03</pdfrwt>
<pdfrwt beam="2">  1       -2 0.23386349E+00 0.52569411E+03</pdfrwt>
<totfact> 0.15557419E+01</totfact>
</mgrwt>
</event>
<event>
 4    1  0.2318373E-002  0.5582717E+03  0.7818608E-02  0.9995973E-01
          1   -1    0    0  502    0  0.00000000000E+00  0.00000000000E+00  0.33047411263E+03  0.33047411263E+03  0.00000000000E+00 0.  1.
         -1   -1    0    0    0  501 -0.00000000000E+00 -0.00000000000E+00 -0.10010701856E+04  0.10010701856E+04  0.00000000000E+00 0. -1.
    9000005    1    1    2  502    0 -0.28143886494E+02 -0.38842664802E+03 -0.49552197372E+03  0.74646457765E+03  0.40000000000E+03 0. -1.
   -9000005    1    1    2    0  501  0.28143886494E+02  0.38842664802E+03 -0.17507409930E+03  0.58507972062E+03  0.40000000000E+03 0.  1.
<mgrwt>
<rscale>  2 0.55827174E+03</rscale>
<asrwt>0</asrwt>
<pdfrwt beam="1">  1        1 0.50842172E-01 0.55827174E+03</pdfrwt>
<pdfrwt beam="2">  1       -1 0.15401079E+00 0.55827174E+03</pdfrwt>
<totfact> 0.26240256E+01</totfact>
</mgrwt>
</event>
<event>
 4    1  0.2318373E-002  0.1190850E+04  0.7818608E-02  0.9120904E-01
          1   -1    0    0  502    0  0.00000000000E+00  0.00000000000E+00  0.81713794274E+03  0.81713794274E+03  0.00000000000E+00 0. -1.
         -1   -1    0    0    0  501 -0.00000000000E+00 -0.00000000000E+00 -0.17469767875E+04  0.17469767875E+04  0.00000000000E+00 0.  1.
    9000005    1    1    2  502    0  0.11103108907E+04 -0.15916207618E+03 -0.36089434982E+03  0.12443341883E+04  0.40000000000E+03 0. -1.
   -9000005    1    1    2    0  501 -0.11103108907E+04  0.15916207618E+03 -0.56894449497E+03  0.13197805419E+04  0.40000000000E+03 0.  1.
<mgrwt>
<rscale>  2 0.11908496E+04</rscale>
<asrwt>0</asrwt>
<pdfrwt beam="1">  1        1 0.12571353E+00 0.11908496E+04</pdfrwt>
<pdfrwt beam="2">  1       -1 0.26876566E+00 0.11908496E+04</pdfrwt>
<totfact> 0.11083891E+00</totfact>
</mgrwt>
</event>
<event>
 4    1  0.2318373E-002  0.5112329E+03  0.7818608E-02  0.1010888E+00
         -3   -1    0    0    0  501 -0.00000000000E+00  0.00000000000E+00  0.66386186741E+03  0.66386186741E+03  0.00000000000E+00 0.  1.
          3   -1    0    0  502    0  0.00000000000E+00 -0.00000000000E+00 -0.52078628814E+03  0.52078628814E+03  0.00000000000E+00 0. -1.
    9000005    1    1    2  502    0 -0.31705819698E+03  0.28865286321E+02 -0.22107108156E+03  0.55698431588E+03  0.40000000000E+03 0. -1.
   -9000005    1    1    2    0  501  0.31705819698E+03 -0.28865286321E+02  0.36414666084E+03  0.62766383967E+03  0.40000000000E+03 0.  1.
<mgrwt>
<rscale>  2 0.51123293E+03</rscale>
<asrwt>0</asrwt>
<pdfrwt beam="1">  1        3 0.80120967E-01 0.51123293E+03</pdfrwt>
<pdfrwt beam="2">  1       -3 0.10213260E+00 0.51123293E+03</pdfrwt>
<totfact> 0.31525575E+00</totfact>
</mgrwt>
</event>
<event>
 4    1  0.2318373E-002  0.4635912E+03  0.7818608E-02  0.1023745E+00
         -2   -1    0    0    0  501 -0.00000000000E+00  0.00000000000E+00  0.59397639815E+03  0.59397639815E+03  0.00000000000E+00 0. -1.
          2   -1    0    0  502    0  0.00000000000E+00 -0.00000000000E+00 -0.71824979336E+03  0.71824979336E+03  0.00000000000E+00 0.  1.
    9000005    1    1    2  502    0 -0.90626230072E+02  0.21611031253E+03  0.40005655538E+03  0.61234143111E+03  0.40000000000E+03 0.  1.
   -9000005    1    1    2    0  501  0.90626230072E+02 -0.21611031253E+03 -0.52432995058E+03  0.69988476040E+03  0.40000000000E+03 0.  1.
<mgrwt>
<rscale>  2 0.46359118E+03</rscale>
<asrwt>0</asrwt>
<pdfrwt beam="1">  1        2 0.11049997E+00 0.46359118E+03</pdfrwt>
<pdfrwt beam="2">  1       -2 0.91380984E-01 0.46359118E+03</pdfrwt>
<totfact> 0.42179755E+01</totfact>
</mgrwt>
</event>
<event>
 4    1  0.2318373E-002  0.4092742E+03  0.7818608E-02  0.1040615E+00
          2   -1    0    0  502    0  0.00000000000E+00  0.00000000000E+00  0.70124954208E+03  0.70124954208E+03  0.00000000000E+00 0.  1.
         -2   -1    0    0    0  501 -0.00000000000E+00 -0.00000000000E+00 -0.23914248904E+03  0.23914248904E+03  0.00000000000E+00 0. -1.
    9000005    1    1    2  502    0 -0.24996623778E+02 -0.82949119282E+02  0.24701187245E+03  0.47803791975E+03  0.40000000000E+03 0.  1.
   -9000005    1    1    2    0  501  0.24996623778E+02  0.82949119282E+02  0.21509518060E+03  0.46235411138E+03  0.40000000000E+03 0. -1.
<mgrwt>
<rscale>  2 0.40927422E+03</rscale>
<asrwt>0</asrwt>
<pdfrwt beam="1">  1        2 0.10788454E+00 0.40927422E+03</pdfrwt>
<pdfrwt beam="2">  1       -2 0.36791153E-01 0.40927422E+03</pdfrwt>
<totfact> 0.29177546E+02</totfact>
</mgrwt>
</event>
<event>
 4    1  0.2318373E-002  0.5119943E+03  0.7818608E-02  0.1010695E+00
         -2   -1    0    0    0  501 -0.00000000000E+00  0.00000000000E+00  0.13621038697E+03  0.13621038697E+03  0.00000000000E+00 0.  1.
          2   -1    0    0  502    0  0.00000000000E+00 -0.00000000000E+00 -0.19410684308E+04  0.19410684308E+04  0.00000000000E+00 0. -1.
    9000005    1    1    2  502    0 -0.40582940440E+02  0.31700341427E+03 -0.99836129967E+03  0.11219908308E+04  0.40000000000E+03 0. -1.
   -9000005    1    1    2    0  501  0.40582940440E+02 -0.31700341427E+03 -0.80649674411E+03  0.95528798693E+03  0.40000000000E+03 0.  1.
<mgrwt>
<rscale>  2 0.51199428E+03</rscale>
<asrwt>0</asrwt>
<pdfrwt beam="1">  1        2 0.29862593E+00 0.51199428E+03</pdfrwt>
<pdfrwt beam="2">  1       -2 0.20955443E-01 0.51199428E+03</pdfrwt>
<totfact> 0.14895516E+02</totfact>
</mgrwt>
</event>
<event>
 4    1  0.2318373E-002  0.4667818E+03  0.7818608E-02  0.1022832E+00
         -2   -1    0    0    0  501 -0.00000000000E+00  0.00000000000E+00  0.16185151630E+03  0.16185151630E+03  0.00000000000E+00 0. -1.
          2   -1    0    0  502    0  0.00000000000E+00 -0.00000000000E+00 -0.13653813611E+04  0.13653813611E+04  0.00000000000E+00 0.  1.
    9000005    1    1    2  502    0  0.13415787700E+03 -0.19971699531E+03 -0.69226288910E+03  0.83493300438E+03  0.40000000000E+03 0. -1.
   -9000005    1    1    2    0  501 -0.13415787700E+03  0.19971699531E+03 -0.51126695566E+03  0.69229987298E+03  0.40000000000E+03 0. -1.
<mgrwt>
<rscale>  2 0.46678176E+03</rscale>
<asrwt>0</asrwt>
<pdfrwt beam="1">  1        2 0.21005867E+00 0.46678176E+03</pdfrwt>
<pdfrwt beam="2">  1       -2 0.24900233E-01 0.46678176E+03</pdfrwt>
<totfact> 0.22691174E+02</totfact>
</mgrwt>
</event>
<event>
 4    1  0.2318373E-002  0.8593257E+03  0.7818608E-02  0.9477905E-01
          2   -1    0    0  502    0  0.00000000000E+00  0.00000000000E+00  0.10979927421E+04  0.10979927421E+04  0.00000000000E+00 0.  1.
         -2   -1    0    0    0  501 -0.00000000000E+00 -0.00000000000E+00 -0.68481476521E+03  0.68481476521E+03  0.00000000000E+00 0. -1.
    9000005    1    1    2  502    0 -0.50416056867E+03 -0.56944081078E+03  0.87231952079E+02  0.86374193452E+03  0.40000000000E+03 0. -1.
   -9000005    1    1    2    0  501  0.50416056867E+03  0.56944081078E+03  0.32594602482E+03  0.91906557279E+03  0.40000000000E+03 0.  1.
<mgrwt>
<rscale>  2 0.85932573E+03</rscale>
<asrwt>0</asrwt>
<pdfrwt beam="1">  1        2 0.16892196E+00 0.85932573E+03</pdfrwt>
<pdfrwt beam="2">  1       -2 0.10535612E+00 0.85932573E+03</pdfrwt>
<totfact> 0.16030914E+01</totfact>
</mgrwt>
</event>
<event>
 4    1  0.2318373E-002  0.4544396E+03  0.7818608E-02  0.1026406E+00
          1   -1    0    0  502    0  0.00000000000E+00  0.00000000000E+00  0.11218242443E+04  0.11218242443E+04  0.00000000000E+00 0. -1.
         -1   -1    0    0    0  501 -0.00000000000E+00 -0.00000000000E+00 -0.23832284030E+03  0.23832284030E+03  0.00000000000E+00 0.  1.
    9000005    1    1    2  502    0  0.18007223206E+03  0.11869843026E+03  0.76617162659E+03  0.89080541506E+03  0.40000000000E+03 0. -1.
   -9000005    1    1    2    0  501 -0.18007223206E+03 -0.11869843026E+03  0.11732977741E+03  0.46934166955E+03  0.40000000000E+03 0.  1.
<mgrwt>
<rscale>  2 0.45443957E+03</rscale>
<asrwt>0</asrwt>
<pdfrwt beam="1">  1        1 0.17258834E+00 0.45443957E+03</pdfrwt>
<pdfrwt beam="2">  1       -1 0.36665053E-01 0.45443957E+03</pdfrwt>
<totfact> 0.91863891E+01</totfact>
</mgrwt>
</event>
<event>
 4    1  0.2318373E-002  0.4406035E+03  0.7818608E-02  0.1030562E+00
          2   -1    0    0  502    0  0.00000000000E+00  0.00000000000E+00  0.42850697330E+04  0.42850697330E+04  0.00000000000E+00 0. -1.
         -2   -1    0    0    0  501 -0.00000000000E+00 -0.00000000000E+00 -0.46813100952E+02  0.46813100952E+02  0.00000000000E+00 0.  1.
    9000005    1    1    2  502    0  0.14868457875E+03 -0.10965571898E+03  0.17302629523E+04  0.17854807097E+04  0.40000000000E+03 0.  1.
   -9000005    1    1    2    0  501 -0.14868457875E+03  0.10965571898E+03  0.25079936798E+04  0.25464021243E+04  0.40000000000E+03 0. -1.
<mgrwt>
<rscale>  2 0.44060354E+03</rscale>
<asrwt>0</asrwt>
<pdfrwt beam="1">  1        2 0.65924119E+00 0.44060354E+03</pdfrwt>
<pdfrwt beam="2">  1       -2 0.72020189E-02 0.44060354E+03</pdfrwt>
<totfact> 0.27427630E+01</totfact>
</mgrwt>
</event>
<event>
 4    1  0.2318373E-002  0.5868746E+03  0.7818608E-02  0.9933018E-01
         -1   -1    0    0    0  501 -0.00000000000E+00  0.00000000000E+00  0.28641425194E+03  0.28641425194E+03  0.00000000000E+00 0. -1.
          1   -1    0    0  502    0  0.00000000000E+00 -0.00000000000E+00 -0.14465824104E+04  0.14465824104E+04  0.00000000000E+00 0.  1.
    9000005    1    1    2  502    0  0.39471088383E+03 -0.16918952437E+03 -0.93599191246E+03  0.11047636114E+04  0.40000000000E+03 0.  1.
   -9000005    1    1    2    0  501 -0.39471088383E+03  0.16918952437E+03 -0.22417624600E+03  0.62823305090E+03  0.40000000000E+03 0. -1.
<mgrwt>
<rscale>  2 0.58687458E+03</rscale>
<asrwt>0</asrwt>
<pdfrwt beam="1">  1        1 0.22255114E+00 0.58687458E+03</pdfrwt>
<pdfrwt beam="2">  1       -1 0.44063732E-01 0.58687458E+03</pdfrwt>
<totfact> 0.38181854E+01</totfact>
</mgrwt>
</event>
<event>
 4    1  0.2318373E-002  0.4763986E+03  0.7818608E-02  0.1020130E+00
          2   -1    0    0  502    0  0.00000000000E+00  0.00000000000E+00  0.11435163567E+04  0.11435163567E+04  0.00000000000E+00 0. -1.
         -2   -1    0    0    0  501 -0.00000000000E+00 -0.00000000000E+00 -0.20195280908E+03  0.20195280908E+03  0.00000000000E+00 0.  1.
    9000005    1    1    2  502    0  0.25623080222E+03 -0.36074444035E+02  0.38245749141E+03  0.61092497269E+03  0.40000000000E+03 0.  1.
   -9000005    1    1    2    0  501 -0.25623080222E+03  0.36074444035E+02  0.55910605624E+03  0.73454419311E+03  0.40000000000E+03 0. -1.
<mgrwt>
<rscale>  2 0.47639856E+03</rscale>
<asrwt>0</asrwt>
<pdfrwt beam="1">  1        2 0.17592559E+00 0.47639856E+03</pdfrwt>
<pdfrwt beam="2">  1       -2 0.31069664E-01 0.47639856E+03</pdfrwt>
<totfact> 0.20319725E+02</totfact>
</mgrwt>
</event>
<event>
 4    1  0.2318373E-002  0.5403043E+03  0.7818608E-02  0.1003763E+00
         -1   -1    0    0    0  501 -0.00000000000E+00  0.00000000000E+00  0.28576951404E+03  0.28576951404E+03  0.00000000000E+00 0.  1.
          1   -1    0    0  502    0  0.00000000000E+00 -0.00000000000E+00 -0.10529520774E+04  0.10529520774E+04  0.00000000000E+00 0. -1.
    9000005    1    1    2  502    0 -0.42462922615E+02  0.36072930760E+03 -0.26800302424E+03  0.60312051380E+03  0.40000000000E+03 0.  1.
   -9000005    1    1    2    0  501  0.42462922615E+02 -0.36072930760E+03 -0.49917953912E+03  0.73560107765E+03  0.40000000000E+03 0. -1.
<mgrwt>
<rscale>  2 0.54030430E+03</rscale>
<asrwt>0</asrwt>
<pdfrwt beam="1">  1        1 0.16199262E+00 0.54030430E+03</pdfrwt>
<pdfrwt beam="2">  1       -1 0.43964541E-01 0.54030430E+03</pdfrwt>
<totfact> 0.73576049E+01</totfact>
</mgrwt>
</event>
<event>
 4    1  0.2318373E-002  0.9877770E+03  0.7818608E-02  0.9322053E-01
          2   -1    0    0  502    0  0.00000000000E+00  0.00000000000E+00  0.11312789735E+04  0.11312789735E+04  0.00000000000E+00 0. -1.
         -2   -1    0    0    0  501 -0.00000000000E+00 -0.00000000000E+00 -0.95108868311E+03  0.95108868311E+03  0.00000000000E+00 0.  1.
    9000005    1    1    2  502    0 -0.90193618950E+03 -0.47057641190E+02  0.40789944229E+03  0.10686838946E+04  0.40000000000E+03 0.  1.
   -9000005    1    1    2    0  501  0.90193618950E+03  0.47057641190E+02 -0.22770915191E+03  0.10136837620E+04  0.40000000000E+03 0. -1.
<mgrwt>
<rscale>  2 0.98777695E+03</rscale>
<asrwt>0</asrwt>
<pdfrwt beam="1">  1        2 0.17404292E+00 0.98777695E+03</pdfrwt>
<pdfrwt beam="2">  1       -2 0.14632134E+00 0.98777695E+03</pdfrwt>
<totfact> 0.66191200E+00</totfact>
</mgrwt>
</event>
<event>
 4    1  0.2318373E-002  0.4910104E+03  0.7818608E-02  0.1016152E+00
         -2   -1    0    0    0  501 -0.00000000000E+00  0.00000000000E+00  0.18721312797E+03  0.18721312797E+03  0.00000000000E+00 0. -1.
          2   -1    0    0  502    0  0.00000000000E+00 -0.00000000000E+00 -0.14619704579E+04  0.14619704579E+04  0.00000000000E+00 0.  1.
    9000005    1    1    2  502    0 -0.15442569873E+03 -0.23925702978E+03 -0.92200116731E+03  0.10445943592E+04  0.40000000000E+03 0.  1.
   -9000005    1    1    2    0  501  0.15442569873E+03  0.23925702978E+03 -0.35275616258E+03  0.60458922664E+03  0.40000000000E+03 0. -1.
<mgrwt>
<rscale>  2 0.49101041E+03</rscale>
<asrwt>0</asrwt>
<pdfrwt beam="1">  1        2 0.22491853E+00 0.49101041E+03</pdfrwt>
<pdfrwt beam="2">  1       -2 0.28802020E-01 0.49101041E+03</pdfrwt>
<totfact> 0.15368187E+02</totfact>
</mgrwt>
</event>
<event>
 4    1  0.2318373E-002  0.4990318E+03  0.7818608E-02  0.1014032E+00
         -1   -1    0    0    0  501 -0.00000000000E+00  0.00000000000E+00  0.42525333203E+03  0.42525333203E+03  0.00000000000E+00 0.  1.
          1   -1    0    0  502    0  0.00000000000E+00 -0.00000000000E+00 -0.58693333350E+03  0.58693333350E+03  0.00000000000E+00 0. -1.
    9000005    1    1    2  502    0 -0.23123534905E+03  0.18858143815E+03 -0.56812079574E+02  0.50225527160E+03  0.40000000000E+03 0.  1.
   -9000005    1    1    2    0  501  0.23123534905E+03 -0.18858143815E+03 -0.10486792190E+03  0.50993139393E+03  0.40000000000E+03 0.  1.
<mgrwt>
<rscale>  2 0.49903181E+03</rscale>
<asrwt>0</asrwt>
<pdfrwt beam="1">  1        1 0.90297436E-01 0.49903181E+03</pdfrwt>
<pdfrwt beam="2">  1       -1 0.65423590E-01 0.49903181E+03</pdfrwt>
<totfact> 0.87244054E+01</totfact>
</mgrwt>
</event>
<event>
 4    1  0.2318373E-002  0.5031423E+03  0.7818608E-02  0.1012962E+00
         -2   -1    0    0    0  501 -0.00000000000E+00  0.00000000000E+00  0.38032849965E+03  0.38032849965E+03  0.00000000000E+00 0.  1.
          2   -1    0    0  502    0  0.00000000000E+00 -0.00000000000E+00 -0.11642366959E+04  0.11642366959E+04  0.00000000000E+00 0. -1.
    9000005    1    1    2  502    0  0.46869134679E+02  0.30158822983E+03 -0.89736126554E+03  0.10287902687E+04  0.40000000000E+03 0. -1.
   -9000005    1    1    2    0  501 -0.46869134679E+02 -0.30158822983E+03  0.11345306932E+03  0.51577492678E+03  0.40000000000E+03 0.  1.
<mgrwt>
<rscale>  2 0.50314230E+03</rscale>
<asrwt>0</asrwt>
<pdfrwt beam="1">  1        2 0.17911334E+00 0.50314230E+03</pdfrwt>
<pdfrwt beam="2">  1       -2 0.58512077E-01 0.50314230E+03</pdfrwt>
<totfact> 0.56807370E+01</totfact>
</mgrwt>
</event>
<event>
 4    1  0.2318373E-002  0.4184350E+03  0.7818608E-02  0.1037577E+00
         -1   -1    0    0    0  501 -0.00000000000E+00  0.00000000000E+00  0.39852761864E+03  0.39852761864E+03  0.00000000000E+00 0. -1.
          1   -1    0    0  502    0  0.00000000000E+00 -0.00000000000E+00 -0.44365331626E+03  0.44365331626E+03  0.00000000000E+00 0.  1.
    9000005    1    1    2  502    0 -0.12011781776E+03  0.25682129300E+02 -0.64098264917E+02  0.42331601609E+03  0.40000000000E+03 0.  1.
   -9000005    1    1    2    0  501  0.12011781776E+03 -0.25682129300E+02  0.18972567297E+02  0.41886491882E+03  0.40000000000E+03 0.  1.
<mgrwt>
<rscale>  2 0.41843502E+03</rscale>
<asrwt>0</asrwt>
<pdfrwt beam="1">  1        1 0.68254356E-01 0.41843502E+03</pdfrwt>
<pdfrwt beam="2">  1       -1 0.61311942E-01 0.41843502E+03</pdfrwt>
<totfact> 0.14652019E+02</totfact>
</mgrwt>
</event>
<event>
 4    1  0.2318373E-002  0.4234861E+03  0.7818608E-02  0.1035938E+00
         -2   -1    0    0    0  501 -0.00000000000E+00  0.00000000000E+00  0.18026995377E+03  0.18026995377E+03  0.00000000000E+00 0. -1.
          2   -1    0    0  502    0  0.00000000000E+00 -0.00000000000E+00 -0.12772034585E+04  0.12772034585E+04  0.00000000000E+00 0.  1.
    9000005    1    1    2  502    0  0.13851100402E+03 -0.12456121911E+02 -0.89110977685E+03  0.98661901847E+03  0.40000000000E+03 0.  1.
   -9000005    1    1    2    0  501 -0.13851100402E+03  0.12456121911E+02 -0.20582372789E+03  0.47085439381E+03  0.40000000000E+03 0. -1.
<mgrwt>
<rscale>  2 0.42348607E+03</rscale>
<asrwt>0</asrwt>
<pdfrwt beam="1">  1        2 0.19649284E+00 0.42348607E+03</pdfrwt>
<pdfrwt beam="2">  1       -2 0.27733838E-01 0.42348607E+03</pdfrwt>
<totfact> 0.21054065E+02</totfact>
</mgrwt>
</event>
<event>
 4    1  0.2318373E-002  0.4057224E+03  0.7818608E-02  0.1041816E+00
         -2   -1    0    0    0  501 -0.00000000000E+00  0.00000000000E+00  0.10976330474E+03  0.10976330474E+03  0.00000000000E+00 0.  1.
          2   -1    0    0  502    0  0.00000000000E+00 -0.00000000000E+00 -0.15117209289E+04  0.15117209289E+04  0.00000000000E+00 0. -1.
    9000005    1    1    2  502    0  0.19917937154E+02 -0.64914842167E+02 -0.77331253508E+03  0.87328285101E+03  0.40000000000E+03 0. -1.
   -9000005    1    1    2    0  501 -0.19917937154E+02  0.64914842167E+02 -0.62864508909E+03  0.74820138264E+03  0.40000000000E+03 0.  1.
<mgrwt>
<rscale>  2 0.40572239E+03</rscale>
<asrwt>0</asrwt>
<pdfrwt beam="1">  1        2 0.23257244E+00 0.40572239E+03</pdfrwt>
<pdfrwt beam="2">  1       -2 0.16886663E-01 0.40572239E+03</pdfrwt>
<totfact> 0.37284185E+02</totfact>
</mgrwt>
</event>
<event>
 4    1  0.2318373E-002  0.5086020E+03  0.7818608E-02  0.1011558E+00
          1   -1    0    0  502    0  0.00000000000E+00  0.00000000000E+00  0.31582080411E+03  0.31582080411E+03  0.00000000000E+00 0. -1.
         -1   -1    0    0    0  501 -0.00000000000E+00 -0.00000000000E+00 -0.85784156693E+03  0.85784156693E+03  0.00000000000E+00 0.  1.
    9000005    1    1    2  502    0  0.75470287755E+02  0.30492658830E+03 -0.39578488489E+03  0.64445454742E+03  0.40000000000E+03 0.  1.
   -9000005    1    1    2    0  501 -0.75470287755E+02 -0.30492658830E+03 -0.14623587793E+03  0.52920782362E+03  0.40000000000E+03 0. -1.
<mgrwt>
<rscale>  2 0.50860199E+03</rscale>
<asrwt>0</asrwt>
<pdfrwt beam="1">  1        1 0.48587816E-01 0.50860199E+03</pdfrwt>
<pdfrwt beam="2">  1       -1 0.13197563E+00 0.50860199E+03</pdfrwt>
<totfact> 0.41867653E+01</totfact>
</mgrwt>
</event>
<event>
 4    1  0.2318373E-002  0.4063962E+03  0.7818608E-02  0.1041587E+00
          1   -1    0    0  502    0  0.00000000000E+00  0.00000000000E+00  0.35043225460E+04  0.35043225460E+04  0.00000000000E+00 0.  1.
         -1   -1    0    0    0  501 -0.00000000000E+00 -0.00000000000E+00 -0.50372565488E+02  0.50372565488E+02  0.00000000000E+00 0. -1.
    9000005    1    1    2  502    0  0.34395731906E+02 -0.63046033584E+02  0.12760170876E+04  0.13391704435E+04  0.40000000000E+03 0.  1.
   -9000005    1    1    2    0  501 -0.34395731906E+02  0.63046033584E+02  0.21779328928E+04  0.22155246680E+04  0.40000000000E+03 0. -1.
<mgrwt>
<rscale>  2 0.40639620E+03</rscale>
<asrwt>0</asrwt>
<pdfrwt beam="1">  1        1 0.53912636E+00 0.40639620E+03</pdfrwt>
<pdfrwt beam="2">  1       -1 0.77496282E-02 0.40639620E+03</pdfrwt>
<totfact> 0.26904623E+01</totfact>
</mgrwt>
</event>
<event>
 4    1  0.2318373E-002  0.4319294E+03  0.7818608E-02  0.1033252E+00
         -2   -1    0    0    0  501 -0.00000000000E+00  0.00000000000E+00  0.81968491049E+03  0.81968491049E+03  0.00000000000E+00 0.  1.
          2   -1    0    0  502    0  0.00000000000E+00 -0.00000000000E+00 -0.27062969980E+03  0.27062969980E+03  0.00000000000E+00 0. -1.
    9000005    1    1    2  502    0  0.11609645646E+03 -0.11438819153E+03  0.49189844041E+03  0.65461982956E+03  0.40000000000E+03 0.  1.
   -9000005    1    1    2    0  501 -0.11609645646E+03  0.11438819153E+03  0.57156770279E+02  0.43569478073E+03  0.40000000000E+03 0. -1.
<mgrwt>
<rscale>  2 0.43192945E+03</rscale>
<asrwt>0</asrwt>
<pdfrwt beam="1">  1        2 0.41635339E-01 0.43192945E+03</pdfrwt>
<pdfrwt beam="2">  1       -2 0.12610537E+00 0.43192945E+03</pdfrwt>
<totfact> 0.59631362E+01</totfact>
</mgrwt>
</event>
<event>
 4    1  0.2318373E-002  0.1126633E+04  0.7818608E-02  0.9179616E-01
         -1   -1    0    0    0  501 -0.00000000000E+00  0.00000000000E+00  0.42406000263E+03  0.42406000263E+03  0.00000000000E+00 0.  1.
          1   -1    0    0  502    0  0.00000000000E+00 -0.00000000000E+00 -0.45285314948E+04  0.45285314948E+04  0.00000000000E+00 0. -1.
    9000005    1    1    2  502    0  0.94333346670E+03 -0.46842611293E+03 -0.34940965747E+04  0.36712411970E+04  0.40000000000E+03 0. -1.
   -9000005    1    1    2    0  501 -0.94333346670E+03  0.46842611293E+03 -0.61037491741E+03  0.12813503005E+04  0.40000000000E+03 0.  1.
<mgrwt>
<rscale>  2 0.11266326E+04</rscale>
<asrwt>0</asrwt>
<pdfrwt beam="1">  1        1 0.69669713E+00 0.11266326E+04</pdfrwt>
<pdfrwt beam="2">  1       -1 0.65240003E-01 0.11266326E+04</pdfrwt>
<totfact> 0.75105691E-02</totfact>
</mgrwt>
</event>
<event>
 4    1  0.2318373E-002  0.4478877E+03  0.7818608E-02  0.1028354E+00
         -1   -1    0    0    0  501 -0.00000000000E+00  0.00000000000E+00  0.25780565972E+03  0.25780565972E+03  0.00000000000E+00 0.  1.
          1   -1    0    0  502    0  0.00000000000E+00 -0.00000000000E+00 -0.77928955730E+03  0.77928955730E+03  0.00000000000E+00 0. -1.
    9000005    1    1    2  502    0 -0.98675248598E+02 -0.17568886284E+03 -0.24064138892E+03  0.50844041861E+03  0.40000000000E+03 0. -1.
   -9000005    1    1    2    0  501  0.98675248598E+02  0.17568886284E+03 -0.28084250866E+03  0.52865479841E+03  0.40000000000E+03 0.  1.
<mgrwt>
<rscale>  2 0.44788769E+03</rscale>
<asrwt>0</asrwt>
<pdfrwt beam="1">  1        1 0.11989070E+00 0.44788769E+03</pdfrwt>
<pdfrwt beam="2">  1       -1 0.39662410E-01 0.44788769E+03</pdfrwt>
<totfact> 0.14855729E+02</totfact>
</mgrwt>
</event>
<event>
 4    1  0.2318373E-002  0.4161275E+03  0.7818608E-02  0.1038334E+00
          2   -1    0    0  502    0  0.00000000000E+00  0.00000000000E+00  0.67220262686E+03  0.67220262686E+03  0.00000000000E+00 0.  1.
         -2   -1    0    0    0  501 -0.00000000000E+00 -0.00000000000E+00 -0.53264421956E+03  0.53264421956E+03  0.00000000000E+00 0. -1.
    9000005    1    1    2  502    0  0.57986582616E+02 -0.98993366334E+02 -0.36311452160E+03  0.55228098477E+03  0.40000000000E+03 0. -1.
   -9000005    1    1    2    0  501 -0.57986582616E+02  0.98993366334E+02  0.50267292890E+03  0.65256586165E+03  0.40000000000E+03 0.  1.
<mgrwt>
<rscale>  2 0.41612754E+03</rscale>
<asrwt>0</asrwt>
<pdfrwt beam="1">  1        2 0.10341579E+00 0.41612754E+03</pdfrwt>
<pdfrwt beam="2">  1       -2 0.81945264E-01 0.41612754E+03</pdfrwt>
<totfact> 0.58983040E+01</totfact>
</mgrwt>
</event>
<event>
 4    1  0.2318373E-002  0.5729051E+03  0.7818608E-02  0.9963271E-01
         -2   -1    0    0    0  501 -0.00000000000E+00  0.00000000000E+00  0.13072492567E+03  0.13072492567E+03  0.00000000000E+00 0.  1.
          2   -1    0    0  502    0  0.00000000000E+00 -0.00000000000E+00 -0.25328962371E+04  0.25328962371E+04  0.00000000000E+00 0. -1.
    9000005    1    1    2  502    0 -0.38024915441E+03  0.15372332256E+03 -0.13255609643E+04  0.14440679172E+04  0.40000000000E+03 0. -1.
   -9000005    1    1    2    0  501  0.38024915441E+03 -0.15372332256E+03 -0.10766103471E+04  0.12195532456E+04  0.40000000000E+03 0. -1.
<mgrwt>
<rscale>  2 0.57290512E+03</rscale>
<asrwt>0</asrwt>
<pdfrwt beam="1">  1        2 0.38967637E+00 0.57290512E+03</pdfrwt>
<pdfrwt beam="2">  1       -2 0.20111526E-01 0.57290512E+03</pdfrwt>
<totfact> 0.75102568E+01</totfact>
</mgrwt>
</event>
<event>
 4    1  0.2318373E-002  0.4315600E+03  0.7818608E-02  0.1033368E+00
         -2   -1    0    0    0  501 -0.00000000000E+00  0.00000000000E+00  0.34046680546E+03  0.34046680546E+03  0.00000000000E+00 0.  1.
          2   -1    0    0  502    0  0.00000000000E+00 -0.00000000000E+00 -0.61631695275E+03  0.61631695275E+03  0.00000000000E+00 0. -1.
    9000005    1    1    2  502    0 -0.77721435303E+01 -0.16181361611E+03  0.22481187706E+02  0.43214517974E+03  0.40000000000E+03 0.  1.
   -9000005    1    1    2    0  501  0.77721435303E+01  0.16181361611E+03 -0.29833133500E+03  0.52463857847E+03  0.40000000000E+03 0. -1.
<mgrwt>
<rscale>  2 0.43156002E+03</rscale>
<asrwt>0</asrwt>
<pdfrwt beam="1">  1        2 0.94817993E-01 0.43156002E+03</pdfrwt>
<pdfrwt beam="2">  1       -2 0.52379508E-01 0.43156002E+03</pdfrwt>
<totfact> 0.17008135E+02</totfact>
</mgrwt>
</event>
<event>
 4    1  0.2318373E-002  0.4112531E+03  0.7818608E-02  0.1039951E+00
          1   -1    0    0  502    0  0.00000000000E+00  0.00000000000E+00  0.80010127477E+02  0.80010127477E+02  0.00000000000E+00 0.  1.
         -1   -1    0    0    0  501 -0.00000000000E+00 -0.00000000000E+00 -0.25741222216E+04  0.25741222216E+04  0.00000000000E+00 0. -1.
    9000005    1    1    2  502    0 -0.88985924324E+02  0.34793526603E+02 -0.68589529412E+03  0.79973835641E+03  0.40000000000E+03 0.  1.
   -9000005    1    1    2    0  501  0.88985924324E+02 -0.34793526603E+02 -0.18082168000E+04  0.18543939927E+04  0.40000000000E+03 0. -1.
<mgrwt>
<rscale>  2 0.41125307E+03</rscale>
<asrwt>0</asrwt>
<pdfrwt beam="1">  1        1 0.12309250E-01 0.41125307E+03</pdfrwt>
<pdfrwt beam="2">  1       -1 0.39601881E+00 0.41125307E+03</pdfrwt>
<totfact> 0.43413138E+00</totfact>
</mgrwt>
</event>
<event>
 4    1  0.2318373E-002  0.5542726E+03  0.7818608E-02  0.1000510E+00
         -1   -1    0    0    0  501 -0.00000000000E+00  0.00000000000E+00  0.13732098604E+04  0.13732098604E+04  0.00000000000E+00 0. -1.
          1   -1    0    0  502    0  0.00000000000E+00 -0.00000000000E+00 -0.66006218044E+03  0.66006218044E+03  0.00000000000E+00 0.  1.
    9000005    1    1    2  502    0 -0.37603179981E+03 -0.76276778878E+02  0.11831547670E+04  0.13065501384E+04  0.40000000000E+03 0. -1.
   -9000005    1    1    2    0  501  0.37603179981E+03  0.76276778878E+02 -0.47000708710E+03  0.72672190238E+03  0.40000000000E+03 0.  1.
<mgrwt>
<rscale>  2 0.55427255E+03</rscale>
<asrwt>0</asrwt>
<pdfrwt beam="1">  1        1 0.10154803E+00 0.55427255E+03</pdfrwt>
<pdfrwt beam="2">  1       -1 0.21126305E+00 0.55427255E+03</pdfrwt>
<totfact> 0.40361839E+00</totfact>
</mgrwt>
</event>
<event>
 4    1  0.2318373E-002  0.4158175E+03  0.7818608E-02  0.1038436E+00
         -1   -1    0    0    0  501 -0.00000000000E+00  0.00000000000E+00  0.63226764485E+03  0.63226764485E+03  0.00000000000E+00 0.  1.
          1   -1    0    0  502    0  0.00000000000E+00 -0.00000000000E+00 -0.28170025107E+03  0.28170025107E+03  0.00000000000E+00 0. -1.
    9000005    1    1    2  502    0  0.53656493883E+02  0.10012592788E+03  0.97157296313E+02  0.42701728419E+03  0.40000000000E+03 0. -1.
   -9000005    1    1    2    0  501 -0.53656493883E+02 -0.10012592788E+03  0.25341009747E+03  0.48695061174E+03  0.40000000000E+03 0.  1.
<mgrwt>
<rscale>  2 0.41581753E+03</rscale>
<asrwt>0</asrwt>
<pdfrwt beam="1">  1        1 0.43338500E-01 0.41581753E+03</pdfrwt>
<pdfrwt beam="2">  1       -1 0.97271945E-01 0.41581753E+03</pdfrwt>
<totfact> 0.10084531E+02</totfact>
</mgrwt>
</event>
<event>
 4    1  0.2318373E-002  0.4965245E+03  0.7818608E-02  0.1014690E+00
          2   -1    0    0  502    0  0.00000000000E+00  0.00000000000E+00  0.11283183850E+04  0.11283183850E+04  0.00000000000E+00 0.  1.
         -2   -1    0    0    0  501 -0.00000000000E+00 -0.00000000000E+00 -0.22945774457E+03  0.22945774457E+03  0.00000000000E+00 0. -1.
    9000005    1    1    2  502    0 -0.29292490555E+03 -0.27047086423E+02  0.59779323171E+03  0.77710571549E+03  0.40000000000E+03 0.  1.
   -9000005    1    1    2    0  501  0.29292490555E+03  0.27047086423E+02  0.30106740869E+03  0.58067041405E+03  0.40000000000E+03 0. -1.
<mgrwt>
<rscale>  2 0.49652447E+03</rscale>
<asrwt>0</asrwt>
<pdfrwt beam="1">  1        2 0.17358744E+00 0.49652447E+03</pdfrwt>
<pdfrwt beam="2">  1       -2 0.35301192E-01 0.49652447E+03</pdfrwt>
<totfact> 0.16300630E+02</totfact>
</mgrwt>
</event>
<event>
 4    1  0.2318373E-002  0.4286274E+03  0.7818608E-02  0.1034294E+00
         -2   -1    0    0    0  501 -0.00000000000E+00  0.00000000000E+00  0.10796700152E+03  0.10796700152E+03  0.00000000000E+00 0.  1.
          2   -1    0    0  502    0  0.00000000000E+00 -0.00000000000E+00 -0.20374123473E+04  0.20374123473E+04  0.00000000000E+00 0. -1.
    9000005    1    1    2  502    0  0.83810980000E+02  0.12921748711E+03 -0.52925664878E+03  0.68105362463E+03  0.40000000000E+03 0.  1.
   -9000005    1    1    2    0  501 -0.83810980000E+02 -0.12921748711E+03 -0.14001886970E+04  0.14643257242E+04  0.40000000000E+03 0. -1.
<mgrwt>
<rscale>  2 0.42862739E+03</rscale>
<asrwt>0</asrwt>
<pdfrwt beam="1">  1        2 0.31344805E+00 0.42862739E+03</pdfrwt>
<pdfrwt beam="2">  1       -2 0.16610308E-01 0.42862739E+03</pdfrwt>
<totfact> 0.19967171E+02</totfact>
</mgrwt>
</event>
<event>
 4    1  0.2318373E-002  0.5176489E+03  0.7818608E-02  0.1009272E+00
          2   -1    0    0  502    0  0.00000000000E+00  0.00000000000E+00  0.12117259336E+04  0.12117259336E+04  0.00000000000E+00 0. -1.
         -2   -1    0    0    0  501 -0.00000000000E+00 -0.00000000000E+00 -0.26359783451E+03  0.26359783451E+03  0.00000000000E+00 0.  1.
    9000005    1    1    2  502    0  0.28268205800E+03  0.16748496033E+03  0.77011629720E+03  0.92792212446E+03  0.40000000000E+03 0. -1.
   -9000005    1    1    2    0  501 -0.28268205800E+03 -0.16748496033E+03  0.17801180187E+03  0.54740164364E+03  0.40000000000E+03 0.  1.
<mgrwt>
<rscale>  2 0.51764888E+03</rscale>
<asrwt>0</asrwt>
<pdfrwt beam="1">  1        2 0.18641937E+00 0.51764888E+03</pdfrwt>
<pdfrwt beam="2">  1       -2 0.40553514E-01 0.51764888E+03</pdfrwt>
<totfact> 0.11129674E+02</totfact>
</mgrwt>
</event>
<event>
 4    1  0.2318373E-002  0.5640168E+03  0.7818608E-02  0.9983007E-01
          1   -1    0    0  502    0  0.00000000000E+00  0.00000000000E+00  0.91614544117E+03  0.91614544117E+03  0.00000000000E+00 0. -1.
         -1   -1    0    0    0  501 -0.00000000000E+00 -0.00000000000E+00 -0.34809292009E+03  0.34809292009E+03  0.00000000000E+00 0.  1.
    9000005    1    1    2  502    0  0.68706290653E+02 -0.39165597668E+03  0.25258875767E+03  0.61799355898E+03  0.40000000000E+03 0.  1.
   -9000005    1    1    2    0  501 -0.68706290653E+02  0.39165597668E+03  0.31546376340E+03  0.64624480227E+03  0.40000000000E+03 0. -1.
<mgrwt>
<rscale>  2 0.56401681E+03</rscale>
<asrwt>0</asrwt>
<pdfrwt beam="1">  1        1 0.14094545E+00 0.56401681E+03</pdfrwt>
<pdfrwt beam="2">  1       -1 0.53552757E-01 0.56401681E+03</pdfrwt>
<totfact> 0.64705376E+01</totfact>
</mgrwt>
</event>
<event>
 4    1  0.2318373E-002  0.4377678E+03  0.7818608E-02  0.1031434E+00
         -1   -1    0    0    0  501 -0.00000000000E+00  0.00000000000E+00  0.19215176410E+03  0.19215176410E+03  0.00000000000E+00 0.  1.
          1   -1    0    0  502    0  0.00000000000E+00 -0.00000000000E+00 -0.15941947421E+04  0.15941947421E+04  0.00000000000E+00 0. -1.
    9000005    1    1    2  502    0 -0.12732144801E+03  0.12421696507E+03 -0.15450985261E+03  0.46423474675E+03  0.40000000000E+03 0.  1.
   -9000005    1    1    2    0  501  0.12732144801E+03 -0.12421696507E+03 -0.12475331254E+04  0.13221117595E+04  0.40000000000E+03 0. -1.
<mgrwt>
<rscale>  2 0.43776775E+03</rscale>
<asrwt>0</asrwt>
<pdfrwt beam="1">  1        1 0.24526072E+00 0.43776775E+03</pdfrwt>
<pdfrwt beam="2">  1       -1 0.29561811E-01 0.43776775E+03</pdfrwt>
<totfact> 0.63236698E+01</totfact>
</mgrwt>
</event>
<event>
 4    1  0.2318373E-002  0.4609349E+03  0.7818608E-02  0.1024510E+00
          2   -1    0    0  502    0  0.00000000000E+00  0.00000000000E+00  0.45345490467E+03  0.45345490467E+03  0.00000000000E+00 0.  1.
         -2   -1    0    0    0  501 -0.00000000000E+00 -0.00000000000E+00 -0.73231294797E+03  0.73231294797E+03  0.00000000000E+00 0. -1.
    9000005    1    1    2  502    0 -0.14808629554E+03 -0.17473243989E+03 -0.49525517914E+03  0.67656386908E+03  0.40000000000E+03 0. -1.
   -9000005    1    1    2    0  501  0.14808629554E+03  0.17473243989E+03  0.21639713583E+03  0.50920398356E+03  0.40000000000E+03 0.  1.
<mgrwt>
<rscale>  2 0.46093489E+03</rscale>
<asrwt>0</asrwt>
<pdfrwt beam="1">  1        2 0.69762293E-01 0.46093489E+03</pdfrwt>
<pdfrwt beam="2">  1       -2 0.11266353E+00 0.46093489E+03</pdfrwt>
<totfact> 0.44308089E+01</totfact>
</mgrwt>
</event>
<event>
 4    1  0.2318373E-002  0.4762411E+03  0.7818608E-02  0.1020173E+00
         -2   -1    0    0    0  501 -0.00000000000E+00  0.00000000000E+00  0.46851175778E+03  0.46851175778E+03  0.00000000000E+00 0.  1.
          2   -1    0    0  502    0  0.00000000000E+00 -0.00000000000E+00 -0.50034253610E+03  0.50034253610E+03  0.00000000000E+00 0. -1.
    9000005    1    1    2  502    0  0.10374436963E+03  0.23673345174E+03 -0.10320206335E+03  0.48729486688E+03  0.40000000000E+03 0.  1.
   -9000005    1    1    2    0  501 -0.10374436963E+03 -0.23673345174E+03  0.71371285034E+02  0.48155942700E+03  0.40000000000E+03 0. -1.
<mgrwt>
<rscale>  2 0.47624114E+03</rscale>
<asrwt>0</asrwt>
<pdfrwt beam="1">  1        2 0.76975775E-01 0.47624114E+03</pdfrwt>
<pdfrwt beam="2">  1       -2 0.72078732E-01 0.47624114E+03</pdfrwt>
<totfact> 0.11032831E+02</totfact>
</mgrwt>
</event>
<event>
 4    1  0.2318373E-002  0.5462928E+03  0.7818608E-02  0.1002356E+00
         -2   -1    0    0    0  501 -0.00000000000E+00  0.00000000000E+00  0.87348709448E+02  0.87348709448E+02  0.00000000000E+00 0. -1.
          2   -1    0    0  502    0  0.00000000000E+00 -0.00000000000E+00 -0.35306440297E+04  0.35306440297E+04  0.00000000000E+00 0.  1.
    9000005    1    1    2  502    0  0.85377309410E+02  0.36214159049E+03 -0.20467666235E+04  0.21184167266E+04  0.40000000000E+03 0.  1.
   -9000005    1    1    2    0  501 -0.85377309410E+02 -0.36214159049E+03 -0.13965286968E+04  0.14995760126E+04  0.40000000000E+03 0. -1.
<mgrwt>
<rscale>  2 0.54629279E+03</rscale>
<asrwt>0</asrwt>
<pdfrwt beam="1">  1        2 0.54317601E+00 0.54629279E+03</pdfrwt>
<pdfrwt beam="2">  1       -2 0.13438263E-01 0.54629279E+03</pdfrwt>
<totfact> 0.36536210E+01</totfact>
</mgrwt>
</event>
<event>
 4    1  0.2318373E-002  0.4950891E+03  0.7818608E-02  0.1015069E+00
          2   -1    0    0  502    0  0.00000000000E+00  0.00000000000E+00  0.16695284649E+04  0.16695284649E+04  0.00000000000E+00 0. -1.
         -2   -1    0    0    0  501 -0.00000000000E+00 -0.00000000000E+00 -0.17032872809E+03  0.17032872809E+03  0.00000000000E+00 0.  1.
    9000005    1    1    2  502    0  0.14392063483E+03 -0.25377167831E+03  0.40780683056E+03  0.64142000662E+03  0.40000000000E+03 0. -1.
   -9000005    1    1    2    0  501 -0.14392063483E+03  0.25377167831E+03  0.10913929062E+04  0.11984371863E+04  0.40000000000E+03 0.  1.
<mgrwt>
<rscale>  2 0.49508910E+03</rscale>
<asrwt>0</asrwt>
<pdfrwt beam="1">  1        2 0.25685052E+00 0.49508910E+03</pdfrwt>
<pdfrwt beam="2">  1       -2 0.26204421E-01 0.49508910E+03</pdfrwt>
<totfact> 0.14055376E+02</totfact>
</mgrwt>
</event>
<event>
 4    1  0.2318373E-002  0.4195129E+03  0.7818608E-02  0.1037225E+00
         -1   -1    0    0    0  501 -0.00000000000E+00  0.00000000000E+00  0.15197138915E+03  0.15197138915E+03  0.00000000000E+00 0. -1.
          1   -1    0    0  502    0  0.00000000000E+00 -0.00000000000E+00 -0.14520661925E+04  0.14520661925E+04  0.00000000000E+00 0.  1.
    9000005    1    1    2  502    0 -0.57347797084E+02  0.11270438706E+03 -0.10109368091E+04  0.10945246826E+04  0.40000000000E+03 0.  1.
   -9000005    1    1    2    0  501  0.57347797084E+02 -0.11270438706E+03 -0.28915799416E+03  0.50951289903E+03  0.40000000000E+03 0. -1.
<mgrwt>
<rscale>  2 0.41951287E+03</rscale>
<asrwt>0</asrwt>
<pdfrwt beam="1">  1        1 0.22339480E+00 0.41951287E+03</pdfrwt>
<pdfrwt beam="2">  1       -1 0.23380214E-01 0.41951287E+03</pdfrwt>
<totfact> 0.11768596E+02</totfact>
</mgrwt>
</event>
<event>
 4    1  0.2318373E-002  0.4170234E+03  0.7818608E-02  0.1038039E+00
          1   -1    0    0  502    0  0.00000000000E+00  0.00000000000E+00  0.47057446382E+02  0.47057446382E+02  0.00000000000E+00 0. -1.
         -1   -1    0    0    0  501 -0.00000000000E+00 -0.00000000000E+00 -0.39377958225E+04  0.39377958225E+04  0.00000000000E+00 0.  1.
    9000005    1    1    2  502    0 -0.24826716337E+02 -0.11529158804E+03 -0.14513070533E+04  0.15100333370E+04  0.40000000000E+03 0. -1.
   -9000005    1    1    2    0  501  0.24826716337E+02  0.11529158804E+03 -0.24394313229E+04  0.24748199318E+04  0.40000000000E+03 0.  1.
<mgrwt>
<rscale>  2 0.41702340E+03</rscale>
<asrwt>0</asrwt>
<pdfrwt beam="1">  1        1 0.72396079E-02 0.41702340E+03</pdfrwt>
<pdfrwt beam="2">  1       -1 0.60581467E+00 0.41702340E+03</pdfrwt>
<totfact> 0.46987167E-01</totfact>
</mgrwt>
</event>
<event>
 4    1  0.2318373E-002  0.6400771E+03  0.7818608E-02  0.9825579E-01
         -3   -1    0    0    0  501 -0.00000000000E+00  0.00000000000E+00  0.39623227173E+03  0.39623227173E+03  0.00000000000E+00 0.  1.
          3   -1    0    0  502    0  0.00000000000E+00 -0.00000000000E+00 -0.10515140845E+04  0.10515140845E+04  0.00000000000E+00 0. -1.
    9000005    1    1    2  502    0  0.91503480375E+02 -0.49124925274E+03 -0.23418231235E+03  0.68157176486E+03  0.40000000000E+03 0.  1.
   -9000005    1    1    2    0  501 -0.91503480375E+02  0.49124925274E+03 -0.42109950047E+03  0.76617459142E+03  0.40000000000E+03 0. -1.
<mgrwt>
<rscale>  2 0.64007712E+03</rscale>
<asrwt>0</asrwt>
<pdfrwt beam="1">  1        3 0.16177140E+00 0.64007712E+03</pdfrwt>
<pdfrwt beam="2">  1       -3 0.60958811E-01 0.64007712E+03</pdfrwt>
<totfact> 0.18243271E+00</totfact>
</mgrwt>
</event>
<event>
 4    1  0.2318373E-002  0.4403507E+03  0.7818608E-02  0.1030639E+00
          1   -1    0    0  502    0  0.00000000000E+00  0.00000000000E+00  0.59023212372E+03  0.59023212372E+03  0.00000000000E+00 0. -1.
         -1   -1    0    0    0  501 -0.00000000000E+00 -0.00000000000E+00 -0.36046874177E+03  0.36046874177E+03  0.00000000000E+00 0.  1.
    9000005    1    1    2  502    0  0.63769593249E+01 -0.18403285551E+03 -0.26613382076E+02  0.44115420164E+03  0.40000000000E+03 0.  1.
   -9000005    1    1    2    0  501 -0.63769593249E+01  0.18403285551E+03  0.25637676403E+03  0.50954666386E+03  0.40000000000E+03 0.  1.
<mgrwt>
<rscale>  2 0.44035072E+03</rscale>
<asrwt>0</asrwt>
<pdfrwt beam="1">  1        1 0.90804942E-01 0.44035072E+03</pdfrwt>
<pdfrwt beam="2">  1       -1 0.55456730E-01 0.44035072E+03</pdfrwt>
<totfact> 0.12034291E+02</totfact>
</mgrwt>
</event>
<event>
 4    1  0.2318373E-002  0.4526232E+03  0.7818608E-02  0.1026943E+00
          3   -1    0    0  502    0  0.00000000000E+00  0.00000000000E+00  0.17460087532E+04  0.17460087532E+04  0.00000000000E+00 0. -1.
         -3   -1    0    0    0  501 -0.00000000000E+00 -0.00000000000E+00 -0.11842865295E+03  0.11842865295E+03  0.00000000000E+00 0.  1.
    9000005    1    1    2  502    0 -0.12169879004E+03  0.17337013334E+03  0.72420306455E+03  0.85401280864E+03  0.40000000000E+03 0.  1.
   -9000005    1    1    2    0  501  0.12169879004E+03 -0.17337013334E+03  0.90337703573E+03  0.10104245975E+04  0.40000000000E+03 0. -1.
<mgrwt>
<rscale>  2 0.45262324E+03</rscale>
<asrwt>0</asrwt>
<pdfrwt beam="1">  1        3 0.26861671E+00 0.45262324E+03</pdfrwt>
<pdfrwt beam="2">  1       -3 0.18219794E-01 0.45262324E+03</pdfrwt>
<totfact> 0.42508362E+00</totfact>
</mgrwt>
</event>
<event>
 4    1  0.2318373E-002  0.4107665E+03  0.7818608E-02  0.1040114E+00
          2   -1    0    0  502    0  0.00000000000E+00  0.00000000000E+00  0.11360026312E+04  0.11360026312E+04  0.00000000000E+00 0.  1.
         -2   -1    0    0    0  501 -0.00000000000E+00 -0.00000000000E+00 -0.14862125688E+03  0.14862125688E+03  0.00000000000E+00 0. -1.
    9000005    1    1    2  502    0  0.93381744109E+02 -0.29937316576E+01  0.50971077501E+03  0.65462522616E+03  0.40000000000E+03 0.  1.
   -9000005    1    1    2    0  501 -0.93381744109E+02  0.29937316576E+01  0.47767059929E+03  0.62999866190E+03  0.40000000000E+03 0. -1.
<mgrwt>
<rscale>  2 0.41076649E+03</rscale>
<asrwt>0</asrwt>
<pdfrwt beam="1">  1        2 0.17476963E+00 0.41076649E+03</pdfrwt>
<pdfrwt beam="2">  1       -2 0.22864809E-01 0.41076649E+03</pdfrwt>
<totfact> 0.35939567E+02</totfact>
</mgrwt>
</event>
<event>
 4    1  0.2318373E-002  0.5370866E+03  0.7818608E-02  0.1004528E+00
         -1   -1    0    0    0  501 -0.00000000000E+00  0.00000000000E+00  0.35807130448E+03  0.35807130448E+03  0.00000000000E+00 0.  1.
          1   -1    0    0  502    0  0.00000000000E+00 -0.00000000000E+00 -0.80559949868E+03  0.80559949868E+03  0.00000000000E+00 0. -1.
    9000005    1    1    2  502    0 -0.82322022847E+02 -0.34883396628E+03 -0.22364590281E+03  0.58178994605E+03  0.40000000000E+03 0.  1.
   -9000005    1    1    2    0  501  0.82322022847E+02  0.34883396628E+03 -0.22388229139E+03  0.58188085711E+03  0.40000000000E+03 0. -1.
<mgrwt>
<rscale>  2 0.53708663E+03</rscale>
<asrwt>0</asrwt>
<pdfrwt beam="1">  1        1 0.12393838E+00 0.53708663E+03</pdfrwt>
<pdfrwt beam="2">  1       -1 0.55087894E-01 0.53708663E+03</pdfrwt>
<totfact> 0.75871965E+01</totfact>
</mgrwt>
</event>
<event>
 4    1  0.2318373E-002  0.4039129E+03  0.7818608E-02  0.1042433E+00
          2   -1    0    0  502    0  0.00000000000E+00  0.00000000000E+00  0.16754620581E+04  0.16754620581E+04  0.00000000000E+00 0.  1.
         -2   -1    0    0    0  501 -0.00000000000E+00 -0.00000000000E+00 -0.12868425354E+03  0.12868425354E+03  0.00000000000E+00 0. -1.
    9000005    1    1    2  502    0  0.50134491765E+02 -0.25143308539E+02  0.12183536591E+04  0.12835619548E+04  0.40000000000E+03 0.  1.
   -9000005    1    1    2    0  501 -0.50134491765E+02  0.25143308539E+02  0.32842414542E+03  0.52058435678E+03  0.40000000000E+03 0. -1.
<mgrwt>
<rscale>  2 0.40391293E+03</rscale>
<asrwt>0</asrwt>
<pdfrwt beam="1">  1        2 0.25776338E+00 0.40391293E+03</pdfrwt>
<pdfrwt beam="2">  1       -2 0.19797579E-01 0.40391293E+03</pdfrwt>
<totfact> 0.23177061E+02</totfact>
</mgrwt>
</event>
<event>
 4    1  0.2318373E-002  0.4274435E+03  0.7818608E-02  0.1034671E+00
         -1   -1    0    0    0  501 -0.00000000000E+00  0.00000000000E+00  0.27384675146E+03  0.27384675146E+03  0.00000000000E+00 0. -1.
          1   -1    0    0  502    0  0.00000000000E+00 -0.00000000000E+00 -0.66720381313E+03  0.66720381313E+03  0.00000000000E+00 0.  1.
    9000005    1    1    2  502    0 -0.13331558293E+03  0.70248803626E+02 -0.19457327299E+03  0.46964528915E+03  0.40000000000E+03 0.  1.
   -9000005    1    1    2    0  501  0.13331558293E+03 -0.70248803626E+02 -0.19878378868E+03  0.47140527543E+03  0.40000000000E+03 0. -1.
<mgrwt>
<rscale>  2 0.42744349E+03</rscale>
<asrwt>0</asrwt>
<pdfrwt beam="1">  1        1 0.10264674E+00 0.42744349E+03</pdfrwt>
<pdfrwt beam="2">  1       -1 0.42130270E-01 0.42744349E+03</pdfrwt>
<totfact> 0.16864211E+02</totfact>
</mgrwt>
</event>
<event>
 4    1  0.2318373E-002  0.5764855E+03  0.7818608E-02  0.9955429E-01
          1   -1    0    0  502    0  0.00000000000E+00  0.00000000000E+00  0.12862357800E+04  0.12862357800E+04  0.00000000000E+00 0. -1.
         -1   -1    0    0    0  501 -0.00000000000E+00 -0.00000000000E+00 -0.29857648286E+03  0.29857648286E+03  0.00000000000E+00 0.  1.
    9000005    1    1    2  502    0  0.37676985415E+03 -0.17429865845E+03  0.78458163372E+03  0.97360355654E+03  0.40000000000E+03 0.  1.
   -9000005    1    1    2    0  501 -0.37676985415E+03  0.17429865845E+03  0.20307766344E+03  0.61120870635E+03  0.40000000000E+03 0. -1.
<mgrwt>
<rscale>  2 0.57648551E+03</rscale>
<asrwt>0</asrwt>
<pdfrwt beam="1">  1        1 0.19788242E+00 0.57648551E+03</pdfrwt>
<pdfrwt beam="2">  1       -1 0.45934844E-01 0.57648551E+03</pdfrwt>
<totfact> 0.45744211E+01</totfact>
</mgrwt>
</event>
<event>
 4    1  0.2318373E-002  0.5606265E+03  0.7818608E-02  0.9990638E-01
         -2   -1    0    0    0  501 -0.00000000000E+00  0.00000000000E+00  0.32319245774E+03  0.32319245774E+03  0.00000000000E+00 0. -1.
          2   -1    0    0  502    0  0.00000000000E+00 -0.00000000000E+00 -0.15927316538E+04  0.15927316538E+04  0.00000000000E+00 0.  1.
    9000005    1    1    2  502    0  0.37546199066E+03 -0.11545729693E+03 -0.36968442026E+02  0.56184407050E+03  0.40000000000E+03 0. -1.
   -9000005    1    1    2    0  501 -0.37546199066E+03  0.11545729693E+03 -0.12325707540E+04  0.13540800410E+04  0.40000000000E+03 0.  1.
<mgrwt>
<rscale>  2 0.56062652E+03</rscale>
<asrwt>0</asrwt>
<pdfrwt beam="1">  1        2 0.24503564E+00 0.56062652E+03</pdfrwt>
<pdfrwt beam="2">  1       -2 0.49721917E-01 0.56062652E+03</pdfrwt>
<totfact> 0.45180077E+01</totfact>
</mgrwt>
</event>
<event>
 4    1  0.2318373E-002  0.5548316E+03  0.7818608E-02  0.1000382E+00
         -1   -1    0    0    0  501 -0.00000000000E+00  0.00000000000E+00  0.32571016669E+03  0.32571016669E+03  0.00000000000E+00 0.  1.
          1   -1    0    0  502    0  0.00000000000E+00 -0.00000000000E+00 -0.10216171629E+04  0.10216171629E+04  0.00000000000E+00 0. -1.
    9000005    1    1    2  502    0  0.19148172794E+03  0.33342593723E+03 -0.16362338432E+03  0.57845546039E+03  0.40000000000E+03 0.  1.
   -9000005    1    1    2    0  501 -0.19148172794E+03 -0.33342593723E+03 -0.53228361184E+03  0.76887186916E+03  0.40000000000E+03 0. -1.
<mgrwt>
<rscale>  2 0.55483160E+03</rscale>
<asrwt>0</asrwt>
<pdfrwt beam="1">  1        1 0.15717187E+00 0.55483160E+03</pdfrwt>
<pdfrwt beam="2">  1       -1 0.50109257E-01 0.55483160E+03</pdfrwt>
<totfact> 0.60805344E+01</totfact>
</mgrwt>
</event>
<event>
 4    1  0.2318373E-002  0.4493028E+03  0.7818608E-02  0.1027930E+00
         -2   -1    0    0    0  501 -0.00000000000E+00  0.00000000000E+00  0.11473644511E+03  0.11473644511E+03  0.00000000000E+00 0. -1.
          2   -1    0    0  502    0  0.00000000000E+00 -0.00000000000E+00 -0.19128320822E+04  0.19128320822E+04  0.00000000000E+00 0.  1.
    9000005    1    1    2  502    0 -0.11289521835E+02 -0.20431737093E+03 -0.11861221747E+04  0.12683685799E+04  0.40000000000E+03 0. -1.
   -9000005    1    1    2    0  501  0.11289521835E+02  0.20431737093E+03 -0.61197346240E+03  0.75919994734E+03  0.40000000000E+03 0.  1.
<mgrwt>
<rscale>  2 0.44930284E+03</rscale>
<asrwt>0</asrwt>
<pdfrwt beam="1">  1        2 0.29428186E+00 0.44930284E+03</pdfrwt>
<pdfrwt beam="2">  1       -2 0.17651761E-01 0.44930284E+03</pdfrwt>
<totfact> 0.20931610E+02</totfact>
</mgrwt>
</event>
<event>
 4    1  0.2318373E-002  0.4012374E+03  0.7818608E-02  0.1043352E+00
         -1   -1    0    0    0  501 -0.00000000000E+00  0.00000000000E+00  0.37852080929E+03  0.37852080929E+03  0.00000000000E+00 0. -1.
          1   -1    0    0  502    0  0.00000000000E+00 -0.00000000000E+00 -0.44799969037E+03  0.44799969037E+03  0.00000000000E+00 0.  1.
    9000005    1    1    2  502    0  0.24224744914E+02 -0.20114090959E+02  0.58249230090E+02  0.40544344578E+03  0.40000000000E+03 0. -1.
   -9000005    1    1    2    0  501 -0.24224744914E+02  0.20114090959E+02 -0.12772811116E+03  0.42107705388E+03  0.40000000000E+03 0.  1.
<mgrwt>
<rscale>  2 0.40123735E+03</rscale>
<asrwt>0</asrwt>
<pdfrwt beam="1">  1        1 0.68923029E-01 0.40123735E+03</pdfrwt>
<pdfrwt beam="2">  1       -1 0.58233970E-01 0.40123735E+03</pdfrwt>
<totfact> 0.16015495E+02</totfact>
</mgrwt>
</event>
<event>
 4    1  0.2318373E-002  0.4764981E+03  0.7818608E-02  0.1020102E+00
         -1   -1    0    0    0  501 -0.00000000000E+00  0.00000000000E+00  0.74358609296E+03  0.74358609296E+03  0.00000000000E+00 0.  1.
          1   -1    0    0  502    0  0.00000000000E+00 -0.00000000000E+00 -0.33248174295E+03  0.33248174295E+03  0.00000000000E+00 0. -1.
    9000005    1    1    2  502    0  0.21595262238E+03 -0.14288069219E+03  0.35926255490E+03  0.59675791630E+03  0.40000000000E+03 0.  1.
   -9000005    1    1    2    0  501 -0.21595262238E+03  0.14288069219E+03  0.51841795110E+02  0.47930991961E+03  0.40000000000E+03 0. -1.
<mgrwt>
<rscale>  2 0.47649809E+03</rscale>
<asrwt>0</asrwt>
<pdfrwt beam="1">  1        1 0.51151037E-01 0.47649809E+03</pdfrwt>
<pdfrwt beam="2">  1       -1 0.11439786E+00 0.47649809E+03</pdfrwt>
<totfact> 0.55759739E+01</totfact>
</mgrwt>
</event>
<event>
 4    1  0.2318373E-002  0.6601096E+03  0.7818608E-02  0.9787992E-01
         -1   -1    0    0    0  501 -0.00000000000E+00  0.00000000000E+00  0.12953070448E+04  0.12953070448E+04  0.00000000000E+00 0.  1.
          1   -1    0    0  502    0  0.00000000000E+00 -0.00000000000E+00 -0.38032531825E+03  0.38032531825E+03  0.00000000000E+00 0. -1.
    9000005    1    1    2  502    0 -0.49209818710E+03 -0.18325963455E+03  0.74220923706E+03  0.99328710400E+03  0.40000000000E+03 0. -1.
   -9000005    1    1    2    0  501  0.49209818710E+03  0.18325963455E+03  0.17277248947E+03  0.68234525903E+03  0.40000000000E+03 0.  1.
<mgrwt>
<rscale>  2 0.66010963E+03</rscale>
<asrwt>0</asrwt>
<pdfrwt beam="1">  1        1 0.58511588E-01 0.66010963E+03</pdfrwt>
<pdfrwt beam="2">  1       -1 0.19927801E+00 0.66010963E+03</pdfrwt>
<totfact> 0.10192601E+01</totfact>
</mgrwt>
</event>
<event>
 4    1  0.2318373E-002  0.4593458E+03  0.7818608E-02  0.1024971E+00
         -1   -1    0    0    0  501 -0.00000000000E+00  0.00000000000E+00  0.16956027217E+04  0.16956027217E+04  0.00000000000E+00 0. -1.
          1   -1    0    0  502    0  0.00000000000E+00 -0.00000000000E+00 -0.12994840923E+03  0.12994840923E+03  0.00000000000E+00 0.  1.
    9000005    1    1    2  502    0  0.20829704409E+03 -0.87240452512E+02  0.59487649076E+03  0.75158272624E+03  0.40000000000E+03 0.  1.
   -9000005    1    1    2    0  501 -0.20829704409E+03  0.87240452512E+02  0.97077782168E+03  0.10739684047E+04  0.40000000000E+03 0. -1.
<mgrwt>
<rscale>  2 0.45934579E+03</rscale>
<asrwt>0</asrwt>
<pdfrwt beam="1">  1        1 0.19992064E-01 0.45934579E+03</pdfrwt>
<pdfrwt beam="2">  1       -1 0.26086194E+00 0.45934579E+03</pdfrwt>
<totfact> 0.16710364E+01</totfact>
</mgrwt>
</event>
<event>
 4    1  0.2318373E-002  0.4814334E+03  0.7818608E-02  0.1018742E+00
         -1   -1    0    0    0  501 -0.00000000000E+00  0.00000000000E+00  0.13582230752E+04  0.13582230752E+04  0.00000000000E+00 0.  1.
          1   -1    0    0  502    0  0.00000000000E+00 -0.00000000000E+00 -0.18008020362E+03  0.18008020362E+03  0.00000000000E+00 0. -1.
    9000005    1    1    2  502    0 -0.12272220175E+03  0.23815409356E+03  0.76510057073E+03  0.90396736357E+03  0.40000000000E+03 0. -1.
   -9000005    1    1    2    0  501  0.12272220175E+03 -0.23815409356E+03  0.41304230089E+03  0.63433591527E+03  0.40000000000E+03 0. -1.
<mgrwt>
<rscale>  2 0.48143339E+03</rscale>
<asrwt>0</asrwt>
<pdfrwt beam="1">  1        1 0.27704648E-01 0.48143339E+03</pdfrwt>
<pdfrwt beam="2">  1       -1 0.20895739E+00 0.48143339E+03</pdfrwt>
<totfact> 0.23623631E+01</totfact>
</mgrwt>
</event>
<event>
 4    1  0.2318373E-002  0.4561352E+03  0.7818608E-02  0.1025908E+00
         -2   -1    0    0    0  501 -0.00000000000E+00  0.00000000000E+00  0.10260687673E+03  0.10260687673E+03  0.00000000000E+00 0. -1.
          2   -1    0    0  502    0  0.00000000000E+00 -0.00000000000E+00 -0.20385256101E+04  0.20385256101E+04  0.00000000000E+00 0.  1.
    9000005    1    1    2  502    0  0.66444315653E+02  0.20891267961E+03 -0.10458558333E+04  0.11409968355E+04  0.40000000000E+03 0.  1.
   -9000005    1    1    2    0  501 -0.66444315653E+02 -0.20891267961E+03 -0.89006290015E+03  0.10001356513E+04  0.40000000000E+03 0.  1.
<mgrwt>
<rscale>  2 0.45613524E+03</rscale>
<asrwt>0</asrwt>
<pdfrwt beam="1">  1        2 0.31361931E+00 0.45613524E+03</pdfrwt>
<pdfrwt beam="2">  1       -2 0.15785674E-01 0.45613524E+03</pdfrwt>
<totfact> 0.21640800E+02</totfact>
</mgrwt>
</event>
<event>
 4    1  0.2318373E-002  0.7679262E+03  0.7818608E-02  0.9607639E-01
         -1   -1    0    0    0  501 -0.00000000000E+00  0.00000000000E+00  0.10724242979E+04  0.10724242979E+04  0.00000000000E+00 0. -1.
          1   -1    0    0  502    0  0.00000000000E+00 -0.00000000000E+00 -0.56443073390E+03  0.56443073390E+03  0.00000000000E+00 0.  1.
    9000005    1    1    2  502    0  0.64645015426E+03  0.10868714473E+03  0.38537806362E+03  0.85920134386E+03  0.40000000000E+03 0. -1.
   -9000005    1    1    2    0  501 -0.64645015426E+03 -0.10868714473E+03  0.12261550033E+03  0.77765368790E+03  0.40000000000E+03 0.  1.
<mgrwt>
<rscale>  2 0.76792623E+03</rscale>
<asrwt>0</asrwt>
<pdfrwt beam="1">  1        1 0.86835497E-01 0.76792623E+03</pdfrwt>
<pdfrwt beam="2">  1       -1 0.16498835E+00 0.76792623E+03</pdfrwt>
<totfact> 0.10303453E+01</totfact>
</mgrwt>
</event>
<event>
 4    1  0.2318373E-002  0.4362164E+03  0.7818608E-02  0.1031914E+00
         -2   -1    0    0    0  501 -0.00000000000E+00  0.00000000000E+00  0.10827486611E+04  0.10827486611E+04  0.00000000000E+00 0.  1.
          2   -1    0    0  502    0  0.00000000000E+00 -0.00000000000E+00 -0.17577665608E+03  0.17577665608E+03  0.00000000000E+00 0. -1.
    9000005    1    1    2  502    0 -0.17075162652E+03 -0.33595153305E+02  0.46228192811E+03  0.63560155235E+03  0.40000000000E+03 0. -1.
   -9000005    1    1    2    0  501  0.17075162652E+03  0.33595153305E+02  0.44469007688E+03  0.62292376481E+03  0.40000000000E+03 0. -1.
<mgrwt>
<rscale>  2 0.43621641E+03</rscale>
<asrwt>0</asrwt>
<pdfrwt beam="1">  1        2 0.27042563E-01 0.43621641E+03</pdfrwt>
<pdfrwt beam="2">  1       -2 0.16657671E+00 0.43621641E+03</pdfrwt>
<totfact> 0.46756667E+01</totfact>
</mgrwt>
</event>
<event>
 4    1  0.2318373E-002  0.4597099E+03  0.7818608E-02  0.1024865E+00
         -2   -1    0    0    0  501 -0.00000000000E+00  0.00000000000E+00  0.71844322043E+02  0.71844322043E+02  0.00000000000E+00 0. -1.
          2   -1    0    0  502    0  0.00000000000E+00 -0.00000000000E+00 -0.29432992973E+04  0.29432992973E+04  0.00000000000E+00 0.  1.
    9000005    1    1    2  502    0 -0.12608761421E+03 -0.18824211130E+03 -0.13989034242E+04  0.14725026211E+04  0.40000000000E+03 0. -1.
   -9000005    1    1    2    0  501  0.12608761421E+03  0.18824211130E+03 -0.14725515511E+04  0.15426409983E+04  0.40000000000E+03 0. -1.
<mgrwt>
<rscale>  2 0.45970989E+03</rscale>
<asrwt>0</asrwt>
<pdfrwt beam="1">  1        2 0.45281518E+00 0.45970989E+03</pdfrwt>
<pdfrwt beam="2">  1       -2 0.11052975E-01 0.45970989E+03</pdfrwt>
<totfact> 0.12131665E+02</totfact>
</mgrwt>
</event>
<event>
 4    1  0.2318373E-002  0.5026907E+03  0.7818608E-02  0.1013079E+00
          2   -1    0    0  502    0  0.00000000000E+00  0.00000000000E+00  0.60648665508E+03  0.60648665508E+03  0.00000000000E+00 0.  1.
         -2   -1    0    0    0  501 -0.00000000000E+00 -0.00000000000E+00 -0.46209685316E+03  0.46209685316E+03  0.00000000000E+00 0. -1.
    9000005    1    1    2  502    0  0.21420347470E+03  0.21636721277E+03  0.23973649077E+03  0.55693041248E+03  0.40000000000E+03 0. -1.
   -9000005    1    1    2    0  501 -0.21420347470E+03 -0.21636721277E+03 -0.95346688848E+02  0.51165309577E+03  0.40000000000E+03 0. -1.
<mgrwt>
<rscale>  2 0.50269066E+03</rscale>
<asrwt>0</asrwt>
<pdfrwt beam="1">  1        2 0.93305639E-01 0.50269066E+03</pdfrwt>
<pdfrwt beam="2">  1       -2 0.71091824E-01 0.50269066E+03</pdfrwt>
<totfact> 0.90594547E+01</totfact>
</mgrwt>
</event>
<event>
 4    1  0.2318373E-002  0.4780366E+03  0.7818608E-02  0.1019676E+00
         -2   -1    0    0    0  501 -0.00000000000E+00  0.00000000000E+00  0.86524021970E+02  0.86524021970E+02  0.00000000000E+00 0.  1.
          2   -1    0    0  502    0  0.00000000000E+00 -0.00000000000E+00 -0.26440790415E+04  0.26440790415E+04  0.00000000000E+00 0. -1.
    9000005    1    1    2  502    0 -0.22494652271E+03 -0.13385848311E+03 -0.13245664978E+04  0.14081887085E+04  0.40000000000E+03 0.  1.
   -9000005    1    1    2    0  501  0.22494652271E+03  0.13385848311E+03 -0.12329885217E+04  0.13224143550E+04  0.40000000000E+03 0.  1.
<mgrwt>
<rscale>  2 0.47803664E+03</rscale>
<asrwt>0</asrwt>
<pdfrwt beam="1">  1        2 0.40678140E+00 0.47803664E+03</pdfrwt>
<pdfrwt beam="2">  1       -2 0.13311388E-01 0.47803664E+03</pdfrwt>
<totfact> 0.13307046E+02</totfact>
</mgrwt>
</event>
<event>
 4    1  0.2318373E-002  0.4464242E+03  0.7818608E-02  0.1028794E+00
         -2   -1    0    0    0  501 -0.00000000000E+00  0.00000000000E+00  0.18069342639E+03  0.18069342639E+03  0.00000000000E+00 0.  1.
          2   -1    0    0  502    0  0.00000000000E+00 -0.00000000000E+00 -0.12129114972E+04  0.12129114972E+04  0.00000000000E+00 0. -1.
    9000005    1    1    2  502    0  0.19742799321E+03  0.17797614358E+02 -0.72592043011E+03  0.85220598357E+03  0.40000000000E+03 0.  1.
   -9000005    1    1    2    0  501 -0.19742799321E+03 -0.17797614358E+02 -0.30629764073E+03  0.54139894006E+03  0.40000000000E+03 0.  1.
<mgrwt>
<rscale>  2 0.44642420E+03</rscale>
<asrwt>0</asrwt>
<pdfrwt beam="1">  1        2 0.18660177E+00 0.44642420E+03</pdfrwt>
<pdfrwt beam="2">  1       -2 0.27798989E-01 0.44642420E+03</pdfrwt>
<totfact> 0.22763761E+02</totfact>
</mgrwt>
</event>
<event>
 4    1  0.2318373E-002  0.4351659E+03  0.7818608E-02  0.1032240E+00
          2   -1    0    0  502    0  0.00000000000E+00  0.00000000000E+00  0.41027730681E+03  0.41027730681E+03  0.00000000000E+00 0.  1.
         -2   -1    0    0    0  501 -0.00000000000E+00 -0.00000000000E+00 -0.46856805159E+03  0.46856805159E+03  0.00000000000E+00 0. -1.
    9000005    1    1    2  502    0 -0.14225123316E+03  0.95571645969E+02  0.24577828584E+02  0.43585940681E+03  0.40000000000E+03 0. -1.
   -9000005    1    1    2    0  501  0.14225123316E+03 -0.95571645969E+02 -0.82868573360E+02  0.44298595158E+03  0.40000000000E+03 0.  1.
<mgrwt>
<rscale>  2 0.43516589E+03</rscale>
<asrwt>0</asrwt>
<pdfrwt beam="1">  1        2 0.63119586E-01 0.43516589E+03</pdfrwt>
<pdfrwt beam="2">  1       -2 0.72087392E-01 0.43516589E+03</pdfrwt>
<totfact> 0.13838540E+02</totfact>
</mgrwt>
</event>
<event>
 4    1  0.2318373E-002  0.6202567E+03  0.7818608E-02  0.9864249E-01
         -3   -1    0    0    0  501 -0.00000000000E+00  0.00000000000E+00  0.37491989722E+03  0.37491989722E+03  0.00000000000E+00 0.  1.
          3   -1    0    0  502    0  0.00000000000E+00 -0.00000000000E+00 -0.13153542517E+04  0.13153542517E+04  0.00000000000E+00 0. -1.
    9000005    1    1    2  502    0 -0.45281308145E+03  0.14028075470E+03 -0.86651299600E+03  0.10656280538E+04  0.40000000000E+03 0. -1.
   -9000005    1    1    2    0  501  0.45281308145E+03 -0.14028075470E+03 -0.73921358479E+02  0.62464609509E+03  0.40000000000E+03 0.  1.
<mgrwt>
<rscale>  2 0.62025670E+03</rscale>
<asrwt>0</asrwt>
<pdfrwt beam="1">  1        3 0.20236220E+00 0.62025670E+03</pdfrwt>
<pdfrwt beam="2">  1       -3 0.57679983E-01 0.62025670E+03</pdfrwt>
<totfact> 0.11063293E+00</totfact>
</mgrwt>
</event>
<event>
 4    1  0.2318373E-002  0.4369452E+03  0.7818608E-02  0.1031688E+00
          2   -1    0    0  502    0  0.00000000000E+00  0.00000000000E+00  0.66483035095E+03  0.66483035095E+03  0.00000000000E+00 0.  1.
         -2   -1    0    0    0  501 -0.00000000000E+00 -0.00000000000E+00 -0.31648622542E+03  0.31648622542E+03  0.00000000000E+00 0. -1.
    9000005    1    1    2  502    0 -0.50013880578E+02  0.16858147198E+03  0.24845850662E+02  0.43765102221E+03  0.40000000000E+03 0. -1.
   -9000005    1    1    2    0  501  0.50013880578E+02 -0.16858147198E+03  0.32349827487E+03  0.54366555417E+03  0.40000000000E+03 0. -1.
<mgrwt>
<rscale>  2 0.43694519E+03</rscale>
<asrwt>0</asrwt>
<pdfrwt beam="1">  1        2 0.10228159E+00 0.43694519E+03</pdfrwt>
<pdfrwt beam="2">  1       -2 0.48690189E-01 0.43694519E+03</pdfrwt>
<totfact> 0.17983925E+02</totfact>
</mgrwt>
</event>
<event>
 4    1  0.2318373E-002  0.4287210E+03  0.7818608E-02  0.1034265E+00
         -4   -1    0    0    0  501 -0.00000000000E+00  0.00000000000E+00  0.10136281528E+03  0.10136281528E+03  0.00000000000E+00 0. -1.
          4   -1    0    0  502    0  0.00000000000E+00 -0.00000000000E+00 -0.20126546377E+04  0.20126546377E+04  0.00000000000E+00 0.  1.
    9000005    1    1    2  502    0  0.11797117539E+03 -0.99420922741E+02 -0.62298523052E+03  0.75624884499E+03  0.40000000000E+03 0. -1.
   -9000005    1    1    2    0  501 -0.11797117539E+03  0.99420922741E+02 -0.12883065919E+04  0.13577686080E+04  0.40000000000E+03 0.  1.
<mgrwt>
<rscale>  2 0.42872103E+03</rscale>
<asrwt>0</asrwt>
<pdfrwt beam="1">  1        4 0.30963917E+00 0.42872103E+03</pdfrwt>
<pdfrwt beam="2">  1       -4 0.15594280E-01 0.42872103E+03</pdfrwt>
<totfact> 0.20259161E+00</totfact>
</mgrwt>
</event>
<event>
 4    1  0.2318373E-002  0.5686980E+03  0.7818608E-02  0.9972564E-01
         -2   -1    0    0    0  501 -0.00000000000E+00  0.00000000000E+00  0.51756745268E+03  0.51756745268E+03  0.00000000000E+00 0.  1.
          2   -1    0    0  502    0  0.00000000000E+00 -0.00000000000E+00 -0.64318465487E+03  0.64318465487E+03  0.00000000000E+00 0. -1.
    9000005    1    1    2  502    0  0.37387809661E+03  0.15372880133E+03  0.35101255950E+02  0.56978019767E+03  0.40000000000E+03 0.  1.
   -9000005    1    1    2    0  501 -0.37387809661E+03 -0.15372880133E+03 -0.16071845813E+03  0.59097190988E+03  0.40000000000E+03 0. -1.
<mgrwt>
<rscale>  2 0.56869797E+03</rscale>
<asrwt>0</asrwt>
<pdfrwt beam="1">  1        2 0.98951485E-01 0.56869797E+03</pdfrwt>
<pdfrwt beam="2">  1       -2 0.79625762E-01 0.56869797E+03</pdfrwt>
<totfact> 0.65326316E+01</totfact>
</mgrwt>
</event>
<event>
 4    1  0.2318373E-002  0.4221444E+03  0.7818608E-02  0.1036371E+00
         -1   -1    0    0    0  501 -0.00000000000E+00  0.00000000000E+00  0.30906544816E+03  0.30906544816E+03  0.00000000000E+00 0.  1.
          1   -1    0    0  502    0  0.00000000000E+00 -0.00000000000E+00 -0.61532224462E+03  0.61532224462E+03  0.00000000000E+00 0. -1.
    9000005    1    1    2  502    0  0.13489114186E+03  0.32078623648E+01 -0.37177164724E+02  0.42377830538E+03  0.40000000000E+03 0.  1.
   -9000005    1    1    2    0  501 -0.13489114186E+03 -0.32078623648E+01 -0.26907963174E+03  0.50060938740E+03  0.40000000000E+03 0. -1.
<mgrwt>
<rscale>  2 0.42214442E+03</rscale>
<asrwt>0</asrwt>
<pdfrwt beam="1">  1        1 0.94664960E-01 0.42214442E+03</pdfrwt>
<pdfrwt beam="2">  1       -1 0.47548531E-01 0.42214442E+03</pdfrwt>
<totfact> 0.15189138E+02</totfact>
</mgrwt>
</event>
<event>
 4    1  0.2318373E-002  0.4272175E+03  0.7818608E-02  0.1034743E+00
         -1   -1    0    0    0  501 -0.00000000000E+00  0.00000000000E+00  0.12815684393E+03  0.12815684393E+03  0.00000000000E+00 0. -1.
          1   -1    0    0  502    0  0.00000000000E+00 -0.00000000000E+00 -0.14343001199E+04  0.14343001199E+04  0.00000000000E+00 0.  1.
    9000005    1    1    2  502    0  0.98498118773E+02  0.11319407625E+03 -0.58735751090E+03  0.72629444712E+03  0.40000000000E+03 0.  1.
   -9000005    1    1    2    0  501 -0.98498118773E+02 -0.11319407625E+03 -0.71878576511E+03  0.83616251675E+03  0.40000000000E+03 0.  1.
<mgrwt>
<rscale>  2 0.42721748E+03</rscale>
<asrwt>0</asrwt>
<pdfrwt beam="1">  1        1 0.22066155E+00 0.42721748E+03</pdfrwt>
<pdfrwt beam="2">  1       -1 0.19716438E-01 0.42721748E+03</pdfrwt>
<totfact> 0.16037314E+02</totfact>
</mgrwt>
</event>
<event>
 4    1  0.2318373E-002  0.4933155E+03  0.7818608E-02  0.1015539E+00
         -2   -1    0    0    0  501 -0.00000000000E+00  0.00000000000E+00  0.80762751553E+03  0.80762751553E+03  0.00000000000E+00 0. -1.
          2   -1    0    0  502    0  0.00000000000E+00 -0.00000000000E+00 -0.97840854316E+03  0.97840854316E+03  0.00000000000E+00 0.  1.
    9000005    1    1    2  502    0  0.28050808094E+03 -0.68376643593E+02 -0.82827369855E+03  0.96405262749E+03  0.40000000000E+03 0.  1.
   -9000005    1    1    2    0  501 -0.28050808094E+03  0.68376643593E+02  0.65749267091E+03  0.82198343120E+03  0.40000000000E+03 0. -1.
<mgrwt>
<rscale>  2 0.49331547E+03</rscale>
<asrwt>0</asrwt>
<pdfrwt beam="1">  1        2 0.15052439E+00 0.49331547E+03</pdfrwt>
<pdfrwt beam="2">  1       -2 0.12425039E+00 0.49331547E+03</pdfrwt>
<totfact> 0.13342428E+01</totfact>
</mgrwt>
</event>
<event>
 4    1  0.2318373E-002  0.4664654E+03  0.7818608E-02  0.1022923E+00
         -2   -1    0    0    0  501 -0.00000000000E+00  0.00000000000E+00  0.25345533211E+03  0.25345533211E+03  0.00000000000E+00 0.  1.
          2   -1    0    0  502    0  0.00000000000E+00 -0.00000000000E+00 -0.15452661138E+04  0.15452661138E+04  0.00000000000E+00 0. -1.
    9000005    1    1    2  502    0 -0.23451082363E+03 -0.50937601749E+02 -0.12454734633E+04  0.13299601924E+04  0.40000000000E+03 0. -1.
   -9000005    1    1    2    0  501  0.23451082363E+03  0.50937601749E+02 -0.46337318373E+02  0.46876125346E+03  0.40000000000E+03 0.  1.
<mgrwt>
<rscale>  2 0.46646540E+03</rscale>
<asrwt>0</asrwt>
<pdfrwt beam="1">  1        2 0.23773325E+00 0.46646540E+03</pdfrwt>
<pdfrwt beam="2">  1       -2 0.38993128E-01 0.46646540E+03</pdfrwt>
<totfact> 0.78612377E+01</totfact>
</mgrwt>
</event>
<event>
 4    1  0.2318373E-002  0.4580326E+03  0.7818608E-02  0.1025353E+00
         -2   -1    0    0    0  501 -0.00000000000E+00  0.00000000000E+00  0.63113486644E+02  0.63113486644E+02  0.00000000000E+00 0. -1.
          2   -1    0    0  502    0  0.00000000000E+00 -0.00000000000E+00 -0.34377728900E+04  0.34377728900E+04  0.00000000000E+00 0.  1.
    9000005    1    1    2  502    0  0.22158826226E+03 -0.26314814457E+02 -0.20056686208E+04  0.20573041690E+04  0.40000000000E+03 0.  1.
   -9000005    1    1    2    0  501 -0.22158826226E+03  0.26314814457E+02 -0.13689907826E+04  0.14435822076E+04  0.40000000000E+03 0. -1.
<mgrwt>
<rscale>  2 0.45803256E+03</rscale>
<asrwt>0</asrwt>
<pdfrwt beam="1">  1        2 0.52888833E+00 0.45803256E+03</pdfrwt>
<pdfrwt beam="2">  1       -2 0.97097636E-02 0.45803256E+03</pdfrwt>
<totfact> 0.73271158E+01</totfact>
</mgrwt>
</event>
<event>
 4    1  0.2318373E-002  0.4935937E+03  0.7818608E-02  0.1015465E+00
          1   -1    0    0  502    0  0.00000000000E+00  0.00000000000E+00  0.45594934684E+03  0.45594934684E+03  0.00000000000E+00 0. -1.
         -1   -1    0    0    0  501 -0.00000000000E+00 -0.00000000000E+00 -0.53621039419E+03  0.53621039419E+03  0.00000000000E+00 0.  1.
    9000005    1    1    2  502    0  0.28142521472E+03 -0.66592413821E+02 -0.69382490017E+02  0.49844621673E+03  0.40000000000E+03 0.  1.
   -9000005    1    1    2    0  501 -0.28142521472E+03  0.66592413821E+02 -0.10878557334E+02  0.49371352429E+03  0.40000000000E+03 0.  1.
<mgrwt>
<rscale>  2 0.49359366E+03</rscale>
<asrwt>0</asrwt>
<pdfrwt beam="1">  1        1 0.70146053E-01 0.49359366E+03</pdfrwt>
<pdfrwt beam="2">  1       -1 0.82493907E-01 0.49359366E+03</pdfrwt>
<totfact> 0.76590130E+01</totfact>
</mgrwt>
</event>
<event>
 4    1  0.2318373E-002  0.4007934E+03  0.7818608E-02  0.1043505E+00
          2   -1    0    0  502    0  0.00000000000E+00  0.00000000000E+00  0.18733438942E+04  0.18733438942E+04  0.00000000000E+00 0.  1.
         -2   -1    0    0    0  501 -0.00000000000E+00 -0.00000000000E+00 -0.87037730328E+02  0.87037730328E+02  0.00000000000E+00 0. -1.
    9000005    1    1    2  502    0  0.37324086464E+01 -0.24928143830E+02  0.77383130920E+03  0.87146442172E+03  0.40000000000E+03 0. -1.
   -9000005    1    1    2    0  501 -0.37324086464E+01  0.24928143830E+02  0.10124748547E+04  0.10889172028E+04  0.40000000000E+03 0.  1.
<mgrwt>
<rscale>  2 0.40079339E+03</rscale>
<asrwt>0</asrwt>
<pdfrwt beam="1">  1        2 0.28820672E+00 0.40079339E+03</pdfrwt>
<pdfrwt beam="2">  1       -2 0.13390421E-01 0.40079339E+03</pdfrwt>
<totfact> 0.35179402E+02</totfact>
</mgrwt>
</event>
<event>
 4    1  0.2318373E-002  0.6142400E+03  0.7818608E-02  0.9876295E-01
          3   -1    0    0  502    0  0.00000000000E+00  0.00000000000E+00  0.24462428945E+03  0.24462428945E+03  0.00000000000E+00 0. -1.
         -3   -1    0    0    0  501 -0.00000000000E+00 -0.00000000000E+00 -0.30381073841E+04  0.30381073841E+04  0.00000000000E+00 0.  1.
    9000005    1    1    2  502    0  0.21004806439E+03  0.41613772870E+03 -0.25484370109E+04  0.26214160290E+04  0.40000000000E+03 0.  1.
   -9000005    1    1    2    0  501 -0.21004806439E+03 -0.41613772870E+03 -0.24504608379E+03  0.66131564459E+03  0.40000000000E+03 0. -1.
<mgrwt>
<rscale>  2 0.61424002E+03</rscale>
<asrwt>0</asrwt>
<pdfrwt beam="1">  1        3 0.37634505E-01 0.61424002E+03</pdfrwt>
<pdfrwt beam="2">  1       -3 0.46740115E+00 0.61424002E+03</pdfrwt>
<totfact> 0.88575600E-02</totfact>
</mgrwt>
</event>
<event>
 4    1  0.2318373E-002  0.4795192E+03  0.7818608E-02  0.1019267E+00
          3   -1    0    0  502    0  0.00000000000E+00  0.00000000000E+00  0.16400247512E+04  0.16400247512E+04  0.00000000000E+00 0. -1.
         -3   -1    0    0    0  501 -0.00000000000E+00 -0.00000000000E+00 -0.14666653198E+03  0.14666653198E+03  0.00000000000E+00 0.  1.
    9000005    1    1    2  502    0 -0.25679550661E+03  0.63203852709E+02  0.93419690005E+03  0.10500773816E+04  0.40000000000E+03 0. -1.
   -9000005    1    1    2    0  501  0.25679550661E+03 -0.63203852709E+02  0.55916131917E+03  0.73661390162E+03  0.40000000000E+03 0.  1.
<mgrwt>
<rscale>  2 0.47951920E+03</rscale>
<asrwt>0</asrwt>
<pdfrwt beam="1">  1        3 0.25231149E+00 0.47951920E+03</pdfrwt>
<pdfrwt beam="2">  1       -3 0.22564083E-01 0.47951920E+03</pdfrwt>
<totfact> 0.35535795E+00</totfact>
</mgrwt>
</event>
<event>
 4    1  0.2318373E-002  0.4532289E+03  0.7818608E-02  0.1026764E+00
         -2   -1    0    0    0  501 -0.00000000000E+00  0.00000000000E+00  0.23210587799E+03  0.23210587799E+03  0.00000000000E+00 0. -1.
          2   -1    0    0  502    0  0.00000000000E+00 -0.00000000000E+00 -0.91826813059E+03  0.91826813059E+03  0.00000000000E+00 0.  1.
    9000005    1    1    2  502    0 -0.10782186735E+02  0.21283836425E+03 -0.23361949298E+03  0.50989655063E+03  0.40000000000E+03 0. -1.
   -9000005    1    1    2    0  501  0.10782186735E+02 -0.21283836425E+03 -0.45254275963E+03  0.64047745795E+03  0.40000000000E+03 0.  1.
<mgrwt>
<rscale>  2 0.45322889E+03</rscale>
<asrwt>0</asrwt>
<pdfrwt beam="1">  1        2 0.14127202E+00 0.45322889E+03</pdfrwt>
<pdfrwt beam="2">  1       -2 0.35708596E-01 0.45322889E+03</pdfrwt>
<totfact> 0.21645018E+02</totfact>
</mgrwt>
</event>
<event>
 4    1  0.2318373E-002  0.4499237E+03  0.7818608E-02  0.1027745E+00
          2   -1    0    0  502    0  0.00000000000E+00  0.00000000000E+00  0.18380798784E+03  0.18380798784E+03  0.00000000000E+00 0. -1.
         -2   -1    0    0    0  501 -0.00000000000E+00 -0.00000000000E+00 -0.11093766031E+04  0.11093766031E+04  0.00000000000E+00 0.  1.
    9000005    1    1    2  502    0 -0.97807744549E+02 -0.18128710153E+03 -0.40768151349E+03  0.60715367455E+03  0.40000000000E+03 0. -1.
   -9000005    1    1    2    0  501  0.97807744549E+02  0.18128710153E+03 -0.51788710179E+03  0.68603091641E+03  0.40000000000E+03 0. -1.
<mgrwt>
<rscale>  2 0.44992374E+03</rscale>
<asrwt>0</asrwt>
<pdfrwt beam="1">  1        2 0.28278152E-01 0.44992374E+03</pdfrwt>
<pdfrwt beam="2">  1       -2 0.17067332E+00 0.44992374E+03</pdfrwt>
<totfact> 0.41553162E+01</totfact>
</mgrwt>
</event>
<event>
 4    1  0.2318373E-002  0.4515480E+03  0.7818608E-02  0.1027261E+00
          2   -1    0    0  502    0  0.00000000000E+00  0.00000000000E+00  0.10935174798E+04  0.10935174798E+04  0.00000000000E+00 0.  1.
         -2   -1    0    0    0  501 -0.00000000000E+00 -0.00000000000E+00 -0.28096844519E+03  0.28096844519E+03  0.00000000000E+00 0. -1.
    9000005    1    1    2  502    0 -0.18786617591E+03  0.92746360706E+02  0.80485898435E+03  0.92287245715E+03  0.40000000000E+03 0.  1.
   -9000005    1    1    2    0  501  0.18786617591E+03 -0.92746360706E+02  0.76900502734E+01  0.45161346785E+03  0.40000000000E+03 0. -1.
<mgrwt>
<rscale>  2 0.45154799E+03</rscale>
<asrwt>0</asrwt>
<pdfrwt beam="1">  1        2 0.16823346E+00 0.45154799E+03</pdfrwt>
<pdfrwt beam="2">  1       -2 0.43225915E-01 0.45154799E+03</pdfrwt>
<totfact> 0.11632553E+02</totfact>
</mgrwt>
</event>
<event>
 4    1  0.2318373E-002  0.5604161E+03  0.7818608E-02  0.9991114E-01
         -2   -1    0    0    0  501 -0.00000000000E+00  0.00000000000E+00  0.26655292183E+03  0.26655292183E+03  0.00000000000E+00 0. -1.
          2   -1    0    0  502    0  0.00000000000E+00 -0.00000000000E+00 -0.15214279641E+04  0.15214279641E+04  0.00000000000E+00 0.  1.
    9000005    1    1    2  502    0  0.35584520965E+03 -0.16565140947E+03 -0.10520241834E+04  0.11919819987E+04  0.40000000000E+03 0.  1.
   -9000005    1    1    2    0  501 -0.35584520965E+03  0.16565140947E+03 -0.20285085887E+03  0.59599888727E+03  0.40000000000E+03 0. -1.
<mgrwt>
<rscale>  2 0.56041610E+03</rscale>
<asrwt>0</asrwt>
<pdfrwt beam="1">  1        2 0.23406584E+00 0.56041610E+03</pdfrwt>
<pdfrwt beam="2">  1       -2 0.41008142E-01 0.56041610E+03</pdfrwt>
<totfact> 0.72486857E+01</totfact>
</mgrwt>
</event>
<event>
 4    1  0.2318373E-002  0.5033566E+03  0.7818608E-02  0.1012906E+00
         -1   -1    0    0    0  501 -0.00000000000E+00  0.00000000000E+00  0.41477683065E+03  0.41477683065E+03  0.00000000000E+00 0.  1.
          1   -1    0    0  502    0  0.00000000000E+00 -0.00000000000E+00 -0.62154834427E+03  0.62154834427E+03  0.00000000000E+00 0. -1.
    9000005    1    1    2  502    0 -0.30553779907E+03 -0.38148817788E+01 -0.35416145331E+02  0.50460103382E+03  0.40000000000E+03 0.  1.
   -9000005    1    1    2    0  501  0.30553779907E+03  0.38148817788E+01 -0.17135536829E+03  0.53172414110E+03  0.40000000000E+03 0.  1.
<mgrwt>
<rscale>  2 0.50335663E+03</rscale>
<asrwt>0</asrwt>
<pdfrwt beam="1">  1        1 0.95622822E-01 0.50335663E+03</pdfrwt>
<pdfrwt beam="2">  1       -1 0.63811821E-01 0.50335663E+03</pdfrwt>
<totfact> 0.84457207E+01</totfact>
</mgrwt>
</event>
<event>
 4    1  0.2318373E-002  0.4391885E+03  0.7818608E-02  0.1030996E+00
         -1   -1    0    0    0  501 -0.00000000000E+00  0.00000000000E+00  0.17854510673E+03  0.17854510673E+03  0.00000000000E+00 0. -1.
          1   -1    0    0  502    0  0.00000000000E+00 -0.00000000000E+00 -0.10866195967E+04  0.10866195967E+04  0.00000000000E+00 0.  1.
    9000005    1    1    2  502    0  0.99477440479E+02 -0.15162705818E+03 -0.50218810877E+03  0.66714273025E+03  0.40000000000E+03 0. -1.
   -9000005    1    1    2    0  501 -0.99477440479E+02  0.15162705818E+03 -0.40588638116E+03  0.59802197313E+03  0.40000000000E+03 0.  1.
<mgrwt>
<rscale>  2 0.43918849E+03</rscale>
<asrwt>0</asrwt>
<pdfrwt beam="1">  1        1 0.16717224E+00 0.43918849E+03</pdfrwt>
<pdfrwt beam="2">  1       -1 0.27468479E-01 0.43918849E+03</pdfrwt>
<totfact> 0.16144914E+02</totfact>
</mgrwt>
</event>
<event>
 4    1  0.2318373E-002  0.4457185E+03  0.7818608E-02  0.1029007E+00
         -3   -1    0    0    0  501 -0.00000000000E+00  0.00000000000E+00  0.52253322294E+03  0.52253322294E+03  0.00000000000E+00 0.  1.
          3   -1    0    0  502    0  0.00000000000E+00 -0.00000000000E+00 -0.38624220025E+03  0.38624220025E+03  0.00000000000E+00 0. -1.
    9000005    1    1    2  502    0 -0.14287637686E+03 -0.13509753500E+03  0.11294184411E+02  0.44586159470E+03  0.40000000000E+03 0. -1.
   -9000005    1    1    2    0  501  0.14287637686E+03  0.13509753500E+03  0.12499683829E+03  0.46291382849E+03  0.40000000000E+03 0.  1.
<mgrwt>
<rscale>  2 0.44571852E+03</rscale>
<asrwt>0</asrwt>
<pdfrwt beam="1">  1        3 0.59421877E-01 0.44571852E+03</pdfrwt>
<pdfrwt beam="2">  1       -3 0.80389726E-01 0.44571852E+03</pdfrwt>
<totfact> 0.10380540E+01</totfact>
</mgrwt>
</event>
<event>
 4    1  0.2318373E-002  0.5023207E+03  0.7818608E-02  0.1013175E+00
         -1   -1    0    0    0  501 -0.00000000000E+00  0.00000000000E+00  0.23209059765E+03  0.23209059765E+03  0.00000000000E+00 0. -1.
          1   -1    0    0  502    0  0.00000000000E+00 -0.00000000000E+00 -0.11137958728E+04  0.11137958728E+04  0.00000000000E+00 0.  1.
    9000005    1    1    2  502    0  0.31202808033E+01  0.30383611510E+03 -0.33684136372E+03  0.60480428677E+03  0.40000000000E+03 0. -1.
   -9000005    1    1    2    0  501 -0.31202808033E+01 -0.30383611510E+03 -0.54486391148E+03  0.74108218371E+03  0.40000000000E+03 0.  1.
<mgrwt>
<rscale>  2 0.50232074E+03</rscale>
<asrwt>0</asrwt>
<pdfrwt beam="1">  1        1 0.17135321E+00 0.50232074E+03</pdfrwt>
<pdfrwt beam="2">  1       -1 0.35706247E-01 0.50232074E+03</pdfrwt>
<totfact> 0.96970896E+01</totfact>
</mgrwt>
</event>
<event>
 4    1  0.2318373E-002  0.4261481E+03  0.7818608E-02  0.1035084E+00
         -1   -1    0    0    0  501 -0.00000000000E+00  0.00000000000E+00  0.34672052409E+03  0.34672052409E+03  0.00000000000E+00 0.  1.
          1   -1    0    0  502    0  0.00000000000E+00 -0.00000000000E+00 -0.56636464471E+03  0.56636464471E+03  0.00000000000E+00 0. -1.
    9000005    1    1    2  502    0  0.81098466565E+02  0.12257742099E+03 -0.23502230842E+03  0.48665970747E+03  0.40000000000E+03 0. -1.
   -9000005    1    1    2    0  501 -0.81098466565E+02 -0.12257742099E+03  0.15378187804E+02  0.42642546134E+03  0.40000000000E+03 0. -1.
<mgrwt>
<rscale>  2 0.42614808E+03</rscale>
<asrwt>0</asrwt>
<pdfrwt beam="1">  1        1 0.87133021E-01 0.42614808E+03</pdfrwt>
<pdfrwt beam="2">  1       -1 0.53341620E-01 0.42614808E+03</pdfrwt>
<totfact> 0.13753048E+02</totfact>
</mgrwt>
</event>
<event>
 4    1  0.2318373E-002  0.4523016E+03  0.7818608E-02  0.1027038E+00
          2   -1    0    0  502    0  0.00000000000E+00  0.00000000000E+00  0.24332862717E+03  0.24332862717E+03  0.00000000000E+00 0.  1.
         -2   -1    0    0    0  501 -0.00000000000E+00 -0.00000000000E+00 -0.21830682659E+04  0.21830682659E+04  0.00000000000E+00 0. -1.
    9000005    1    1    2  502    0  0.76046483069E+02  0.19696116720E+03 -0.18548746779E+02  0.45268181428E+03  0.40000000000E+03 0.  1.
   -9000005    1    1    2    0  501 -0.76046483069E+02 -0.19696116720E+03 -0.19211908919E+04  0.19737150788E+04  0.40000000000E+03 0. -1.
<mgrwt>
<rscale>  2 0.45230163E+03</rscale>
<asrwt>0</asrwt>
<pdfrwt beam="1">  1        2 0.37435173E-01 0.45230163E+03</pdfrwt>
<pdfrwt beam="2">  1       -2 0.33585666E+00 0.45230163E+03</pdfrwt>
<totfact> 0.29327774E+00</totfact>
</mgrwt>
</event>
<event>
 4    1  0.2318373E-002  0.5258502E+03  0.7818608E-02  0.1007244E+00
          1   -1    0    0  502    0  0.00000000000E+00  0.00000000000E+00  0.99368090065E+03  0.99368090065E+03  0.00000000000E+00 0.  1.
         -1   -1    0    0    0  501 -0.00000000000E+00 -0.00000000000E+00 -0.28686659564E+03  0.28686659564E+03  0.00000000000E+00 0. -1.
    9000005    1    1    2  502    0 -0.20190236696E+03  0.27523428446E+03  0.46420049508E+03  0.70142752780E+03  0.40000000000E+03 0.  1.
   -9000005    1    1    2    0  501  0.20190236696E+03 -0.27523428446E+03  0.24261380993E+03  0.57911996849E+03  0.40000000000E+03 0. -1.
<mgrwt>
<rscale>  2 0.52585024E+03</rscale>
<asrwt>0</asrwt>
<pdfrwt beam="1">  1        1 0.15287398E+00 0.52585024E+03</pdfrwt>
<pdfrwt beam="2">  1       -1 0.44133323E-01 0.52585024E+03</pdfrwt>
<totfact> 0.81191632E+01</totfact>
</mgrwt>
</event>
<event>
 4    1  0.2318373E-002  0.4237087E+03  0.7818608E-02  0.1035866E+00
          2   -1    0    0  502    0  0.00000000000E+00  0.00000000000E+00  0.92304499205E+03  0.92304499205E+03  0.00000000000E+00 0. -1.
         -2   -1    0    0    0  501 -0.00000000000E+00 -0.00000000000E+00 -0.19987325276E+03  0.19987325276E+03  0.00000000000E+00 0.  1.
    9000005    1    1    2  502    0  0.53602389700E+02 -0.12905752902E+03  0.45367301530E+03  0.62076426024E+03  0.40000000000E+03 0. -1.
   -9000005    1    1    2    0  501 -0.53602389700E+02  0.12905752902E+03  0.26949872399E+03  0.50215398456E+03  0.40000000000E+03 0. -1.
<mgrwt>
<rscale>  2 0.42370870E+03</rscale>
<asrwt>0</asrwt>
<pdfrwt beam="1">  1        2 0.14200692E+00 0.42370870E+03</pdfrwt>
<pdfrwt beam="2">  1       -2 0.30749732E-01 0.42370870E+03</pdfrwt>
<totfact> 0.28494606E+02</totfact>
</mgrwt>
</event>
<event>
 4    1  0.2318373E-002  0.6511963E+03  0.7818608E-02  0.9804537E-01
         -2   -1    0    0    0  501 -0.00000000000E+00  0.00000000000E+00  0.53858371331E+03  0.53858371331E+03  0.00000000000E+00 0. -1.
          2   -1    0    0  502    0  0.00000000000E+00 -0.00000000000E+00 -0.11497284340E+04  0.11497284340E+04  0.00000000000E+00 0.  1.
    9000005    1    1    2  502    0 -0.35591440812E+03 -0.37065009506E+03 -0.77949047851E+03  0.10157076178E+04  0.40000000000E+03 0.  1.
   -9000005    1    1    2    0  501  0.35591440812E+03  0.37065009506E+03  0.16834575781E+03  0.67260452946E+03  0.40000000000E+03 0. -1.
<mgrwt>
<rscale>  2 0.65119625E+03</rscale>
<asrwt>0</asrwt>
<pdfrwt beam="1">  1        2 0.17688130E+00 0.65119625E+03</pdfrwt>
<pdfrwt beam="2">  1       -2 0.82859034E-01 0.65119625E+03</pdfrwt>
<totfact> 0.26697994E+01</totfact>
</mgrwt>
</event>
<event>
 4    1  0.2318373E-002  0.1025703E+04  0.7818608E-02  0.9280794E-01
         -2   -1    0    0    0  501 -0.00000000000E+00  0.00000000000E+00  0.58064928906E+03  0.58064928906E+03  0.00000000000E+00 0.  1.
          2   -1    0    0  502    0  0.00000000000E+00 -0.00000000000E+00 -0.24824665990E+04  0.24824665990E+04  0.00000000000E+00 0. -1.
    9000005    1    1    2  502    0 -0.77189798803E+03  0.54428030962E+03 -0.17469190805E+04  0.20257822769E+04  0.40000000000E+03 0. -1.
   -9000005    1    1    2    0  501  0.77189798803E+03 -0.54428030962E+03 -0.15489822938E+03  0.10373336112E+04  0.40000000000E+03 0.  1.
<mgrwt>
<rscale>  2 0.10257034E+04</rscale>
<asrwt>0</asrwt>
<pdfrwt beam="1">  1        2 0.38191794E+00 0.10257034E+04</pdfrwt>
<pdfrwt beam="2">  1       -2 0.89330660E-01 0.10257034E+04</pdfrwt>
<totfact> 0.38531207E+00</totfact>
</mgrwt>
</event>
<event>
 4    1  0.2318373E-002  0.4058919E+03  0.7818608E-02  0.1041758E+00
          3   -1    0    0  502    0  0.00000000000E+00  0.00000000000E+00  0.39688205068E+03  0.39688205068E+03  0.00000000000E+00 0.  1.
         -3   -1    0    0    0  501 -0.00000000000E+00 -0.00000000000E+00 -0.48406139037E+03  0.48406139037E+03  0.00000000000E+00 0. -1.
    9000005    1    1    2  502    0 -0.67481117262E+02  0.13947082008E+02  0.12265629474E+03  0.42401979780E+03  0.40000000000E+03 0.  1.
   -9000005    1    1    2    0  501  0.67481117262E+02 -0.13947082008E+02 -0.20983563444E+03  0.45692364325E+03  0.40000000000E+03 0. -1.
<mgrwt>
<rscale>  2 0.40589188E+03</rscale>
<asrwt>0</asrwt>
<pdfrwt beam="1">  1        3 0.61058777E-01 0.40589188E+03</pdfrwt>
<pdfrwt beam="2">  1       -3 0.74470983E-01 0.40589188E+03</pdfrwt>
<totfact> 0.11582469E+01</totfact>
</mgrwt>
</event>
<event>
 4    1  0.2318373E-002  0.4916561E+03  0.7818608E-02  0.1015980E+00
          2   -1    0    0  502    0  0.00000000000E+00  0.00000000000E+00  0.86651239377E+03  0.86651239377E+03  0.00000000000E+00 0.  1.
         -2   -1    0    0    0  501 -0.00000000000E+00 -0.00000000000E+00 -0.41601556323E+03  0.41601556323E+03  0.00000000000E+00 0. -1.
    9000005    1    1    2  502    0  0.21287046146E+03  0.19081905278E+03  0.59331304779E+03  0.77054923071E+03  0.40000000000E+03 0.  1.
   -9000005    1    1    2    0  501 -0.21287046146E+03 -0.19081905278E+03 -0.14281621726E+03  0.51197872629E+03  0.40000000000E+03 0. -1.
<mgrwt>
<rscale>  2 0.49165612E+03</rscale>
<asrwt>0</asrwt>
<pdfrwt beam="1">  1        2 0.13330960E+00 0.49165612E+03</pdfrwt>
<pdfrwt beam="2">  1       -2 0.64002395E-01 0.49165612E+03</pdfrwt>
<totfact> 0.72407446E+01</totfact>
</mgrwt>
</event>
<event>
 4    1  0.2318373E-002  0.4294284E+03  0.7818608E-02  0.1034041E+00
          2   -1    0    0  502    0  0.00000000000E+00  0.00000000000E+00  0.25540911136E+04  0.25540911136E+04  0.00000000000E+00 0.  1.
         -2   -1    0    0    0  501 -0.00000000000E+00 -0.00000000000E+00 -0.87273722656E+02  0.87273722656E+02  0.00000000000E+00 0. -1.
    9000005    1    1    2  502    0 -0.60714150740E+02  0.14395329991E+03  0.68456607619E+03  0.80810857769E+03  0.40000000000E+03 0. -1.
   -9000005    1    1    2    0  501  0.60714150740E+02 -0.14395329991E+03  0.17822513148E+04  0.18332562586E+04  0.40000000000E+03 0.  1.
<mgrwt>
<rscale>  2 0.42942841E+03</rscale>
<asrwt>0</asrwt>
<pdfrwt beam="1">  1        2 0.39293704E+00 0.42942841E+03</pdfrwt>
<pdfrwt beam="2">  1       -2 0.13426729E-01 0.42942841E+03</pdfrwt>
<totfact> 0.14882839E+02</totfact>
</mgrwt>
</event>
<event>
 4    1  0.2318373E-002  0.4764311E+03  0.7818608E-02  0.1020121E+00
          2   -1    0    0  502    0  0.00000000000E+00  0.00000000000E+00  0.43033442532E+04  0.43033442532E+04  0.00000000000E+00 0.  1.
         -2   -1    0    0    0  501 -0.00000000000E+00 -0.00000000000E+00 -0.53457339806E+02  0.53457339806E+02  0.00000000000E+00 0. -1.
    9000005    1    1    2  502    0  0.25852816474E+03  0.12238261333E+02  0.18737530820E+04  0.19333745626E+04  0.40000000000E+03 0. -1.
   -9000005    1    1    2    0  501 -0.25852816474E+03 -0.12238261333E+02  0.23761338314E+04  0.24234270304E+04  0.40000000000E+03 0. -1.
<mgrwt>
<rscale>  2 0.47643109E+03</rscale>
<asrwt>0</asrwt>
<pdfrwt beam="1">  1        2 0.66205269E+00 0.47643109E+03</pdfrwt>
<pdfrwt beam="2">  1       -2 0.82242095E-02 0.47643109E+03</pdfrwt>
<totfact> 0.21194921E+01</totfact>
</mgrwt>
</event>
<event>
 4    1  0.2318373E-002  0.4801583E+03  0.7818608E-02  0.1019092E+00
         -2   -1    0    0    0  501 -0.00000000000E+00  0.00000000000E+00  0.14115396176E+03  0.14115396176E+03  0.00000000000E+00 0. -1.
          2   -1    0    0  502    0  0.00000000000E+00 -0.00000000000E+00 -0.16355651320E+04  0.16355651320E+04  0.00000000000E+00 0.  1.
    9000005    1    1    2  502    0  0.22286228561E+03  0.14451419046E+03 -0.71441477694E+03  0.86077896297E+03  0.40000000000E+03 0. -1.
   -9000005    1    1    2    0  501 -0.22286228561E+03 -0.14451419046E+03 -0.77999639326E+03  0.91594013073E+03  0.40000000000E+03 0. -1.
<mgrwt>
<rscale>  2 0.48015825E+03</rscale>
<asrwt>0</asrwt>
<pdfrwt beam="1">  1        2 0.25162538E+00 0.48015825E+03</pdfrwt>
<pdfrwt beam="2">  1       -2 0.21715996E-01 0.48015825E+03</pdfrwt>
<totfact> 0.20521935E+02</totfact>
</mgrwt>
</event>
<event>
 4    1  0.2318373E-002  0.4114998E+03  0.7818608E-02  0.1039869E+00
         -2   -1    0    0    0  501 -0.00000000000E+00  0.00000000000E+00  0.49198941405E+03  0.49198941405E+03  0.00000000000E+00 0. -1.
          2   -1    0    0  502    0  0.00000000000E+00 -0.00000000000E+00 -0.38527095757E+03  0.38527095757E+03  0.00000000000E+00 0.  1.
    9000005    1    1    2  502    0 -0.89660572274E+02  0.35959622936E+02 -0.89891600959E+02  0.42120376616E+03  0.40000000000E+03 0.  1.
   -9000005    1    1    2    0  501  0.89660572274E+02 -0.35959622936E+02  0.19661005743E+03  0.45605660546E+03  0.40000000000E+03 0. -1.
<mgrwt>
<rscale>  2 0.41149983E+03</rscale>
<asrwt>0</asrwt>
<pdfrwt beam="1">  1        2 0.59272454E-01 0.41149983E+03</pdfrwt>
<pdfrwt beam="2">  1       -2 0.75690680E-01 0.41149983E+03</pdfrwt>
<totfact> 0.13356371E+02</totfact>
</mgrwt>
</event>
<event>
 4    1  0.2318373E-002  0.4118686E+03  0.7818608E-02  0.1039746E+00
          1   -1    0    0  502    0  0.00000000000E+00  0.00000000000E+00  0.13486802748E+04  0.13486802748E+04  0.00000000000E+00 0. -1.
         -1   -1    0    0    0  501 -0.00000000000E+00 -0.00000000000E+00 -0.22629235905E+03  0.22629235905E+03  0.00000000000E+00 0.  1.
    9000005    1    1    2  502    0  0.84889219294E+02 -0.49290885349E+02  0.36362593165E+02  0.41347068713E+03  0.40000000000E+03 0.  1.
   -9000005    1    1    2    0  501 -0.84889219294E+02  0.49290885349E+02  0.10860253226E+04  0.11615019467E+04  0.40000000000E+03 0. -1.
<mgrwt>
<rscale>  2 0.41186863E+03</rscale>
<asrwt>0</asrwt>
<pdfrwt beam="1">  1        1 0.20748927E+00 0.41186863E+03</pdfrwt>
<pdfrwt beam="2">  1       -1 0.34814210E-01 0.41186863E+03</pdfrwt>
<totfact> 0.70069730E+01</totfact>
</mgrwt>
</event>
<event>
 4    1  0.2318373E-002  0.4654392E+03  0.7818608E-02  0.1023215E+00
         -1   -1    0    0    0  501 -0.00000000000E+00  0.00000000000E+00  0.16480816921E+03  0.16480816921E+03  0.00000000000E+00 0.  1.
          1   -1    0    0  502    0  0.00000000000E+00 -0.00000000000E+00 -0.14969503315E+04  0.14969503315E+04  0.00000000000E+00 0. -1.
    9000005    1    1    2  502    0 -0.22977504297E+03  0.61943805257E+02 -0.95617604775E+03  0.10634407551E+04  0.40000000000E+03 0. -1.
   -9000005    1    1    2    0  501  0.22977504297E+03 -0.61943805257E+02 -0.37596611453E+03  0.59831774556E+03  0.40000000000E+03 0.  1.
<mgrwt>
<rscale>  2 0.46543915E+03</rscale>
<asrwt>0</asrwt>
<pdfrwt beam="1">  1        1 0.23030005E+00 0.46543915E+03</pdfrwt>
<pdfrwt beam="2">  1       -1 0.25355103E-01 0.46543915E+03</pdfrwt>
<totfact> 0.95069819E+01</totfact>
</mgrwt>
</event>
<event>
 4    1  0.2318373E-002  0.4439195E+03  0.7818608E-02  0.1029551E+00
         -2   -1    0    0    0  501 -0.00000000000E+00  0.00000000000E+00  0.21332676358E+03  0.21332676358E+03  0.00000000000E+00 0. -1.
          2   -1    0    0  502    0  0.00000000000E+00 -0.00000000000E+00 -0.20389206491E+04  0.20389206491E+04  0.00000000000E+00 0.  1.
    9000005    1    1    2  502    0  0.17580091008E+03 -0.78476370244E+02 -0.79973307739E+02  0.45106566110E+03  0.40000000000E+03 0. -1.
   -9000005    1    1    2    0  501 -0.17580091008E+03  0.78476370244E+02 -0.17456205777E+04  0.18011817515E+04  0.40000000000E+03 0.  1.
<mgrwt>
<rscale>  2 0.44391948E+03</rscale>
<asrwt>0</asrwt>
<pdfrwt beam="1">  1        2 0.31368010E+00 0.44391948E+03</pdfrwt>
<pdfrwt beam="2">  1       -2 0.32819502E-01 0.44391948E+03</pdfrwt>
<totfact> 0.59399081E+01</totfact>
</mgrwt>
</event>
<event>
 4    1  0.2318373E-002  0.4144697E+03  0.7818608E-02  0.1038881E+00
         -2   -1    0    0    0  501 -0.00000000000E+00  0.00000000000E+00  0.82187167692E+03  0.82187167692E+03  0.00000000000E+00 0. -1.
          2   -1    0    0  502    0  0.00000000000E+00 -0.00000000000E+00 -0.30074128568E+03  0.30074128568E+03  0.00000000000E+00 0.  1.
    9000005    1    1    2  502    0  0.10852199206E+03 -0.28512267100E+01  0.57055377957E+03  0.70520689704E+03  0.40000000000E+03 0. -1.
   -9000005    1    1    2    0  501 -0.10852199206E+03  0.28512267100E+01 -0.49423388332E+02  0.41740606556E+03  0.40000000000E+03 0.  1.
<mgrwt>
<rscale>  2 0.41446972E+03</rscale>
<asrwt>0</asrwt>
<pdfrwt beam="1">  1        2 0.46267890E-01 0.41446972E+03</pdfrwt>
<pdfrwt beam="2">  1       -2 0.12644180E+00 0.41446972E+03</pdfrwt>
<totfact> 0.52855448E+01</totfact>
</mgrwt>
</event>
<event>
 4    1  0.2318373E-002  0.4266762E+03  0.7818608E-02  0.1034915E+00
         -2   -1    0    0    0  501 -0.00000000000E+00  0.00000000000E+00  0.30777574615E+03  0.30777574615E+03  0.00000000000E+00 0. -1.
          2   -1    0    0  502    0  0.00000000000E+00 -0.00000000000E+00 -0.62904944833E+03  0.62904944833E+03  0.00000000000E+00 0.  1.
    9000005    1    1    2  502    0 -0.10619588391E+03 -0.10380288097E+03 -0.27506342082E+03  0.50765390704E+03  0.40000000000E+03 0.  1.
   -9000005    1    1    2    0  501  0.10619588391E+03  0.10380288097E+03 -0.46210281359E+02  0.42917128744E+03  0.40000000000E+03 0.  1.
<mgrwt>
<rscale>  2 0.42667623E+03</rscale>
<asrwt>0</asrwt>
<pdfrwt beam="1">  1        2 0.96776837E-01 0.42667623E+03</pdfrwt>
<pdfrwt beam="2">  1       -2 0.47350115E-01 0.42667623E+03</pdfrwt>
<totfact> 0.20350939E+02</totfact>
</mgrwt>
</event>
<event>
 4    1  0.2318373E-002  0.6419518E+03  0.7818608E-02  0.9821999E-01
          2   -1    0    0  502    0  0.00000000000E+00  0.00000000000E+00  0.90352265753E+03  0.90352265753E+03  0.00000000000E+00 0.  1.
         -2   -1    0    0    0  501 -0.00000000000E+00 -0.00000000000E+00 -0.50963106573E+03  0.50963106573E+03  0.00000000000E+00 0. -1.
    9000005    1    1    2  502    0 -0.16425164068E+03 -0.47447183259E+03 -0.32040766163E+02  0.64275090983E+03  0.40000000000E+03 0. -1.
   -9000005    1    1    2    0  501  0.16425164068E+03  0.47447183259E+03  0.42593235796E+03  0.77040281343E+03  0.40000000000E+03 0.  1.
<mgrwt>
<rscale>  2 0.64195181E+03</rscale>
<asrwt>0</asrwt>
<pdfrwt beam="1">  1        2 0.13900349E+00 0.64195181E+03</pdfrwt>
<pdfrwt beam="2">  1       -2 0.78404780E-01 0.64195181E+03</pdfrwt>
<totfact> 0.43228894E+01</totfact>
</mgrwt>
</event>
<event>
 4    1  0.2318373E-002  0.6679851E+03  0.7818608E-02  0.9773605E-01
          2   -1    0    0  502    0  0.00000000000E+00  0.00000000000E+00  0.20017507569E+04  0.20017507569E+04  0.00000000000E+00 0. -1.
         -2   -1    0    0    0  501 -0.00000000000E+00 -0.00000000000E+00 -0.24408873913E+03  0.24408873913E+03  0.00000000000E+00 0.  1.
    9000005    1    1    2  502    0  0.58065271045E+02 -0.53181996214E+03  0.54803769639E+03  0.86403088168E+03  0.40000000000E+03 0.  1.
   -9000005    1    1    2    0  501 -0.58065271045E+02  0.53181996214E+03  0.12096243214E+04  0.13818086143E+04  0.40000000000E+03 0.  1.
<mgrwt>
<rscale>  2 0.66798507E+03</rscale>
<asrwt>0</asrwt>
<pdfrwt beam="1">  1        2 0.30796164E+00 0.66798507E+03</pdfrwt>
<pdfrwt beam="2">  1       -2 0.37552115E-01 0.66798507E+03</pdfrwt>
<totfact> 0.46436167E+01</totfact>
</mgrwt>
</event>
<event>
 4    1  0.2318373E-002  0.4975026E+03  0.7818608E-02  0.1014433E+00
          1   -1    0    0  502    0  0.00000000000E+00  0.00000000000E+00  0.82540709116E+03  0.82540709116E+03  0.00000000000E+00 0.  1.
         -1   -1    0    0    0  501 -0.00000000000E+00 -0.00000000000E+00 -0.37154722768E+03  0.37154722768E+03  0.00000000000E+00 0. -1.
    9000005    1    1    2  502    0 -0.25558567205E+03  0.14894577593E+03  0.48980717075E+03  0.69815467086E+03  0.40000000000E+03 0.  1.
   -9000005    1    1    2    0  501  0.25558567205E+03 -0.14894577593E+03 -0.35947307265E+02  0.49879964798E+03  0.40000000000E+03 0. -1.
<mgrwt>
<rscale>  2 0.49750264E+03</rscale>
<asrwt>0</asrwt>
<pdfrwt beam="1">  1        1 0.12698571E+00 0.49750264E+03</pdfrwt>
<pdfrwt beam="2">  1       -1 0.57161112E-01 0.49750264E+03</pdfrwt>
<totfact> 0.68312075E+01</totfact>
</mgrwt>
</event>
<event>
 4    1  0.2318373E-002  0.6547806E+03  0.7818608E-02  0.9797850E-01
         -3   -1    0    0    0  501 -0.00000000000E+00  0.00000000000E+00  0.68924123133E+03  0.68924123133E+03  0.00000000000E+00 0. -1.
          3   -1    0    0  502    0  0.00000000000E+00 -0.00000000000E+00 -0.72837746680E+03  0.72837746680E+03  0.00000000000E+00 0.  1.
    9000005    1    1    2  502    0 -0.46998099586E+03  0.21875904885E+03  0.25125659436E+03  0.70133268435E+03  0.40000000000E+03 0.  1.
   -9000005    1    1    2    0  501  0.46998099586E+03 -0.21875904885E+03 -0.29039282983E+03  0.71628601378E+03  0.40000000000E+03 0. -1.
<mgrwt>
<rscale>  2 0.65478062E+03</rscale>
<asrwt>0</asrwt>
<pdfrwt beam="1">  1        3 0.11205807E+00 0.65478062E+03</pdfrwt>
<pdfrwt beam="2">  1       -3 0.10603711E+00 0.65478062E+03</pdfrwt>
<totfact> 0.13243217E+00</totfact>
</mgrwt>
</event>
<event>
 4    1  0.2318373E-002  0.4165178E+03  0.7818608E-02  0.1038206E+00
         -1   -1    0    0    0  501 -0.00000000000E+00  0.00000000000E+00  0.36410237348E+03  0.36410237348E+03  0.00000000000E+00 0.  1.
          1   -1    0    0  502    0  0.00000000000E+00 -0.00000000000E+00 -0.50062814134E+03  0.50062814134E+03  0.00000000000E+00 0. -1.
    9000005    1    1    2  502    0 -0.11666637446E+02  0.11554636939E+03 -0.16322393449E+03  0.44735794025E+03  0.40000000000E+03 0. -1.
   -9000005    1    1    2    0  501  0.11666637446E+02 -0.11554636939E+03  0.26698166631E+02  0.41737257458E+03  0.40000000000E+03 0.  1.
<mgrwt>
<rscale>  2 0.41651780E+03</rscale>
<asrwt>0</asrwt>
<pdfrwt beam="1">  1        1 0.77019714E-01 0.41651780E+03</pdfrwt>
<pdfrwt beam="2">  1       -1 0.56015749E-01 0.41651780E+03</pdfrwt>
<totfact> 0.14853270E+02</totfact>
</mgrwt>
</event>
<event>
 4    1  0.2318373E-002  0.4092161E+03  0.7818608E-02  0.1040634E+00
         -2   -1    0    0    0  501 -0.00000000000E+00  0.00000000000E+00  0.45864213370E+03  0.45864213370E+03  0.00000000000E+00 0.  1.
          2   -1    0    0  502    0  0.00000000000E+00 -0.00000000000E+00 -0.37385601413E+03  0.37385601413E+03  0.00000000000E+00 0. -1.
    9000005    1    1    2  502    0 -0.33960569954E+02 -0.79401000819E+02  0.10603496726E+03  0.42273071041E+03  0.40000000000E+03 0.  1.
   -9000005    1    1    2    0  501  0.33960569954E+02  0.79401000819E+02 -0.21248847685E+02  0.40976743742E+03  0.40000000000E+03 0. -1.
<mgrwt>
<rscale>  2 0.40921613E+03</rscale>
<asrwt>0</asrwt>
<pdfrwt beam="1">  1        2 0.57516310E-01 0.40921613E+03</pdfrwt>
<pdfrwt beam="2">  1       -2 0.70560328E-01 0.40921613E+03</pdfrwt>
<totfact> 0.16096976E+02</totfact>
</mgrwt>
</event>
<event>
 4    1  0.2318373E-002  0.5050021E+03  0.7818608E-02  0.1012481E+00
          1   -1    0    0  502    0  0.00000000000E+00  0.00000000000E+00  0.32770144626E+04  0.32770144626E+04  0.00000000000E+00 0. -1.
         -1   -1    0    0    0  501 -0.00000000000E+00 -0.00000000000E+00 -0.79375079865E+02  0.79375079865E+02  0.00000000000E+00 0.  1.
    9000005    1    1    2  502    0 -0.19427462662E+03  0.23934171255E+03  0.13641495898E+04  0.14546240714E+04  0.40000000000E+03 0.  1.
   -9000005    1    1    2    0  501  0.19427462662E+03 -0.23934171255E+03  0.18334897930E+04  0.19017654710E+04  0.40000000000E+03 0. -1.
<mgrwt>
<rscale>  2 0.50500207E+03</rscale>
<asrwt>0</asrwt>
<pdfrwt beam="1">  1        1 0.50415597E+00 0.50500207E+03</pdfrwt>
<pdfrwt beam="2">  1       -1 0.12211553E-01 0.50500207E+03</pdfrwt>
<totfact> 0.19061504E+01</totfact>
</mgrwt>
</event>
<event>
 4    1  0.2318373E-002  0.4021566E+03  0.7818608E-02  0.1043035E+00
          2   -1    0    0  502    0  0.00000000000E+00  0.00000000000E+00  0.34204459735E+04  0.34204459735E+04  0.00000000000E+00 0. -1.
         -2   -1    0    0    0  501 -0.00000000000E+00 -0.00000000000E+00 -0.63114650783E+02  0.63114650783E+02  0.00000000000E+00 0.  1.
    9000005    1    1    2  502    0  0.30657382013E+02  0.28107879478E+02  0.25510090067E+04  0.25825136748E+04  0.40000000000E+03 0. -1.
   -9000005    1    1    2    0  501 -0.30657382013E+02 -0.28107879478E+02  0.80632231595E+03  0.90104694947E+03  0.40000000000E+03 0.  1.
<mgrwt>
<rscale>  2 0.40215660E+03</rscale>
<asrwt>0</asrwt>
<pdfrwt beam="1">  1        2 0.52622231E+00 0.40215660E+03</pdfrwt>
<pdfrwt beam="2">  1       -2 0.97099490E-02 0.40215660E+03</pdfrwt>
<totfact> 0.76310862E+01</totfact>
</mgrwt>
</event>
<event>
 4    1  0.2318373E-002  0.4372943E+03  0.7818608E-02  0.1031580E+00
         -1   -1    0    0    0  501 -0.00000000000E+00  0.00000000000E+00  0.78394253112E+03  0.78394253112E+03  0.00000000000E+00 0. -1.
          1   -1    0    0  502    0  0.00000000000E+00 -0.00000000000E+00 -0.26595199119E+03  0.26595199119E+03  0.00000000000E+00 0.  1.
    9000005    1    1    2  502    0 -0.13816477878E+03  0.11016706794E+03  0.41005634283E+03  0.59947684963E+03  0.40000000000E+03 0. -1.
   -9000005    1    1    2    0  501  0.13816477878E+03 -0.11016706794E+03  0.10793419711E+03  0.45041767267E+03  0.40000000000E+03 0.  1.
<mgrwt>
<rscale>  2 0.43729428E+03</rscale>
<asrwt>0</asrwt>
<pdfrwt beam="1">  1        1 0.40915691E-01 0.43729428E+03</pdfrwt>
<pdfrwt beam="2">  1       -1 0.12060654E+00 0.43729428E+03</pdfrwt>
<totfact> 0.65735983E+01</totfact>
</mgrwt>
</event>
<event>
 4    1  0.2318373E-002  0.4890510E+03  0.7818608E-02  0.1016677E+00
         -1   -1    0    0    0  501 -0.00000000000E+00  0.00000000000E+00  0.38751951291E+03  0.38751951291E+03  0.00000000000E+00 0. -1.
          1   -1    0    0  502    0  0.00000000000E+00 -0.00000000000E+00 -0.75226761605E+03  0.75226761605E+03  0.00000000000E+00 0.  1.
    9000005    1    1    2  502    0 -0.28047317952E+03  0.22488196688E+02 -0.42386929156E+03  0.64717547832E+03  0.40000000000E+03 0.  1.
   -9000005    1    1    2    0  501  0.28047317952E+03 -0.22488196688E+02  0.59121188416E+02  0.49261165063E+03  0.40000000000E+03 0. -1.
<mgrwt>
<rscale>  2 0.48905104E+03</rscale>
<asrwt>0</asrwt>
<pdfrwt beam="1">  1        1 0.11573348E+00 0.48905104E+03</pdfrwt>
<pdfrwt beam="2">  1       -1 0.59618387E-01 0.48905104E+03</pdfrwt>
<totfact> 0.72869252E+01</totfact>
</mgrwt>
</event>
<event>
 4    1  0.2318373E-002  0.1330135E+04  0.7818608E-02  0.9006003E-01
          2   -1    0    0  502    0  0.00000000000E+00  0.00000000000E+00  0.36541411353E+04  0.36541411353E+04  0.00000000000E+00 0. -1.
         -2   -1    0    0    0  501 -0.00000000000E+00 -0.00000000000E+00 -0.58958280834E+03  0.58958280834E+03  0.00000000000E+00 0.  1.
    9000005    1    1    2  502    0  0.72312125032E+03 -0.10422833117E+04  0.63511353916E+03  0.14739837353E+04  0.40000000000E+03 0.  1.
   -9000005    1    1    2    0  501 -0.72312125032E+03  0.10422833117E+04  0.24294447878E+04  0.27697402083E+04  0.40000000000E+03 0. -1.
<mgrwt>
<rscale>  2 0.13301349E+04</rscale>
<asrwt>0</asrwt>
<pdfrwt beam="1">  1        2 0.56217554E+00 0.13301349E+04</pdfrwt>
<pdfrwt beam="2">  1       -2 0.90705050E-01 0.13301349E+04</pdfrwt>
<totfact> 0.64625550E-01</totfact>
</mgrwt>
</event>
<event>
 4    1  0.2318373E-002  0.6287246E+03  0.7818608E-02  0.9847541E-01
         -2   -1    0    0    0  501 -0.00000000000E+00  0.00000000000E+00  0.51104915963E+03  0.51104915963E+03  0.00000000000E+00 0.  1.
          2   -1    0    0  502    0  0.00000000000E+00 -0.00000000000E+00 -0.77408745936E+03  0.77408745936E+03  0.00000000000E+00 0. -1.
    9000005    1    1    2  502    0 -0.40072907413E+02 -0.48341366284E+03 -0.11376107809E+03  0.63893363522E+03  0.40000000000E+03 0. -1.
   -9000005    1    1    2    0  501  0.40072907413E+02  0.48341366284E+03 -0.14927722164E+03  0.64620298377E+03  0.40000000000E+03 0. -1.
<mgrwt>
<rscale>  2 0.62872459E+03</rscale>
<asrwt>0</asrwt>
<pdfrwt beam="1">  1        2 0.11909038E+00 0.62872459E+03</pdfrwt>
<pdfrwt beam="2">  1       -2 0.78622947E-01 0.62872459E+03</pdfrwt>
<totfact> 0.52945968E+01</totfact>
</mgrwt>
</event>
<event>
 4    1  0.2318373E-002  0.4636296E+03  0.7818608E-02  0.1023734E+00
         -2   -1    0    0    0  501 -0.00000000000E+00  0.00000000000E+00  0.14398517606E+03  0.14398517606E+03  0.00000000000E+00 0.  1.
          2   -1    0    0  502    0  0.00000000000E+00 -0.00000000000E+00 -0.18798068481E+04  0.18798068481E+04  0.00000000000E+00 0. -1.
    9000005    1    1    2  502    0 -0.23433452362E+03  0.63061790018E+01 -0.13269971002E+04  0.14056577609E+04  0.40000000000E+03 0. -1.
   -9000005    1    1    2    0  501  0.23433452362E+03 -0.63061790018E+01 -0.40882457177E+03  0.61813426320E+03  0.40000000000E+03 0.  1.
<mgrwt>
<rscale>  2 0.46362963E+03</rscale>
<asrwt>0</asrwt>
<pdfrwt beam="1">  1        2 0.28920104E+00 0.46362963E+03</pdfrwt>
<pdfrwt beam="2">  1       -2 0.22151566E-01 0.46362963E+03</pdfrwt>
<totfact> 0.14679775E+02</totfact>
</mgrwt>
</event>
<event>
 4    1  0.2318373E-002  0.4699602E+03  0.7818608E-02  0.1021931E+00
          2   -1    0    0  502    0  0.00000000000E+00  0.00000000000E+00  0.88698899762E+03  0.88698899762E+03  0.00000000000E+00 0. -1.
         -2   -1    0    0    0  501 -0.00000000000E+00 -0.00000000000E+00 -0.28939461876E+03  0.28939461876E+03  0.00000000000E+00 0.  1.
    9000005    1    1    2  502    0  0.24353894620E+03 -0.39387241404E+02  0.79050932449E+02  0.47656229710E+03  0.40000000000E+03 0.  1.
   -9000005    1    1    2    0  501 -0.24353894620E+03  0.39387241404E+02  0.51854344641E+03  0.69982131928E+03  0.40000000000E+03 0. -1.
<mgrwt>
<rscale>  2 0.46996018E+03</rscale>
<asrwt>0</asrwt>
<pdfrwt beam="1">  1        2 0.13645984E+00 0.46996018E+03</pdfrwt>
<pdfrwt beam="2">  1       -2 0.44522249E-01 0.46996018E+03</pdfrwt>
<totfact> 0.14792186E+02</totfact>
</mgrwt>
</event>
<event>
 4    1  0.2318373E-002  0.4862460E+03  0.7818608E-02  0.1017433E+00
         -1   -1    0    0    0  501 -0.00000000000E+00  0.00000000000E+00  0.76477638023E+03  0.76477638023E+03  0.00000000000E+00 0. -1.
          1   -1    0    0  502    0  0.00000000000E+00 -0.00000000000E+00 -0.33231192682E+03  0.33231192682E+03  0.00000000000E+00 0.  1.
    9000005    1    1    2  502    0 -0.69868977575E+02  0.26749483527E+03  0.71431656962E+02  0.49146479278E+03  0.40000000000E+03 0.  1.
   -9000005    1    1    2    0  501  0.69868977575E+02 -0.26749483527E+03  0.36103279645E+03  0.60562351427E+03  0.40000000000E+03 0. -1.
<mgrwt>
<rscale>  2 0.48624599E+03</rscale>
<asrwt>0</asrwt>
<pdfrwt beam="1">  1        1 0.51124912E-01 0.48624599E+03</pdfrwt>
<pdfrwt beam="2">  1       -1 0.11765790E+00 0.48624599E+03</pdfrwt>
<totfact> 0.52127596E+01</totfact>
</mgrwt>
</event>
<event>
 4    1  0.2318373E-002  0.4645375E+03  0.7818608E-02  0.1023473E+00
         -1   -1    0    0    0  501 -0.00000000000E+00  0.00000000000E+00  0.52918427159E+03  0.52918427159E+03  0.00000000000E+00 0.  1.
          1   -1    0    0  502    0  0.00000000000E+00 -0.00000000000E+00 -0.54835511632E+03  0.54835511632E+03  0.00000000000E+00 0. -1.
    9000005    1    1    2  502    0 -0.45669197948E+02 -0.23175292405E+03 -0.28236621755E+03  0.54362282352E+03  0.40000000000E+03 0. -1.
   -9000005    1    1    2    0  501  0.45669197948E+02  0.23175292405E+03  0.26319537282E+03  0.53391656438E+03  0.40000000000E+03 0.  1.
<mgrwt>
<rscale>  2 0.46453750E+03</rscale>
<asrwt>0</asrwt>
<pdfrwt beam="1">  1        1 0.84362326E-01 0.46453750E+03</pdfrwt>
<pdfrwt beam="2">  1       -1 0.81412965E-01 0.46453750E+03</pdfrwt>
<totfact> 0.61506807E+01</totfact>
</mgrwt>
</event>
<event>
 4    1  0.2318373E-002  0.4956045E+03  0.7818608E-02  0.1014933E+00
          1   -1    0    0  502    0  0.00000000000E+00  0.00000000000E+00  0.11984841342E+04  0.11984841342E+04  0.00000000000E+00 0.  1.
         -1   -1    0    0    0  501 -0.00000000000E+00 -0.00000000000E+00 -0.20592133509E+03  0.20592133509E+03  0.00000000000E+00 0. -1.
    9000005    1    1    2  502    0  0.29031891555E+03  0.36589385536E+02  0.54462220110E+03  0.73636756976E+03  0.40000000000E+03 0.  1.
   -9000005    1    1    2    0  501 -0.29031891555E+03 -0.36589385536E+02  0.44794059802E+03  0.66803789954E+03  0.40000000000E+03 0. -1.
<mgrwt>
<rscale>  2 0.49560454E+03</rscale>
<asrwt>0</asrwt>
<pdfrwt beam="1">  1        1 0.18438217E+00 0.49560454E+03</pdfrwt>
<pdfrwt beam="2">  1       -1 0.31680206E-01 0.49560454E+03</pdfrwt>
<totfact> 0.10398251E+02</totfact>
</mgrwt>
</event>
<event>
 4    1  0.2318373E-002  0.4581562E+03  0.7818608E-02  0.1025317E+00
          2   -1    0    0  502    0  0.00000000000E+00  0.00000000000E+00  0.28052474569E+04  0.28052474569E+04  0.00000000000E+00 0.  1.
         -2   -1    0    0    0  501 -0.00000000000E+00 -0.00000000000E+00 -0.92815315223E+02  0.92815315223E+02  0.00000000000E+00 0. -1.
    9000005    1    1    2  502    0 -0.96345846915E+02 -0.20155544499E+03  0.19941388137E+04  0.20460930399E+04  0.40000000000E+03 0.  1.
   -9000005    1    1    2    0  501  0.96345846915E+02  0.20155544499E+03  0.71829332803E+03  0.85196973228E+03  0.40000000000E+03 0. -1.
<mgrwt>
<rscale>  2 0.45815622E+03</rscale>
<asrwt>0</asrwt>
<pdfrwt beam="1">  1        2 0.43157647E+00 0.45815622E+03</pdfrwt>
<pdfrwt beam="2">  1       -2 0.14279281E-01 0.45815622E+03</pdfrwt>
<totfact> 0.96001386E+01</totfact>
</mgrwt>
</event>
<event>
 4    1  0.2318373E-002  0.5538746E+03  0.7818608E-02  0.1000601E+00
          1   -1    0    0  502    0  0.00000000000E+00  0.00000000000E+00  0.34514934490E+03  0.34514934490E+03  0.00000000000E+00 0. -1.
         -1   -1    0    0    0  501 -0.00000000000E+00 -0.00000000000E+00 -0.12131596890E+04  0.12131596890E+04  0.00000000000E+00 0.  1.
    9000005    1    1    2  502    0  0.38291938361E+03 -0.12241115526E+02 -0.31138050129E+02  0.55474920227E+03  0.40000000000E+03 0. -1.
   -9000005    1    1    2    0  501 -0.38291938361E+03  0.12241115526E+02 -0.83687229397E+03  0.10035598316E+04  0.40000000000E+03 0.  1.
<mgrwt>
<rscale>  2 0.55387462E+03</rscale>
<asrwt>0</asrwt>
<pdfrwt beam="1">  1        1 0.53099899E-01 0.55387462E+03</pdfrwt>
<pdfrwt beam="2">  1       -1 0.18663995E+00 0.55387462E+03</pdfrwt>
<totfact> 0.14364576E+01</totfact>
</mgrwt>
</event>
<event>
 4    1  0.2318373E-002  0.5323191E+03  0.7818608E-02  0.1005671E+00
         -1   -1    0    0    0  501 -0.00000000000E+00  0.00000000000E+00  0.50426327814E+03  0.50426327814E+03  0.00000000000E+00 0.  1.
          1   -1    0    0  502    0  0.00000000000E+00 -0.00000000000E+00 -0.56218053394E+03  0.56218053394E+03  0.00000000000E+00 0. -1.
    9000005    1    1    2  502    0  0.32421161601E+03 -0.13509420491E+03 -0.17834430032E+02  0.53261776449E+03  0.40000000000E+03 0. -1.
   -9000005    1    1    2    0  501 -0.32421161601E+03  0.13509420491E+03 -0.40082825772E+02  0.53382604758E+03  0.40000000000E+03 0. -1.
<mgrwt>
<rscale>  2 0.53231909E+03</rscale>
<asrwt>0</asrwt>
<pdfrwt beam="1">  1        1 0.86489312E-01 0.53231909E+03</pdfrwt>
<pdfrwt beam="2">  1       -1 0.77578966E-01 0.53231909E+03</pdfrwt>
<totfact> 0.65213459E+01</totfact>
</mgrwt>
</event>
<event>
 4    1  0.2318373E-002  0.4360358E+03  0.7818608E-02  0.1031970E+00
         -1   -1    0    0    0  501 -0.00000000000E+00  0.00000000000E+00  0.88477680162E+02  0.88477680162E+02  0.00000000000E+00 0. -1.
          1   -1    0    0  502    0  0.00000000000E+00 -0.00000000000E+00 -0.22712316383E+04  0.22712316383E+04  0.00000000000E+00 0.  1.
    9000005    1    1    2  502    0 -0.13491475489E+02 -0.17304689328E+03 -0.13652291159E+04  0.14331705363E+04  0.40000000000E+03 0. -1.
   -9000005    1    1    2    0  501  0.13491475489E+02  0.17304689328E+03 -0.81752484220E+03  0.92653878214E+03  0.40000000000E+03 0. -1.
<mgrwt>
<rscale>  2 0.43603583E+03</rscale>
<asrwt>0</asrwt>
<pdfrwt beam="1">  1        1 0.34942027E+00 0.43603583E+03</pdfrwt>
<pdfrwt beam="2">  1       -1 0.13611950E-01 0.43603583E+03</pdfrwt>
<totfact> 0.81333861E+01</totfact>
</mgrwt>
</event>
<event>
 4    1  0.2318373E-002  0.4317150E+03  0.7818608E-02  0.1033320E+00
         -3   -1    0    0    0  501 -0.00000000000E+00  0.00000000000E+00  0.63829446798E+03  0.63829446798E+03  0.00000000000E+00 0.  1.
          3   -1    0    0  502    0  0.00000000000E+00 -0.00000000000E+00 -0.33065662891E+03  0.33065662891E+03  0.00000000000E+00 0. -1.
    9000005    1    1    2  502    0  0.19371700543E+02 -0.16125301764E+03 -0.11846579357E+02  0.43187745938E+03  0.40000000000E+03 0. -1.
   -9000005    1    1    2    0  501 -0.19371700543E+02  0.16125301764E+03  0.31948441843E+03  0.53707363750E+03  0.40000000000E+03 0.  1.
<mgrwt>
<rscale>  2 0.43171495E+03</rscale>
<asrwt>0</asrwt>
<pdfrwt beam="1">  1        3 0.50870251E-01 0.43171495E+03</pdfrwt>
<pdfrwt beam="2">  1       -3 0.98199149E-01 0.43171495E+03</pdfrwt>
<totfact> 0.90933690E+00</totfact>
</mgrwt>
</event>
<event>
 4    1  0.2318373E-002  0.7367156E+03  0.7818608E-02  0.9656425E-01
          2   -1    0    0  502    0  0.00000000000E+00  0.00000000000E+00  0.20630255603E+04  0.20630255603E+04  0.00000000000E+00 0. -1.
         -2   -1    0    0    0  501 -0.00000000000E+00 -0.00000000000E+00 -0.27030487458E+03  0.27030487458E+03  0.00000000000E+00 0.  1.
    9000005    1    1    2  502    0 -0.11000758091E+03  0.60880886615E+03  0.10870386487E+04  0.13131652322E+04  0.40000000000E+03 0. -1.
   -9000005    1    1    2    0  501  0.11000758091E+03 -0.60880886615E+03  0.70568203707E+03  0.10201652027E+04  0.40000000000E+03 0.  1.
<mgrwt>
<rscale>  2 0.73671562E+03</rscale>
<asrwt>0</asrwt>
<pdfrwt beam="1">  1        2 0.31738854E+00 0.73671562E+03</pdfrwt>
<pdfrwt beam="2">  1       -2 0.41585367E-01 0.73671562E+03</pdfrwt>
<totfact> 0.34937914E+01</totfact>
</mgrwt>
</event>
<event>
 4    1  0.2318373E-002  0.4143710E+03  0.7818608E-02  0.1038914E+00
         -2   -1    0    0    0  501 -0.00000000000E+00  0.00000000000E+00  0.59689508237E+02  0.59689508237E+02  0.00000000000E+00 0.  1.
          2   -1    0    0  502    0  0.00000000000E+00 -0.00000000000E+00 -0.29473990600E+04  0.29473990600E+04  0.00000000000E+00 0. -1.
    9000005    1    1    2  502    0  0.42089771744E+02  0.99658285739E+02 -0.16768707306E+04  0.17273096913E+04  0.40000000000E+03 0. -1.
   -9000005    1    1    2    0  501 -0.42089771744E+02 -0.99658285739E+02 -0.12108388212E+04  0.12797788769E+04  0.40000000000E+03 0.  1.
<mgrwt>
<rscale>  2 0.41437100E+03</rscale>
<asrwt>0</asrwt>
<pdfrwt beam="1">  1        2 0.45344583E+00 0.41437100E+03</pdfrwt>
<pdfrwt beam="2">  1       -2 0.91830049E-02 0.41437100E+03</pdfrwt>
<totfact> 0.16420986E+02</totfact>
</mgrwt>
</event>
<event>
 4    1  0.2318373E-002  0.4952497E+03  0.7818608E-02  0.1015026E+00
         -1   -1    0    0    0  501 -0.00000000000E+00  0.00000000000E+00  0.22138969360E+03  0.22138969360E+03  0.00000000000E+00 0. -1.
          1   -1    0    0  502    0  0.00000000000E+00 -0.00000000000E+00 -0.11617432852E+04  0.11617432852E+04  0.00000000000E+00 0.  1.
    9000005    1    1    2  502    0  0.11266283816E+03  0.26940563227E+03 -0.32126066820E+03  0.59032256160E+03  0.40000000000E+03 0. -1.
   -9000005    1    1    2    0  501 -0.11266283816E+03 -0.26940563227E+03 -0.61909292337E+03  0.79281041717E+03  0.40000000000E+03 0. -1.
<mgrwt>
<rscale>  2 0.49524974E+03</rscale>
<asrwt>0</asrwt>
<pdfrwt beam="1">  1        1 0.17872974E+00 0.49524974E+03</pdfrwt>
<pdfrwt beam="2">  1       -1 0.34059952E-01 0.49524974E+03</pdfrwt>
<totfact> 0.97346708E+01</totfact>
</mgrwt>
</event>
<event>
 4    1  0.2318373E-002  0.4399551E+03  0.7818608E-02  0.1030761E+00
          2   -1    0    0  502    0  0.00000000000E+00  0.00000000000E+00  0.19529896819E+04  0.19529896819E+04  0.00000000000E+00 0.  1.
         -2   -1    0    0    0  501 -0.00000000000E+00 -0.00000000000E+00 -0.13177768969E+03  0.13177768969E+03  0.00000000000E+00 0. -1.
    9000005    1    1    2  502    0  0.78164024240E+02  0.16568309417E+03  0.14296054608E+04  0.14957714651E+04  0.40000000000E+03 0.  1.
   -9000005    1    1    2    0  501 -0.78164024240E+02 -0.16568309417E+03  0.39160653140E+03  0.58899590645E+03  0.40000000000E+03 0. -1.
<mgrwt>
<rscale>  2 0.43995511E+03</rscale>
<asrwt>0</asrwt>
<pdfrwt beam="1">  1        2 0.30045993E+00 0.43995511E+03</pdfrwt>
<pdfrwt beam="2">  1       -2 0.20273492E-01 0.43995511E+03</pdfrwt>
<totfact> 0.15717217E+02</totfact>
</mgrwt>
</event>
<event>
 4    1  0.2318373E-002  0.4271761E+03  0.7818608E-02  0.1034756E+00
          1   -1    0    0  502    0  0.00000000000E+00  0.00000000000E+00  0.50229038473E+03  0.50229038473E+03  0.00000000000E+00 0.  1.
         -1   -1    0    0    0  501 -0.00000000000E+00 -0.00000000000E+00 -0.48503995016E+03  0.48503995016E+03  0.00000000000E+00 0. -1.
    9000005    1    1    2  502    0 -0.14917663428E+03 -0.15024101420E+02 -0.23870085165E+03  0.48934393673E+03  0.40000000000E+03 0. -1.
   -9000005    1    1    2    0  501  0.14917663428E+03  0.15024101420E+02  0.25595128622E+03  0.49798639816E+03  0.40000000000E+03 0.  1.
<mgrwt>
<rscale>  2 0.42717607E+03</rscale>
<asrwt>0</asrwt>
<pdfrwt beam="1">  1        1 0.77275444E-01 0.42717607E+03</pdfrwt>
<pdfrwt beam="2">  1       -1 0.74621531E-01 0.42717607E+03</pdfrwt>
<totfact> 0.83576857E+01</totfact>
</mgrwt>
</event>
<event>
 4    1  0.2318373E-002  0.4633452E+03  0.7818608E-02  0.1023815E+00
         -2   -1    0    0    0  501 -0.00000000000E+00  0.00000000000E+00  0.30720236598E+03  0.30720236598E+03  0.00000000000E+00 0.  1.
          2   -1    0    0  502    0  0.00000000000E+00 -0.00000000000E+00 -0.85919098143E+03  0.85919098143E+03  0.00000000000E+00 0. -1.
    9000005    1    1    2  502    0  0.41586129875E+02  0.23012893770E+03 -0.24057940936E+02  0.46396930792E+03  0.40000000000E+03 0.  1.
   -9000005    1    1    2    0  501 -0.41586129875E+02 -0.23012893770E+03 -0.52793067451E+03  0.70242403949E+03  0.40000000000E+03 0. -1.
<mgrwt>
<rscale>  2 0.46334516E+03</rscale>
<asrwt>0</asrwt>
<pdfrwt beam="1">  1        2 0.13218322E+00 0.46334516E+03</pdfrwt>
<pdfrwt beam="2">  1       -2 0.47261904E-01 0.46334516E+03</pdfrwt>
<totfact> 0.13724652E+02</totfact>
</mgrwt>
</event>
<event>
 4    1  0.2318373E-002  0.4062674E+03  0.7818608E-02  0.1041631E+00
          2   -1    0    0  502    0  0.00000000000E+00  0.00000000000E+00  0.14621518121E+04  0.14621518121E+04  0.00000000000E+00 0.  1.
         -2   -1    0    0    0  501 -0.00000000000E+00 -0.00000000000E+00 -0.12130706999E+03  0.12130706999E+03  0.00000000000E+00 0. -1.
    9000005    1    1    2  502    0 -0.68270298091E+02 -0.19807855263E+02  0.87905166956E+03  0.96839301034E+03  0.40000000000E+03 0.  1.
   -9000005    1    1    2    0  501  0.68270298091E+02  0.19807855263E+02  0.46179307256E+03  0.61506587175E+03  0.40000000000E+03 0. -1.
<mgrwt>
<rscale>  2 0.40626738E+03</rscale>
<asrwt>0</asrwt>
<pdfrwt beam="1">  1        2 0.22494642E+00 0.40626738E+03</pdfrwt>
<pdfrwt beam="2">  1       -2 0.18662627E-01 0.40626738E+03</pdfrwt>
<totfact> 0.33459046E+02</totfact>
</mgrwt>
</event>
<event>
 4    1  0.2318373E-002  0.9580656E+03  0.7818608E-02  0.9355773E-01
         -2   -1    0    0    0  501 -0.00000000000E+00  0.00000000000E+00  0.25851046981E+03  0.25851046981E+03  0.00000000000E+00 0.  1.
          2   -1    0    0  502    0  0.00000000000E+00 -0.00000000000E+00 -0.35539429025E+04  0.35539429025E+04  0.00000000000E+00 0. -1.
    9000005    1    1    2  502    0  0.54314618710E+03 -0.68035419301E+03 -0.15900136316E+04  0.18563493629E+04  0.40000000000E+03 0.  1.
   -9000005    1    1    2    0  501 -0.54314618710E+03  0.68035419301E+03 -0.17054188011E+04  0.19561040094E+04  0.40000000000E+03 0. -1.
<mgrwt>
<rscale>  2 0.95806556E+03</rscale>
<asrwt>0</asrwt>
<pdfrwt beam="1">  1        2 0.54676043E+00 0.95806556E+03</pdfrwt>
<pdfrwt beam="2">  1       -2 0.39770842E-01 0.95806556E+03</pdfrwt>
<totfact> 0.46579596E+00</totfact>
</mgrwt>
</event>
<event>
 4    1  0.2318373E-002  0.8592761E+03  0.7818608E-02  0.9477971E-01
         -2   -1    0    0    0  501 -0.00000000000E+00  0.00000000000E+00  0.80425907608E+03  0.80425907608E+03  0.00000000000E+00 0.  1.
          2   -1    0    0  502    0  0.00000000000E+00 -0.00000000000E+00 -0.93273181357E+03  0.93273181357E+03  0.00000000000E+00 0. -1.
    9000005    1    1    2  502    0 -0.37241823980E+03  0.66306866717E+03 -0.17317463236E+03  0.87655282557E+03  0.40000000000E+03 0. -1.
   -9000005    1    1    2    0  501  0.37241823980E+03 -0.66306866717E+03  0.44701894865E+02  0.86043806408E+03  0.40000000000E+03 0.  1.
<mgrwt>
<rscale>  2 0.85927609E+03</rscale>
<asrwt>0</asrwt>
<pdfrwt beam="1">  1        2 0.14349720E+00 0.85927609E+03</pdfrwt>
<pdfrwt beam="2">  1       -2 0.12373217E+00 0.85927609E+03</pdfrwt>
<totfact> 0.13779151E+01</totfact>
</mgrwt>
</event>
<event>
 4    1  0.2318373E-002  0.6012035E+03  0.7818608E-02  0.9902912E-01
          2   -1    0    0  502    0  0.00000000000E+00  0.00000000000E+00  0.24281220515E+04  0.24281220515E+04  0.00000000000E+00 0. -1.
         -2   -1    0    0    0  501 -0.00000000000E+00 -0.00000000000E+00 -0.14908473304E+03  0.14908473304E+03  0.00000000000E+00 0.  1.
    9000005    1    1    2  502    0  0.31282851658E+02  0.44773545814E+03  0.10892779732E+04  0.12441752932E+04  0.40000000000E+03 0. -1.
   -9000005    1    1    2    0  501 -0.31282851658E+02 -0.44773545814E+03  0.11897593452E+04  0.13330314913E+04  0.40000000000E+03 0.  1.
<mgrwt>
<rscale>  2 0.60120351E+03</rscale>
<asrwt>0</asrwt>
<pdfrwt beam="1">  1        2 0.37355721E+00 0.60120351E+03</pdfrwt>
<pdfrwt beam="2">  1       -2 0.22936115E-01 0.60120351E+03</pdfrwt>
<totfact> 0.67931278E+01</totfact>
</mgrwt>
</event>
<event>
 4    1  0.2318373E-002  0.4414520E+03  0.7818608E-02  0.1030302E+00
          1   -1    0    0  502    0  0.00000000000E+00  0.00000000000E+00  0.11826351266E+04  0.11826351266E+04  0.00000000000E+00 0. -1.
         -1   -1    0    0    0  501 -0.00000000000E+00 -0.00000000000E+00 -0.16851841087E+03  0.16851841087E+03  0.00000000000E+00 0.  1.
    9000005    1    1    2  502    0  0.13607340622E+03  0.12792161069E+03  0.40649625123E+03  0.60009925231E+03  0.40000000000E+03 0.  1.
   -9000005    1    1    2    0  501 -0.13607340622E+03 -0.12792161069E+03  0.60762046448E+03  0.75105428513E+03  0.40000000000E+03 0.  1.
<mgrwt>
<rscale>  2 0.44145205E+03</rscale>
<asrwt>0</asrwt>
<pdfrwt beam="1">  1        1 0.18194386E+00 0.44145205E+03</pdfrwt>
<pdfrwt beam="2">  1       -1 0.25925910E-01 0.44145205E+03</pdfrwt>
<totfact> 0.15165515E+02</totfact>
</mgrwt>
</event>
<event>
 4    1  0.2318373E-002  0.4647560E+03  0.7818608E-02  0.1023411E+00
         -2   -1    0    0    0  501 -0.00000000000E+00  0.00000000000E+00  0.16576305406E+03  0.16576305406E+03  0.00000000000E+00 0.  1.
          2   -1    0    0  502    0  0.00000000000E+00 -0.00000000000E+00 -0.13868114803E+04  0.13868114803E+04  0.00000000000E+00 0. -1.
    9000005    1    1    2  502    0 -0.23454025450E+03 -0.31447826733E+02 -0.41974663489E+03  0.62624702338E+03  0.40000000000E+03 0.  1.
   -9000005    1    1    2    0  501  0.23454025450E+03  0.31447826733E+02 -0.80130179138E+03  0.92632751101E+03  0.40000000000E+03 0. -1.
<mgrwt>
<rscale>  2 0.46475595E+03</rscale>
<asrwt>0</asrwt>
<pdfrwt beam="1">  1        2 0.21335560E+00 0.46475595E+03</pdfrwt>
<pdfrwt beam="2">  1       -2 0.25502009E-01 0.46475595E+03</pdfrwt>
<totfact> 0.21154935E+02</totfact>
</mgrwt>
</event>
<event>
 4    1  0.2318373E-002  0.8018320E+03  0.7818608E-02  0.9557369E-01
         -2   -1    0    0    0  501 -0.00000000000E+00  0.00000000000E+00  0.59424547997E+03  0.59424547997E+03  0.00000000000E+00 0.  1.
          2   -1    0    0  502    0  0.00000000000E+00 -0.00000000000E+00 -0.12303028296E+04  0.12303028296E+04  0.00000000000E+00 0. -1.
    9000005    1    1    2  502    0  0.62474430931E+03  0.30435041366E+03 -0.63483227694E+03  0.10227153300E+04  0.40000000000E+03 0. -1.
   -9000005    1    1    2    0  501 -0.62474430931E+03 -0.30435041366E+03 -0.12250726634E+01  0.80183297956E+03  0.40000000000E+03 0.  1.
<mgrwt>
<rscale>  2 0.80183204E+03</rscale>
<asrwt>0</asrwt>
<pdfrwt beam="1">  1        2 0.18927736E+00 0.80183204E+03</pdfrwt>
<pdfrwt beam="2">  1       -2 0.91422382E-01 0.80183204E+03</pdfrwt>
<totfact> 0.18772859E+01</totfact>
</mgrwt>
</event>
<event>
 4    1  0.2318373E-002  0.5114109E+03  0.7818608E-02  0.1010843E+00
          2   -1    0    0  502    0  0.00000000000E+00  0.00000000000E+00  0.12226930495E+04  0.12226930495E+04  0.00000000000E+00 0. -1.
         -2   -1    0    0    0  501 -0.00000000000E+00 -0.00000000000E+00 -0.24221051362E+03  0.24221051362E+03  0.00000000000E+00 0.  1.
    9000005    1    1    2  502    0  0.31591462409E+03  0.41702407903E+02  0.74062833423E+03  0.90003970468E+03  0.40000000000E+03 0. -1.
   -9000005    1    1    2    0  501 -0.31591462409E+03 -0.41702407903E+02  0.23985420166E+03  0.56486385846E+03  0.40000000000E+03 0.  1.
<mgrwt>
<rscale>  2 0.51141093E+03</rscale>
<asrwt>0</asrwt>
<pdfrwt beam="1">  1        2 0.18810662E+00 0.51141093E+03</pdfrwt>
<pdfrwt beam="2">  1       -2 0.37263157E-01 0.51141093E+03</pdfrwt>
<totfact> 0.12920600E+02</totfact>
</mgrwt>
</event>
<event>
 4    1  0.2318373E-002  0.5159262E+03  0.7818608E-02  0.1009704E+00
          2   -1    0    0  502    0  0.00000000000E+00  0.00000000000E+00  0.15635412855E+04  0.15635412855E+04  0.00000000000E+00 0. -1.
         -2   -1    0    0    0  501 -0.00000000000E+00 -0.00000000000E+00 -0.17750530950E+03  0.17750530950E+03  0.00000000000E+00 0.  1.
    9000005    1    1    2  502    0  0.32562889016E+03 -0.12067342261E+02  0.86911560727E+03  0.10107134775E+04  0.40000000000E+03 0.  1.
   -9000005    1    1    2    0  501 -0.32562889016E+03  0.12067342261E+02  0.51692036871E+03  0.73033311745E+03  0.40000000000E+03 0.  1.
<mgrwt>
<rscale>  2 0.51592615E+03</rscale>
<asrwt>0</asrwt>
<pdfrwt beam="1">  1        2 0.24054480E+00 0.51592615E+03</pdfrwt>
<pdfrwt beam="2">  1       -2 0.27308510E-01 0.51592615E+03</pdfrwt>
<totfact> 0.14852085E+02</totfact>
</mgrwt>
</event>
<event>
 4    1  0.2318373E-002  0.4725294E+03  0.7818608E-02  0.1021209E+00
         -1   -1    0    0    0  501 -0.00000000000E+00  0.00000000000E+00  0.68090834712E+02  0.68090834712E+02  0.00000000000E+00 0.  1.
          1   -1    0    0  502    0  0.00000000000E+00 -0.00000000000E+00 -0.32792939869E+04  0.32792939869E+04  0.00000000000E+00 0. -1.
    9000005    1    1    2  502    0  0.18425415268E+03  0.17127302198E+03 -0.16141493275E+04  0.16818924140E+04  0.40000000000E+03 0.  1.
   -9000005    1    1    2    0  501 -0.18425415268E+03 -0.17127302198E+03 -0.15970538248E+04  0.16654924077E+04  0.40000000000E+03 0. -1.
<mgrwt>
<rscale>  2 0.47252941E+03</rscale>
<asrwt>0</asrwt>
<pdfrwt beam="1">  1        1 0.50450678E+00 0.47252941E+03</pdfrwt>
<pdfrwt beam="2">  1       -1 0.10475513E-01 0.47252941E+03</pdfrwt>
<totfact> 0.24390790E+01</totfact>
</mgrwt>
</event>
<event>
 4    1  0.2318373E-002  0.4134276E+03  0.7818608E-02  0.1039227E+00
          2   -1    0    0  502    0  0.00000000000E+00  0.00000000000E+00  0.20885967466E+04  0.20885967466E+04  0.00000000000E+00 0.  1.
         -2   -1    0    0    0  501 -0.00000000000E+00 -0.00000000000E+00 -0.81903872381E+02  0.81903872381E+02  0.00000000000E+00 0. -1.
    9000005    1    1    2  502    0 -0.64249776640E+01  0.10431258822E+03  0.97210472018E+03  0.10563664058E+04  0.40000000000E+03 0.  1.
   -9000005    1    1    2    0  501  0.64249776640E+01 -0.10431258822E+03  0.10345881540E+04  0.11141342131E+04  0.40000000000E+03 0. -1.
<mgrwt>
<rscale>  2 0.41342762E+03</rscale>
<asrwt>0</asrwt>
<pdfrwt beam="1">  1        2 0.32132253E+00 0.41342762E+03</pdfrwt>
<pdfrwt beam="2">  1       -2 0.12600597E-01 0.41342762E+03</pdfrwt>
<totfact> 0.29783557E+02</totfact>
</mgrwt>
</event>
<event>
 4    1  0.2318373E-002  0.5407320E+03  0.7818608E-02  0.1003662E+00
          2   -1    0    0  502    0  0.00000000000E+00  0.00000000000E+00  0.58000360264E+03  0.58000360264E+03  0.00000000000E+00 0. -1.
         -2   -1    0    0    0  501 -0.00000000000E+00 -0.00000000000E+00 -0.51171643629E+03  0.51171643629E+03  0.00000000000E+00 0.  1.
    9000005    1    1    2  502    0 -0.36036909028E+03  0.50252047968E+02  0.10065323774E+03  0.55002020310E+03  0.40000000000E+03 0. -1.
   -9000005    1    1    2    0  501  0.36036909028E+03 -0.50252047968E+02 -0.32366071394E+02  0.54169983582E+03  0.40000000000E+03 0.  1.
<mgrwt>
<rscale>  2 0.54073205E+03</rscale>
<asrwt>0</asrwt>
<pdfrwt beam="1">  1        2 0.89231323E-01 0.54073205E+03</pdfrwt>
<pdfrwt beam="2">  1       -2 0.78725606E-01 0.54073205E+03</pdfrwt>
<totfact> 0.76058628E+01</totfact>
</mgrwt>
</event>
<event>
 4    1  0.2318373E-002  0.4504541E+03  0.7818608E-02  0.1027587E+00
         -1   -1    0    0    0  501 -0.00000000000E+00  0.00000000000E+00  0.14921165896E+03  0.14921165896E+03  0.00000000000E+00 0.  1.
          1   -1    0    0  502    0  0.00000000000E+00 -0.00000000000E+00 -0.14600769464E+04  0.14600769464E+04  0.00000000000E+00 0. -1.
    9000005    1    1    2  502    0  0.18120616487E+03  0.10036536031E+03 -0.86622694592E+03  0.97634932354E+03  0.40000000000E+03 0. -1.
   -9000005    1    1    2    0  501 -0.18120616487E+03 -0.10036536031E+03 -0.44463834156E+03  0.63293928186E+03  0.40000000000E+03 0.  1.
<mgrwt>
<rscale>  2 0.45045408E+03</rscale>
<asrwt>0</asrwt>
<pdfrwt beam="1">  1        1 0.22462723E+00 0.45045408E+03</pdfrwt>
<pdfrwt beam="2">  1       -1 0.22955639E-01 0.45045408E+03</pdfrwt>
<totfact> 0.11928842E+02</totfact>
</mgrwt>
</event>
<event>
 4    1  0.2318373E-002  0.4766077E+03  0.7818608E-02  0.1020072E+00
          3   -1    0    0  502    0  0.00000000000E+00  0.00000000000E+00  0.54632058242E+03  0.54632058242E+03  0.00000000000E+00 0. -1.
         -3   -1    0    0    0  501 -0.00000000000E+00 -0.00000000000E+00 -0.48526234317E+03  0.48526234317E+03  0.00000000000E+00 0.  1.
    9000005    1    1    2  502    0 -0.22631125786E+03 -0.12624626622E+03  0.22568888247E+03  0.52734275082E+03  0.40000000000E+03 0. -1.
   -9000005    1    1    2    0  501  0.22631125786E+03  0.12624626622E+03 -0.16463064321E+03  0.50424017477E+03  0.40000000000E+03 0.  1.
<mgrwt>
<rscale>  2 0.47660771E+03</rscale>
<asrwt>0</asrwt>
<pdfrwt beam="1">  1        3 0.84049320E-01 0.47660771E+03</pdfrwt>
<pdfrwt beam="2">  1       -3 0.74655745E-01 0.47660771E+03</pdfrwt>
<totfact> 0.57638648E+00</totfact>
</mgrwt>
</event>
<event>
 4    1  0.2318373E-002  0.4249840E+03  0.7818608E-02  0.1035456E+00
          2   -1    0    0  502    0  0.00000000000E+00  0.00000000000E+00  0.11656230520E+04  0.11656230520E+04  0.00000000000E+00 0.  1.
         -2   -1    0    0    0  501 -0.00000000000E+00 -0.00000000000E+00 -0.18951418752E+03  0.18951418752E+03  0.00000000000E+00 0. -1.
    9000005    1    1    2  502    0 -0.14098661451E+03  0.27095520638E+02  0.19868288085E+03  0.46913354160E+03  0.40000000000E+03 0.  1.
   -9000005    1    1    2    0  501  0.14098661451E+03 -0.27095520638E+02  0.77742598365E+03  0.88600369794E+03  0.40000000000E+03 0.  1.
<mgrwt>
<rscale>  2 0.42498399E+03</rscale>
<asrwt>0</asrwt>
<pdfrwt beam="1">  1        2 0.17932662E+00 0.42498399E+03</pdfrwt>
<pdfrwt beam="2">  1       -2 0.29156030E-01 0.42498399E+03</pdfrwt>
<totfact> 0.22285260E+02</totfact>
</mgrwt>
</event>
<event>
 4    1  0.2318373E-002  0.4748069E+03  0.7818608E-02  0.1020572E+00
          2   -1    0    0  502    0  0.00000000000E+00  0.00000000000E+00  0.16409339301E+04  0.16409339301E+04  0.00000000000E+00 0. -1.
         -2   -1    0    0    0  501 -0.00000000000E+00 -0.00000000000E+00 -0.13740683165E+03  0.13740683165E+03  0.00000000000E+00 0.  1.
    9000005    1    1    2  502    0 -0.90036654190E+01 -0.25565698813E+03  0.76267764117E+03  0.89839787729E+03  0.40000000000E+03 0. -1.
   -9000005    1    1    2    0  501  0.90036654190E+01  0.25565698813E+03  0.74084945727E+03  0.87994288446E+03  0.40000000000E+03 0.  1.
<mgrwt>
<rscale>  2 0.47480687E+03</rscale>
<asrwt>0</asrwt>
<pdfrwt beam="1">  1        2 0.25245136E+00 0.47480687E+03</pdfrwt>
<pdfrwt beam="2">  1       -2 0.21139514E-01 0.47480687E+03</pdfrwt>
<totfact> 0.21383275E+02</totfact>
</mgrwt>
</event>
<event>
 4    1  0.2318373E-002  0.4442666E+03  0.7818608E-02  0.1029446E+00
         -1   -1    0    0    0  501 -0.00000000000E+00  0.00000000000E+00  0.25007047209E+03  0.25007047209E+03  0.00000000000E+00 0. -1.
          1   -1    0    0  502    0  0.00000000000E+00 -0.00000000000E+00 -0.81847592986E+03  0.81847592986E+03  0.00000000000E+00 0.  1.
    9000005    1    1    2  502    0  0.35928337423E+02 -0.18995263677E+03 -0.18327650225E+03  0.48058623152E+03  0.40000000000E+03 0. -1.
   -9000005    1    1    2    0  501 -0.35928337423E+02  0.18995263677E+03 -0.38512895552E+03  0.58796017044E+03  0.40000000000E+03 0.  1.
<mgrwt>
<rscale>  2 0.44426664E+03</rscale>
<asrwt>0</asrwt>
<pdfrwt beam="1">  1        1 0.12591938E+00 0.44426664E+03</pdfrwt>
<pdfrwt beam="2">  1       -1 0.38472380E-01 0.44426664E+03</pdfrwt>
<totfact> 0.14532544E+02</totfact>
</mgrwt>
</event>
<event>
 4    1  0.2318373E-002  0.4456955E+03  0.7818608E-02  0.1029014E+00
          3   -1    0    0  502    0  0.00000000000E+00  0.00000000000E+00  0.17083285078E+03  0.17083285078E+03  0.00000000000E+00 0. -1.
         -3   -1    0    0    0  501 -0.00000000000E+00 -0.00000000000E+00 -0.11862586029E+04  0.11862586029E+04  0.00000000000E+00 0.  1.
    9000005    1    1    2  502    0 -0.51702664633E+02 -0.18966107875E+03 -0.60313250359E+03  0.74994220258E+03  0.40000000000E+03 0.  1.
   -9000005    1    1    2    0  501  0.51702664633E+02  0.18966107875E+03 -0.41229324852E+03  0.60714925109E+03  0.40000000000E+03 0.  1.
<mgrwt>
<rscale>  2 0.44569551E+03</rscale>
<asrwt>0</asrwt>
<pdfrwt beam="1">  1        3 0.26281977E-01 0.44569551E+03</pdfrwt>
<pdfrwt beam="2">  1       -3 0.18250133E+00 0.44569551E+03</pdfrwt>
<totfact> 0.69760491E+00</totfact>
</mgrwt>
</event>
<event>
 4    1  0.2318373E-002  0.4499283E+03  0.7818608E-02  0.1027743E+00
          2   -1    0    0  502    0  0.00000000000E+00  0.00000000000E+00  0.36374443466E+03  0.36374443466E+03  0.00000000000E+00 0.  1.
         -2   -1    0    0    0  501 -0.00000000000E+00 -0.00000000000E+00 -0.60702474415E+03  0.60702474415E+03  0.00000000000E+00 0. -1.
    9000005    1    1    2  502    0 -0.36381126993E+02 -0.20276061558E+03  0.18349792124E+02  0.45030230790E+03  0.40000000000E+03 0.  1.
   -9000005    1    1    2    0  501  0.36381126993E+02  0.20276061558E+03 -0.26163010162E+03  0.52046687090E+03  0.40000000000E+03 0.  1.
<mgrwt>
<rscale>  2 0.44992828E+03</rscale>
<asrwt>0</asrwt>
<pdfrwt beam="1">  1        2 0.55960682E-01 0.44992828E+03</pdfrwt>
<pdfrwt beam="2">  1       -2 0.93388422E-01 0.44992828E+03</pdfrwt>
<totfact> 0.88367470E+01</totfact>
</mgrwt>
</event>
<event>
 4    1  0.2318373E-002  0.4476508E+03  0.7818608E-02  0.1028425E+00
          2   -1    0    0  502    0  0.00000000000E+00  0.00000000000E+00  0.23802816215E+04  0.23802816215E+04  0.00000000000E+00 0. -1.
         -2   -1    0    0    0  501 -0.00000000000E+00 -0.00000000000E+00 -0.87195000951E+02  0.87195000951E+02  0.00000000000E+00 0.  1.
    9000005    1    1    2  502    0  0.24162377514E+02 -0.19951791940E+03  0.13756521634E+04  0.14466547948E+04  0.40000000000E+03 0.  1.
   -9000005    1    1    2    0  501 -0.24162377514E+02  0.19951791940E+03  0.91743445716E+03  0.10208218277E+04  0.40000000000E+03 0.  1.
<mgrwt>
<rscale>  2 0.44765078E+03</rscale>
<asrwt>0</asrwt>
<pdfrwt beam="1">  1        2 0.36619712E+00 0.44765078E+03</pdfrwt>
<pdfrwt beam="2">  1       -2 0.13414617E-01 0.44765078E+03</pdfrwt>
<totfact> 0.18553416E+02</totfact>
</mgrwt>
</event>
<event>
 4    1  0.2318373E-002  0.4690696E+03  0.7818608E-02  0.1022183E+00
         -2   -1    0    0    0  501 -0.00000000000E+00  0.00000000000E+00  0.29353871615E+03  0.29353871615E+03  0.00000000000E+00 0. -1.
          2   -1    0    0  502    0  0.00000000000E+00 -0.00000000000E+00 -0.10581026173E+04  0.10581026173E+04  0.00000000000E+00 0.  1.
    9000005    1    1    2  502    0  0.24499620052E+03  0.17716853049E+01 -0.17341667877E+02  0.46939004099E+03  0.40000000000E+03 0. -1.
   -9000005    1    1    2    0  501 -0.24499620052E+03 -0.17716853049E+01 -0.74722223327E+03  0.88225129245E+03  0.40000000000E+03 0.  1.
<mgrwt>
<rscale>  2 0.46906959E+03</rscale>
<asrwt>0</asrwt>
<pdfrwt beam="1">  1        2 0.16278501E+00 0.46906959E+03</pdfrwt>
<pdfrwt beam="2">  1       -2 0.45159804E-01 0.46906959E+03</pdfrwt>
<totfact> 0.11189010E+02</totfact>
</mgrwt>
</event>
<event>
 4    1  0.2318373E-002  0.4127515E+03  0.7818608E-02  0.1039452E+00
         -1   -1    0    0    0  501 -0.00000000000E+00  0.00000000000E+00  0.32376205096E+03  0.32376205096E+03  0.00000000000E+00 0.  1.
          1   -1    0    0  502    0  0.00000000000E+00 -0.00000000000E+00 -0.57675574247E+03  0.57675574247E+03  0.00000000000E+00 0. -1.
    9000005    1    1    2  502    0  0.97038198331E+02  0.30779817441E+02 -0.25980253819E+03  0.48771012697E+03  0.40000000000E+03 0. -1.
   -9000005    1    1    2    0  501 -0.97038198331E+02 -0.30779817441E+02  0.68088466805E+01  0.41280766646E+03  0.40000000000E+03 0.  1.
<mgrwt>
<rscale>  2 0.41275151E+03</rscale>
<asrwt>0</asrwt>
<pdfrwt beam="1">  1        1 0.88731654E-01 0.41275151E+03</pdfrwt>
<pdfrwt beam="2">  1       -1 0.49809546E-01 0.41275151E+03</pdfrwt>
<totfact> 0.15277357E+02</totfact>
</mgrwt>
</event>
<event>
 4    1  0.2318373E-002  0.4722912E+03  0.7818608E-02  0.1021276E+00
         -2   -1    0    0    0  501 -0.00000000000E+00  0.00000000000E+00  0.69098738059E+03  0.69098738059E+03  0.00000000000E+00 0.  1.
          2   -1    0    0  502    0  0.00000000000E+00 -0.00000000000E+00 -0.32281194555E+03  0.32281194555E+03  0.00000000000E+00 0. -1.
    9000005    1    1    2  502    0 -0.20452750507E+03 -0.14569649055E+03  0.18421006974E+03  0.50694409700E+03  0.40000000000E+03 0. -1.
   -9000005    1    1    2    0  501  0.20452750507E+03  0.14569649055E+03  0.18396536531E+03  0.50685522915E+03  0.40000000000E+03 0. -1.
<mgrwt>
<rscale>  2 0.47229119E+03</rscale>
<asrwt>0</asrwt>
<pdfrwt beam="1">  1        2 0.49663377E-01 0.47229119E+03</pdfrwt>
<pdfrwt beam="2">  1       -2 0.10630575E+00 0.47229119E+03</pdfrwt>
<totfact> 0.74211069E+01</totfact>
</mgrwt>
</event>
<event>
 4    1  0.2318373E-002  0.5077066E+03  0.7818608E-02  0.1011787E+00
          2   -1    0    0  502    0  0.00000000000E+00  0.00000000000E+00  0.59350518898E+03  0.59350518898E+03  0.00000000000E+00 0.  1.
         -2   -1    0    0    0  501 -0.00000000000E+00 -0.00000000000E+00 -0.48833284696E+03  0.48833284696E+03  0.00000000000E+00 0. -1.
    9000005    1    1    2  502    0  0.30749686929E+03 -0.56671279451E+02 -0.12732500411E+03  0.52342871072E+03  0.40000000000E+03 0. -1.
   -9000005    1    1    2    0  501 -0.30749686929E+03  0.56671279451E+02  0.23249734613E+03  0.55840932522E+03  0.40000000000E+03 0.  1.
<mgrwt>
<rscale>  2 0.50770657E+03</rscale>
<asrwt>0</asrwt>
<pdfrwt beam="1">  1        2 0.91308491E-01 0.50770657E+03</pdfrwt>
<pdfrwt beam="2">  1       -2 0.75128130E-01 0.50770657E+03</pdfrwt>
<totfact> 0.82331775E+01</totfact>
</mgrwt>
</event>
<event>
 4    1  0.2318373E-002  0.6317659E+03  0.7818608E-02  0.9841609E-01
         -1   -1    0    0    0  501 -0.00000000000E+00  0.00000000000E+00  0.52864079652E+03  0.52864079652E+03  0.00000000000E+00 0.  1.
          1   -1    0    0  502    0  0.00000000000E+00 -0.00000000000E+00 -0.81121188151E+03  0.81121188151E+03  0.00000000000E+00 0. -1.
    9000005    1    1    2  502    0 -0.74790612849E+02 -0.48325410781E+03 -0.31762197399E+03  0.70711518641E+03  0.40000000000E+03 0. -1.
   -9000005    1    1    2    0  501  0.74790612849E+02  0.48325410781E+03  0.35050889002E+02  0.63273749162E+03  0.40000000000E+03 0.  1.
<mgrwt>
<rscale>  2 0.63176591E+03</rscale>
<asrwt>0</asrwt>
<pdfrwt beam="1">  1        1 0.12480183E+00 0.63176591E+03</pdfrwt>
<pdfrwt beam="2">  1       -1 0.81329353E-01 0.63176591E+03</pdfrwt>
<totfact> 0.33817560E+01</totfact>
</mgrwt>
</event>
<event>
 4    1  0.2318373E-002  0.4895976E+03  0.7818608E-02  0.1016530E+00
          4   -1    0    0  502    0  0.00000000000E+00  0.00000000000E+00  0.12512379662E+04  0.12512379662E+04  0.00000000000E+00 0.  1.
         -4   -1    0    0    0  501 -0.00000000000E+00 -0.00000000000E+00 -0.34468420110E+03  0.34468420110E+03  0.00000000000E+00 0. -1.
    9000005    1    1    2  502    0  0.27728039822E+03 -0.53116803357E+02  0.98510559509E+03  0.11000631107E+04  0.40000000000E+03 0. -1.
   -9000005    1    1    2    0  501 -0.27728039822E+03  0.53116803357E+02 -0.78551829986E+02  0.49585905662E+03  0.40000000000E+03 0. -1.
<mgrwt>
<rscale>  2 0.48959760E+03</rscale>
<asrwt>0</asrwt>
<pdfrwt beam="1">  1        4 0.19249815E+00 0.48959760E+03</pdfrwt>
<pdfrwt beam="2">  1       -4 0.53028339E-01 0.48959760E+03</pdfrwt>
<totfact> 0.99684638E-01</totfact>
</mgrwt>
</event>
<event>
 4    1  0.2318373E-002  0.5807556E+03  0.7818608E-02  0.9946157E-01
         -2   -1    0    0    0  501 -0.00000000000E+00  0.00000000000E+00  0.15974380851E+03  0.15974380851E+03  0.00000000000E+00 0. -1.
          2   -1    0    0  502    0  0.00000000000E+00 -0.00000000000E+00 -0.21143309498E+04  0.21143309498E+04  0.00000000000E+00 0.  1.
    9000005    1    1    2  502    0 -0.32944230860E+03 -0.26219234794E+03 -0.93468818485E+03  0.11004176775E+04  0.40000000000E+03 0.  1.
   -9000005    1    1    2    0  501  0.32944230860E+03  0.26219234794E+03 -0.10198989564E+04  0.11736570808E+04  0.40000000000E+03 0.  1.
<mgrwt>
<rscale>  2 0.58075560E+03</rscale>
<asrwt>0</asrwt>
<pdfrwt beam="1">  1        2 0.32528171E+00 0.58075560E+03</pdfrwt>
<pdfrwt beam="2">  1       -2 0.24575969E-01 0.58075560E+03</pdfrwt>
<totfact> 0.89662715E+01</totfact>
</mgrwt>
</event>
<event>
 4    1  0.2318373E-002  0.5035549E+03  0.7818608E-02  0.1012855E+00
         -1   -1    0    0    0  501 -0.00000000000E+00  0.00000000000E+00  0.14622874389E+03  0.14622874389E+03  0.00000000000E+00 0. -1.
          1   -1    0    0  502    0  0.00000000000E+00 -0.00000000000E+00 -0.19217701862E+04  0.19217701862E+04  0.00000000000E+00 0.  1.
    9000005    1    1    2  502    0 -0.30159432634E+03  0.51072600084E+02 -0.12109386698E+04  0.13114648338E+04  0.40000000000E+03 0. -1.
   -9000005    1    1    2    0  501  0.30159432634E+03 -0.51072600084E+02 -0.56460277243E+03  0.75653409626E+03  0.40000000000E+03 0. -1.
<mgrwt>
<rscale>  2 0.50355491E+03</rscale>
<asrwt>0</asrwt>
<pdfrwt beam="1">  1        1 0.29565696E+00 0.50355491E+03</pdfrwt>
<pdfrwt beam="2">  1       -1 0.22496729E-01 0.50355491E+03</pdfrwt>
<totfact> 0.60241098E+01</totfact>
</mgrwt>
</event>
<event>
 4    1  0.2318373E-002  0.6879685E+03  0.7818608E-02  0.9738032E-01
         -2   -1    0    0    0  501 -0.00000000000E+00  0.00000000000E+00  0.18854210009E+03  0.18854210009E+03  0.00000000000E+00 0.  1.
          2   -1    0    0  502    0  0.00000000000E+00 -0.00000000000E+00 -0.25275017992E+04  0.25275017992E+04  0.00000000000E+00 0. -1.
    9000005    1    1    2  502    0  0.45596747502E+03  0.32464494519E+03 -0.12814538575E+04  0.14544499536E+04  0.40000000000E+03 0.  1.
   -9000005    1    1    2    0  501 -0.45596747502E+03 -0.32464494519E+03 -0.10575058417E+04  0.12615939457E+04  0.40000000000E+03 0. -1.
<mgrwt>
<rscale>  2 0.68796852E+03</rscale>
<asrwt>0</asrwt>
<pdfrwt beam="1">  1        2 0.38884643E+00 0.68796852E+03</pdfrwt>
<pdfrwt beam="2">  1       -2 0.29006477E-01 0.68796852E+03</pdfrwt>
<totfact> 0.38537141E+01</totfact>
</mgrwt>
</event>
<event>
 4    1  0.2318373E-002  0.8608659E+03  0.7818608E-02  0.9475868E-01
         -2   -1    0    0    0  501 -0.00000000000E+00  0.00000000000E+00  0.11210641295E+04  0.11210641295E+04  0.00000000000E+00 0.  1.
          2   -1    0    0  502    0  0.00000000000E+00 -0.00000000000E+00 -0.12152277847E+04  0.12152277847E+04  0.00000000000E+00 0. -1.
    9000005    1    1    2  502    0 -0.44815568225E+03  0.61664137847E+03  0.74175848096E+03  0.11363519478E+04  0.40000000000E+03 0.  1.
   -9000005    1    1    2    0  501  0.44815568225E+03 -0.61664137847E+03 -0.83592213623E+03  0.11999399664E+04  0.40000000000E+03 0. -1.
<mgrwt>
<rscale>  2 0.86086590E+03</rscale>
<asrwt>0</asrwt>
<pdfrwt beam="1">  1        2 0.18695812E+00 0.86086590E+03</pdfrwt>
<pdfrwt beam="2">  1       -2 0.17247140E+00 0.86086590E+03</pdfrwt>
<totfact> 0.38270146E+00</totfact>
</mgrwt>
</event>
<event>
 4    1  0.2318373E-002  0.5366565E+03  0.7818608E-02  0.1004630E+00
          2   -1    0    0  502    0  0.00000000000E+00  0.00000000000E+00  0.11394938104E+04  0.11394938104E+04  0.00000000000E+00 0. -1.
         -2   -1    0    0    0  501 -0.00000000000E+00 -0.00000000000E+00 -0.40915824886E+03  0.40915824886E+03  0.00000000000E+00 0.  1.
    9000005    1    1    2  502    0  0.14422303250E+03 -0.32741398739E+03 -0.11359059600E+03  0.54854628405E+03  0.40000000000E+03 0.  1.
   -9000005    1    1    2    0  501 -0.14422303250E+03  0.32741398739E+03  0.84392615758E+03  0.10001057753E+04  0.40000000000E+03 0. -1.
<mgrwt>
<rscale>  2 0.53665650E+03</rscale>
<asrwt>0</asrwt>
<pdfrwt beam="1">  1        2 0.17530674E+00 0.53665650E+03</pdfrwt>
<pdfrwt beam="2">  1       -2 0.62947423E-01 0.53665650E+03</pdfrwt>
<totfact> 0.50158617E+01</totfact>
</mgrwt>
</event>
<event>
 4    1  0.2318373E-002  0.5932379E+03  0.7818608E-02  0.9919535E-01
          2   -1    0    0  502    0  0.00000000000E+00  0.00000000000E+00  0.59510406975E+03  0.59510406975E+03  0.00000000000E+00 0. -1.
         -2   -1    0    0    0  501 -0.00000000000E+00 -0.00000000000E+00 -0.61402611538E+03  0.61402611538E+03  0.00000000000E+00 0.  1.
    9000005    1    1    2  502    0  0.61173469195E+02 -0.43380758127E+03  0.10664897215E+03  0.60274805197E+03  0.40000000000E+03 0. -1.
   -9000005    1    1    2    0  501 -0.61173469195E+02  0.43380758127E+03 -0.12557101778E+03  0.60638213315E+03  0.40000000000E+03 0.  1.
<mgrwt>
<rscale>  2 0.59323790E+03</rscale>
<asrwt>0</asrwt>
<pdfrwt beam="1">  1        2 0.91554473E-01 0.59323790E+03</pdfrwt>
<pdfrwt beam="2">  1       -2 0.94465556E-01 0.59323790E+03</pdfrwt>
<totfact> 0.48491308E+01</totfact>
</mgrwt>
</event>
<event>
 4    1  0.2318373E-002  0.4508342E+03  0.7818608E-02  0.1027474E+00
         -2   -1    0    0    0  501 -0.00000000000E+00  0.00000000000E+00  0.83779339715E+03  0.83779339715E+03  0.00000000000E+00 0. -1.
          2   -1    0    0  502    0  0.00000000000E+00 -0.00000000000E+00 -0.25108047200E+03  0.25108047200E+03  0.00000000000E+00 0.  1.
    9000005    1    1    2  502    0  0.20457798847E+03 -0.37407388991E+02  0.39339466942E+03  0.59834006388E+03  0.40000000000E+03 0. -1.
   -9000005    1    1    2    0  501 -0.20457798847E+03  0.37407388991E+02  0.19331825574E+03  0.49053380528E+03  0.40000000000E+03 0.  1.
<mgrwt>
<rscale>  2 0.45083419E+03</rscale>
<asrwt>0</asrwt>
<pdfrwt beam="1">  1        2 0.38627765E-01 0.45083419E+03</pdfrwt>
<pdfrwt beam="2">  1       -2 0.12889129E+00 0.45083419E+03</pdfrwt>
<totfact> 0.61219668E+01</totfact>
</mgrwt>
</event>
<event>
 4    1  0.2318373E-002  0.1314829E+04  0.7818608E-02  0.9017887E-01
         -1   -1    0    0    0  501 -0.00000000000E+00  0.00000000000E+00  0.27443811383E+04  0.27443811383E+04  0.00000000000E+00 0. -1.
          1   -1    0    0  502    0  0.00000000000E+00 -0.00000000000E+00 -0.11764063338E+04  0.11764063338E+04  0.00000000000E+00 0.  1.
    9000005    1    1    2  502    0 -0.43749332128E+03 -0.11736164804E+04  0.21201187229E+04  0.24947303358E+04  0.40000000000E+03 0. -1.
   -9000005    1    1    2    0  501  0.43749332128E+03  0.11736164804E+04 -0.55214391848E+03  0.14260571363E+04  0.40000000000E+03 0.  1.
<mgrwt>
<rscale>  2 0.13148293E+04</rscale>
<asrwt>0</asrwt>
<pdfrwt beam="1">  1        1 0.18098559E+00 0.13148293E+04</pdfrwt>
<pdfrwt beam="2">  1       -1 0.42221248E+00 0.13148293E+04</pdfrwt>
<totfact> 0.54532313E-02</totfact>
</mgrwt>
</event>
<event>
 4    1  0.2318373E-002  0.5883984E+03  0.7818608E-02  0.9929772E-01
          1   -1    0    0  502    0  0.00000000000E+00  0.00000000000E+00  0.80240472149E+03  0.80240472149E+03  0.00000000000E+00 0. -1.
         -1   -1    0    0    0  501 -0.00000000000E+00 -0.00000000000E+00 -0.63356447571E+03  0.63356447571E+03  0.00000000000E+00 0.  1.
    9000005    1    1    2  502    0 -0.20187576101E+03  0.38139071397E+03 -0.32108663799E+03  0.67030539956E+03  0.40000000000E+03 0.  1.
   -9000005    1    1    2    0  501  0.20187576101E+03 -0.38139071397E+03  0.48992688376E+03  0.76566379764E+03  0.40000000000E+03 0. -1.
<mgrwt>
<rscale>  2 0.58839842E+03</rscale>
<asrwt>0</asrwt>
<pdfrwt beam="1">  1        1 0.12344688E+00 0.58839842E+03</pdfrwt>
<pdfrwt beam="2">  1       -1 0.97471458E-01 0.58839842E+03</pdfrwt>
<totfact> 0.23302529E+01</totfact>
</mgrwt>
</event>
<event>
 4    1  0.2318373E-002  0.4184286E+03  0.7818608E-02  0.1037579E+00
         -1   -1    0    0    0  501 -0.00000000000E+00  0.00000000000E+00  0.12718383711E+03  0.12718383711E+03  0.00000000000E+00 0. -1.
          1   -1    0    0  502    0  0.00000000000E+00 -0.00000000000E+00 -0.13883782200E+04  0.13883782200E+04  0.00000000000E+00 0.  1.
    9000005    1    1    2  502    0  0.10307160181E+03  0.66773712381E+02 -0.70036477356E+03  0.81583901586E+03  0.40000000000E+03 0.  1.
   -9000005    1    1    2    0  501 -0.10307160181E+03 -0.66773712381E+02 -0.56082960935E+03  0.69972304127E+03  0.40000000000E+03 0. -1.
<mgrwt>
<rscale>  2 0.41842859E+03</rscale>
<asrwt>0</asrwt>
<pdfrwt beam="1">  1        1 0.21359665E+00 0.41842859E+03</pdfrwt>
<pdfrwt beam="2">  1       -1 0.19566744E-01 0.41842859E+03</pdfrwt>
<totfact> 0.17473879E+02</totfact>
</mgrwt>
</event>
<event>
 4    1  0.2318373E-002  0.8150389E+03  0.7818608E-02  0.9538500E-01
         -1   -1    0    0    0  501 -0.00000000000E+00  0.00000000000E+00  0.83239785100E+03  0.83239785100E+03  0.00000000000E+00 0.  1.
          1   -1    0    0  502    0  0.00000000000E+00 -0.00000000000E+00 -0.81654123829E+03  0.81654123829E+03  0.00000000000E+00 0. -1.
    9000005    1    1    2  502    0 -0.63726948994E+03 -0.31333061686E+03 -0.11616890481E+03  0.82327619468E+03  0.40000000000E+03 0. -1.
   -9000005    1    1    2    0  501  0.63726948994E+03  0.31333061686E+03  0.13202551753E+03  0.82566289462E+03  0.40000000000E+03 0.  1.
<mgrwt>
<rscale>  2 0.81503894E+03</rscale>
<asrwt>0</asrwt>
<pdfrwt beam="1">  1        1 0.12562173E+00 0.81503894E+03</pdfrwt>
<pdfrwt beam="2">  1       -1 0.12806121E+00 0.81503894E+03</pdfrwt>
<totfact> 0.11516654E+01</totfact>
</mgrwt>
</event>
<event>
 4    1  0.2318373E-002  0.4000398E+03  0.7818608E-02  0.1043766E+00
          2   -1    0    0  502    0  0.00000000000E+00  0.00000000000E+00  0.61342002302E+03  0.61342002302E+03  0.00000000000E+00 0.  1.
         -2   -1    0    0    0  501 -0.00000000000E+00 -0.00000000000E+00 -0.28176049959E+03  0.28176049959E+03  0.00000000000E+00 0. -1.
    9000005    1    1    2  502    0 -0.48388926752E+01 -0.29041060910E+01  0.28766221259E+03  0.49272852289E+03  0.40000000000E+03 0.  1.
   -9000005    1    1    2    0  501  0.48388926752E+01  0.29041060910E+01  0.43997310845E+02  0.40245199972E+03  0.40000000000E+03 0. -1.
<mgrwt>
<rscale>  2 0.40003981E+03</rscale>
<asrwt>0</asrwt>
<pdfrwt beam="1">  1        2 0.94372311E-01 0.40003981E+03</pdfrwt>
<pdfrwt beam="2">  1       -2 0.43347769E-01 0.40003981E+03</pdfrwt>
<totfact> 0.25022843E+02</totfact>
</mgrwt>
</event>
<event>
 4    1  0.2318373E-002  0.5921722E+03  0.7818608E-02  0.9921781E-01
          1   -1    0    0  502    0  0.00000000000E+00  0.00000000000E+00  0.77971036826E+03  0.77971036826E+03  0.00000000000E+00 0.  1.
         -1   -1    0    0    0  501 -0.00000000000E+00 -0.00000000000E+00 -0.46382843670E+03  0.46382843670E+03  0.00000000000E+00 0. -1.
    9000005    1    1    2  502    0 -0.29058381983E+03 -0.32592787931E+03  0.26629930433E+03  0.64929443117E+03  0.40000000000E+03 0.  1.
   -9000005    1    1    2    0  501  0.29058381983E+03  0.32592787931E+03  0.49582627236E+02  0.59424437379E+03  0.40000000000E+03 0. -1.
<mgrwt>
<rscale>  2 0.59217222E+03</rscale>
<asrwt>0</asrwt>
<pdfrwt beam="1">  1        1 0.11995544E+00 0.59217222E+03</pdfrwt>
<pdfrwt beam="2">  1       -1 0.71358221E-01 0.59217222E+03</pdfrwt>
<totfact> 0.47523856E+01</totfact>
</mgrwt>
</event>
<event>
 4    1  0.2318373E-002  0.4832669E+03  0.7818608E-02  0.1018241E+00
          2   -1    0    0  502    0  0.00000000000E+00  0.00000000000E+00  0.13735257510E+04  0.13735257510E+04  0.00000000000E+00 0. -1.
         -2   -1    0    0    0  501 -0.00000000000E+00 -0.00000000000E+00 -0.17307775785E+03  0.17307775785E+03  0.00000000000E+00 0.  1.
    9000005    1    1    2  502    0  0.26170808920E+03  0.71104268261E+02  0.70276287577E+03  0.85289073185E+03  0.40000000000E+03 0. -1.
   -9000005    1    1    2    0  501 -0.26170808920E+03 -0.71104268261E+02  0.49768511739E+03  0.69371277702E+03  0.40000000000E+03 0.  1.
<mgrwt>
<rscale>  2 0.48326695E+03</rscale>
<asrwt>0</asrwt>
<pdfrwt beam="1">  1        2 0.21131165E+00 0.48326695E+03</pdfrwt>
<pdfrwt beam="2">  1       -2 0.26627348E-01 0.48326695E+03</pdfrwt>
<totfact> 0.19867937E+02</totfact>
</mgrwt>
</event>
<event>
 4    1  0.2318373E-002  0.4255984E+03  0.7818608E-02  0.1035259E+00
         -2   -1    0    0    0  501 -0.00000000000E+00  0.00000000000E+00  0.10973659673E+03  0.10973659673E+03  0.00000000000E+00 0. -1.
          2   -1    0    0  502    0  0.00000000000E+00 -0.00000000000E+00 -0.19755840718E+04  0.19755840718E+04  0.00000000000E+00 0.  1.
    9000005    1    1    2  502    0  0.10963167299E+03 -0.95472076263E+02 -0.51005155647E+03  0.66429406992E+03  0.40000000000E+03 0. -1.
   -9000005    1    1    2    0  501 -0.10963167299E+03  0.95472076263E+02 -0.13557959186E+04  0.14210265986E+04  0.40000000000E+03 0.  1.
<mgrwt>
<rscale>  2 0.42559843E+03</rscale>
<asrwt>0</asrwt>
<pdfrwt beam="1">  1        2 0.30393600E+00 0.42559843E+03</pdfrwt>
<pdfrwt beam="2">  1       -2 0.16882554E-01 0.42559843E+03</pdfrwt>
<totfact> 0.20973364E+02</totfact>
</mgrwt>
</event>
<event>
 4    1  0.2318373E-002  0.4666386E+03  0.7818608E-02  0.1022873E+00
         -2   -1    0    0    0  501 -0.00000000000E+00  0.00000000000E+00  0.16906741809E+03  0.16906741809E+03  0.00000000000E+00 0.  1.
          2   -1    0    0  502    0  0.00000000000E+00 -0.00000000000E+00 -0.12882533109E+04  0.12882533109E+04  0.00000000000E+00 0. -1.
    9000005    1    1    2  502    0 -0.17132423199E+03 -0.16852186402E+03 -0.57063873190E+03  0.73714325166E+03  0.40000000000E+03 0.  1.
   -9000005    1    1    2    0  501  0.17132423199E+03  0.16852186402E+03 -0.54854716096E+03  0.72017747737E+03  0.40000000000E+03 0.  1.
<mgrwt>
<rscale>  2 0.46663863E+03</rscale>
<asrwt>0</asrwt>
<pdfrwt beam="1">  1        2 0.19819281E+00 0.46663863E+03</pdfrwt>
<pdfrwt beam="2">  1       -2 0.26010372E-01 0.46663863E+03</pdfrwt>
<totfact> 0.23193197E+02</totfact>
</mgrwt>
</event>
<event>
 4    1  0.2318373E-002  0.4014171E+03  0.7818608E-02  0.1043290E+00
         -2   -1    0    0    0  501 -0.00000000000E+00  0.00000000000E+00  0.11917646720E+03  0.11917646720E+03  0.00000000000E+00 0.  1.
          2   -1    0    0  502    0  0.00000000000E+00 -0.00000000000E+00 -0.14131879945E+04  0.14131879945E+04  0.00000000000E+00 0. -1.
    9000005    1    1    2  502    0  0.32914437616E+02 -0.72322858975E+01 -0.80633467426E+03  0.90072819045E+03  0.40000000000E+03 0. -1.
   -9000005    1    1    2    0  501 -0.32914437616E+02  0.72322858975E+01 -0.48767685306E+03  0.63163627126E+03  0.40000000000E+03 0.  1.
<mgrwt>
<rscale>  2 0.40141707E+03</rscale>
<asrwt>0</asrwt>
<pdfrwt beam="1">  1        2 0.21741354E+00 0.40141707E+03</pdfrwt>
<pdfrwt beam="2">  1       -2 0.18334841E-01 0.40141707E+03</pdfrwt>
<totfact> 0.36714227E+02</totfact>
</mgrwt>
</event>
<event>
 4    1  0.2318373E-002  0.4055118E+03  0.7818608E-02  0.1041888E+00
         -2   -1    0    0    0  501 -0.00000000000E+00  0.00000000000E+00  0.55893307592E+02  0.55893307592E+02  0.00000000000E+00 0.  1.
          2   -1    0    0  502    0  0.00000000000E+00 -0.00000000000E+00 -0.35729099683E+04  0.35729099683E+04  0.00000000000E+00 0. -1.
    9000005    1    1    2  502    0 -0.50556417010E+02 -0.43403799577E+02 -0.25209303540E+04  0.25533369717E+04  0.40000000000E+03 0. -1.
   -9000005    1    1    2    0  501  0.50556417010E+02  0.43403799577E+02 -0.99608630663E+03  0.10754663042E+04  0.40000000000E+03 0.  1.
<mgrwt>
<rscale>  2 0.40551183E+03</rscale>
<asrwt>0</asrwt>
<pdfrwt beam="1">  1        2 0.54967853E+00 0.40551183E+03</pdfrwt>
<pdfrwt beam="2">  1       -2 0.85989692E-02 0.40551183E+03</pdfrwt>
<totfact> 0.73173894E+01</totfact>
</mgrwt>
</event>
<event>
 4    1  0.2318373E-002  0.4733501E+03  0.7818608E-02  0.1020979E+00
         -2   -1    0    0    0  501 -0.00000000000E+00  0.00000000000E+00  0.12883275439E+04  0.12883275439E+04  0.00000000000E+00 0. -1.
          2   -1    0    0  502    0  0.00000000000E+00 -0.00000000000E+00 -0.18120256204E+03  0.18120256204E+03  0.00000000000E+00 0.  1.
    9000005    1    1    2  502    0 -0.19382099021E+03 -0.16276908696E+03  0.40621681282E+03  0.62375672416E+03  0.40000000000E+03 0. -1.
   -9000005    1    1    2    0  501  0.19382099021E+03  0.16276908696E+03  0.70090816904E+03  0.84577338179E+03  0.40000000000E+03 0. -1.
<mgrwt>
<rscale>  2 0.47335014E+03</rscale>
<asrwt>0</asrwt>
<pdfrwt beam="1">  1        2 0.27877318E-01 0.47335014E+03</pdfrwt>
<pdfrwt beam="2">  1       -2 0.19820423E+00 0.47335014E+03</pdfrwt>
<totfact> 0.27534507E+01</totfact>
</mgrwt>
</event>
<event>
 4    1  0.2318373E-002  0.4163534E+03  0.7818608E-02  0.1038260E+00
          2   -1    0    0  502    0  0.00000000000E+00  0.00000000000E+00  0.69631238881E+03  0.69631238881E+03  0.00000000000E+00 0.  1.
         -2   -1    0    0    0  501 -0.00000000000E+00 -0.00000000000E+00 -0.29515226144E+03  0.29515226144E+03  0.00000000000E+00 0. -1.
    9000005    1    1    2  502    0 -0.73165036045E+02  0.89426024111E+02  0.44544029341E+01  0.41637720638E+03  0.40000000000E+03 0. -1.
   -9000005    1    1    2    0  501  0.73165036045E+02 -0.89426024111E+02  0.39670572444E+03  0.57508744387E+03  0.40000000000E+03 0.  1.
<mgrwt>
<rscale>  2 0.41635338E+03</rscale>
<asrwt>0</asrwt>
<pdfrwt beam="1">  1        2 0.10712498E+00 0.41635338E+03</pdfrwt>
<pdfrwt beam="2">  1       -2 0.45408040E-01 0.41635338E+03</pdfrwt>
<totfact> 0.19558788E+02</totfact>
</mgrwt>
</event>
<event>
 4    1  0.2318373E-002  0.4772880E+03  0.7818608E-02  0.1019883E+00
         -2   -1    0    0    0  501 -0.00000000000E+00  0.00000000000E+00  0.21575607389E+03  0.21575607389E+03  0.00000000000E+00 0. -1.
          2   -1    0    0  502    0  0.00000000000E+00 -0.00000000000E+00 -0.10696738135E+04  0.10696738135E+04  0.00000000000E+00 0.  1.
    9000005    1    1    2  502    0  0.14391873125E+03  0.21700517120E+03 -0.35386732658E+03  0.59415985252E+03  0.40000000000E+03 0. -1.
   -9000005    1    1    2    0  501 -0.14391873125E+03 -0.21700517120E+03 -0.50005041302E+03  0.69127003485E+03  0.40000000000E+03 0.  1.
<mgrwt>
<rscale>  2 0.47728801E+03</rscale>
<asrwt>0</asrwt>
<pdfrwt beam="1">  1        2 0.16456520E+00 0.47728801E+03</pdfrwt>
<pdfrwt beam="2">  1       -2 0.33193242E-01 0.47728801E+03</pdfrwt>
<totfact> 0.19895771E+02</totfact>
</mgrwt>
</event>
<event>
 4    1  0.2318373E-002  0.5240482E+03  0.7818608E-02  0.1007686E+00
         -1   -1    0    0    0  501 -0.00000000000E+00  0.00000000000E+00  0.80500403962E+03  0.80500403962E+03  0.00000000000E+00 0. -1.
          1   -1    0    0  502    0  0.00000000000E+00 -0.00000000000E+00 -0.83714526622E+03  0.83714526622E+03  0.00000000000E+00 0.  1.
    9000005    1    1    2  502    0 -0.33856309460E+03  0.12438583987E+01 -0.64807680216E+03  0.83344469385E+03  0.40000000000E+03 0.  1.
   -9000005    1    1    2    0  501  0.33856309460E+03 -0.12438583987E+01  0.61593557556E+03  0.80870461199E+03  0.40000000000E+03 0. -1.
<mgrwt>
<rscale>  2 0.52404820E+03</rscale>
<asrwt>0</asrwt>
<pdfrwt beam="1">  1        1 0.12879158E+00 0.52404820E+03</pdfrwt>
<pdfrwt beam="2">  1       -1 0.12384678E+00 0.52404820E+03</pdfrwt>
<totfact> 0.12549177E+01</totfact>
</mgrwt>
</event>
<event>
 4    1  0.2318373E-002  0.4611560E+03  0.7818608E-02  0.1024446E+00
          2   -1    0    0  502    0  0.00000000000E+00  0.00000000000E+00  0.19499436960E+03  0.19499436960E+03  0.00000000000E+00 0.  1.
         -2   -1    0    0    0  501 -0.00000000000E+00 -0.00000000000E+00 -0.17469147066E+04  0.17469147066E+04  0.00000000000E+00 0. -1.
    9000005    1    1    2  502    0  0.18594134732E+03  0.13450162099E+03 -0.13710908043E+04  0.14465665779E+04  0.40000000000E+03 0. -1.
   -9000005    1    1    2    0  501 -0.18594134732E+03 -0.13450162099E+03 -0.18082953265E+03  0.49534249825E+03  0.40000000000E+03 0.  1.
<mgrwt>
<rscale>  2 0.46115602E+03</rscale>
<asrwt>0</asrwt>
<pdfrwt beam="1">  1        2 0.29999135E-01 0.46115602E+03</pdfrwt>
<pdfrwt beam="2">  1       -2 0.26875610E+00 0.46115602E+03</pdfrwt>
<totfact> 0.94089165E+00</totfact>
</mgrwt>
</event>
<event>
 4    1  0.2318373E-002  0.8120421E+03  0.7818608E-02  0.9542748E-01
          2   -1    0    0  502    0  0.00000000000E+00  0.00000000000E+00  0.16259117627E+04  0.16259117627E+04  0.00000000000E+00 0. -1.
         -2   -1    0    0    0  501 -0.00000000000E+00 -0.00000000000E+00 -0.41138296893E+03  0.41138296893E+03  0.00000000000E+00 0.  1.
    9000005    1    1    2  502    0  0.56330424905E+03 -0.42673263961E+03  0.48612163783E+03  0.94642837524E+03  0.40000000000E+03 0. -1.
   -9000005    1    1    2    0  501 -0.56330424905E+03  0.42673263961E+03  0.72840715597E+03  0.10908663564E+04  0.40000000000E+03 0.  1.
<mgrwt>
<rscale>  2 0.81204213E+03</rscale>
<asrwt>0</asrwt>
<pdfrwt beam="1">  1        2 0.25014027E+00 0.81204213E+03</pdfrwt>
<pdfrwt beam="2">  1       -2 0.63289688E-01 0.81204213E+03</pdfrwt>
<totfact> 0.25393651E+01</totfact>
</mgrwt>
</event>
<event>
 4    1  0.2318373E-002  0.4359761E+03  0.7818608E-02  0.1031989E+00
         -3   -1    0    0    0  501 -0.00000000000E+00  0.00000000000E+00  0.11724287909E+04  0.11724287909E+04  0.00000000000E+00 0.  1.
          3   -1    0    0  502    0  0.00000000000E+00 -0.00000000000E+00 -0.18129504672E+03  0.18129504672E+03  0.00000000000E+00 0. -1.
    9000005    1    1    2  502    0  0.14697238705E+03  0.92055784093E+02  0.71569002367E+03  0.83802587067E+03  0.40000000000E+03 0.  1.
   -9000005    1    1    2    0  501 -0.14697238705E+03 -0.92055784093E+02  0.27544372050E+03  0.51569796694E+03  0.40000000000E+03 0. -1.
<mgrwt>
<rscale>  2 0.43597609E+03</rscale>
<asrwt>0</asrwt>
<pdfrwt beam="1">  1        3 0.27891546E-01 0.43597609E+03</pdfrwt>
<pdfrwt beam="2">  1       -3 0.18037366E+00 0.43597609E+03</pdfrwt>
<totfact> 0.64467463E+00</totfact>
</mgrwt>
</event>
<event>
 4    1  0.2318373E-002  0.4260414E+03  0.7818608E-02  0.1035118E+00
         -2   -1    0    0    0  501 -0.00000000000E+00  0.00000000000E+00  0.17900364024E+03  0.17900364024E+03  0.00000000000E+00 0. -1.
          2   -1    0    0  502    0  0.00000000000E+00 -0.00000000000E+00 -0.10331702689E+04  0.10331702689E+04  0.00000000000E+00 0.  1.
    9000005    1    1    2  502    0  0.17572943454E+02  0.14561065630E+03 -0.34454358119E+03  0.54792476756E+03  0.40000000000E+03 0. -1.
   -9000005    1    1    2    0  501 -0.17572943454E+02 -0.14561065630E+03 -0.50962304742E+03  0.66424914154E+03  0.40000000000E+03 0. -1.
<mgrwt>
<rscale>  2 0.42604140E+03</rscale>
<asrwt>0</asrwt>
<pdfrwt beam="1">  1        2 0.15894927E+00 0.42604140E+03</pdfrwt>
<pdfrwt beam="2">  1       -2 0.27539022E-01 0.42604140E+03</pdfrwt>
<totfact> 0.29691238E+02</totfact>
</mgrwt>
</event>
<event>
 4    1  0.2318373E-002  0.4318149E+03  0.7818608E-02  0.1033288E+00
          2   -1    0    0  502    0  0.00000000000E+00  0.00000000000E+00  0.25008284128E+04  0.25008284128E+04  0.00000000000E+00 0.  1.
         -2   -1    0    0    0  501 -0.00000000000E+00 -0.00000000000E+00 -0.89115797387E+02  0.89115797387E+02  0.00000000000E+00 0. -1.
    9000005    1    1    2  502    0  0.16187892381E+03 -0.16104368651E+02  0.17291999179E+04  0.17823008985E+04  0.40000000000E+03 0. -1.
   -9000005    1    1    2    0  501 -0.16187892381E+03  0.16104368651E+02  0.68251269745E+03  0.80764331164E+03  0.40000000000E+03 0. -1.
<mgrwt>
<rscale>  2 0.43181493E+03</rscale>
<asrwt>0</asrwt>
<pdfrwt beam="1">  1        2 0.38474278E+00 0.43181493E+03</pdfrwt>
<pdfrwt beam="2">  1       -2 0.13710125E-01 0.43181493E+03</pdfrwt>
<totfact> 0.15389461E+02</totfact>
</mgrwt>
</event>
<event>
 4    1  0.2318373E-002  0.6011028E+03  0.7818608E-02  0.9903121E-01
          1   -1    0    0  502    0  0.00000000000E+00  0.00000000000E+00  0.19592873605E+04  0.19592873605E+04  0.00000000000E+00 0.  1.
         -1   -1    0    0    0  501 -0.00000000000E+00 -0.00000000000E+00 -0.18958130388E+03  0.18958130388E+03  0.00000000000E+00 0. -1.
    9000005    1    1    2  502    0 -0.32787618234E+03  0.30630338478E+03  0.10621971640E+04  0.12204865299E+04  0.40000000000E+03 0.  1.
   -9000005    1    1    2    0  501  0.32787618234E+03 -0.30630338478E+03  0.70750889260E+03  0.92838213446E+03  0.40000000000E+03 0.  1.
<mgrwt>
<rscale>  2 0.60110278E+03</rscale>
<asrwt>0</asrwt>
<pdfrwt beam="1">  1        1 0.30142881E+00 0.60110278E+03</pdfrwt>
<pdfrwt beam="2">  1       -1 0.29166356E-01 0.60110278E+03</pdfrwt>
<totfact> 0.36004673E+01</totfact>
</mgrwt>
</event>
<event>
 4    1  0.2318373E-002  0.5596778E+03  0.7818608E-02  0.9992784E-01
         -1   -1    0    0    0  501 -0.00000000000E+00  0.00000000000E+00  0.17882756990E+03  0.17882756990E+03  0.00000000000E+00 0.  1.
          1   -1    0    0  502    0  0.00000000000E+00 -0.00000000000E+00 -0.27122300171E+04  0.27122300171E+04  0.00000000000E+00 0. -1.
    9000005    1    1    2  502    0  0.31001453255E+03 -0.23901928165E+03 -0.21269725070E+04  0.21993752006E+04  0.40000000000E+03 0. -1.
   -9000005    1    1    2    0  501 -0.31001453255E+03  0.23901928165E+03 -0.40642994018E+03  0.69168238641E+03  0.40000000000E+03 0.  1.
<mgrwt>
<rscale>  2 0.55967779E+03</rscale>
<asrwt>0</asrwt>
<pdfrwt beam="1">  1        1 0.41726615E+00 0.55967779E+03</pdfrwt>
<pdfrwt beam="2">  1       -1 0.27511934E-01 0.55967779E+03</pdfrwt>
<totfact> 0.12487609E+01</totfact>
</mgrwt>
</event>
<event>
 4    1  0.2318373E-002  0.4134742E+03  0.7818608E-02  0.1039211E+00
          1   -1    0    0  502    0  0.00000000000E+00  0.00000000000E+00  0.63670957420E+03  0.63670957420E+03  0.00000000000E+00 0.  1.
         -1   -1    0    0    0  501 -0.00000000000E+00 -0.00000000000E+00 -0.26874373084E+03  0.26874373084E+03  0.00000000000E+00 0. -1.
    9000005    1    1    2  502    0 -0.87749539164E+02  0.57104448473E+02  0.19742314949E+03  0.45818860703E+03  0.40000000000E+03 0.  1.
   -9000005    1    1    2    0  501  0.87749539164E+02 -0.57104448473E+02  0.17054269387E+03  0.44726469802E+03  0.40000000000E+03 0. -1.
<mgrwt>
<rscale>  2 0.41347418E+03</rscale>
<asrwt>0</asrwt>
<pdfrwt beam="1">  1        1 0.97955319E-01 0.41347418E+03</pdfrwt>
<pdfrwt beam="2">  1       -1 0.41345189E-01 0.41347418E+03</pdfrwt>
<totfact> 0.18699982E+02</totfact>
</mgrwt>
</event>
<event>
 4    1  0.2318373E-002  0.4858276E+03  0.7818608E-02  0.1017546E+00
         -2   -1    0    0    0  501 -0.00000000000E+00  0.00000000000E+00  0.12854718458E+03  0.12854718458E+03  0.00000000000E+00 0. -1.
          2   -1    0    0  502    0  0.00000000000E+00 -0.00000000000E+00 -0.24365029925E+04  0.24365029925E+04  0.00000000000E+00 0.  1.
    9000005    1    1    2  502    0  0.16455640467E+03 -0.22124569134E+03 -0.17906201188E+04  0.18553568056E+04  0.40000000000E+03 0.  1.
   -9000005    1    1    2    0  501 -0.16455640467E+03  0.22124569134E+03 -0.51733568908E+03  0.70969337143E+03  0.40000000000E+03 0. -1.
<mgrwt>
<rscale>  2 0.48582761E+03</rscale>
<asrwt>0</asrwt>
<pdfrwt beam="1">  1        2 0.37484659E+00 0.48582761E+03</pdfrwt>
<pdfrwt beam="2">  1       -2 0.19776491E-01 0.48582761E+03</pdfrwt>
<totfact> 0.88903535E+01</totfact>
</mgrwt>
</event>
<event>
 4    1  0.2318373E-002  0.4840196E+03  0.7818608E-02  0.1018036E+00
         -2   -1    0    0    0  501 -0.00000000000E+00  0.00000000000E+00  0.28045024106E+03  0.28045024106E+03  0.00000000000E+00 0.  1.
          2   -1    0    0  502    0  0.00000000000E+00 -0.00000000000E+00 -0.10781866850E+04  0.10781866850E+04  0.00000000000E+00 0. -1.
    9000005    1    1    2  502    0  0.14789870872E+03 -0.22891248826E+03 -0.72125771934E+03  0.86861248726E+03  0.40000000000E+03 0. -1.
   -9000005    1    1    2    0  501 -0.14789870872E+03  0.22891248826E+03 -0.76478724625E+02  0.49002443882E+03  0.40000000000E+03 0.  1.
<mgrwt>
<rscale>  2 0.48401958E+03</rscale>
<asrwt>0</asrwt>
<pdfrwt beam="1">  1        2 0.16587487E+00 0.48401958E+03</pdfrwt>
<pdfrwt beam="2">  1       -2 0.43146192E-01 0.48401958E+03</pdfrwt>
<totfact> 0.11881728E+02</totfact>
</mgrwt>
</event>
<event>
 4    1  0.2318373E-002  0.4351346E+03  0.7818608E-02  0.1032250E+00
         -2   -1    0    0    0  501 -0.00000000000E+00  0.00000000000E+00  0.70442139126E+03  0.70442139126E+03  0.00000000000E+00 0. -1.
          2   -1    0    0  502    0  0.00000000000E+00 -0.00000000000E+00 -0.28978905006E+03  0.28978905006E+03  0.00000000000E+00 0.  1.
    9000005    1    1    2  502    0  0.12537381439E+03  0.11671996981E+03  0.73503693923E+02  0.44129914764E+03  0.40000000000E+03 0.  1.
   -9000005    1    1    2    0  501 -0.12537381439E+03 -0.11671996981E+03  0.34112864727E+03  0.55291129368E+03  0.40000000000E+03 0. -1.
<mgrwt>
<rscale>  2 0.43513463E+03</rscale>
<asrwt>0</asrwt>
<pdfrwt beam="1">  1        2 0.44582931E-01 0.43513463E+03</pdfrwt>
<pdfrwt beam="2">  1       -2 0.10837252E+00 0.43513463E+03</pdfrwt>
<totfact> 0.80021593E+01</totfact>
</mgrwt>
</event>
<event>
 4    1  0.2318373E-002  0.4138027E+03  0.7818608E-02  0.1039102E+00
         -2   -1    0    0    0  501 -0.00000000000E+00  0.00000000000E+00  0.41564249427E+03  0.41564249427E+03  0.00000000000E+00 0. -1.
          2   -1    0    0  502    0  0.00000000000E+00 -0.00000000000E+00 -0.49676871104E+03  0.49676871104E+03  0.00000000000E+00 0.  1.
    9000005    1    1    2  502    0 -0.85929231927E+02  0.62039258863E+02 -0.22904744406E+03  0.47296451682E+03  0.40000000000E+03 0.  1.
   -9000005    1    1    2    0  501  0.85929231927E+02 -0.62039258863E+02  0.14792122729E+03  0.43944668849E+03  0.40000000000E+03 0. -1.
<mgrwt>
<rscale>  2 0.41380273E+03</rscale>
<asrwt>0</asrwt>
<pdfrwt beam="1">  1        2 0.76425955E-01 0.41380273E+03</pdfrwt>
<pdfrwt beam="2">  1       -2 0.63944999E-01 0.41380273E+03</pdfrwt>
<totfact> 0.14463239E+02</totfact>
</mgrwt>
</event>
<event>
 4    1  0.2318373E-002  0.4232851E+03  0.7818608E-02  0.1036002E+00
          2   -1    0    0  502    0  0.00000000000E+00  0.00000000000E+00  0.76944044692E+03  0.76944044692E+03  0.00000000000E+00 0. -1.
         -2   -1    0    0    0  501 -0.00000000000E+00 -0.00000000000E+00 -0.38011003931E+03  0.38011003931E+03  0.00000000000E+00 0.  1.
    9000005    1    1    2  502    0 -0.21082430432E+02  0.13684215267E+03  0.55241078052E+03  0.69593671699E+03  0.40000000000E+03 0. -1.
   -9000005    1    1    2    0  501  0.21082430432E+02 -0.13684215267E+03 -0.16308037291E+03  0.45361376924E+03  0.40000000000E+03 0.  1.
<mgrwt>
<rscale>  2 0.42328506E+03</rscale>
<asrwt>0</asrwt>
<pdfrwt beam="1">  1        2 0.11837545E+00 0.42328506E+03</pdfrwt>
<pdfrwt beam="2">  1       -2 0.58478468E-01 0.42328506E+03</pdfrwt>
<totfact> 0.10315069E+02</totfact>
</mgrwt>
</event>
<event>
 4    1  0.2318373E-002  0.4091370E+03  0.7818608E-02  0.1040661E+00
         -4   -1    0    0    0  501 -0.00000000000E+00  0.00000000000E+00  0.35895297672E+03  0.35895297672E+03  0.00000000000E+00 0.  1.
          4   -1    0    0  502    0  0.00000000000E+00 -0.00000000000E+00 -0.59931751620E+03  0.59931751620E+03  0.00000000000E+00 0. -1.
    9000005    1    1    2  502    0 -0.14826571621E+02  0.84695108343E+02 -0.34587807404E+03  0.53574689052E+03  0.40000000000E+03 0. -1.
   -9000005    1    1    2    0  501  0.14826571621E+02 -0.84695108343E+02  0.10551353456E+03  0.42252360239E+03  0.40000000000E+03 0.  1.
<mgrwt>
<rscale>  2 0.40913700E+03</rscale>
<asrwt>0</asrwt>
<pdfrwt beam="1">  1        4 0.92202694E-01 0.40913700E+03</pdfrwt>
<pdfrwt beam="2">  1       -4 0.55223535E-01 0.40913700E+03</pdfrwt>
<totfact> 0.60397945E+00</totfact>
</mgrwt>
</event>
<event>
 4    1  0.2318373E-002  0.4116539E+03  0.7818608E-02  0.1039817E+00
          2   -1    0    0  502    0  0.00000000000E+00  0.00000000000E+00  0.72378291914E+03  0.72378291914E+03  0.00000000000E+00 0. -1.
         -2   -1    0    0    0  501 -0.00000000000E+00 -0.00000000000E+00 -0.23633830883E+03  0.23633830883E+03  0.00000000000E+00 0.  1.
    9000005    1    1    2  502    0  0.12859625195E+02 -0.96403218133E+02  0.19731293141E+03  0.45649900693E+03  0.40000000000E+03 0. -1.
   -9000005    1    1    2    0  501 -0.12859625195E+02  0.96403218133E+02  0.29013167891E+03  0.50362222105E+03  0.40000000000E+03 0. -1.
<mgrwt>
<rscale>  2 0.41165392E+03</rscale>
<asrwt>0</asrwt>
<pdfrwt beam="1">  1        2 0.11135122E+00 0.41165392E+03</pdfrwt>
<pdfrwt beam="2">  1       -2 0.36359740E-01 0.41165392E+03</pdfrwt>
<totfact> 0.28681986E+02</totfact>
</mgrwt>
</event>
<event>
 4    1  0.2318373E-002  0.8147624E+03  0.7818608E-02  0.9538892E-01
         -2   -1    0    0    0  501 -0.00000000000E+00  0.00000000000E+00  0.33112578156E+03  0.33112578156E+03  0.00000000000E+00 0. -1.
          2   -1    0    0  502    0  0.00000000000E+00 -0.00000000000E+00 -0.21244099810E+04  0.21244099810E+04  0.00000000000E+00 0.  1.
    9000005    1    1    2  502    0 -0.70975115428E+03 -0.95438948238E+01 -0.11879808454E+04  0.14405333304E+04  0.40000000000E+03 0.  1.
   -9000005    1    1    2    0  501  0.70975115428E+03  0.95438948238E+01 -0.60530335407E+03  0.10150024322E+04  0.40000000000E+03 0. -1.
<mgrwt>
<rscale>  2 0.81476241E+03</rscale>
<asrwt>0</asrwt>
<pdfrwt beam="1">  1        2 0.32683230E+00 0.81476241E+03</pdfrwt>
<pdfrwt beam="2">  1       -2 0.50942428E-01 0.81476241E+03</pdfrwt>
<totfact> 0.21310642E+01</totfact>
</mgrwt>
</event>
<event>
 4    1  0.2318373E-002  0.4555327E+03  0.7818608E-02  0.1026085E+00
          2   -1    0    0  502    0  0.00000000000E+00  0.00000000000E+00  0.57426911939E+03  0.57426911939E+03  0.00000000000E+00 0.  1.
         -2   -1    0    0    0  501 -0.00000000000E+00 -0.00000000000E+00 -0.54587610712E+03  0.54587610712E+03  0.00000000000E+00 0. -1.
    9000005    1    1    2  502    0  0.13186700519E+03  0.17355429884E+03  0.33983114675E+03  0.56832667543E+03  0.40000000000E+03 0.  1.
   -9000005    1    1    2    0  501 -0.13186700519E+03 -0.17355429884E+03 -0.31143813448E+03  0.55181855108E+03  0.40000000000E+03 0. -1.
<mgrwt>
<rscale>  2 0.45553266E+03</rscale>
<asrwt>0</asrwt>
<pdfrwt beam="1">  1        2 0.88349095E-01 0.45553266E+03</pdfrwt>
<pdfrwt beam="2">  1       -2 0.83980940E-01 0.45553266E+03</pdfrwt>
<totfact> 0.67107348E+01</totfact>
</mgrwt>
</event>
<event>
 4    1  0.2318373E-002  0.4044872E+03  0.7818608E-02  0.1042237E+00
          2   -1    0    0  502    0  0.00000000000E+00  0.00000000000E+00  0.39871802904E+03  0.39871802904E+03  0.00000000000E+00 0. -1.
         -2   -1    0    0    0  501 -0.00000000000E+00 -0.00000000000E+00 -0.41075719144E+03  0.41075719144E+03  0.00000000000E+00 0.  1.
    9000005    1    1    2  502    0 -0.26228997863E+02 -0.54054619971E+02 -0.18921997167E+02  0.40492950528E+03  0.40000000000E+03 0.  1.
   -9000005    1    1    2    0  501  0.26228997863E+02  0.54054619971E+02  0.68828347659E+01  0.40454571520E+03  0.40000000000E+03 0.  1.
<mgrwt>
<rscale>  2 0.40448716E+03</rscale>
<asrwt>0</asrwt>
<pdfrwt beam="1">  1        2 0.61341235E-01 0.40448716E+03</pdfrwt>
<pdfrwt beam="2">  1       -2 0.63193414E-01 0.40448716E+03</pdfrwt>
<totfact> 0.18990042E+02</totfact>
</mgrwt>
</event>
<event>
 4    1  0.2318373E-002  0.4238032E+03  0.7818608E-02  0.1035836E+00
         -2   -1    0    0    0  501 -0.00000000000E+00  0.00000000000E+00  0.59553049810E+03  0.59553049810E+03  0.00000000000E+00 0.  1.
          2   -1    0    0  502    0  0.00000000000E+00 -0.00000000000E+00 -0.46623756489E+03  0.46623756489E+03  0.00000000000E+00 0. -1.
    9000005    1    1    2  502    0 -0.12665529902E+03  0.59729341758E+02  0.38012280127E+03  0.56930001149E+03  0.40000000000E+03 0.  1.
   -9000005    1    1    2    0  501  0.12665529902E+03 -0.59729341758E+02 -0.25082986806E+03  0.49246805150E+03  0.40000000000E+03 0. -1.
<mgrwt>
<rscale>  2 0.42380321E+03</rscale>
<asrwt>0</asrwt>
<pdfrwt beam="1">  1        2 0.71728856E-01 0.42380321E+03</pdfrwt>
<pdfrwt beam="2">  1       -2 0.91620077E-01 0.42380321E+03</pdfrwt>
<totfact> 0.70196197E+01</totfact>
</mgrwt>
</event>
<event>
 4    1  0.2318373E-002  0.4194064E+03  0.7818608E-02  0.1037260E+00
         -2   -1    0    0    0  501 -0.00000000000E+00  0.00000000000E+00  0.71745749516E+03  0.71745749516E+03  0.00000000000E+00 0. -1.
          2   -1    0    0  502    0  0.00000000000E+00 -0.00000000000E+00 -0.25597641047E+03  0.25597641047E+03  0.00000000000E+00 0.  1.
    9000005    1    1    2  502    0  0.53035772014E+02 -0.11440701805E+03  0.33072706450E+03  0.53411810500E+03  0.40000000000E+03 0. -1.
   -9000005    1    1    2    0  501 -0.53035772014E+02  0.11440701805E+03  0.13075402019E+03  0.43931580064E+03  0.40000000000E+03 0.  1.
<mgrwt>
<rscale>  2 0.41940644E+03</rscale>
<asrwt>0</asrwt>
<pdfrwt beam="1">  1        2 0.39380987E-01 0.41940644E+03</pdfrwt>
<pdfrwt beam="2">  1       -2 0.11037808E+00 0.41940644E+03</pdfrwt>
<totfact> 0.87852102E+01</totfact>
</mgrwt>
</event>
<event>
 4    1  0.2318373E-002  0.6236447E+03  0.7818608E-02  0.9857530E-01
          2   -1    0    0  502    0  0.00000000000E+00  0.00000000000E+00  0.11640318225E+04  0.11640318225E+04  0.00000000000E+00 0.  1.
         -2   -1    0    0    0  501 -0.00000000000E+00 -0.00000000000E+00 -0.33550359244E+03  0.33550359244E+03  0.00000000000E+00 0. -1.
    9000005    1    1    2  502    0 -0.46293789963E+03 -0.12091820792E+03  0.46231680428E+03  0.77631793708E+03  0.40000000000E+03 0. -1.
   -9000005    1    1    2    0  501  0.46293789963E+03  0.12091820792E+03  0.36621142583E+03  0.72321747789E+03  0.40000000000E+03 0.  1.
<mgrwt>
<rscale>  2 0.62364470E+03</rscale>
<asrwt>0</asrwt>
<pdfrwt beam="1">  1        2 0.17908182E+00 0.62364470E+03</pdfrwt>
<pdfrwt beam="2">  1       -2 0.51615938E-01 0.62364470E+03</pdfrwt>
<totfact> 0.72585234E+01</totfact>
</mgrwt>
</event>
<event>
 4    1  0.2318373E-002  0.5324816E+03  0.7818608E-02  0.1005632E+00
          1   -1    0    0  502    0  0.00000000000E+00  0.00000000000E+00  0.63278700155E+03  0.63278700155E+03  0.00000000000E+00 0.  1.
         -1   -1    0    0    0  501 -0.00000000000E+00 -0.00000000000E+00 -0.53447541286E+03  0.53447541286E+03  0.00000000000E+00 0. -1.
    9000005    1    1    2  502    0 -0.30969152833E+03 -0.16621611096E+03 -0.18549939118E+03  0.56386759296E+03  0.40000000000E+03 0.  1.
   -9000005    1    1    2    0  501  0.30969152833E+03  0.16621611096E+03  0.28381097987E+03  0.60339482145E+03  0.40000000000E+03 0. -1.
<mgrwt>
<rscale>  2 0.53248158E+03</rscale>
<asrwt>0</asrwt>
<pdfrwt beam="1">  1        1 0.97351847E-01 0.53248158E+03</pdfrwt>
<pdfrwt beam="2">  1       -1 0.82226986E-01 0.53248158E+03</pdfrwt>
<totfact> 0.48750633E+01</totfact>
</mgrwt>
</event>
<event>
 4    1  0.2318373E-002  0.4990881E+03  0.7818608E-02  0.1014017E+00
         -2   -1    0    0    0  501 -0.00000000000E+00  0.00000000000E+00  0.58126836852E+03  0.58126836852E+03  0.00000000000E+00 0.  1.
          2   -1    0    0  502    0  0.00000000000E+00 -0.00000000000E+00 -0.71834838602E+03  0.71834838602E+03  0.00000000000E+00 0. -1.
    9000005    1    1    2  502    0 -0.29794142749E+03 -0.17882733628E+02  0.34420644624E+03  0.60627301112E+03  0.40000000000E+03 0.  1.
   -9000005    1    1    2    0  501  0.29794142749E+03  0.17882733628E+02 -0.48128646373E+03  0.69334374343E+03  0.40000000000E+03 0. -1.
<mgrwt>
<rscale>  2 0.49908805E+03</rscale>
<asrwt>0</asrwt>
<pdfrwt beam="1">  1        2 0.11051514E+00 0.49908805E+03</pdfrwt>
<pdfrwt beam="2">  1       -2 0.89425903E-01 0.49908805E+03</pdfrwt>
<totfact> 0.44125814E+01</totfact>
</mgrwt>
</event>
<event>
 4    1  0.2318373E-002  0.6563876E+03  0.7818608E-02  0.9794867E-01
          2   -1    0    0  502    0  0.00000000000E+00  0.00000000000E+00  0.48793304911E+03  0.48793304911E+03  0.00000000000E+00 0. -1.
         -2   -1    0    0    0  501 -0.00000000000E+00 -0.00000000000E+00 -0.11438297437E+04  0.11438297437E+04  0.00000000000E+00 0.  1.
    9000005    1    1    2  502    0  0.44915303627E+03  0.26288058868E+03  0.61657337293E+02  0.65927708980E+03  0.40000000000E+03 0. -1.
   -9000005    1    1    2    0  501 -0.44915303627E+03 -0.26288058868E+03 -0.71755403191E+03  0.97248570303E+03  0.40000000000E+03 0.  1.
<mgrwt>
<rscale>  2 0.65638758E+03</rscale>
<asrwt>0</asrwt>
<pdfrwt beam="1">  1        2 0.75066624E-01 0.65638758E+03</pdfrwt>
<pdfrwt beam="2">  1       -2 0.17597380E+00 0.65638758E+03</pdfrwt>
<totfact> 0.12573190E+01</totfact>
</mgrwt>
</event>
<event>
 4    1  0.2318373E-002  0.5926757E+03  0.7818608E-02  0.9920719E-01
         -2   -1    0    0    0  501 -0.00000000000E+00  0.00000000000E+00  0.50246496218E+03  0.50246496218E+03  0.00000000000E+00 0.  1.
          2   -1    0    0  502    0  0.00000000000E+00 -0.00000000000E+00 -0.77242877025E+03  0.77242877025E+03  0.00000000000E+00 0. -1.
    9000005    1    1    2  502    0 -0.43564743277E+03 -0.38415585782E+02  0.61446324001E+02  0.59585240928E+03  0.40000000000E+03 0.  1.
   -9000005    1    1    2    0  501  0.43564743277E+03  0.38415585782E+02 -0.33141013207E+03  0.67904132315E+03  0.40000000000E+03 0.  1.
<mgrwt>
<rscale>  2 0.59267566E+03</rscale>
<asrwt>0</asrwt>
<pdfrwt beam="1">  1        2 0.11883520E+00 0.59267566E+03</pdfrwt>
<pdfrwt beam="2">  1       -2 0.77302302E-01 0.59267566E+03</pdfrwt>
<totfact> 0.55323802E+01</totfact>
</mgrwt>
</event>
<event>
 4    1  0.2318373E-002  0.5201907E+03  0.7818608E-02  0.1008639E+00
         -4   -1    0    0    0  501 -0.00000000000E+00  0.00000000000E+00  0.31494814898E+03  0.31494814898E+03  0.00000000000E+00 0. -1.
          4   -1    0    0  502    0  0.00000000000E+00 -0.00000000000E+00 -0.96769242026E+03  0.96769242026E+03  0.00000000000E+00 0.  1.
    9000005    1    1    2  502    0 -0.32238319409E+03  0.81654379951E+02 -0.54112468974E+03  0.75060928015E+03  0.40000000000E+03 0.  1.
   -9000005    1    1    2    0  501  0.32238319409E+03 -0.81654379951E+02 -0.11161958153E+03  0.53203128910E+03  0.40000000000E+03 0. -1.
<mgrwt>
<rscale>  2 0.52019070E+03</rscale>
<asrwt>0</asrwt>
<pdfrwt beam="1">  1        4 0.14887576E+00 0.52019070E+03</pdfrwt>
<pdfrwt beam="2">  1       -4 0.48453562E-01 0.52019070E+03</pdfrwt>
<totfact> 0.24552119E+00</totfact>
</mgrwt>
</event>
<event>
 4    1  0.2318373E-002  0.4509862E+03  0.7818608E-02  0.1027428E+00
         -2   -1    0    0    0  501 -0.00000000000E+00  0.00000000000E+00  0.10908905850E+04  0.10908905850E+04  0.00000000000E+00 0. -1.
          2   -1    0    0  502    0  0.00000000000E+00 -0.00000000000E+00 -0.29317169236E+03  0.29317169236E+03  0.00000000000E+00 0.  1.
    9000005    1    1    2  502    0 -0.78931330607E+02  0.19276516191E+03  0.81640692715E+03  0.93268903354E+03  0.40000000000E+03 0. -1.
   -9000005    1    1    2    0  501  0.78931330607E+02 -0.19276516191E+03 -0.18688034521E+02  0.45137324381E+03  0.40000000000E+03 0.  1.
<mgrwt>
<rscale>  2 0.45098621E+03</rscale>
<asrwt>0</asrwt>
<pdfrwt beam="1">  1        2 0.45103338E-01 0.45098621E+03</pdfrwt>
<pdfrwt beam="2">  1       -2 0.16782932E+00 0.45098621E+03</pdfrwt>
<totfact> 0.25937387E+01</totfact>
</mgrwt>
</event>
<event>
 4    1  0.2318373E-002  0.4225428E+03  0.7818608E-02  0.1036242E+00
         -1   -1    0    0    0  501 -0.00000000000E+00  0.00000000000E+00  0.24415097880E+03  0.24415097880E+03  0.00000000000E+00 0. -1.
          1   -1    0    0  502    0  0.00000000000E+00 -0.00000000000E+00 -0.78344425930E+03  0.78344425930E+03  0.00000000000E+00 0.  1.
    9000005    1    1    2  502    0 -0.13235093851E+03  0.32025224181E+02 -0.40222736459E+03  0.58337744105E+03  0.40000000000E+03 0.  1.
   -9000005    1    1    2    0  501  0.13235093851E+03 -0.32025224181E+02 -0.13706591592E+03  0.44421779705E+03  0.40000000000E+03 0. -1.
<mgrwt>
<rscale>  2 0.42254276E+03</rscale>
<asrwt>0</asrwt>
<pdfrwt beam="1">  1        1 0.12052989E+00 0.42254276E+03</pdfrwt>
<pdfrwt beam="2">  1       -1 0.37561689E-01 0.42254276E+03</pdfrwt>
<totfact> 0.16284554E+02</totfact>
</mgrwt>
</event>
<event>
 4    1  0.2318373E-002  0.6304716E+03  0.7818608E-02  0.9844129E-01
          1   -1    0    0  502    0  0.00000000000E+00  0.00000000000E+00  0.62112548466E+03  0.62112548466E+03  0.00000000000E+00 0.  1.
         -1   -1    0    0    0  501 -0.00000000000E+00 -0.00000000000E+00 -0.77172239366E+03  0.77172239366E+03  0.00000000000E+00 0. -1.
    9000005    1    1    2  502    0 -0.42999675250E+03 -0.22934074259E+03  0.21246904836E+03  0.66531006297E+03  0.40000000000E+03 0.  1.
   -9000005    1    1    2    0  501  0.42999675250E+03  0.22934074259E+03 -0.36306595736E+03  0.72753781536E+03  0.40000000000E+03 0. -1.
<mgrwt>
<rscale>  2 0.63047156E+03</rscale>
<asrwt>0</asrwt>
<pdfrwt beam="1">  1        1 0.95557768E-01 0.63047156E+03</pdfrwt>
<pdfrwt beam="2">  1       -1 0.11872652E+00 0.63047156E+03</pdfrwt>
<totfact> 0.21540418E+01</totfact>
</mgrwt>
</event>
<event>
 4    1  0.2318373E-002  0.5565344E+03  0.7818608E-02  0.9999927E-01
          1   -1    0    0  502    0  0.00000000000E+00  0.00000000000E+00  0.14275449828E+04  0.14275449828E+04  0.00000000000E+00 0. -1.
         -1   -1    0    0    0  501 -0.00000000000E+00 -0.00000000000E+00 -0.21818544901E+03  0.21818544901E+03  0.00000000000E+00 0.  1.
    9000005    1    1    2  502    0  0.36356771751E+03 -0.13247301557E+03  0.54319529375E+03  0.77768355532E+03  0.40000000000E+03 0.  1.
   -9000005    1    1    2    0  501 -0.36356771751E+03  0.13247301557E+03  0.66616424006E+03  0.86804687650E+03  0.40000000000E+03 0. -1.
<mgrwt>
<rscale>  2 0.55653444E+03</rscale>
<asrwt>0</asrwt>
<pdfrwt beam="1">  1        1 0.21962230E+00 0.55653444E+03</pdfrwt>
<pdfrwt beam="2">  1       -1 0.33566993E-01 0.55653444E+03</pdfrwt>
<totfact> 0.64472244E+01</totfact>
</mgrwt>
</event>
<event>
 4    1  0.2318373E-002  0.4988590E+03  0.7818608E-02  0.1014077E+00
          1   -1    0    0  502    0  0.00000000000E+00  0.00000000000E+00  0.61036011106E+03  0.61036011106E+03  0.00000000000E+00 0.  1.
         -1   -1    0    0    0  501 -0.00000000000E+00 -0.00000000000E+00 -0.45675958955E+03  0.45675958955E+03  0.00000000000E+00 0. -1.
    9000005    1    1    2  502    0 -0.66026792263E+02 -0.29069013443E+03 -0.98015973040E+02  0.50839691435E+03  0.40000000000E+03 0. -1.
   -9000005    1    1    2    0  501  0.66026792263E+02  0.29069013443E+03  0.25161649455E+03  0.55872278626E+03  0.40000000000E+03 0.  1.
<mgrwt>
<rscale>  2 0.49885899E+03</rscale>
<asrwt>0</asrwt>
<pdfrwt beam="1">  1        1 0.93901555E-01 0.49885899E+03</pdfrwt>
<pdfrwt beam="2">  1       -1 0.70270706E-01 0.49885899E+03</pdfrwt>
<totfact> 0.71462337E+01</totfact>
</mgrwt>
</event>
<event>
 4    1  0.2318373E-002  0.4050183E+03  0.7818608E-02  0.1042056E+00
         -2   -1    0    0    0  501 -0.00000000000E+00  0.00000000000E+00  0.17772066657E+03  0.17772066657E+03  0.00000000000E+00 0.  1.
          2   -1    0    0  502    0  0.00000000000E+00 -0.00000000000E+00 -0.10046582747E+04  0.10046582747E+04  0.00000000000E+00 0. -1.
    9000005    1    1    2  502    0 -0.31537853640E+02  0.55183392076E+02 -0.24494443080E+03  0.47332612135E+03  0.40000000000E+03 0.  1.
   -9000005    1    1    2    0  501  0.31537853640E+02 -0.55183392076E+02 -0.58199317728E+03  0.70905281987E+03  0.40000000000E+03 0. -1.
<mgrwt>
<rscale>  2 0.40501832E+03</rscale>
<asrwt>0</asrwt>
<pdfrwt beam="1">  1        2 0.15456281E+00 0.40501832E+03</pdfrwt>
<pdfrwt beam="2">  1       -2 0.27341641E-01 0.40501832E+03</pdfrwt>
<totfact> 0.31386861E+02</totfact>
</mgrwt>
</event>
<event>
 4    1  0.2318373E-002  0.4671582E+03  0.7818608E-02  0.1022725E+00
          2   -1    0    0  502    0  0.00000000000E+00  0.00000000000E+00  0.12028730289E+04  0.12028730289E+04  0.00000000000E+00 0.  1.
         -2   -1    0    0    0  501 -0.00000000000E+00 -0.00000000000E+00 -0.24762066815E+03  0.24762066815E+03  0.00000000000E+00 0. -1.
    9000005    1    1    2  502    0 -0.12788986296E+03 -0.20464839666E+03  0.85259233581E+03  0.97218849736E+03  0.40000000000E+03 0.  1.
   -9000005    1    1    2    0  501  0.12788986296E+03  0.20464839666E+03  0.10266002489E+03  0.47830519965E+03  0.40000000000E+03 0. -1.
<mgrwt>
<rscale>  2 0.46715820E+03</rscale>
<asrwt>0</asrwt>
<pdfrwt beam="1">  1        2 0.18505739E+00 0.46715820E+03</pdfrwt>
<pdfrwt beam="2">  1       -2 0.38095488E-01 0.46715820E+03</pdfrwt>
<totfact> 0.12783191E+02</totfact>
</mgrwt>
</event>
<event>
 4    1  0.2318373E-002  0.7520137E+03  0.7818608E-02  0.9632197E-01
          2   -1    0    0  502    0  0.00000000000E+00  0.00000000000E+00  0.16479727571E+04  0.16479727571E+04  0.00000000000E+00 0. -1.
         -2   -1    0    0    0  501 -0.00000000000E+00 -0.00000000000E+00 -0.37690023119E+03  0.37690023119E+03  0.00000000000E+00 0.  1.
    9000005    1    1    2  502    0 -0.46661254963E+03 -0.43335581476E+03  0.33263269222E+03  0.82229498453E+03  0.40000000000E+03 0.  1.
   -9000005    1    1    2    0  501  0.46661254963E+03  0.43335581476E+03  0.93843983365E+03  0.12025780037E+04  0.40000000000E+03 0. -1.
<mgrwt>
<rscale>  2 0.75201365E+03</rscale>
<asrwt>0</asrwt>
<pdfrwt beam="1">  1        2 0.25353427E+00 0.75201365E+03</pdfrwt>
<pdfrwt beam="2">  1       -2 0.57984652E-01 0.75201365E+03</pdfrwt>
<totfact> 0.29929605E+01</totfact>
</mgrwt>
</event>
<event>
 4    1  0.2318373E-002  0.4314926E+03  0.7818608E-02  0.1033389E+00
          1   -1    0    0  502    0  0.00000000000E+00  0.00000000000E+00  0.45856704257E+03  0.45856704257E+03  0.00000000000E+00 0.  1.
         -1   -1    0    0    0  501 -0.00000000000E+00 -0.00000000000E+00 -0.48677933413E+03  0.48677933413E+03  0.00000000000E+00 0. -1.
    9000005    1    1    2  502    0 -0.13018476787E+03  0.96113593980E+02 -0.20663686190E+03  0.47841894761E+03  0.40000000000E+03 0. -1.
   -9000005    1    1    2    0  501  0.13018476787E+03 -0.96113593980E+02  0.17842457035E+03  0.46692742909E+03  0.40000000000E+03 0.  1.
<mgrwt>
<rscale>  2 0.43149264E+03</rscale>
<asrwt>0</asrwt>
<pdfrwt beam="1">  1        1 0.70548776E-01 0.43149264E+03</pdfrwt>
<pdfrwt beam="2">  1       -1 0.74889128E-01 0.43149264E+03</pdfrwt>
<totfact> 0.93707782E+01</totfact>
</mgrwt>
</event>
<event>
 4    1  0.2318373E-002  0.4093733E+03  0.7818608E-02  0.1040582E+00
         -1   -1    0    0    0  501 -0.00000000000E+00  0.00000000000E+00  0.54679215120E+03  0.54679215120E+03  0.00000000000E+00 0. -1.
          1   -1    0    0  502    0  0.00000000000E+00 -0.00000000000E+00 -0.30771528874E+03  0.30771528874E+03  0.00000000000E+00 0.  1.
    9000005    1    1    2  502    0 -0.14705209330E+02 -0.85850278496E+02  0.14649532794E+03  0.43479580795E+03  0.40000000000E+03 0. -1.
   -9000005    1    1    2    0  501  0.14705209330E+02  0.85850278496E+02  0.92581534522E+02  0.41971163200E+03  0.40000000000E+03 0.  1.
<mgrwt>
<rscale>  2 0.40937332E+03</rscale>
<asrwt>0</asrwt>
<pdfrwt beam="1">  1        1 0.47340814E-01 0.40937332E+03</pdfrwt>
<pdfrwt beam="2">  1       -1 0.84121869E-01 0.40937332E+03</pdfrwt>
<totfact> 0.12369302E+02</totfact>
</mgrwt>
</event>
<event>
 4    1  0.2318373E-002  0.4526926E+03  0.7818608E-02  0.1026922E+00
          1   -1    0    0  502    0  0.00000000000E+00  0.00000000000E+00  0.13281986856E+04  0.13281986856E+04  0.00000000000E+00 0.  1.
         -1   -1    0    0    0  501 -0.00000000000E+00 -0.00000000000E+00 -0.23636105117E+03  0.23636105117E+03  0.00000000000E+00 0. -1.
    9000005    1    1    2  502    0  0.12475993073E+03  0.17136383842E+03  0.84958481162E+02  0.46059586294E+03  0.40000000000E+03 0. -1.
   -9000005    1    1    2    0  501 -0.12475993073E+03 -0.17136383842E+03  0.10068791533E+04  0.11039638738E+04  0.40000000000E+03 0.  1.
<mgrwt>
<rscale>  2 0.45269262E+03</rscale>
<asrwt>0</asrwt>
<pdfrwt beam="1">  1        1 0.20433826E+00 0.45269262E+03</pdfrwt>
<pdfrwt beam="2">  1       -1 0.36363239E-01 0.45269262E+03</pdfrwt>
<totfact> 0.66560707E+01</totfact>
</mgrwt>
</event>
<event>
 4    1  0.2318373E-002  0.4654618E+03  0.7818608E-02  0.1023209E+00
         -2   -1    0    0    0  501 -0.00000000000E+00  0.00000000000E+00  0.37535612069E+03  0.37535612069E+03  0.00000000000E+00 0.  1.
          2   -1    0    0  502    0  0.00000000000E+00 -0.00000000000E+00 -0.65732541284E+03  0.65732541284E+03  0.00000000000E+00 0. -1.
    9000005    1    1    2  502    0 -0.18651068590E+03 -0.14787998324E+03  0.39291106924E+02  0.46711724062E+03  0.40000000000E+03 0. -1.
   -9000005    1    1    2    0  501  0.18651068590E+03  0.14787998324E+03 -0.32126039908E+03  0.56556429291E+03  0.40000000000E+03 0. -1.
<mgrwt>
<rscale>  2 0.46546184E+03</rscale>
<asrwt>0</asrwt>
<pdfrwt beam="1">  1        2 0.10112699E+00 0.46546184E+03</pdfrwt>
<pdfrwt beam="2">  1       -2 0.57747096E-01 0.46546184E+03</pdfrwt>
<totfact> 0.12836148E+02</totfact>
</mgrwt>
</event>
<event>
 4    1  0.2318373E-002  0.5684585E+03  0.7818608E-02  0.9973096E-01
          2   -1    0    0  502    0  0.00000000000E+00  0.00000000000E+00  0.50096110762E+03  0.50096110762E+03  0.00000000000E+00 0. -1.
         -2   -1    0    0    0  501 -0.00000000000E+00 -0.00000000000E+00 -0.96609457607E+03  0.96609457607E+03  0.00000000000E+00 0.  1.
    9000005    1    1    2  502    0  0.16569168903E+03 -0.36836299989E+03  0.19028620201E+03  0.59946132000E+03  0.40000000000E+03 0. -1.
   -9000005    1    1    2    0  501 -0.16569168903E+03  0.36836299989E+03 -0.65541967045E+03  0.86759436370E+03  0.40000000000E+03 0.  1.
<mgrwt>
<rscale>  2 0.56845847E+03</rscale>
<asrwt>0</asrwt>
<pdfrwt beam="1">  1        2 0.77070940E-01 0.56845847E+03</pdfrwt>
<pdfrwt beam="2">  1       -2 0.14862993E+00 0.56845847E+03</pdfrwt>
<totfact> 0.19470765E+01</totfact>
</mgrwt>
</event>
<event>
 4    1  0.2318373E-002  0.6464364E+03  0.7818608E-02  0.9813489E-01
         -2   -1    0    0    0  501 -0.00000000000E+00  0.00000000000E+00  0.29250274930E+03  0.29250274930E+03  0.00000000000E+00 0.  1.
          2   -1    0    0  502    0  0.00000000000E+00 -0.00000000000E+00 -0.17119599038E+04  0.17119599038E+04  0.00000000000E+00 0. -1.
    9000005    1    1    2  502    0  0.36725105922E+03  0.35072311576E+03 -0.11174490887E+04  0.12909579816E+04  0.40000000000E+03 0. -1.
   -9000005    1    1    2    0  501 -0.36725105922E+03 -0.35072311576E+03 -0.30200806578E+03  0.71350467148E+03  0.40000000000E+03 0.  1.
<mgrwt>
<rscale>  2 0.64643642E+03</rscale>
<asrwt>0</asrwt>
<pdfrwt beam="1">  1        2 0.26337845E+00 0.64643642E+03</pdfrwt>
<pdfrwt beam="2">  1       -2 0.45000422E-01 0.64643642E+03</pdfrwt>
<totfact> 0.46961139E+01</totfact>
</mgrwt>
</event>
<event>
 4    1  0.2318373E-002  0.4468220E+03  0.7818608E-02  0.1028674E+00
         -2   -1    0    0    0  501 -0.00000000000E+00  0.00000000000E+00  0.75894631440E+02  0.75894631440E+02  0.00000000000E+00 0.  1.
          2   -1    0    0  502    0  0.00000000000E+00 -0.00000000000E+00 -0.39223117849E+04  0.39223117849E+04  0.00000000000E+00 0. -1.
    9000005    1    1    2  502    0 -0.14863360978E+03 -0.13250632463E+03 -0.30704207319E+04  0.31027622125E+04  0.40000000000E+03 0. -1.
   -9000005    1    1    2    0  501  0.14863360978E+03  0.13250632463E+03 -0.77599642151E+03  0.89544420385E+03  0.40000000000E+03 0.  1.
<mgrwt>
<rscale>  2 0.44682197E+03</rscale>
<asrwt>0</asrwt>
<pdfrwt beam="1">  1        2 0.60343255E+00 0.44682197E+03</pdfrwt>
<pdfrwt beam="2">  1       -2 0.11676098E-01 0.44682197E+03</pdfrwt>
<totfact> 0.24758715E+01</totfact>
</mgrwt>
</event>
<event>
 4    1  0.2318373E-002  0.4241340E+03  0.7818608E-02  0.1035729E+00
         -2   -1    0    0    0  501 -0.00000000000E+00  0.00000000000E+00  0.15930142233E+03  0.15930142233E+03  0.00000000000E+00 0.  1.
          2   -1    0    0  502    0  0.00000000000E+00 -0.00000000000E+00 -0.20470649859E+04  0.20470649859E+04  0.00000000000E+00 0. -1.
    9000005    1    1    2  502    0  0.13947606791E+03 -0.20881595663E+02 -0.16825708139E+04  0.17352043564E+04  0.40000000000E+03 0. -1.
   -9000005    1    1    2    0  501 -0.13947606791E+03  0.20881595663E+02 -0.20519274959E+03  0.47116205179E+03  0.40000000000E+03 0.  1.
<mgrwt>
<rscale>  2 0.42413396E+03</rscale>
<asrwt>0</asrwt>
<pdfrwt beam="1">  1        2 0.31493306E+00 0.42413396E+03</pdfrwt>
<pdfrwt beam="2">  1       -2 0.24507912E-01 0.42413396E+03</pdfrwt>
<totfact> 0.10053307E+02</totfact>
</mgrwt>
</event>
<event>
 4    1  0.2318373E-002  0.4460138E+03  0.7818608E-02  0.1028917E+00
          2   -1    0    0  502    0  0.00000000000E+00  0.00000000000E+00  0.91955036028E+03  0.91955036028E+03  0.00000000000E+00 0.  1.
         -2   -1    0    0    0  501 -0.00000000000E+00 -0.00000000000E+00 -0.21951248642E+03  0.21951248642E+03  0.00000000000E+00 0. -1.
    9000005    1    1    2  502    0 -0.13025352487E+03 -0.14819693423E+03  0.28146629550E+03  0.52740078456E+03  0.40000000000E+03 0. -1.
   -9000005    1    1    2    0  501  0.13025352487E+03  0.14819693423E+03  0.41857157836E+03  0.61166206215E+03  0.40000000000E+03 0.  1.
<mgrwt>
<rscale>  2 0.44601380E+03</rscale>
<asrwt>0</asrwt>
<pdfrwt beam="1">  1        2 0.14146928E+00 0.44601380E+03</pdfrwt>
<pdfrwt beam="2">  1       -2 0.33771152E-01 0.44601380E+03</pdfrwt>
<totfact> 0.24014798E+02</totfact>
</mgrwt>
</event>
<event>
 4    1  0.2318373E-002  0.4805005E+03  0.7818608E-02  0.1018998E+00
          1   -1    0    0  502    0  0.00000000000E+00  0.00000000000E+00  0.49788675540E+03  0.49788675540E+03  0.00000000000E+00 0.  1.
         -1   -1    0    0    0  501 -0.00000000000E+00 -0.00000000000E+00 -0.51628499694E+03  0.51628499694E+03  0.00000000000E+00 0. -1.
    9000005    1    1    2  502    0  0.18989361799E+03 -0.18660427411E+03 -0.17099941858E+03  0.51002111959E+03  0.40000000000E+03 0. -1.
   -9000005    1    1    2    0  501 -0.18989361799E+03  0.18660427411E+03  0.15260117705E+03  0.50415063275E+03  0.40000000000E+03 0.  1.
<mgrwt>
<rscale>  2 0.48050051E+03</rscale>
<asrwt>0</asrwt>
<pdfrwt beam="1">  1        1 0.76597963E-01 0.48050051E+03</pdfrwt>
<pdfrwt beam="2">  1       -1 0.79428461E-01 0.48050051E+03</pdfrwt>
<totfact> 0.73809508E+01</totfact>
</mgrwt>
</event>
<event>
 4    1  0.2318373E-002  0.7837097E+03  0.7818608E-02  0.9583901E-01
          2   -1    0    0  502    0  0.00000000000E+00  0.00000000000E+00  0.20905424393E+04  0.20905424393E+04  0.00000000000E+00 0.  1.
         -2   -1    0    0    0  501 -0.00000000000E+00 -0.00000000000E+00 -0.34910498073E+03  0.34910498073E+03  0.00000000000E+00 0. -1.
    9000005    1    1    2  502    0 -0.16507427754E+03 -0.65341512292E+03  0.38520427511E+03  0.87326008356E+03  0.40000000000E+03 0.  1.
   -9000005    1    1    2    0  501  0.16507427754E+03  0.65341512292E+03  0.13562331835E+04  0.15663873365E+04  0.40000000000E+03 0.  1.
<mgrwt>
<rscale>  2 0.78370967E+03</rscale>
<asrwt>0</asrwt>
<pdfrwt beam="1">  1        2 0.32162191E+00 0.78370967E+03</pdfrwt>
<pdfrwt beam="2">  1       -2 0.53708460E-01 0.78370967E+03</pdfrwt>
<totfact> 0.20033931E+01</totfact>
</mgrwt>
</event>
<event>
 4    1  0.2318373E-002  0.4998434E+03  0.7818608E-02  0.1013820E+00
          2   -1    0    0  502    0  0.00000000000E+00  0.00000000000E+00  0.19534091517E+04  0.19534091517E+04  0.00000000000E+00 0.  1.
         -2   -1    0    0    0  501 -0.00000000000E+00 -0.00000000000E+00 -0.14738225899E+03  0.14738225899E+03  0.00000000000E+00 0. -1.
    9000005    1    1    2  502    0 -0.15883622677E+03  0.25419377174E+03  0.12849017451E+04  0.13787008069E+04  0.40000000000E+03 0. -1.
   -9000005    1    1    2    0  501  0.15883622677E+03 -0.25419377174E+03  0.52112514759E+03  0.72209060372E+03  0.40000000000E+03 0. -1.
<mgrwt>
<rscale>  2 0.49984340E+03</rscale>
<asrwt>0</asrwt>
<pdfrwt beam="1">  1        2 0.30052447E+00 0.49984340E+03</pdfrwt>
<pdfrwt beam="2">  1       -2 0.22674195E-01 0.49984340E+03</pdfrwt>
<totfact> 0.12793231E+02</totfact>
</mgrwt>
</event>
<event>
 4    1  0.2318373E-002  0.5654205E+03  0.7818608E-02  0.9979864E-01
          2   -1    0    0  502    0  0.00000000000E+00  0.00000000000E+00  0.23361300069E+04  0.23361300069E+04  0.00000000000E+00 0.  1.
         -2   -1    0    0    0  501 -0.00000000000E+00 -0.00000000000E+00 -0.17100800697E+03  0.17100800697E+03  0.00000000000E+00 0. -1.
    9000005    1    1    2  502    0 -0.59831724117E+01 -0.39958043471E+03  0.52230856579E+03  0.76974447712E+03  0.40000000000E+03 0. -1.
   -9000005    1    1    2    0  501  0.59831724117E+01  0.39958043471E+03  0.16428134341E+04  0.17373935367E+04  0.40000000000E+03 0.  1.
<mgrwt>
<rscale>  2 0.56542048E+03</rscale>
<asrwt>0</asrwt>
<pdfrwt beam="1">  1        2 0.35940459E+00 0.56542048E+03</pdfrwt>
<pdfrwt beam="2">  1       -2 0.26308926E-01 0.56542048E+03</pdfrwt>
<totfact> 0.60105229E+01</totfact>
</mgrwt>
</event>
<event>
 4    1  0.2318373E-002  0.5224919E+03  0.7818608E-02  0.1008069E+00
          2   -1    0    0  502    0  0.00000000000E+00  0.00000000000E+00  0.15556978829E+04  0.15556978829E+04  0.00000000000E+00 0. -1.
         -2   -1    0    0    0  501 -0.00000000000E+00 -0.00000000000E+00 -0.17804512088E+03  0.17804512088E+03  0.00000000000E+00 0.  1.
    9000005    1    1    2  502    0  0.29572103444E+03  0.15983397221E+03  0.79282504847E+03  0.94951007702E+03  0.40000000000E+03 0. -1.
   -9000005    1    1    2    0  501 -0.29572103444E+03 -0.15983397221E+03  0.58482771353E+03  0.78423292675E+03  0.40000000000E+03 0. -1.
<mgrwt>
<rscale>  2 0.52249194E+03</rscale>
<asrwt>0</asrwt>
<pdfrwt beam="1">  1        2 0.23933813E+00 0.52249194E+03</pdfrwt>
<pdfrwt beam="2">  1       -2 0.27391558E-01 0.52249194E+03</pdfrwt>
<totfact> 0.14904921E+02</totfact>
</mgrwt>
</event>
<event>
 4    1  0.2318373E-002  0.4479147E+03  0.7818608E-02  0.1028346E+00
         -2   -1    0    0    0  501 -0.00000000000E+00  0.00000000000E+00  0.55427793878E+03  0.55427793878E+03  0.00000000000E+00 0. -1.
          2   -1    0    0  502    0  0.00000000000E+00 -0.00000000000E+00 -0.17508542467E+04  0.17508542467E+04  0.00000000000E+00 0.  1.
    9000005    1    1    2  502    0  0.15957851776E+03  0.12313501926E+03  0.42825006454E+03  0.61969803460E+03  0.40000000000E+03 0. -1.
   -9000005    1    1    2    0  501 -0.15957851776E+03 -0.12313501926E+03 -0.16248263724E+04  0.16854341508E+04  0.40000000000E+03 0.  1.
<mgrwt>
<rscale>  2 0.44791465E+03</rscale>
<asrwt>0</asrwt>
<pdfrwt beam="1">  1        2 0.26936219E+00 0.44791465E+03</pdfrwt>
<pdfrwt beam="2">  1       -2 0.85273529E-01 0.44791465E+03</pdfrwt>
<totfact> 0.11959049E+01</totfact>
</mgrwt>
</event>
<event>
 4    1  0.2318373E-002  0.4025276E+03  0.7818608E-02  0.1042908E+00
          2   -1    0    0  502    0  0.00000000000E+00  0.00000000000E+00  0.29215626001E+04  0.29215626001E+04  0.00000000000E+00 0.  1.
         -2   -1    0    0    0  501 -0.00000000000E+00 -0.00000000000E+00 -0.64868002308E+02  0.64868002308E+02  0.00000000000E+00 0. -1.
    9000005    1    1    2  502    0  0.39998152339E+02  0.20702692427E+02  0.85966854668E+03  0.94924099354E+03  0.40000000000E+03 0. -1.
   -9000005    1    1    2    0  501 -0.39998152339E+02 -0.20702692427E+02  0.19970260512E+04  0.20371896089E+04  0.40000000000E+03 0.  1.
<mgrwt>
<rscale>  2 0.40252758E+03</rscale>
<asrwt>0</asrwt>
<pdfrwt beam="1">  1        2 0.44947107E+00 0.40252758E+03</pdfrwt>
<pdfrwt beam="2">  1       -2 0.99796949E-02 0.40252758E+03</pdfrwt>
<totfact> 0.14923993E+02</totfact>
</mgrwt>
</event>
<event>
 4    1  0.2318373E-002  0.6002273E+03  0.7818608E-02  0.9904935E-01
         -1   -1    0    0    0  501 -0.00000000000E+00  0.00000000000E+00  0.58751195085E+03  0.58751195085E+03  0.00000000000E+00 0. -1.
          1   -1    0    0  502    0  0.00000000000E+00 -0.00000000000E+00 -0.64801772473E+03  0.64801772473E+03  0.00000000000E+00 0.  1.
    9000005    1    1    2  502    0 -0.14761266310E+02  0.44727502139E+03 -0.17341177751E+03  0.62477554715E+03  0.40000000000E+03 0.  1.
   -9000005    1    1    2    0  501  0.14761266310E+02 -0.44727502139E+03  0.11290600363E+03  0.61075412843E+03  0.40000000000E+03 0. -1.
<mgrwt>
<rscale>  2 0.60022732E+03</rscale>
<asrwt>0</asrwt>
<pdfrwt beam="1">  1        1 0.99695035E-01 0.60022732E+03</pdfrwt>
<pdfrwt beam="2">  1       -1 0.90386454E-01 0.60022732E+03</pdfrwt>
<totfact> 0.38072697E+01</totfact>
</mgrwt>
</event>
<event>
 4    1  0.2318373E-002  0.4341994E+03  0.7818608E-02  0.1032542E+00
          1   -1    0    0  502    0  0.00000000000E+00  0.00000000000E+00  0.50208680944E+03  0.50208680944E+03  0.00000000000E+00 0. -1.
         -1   -1    0    0    0  501 -0.00000000000E+00 -0.00000000000E+00 -0.47713358416E+03  0.47713358416E+03  0.00000000000E+00 0.  1.
    9000005    1    1    2  502    0 -0.16011060622E+03 -0.53793530272E+02  0.23845557159E+03  0.49536876138E+03  0.40000000000E+03 0. -1.
   -9000005    1    1    2    0  501  0.16011060622E+03  0.53793530272E+02 -0.21350234631E+03  0.48385163222E+03  0.40000000000E+03 0.  1.
<mgrwt>
<rscale>  2 0.43419944E+03</rscale>
<asrwt>0</asrwt>
<pdfrwt beam="1">  1        1 0.77244125E-01 0.43419944E+03</pdfrwt>
<pdfrwt beam="2">  1       -1 0.73405167E-01 0.43419944E+03</pdfrwt>
<totfact> 0.86419827E+01</totfact>
</mgrwt>
</event>
<event>
 4    1  0.2318373E-002  0.4048186E+03  0.7818608E-02  0.1042124E+00
         -2   -1    0    0    0  501 -0.00000000000E+00  0.00000000000E+00  0.66498689075E+03  0.66498689075E+03  0.00000000000E+00 0. -1.
          2   -1    0    0  502    0  0.00000000000E+00 -0.00000000000E+00 -0.25663039255E+03  0.25663039255E+03  0.00000000000E+00 0.  1.
    9000005    1    1    2  502    0 -0.67350121054E+01 -0.61908879565E+02  0.29601228448E+03  0.50149909504E+03  0.40000000000E+03 0. -1.
   -9000005    1    1    2    0  501  0.67350121054E+01  0.61908879565E+02  0.11234421372E+03  0.42011818827E+03  0.40000000000E+03 0.  1.
<mgrwt>
<rscale>  2 0.40481856E+03</rscale>
<asrwt>0</asrwt>
<pdfrwt beam="1">  1        2 0.39481599E-01 0.40481856E+03</pdfrwt>
<pdfrwt beam="2">  1       -2 0.10230568E+00 0.40481856E+03</pdfrwt>
<totfact> 0.10509486E+02</totfact>
</mgrwt>
</event>
<event>
 4    1  0.2318373E-002  0.5115892E+03  0.7818608E-02  0.1010797E+00
         -1   -1    0    0    0  501 -0.00000000000E+00  0.00000000000E+00  0.25450492685E+03  0.25450492685E+03  0.00000000000E+00 0. -1.
          1   -1    0    0  502    0  0.00000000000E+00 -0.00000000000E+00 -0.13525224703E+04  0.13525224703E+04  0.00000000000E+00 0.  1.
    9000005    1    1    2  502    0 -0.10062381201E+03  0.30265213052E+03 -0.94237798027E+03  0.10722871450E+04  0.40000000000E+03 0. -1.
   -9000005    1    1    2    0  501  0.10062381201E+03 -0.30265213052E+03 -0.15563956319E+03  0.53474025216E+03  0.40000000000E+03 0. -1.
<mgrwt>
<rscale>  2 0.51158916E+03</rscale>
<asrwt>0</asrwt>
<pdfrwt beam="1">  1        1 0.20808038E+00 0.51158916E+03</pdfrwt>
<pdfrwt beam="2">  1       -1 0.39154604E-01 0.51158916E+03</pdfrwt>
<totfact> 0.55579750E+01</totfact>
</mgrwt>
</event>
<event>
 4    1  0.2318373E-002  0.4585987E+03  0.7818608E-02  0.1025188E+00
         -2   -1    0    0    0  501 -0.00000000000E+00  0.00000000000E+00  0.12419093674E+03  0.12419093674E+03  0.00000000000E+00 0. -1.
          2   -1    0    0  502    0  0.00000000000E+00 -0.00000000000E+00 -0.17971689813E+04  0.17971689813E+04  0.00000000000E+00 0.  1.
    9000005    1    1    2  502    0 -0.79696914758E+02  0.20966913730E+03 -0.10672627477E+04  0.11616206429E+04  0.40000000000E+03 0.  1.
   -9000005    1    1    2    0  501  0.79696914758E+02 -0.20966913730E+03 -0.60571529688E+03  0.75973927517E+03  0.40000000000E+03 0. -1.
<mgrwt>
<rscale>  2 0.45859868E+03</rscale>
<asrwt>0</asrwt>
<pdfrwt beam="1">  1        2 0.27648752E+00 0.45859868E+03</pdfrwt>
<pdfrwt beam="2">  1       -2 0.19106299E-01 0.45859868E+03</pdfrwt>
<totfact> 0.21047404E+02</totfact>
</mgrwt>
</event>
<event>
 4    1  0.2318373E-002  0.4547291E+03  0.7818608E-02  0.1026321E+00
         -1   -1    0    0    0  501 -0.00000000000E+00  0.00000000000E+00  0.24379330560E+03  0.24379330560E+03  0.00000000000E+00 0.  1.
          1   -1    0    0  502    0  0.00000000000E+00 -0.00000000000E+00 -0.86091979814E+03  0.86091979814E+03  0.00000000000E+00 0. -1.
    9000005    1    1    2  502    0 -0.17104969707E+02  0.21560601733E+03 -0.24134855651E+03  0.51480837253E+03  0.40000000000E+03 0.  1.
   -9000005    1    1    2    0  501  0.17104969707E+02 -0.21560601733E+03 -0.37577793602E+03  0.58990473121E+03  0.40000000000E+03 0.  1.
<mgrwt>
<rscale>  2 0.45472908E+03</rscale>
<asrwt>0</asrwt>
<pdfrwt beam="1">  1        1 0.13244920E+00 0.45472908E+03</pdfrwt>
<pdfrwt beam="2">  1       -1 0.37506662E-01 0.45472908E+03</pdfrwt>
<totfact> 0.14005308E+02</totfact>
</mgrwt>
</event>
<event>
 4    1  0.2318373E-002  0.4869869E+03  0.7818608E-02  0.1017232E+00
          2   -1    0    0  502    0  0.00000000000E+00  0.00000000000E+00  0.20223933407E+04  0.20223933407E+04  0.00000000000E+00 0. -1.
         -2   -1    0    0    0  501 -0.00000000000E+00 -0.00000000000E+00 -0.15018776495E+03  0.15018776495E+03  0.00000000000E+00 0.  1.
    9000005    1    1    2  502    0 -0.24809594627E+03  0.12491850014E+03  0.14447023464E+04  0.15245724318E+04  0.40000000000E+03 0. -1.
   -9000005    1    1    2    0  501  0.24809594627E+03 -0.12491850014E+03  0.42750322937E+03  0.64800867383E+03  0.40000000000E+03 0.  1.
<mgrwt>
<rscale>  2 0.48698689E+03</rscale>
<asrwt>0</asrwt>
<pdfrwt beam="1">  1        2 0.31113742E+00 0.48698689E+03</pdfrwt>
<pdfrwt beam="2">  1       -2 0.23105811E-01 0.48698689E+03</pdfrwt>
<totfact> 0.11382547E+02</totfact>
</mgrwt>
</event>
<event>
 4    1  0.2318373E-002  0.4213880E+03  0.7818608E-02  0.1036616E+00
         -2   -1    0    0    0  501 -0.00000000000E+00  0.00000000000E+00  0.11750091901E+03  0.11750091901E+03  0.00000000000E+00 0. -1.
          2   -1    0    0  502    0  0.00000000000E+00 -0.00000000000E+00 -0.20816887756E+04  0.20816887756E+04  0.00000000000E+00 0.  1.
    9000005    1    1    2  502    0 -0.40143808692E+02  0.12631838007E+03 -0.40645941339E+03  0.58547170150E+03  0.40000000000E+03 0. -1.
   -9000005    1    1    2    0  501  0.40143808692E+02 -0.12631838007E+03 -0.15577284432E+04  0.16137179931E+04  0.40000000000E+03 0.  1.
<mgrwt>
<rscale>  2 0.42138801E+03</rscale>
<asrwt>0</asrwt>
<pdfrwt beam="1">  1        2 0.32025981E+00 0.42138801E+03</pdfrwt>
<pdfrwt beam="2">  1       -2 0.18077065E-01 0.42138801E+03</pdfrwt>
<totfact> 0.16388759E+02</totfact>
</mgrwt>
</event>
<event>
 4    1  0.2318373E-002  0.4004673E+03  0.7818608E-02  0.1043618E+00
         -4   -1    0    0    0  501 -0.00000000000E+00  0.00000000000E+00  0.16029214931E+03  0.16029214931E+03  0.00000000000E+00 0. -1.
          4   -1    0    0  502    0  0.00000000000E+00 -0.00000000000E+00 -0.10167592636E+04  0.10167592636E+04  0.00000000000E+00 0.  1.
    9000005    1    1    2  502    0  0.18882153516E+02 -0.41856581774E+01 -0.35383575464E+03  0.53439105224E+03  0.40000000000E+03 0. -1.
   -9000005    1    1    2    0  501 -0.18882153516E+02  0.41856581774E+01 -0.50263135963E+03  0.64266036064E+03  0.40000000000E+03 0.  1.
<mgrwt>
<rscale>  2 0.40046730E+03</rscale>
<asrwt>0</asrwt>
<pdfrwt beam="1">  1        4 0.15642450E+00 0.40046730E+03</pdfrwt>
<pdfrwt beam="2">  1       -4 0.24660331E-01 0.40046730E+03</pdfrwt>
<totfact> 0.80984626E+00</totfact>
</mgrwt>
</event>
<event>
 4    1  0.2318373E-002  0.4097002E+03  0.7818608E-02  0.1040472E+00
         -1   -1    0    0    0  501 -0.00000000000E+00  0.00000000000E+00  0.19735175773E+03  0.19735175773E+03  0.00000000000E+00 0. -1.
          1   -1    0    0  502    0  0.00000000000E+00 -0.00000000000E+00 -0.92186693851E+03  0.92186693851E+03  0.00000000000E+00 0.  1.
    9000005    1    1    2  502    0 -0.78863546739E+02 -0.40432465308E+02 -0.20659007057E+03  0.45883951499E+03  0.40000000000E+03 0. -1.
   -9000005    1    1    2    0  501  0.78863546739E+02  0.40432465308E+02 -0.51792511021E+03  0.66037918126E+03  0.40000000000E+03 0.  1.
<mgrwt>
<rscale>  2 0.40970019E+03</rscale>
<asrwt>0</asrwt>
<pdfrwt beam="1">  1        1 0.14182568E+00 0.40970019E+03</pdfrwt>
<pdfrwt beam="2">  1       -1 0.30361809E-01 0.40970019E+03</pdfrwt>
<totfact> 0.18212918E+02</totfact>
</mgrwt>
</event>
<event>
 4    1  0.2318373E-002  0.4622044E+03  0.7818608E-02  0.1024144E+00
         -1   -1    0    0    0  501 -0.00000000000E+00  0.00000000000E+00  0.10760911262E+04  0.10760911262E+04  0.00000000000E+00 0. -1.
          1   -1    0    0  502    0  0.00000000000E+00 -0.00000000000E+00 -0.23326674110E+03  0.23326674110E+03  0.00000000000E+00 0.  1.
    9000005    1    1    2  502    0 -0.19323206708E+03  0.12764912717E+03  0.16876383853E+03  0.49205097765E+03  0.40000000000E+03 0. -1.
   -9000005    1    1    2    0  501  0.19323206708E+03 -0.12764912717E+03  0.67406054657E+03  0.81730688964E+03  0.40000000000E+03 0.  1.
<mgrwt>
<rscale>  2 0.46220443E+03</rscale>
<asrwt>0</asrwt>
<pdfrwt beam="1">  1        1 0.35887191E-01 0.46220443E+03</pdfrwt>
<pdfrwt beam="2">  1       -1 0.16555248E+00 0.46220443E+03</pdfrwt>
<totfact> 0.34084756E+01</totfact>
</mgrwt>
</event>
<event>
 4    1  0.2318373E-002  0.4080370E+03  0.7818608E-02  0.1041032E+00
         -2   -1    0    0    0  501 -0.00000000000E+00  0.00000000000E+00  0.26965874241E+03  0.26965874241E+03  0.00000000000E+00 0. -1.
          2   -1    0    0  502    0  0.00000000000E+00 -0.00000000000E+00 -0.64709014700E+03  0.64709014700E+03  0.00000000000E+00 0.  1.
    9000005    1    1    2  502    0  0.78682304698E+00  0.80582776598E+02 -0.90573211284E+02  0.41796855094E+03  0.40000000000E+03 0. -1.
   -9000005    1    1    2    0  501 -0.78682304698E+00 -0.80582776598E+02 -0.28685819331E+03  0.49878033847E+03  0.40000000000E+03 0.  1.
<mgrwt>
<rscale>  2 0.40803701E+03</rscale>
<asrwt>0</asrwt>
<pdfrwt beam="1">  1        2 0.99552330E-01 0.40803701E+03</pdfrwt>
<pdfrwt beam="2">  1       -2 0.41485961E-01 0.40803701E+03</pdfrwt>
<totfact> 0.25555707E+02</totfact>
</mgrwt>
</event>
<event>
 4    1  0.2318373E-002  0.4629556E+03  0.7818608E-02  0.1023927E+00
          2   -1    0    0  502    0  0.00000000000E+00  0.00000000000E+00  0.79620889649E+03  0.79620889649E+03  0.00000000000E+00 0. -1.
         -2   -1    0    0    0  501 -0.00000000000E+00 -0.00000000000E+00 -0.28155703031E+03  0.28155703031E+03  0.00000000000E+00 0.  1.
    9000005    1    1    2  502    0  0.23306811775E+03  0.26687060388E+01  0.37028560630E+03  0.59282316059E+03  0.40000000000E+03 0. -1.
   -9000005    1    1    2    0  501 -0.23306811775E+03 -0.26687060388E+01  0.14436625989E+03  0.48494276621E+03  0.40000000000E+03 0. -1.
<mgrwt>
<rscale>  2 0.46295558E+03</rscale>
<asrwt>0</asrwt>
<pdfrwt beam="1">  1        2 0.12249368E+00 0.46295558E+03</pdfrwt>
<pdfrwt beam="2">  1       -2 0.43316467E-01 0.46295558E+03</pdfrwt>
<totfact> 0.18039498E+02</totfact>
</mgrwt>
</event>
<event>
 4    1  0.2318373E-002  0.8421870E+03  0.7818608E-02  0.9500884E-01
          2   -1    0    0  502    0  0.00000000000E+00  0.00000000000E+00  0.69962055414E+03  0.69962055414E+03  0.00000000000E+00 0. -1.
         -2   -1    0    0    0  501 -0.00000000000E+00 -0.00000000000E+00 -0.12048394459E+04  0.12048394459E+04  0.00000000000E+00 0.  1.
    9000005    1    1    2  502    0  0.31054795357E+03  0.67293306382E+03  0.12655963086E+03  0.85164328214E+03  0.40000000000E+03 0. -1.
   -9000005    1    1    2    0  501 -0.31054795357E+03 -0.67293306382E+03 -0.63177852264E+03  0.10528167179E+04  0.40000000000E+03 0.  1.
<mgrwt>
<rscale>  2 0.84218700E+03</rscale>
<asrwt>0</asrwt>
<pdfrwt beam="1">  1        2 0.10763393E+00 0.84218700E+03</pdfrwt>
<pdfrwt beam="2">  1       -2 0.18535992E+00 0.84218700E+03</pdfrwt>
<totfact> 0.68875846E+00</totfact>
</mgrwt>
</event>
<event>
 4    1  0.2318373E-002  0.8495009E+03  0.7818608E-02  0.9491007E-01
          2   -1    0    0  502    0  0.00000000000E+00  0.00000000000E+00  0.22004184444E+04  0.22004184444E+04  0.00000000000E+00 0. -1.
         -2   -1    0    0    0  501 -0.00000000000E+00 -0.00000000000E+00 -0.33289518806E+03  0.33289518806E+03  0.00000000000E+00 0.  1.
    9000005    1    1    2  502    0  0.40113304077E+03 -0.63304353185E+03  0.77955425786E+03  0.11529773070E+04  0.40000000000E+03 0. -1.
   -9000005    1    1    2    0  501 -0.40113304077E+03  0.63304353185E+03  0.10879689985E+04  0.13803363254E+04  0.40000000000E+03 0.  1.
<mgrwt>
<rscale>  2 0.84950093E+03</rscale>
<asrwt>0</asrwt>
<pdfrwt beam="1">  1        2 0.33852590E+00 0.84950093E+03</pdfrwt>
<pdfrwt beam="2">  1       -2 0.51214646E-01 0.84950093E+03</pdfrwt>
<totfact> 0.19053536E+01</totfact>
</mgrwt>
</event>
<event>
 4    1  0.2318373E-002  0.6251004E+03  0.7818608E-02  0.9854657E-01
         -1   -1    0    0    0  501 -0.00000000000E+00  0.00000000000E+00  0.50884018031E+03  0.50884018031E+03  0.00000000000E+00 0. -1.
          1   -1    0    0  502    0  0.00000000000E+00 -0.00000000000E+00 -0.76792403160E+03  0.76792403160E+03  0.00000000000E+00 0.  1.
    9000005    1    1    2  502    0  0.28779826700E+03  0.38460714224E+03 -0.12987496307E+03  0.63844968665E+03  0.40000000000E+03 0. -1.
   -9000005    1    1    2    0  501 -0.28779826700E+03 -0.38460714224E+03 -0.12920888822E+03  0.63831452525E+03  0.40000000000E+03 0.  1.
<mgrwt>
<rscale>  2 0.62510039E+03</rscale>
<asrwt>0</asrwt>
<pdfrwt beam="1">  1        1 0.11814216E+00 0.62510039E+03</pdfrwt>
<pdfrwt beam="2">  1       -1 0.78283105E-01 0.62510039E+03</pdfrwt>
<totfact> 0.40006072E+01</totfact>
</mgrwt>
</event>
<event>
 4    1  0.2318373E-002  0.4627279E+03  0.7818608E-02  0.1023993E+00
         -2   -1    0    0    0  501 -0.00000000000E+00  0.00000000000E+00  0.11263778244E+03  0.11263778244E+03  0.00000000000E+00 0.  1.
          2   -1    0    0  502    0  0.00000000000E+00 -0.00000000000E+00 -0.19940863938E+04  0.19940863938E+04  0.00000000000E+00 0. -1.
    9000005    1    1    2  502    0 -0.23110806386E+03 -0.26574227887E+02 -0.11683912006E+04  0.12566841785E+04  0.40000000000E+03 0. -1.
   -9000005    1    1    2    0  501  0.23110806386E+03  0.26574227887E+02 -0.71305741069E+03  0.85003999771E+03  0.40000000000E+03 0.  1.
<mgrwt>
<rscale>  2 0.46272792E+03</rscale>
<asrwt>0</asrwt>
<pdfrwt beam="1">  1        2 0.30678250E+00 0.46272792E+03</pdfrwt>
<pdfrwt beam="2">  1       -2 0.17328891E-01 0.46272792E+03</pdfrwt>
<totfact> 0.19501654E+02</totfact>
</mgrwt>
</event>
<event>
 4    1  0.2318373E-002  0.4234435E+03  0.7818608E-02  0.1035951E+00
         -1   -1    0    0    0  501 -0.00000000000E+00  0.00000000000E+00  0.21697451766E+03  0.21697451766E+03  0.00000000000E+00 0. -1.
          1   -1    0    0  502    0  0.00000000000E+00 -0.00000000000E+00 -0.85164160122E+03  0.85164160122E+03  0.00000000000E+00 0.  1.
    9000005    1    1    2  502    0  0.71823141887E+02 -0.11893613376E+03 -0.40934787139E+03  0.58895674496E+03  0.40000000000E+03 0.  1.
   -9000005    1    1    2    0  501 -0.71823141887E+02  0.11893613376E+03 -0.22531921217E+03  0.47965937393E+03  0.40000000000E+03 0. -1.
<mgrwt>
<rscale>  2 0.42344346E+03</rscale>
<asrwt>0</asrwt>
<pdfrwt beam="1">  1        1 0.13102178E+00 0.42344346E+03</pdfrwt>
<pdfrwt beam="2">  1       -1 0.33380695E-01 0.42344346E+03</pdfrwt>
<totfact> 0.17569923E+02</totfact>
</mgrwt>
</event>
<event>
 4    1  0.2318373E-002  0.5222034E+03  0.7818608E-02  0.1008141E+00
          2   -1    0    0  502    0  0.00000000000E+00  0.00000000000E+00  0.21092540513E+04  0.21092540513E+04  0.00000000000E+00 0.  1.
         -2   -1    0    0    0  501 -0.00000000000E+00 -0.00000000000E+00 -0.14773316674E+03  0.14773316674E+03  0.00000000000E+00 0. -1.
    9000005    1    1    2  502    0  0.25866540369E+03  0.21398274904E+03  0.13795358323E+04  0.14750645819E+04  0.40000000000E+03 0.  1.
   -9000005    1    1    2    0  501 -0.25866540369E+03 -0.21398274904E+03  0.58198505220E+03  0.78192263616E+03  0.40000000000E+03 0. -1.
<mgrwt>
<rscale>  2 0.52220342E+03</rscale>
<asrwt>0</asrwt>
<pdfrwt beam="1">  1        2 0.32450060E+00 0.52220342E+03</pdfrwt>
<pdfrwt beam="2">  1       -2 0.22728181E-01 0.52220342E+03</pdfrwt>
<totfact> 0.10461879E+02</totfact>
</mgrwt>
</event>
<event>
 4    1  0.2318373E-002  0.7270210E+03  0.7818608E-02  0.9672107E-01
          2   -1    0    0  502    0  0.00000000000E+00  0.00000000000E+00  0.55923255436E+03  0.55923255436E+03  0.00000000000E+00 0.  1.
         -2   -1    0    0    0  501 -0.00000000000E+00 -0.00000000000E+00 -0.12474304538E+04  0.12474304538E+04  0.00000000000E+00 0. -1.
    9000005    1    1    2  502    0  0.14830884141E+03  0.58869692329E+03 -0.78877406068E+03  0.10727180891E+04  0.40000000000E+03 0. -1.
   -9000005    1    1    2    0  501 -0.14830884141E+03 -0.58869692329E+03  0.10057616127E+03  0.73394491901E+03  0.40000000000E+03 0.  1.
<mgrwt>
<rscale>  2 0.72702103E+03</rscale>
<asrwt>0</asrwt>
<pdfrwt beam="1">  1        2 0.86035778E-01 0.72702103E+03</pdfrwt>
<pdfrwt beam="2">  1       -2 0.19191238E+00 0.72702103E+03</pdfrwt>
<totfact> 0.82951906E+00</totfact>
</mgrwt>
</event>
<event>
 4    1  0.2318373E-002  0.5023194E+03  0.7818608E-02  0.1013175E+00
          1   -1    0    0  502    0  0.00000000000E+00  0.00000000000E+00  0.12849825482E+04  0.12849825482E+04  0.00000000000E+00 0. -1.
         -1   -1    0    0    0  501 -0.00000000000E+00 -0.00000000000E+00 -0.19639534719E+03  0.19639534719E+03  0.00000000000E+00 0.  1.
    9000005    1    1    2  502    0  0.67361654427E+02 -0.29628902588E+03  0.55359699372E+03  0.74752552518E+03  0.40000000000E+03 0. -1.
   -9000005    1    1    2    0  501 -0.67361654427E+02  0.29628902588E+03  0.53499020728E+03  0.73385237019E+03  0.40000000000E+03 0. -1.
<mgrwt>
<rscale>  2 0.50231940E+03</rscale>
<asrwt>0</asrwt>
<pdfrwt beam="1">  1        1 0.19768962E+00 0.50231940E+03</pdfrwt>
<pdfrwt beam="2">  1       -1 0.30214670E-01 0.50231940E+03</pdfrwt>
<totfact> 0.97966145E+01</totfact>
</mgrwt>
</event>
<event>
 4    1  0.2318373E-002  0.4606073E+03  0.7818608E-02  0.1024605E+00
         -2   -1    0    0    0  501 -0.00000000000E+00  0.00000000000E+00  0.28145912949E+03  0.28145912949E+03  0.00000000000E+00 0. -1.
          2   -1    0    0  502    0  0.00000000000E+00 -0.00000000000E+00 -0.77440012991E+03  0.77440012991E+03  0.00000000000E+00 0.  1.
    9000005    1    1    2  502    0 -0.21403201690E+03 -0.79683085194E+02 -0.33261107337E+03  0.56814542544E+03  0.40000000000E+03 0.  1.
   -9000005    1    1    2    0  501  0.21403201690E+03  0.79683085194E+02 -0.16032992705E+03  0.48771383396E+03  0.40000000000E+03 0. -1.
<mgrwt>
<rscale>  2 0.46060731E+03</rscale>
<asrwt>0</asrwt>
<pdfrwt beam="1">  1        2 0.11913848E+00 0.46060731E+03</pdfrwt>
<pdfrwt beam="2">  1       -2 0.43301405E-01 0.46060731E+03</pdfrwt>
<totfact> 0.18716313E+02</totfact>
</mgrwt>
</event>
<event>
 4    1  0.2318373E-002  0.4137811E+03  0.7818608E-02  0.1039110E+00
         -2   -1    0    0    0  501 -0.00000000000E+00  0.00000000000E+00  0.18135556805E+03  0.18135556805E+03  0.00000000000E+00 0. -1.
          2   -1    0    0  502    0  0.00000000000E+00 -0.00000000000E+00 -0.10108483394E+04  0.10108483394E+04  0.00000000000E+00 0.  1.
    9000005    1    1    2  502    0 -0.21525986201E+01  0.10587816984E+03 -0.56794367118E+03  0.70269113711E+03  0.40000000000E+03 0.  1.
   -9000005    1    1    2    0  501  0.21525986201E+01 -0.10587816984E+03 -0.26154910016E+03  0.48951277034E+03  0.40000000000E+03 0. -1.
<mgrwt>
<rscale>  2 0.41378113E+03</rscale>
<asrwt>0</asrwt>
<pdfrwt beam="1">  1        2 0.15551512E+00 0.41378113E+03</pdfrwt>
<pdfrwt beam="2">  1       -2 0.27900858E-01 0.41378113E+03</pdfrwt>
<totfact> 0.29965389E+02</totfact>
</mgrwt>
</event>
<event>
 4    1  0.2318373E-002  0.4206128E+03  0.7818608E-02  0.1036867E+00
          2   -1    0    0  502    0  0.00000000000E+00  0.00000000000E+00  0.47925896206E+03  0.47925896206E+03  0.00000000000E+00 0.  1.
         -2   -1    0    0    0  501 -0.00000000000E+00 -0.00000000000E+00 -0.36921054835E+03  0.36921054835E+03  0.00000000000E+00 0. -1.
    9000005    1    1    2  502    0  0.12200958442E+03  0.45041997438E+02  0.60759831080E+02  0.42497867864E+03  0.40000000000E+03 0.  1.
   -9000005    1    1    2    0  501 -0.12200958442E+03 -0.45041997438E+02  0.49288582632E+02  0.42349083178E+03  0.40000000000E+03 0. -1.
<mgrwt>
<rscale>  2 0.42061279E+03</rscale>
<asrwt>0</asrwt>
<pdfrwt beam="1">  1        2 0.73732148E-01 0.42061279E+03</pdfrwt>
<pdfrwt beam="2">  1       -2 0.56801623E-01 0.42061279E+03</pdfrwt>
<totfact> 0.19300285E+02</totfact>
</mgrwt>
</event>
<event>
 4    1  0.2318373E-002  0.5149081E+03  0.7818608E-02  0.1009959E+00
         -2   -1    0    0    0  501 -0.00000000000E+00  0.00000000000E+00  0.31017327841E+03  0.31017327841E+03  0.00000000000E+00 0. -1.
          2   -1    0    0  502    0  0.00000000000E+00 -0.00000000000E+00 -0.11414130509E+04  0.11414130509E+04  0.00000000000E+00 0.  1.
    9000005    1    1    2  502    0 -0.26769343257E+03 -0.18294966929E+03 -0.77932843940E+03  0.93406807664E+03  0.40000000000E+03 0.  1.
   -9000005    1    1    2    0  501  0.26769343257E+03  0.18294966929E+03 -0.51911333078E+02  0.51751825266E+03  0.40000000000E+03 0. -1.
<mgrwt>
<rscale>  2 0.51490810E+03</rscale>
<asrwt>0</asrwt>
<pdfrwt beam="1">  1        2 0.17560201E+00 0.51490810E+03</pdfrwt>
<pdfrwt beam="2">  1       -2 0.47718966E-01 0.51490810E+03</pdfrwt>
<totfact> 0.88819019E+01</totfact>
</mgrwt>
</event>
<event>
 4    1  0.2318373E-002  0.4056388E+03  0.7818608E-02  0.1041844E+00
         -1   -1    0    0    0  501 -0.00000000000E+00  0.00000000000E+00  0.25651538024E+03  0.25651538024E+03  0.00000000000E+00 0.  1.
          1   -1    0    0  502    0  0.00000000000E+00 -0.00000000000E+00 -0.18792726018E+04  0.18792726018E+04  0.00000000000E+00 0. -1.
    9000005    1    1    2  502    0  0.55449418718E+02 -0.38316547111E+02  0.55307363669E+02  0.40939186642E+03  0.40000000000E+03 0.  1.
   -9000005    1    1    2    0  501 -0.55449418718E+02  0.38316547111E+02 -0.16780645852E+04  0.17263961156E+04  0.40000000000E+03 0. -1.
<mgrwt>
<rscale>  2 0.40563875E+03</rscale>
<asrwt>0</asrwt>
<pdfrwt beam="1">  1        1 0.28911886E+00 0.40563875E+03</pdfrwt>
<pdfrwt beam="2">  1       -1 0.39463905E-01 0.40563875E+03</pdfrwt>
<totfact> 0.24838663E+01</totfact>
</mgrwt>
</event>
<event>
 4    1  0.2318373E-002  0.4925433E+03  0.7818608E-02  0.1015744E+00
          2   -1    0    0  502    0  0.00000000000E+00  0.00000000000E+00  0.21165590318E+04  0.21165590318E+04  0.00000000000E+00 0.  1.
         -2   -1    0    0    0  501 -0.00000000000E+00 -0.00000000000E+00 -0.13358284456E+03  0.13358284456E+03  0.00000000000E+00 0. -1.
    9000005    1    1    2  502    0  0.20443866261E+03 -0.20199925740E+03  0.14153871171E+04  0.14986392355E+04  0.40000000000E+03 0. -1.
   -9000005    1    1    2    0  501 -0.20443866261E+03  0.20199925740E+03  0.56758907017E+03  0.75150264094E+03  0.40000000000E+03 0.  1.
<mgrwt>
<rscale>  2 0.49254326E+03</rscale>
<asrwt>0</asrwt>
<pdfrwt beam="1">  1        2 0.32562444E+00 0.49254326E+03</pdfrwt>
<pdfrwt beam="2">  1       -2 0.20551208E-01 0.49254326E+03</pdfrwt>
<totfact> 0.12429507E+02</totfact>
</mgrwt>
</event>
<event>
 4    1  0.2318373E-002  0.4756274E+03  0.7818608E-02  0.1020344E+00
          2   -1    0    0  502    0  0.00000000000E+00  0.00000000000E+00  0.15148393383E+04  0.15148393383E+04  0.00000000000E+00 0. -1.
         -2   -1    0    0    0  501 -0.00000000000E+00 -0.00000000000E+00 -0.15567019213E+03  0.15567019213E+03  0.00000000000E+00 0.  1.
    9000005    1    1    2  502    0 -0.25179943157E+03  0.53089416222E+02  0.51111156368E+03  0.69818082928E+03  0.40000000000E+03 0. -1.
   -9000005    1    1    2    0  501  0.25179943157E+03 -0.53089416222E+02  0.84805758253E+03  0.97232870119E+03  0.40000000000E+03 0. -1.
<mgrwt>
<rscale>  2 0.47562742E+03</rscale>
<asrwt>0</asrwt>
<pdfrwt beam="1">  1        2 0.23305220E+00 0.47562742E+03</pdfrwt>
<pdfrwt beam="2">  1       -2 0.23949261E-01 0.47562742E+03</pdfrwt>
<totfact> 0.20090024E+02</totfact>
</mgrwt>
</event>
<event>
 4    1  0.2318373E-002  0.4200042E+03  0.7818608E-02  0.1037065E+00
         -2   -1    0    0    0  501 -0.00000000000E+00  0.00000000000E+00  0.36634566993E+03  0.36634566993E+03  0.00000000000E+00 0.  1.
          2   -1    0    0  502    0  0.00000000000E+00 -0.00000000000E+00 -0.54273473950E+03  0.54273473950E+03  0.00000000000E+00 0. -1.
    9000005    1    1    2  502    0  0.10163354780E+03 -0.77936705053E+02 -0.24084541750E+03  0.48415908869E+03  0.40000000000E+03 0.  1.
   -9000005    1    1    2    0  501 -0.10163354780E+03  0.77936705053E+02  0.64456347930E+02  0.42492132074E+03  0.40000000000E+03 0.  1.
<mgrwt>
<rscale>  2 0.42000418E+03</rscale>
<asrwt>0</asrwt>
<pdfrwt beam="1">  1        2 0.83497653E-01 0.42000418E+03</pdfrwt>
<pdfrwt beam="2">  1       -2 0.56360872E-01 0.42000418E+03</pdfrwt>
<totfact> 0.17009360E+02</totfact>
</mgrwt>
</event>
<event>
 4    1  0.2318373E-002  0.7294719E+03  0.7818608E-02  0.9668118E-01
         -2   -1    0    0    0  501 -0.00000000000E+00  0.00000000000E+00  0.20418172233E+03  0.20418172233E+03  0.00000000000E+00 0.  1.
          2   -1    0    0  502    0  0.00000000000E+00 -0.00000000000E+00 -0.32679158036E+04  0.32679158036E+04  0.00000000000E+00 0. -1.
    9000005    1    1    2  502    0  0.60146745947E+03 -0.10181431236E+03 -0.23130934968E+04  0.24253929133E+04  0.40000000000E+03 0. -1.
   -9000005    1    1    2    0  501 -0.60146745947E+03  0.10181431236E+03 -0.75064058444E+03  0.10467046126E+04  0.40000000000E+03 0.  1.
<mgrwt>
<rscale>  2 0.72947190E+03</rscale>
<asrwt>0</asrwt>
<pdfrwt beam="1">  1        2 0.50275630E+00 0.72947190E+03</pdfrwt>
<pdfrwt beam="2">  1       -2 0.31412571E-01 0.72947190E+03</pdfrwt>
<totfact> 0.11826298E+01</totfact>
</mgrwt>
</event>
<event>
 4    1  0.2318373E-002  0.6469365E+03  0.7818608E-02  0.9812545E-01
         -1   -1    0    0    0  501 -0.00000000000E+00  0.00000000000E+00  0.31343389727E+03  0.31343389727E+03  0.00000000000E+00 0. -1.
          1   -1    0    0  502    0  0.00000000000E+00 -0.00000000000E+00 -0.13551678405E+04  0.13551678405E+04  0.00000000000E+00 0.  1.
    9000005    1    1    2  502    0  0.42582973163E+03 -0.27784142147E+03 -0.41983643941E+03  0.77122594075E+03  0.40000000000E+03 0. -1.
   -9000005    1    1    2    0  501 -0.42582973163E+03  0.27784142147E+03 -0.62189750384E+03  0.89737579703E+03  0.40000000000E+03 0.  1.
<mgrwt>
<rscale>  2 0.64693649E+03</rscale>
<asrwt>0</asrwt>
<pdfrwt beam="1">  1        1 0.20848736E+00 0.64693649E+03</pdfrwt>
<pdfrwt beam="2">  1       -1 0.48220599E-01 0.64693649E+03</pdfrwt>
<totfact> 0.37031233E+01</totfact>
</mgrwt>
</event>
<event>
 4    1  0.2318373E-002  0.4974526E+03  0.7818608E-02  0.1014446E+00
          1   -1    0    0  502    0  0.00000000000E+00  0.00000000000E+00  0.17860575118E+03  0.17860575118E+03  0.00000000000E+00 0. -1.
         -1   -1    0    0    0  501 -0.00000000000E+00 -0.00000000000E+00 -0.14448477242E+04  0.14448477242E+04  0.00000000000E+00 0.  1.
    9000005    1    1    2  502    0 -0.16968089914E+03  0.24221379801E+03 -0.79762752451E+03  0.94003659468E+03  0.40000000000E+03 0. -1.
   -9000005    1    1    2    0  501  0.16968089914E+03 -0.24221379801E+03 -0.46861444853E+03  0.68341688072E+03  0.40000000000E+03 0.  1.
<mgrwt>
<rscale>  2 0.49745264E+03</rscale>
<asrwt>0</asrwt>
<pdfrwt beam="1">  1        1 0.27477808E-01 0.49745264E+03</pdfrwt>
<pdfrwt beam="2">  1       -1 0.22228426E+00 0.49745264E+03</pdfrwt>
<totfact> 0.19442059E+01</totfact>
</mgrwt>
</event>
<event>
 4    1  0.2318373E-002  0.4709802E+03  0.7818608E-02  0.1021644E+00
         -1   -1    0    0    0  501 -0.00000000000E+00  0.00000000000E+00  0.18375659385E+03  0.18375659385E+03  0.00000000000E+00 0. -1.
          1   -1    0    0  502    0  0.00000000000E+00 -0.00000000000E+00 -0.12502323315E+04  0.12502323315E+04  0.00000000000E+00 0.  1.
    9000005    1    1    2  502    0 -0.30532994600E+02 -0.24675919759E+03 -0.66633042595E+03  0.81597708418E+03  0.40000000000E+03 0.  1.
   -9000005    1    1    2    0  501  0.30532994600E+02  0.24675919759E+03 -0.40014531173E+03  0.61801184119E+03  0.40000000000E+03 0.  1.
<mgrwt>
<rscale>  2 0.47098022E+03</rscale>
<asrwt>0</asrwt>
<pdfrwt beam="1">  1        1 0.19234344E+00 0.47098022E+03</pdfrwt>
<pdfrwt beam="2">  1       -1 0.28270245E-01 0.47098022E+03</pdfrwt>
<totfact> 0.11670643E+02</totfact>
</mgrwt>
</event>
<event>
 4    1  0.2318373E-002  0.4200476E+03  0.7818608E-02  0.1037051E+00
          2   -1    0    0  502    0  0.00000000000E+00  0.00000000000E+00  0.61951995634E+03  0.61951995634E+03  0.00000000000E+00 0. -1.
         -2   -1    0    0    0  501 -0.00000000000E+00 -0.00000000000E+00 -0.32973651541E+03  0.32973651541E+03  0.00000000000E+00 0.  1.
    9000005    1    1    2  502    0 -0.78341432936E+02  0.10150174669E+03 -0.30320452661E+02  0.42114049264E+03  0.40000000000E+03 0.  1.
   -9000005    1    1    2    0  501  0.78341432936E+02 -0.10150174669E+03  0.32010389359E+03  0.52811597910E+03  0.40000000000E+03 0. -1.
<mgrwt>
<rscale>  2 0.42004760E+03</rscale>
<asrwt>0</asrwt>
<pdfrwt beam="1">  1        2 0.95310762E-01 0.42004760E+03</pdfrwt>
<pdfrwt beam="2">  1       -2 0.50728695E-01 0.42004760E+03</pdfrwt>
<totfact> 0.18055072E+02</totfact>
</mgrwt>
</event>
<event>
 4    1  0.2318373E-002  0.4976109E+03  0.7818608E-02  0.1014404E+00
         -1   -1    0    0    0  501 -0.00000000000E+00  0.00000000000E+00  0.94324598931E+03  0.94324598931E+03  0.00000000000E+00 0.  1.
          1   -1    0    0  502    0  0.00000000000E+00 -0.00000000000E+00 -0.63786236888E+03  0.63786236888E+03  0.00000000000E+00 0. -1.
    9000005    1    1    2  502    0  0.20387973299E+03 -0.21459186742E+03  0.75912727926E+03  0.90768432905E+03  0.40000000000E+03 0.  1.
   -9000005    1    1    2    0  501 -0.20387973299E+03  0.21459186742E+03 -0.45374365883E+03  0.67342402913E+03  0.40000000000E+03 0. -1.
<mgrwt>
<rscale>  2 0.49761091E+03</rscale>
<asrwt>0</asrwt>
<pdfrwt beam="1">  1        1 0.98132672E-01 0.49761091E+03</pdfrwt>
<pdfrwt beam="2">  1       -1 0.14511477E+00 0.49761091E+03</pdfrwt>
<totfact> 0.12768966E+01</totfact>
</mgrwt>
</event>
<event>
 4    1  0.2318373E-002  0.4973150E+03  0.7818608E-02  0.1014482E+00
          1   -1    0    0  502    0  0.00000000000E+00  0.00000000000E+00  0.26846084691E+04  0.26846084691E+04  0.00000000000E+00 0.  1.
         -1   -1    0    0    0  501 -0.00000000000E+00 -0.00000000000E+00 -0.11591911147E+03  0.11591911147E+03  0.00000000000E+00 0. -1.
    9000005    1    1    2  502    0 -0.13978145822E+03  0.26035231927E+03  0.64995203476E+03  0.81838855912E+03  0.40000000000E+03 0. -1.
   -9000005    1    1    2    0  501  0.13978145822E+03 -0.26035231927E+03  0.19187373229E+04  0.19821390215E+04  0.40000000000E+03 0. -1.
<mgrwt>
<rscale>  2 0.49731498E+03</rscale>
<asrwt>0</asrwt>
<pdfrwt beam="1">  1        1 0.41301664E+00 0.49731498E+03</pdfrwt>
<pdfrwt beam="2">  1       -1 0.17833711E-01 0.49731498E+03</pdfrwt>
<totfact> 0.27314138E+01</totfact>
</mgrwt>
</event>
<event>
 4    1  0.2318373E-002  0.4034981E+03  0.7818608E-02  0.1042575E+00
         -2   -1    0    0    0  501 -0.00000000000E+00  0.00000000000E+00  0.88821243653E+03  0.88821243653E+03  0.00000000000E+00 0.  1.
          2   -1    0    0  502    0  0.00000000000E+00 -0.00000000000E+00 -0.28911992654E+03  0.28911992654E+03  0.00000000000E+00 0. -1.
    9000005    1    1    2  502    0  0.37994351065E+02  0.36975192994E+02 -0.56585399087E+02  0.40744649096E+03  0.40000000000E+03 0. -1.
   -9000005    1    1    2    0  501 -0.37994351065E+02 -0.36975192994E+02  0.65567790908E+03  0.76988587210E+03  0.40000000000E+03 0.  1.
<mgrwt>
<rscale>  2 0.40349812E+03</rscale>
<asrwt>0</asrwt>
<pdfrwt beam="1">  1        2 0.44479989E-01 0.40349812E+03</pdfrwt>
<pdfrwt beam="2">  1       -2 0.13664807E+00 0.40349812E+03</pdfrwt>
<totfact> 0.45470195E+01</totfact>
</mgrwt>
</event>
<event>
 4    1  0.2318373E-002  0.4583334E+03  0.7818608E-02  0.1025266E+00
          1   -1    0    0  502    0  0.00000000000E+00  0.00000000000E+00  0.54760113117E+03  0.54760113117E+03  0.00000000000E+00 0. -1.
         -1   -1    0    0    0  501 -0.00000000000E+00 -0.00000000000E+00 -0.38517294006E+03  0.38517294006E+03  0.00000000000E+00 0.  1.
    9000005    1    1    2  502    0  0.18983082665E+03  0.11846415265E+03  0.51578455923E+02  0.46122644691E+03  0.40000000000E+03 0.  1.
   -9000005    1    1    2    0  501 -0.18983082665E+03 -0.11846415265E+03  0.11084973519E+03  0.47154762432E+03  0.40000000000E+03 0. -1.
<mgrwt>
<rscale>  2 0.45833339E+03</rscale>
<asrwt>0</asrwt>
<pdfrwt beam="1">  1        1 0.84246328E-01 0.45833339E+03</pdfrwt>
<pdfrwt beam="2">  1       -1 0.59257375E-01 0.45833339E+03</pdfrwt>
<totfact> 0.11735172E+02</totfact>
</mgrwt>
</event>
<event>
 4    1  0.2318373E-002  0.4280368E+03  0.7818608E-02  0.1034482E+00
          2   -1    0    0  502    0  0.00000000000E+00  0.00000000000E+00  0.16515698098E+04  0.16515698098E+04  0.00000000000E+00 0.  1.
         -2   -1    0    0    0  501 -0.00000000000E+00 -0.00000000000E+00 -0.11633351446E+03  0.11633351446E+03  0.00000000000E+00 0. -1.
    9000005    1    1    2  502    0 -0.14296608189E+03  0.52689372503E+02  0.95805366996E+03  0.10493246900E+04  0.40000000000E+03 0.  1.
   -9000005    1    1    2    0  501  0.14296608189E+03 -0.52689372503E+02  0.57718262539E+03  0.71857863424E+03  0.40000000000E+03 0.  1.
<mgrwt>
<rscale>  2 0.42803676E+03</rscale>
<asrwt>0</asrwt>
<pdfrwt beam="1">  1        2 0.25408765E+00 0.42803676E+03</pdfrwt>
<pdfrwt beam="2">  1       -2 0.17897465E-01 0.42803676E+03</pdfrwt>
<totfact> 0.28301327E+02</totfact>
</mgrwt>
</event>
<event>
 4    1  0.2318373E-002  0.4284335E+03  0.7818608E-02  0.1034356E+00
         -1   -1    0    0    0  501 -0.00000000000E+00  0.00000000000E+00  0.10427518335E+03  0.10427518335E+03  0.00000000000E+00 0. -1.
          1   -1    0    0  502    0  0.00000000000E+00 -0.00000000000E+00 -0.17626734883E+04  0.17626734883E+04  0.00000000000E+00 0.  1.
    9000005    1    1    2  502    0 -0.15156324900E+03 -0.24163121234E+02 -0.86347590372E+03  0.96392214996E+03  0.40000000000E+03 0. -1.
   -9000005    1    1    2    0  501  0.15156324900E+03  0.24163121234E+02 -0.79492240119E+03  0.90302652164E+03  0.40000000000E+03 0.  1.
<mgrwt>
<rscale>  2 0.42843351E+03</rscale>
<asrwt>0</asrwt>
<pdfrwt beam="1">  1        1 0.27118054E+00 0.42843351E+03</pdfrwt>
<pdfrwt beam="2">  1       -1 0.16042336E-01 0.42843351E+03</pdfrwt>
<totfact> 0.13544825E+02</totfact>
</mgrwt>
</event>
<event>
 4    1  0.2318373E-002  0.4120880E+03  0.7818608E-02  0.1039673E+00
         -3   -1    0    0    0  501 -0.00000000000E+00  0.00000000000E+00  0.23427039211E+03  0.23427039211E+03  0.00000000000E+00 0. -1.
          3   -1    0    0  502    0  0.00000000000E+00 -0.00000000000E+00 -0.91813703792E+03  0.91813703792E+03  0.00000000000E+00 0.  1.
    9000005    1    1    2  502    0 -0.41733223820E+02  0.89860265475E+02 -0.60629386799E+03  0.73308170325E+03  0.40000000000E+03 0.  1.
   -9000005    1    1    2    0  501  0.41733223820E+02 -0.89860265475E+02 -0.77572777827E+02  0.41932572678E+03  0.40000000000E+03 0. -1.
<mgrwt>
<rscale>  2 0.41208801E+03</rscale>
<asrwt>0</asrwt>
<pdfrwt beam="1">  1        3 0.14125185E+00 0.41208801E+03</pdfrwt>
<pdfrwt beam="2">  1       -3 0.36041599E-01 0.41208801E+03</pdfrwt>
<totfact> 0.75307287E+00</totfact>
</mgrwt>
</event>
<event>
 4    1  0.2318373E-002  0.4588788E+03  0.7818608E-02  0.1025107E+00
          2   -1    0    0  502    0  0.00000000000E+00  0.00000000000E+00  0.23783693356E+03  0.23783693356E+03  0.00000000000E+00 0.  1.
         -2   -1    0    0    0  501 -0.00000000000E+00 -0.00000000000E+00 -0.88922412021E+03  0.88922412021E+03  0.00000000000E+00 0. -1.
    9000005    1    1    2  502    0  0.21154184264E+03  0.76287572982E+02 -0.36287330524E+03  0.58501861563E+03  0.40000000000E+03 0. -1.
   -9000005    1    1    2    0  501 -0.21154184264E+03 -0.76287572982E+02 -0.28851388141E+03  0.54204243814E+03  0.40000000000E+03 0. -1.
<mgrwt>
<rscale>  2 0.45887879E+03</rscale>
<asrwt>0</asrwt>
<pdfrwt beam="1">  1        2 0.36590297E-01 0.45887879E+03</pdfrwt>
<pdfrwt beam="2">  1       -2 0.13680371E+00 0.45887879E+03</pdfrwt>
<totfact> 0.55895989E+01</totfact>
</mgrwt>
</event>
<event>
 4    1  0.2318373E-002  0.4908926E+03  0.7818608E-02  0.1016184E+00
         -1   -1    0    0    0  501 -0.00000000000E+00  0.00000000000E+00  0.79700769567E+02  0.79700769567E+02  0.00000000000E+00 0. -1.
          1   -1    0    0  502    0  0.00000000000E+00 -0.00000000000E+00 -0.30568001057E+04  0.30568001057E+04  0.00000000000E+00 0.  1.
    9000005    1    1    2  502    0 -0.17887649943E+03 -0.22131139473E+03 -0.13248742208E+04  0.14128932148E+04  0.40000000000E+03 0. -1.
   -9000005    1    1    2    0  501  0.17887649943E+03  0.22131139473E+03 -0.16522251153E+04  0.17236076605E+04  0.40000000000E+03 0.  1.
<mgrwt>
<rscale>  2 0.49089259E+03</rscale>
<asrwt>0</asrwt>
<pdfrwt beam="1">  1        1 0.47027689E+00 0.49089259E+03</pdfrwt>
<pdfrwt beam="2">  1       -1 0.12261658E-01 0.49089259E+03</pdfrwt>
<totfact> 0.27463915E+01</totfact>
</mgrwt>
</event>
<event>
 4    1  0.2318373E-002  0.4111611E+03  0.7818608E-02  0.1039982E+00
         -3   -1    0    0    0  501 -0.00000000000E+00  0.00000000000E+00  0.77400820609E+03  0.77400820609E+03  0.00000000000E+00 0. -1.
          3   -1    0    0  502    0  0.00000000000E+00 -0.00000000000E+00 -0.22703027797E+03  0.22703027797E+03  0.00000000000E+00 0.  1.
    9000005    1    1    2  502    0 -0.81527815563E+01 -0.94799618497E+02  0.37100242059E+03  0.55380161755E+03  0.40000000000E+03 0. -1.
   -9000005    1    1    2    0  501  0.81527815563E+01  0.94799618497E+02  0.17597550754E+03  0.44723686651E+03  0.40000000000E+03 0. -1.
<mgrwt>
<rscale>  2 0.41116108E+03</rscale>
<asrwt>0</asrwt>
<pdfrwt beam="1">  1        3 0.34927735E-01 0.41116108E+03</pdfrwt>
<pdfrwt beam="2">  1       -3 0.11907818E+00 0.41116108E+03</pdfrwt>
<totfact> 0.12151456E+01</totfact>
</mgrwt>
</event>
<event>
 4    1  0.2318373E-002  0.6447244E+03  0.7818608E-02  0.9816729E-01
         -2   -1    0    0    0  501 -0.00000000000E+00  0.00000000000E+00  0.32435441561E+03  0.32435441561E+03  0.00000000000E+00 0.  1.
          2   -1    0    0  502    0  0.00000000000E+00 -0.00000000000E+00 -0.15314019437E+04  0.15314019437E+04  0.00000000000E+00 0. -1.
    9000005    1    1    2  502    0  0.35145432177E+03  0.36352367093E+03 -0.22871826397E+03  0.68409183878E+03  0.40000000000E+03 0.  1.
   -9000005    1    1    2    0  501 -0.35145432177E+03 -0.36352367093E+03 -0.97832926409E+03  0.11716645205E+04  0.40000000000E+03 0. -1.
<mgrwt>
<rscale>  2 0.64472444E+03</rscale>
<asrwt>0</asrwt>
<pdfrwt beam="1">  1        2 0.23560030E+00 0.64472444E+03</pdfrwt>
<pdfrwt beam="2">  1       -2 0.49900679E-01 0.64472444E+03</pdfrwt>
<totfact> 0.47917853E+01</totfact>
</mgrwt>
</event>
<event>
 4    1  0.2318373E-002  0.4153404E+03  0.7818608E-02  0.1038594E+00
          1   -1    0    0  502    0  0.00000000000E+00  0.00000000000E+00  0.25967695603E+04  0.25967695603E+04  0.00000000000E+00 0. -1.
         -1   -1    0    0    0  501 -0.00000000000E+00 -0.00000000000E+00 -0.77088281421E+02  0.77088281421E+02  0.00000000000E+00 0.  1.
    9000005    1    1    2  502    0  0.30934990437E+02 -0.10747416919E+03  0.17569182861E+04  0.18053447135E+04  0.40000000000E+03 0. -1.
   -9000005    1    1    2    0  501 -0.30934990437E+02  0.10747416919E+03  0.76276299284E+03  0.86851312824E+03  0.40000000000E+03 0.  1.
<mgrwt>
<rscale>  2 0.41534043E+03</rscale>
<asrwt>0</asrwt>
<pdfrwt beam="1">  1        1 0.39950294E+00 0.41534043E+03</pdfrwt>
<pdfrwt beam="2">  1       -1 0.11859738E-01 0.41534043E+03</pdfrwt>
<totfact> 0.61514664E+01</totfact>
</mgrwt>
</event>
<event>
 4    1  0.2318373E-002  0.4886415E+03  0.7818608E-02  0.1016787E+00
         -1   -1    0    0    0  501 -0.00000000000E+00  0.00000000000E+00  0.19561202153E+03  0.19561202153E+03  0.00000000000E+00 0.  1.
          1   -1    0    0  502    0  0.00000000000E+00 -0.00000000000E+00 -0.13656248349E+04  0.13656248349E+04  0.00000000000E+00 0. -1.
    9000005    1    1    2  502    0  0.28038352246E+03  0.12475067287E+02 -0.83936383364E+03  0.97123745407E+03  0.40000000000E+03 0.  1.
   -9000005    1    1    2    0  501 -0.28038352246E+03 -0.12475067287E+02 -0.33064897968E+03  0.58999940232E+03  0.40000000000E+03 0. -1.
<mgrwt>
<rscale>  2 0.48864153E+03</rscale>
<asrwt>0</asrwt>
<pdfrwt beam="1">  1        1 0.21009613E+00 0.48864153E+03</pdfrwt>
<pdfrwt beam="2">  1       -1 0.30094157E-01 0.48864153E+03</pdfrwt>
<totfact> 0.86864275E+01</totfact>
</mgrwt>
</event>
<event>
 4    1  0.2318373E-002  0.4008050E+03  0.7818608E-02  0.1043501E+00
          1   -1    0    0  502    0  0.00000000000E+00  0.00000000000E+00  0.71407993490E+03  0.71407993490E+03  0.00000000000E+00 0. -1.
         -1   -1    0    0    0  501 -0.00000000000E+00 -0.00000000000E+00 -0.33348201984E+03  0.33348201984E+03  0.00000000000E+00 0.  1.
    9000005    1    1    2  502    0 -0.23842832101E+02 -0.87279983296E+01  0.48908325569E+03  0.63233463419E+03  0.40000000000E+03 0. -1.
   -9000005    1    1    2    0  501  0.23842832101E+02  0.87279983296E+01 -0.10848534063E+03  0.41522732055E+03  0.40000000000E+03 0.  1.
<mgrwt>
<rscale>  2 0.40080501E+03</rscale>
<asrwt>0</asrwt>
<pdfrwt beam="1">  1        1 0.10985845E+00 0.40080501E+03</pdfrwt>
<pdfrwt beam="2">  1       -1 0.51304927E-01 0.40080501E+03</pdfrwt>
<totfact> 0.10633655E+02</totfact>
</mgrwt>
</event>
<event>
 4    1  0.2318373E-002  0.6995389E+03  0.7818608E-02  0.9718021E-01
          1   -1    0    0  502    0  0.00000000000E+00  0.00000000000E+00  0.16174410519E+03  0.16174410519E+03  0.00000000000E+00 0. -1.
         -1   -1    0    0    0  501 -0.00000000000E+00 -0.00000000000E+00 -0.30455525064E+04  0.30455525064E+04  0.00000000000E+00 0.  1.
    9000005    1    1    2  502    0  0.53698440722E+03  0.20249067649E+03 -0.15720704724E+04  0.17206859963E+04  0.40000000000E+03 0.  1.
   -9000005    1    1    2    0  501 -0.53698440722E+03 -0.20249067649E+03 -0.13117379289E+04  0.14866106154E+04  0.40000000000E+03 0. -1.
<mgrwt>
<rscale>  2 0.69953894E+03</rscale>
<asrwt>0</asrwt>
<pdfrwt beam="1">  1        1 0.24883710E-01 0.69953894E+03</pdfrwt>
<pdfrwt beam="2">  1       -1 0.46854651E+00 0.69953894E+03</pdfrwt>
<totfact> 0.50998274E-01</totfact>
</mgrwt>
</event>
<event>
 4    1  0.2318373E-002  0.4936249E+03  0.7818608E-02  0.1015456E+00
          1   -1    0    0  502    0  0.00000000000E+00  0.00000000000E+00  0.67874846923E+03  0.67874846923E+03  0.00000000000E+00 0. -1.
         -1   -1    0    0    0  501 -0.00000000000E+00 -0.00000000000E+00 -0.37485771992E+03  0.37485771992E+03  0.00000000000E+00 0.  1.
    9000005    1    1    2  502    0  0.15365145881E+03 -0.24506477918E+03  0.26032309522E+03  0.55806238960E+03  0.40000000000E+03 0. -1.
   -9000005    1    1    2    0  501 -0.15365145881E+03  0.24506477918E+03  0.43567654096E+02  0.49554379955E+03  0.40000000000E+03 0.  1.
<mgrwt>
<rscale>  2 0.49362487E+03</rscale>
<asrwt>0</asrwt>
<pdfrwt beam="1">  1        1 0.10442284E+00 0.49362487E+03</pdfrwt>
<pdfrwt beam="2">  1       -1 0.57670419E-01 0.49362487E+03</pdfrwt>
<totfact> 0.90694625E+01</totfact>
</mgrwt>
</event>
<event>
 4    1  0.2318373E-002  0.4080291E+03  0.7818608E-02  0.1041034E+00
         -2   -1    0    0    0  501 -0.00000000000E+00  0.00000000000E+00  0.42905346619E+03  0.42905346619E+03  0.00000000000E+00 0.  1.
          2   -1    0    0  502    0  0.00000000000E+00 -0.00000000000E+00 -0.13517231393E+04  0.13517231393E+04  0.00000000000E+00 0. -1.
    9000005    1    1    2  502    0 -0.73384549529E+02  0.33203115313E+02  0.29046779352E+03  0.50085854095E+03  0.40000000000E+03 0.  1.
   -9000005    1    1    2    0  501  0.73384549529E+02 -0.33203115313E+02 -0.12131374667E+04  0.12799180646E+04  0.40000000000E+03 0. -1.
<mgrwt>
<rscale>  2 0.40802909E+03</rscale>
<asrwt>0</asrwt>
<pdfrwt beam="1">  1        2 0.20795740E+00 0.40802909E+03</pdfrwt>
<pdfrwt beam="2">  1       -2 0.66008226E-01 0.40802909E+03</pdfrwt>
<totfact> 0.34934812E+01</totfact>
</mgrwt>
</event>
<event>
 4    1  0.2318373E-002  0.4189467E+03  0.7818608E-02  0.1037410E+00
          1   -1    0    0  502    0  0.00000000000E+00  0.00000000000E+00  0.14586794977E+04  0.14586794977E+04  0.00000000000E+00 0. -1.
         -1   -1    0    0    0  501 -0.00000000000E+00 -0.00000000000E+00 -0.15908996706E+03  0.15908996706E+03  0.00000000000E+00 0.  1.
    9000005    1    1    2  502    0  0.76254850221E+02 -0.98496441733E+02  0.25051058145E+03  0.48813103019E+03  0.40000000000E+03 0.  1.
   -9000005    1    1    2    0  501 -0.76254850221E+02  0.98496441733E+02  0.10490789491E+04  0.11296384345E+04  0.40000000000E+03 0. -1.
<mgrwt>
<rscale>  2 0.41894672E+03</rscale>
<asrwt>0</asrwt>
<pdfrwt beam="1">  1        1 0.22441222E+00 0.41894672E+03</pdfrwt>
<pdfrwt beam="2">  1       -1 0.24475380E-01 0.41894672E+03</pdfrwt>
<totfact> 0.10787807E+02</totfact>
</mgrwt>
</event>
<event>
 4    1  0.2318373E-002  0.4083961E+03  0.7818608E-02  0.1040911E+00
         -2   -1    0    0    0  501 -0.00000000000E+00  0.00000000000E+00  0.12181287116E+03  0.12181287116E+03  0.00000000000E+00 0.  1.
          2   -1    0    0  502    0  0.00000000000E+00 -0.00000000000E+00 -0.13720505432E+04  0.13720505432E+04  0.00000000000E+00 0. -1.
    9000005    1    1    2  502    0 -0.15973536033E+02 -0.80822135824E+02 -0.65910602590E+03  0.77537611832E+03  0.40000000000E+03 0. -1.
   -9000005    1    1    2    0  501  0.15973536033E+02  0.80822135824E+02 -0.59113164616E+03  0.71848729605E+03  0.40000000000E+03 0.  1.
<mgrwt>
<rscale>  2 0.40839610E+03</rscale>
<asrwt>0</asrwt>
<pdfrwt beam="1">  1        2 0.21108470E+00 0.40839610E+03</pdfrwt>
<pdfrwt beam="2">  1       -2 0.18740441E-01 0.40839610E+03</pdfrwt>
<totfact> 0.37240229E+02</totfact>
</mgrwt>
</event>
<event>
 4    1  0.2318373E-002  0.7326833E+03  0.7818608E-02  0.9662916E-01
         -1   -1    0    0    0  501 -0.00000000000E+00  0.00000000000E+00  0.90123278327E+03  0.90123278327E+03  0.00000000000E+00 0.  1.
          1   -1    0    0  502    0  0.00000000000E+00 -0.00000000000E+00 -0.66360976841E+03  0.66360976841E+03  0.00000000000E+00 0. -1.
    9000005    1    1    2  502    0 -0.19876895509E+02 -0.61353863554E+03  0.36918648321E+03  0.82044098366E+03  0.40000000000E+03 0.  1.
   -9000005    1    1    2    0  501  0.19876895509E+02  0.61353863554E+03 -0.13156346835E+03  0.74440156803E+03  0.40000000000E+03 0. -1.
<mgrwt>
<rscale>  2 0.73268325E+03</rscale>
<asrwt>0</asrwt>
<pdfrwt beam="1">  1        1 0.10209381E+00 0.73268325E+03</pdfrwt>
<pdfrwt beam="2">  1       -1 0.13865120E+00 0.73268325E+03</pdfrwt>
<totfact> 0.13091207E+01</totfact>
</mgrwt>
</event>
<event>
 4    1  0.2318373E-002  0.5480903E+03  0.7818608E-02  0.1001937E+00
         -2   -1    0    0    0  501 -0.00000000000E+00  0.00000000000E+00  0.54080380601E+03  0.54080380601E+03  0.00000000000E+00 0. -1.
          2   -1    0    0  502    0  0.00000000000E+00 -0.00000000000E+00 -0.96499362382E+03  0.96499362382E+03  0.00000000000E+00 0.  1.
    9000005    1    1    2  502    0 -0.11911051700E+03  0.35526841283E+03  0.27837367609E+03  0.61473153812E+03  0.40000000000E+03 0. -1.
   -9000005    1    1    2    0  501  0.11911051700E+03 -0.35526841283E+03 -0.70256349390E+03  0.89106589171E+03  0.40000000000E+03 0.  1.
<mgrwt>
<rscale>  2 0.54809028E+03</rscale>
<asrwt>0</asrwt>
<pdfrwt beam="1">  1        2 0.14846056E+00 0.54809028E+03</pdfrwt>
<pdfrwt beam="2">  1       -2 0.83200586E-01 0.54809028E+03</pdfrwt>
<totfact> 0.34852246E+01</totfact>
</mgrwt>
</event>
<event>
 4    1  0.2318373E-002  0.4295884E+03  0.7818608E-02  0.1033990E+00
          2   -1    0    0  502    0  0.00000000000E+00  0.00000000000E+00  0.14154795596E+04  0.14154795596E+04  0.00000000000E+00 0. -1.
         -2   -1    0    0    0  501 -0.00000000000E+00 -0.00000000000E+00 -0.13464663808E+03  0.13464663808E+03  0.00000000000E+00 0.  1.
    9000005    1    1    2  502    0  0.54854290070E+02 -0.14675557594E+03  0.77843173656E+03  0.88910188432E+03  0.40000000000E+03 0.  1.
   -9000005    1    1    2    0  501 -0.54854290070E+02  0.14675557594E+03  0.50240118499E+03  0.66102431338E+03  0.40000000000E+03 0. -1.
<mgrwt>
<rscale>  2 0.42958840E+03</rscale>
<asrwt>0</asrwt>
<pdfrwt beam="1">  1        2 0.21776608E+00 0.42958840E+03</pdfrwt>
<pdfrwt beam="2">  1       -2 0.20714868E-01 0.42958840E+03</pdfrwt>
<totfact> 0.29563975E+02</totfact>
</mgrwt>
</event>
<event>
 4    1  0.2318373E-002  0.5055344E+03  0.7818608E-02  0.1012344E+00
          2   -1    0    0  502    0  0.00000000000E+00  0.00000000000E+00  0.42437036212E+03  0.42437036212E+03  0.00000000000E+00 0.  1.
         -2   -1    0    0    0  501 -0.00000000000E+00 -0.00000000000E+00 -0.60453749555E+03  0.60453749555E+03  0.00000000000E+00 0. -1.
    9000005    1    1    2  502    0  0.23303032218E+03 -0.20313013464E+03 -0.58241749512E+02  0.50887826053E+03  0.40000000000E+03 0.  1.
   -9000005    1    1    2    0  501 -0.23303032218E+03  0.20313013464E+03 -0.12192538392E+03  0.52002959714E+03  0.40000000000E+03 0.  1.
<mgrwt>
<rscale>  2 0.50553435E+03</rscale>
<asrwt>0</asrwt>
<pdfrwt beam="1">  1        2 0.65287748E-01 0.50553435E+03</pdfrwt>
<pdfrwt beam="2">  1       -2 0.93005769E-01 0.50553435E+03</pdfrwt>
<totfact> 0.74830180E+01</totfact>
</mgrwt>
</event>
<event>
 4    1  0.2318373E-002  0.4561215E+03  0.7818608E-02  0.1025912E+00
          2   -1    0    0  502    0  0.00000000000E+00  0.00000000000E+00  0.12318346728E+04  0.12318346728E+04  0.00000000000E+00 0.  1.
         -2   -1    0    0    0  501 -0.00000000000E+00 -0.00000000000E+00 -0.16915365436E+03  0.16915365436E+03  0.00000000000E+00 0. -1.
    9000005    1    1    2  502    0 -0.35544375961E+02  0.21629474443E+03  0.55889955331E+03  0.72139831565E+03  0.40000000000E+03 0. -1.
   -9000005    1    1    2    0  501  0.35544375961E+02 -0.21629474443E+03  0.50378146508E+03  0.67959001147E+03  0.40000000000E+03 0. -1.
<mgrwt>
<rscale>  2 0.45612150E+03</rscale>
<asrwt>0</asrwt>
<pdfrwt beam="1">  1        2 0.18951302E+00 0.45612150E+03</pdfrwt>
<pdfrwt beam="2">  1       -2 0.26023640E-01 0.45612150E+03</pdfrwt>
<totfact> 0.24987168E+02</totfact>
</mgrwt>
</event>
<event>
 4    1  0.2318373E-002  0.4474399E+03  0.7818608E-02  0.1028488E+00
          2   -1    0    0  502    0  0.00000000000E+00  0.00000000000E+00  0.14211963579E+04  0.14211963579E+04  0.00000000000E+00 0. -1.
         -2   -1    0    0    0  501 -0.00000000000E+00 -0.00000000000E+00 -0.14993774526E+03  0.14993774526E+03  0.00000000000E+00 0.  1.
    9000005    1    1    2  502    0  0.44864476270E+02  0.19542162945E+03  0.82882731313E+03  0.94189020033E+03  0.40000000000E+03 0.  1.
   -9000005    1    1    2    0  501 -0.44864476270E+02 -0.19542162945E+03  0.44243129956E+03  0.62924390288E+03  0.40000000000E+03 0.  1.
<mgrwt>
<rscale>  2 0.44743987E+03</rscale>
<asrwt>0</asrwt>
<pdfrwt beam="1">  1        2 0.21864558E+00 0.44743987E+03</pdfrwt>
<pdfrwt beam="2">  1       -2 0.23067346E-01 0.44743987E+03</pdfrwt>
<totfact> 0.24254477E+02</totfact>
</mgrwt>
</event>
<event>
 4    1  0.2318373E-002  0.4159906E+03  0.7818608E-02  0.1038379E+00
         -2   -1    0    0    0  501 -0.00000000000E+00  0.00000000000E+00  0.78599627374E+02  0.78599627374E+02  0.00000000000E+00 0. -1.
          2   -1    0    0  502    0  0.00000000000E+00 -0.00000000000E+00 -0.23289457199E+04  0.23289457199E+04  0.00000000000E+00 0.  1.
    9000005    1    1    2  502    0 -0.29303186932E+02 -0.11040595636E+03 -0.14066139861E+04  0.14668370931E+04  0.40000000000E+03 0.  1.
   -9000005    1    1    2    0  501  0.29303186932E+02  0.11040595636E+03 -0.84373210651E+03  0.94070825420E+03  0.40000000000E+03 0.  1.
<mgrwt>
<rscale>  2 0.41599057E+03</rscale>
<asrwt>0</asrwt>
<pdfrwt beam="1">  1        2 0.35829927E+00 0.41599057E+03</pdfrwt>
<pdfrwt beam="2">  1       -2 0.12092253E-01 0.41599057E+03</pdfrwt>
<totfact> 0.23610243E+02</totfact>
</mgrwt>
</event>
<event>
 4    1  0.2318373E-002  0.4269071E+03  0.7818608E-02  0.1034841E+00
         -1   -1    0    0    0  501 -0.00000000000E+00  0.00000000000E+00  0.29686262846E+03  0.29686262846E+03  0.00000000000E+00 0. -1.
          1   -1    0    0  502    0  0.00000000000E+00 -0.00000000000E+00 -0.63418438285E+03  0.63418438285E+03  0.00000000000E+00 0.  1.
    9000005    1    1    2  502    0  0.10159517783E+03 -0.10921598471E+03 -0.25187700715E+03  0.49567301541E+03  0.40000000000E+03 0.  1.
   -9000005    1    1    2    0  501 -0.10159517783E+03  0.10921598471E+03 -0.85444747231E+02  0.43537399590E+03  0.40000000000E+03 0. -1.
<mgrwt>
<rscale>  2 0.42690715E+03</rscale>
<asrwt>0</asrwt>
<pdfrwt beam="1">  1        1 0.97566828E-01 0.42690715E+03</pdfrwt>
<pdfrwt beam="2">  1       -1 0.45671174E-01 0.42690715E+03</pdfrwt>
<totfact> 0.15663270E+02</totfact>
</mgrwt>
</event>
<event>
 4    1  0.2318373E-002  0.4742446E+03  0.7818608E-02  0.1020729E+00
          2   -1    0    0  502    0  0.00000000000E+00  0.00000000000E+00  0.17686842772E+04  0.17686842772E+04  0.00000000000E+00 0. -1.
         -2   -1    0    0    0  501 -0.00000000000E+00 -0.00000000000E+00 -0.13356653214E+03  0.13356653214E+03  0.00000000000E+00 0.  1.
    9000005    1    1    2  502    0 -0.16850422972E+03  0.19108714445E+03  0.10258451251E+04  0.11301620206E+04  0.40000000000E+03 0.  1.
   -9000005    1    1    2    0  501  0.16850422972E+03 -0.19108714445E+03  0.60927261999E+03  0.77208878872E+03  0.40000000000E+03 0.  1.
<mgrwt>
<rscale>  2 0.47424463E+03</rscale>
<asrwt>0</asrwt>
<pdfrwt beam="1">  1        2 0.27210526E+00 0.47424463E+03</pdfrwt>
<pdfrwt beam="2">  1       -2 0.20548698E-01 0.47424463E+03</pdfrwt>
<totfact> 0.19176878E+02</totfact>
</mgrwt>
</event>
<event>
 4    1  0.2318373E-002  0.4863428E+03  0.7818608E-02  0.1017406E+00
         -2   -1    0    0    0  501 -0.00000000000E+00  0.00000000000E+00  0.27624316864E+03  0.27624316864E+03  0.00000000000E+00 0.  1.
          2   -1    0    0  502    0  0.00000000000E+00 -0.00000000000E+00 -0.85769070747E+03  0.85769070747E+03  0.00000000000E+00 0. -1.
    9000005    1    1    2  502    0 -0.23205148500E+03 -0.15060341703E+03 -0.26737224449E+03  0.55499297116E+03  0.40000000000E+03 0.  1.
   -9000005    1    1    2    0  501  0.23205148500E+03  0.15060341703E+03 -0.31407529434E+03  0.57894090495E+03  0.40000000000E+03 0. -1.
<mgrwt>
<rscale>  2 0.48634276E+03</rscale>
<asrwt>0</asrwt>
<pdfrwt beam="1">  1        2 0.13195241E+00 0.48634276E+03</pdfrwt>
<pdfrwt beam="2">  1       -2 0.42498950E-01 0.48634276E+03</pdfrwt>
<totfact> 0.16938144E+02</totfact>
</mgrwt>
</event>
<event>
 4    1  0.2318373E-002  0.6164419E+03  0.7818608E-02  0.9871870E-01
         -2   -1    0    0    0  501 -0.00000000000E+00  0.00000000000E+00  0.20040518031E+03  0.20040518031E+03  0.00000000000E+00 0.  1.
          2   -1    0    0  502    0  0.00000000000E+00 -0.00000000000E+00 -0.18965703259E+04  0.18965703259E+04  0.00000000000E+00 0. -1.
    9000005    1    1    2  502    0  0.28868084767E+03  0.36968091558E+03 -0.83269093422E+03  0.10360380317E+04  0.40000000000E+03 0. -1.
   -9000005    1    1    2    0  501 -0.28868084767E+03 -0.36968091558E+03 -0.86347421138E+03  0.10609374745E+04  0.40000000000E+03 0.  1.
<mgrwt>
<rscale>  2 0.61644190E+03</rscale>
<asrwt>0</asrwt>
<pdfrwt beam="1">  1        2 0.29178005E+00 0.61644190E+03</pdfrwt>
<pdfrwt beam="2">  1       -2 0.30831567E-01 0.61644190E+03</pdfrwt>
<totfact> 0.77418563E+01</totfact>
</mgrwt>
</event>
<event>
 4    1  0.2318373E-002  0.4996061E+03  0.7818608E-02  0.1013882E+00
          1   -1    0    0  502    0  0.00000000000E+00  0.00000000000E+00  0.25200428231E+04  0.25200428231E+04  0.00000000000E+00 0.  1.
         -1   -1    0    0    0  501 -0.00000000000E+00 -0.00000000000E+00 -0.10426819887E+03  0.10426819887E+03  0.00000000000E+00 0. -1.
    9000005    1    1    2  502    0 -0.60091305433E+02  0.29324948487E+03  0.91430086949E+03  0.10418984141E+04  0.40000000000E+03 0. -1.
   -9000005    1    1    2    0  501  0.60091305433E+02 -0.29324948487E+03  0.15014737547E+04  0.15824126079E+04  0.40000000000E+03 0. -1.
<mgrwt>
<rscale>  2 0.49960607E+03</rscale>
<asrwt>0</asrwt>
<pdfrwt beam="1">  1        1 0.38769885E+00 0.49960607E+03</pdfrwt>
<pdfrwt beam="2">  1       -1 0.16041263E-01 0.49960607E+03</pdfrwt>
<totfact> 0.42005492E+01</totfact>
</mgrwt>
</event>
<event>
 4    1  0.2318373E-002  0.4605835E+03  0.7818608E-02  0.1024612E+00
          1   -1    0    0  502    0  0.00000000000E+00  0.00000000000E+00  0.12641961489E+04  0.12641961489E+04  0.00000000000E+00 0. -1.
         -1   -1    0    0    0  501 -0.00000000000E+00 -0.00000000000E+00 -0.16933624565E+03  0.16933624565E+03  0.00000000000E+00 0.  1.
    9000005    1    1    2  502    0 -0.21629699875E+03  0.73162789085E+02  0.61561122260E+03  0.76883962097E+03  0.40000000000E+03 0.  1.
   -9000005    1    1    2    0  501  0.21629699875E+03 -0.73162789085E+02  0.47924868069E+03  0.66469277363E+03  0.40000000000E+03 0.  1.
<mgrwt>
<rscale>  2 0.46058353E+03</rscale>
<asrwt>0</asrwt>
<pdfrwt beam="1">  1        1 0.19449171E+00 0.46058353E+03</pdfrwt>
<pdfrwt beam="2">  1       -1 0.26051731E-01 0.46058353E+03</pdfrwt>
<totfact> 0.13134305E+02</totfact>
</mgrwt>
</event>
<event>
 4    1  0.2318373E-002  0.4743616E+03  0.7818608E-02  0.1020696E+00
         -2   -1    0    0    0  501 -0.00000000000E+00  0.00000000000E+00  0.37907908603E+03  0.37907908603E+03  0.00000000000E+00 0.  1.
          2   -1    0    0  502    0  0.00000000000E+00 -0.00000000000E+00 -0.73543454996E+03  0.73543454996E+03  0.00000000000E+00 0. -1.
    9000005    1    1    2  502    0 -0.49380752945E+02 -0.25016086924E+03 -0.42290603140E+03  0.63550643636E+03  0.40000000000E+03 0. -1.
   -9000005    1    1    2    0  501  0.49380752945E+02  0.25016086924E+03  0.66550567467E+02  0.47900719962E+03  0.40000000000E+03 0.  1.
<mgrwt>
<rscale>  2 0.47436159E+03</rscale>
<asrwt>0</asrwt>
<pdfrwt beam="1">  1        2 0.11314378E+00 0.47436159E+03</pdfrwt>
<pdfrwt beam="2">  1       -2 0.58319859E-01 0.47436159E+03</pdfrwt>
<totfact> 0.10930177E+02</totfact>
</mgrwt>
</event>
<event>
 4    1  0.2318373E-002  0.4034308E+03  0.7818608E-02  0.1042598E+00
          1   -1    0    0  502    0  0.00000000000E+00  0.00000000000E+00  0.97329943460E+03  0.97329943460E+03  0.00000000000E+00 0. -1.
         -1   -1    0    0    0  501 -0.00000000000E+00 -0.00000000000E+00 -0.16888678237E+03  0.16888678237E+03  0.00000000000E+00 0.  1.
    9000005    1    1    2  502    0 -0.95941827686E+01  0.51617368433E+02  0.45891879178E+03  0.61103425315E+03  0.40000000000E+03 0. -1.
   -9000005    1    1    2    0  501  0.95941827686E+01 -0.51617368433E+02  0.34549386044E+03  0.53115196382E+03  0.40000000000E+03 0.  1.
<mgrwt>
<rscale>  2 0.40343079E+03</rscale>
<asrwt>0</asrwt>
<pdfrwt beam="1">  1        1 0.14973837E+00 0.40343079E+03</pdfrwt>
<pdfrwt beam="2">  1       -1 0.25982582E-01 0.40343079E+03</pdfrwt>
<totfact> 0.21685036E+02</totfact>
</mgrwt>
</event>
<event>
 4    1  0.2318373E-002  0.4644800E+03  0.7818608E-02  0.1023490E+00
         -2   -1    0    0    0  501 -0.00000000000E+00  0.00000000000E+00  0.16049787412E+03  0.16049787412E+03  0.00000000000E+00 0.  1.
          2   -1    0    0  502    0  0.00000000000E+00 -0.00000000000E+00 -0.17369342107E+04  0.17369342107E+04  0.00000000000E+00 0. -1.
    9000005    1    1    2  502    0 -0.27845423865E+02 -0.23444894154E+03 -0.12393385411E+04  0.13235186789E+04  0.40000000000E+03 0. -1.
   -9000005    1    1    2    0  501  0.27845423865E+02  0.23444894154E+03 -0.33709779545E+03  0.57391340594E+03  0.40000000000E+03 0.  1.
<mgrwt>
<rscale>  2 0.46448000E+03</rscale>
<asrwt>0</asrwt>
<pdfrwt beam="1">  1        2 0.26722066E+00 0.46448000E+03</pdfrwt>
<pdfrwt beam="2">  1       -2 0.24691979E-01 0.46448000E+03</pdfrwt>
<totfact> 0.14445368E+02</totfact>
</mgrwt>
</event>
<event>
 4    1  0.2318373E-002  0.4160152E+03  0.7818608E-02  0.1038371E+00
          4   -1    0    0  502    0  0.00000000000E+00  0.00000000000E+00  0.13135421798E+04  0.13135421798E+04  0.00000000000E+00 0.  1.
         -4   -1    0    0    0  501 -0.00000000000E+00 -0.00000000000E+00 -0.13846832747E+03  0.13846832747E+03  0.00000000000E+00 0. -1.
    9000005    1    1    2  502    0 -0.26706371815E+02 -0.11115499704E+03  0.74736817530E+03  0.85535247303E+03  0.40000000000E+03 0.  1.
   -9000005    1    1    2    0  501  0.26706371815E+02  0.11115499704E+03  0.42770567700E+03  0.59665803422E+03  0.40000000000E+03 0. -1.
<mgrwt>
<rscale>  2 0.41601522E+03</rscale>
<asrwt>0</asrwt>
<pdfrwt beam="1">  1        4 0.20208340E+00 0.41601522E+03</pdfrwt>
<pdfrwt beam="2">  1       -4 0.21302820E-01 0.41601522E+03</pdfrwt>
<totfact> 0.51843645E+00</totfact>
</mgrwt>
</event>
<event>
 4    1  0.2318373E-002  0.5155485E+03  0.7818608E-02  0.1009798E+00
         -2   -1    0    0    0  501 -0.00000000000E+00  0.00000000000E+00  0.38447594496E+03  0.38447594496E+03  0.00000000000E+00 0. -1.
          2   -1    0    0  502    0  0.00000000000E+00 -0.00000000000E+00 -0.69752923014E+03  0.69752923014E+03  0.00000000000E+00 0.  1.
    9000005    1    1    2  502    0  0.28739044548E+03 -0.15230572352E+03 -0.10542362087E+03  0.52621710482E+03  0.40000000000E+03 0.  1.
   -9000005    1    1    2    0  501 -0.28739044548E+03  0.15230572352E+03 -0.20762966431E+03  0.55578807029E+03  0.40000000000E+03 0. -1.
<mgrwt>
<rscale>  2 0.51554854E+03</rscale>
<asrwt>0</asrwt>
<pdfrwt beam="1">  1        2 0.10731219E+00 0.51554854E+03</pdfrwt>
<pdfrwt beam="2">  1       -2 0.59150146E-01 0.51554854E+03</pdfrwt>
<totfact> 0.11298961E+02</totfact>
</mgrwt>
</event>
<event>
 4    1  0.2318373E-002  0.4597012E+03  0.7818608E-02  0.1024868E+00
          1   -1    0    0  502    0  0.00000000000E+00  0.00000000000E+00  0.12409727711E+04  0.12409727711E+04  0.00000000000E+00 0.  1.
         -1   -1    0    0    0  501 -0.00000000000E+00 -0.00000000000E+00 -0.17169062768E+03  0.17169062768E+03  0.00000000000E+00 0. -1.
    9000005    1    1    2  502    0 -0.12546666553E+03  0.18863536631E+03  0.59843879803E+03  0.75462187920E+03  0.40000000000E+03 0.  1.
   -9000005    1    1    2    0  501  0.12546666553E+03 -0.18863536631E+03  0.47084334536E+03  0.65804151955E+03  0.40000000000E+03 0.  1.
<mgrwt>
<rscale>  2 0.45970119E+03</rscale>
<asrwt>0</asrwt>
<pdfrwt beam="1">  1        1 0.19091888E+00 0.45970119E+03</pdfrwt>
<pdfrwt beam="2">  1       -1 0.26413944E-01 0.45970119E+03</pdfrwt>
<totfact> 0.13323799E+02</totfact>
</mgrwt>
</event>
<event>
 4    1  0.2318373E-002  0.4109132E+03  0.7818608E-02  0.1040065E+00
          1   -1    0    0  502    0  0.00000000000E+00  0.00000000000E+00  0.57171433326E+03  0.57171433326E+03  0.00000000000E+00 0.  1.
         -1   -1    0    0    0  501 -0.00000000000E+00 -0.00000000000E+00 -0.31580809388E+03  0.31580809388E+03  0.00000000000E+00 0. -1.
    9000005    1    1    2  502    0  0.33032201455E+02  0.88082659858E+02  0.24092865025E+03  0.47633632636E+03  0.40000000000E+03 0.  1.
   -9000005    1    1    2    0  501 -0.33032201455E+02 -0.88082659858E+02  0.14977589127E+02  0.41118610078E+03  0.40000000000E+03 0. -1.
<mgrwt>
<rscale>  2 0.41091323E+03</rscale>
<asrwt>0</asrwt>
<pdfrwt beam="1">  1        1 0.87956051E-01 0.41091323E+03</pdfrwt>
<pdfrwt beam="2">  1       -1 0.48585860E-01 0.41091323E+03</pdfrwt>
<totfact> 0.16203709E+02</totfact>
</mgrwt>
</event>
<event>
 4    1  0.2318373E-002  0.4392431E+03  0.7818608E-02  0.1030979E+00
          1   -1    0    0  502    0  0.00000000000E+00  0.00000000000E+00  0.59991171622E+03  0.59991171622E+03  0.00000000000E+00 0.  1.
         -1   -1    0    0    0  501 -0.00000000000E+00 -0.00000000000E+00 -0.34581392426E+03  0.34581392426E+03  0.00000000000E+00 0. -1.
    9000005    1    1    2  502    0 -0.17418934824E+03 -0.50917287239E+02  0.19356489596E+01  0.43924736301E+03  0.40000000000E+03 0.  1.
   -9000005    1    1    2    0  501  0.17418934824E+03  0.50917287239E+02  0.25216214300E+03  0.50647827746E+03  0.40000000000E+03 0.  1.
<mgrwt>
<rscale>  2 0.43924310E+03</rscale>
<asrwt>0</asrwt>
<pdfrwt beam="1">  1        1 0.92294110E-01 0.43924310E+03</pdfrwt>
<pdfrwt beam="2">  1       -1 0.53202142E-01 0.43924310E+03</pdfrwt>
<totfact> 0.12730768E+02</totfact>
</mgrwt>
</event>
<event>
 4    1  0.2318373E-002  0.4825684E+03  0.7818608E-02  0.1018432E+00
         -2   -1    0    0    0  501 -0.00000000000E+00  0.00000000000E+00  0.48554928736E+03  0.48554928736E+03  0.00000000000E+00 0.  1.
          2   -1    0    0  502    0  0.00000000000E+00 -0.00000000000E+00 -0.49550155448E+03  0.49550155448E+03  0.00000000000E+00 0. -1.
    9000005    1    1    2  502    0  0.21256535023E+03 -0.16639780277E+03 -0.92833769199E+02  0.49141669242E+03  0.40000000000E+03 0. -1.
   -9000005    1    1    2    0  501 -0.21256535023E+03  0.16639780277E+03  0.82881502082E+02  0.48963414942E+03  0.40000000000E+03 0.  1.
<mgrwt>
<rscale>  2 0.48256840E+03</rscale>
<asrwt>0</asrwt>
<pdfrwt beam="1">  1        2 0.76231008E-01 0.48256840E+03</pdfrwt>
<pdfrwt beam="2">  1       -2 0.74699891E-01 0.48256840E+03</pdfrwt>
<totfact> 0.10311323E+02</totfact>
</mgrwt>
</event>
<event>
 4    1  0.2318373E-002  0.4177568E+03  0.7818608E-02  0.1037799E+00
          1   -1    0    0  502    0  0.00000000000E+00  0.00000000000E+00  0.14335645116E+04  0.14335645116E+04  0.00000000000E+00 0.  1.
         -1   -1    0    0    0  501 -0.00000000000E+00 -0.00000000000E+00 -0.27639892588E+03  0.27639892588E+03  0.00000000000E+00 0. -1.
    9000005    1    1    2  502    0  0.12447586134E+02 -0.11985733600E+03 -0.60971677697E+02  0.42218274346E+03  0.40000000000E+03 0. -1.
   -9000005    1    1    2    0  501 -0.12447586134E+02  0.11985733600E+03  0.12181372634E+04  0.12877806941E+04  0.40000000000E+03 0.  1.
<mgrwt>
<rscale>  2 0.41775678E+03</rscale>
<asrwt>0</asrwt>
<pdfrwt beam="1">  1        1 0.22054838E+00 0.41775678E+03</pdfrwt>
<pdfrwt beam="2">  1       -1 0.42522913E-01 0.41775678E+03</pdfrwt>
<totfact> 0.42835694E+01</totfact>
</mgrwt>
</event>
<event>
 4    1  0.2318373E-002  0.7851559E+03  0.7818608E-02  0.9581755E-01
         -1   -1    0    0    0  501 -0.00000000000E+00  0.00000000000E+00  0.39061449066E+03  0.39061449066E+03  0.00000000000E+00 0.  1.
          1   -1    0    0  502    0  0.00000000000E+00 -0.00000000000E+00 -0.16940550891E+04  0.16940550891E+04  0.00000000000E+00 0. -1.
    9000005    1    1    2  502    0 -0.67533755169E+03  0.19724381158E+02 -0.37914211752E+03  0.87190515838E+03  0.40000000000E+03 0.  1.
   -9000005    1    1    2    0  501  0.67533755169E+03 -0.19724381158E+02 -0.92429848094E+03  0.12127644214E+04  0.40000000000E+03 0. -1.
<mgrwt>
<rscale>  2 0.78515595E+03</rscale>
<asrwt>0</asrwt>
<pdfrwt beam="1">  1        1 0.26062386E+00 0.78515595E+03</pdfrwt>
<pdfrwt beam="2">  1       -1 0.60094536E-01 0.78515595E+03</pdfrwt>
<totfact> 0.13968853E+01</totfact>
</mgrwt>
</event>
<event>
 4    1  0.2318373E-002  0.4071739E+03  0.7818608E-02  0.1041324E+00
         -1   -1    0    0    0  501 -0.00000000000E+00  0.00000000000E+00  0.34912729496E+03  0.34912729496E+03  0.00000000000E+00 0.  1.
          1   -1    0    0  502    0  0.00000000000E+00 -0.00000000000E+00 -0.71341930907E+03  0.71341930907E+03  0.00000000000E+00 0. -1.
    9000005    1    1    2  502    0  0.44504147761E+02 -0.61725171412E+02  0.12506250333E+03  0.42594746823E+03  0.40000000000E+03 0.  1.
   -9000005    1    1    2    0  501 -0.44504147761E+02  0.61725171412E+02 -0.48935451744E+03  0.63659913580E+03  0.40000000000E+03 0. -1.
<mgrwt>
<rscale>  2 0.40717394E+03</rscale>
<asrwt>0</asrwt>
<pdfrwt beam="1">  1        1 0.10975682E+00 0.40717394E+03</pdfrwt>
<pdfrwt beam="2">  1       -1 0.53711892E-01 0.40717394E+03</pdfrwt>
<totfact> 0.97563011E+01</totfact>
</mgrwt>
</event>
<event>
 4    1  0.2318373E-002  0.4895927E+03  0.7818608E-02  0.1016532E+00
         -2   -1    0    0    0  501 -0.00000000000E+00  0.00000000000E+00  0.26652157613E+03  0.26652157613E+03  0.00000000000E+00 0. -1.
          2   -1    0    0  502    0  0.00000000000E+00 -0.00000000000E+00 -0.90500965870E+03  0.90500965870E+03  0.00000000000E+00 0.  1.
    9000005    1    1    2  502    0 -0.20713796663E+03 -0.19182002168E+03 -0.36549161651E+03  0.61097068643E+03  0.40000000000E+03 0. -1.
   -9000005    1    1    2    0  501  0.20713796663E+03  0.19182002168E+03 -0.27299646607E+03  0.56056054840E+03  0.40000000000E+03 0.  1.
<mgrwt>
<rscale>  2 0.48959275E+03</rscale>
<asrwt>0</asrwt>
<pdfrwt beam="1">  1        2 0.13923226E+00 0.48959275E+03</pdfrwt>
<pdfrwt beam="2">  1       -2 0.41003319E-01 0.48959275E+03</pdfrwt>
<totfact> 0.16880370E+02</totfact>
</mgrwt>
</event>
<event>
 4    1  0.2318373E-002  0.4075521E+03  0.7818608E-02  0.1041196E+00
         -1   -1    0    0    0  501 -0.00000000000E+00  0.00000000000E+00  0.21220908631E+03  0.21220908631E+03  0.00000000000E+00 0.  1.
          1   -1    0    0  502    0  0.00000000000E+00 -0.00000000000E+00 -0.79777284947E+03  0.79777284947E+03  0.00000000000E+00 0. -1.
    9000005    1    1    2  502    0 -0.47184168448E+02  0.62228335377E+02 -0.36216615314E+03  0.54521833604E+03  0.40000000000E+03 0. -1.
   -9000005    1    1    2    0  501  0.47184168448E+02 -0.62228335377E+02 -0.22339761003E+03  0.46476359974E+03  0.40000000000E+03 0. -1.
<mgrwt>
<rscale>  2 0.40755210E+03</rscale>
<asrwt>0</asrwt>
<pdfrwt beam="1">  1        1 0.12273428E+00 0.40755210E+03</pdfrwt>
<pdfrwt beam="2">  1       -1 0.32647552E-01 0.40755210E+03</pdfrwt>
<totfact> 0.20296220E+02</totfact>
</mgrwt>
</event>
<event>
 4    1  0.2318373E-002  0.4352361E+03  0.7818608E-02  0.1032219E+00
          1   -1    0    0  502    0  0.00000000000E+00  0.00000000000E+00  0.36978154571E+03  0.36978154571E+03  0.00000000000E+00 0. -1.
         -1   -1    0    0    0  501 -0.00000000000E+00 -0.00000000000E+00 -0.53922496645E+03  0.53922496645E+03  0.00000000000E+00 0.  1.
    9000005    1    1    2  502    0  0.16099787263E+03 -0.59246758592E+02 -0.18632713808E+03  0.47344302274E+03  0.40000000000E+03 0.  1.
   -9000005    1    1    2    0  501 -0.16099787263E+03  0.59246758592E+02  0.16883717345E+02  0.43556348941E+03  0.40000000000E+03 0. -1.
<mgrwt>
<rscale>  2 0.43523614E+03</rscale>
<asrwt>0</asrwt>
<pdfrwt beam="1">  1        1 0.56889469E-01 0.43523614E+03</pdfrwt>
<pdfrwt beam="2">  1       -1 0.82957687E-01 0.43523614E+03</pdfrwt>
<totfact> 0.10030355E+02</totfact>
</mgrwt>
</event>
<event>
 4    1  0.2318373E-002  0.4278300E+03  0.7818608E-02  0.1034548E+00
          2   -1    0    0  502    0  0.00000000000E+00  0.00000000000E+00  0.19945189113E+04  0.19945189113E+04  0.00000000000E+00 0. -1.
         -2   -1    0    0    0  501 -0.00000000000E+00 -0.00000000000E+00 -0.10011027860E+03  0.10011027860E+03  0.00000000000E+00 0.  1.
    9000005    1    1    2  502    0  0.49807730664E+02  0.14337942070E+03  0.64492464710E+03  0.77392911093E+03  0.40000000000E+03 0. -1.
   -9000005    1    1    2    0  501 -0.49807730664E+02 -0.14337942070E+03  0.12494839856E+04  0.13207000789E+04  0.40000000000E+03 0. -1.
<mgrwt>
<rscale>  2 0.42782995E+03</rscale>
<asrwt>0</asrwt>
<pdfrwt beam="1">  1        2 0.30684903E+00 0.42782995E+03</pdfrwt>
<pdfrwt beam="2">  1       -2 0.15401583E-01 0.42782995E+03</pdfrwt>
<totfact> 0.23915465E+02</totfact>
</mgrwt>
</event>
<event>
 4    1  0.2318373E-002  0.4174787E+03  0.7818608E-02  0.1037890E+00
         -2   -1    0    0    0  501 -0.00000000000E+00  0.00000000000E+00  0.70080411314E+02  0.70080411314E+02  0.00000000000E+00 0.  1.
          2   -1    0    0  502    0  0.00000000000E+00 -0.00000000000E+00 -0.24875266367E+04  0.24875266367E+04  0.00000000000E+00 0. -1.
    9000005    1    1    2  502    0  0.79110126573E+02  0.89610508607E+02 -0.11897349863E+04  0.12608559763E+04  0.40000000000E+03 0.  1.
   -9000005    1    1    2    0  501 -0.79110126573E+02 -0.89610508607E+02 -0.12277112391E+04  0.12967510717E+04  0.40000000000E+03 0. -1.
<mgrwt>
<rscale>  2 0.41747869E+03</rscale>
<asrwt>0</asrwt>
<pdfrwt beam="1">  1        2 0.38269634E+00 0.41747869E+03</pdfrwt>
<pdfrwt beam="2">  1       -2 0.10781604E-01 0.41747869E+03</pdfrwt>
<totfact> 0.23270597E+02</totfact>
</mgrwt>
</event>
<event>
 4    1  0.2318373E-002  0.5639832E+03  0.7818608E-02  0.9983082E-01
         -2   -1    0    0    0  501 -0.00000000000E+00  0.00000000000E+00  0.11434626747E+03  0.11434626747E+03  0.00000000000E+00 0. -1.
          2   -1    0    0  502    0  0.00000000000E+00 -0.00000000000E+00 -0.30426126813E+04  0.30426126813E+04  0.00000000000E+00 0.  1.
    9000005    1    1    2  502    0 -0.39252214447E+03  0.63272645111E+02 -0.10018981943E+04  0.11497291217E+04  0.40000000000E+03 0. -1.
   -9000005    1    1    2    0  501  0.39252214447E+03 -0.63272645111E+02 -0.19263682195E+04  0.20072298271E+04  0.40000000000E+03 0. -1.
<mgrwt>
<rscale>  2 0.56398321E+03</rscale>
<asrwt>0</asrwt>
<pdfrwt beam="1">  1        2 0.46809419E+00 0.56398321E+03</pdfrwt>
<pdfrwt beam="2">  1       -2 0.17591736E-01 0.56398321E+03</pdfrwt>
<totfact> 0.47657007E+01</totfact>
</mgrwt>
</event>
<event>
 4    1  0.2318373E-002  0.4782789E+03  0.7818608E-02  0.1019609E+00
         -2   -1    0    0    0  501 -0.00000000000E+00  0.00000000000E+00  0.28523734863E+03  0.28523734863E+03  0.00000000000E+00 0.  1.
          2   -1    0    0  502    0  0.00000000000E+00 -0.00000000000E+00 -0.88124889790E+03  0.88124889790E+03  0.00000000000E+00 0. -1.
    9000005    1    1    2  502    0 -0.13880772609E+03 -0.22244797856E+03 -0.12306550973E+03  0.49385808455E+03  0.40000000000E+03 0. -1.
   -9000005    1    1    2    0  501  0.13880772609E+03  0.22244797856E+03 -0.47294603954E+03  0.67262816199E+03  0.40000000000E+03 0. -1.
<mgrwt>
<rscale>  2 0.47827888E+03</rscale>
<asrwt>0</asrwt>
<pdfrwt beam="1">  1        2 0.13557675E+00 0.47827888E+03</pdfrwt>
<pdfrwt beam="2">  1       -2 0.43882669E-01 0.47827888E+03</pdfrwt>
<totfact> 0.15343650E+02</totfact>
</mgrwt>
</event>
<event>
 4    1  0.2318373E-002  0.4210411E+03  0.7818608E-02  0.1036728E+00
          1   -1    0    0  502    0  0.00000000000E+00  0.00000000000E+00  0.60321318886E+03  0.60321318886E+03  0.00000000000E+00 0. -1.
         -1   -1    0    0    0  501 -0.00000000000E+00 -0.00000000000E+00 -0.36274622197E+03  0.36274622197E+03  0.00000000000E+00 0.  1.
    9000005    1    1    2  502    0  0.10247358370E+03 -0.82308848649E+02 -0.90199282675E+02  0.43059434799E+03  0.40000000000E+03 0. -1.
   -9000005    1    1    2    0  501 -0.10247358370E+03  0.82308848649E+02  0.33066624956E+03  0.53536506285E+03  0.40000000000E+03 0.  1.
<mgrwt>
<rscale>  2 0.42104107E+03</rscale>
<asrwt>0</asrwt>
<pdfrwt beam="1">  1        1 0.92802029E-01 0.42104107E+03</pdfrwt>
<pdfrwt beam="2">  1       -1 0.55807111E-01 0.42104107E+03</pdfrwt>
<totfact> 0.11555205E+02</totfact>
</mgrwt>
</event>
<event>
 4    1  0.2318373E-002  0.4675036E+03  0.7818608E-02  0.1022627E+00
          2   -1    0    0  502    0  0.00000000000E+00  0.00000000000E+00  0.24753106291E+04  0.24753106291E+04  0.00000000000E+00 0. -1.
         -2   -1    0    0    0  501 -0.00000000000E+00 -0.00000000000E+00 -0.92778127764E+02  0.92778127764E+02  0.00000000000E+00 0.  1.
    9000005    1    1    2  502    0 -0.16619752657E+02 -0.24141953843E+03  0.14734990743E+04  0.15458845790E+04  0.40000000000E+03 0.  1.
   -9000005    1    1    2    0  501  0.16619752657E+02  0.24141953843E+03  0.90903342702E+03  0.10222041778E+04  0.40000000000E+03 0. -1.
<mgrwt>
<rscale>  2 0.46750359E+03</rscale>
<asrwt>0</asrwt>
<pdfrwt beam="1">  1        2 0.38081697E+00 0.46750359E+03</pdfrwt>
<pdfrwt beam="2">  1       -2 0.14273560E-01 0.46750359E+03</pdfrwt>
<totfact> 0.14774620E+02</totfact>
</mgrwt>
</event>
<event>
 4    1  0.2318373E-002  0.4071357E+03  0.7818608E-02  0.1041336E+00
          4   -1    0    0  502    0  0.00000000000E+00  0.00000000000E+00  0.22027732011E+03  0.22027732011E+03  0.00000000000E+00 0.  1.
         -4   -1    0    0    0  501 -0.00000000000E+00 -0.00000000000E+00 -0.77686641162E+03  0.77686641162E+03  0.00000000000E+00 0. -1.
    9000005    1    1    2  502    0  0.66322817549E+02  0.36888389378E+02 -0.19000310952E+03  0.44928905064E+03  0.40000000000E+03 0.  1.
   -9000005    1    1    2    0  501 -0.66322817549E+02 -0.36888389378E+02 -0.36658598198E+03  0.54785468108E+03  0.40000000000E+03 0. -1.
<mgrwt>
<rscale>  2 0.40713569E+03</rscale>
<asrwt>0</asrwt>
<pdfrwt beam="1">  1        4 0.33888818E-01 0.40713569E+03</pdfrwt>
<pdfrwt beam="2">  1       -4 0.11951791E+00 0.40713569E+03</pdfrwt>
<totfact> 0.87642007E+00</totfact>
</mgrwt>
</event>
<event>
 4    1  0.2318373E-002  0.4655911E+03  0.7818608E-02  0.1023172E+00
          2   -1    0    0  502    0  0.00000000000E+00  0.00000000000E+00  0.41122157110E+03  0.41122157110E+03  0.00000000000E+00 0. -1.
         -2   -1    0    0    0  501 -0.00000000000E+00 -0.00000000000E+00 -0.52724587229E+03  0.52724587229E+03  0.00000000000E+00 0.  1.
    9000005    1    1    2  502    0 -0.23763120438E+03 -0.17505590881E+02 -0.51651382673E+02  0.46844732931E+03  0.40000000000E+03 0.  1.
   -9000005    1    1    2    0  501  0.23763120438E+03  0.17505590881E+02 -0.64372918522E+02  0.47002011408E+03  0.40000000000E+03 0.  1.
<mgrwt>
<rscale>  2 0.46559106E+03</rscale>
<asrwt>0</asrwt>
<pdfrwt beam="1">  1        2 0.63264857E-01 0.46559106E+03</pdfrwt>
<pdfrwt beam="2">  1       -2 0.81114750E-01 0.46559106E+03</pdfrwt>
<totfact> 0.10612456E+02</totfact>
</mgrwt>
</event>
<event>
 4    1  0.2318373E-002  0.4921764E+03  0.7818608E-02  0.1015841E+00
         -1   -1    0    0    0  501 -0.00000000000E+00  0.00000000000E+00  0.14744825923E+03  0.14744825923E+03  0.00000000000E+00 0.  1.
          1   -1    0    0  502    0  0.00000000000E+00 -0.00000000000E+00 -0.16685472051E+04  0.16685472051E+04  0.00000000000E+00 0. -1.
    9000005    1    1    2  502    0  0.11784453312E+03 -0.26143879598E+03 -0.87319969050E+03  0.10023548661E+04  0.40000000000E+03 0. -1.
   -9000005    1    1    2    0  501 -0.11784453312E+03  0.26143879598E+03 -0.64789925532E+03  0.81364059822E+03  0.40000000000E+03 0.  1.
<mgrwt>
<rscale>  2 0.49217637E+03</rscale>
<asrwt>0</asrwt>
<pdfrwt beam="1">  1        1 0.25669955E+00 0.49217637E+03</pdfrwt>
<pdfrwt beam="2">  1       -1 0.22684349E-01 0.49217637E+03</pdfrwt>
<totfact> 0.87610533E+01</totfact>
</mgrwt>
</event>
<event>
 4    1  0.2318373E-002  0.4511882E+03  0.7818608E-02  0.1027368E+00
          1   -1    0    0  502    0  0.00000000000E+00  0.00000000000E+00  0.51925388000E+03  0.51925388000E+03  0.00000000000E+00 0. -1.
         -1   -1    0    0    0  501 -0.00000000000E+00 -0.00000000000E+00 -0.73247352405E+03  0.73247352405E+03  0.00000000000E+00 0.  1.
    9000005    1    1    2  502    0 -0.24483705082E+02 -0.20729528331E+03 -0.53328452431E+03  0.69854360649E+03  0.40000000000E+03 0.  1.
   -9000005    1    1    2    0  501  0.24483705082E+02  0.20729528331E+03  0.32006488027E+03  0.55318379756E+03  0.40000000000E+03 0. -1.
<mgrwt>
<rscale>  2 0.45118819E+03</rscale>
<asrwt>0</asrwt>
<pdfrwt beam="1">  1        1 0.79885213E-01 0.45118819E+03</pdfrwt>
<pdfrwt beam="2">  1       -1 0.11268823E+00 0.45118819E+03</pdfrwt>
<totfact> 0.32193542E+01</totfact>
</mgrwt>
</event>
<event>
 4    1  0.2318373E-002  0.4841885E+03  0.7818608E-02  0.1017990E+00
          2   -1    0    0  502    0  0.00000000000E+00  0.00000000000E+00  0.27818322601E+04  0.27818322601E+04  0.00000000000E+00 0. -1.
         -2   -1    0    0    0  501 -0.00000000000E+00 -0.00000000000E+00 -0.14855224116E+03  0.14855224116E+03  0.00000000000E+00 0.  1.
    9000005    1    1    2  502    0  0.16326815104E+02  0.27234528915E+03  0.35284627340E+03  0.59911519265E+03  0.40000000000E+03 0.  1.
   -9000005    1    1    2    0  501 -0.16326815104E+02 -0.27234528915E+03  0.22804337455E+04  0.23312693086E+04  0.40000000000E+03 0. -1.
<mgrwt>
<rscale>  2 0.48418852E+03</rscale>
<asrwt>0</asrwt>
<pdfrwt beam="1">  1        2 0.42797415E+00 0.48418852E+03</pdfrwt>
<pdfrwt beam="2">  1       -2 0.22854193E-01 0.48418852E+03</pdfrwt>
<totfact> 0.43965268E+01</totfact>
</mgrwt>
</event>
<event>
 4    1  0.2318373E-002  0.4707137E+03  0.7818608E-02  0.1021719E+00
         -4   -1    0    0    0  501 -0.00000000000E+00  0.00000000000E+00  0.24940207058E+03  0.24940207058E+03  0.00000000000E+00 0.  1.
          4   -1    0    0  502    0  0.00000000000E+00 -0.00000000000E+00 -0.10144046306E+04  0.10144046306E+04  0.00000000000E+00 0. -1.
    9000005    1    1    2  502    0 -0.24743746741E+03 -0.18603506521E+02 -0.15980118943E+03  0.49709939738E+03  0.40000000000E+03 0.  1.
   -9000005    1    1    2    0  501  0.24743746741E+03  0.18603506521E+02 -0.60520137059E+03  0.76670730379E+03  0.40000000000E+03 0.  1.
<mgrwt>
<rscale>  2 0.47071370E+03</rscale>
<asrwt>0</asrwt>
<pdfrwt beam="1">  1        4 0.15606225E+00 0.47071370E+03</pdfrwt>
<pdfrwt beam="2">  1       -4 0.38369549E-01 0.47071370E+03</pdfrwt>
<totfact> 0.34785817E+00</totfact>
</mgrwt>
</event>
<event>
 4    1  0.2318373E-002  0.6815743E+03  0.7818608E-02  0.9749272E-01
          2   -1    0    0  502    0  0.00000000000E+00  0.00000000000E+00  0.19664437377E+04  0.19664437377E+04  0.00000000000E+00 0. -1.
         -2   -1    0    0    0  501 -0.00000000000E+00 -0.00000000000E+00 -0.24735783260E+03  0.24735783260E+03  0.00000000000E+00 0.  1.
    9000005    1    1    2  502    0  0.21227595504E+03  0.50939413162E+03  0.62482443843E+03  0.92463454471E+03  0.40000000000E+03 0.  1.
   -9000005    1    1    2    0  501 -0.21227595504E+03 -0.50939413162E+03  0.10942614667E+04  0.12891670256E+04  0.40000000000E+03 0. -1.
<mgrwt>
<rscale>  2 0.68157425E+03</rscale>
<asrwt>0</asrwt>
<pdfrwt beam="1">  1        2 0.30252980E+00 0.68157425E+03</pdfrwt>
<pdfrwt beam="2">  1       -2 0.38055052E-01 0.68157425E+03</pdfrwt>
<totfact> 0.47219282E+01</totfact>
</mgrwt>
</event>
<event>
 4    1  0.2318373E-002  0.4062359E+03  0.7818608E-02  0.1041642E+00
          2   -1    0    0  502    0  0.00000000000E+00  0.00000000000E+00  0.38837051336E+03  0.38837051336E+03  0.00000000000E+00 0. -1.
         -2   -1    0    0    0  501 -0.00000000000E+00 -0.00000000000E+00 -0.44788447728E+03  0.44788447728E+03  0.00000000000E+00 0.  1.
    9000005    1    1    2  502    0 -0.46610709507E+02 -0.53433024222E+02  0.64915469164E+02  0.41138991778E+03  0.40000000000E+03 0. -1.
   -9000005    1    1    2    0  501  0.46610709507E+02  0.53433024222E+02 -0.12442943308E+03  0.42486507286E+03  0.40000000000E+03 0.  1.
<mgrwt>
<rscale>  2 0.40623595E+03</rscale>
<asrwt>0</asrwt>
<pdfrwt beam="1">  1        2 0.59749310E-01 0.40623595E+03</pdfrwt>
<pdfrwt beam="2">  1       -2 0.68905304E-01 0.40623595E+03</pdfrwt>
<totfact> 0.16250113E+02</totfact>
</mgrwt>
</event>
<event>
 4    1  0.2318373E-002  0.4674555E+03  0.7818608E-02  0.1022641E+00
          1   -1    0    0  502    0  0.00000000000E+00  0.00000000000E+00  0.29957531673E+03  0.29957531673E+03  0.00000000000E+00 0.  1.
         -1   -1    0    0    0  501 -0.00000000000E+00 -0.00000000000E+00 -0.85634640984E+03  0.85634640984E+03  0.00000000000E+00 0. -1.
    9000005    1    1    2  502    0  0.23620907419E+03 -0.52152540011E+02 -0.55870746750E+02  0.47078249171E+03  0.40000000000E+03 0.  1.
   -9000005    1    1    2    0  501 -0.23620907419E+03  0.52152540011E+02 -0.50090034636E+03  0.68513923486E+03  0.40000000000E+03 0. -1.
<mgrwt>
<rscale>  2 0.46745547E+03</rscale>
<asrwt>0</asrwt>
<pdfrwt beam="1">  1        1 0.46088511E-01 0.46745547E+03</pdfrwt>
<pdfrwt beam="2">  1       -1 0.13174560E+00 0.46745547E+03</pdfrwt>
<totfact> 0.45239890E+01</totfact>
</mgrwt>
</event>
<event>
 4    1  0.2318373E-002  0.4406103E+03  0.7818608E-02  0.1030560E+00
         -2   -1    0    0    0  501 -0.00000000000E+00  0.00000000000E+00  0.26701610161E+03  0.26701610161E+03  0.00000000000E+00 0.  1.
          2   -1    0    0  502    0  0.00000000000E+00 -0.00000000000E+00 -0.80784361492E+03  0.80784361492E+03  0.00000000000E+00 0. -1.
    9000005    1    1    2  502    0  0.11113990875E+03 -0.14759851776E+03 -0.44036055601E+03  0.62294046349E+03  0.40000000000E+03 0. -1.
   -9000005    1    1    2    0  501 -0.11113990875E+03  0.14759851776E+03 -0.10046695729E+03  0.45191925304E+03  0.40000000000E+03 0.  1.
<mgrwt>
<rscale>  2 0.44061026E+03</rscale>
<asrwt>0</asrwt>
<pdfrwt beam="1">  1        2 0.12428363E+00 0.44061026E+03</pdfrwt>
<pdfrwt beam="2">  1       -2 0.41079401E-01 0.44061026E+03</pdfrwt>
<totfact> 0.19671117E+02</totfact>
</mgrwt>
</event>
<event>
 4    1  0.2318373E-002  0.4132020E+03  0.7818608E-02  0.1039302E+00
          2   -1    0    0  502    0  0.00000000000E+00  0.00000000000E+00  0.18805549891E+04  0.18805549891E+04  0.00000000000E+00 0.  1.
         -2   -1    0    0    0  501 -0.00000000000E+00 -0.00000000000E+00 -0.90801557386E+02  0.90801557386E+02  0.00000000000E+00 0. -1.
    9000005    1    1    2  502    0 -0.88537625871E+02  0.53823700092E+02  0.90591633178E+03  0.99570090994E+03  0.40000000000E+03 0. -1.
   -9000005    1    1    2    0  501  0.88537625871E+02 -0.53823700092E+02  0.88383709993E+03  0.97565563653E+03  0.40000000000E+03 0.  1.
<mgrwt>
<rscale>  2 0.41320201E+03</rscale>
<asrwt>0</asrwt>
<pdfrwt beam="1">  1        2 0.28931612E+00 0.41320201E+03</pdfrwt>
<pdfrwt beam="2">  1       -2 0.13969472E-01 0.41320201E+03</pdfrwt>
<totfact> 0.32453156E+02</totfact>
</mgrwt>
</event>
<event>
 4    1  0.2318373E-002  0.6996265E+03  0.7818608E-02  0.9717871E-01
          1   -1    0    0  502    0  0.00000000000E+00  0.00000000000E+00  0.65454481285E+03  0.65454481285E+03  0.00000000000E+00 0. -1.
         -1   -1    0    0    0  501 -0.00000000000E+00 -0.00000000000E+00 -0.74868477911E+03  0.74868477911E+03  0.00000000000E+00 0.  1.
    9000005    1    1    2  502    0 -0.32368220638E+03 -0.47403281626E+03 -0.71008156324E+02  0.70322076184E+03  0.40000000000E+03 0.  1.
   -9000005    1    1    2    0  501  0.32368220638E+03  0.47403281626E+03 -0.23131809943E+02  0.70000883012E+03  0.40000000000E+03 0. -1.
<mgrwt>
<rscale>  2 0.69962653E+03</rscale>
<asrwt>0</asrwt>
<pdfrwt beam="1">  1        1 0.10069920E+00 0.69962653E+03</pdfrwt>
<pdfrwt beam="2">  1       -1 0.11518227E+00 0.69962653E+03</pdfrwt>
<totfact> 0.21276742E+01</totfact>
</mgrwt>
</event>
<event>
 4    1  0.2318373E-002  0.4004007E+03  0.7818608E-02  0.1043641E+00
         -1   -1    0    0    0  501 -0.00000000000E+00  0.00000000000E+00  0.12814720367E+03  0.12814720367E+03  0.00000000000E+00 0.  1.
          1   -1    0    0  502    0  0.00000000000E+00 -0.00000000000E+00 -0.12537337128E+04  0.12537337128E+04  0.00000000000E+00 0. -1.
    9000005    1    1    2  502    0  0.17572228590E+02  0.34512134185E+01 -0.59466117868E+03  0.71689790872E+03  0.40000000000E+03 0. -1.
   -9000005    1    1    2    0  501 -0.17572228590E+02 -0.34512134185E+01 -0.53092533047E+03  0.66498300778E+03  0.40000000000E+03 0. -1.
<mgrwt>
<rscale>  2 0.40040067E+03</rscale>
<asrwt>0</asrwt>
<pdfrwt beam="1">  1        1 0.19288211E+00 0.40040067E+03</pdfrwt>
<pdfrwt beam="2">  1       -1 0.19714954E-01 0.40040067E+03</pdfrwt>
<totfact> 0.21436694E+02</totfact>
</mgrwt>
</event>
<event>
 4    1  0.2318373E-002  0.6097568E+03  0.7818608E-02  0.9885368E-01
          2   -1    0    0  502    0  0.00000000000E+00  0.00000000000E+00  0.36483503342E+03  0.36483503342E+03  0.00000000000E+00 0.  1.
         -2   -1    0    0    0  501 -0.00000000000E+00 -0.00000000000E+00 -0.15362895420E+04  0.15362895420E+04  0.00000000000E+00 0. -1.
    9000005    1    1    2  502    0  0.25417206237E+03 -0.38366638157E+03 -0.11372570394E+04  0.12904095874E+04  0.40000000000E+03 0. -1.
   -9000005    1    1    2    0  501 -0.25417206237E+03  0.38366638157E+03 -0.34197469138E+02  0.61071498797E+03  0.40000000000E+03 0.  1.
<mgrwt>
<rscale>  2 0.60975678E+03</rscale>
<asrwt>0</asrwt>
<pdfrwt beam="1">  1        2 0.56128467E-01 0.60975678E+03</pdfrwt>
<pdfrwt beam="2">  1       -2 0.23635224E+00 0.60975678E+03</pdfrwt>
<totfact> 0.71820990E+00</totfact>
</mgrwt>
</event>
<event>
 4    1  0.2318373E-002  0.4779370E+03  0.7818608E-02  0.1019704E+00
          1   -1    0    0  502    0  0.00000000000E+00  0.00000000000E+00  0.67195292226E+03  0.67195292226E+03  0.00000000000E+00 0. -1.
         -1   -1    0    0    0  501 -0.00000000000E+00 -0.00000000000E+00 -0.36264911403E+03  0.36264911403E+03  0.00000000000E+00 0.  1.
    9000005    1    1    2  502    0 -0.13810402514E+03  0.22215097811E+03  0.28410089239E+03  0.55600098552E+03  0.40000000000E+03 0. -1.
   -9000005    1    1    2    0  501  0.13810402514E+03 -0.22215097811E+03  0.25202915837E+02  0.47860105078E+03  0.40000000000E+03 0.  1.
<mgrwt>
<rscale>  2 0.47793700E+03</rscale>
<asrwt>0</asrwt>
<pdfrwt beam="1">  1        1 0.10337737E+00 0.47793700E+03</pdfrwt>
<pdfrwt beam="2">  1       -1 0.55792171E-01 0.47793700E+03</pdfrwt>
<totfact> 0.98294773E+01</totfact>
</mgrwt>
</event>
<event>
 4    1  0.2318373E-002  0.4259385E+03  0.7818608E-02  0.1035151E+00
         -2   -1    0    0    0  501 -0.00000000000E+00  0.00000000000E+00  0.82014803879E+02  0.82014803879E+02  0.00000000000E+00 0.  1.
          2   -1    0    0  502    0  0.00000000000E+00 -0.00000000000E+00 -0.25259314976E+04  0.25259314976E+04  0.00000000000E+00 0. -1.
    9000005    1    1    2  502    0 -0.91490676500E+02 -0.11425014231E+03 -0.16815976640E+04  0.17347029551E+04  0.40000000000E+03 0. -1.
   -9000005    1    1    2    0  501  0.91490676500E+02  0.11425014231E+03 -0.76231902975E+03  0.87324334639E+03  0.40000000000E+03 0.  1.
<mgrwt>
<rscale>  2 0.42593854E+03</rscale>
<asrwt>0</asrwt>
<pdfrwt beam="1">  1        2 0.38860476E+00 0.42593854E+03</pdfrwt>
<pdfrwt beam="2">  1       -2 0.12617665E-01 0.42593854E+03</pdfrwt>
<totfact> 0.17110719E+02</totfact>
</mgrwt>
</event>
<event>
 4    1  0.2318373E-002  0.7486566E+03  0.7818608E-02  0.9637460E-01
          1   -1    0    0  502    0  0.00000000000E+00  0.00000000000E+00  0.34098193804E+04  0.34098193804E+04  0.00000000000E+00 0.  1.
         -1   -1    0    0    0  501 -0.00000000000E+00 -0.00000000000E+00 -0.16459993899E+03  0.16459993899E+03  0.00000000000E+00 0. -1.
    9000005    1    1    2  502    0  0.61888153094E+03  0.13218283592E+03  0.15564377542E+04  0.17271320547E+04  0.40000000000E+03 0.  1.
   -9000005    1    1    2    0  501 -0.61888153094E+03 -0.13218283592E+03  0.16887816872E+04  0.18472872647E+04  0.40000000000E+03 0. -1.
<mgrwt>
<rscale>  2 0.74865656E+03</rscale>
<asrwt>0</asrwt>
<pdfrwt beam="1">  1        1 0.52458755E+00 0.74865656E+03</pdfrwt>
<pdfrwt beam="2">  1       -1 0.25323070E-01 0.74865656E+03</pdfrwt>
<totfact> 0.43401591E+00</totfact>
</mgrwt>
</event>
<event>
 4    1  0.2318373E-002  0.5293327E+03  0.7818608E-02  0.1006394E+00
          1   -1    0    0  502    0  0.00000000000E+00  0.00000000000E+00  0.12055113448E+04  0.12055113448E+04  0.00000000000E+00 0.  1.
         -1   -1    0    0    0  501 -0.00000000000E+00 -0.00000000000E+00 -0.27596515446E+03  0.27596515446E+03  0.00000000000E+00 0. -1.
    9000005    1    1    2  502    0  0.25450223731E+03  0.23541817018E+03  0.75899419886E+03  0.92534604206E+03  0.40000000000E+03 0.  1.
   -9000005    1    1    2    0  501 -0.25450223731E+03 -0.23541817018E+03  0.17055199151E+03  0.55613045723E+03  0.40000000000E+03 0. -1.
<mgrwt>
<rscale>  2 0.52933270E+03</rscale>
<asrwt>0</asrwt>
<pdfrwt beam="1">  1        1 0.18546328E+00 0.52933270E+03</pdfrwt>
<pdfrwt beam="2">  1       -1 0.42456178E-01 0.52933270E+03</pdfrwt>
<totfact> 0.60732469E+01</totfact>
</mgrwt>
</event>
<event>
 4    1  0.2318373E-002  0.4726882E+03  0.7818608E-02  0.1021164E+00
         -1   -1    0    0    0  501 -0.00000000000E+00  0.00000000000E+00  0.53048765455E+03  0.53048765455E+03  0.00000000000E+00 0. -1.
          1   -1    0    0  502    0  0.00000000000E+00 -0.00000000000E+00 -0.67513275251E+03  0.67513275251E+03  0.00000000000E+00 0.  1.
    9000005    1    1    2  502    0  0.23096516830E+03  0.10044506934E+03  0.29738396267E+03  0.55845442265E+03  0.40000000000E+03 0. -1.
   -9000005    1    1    2    0  501 -0.23096516830E+03 -0.10044506934E+03 -0.44202906063E+03  0.64716598440E+03  0.40000000000E+03 0.  1.
<mgrwt>
<rscale>  2 0.47268819E+03</rscale>
<asrwt>0</asrwt>
<pdfrwt beam="1">  1        1 0.10386658E+00 0.47268819E+03</pdfrwt>
<pdfrwt beam="2">  1       -1 0.81613486E-01 0.47268819E+03</pdfrwt>
<totfact> 0.45429986E+01</totfact>
</mgrwt>
</event>
<event>
 4    1  0.2318373E-002  0.4067143E+03  0.7818608E-02  0.1041479E+00
          2   -1    0    0  502    0  0.00000000000E+00  0.00000000000E+00  0.89455582098E+03  0.89455582098E+03  0.00000000000E+00 0. -1.
         -2   -1    0    0    0  501 -0.00000000000E+00 -0.00000000000E+00 -0.25781469727E+03  0.25781469727E+03  0.00000000000E+00 0.  1.
    9000005    1    1    2  502    0  0.73127833053E+02 -0.82949843184E+01  0.11982260739E+02  0.40689072403E+03  0.40000000000E+03 0.  1.
   -9000005    1    1    2    0  501 -0.73127833053E+02  0.82949843184E+01  0.62475886296E+03  0.74547979422E+03  0.40000000000E+03 0. -1.
<mgrwt>
<rscale>  2 0.40671426E+03</rscale>
<asrwt>0</asrwt>
<pdfrwt beam="1">  1        2 0.13762397E+00 0.40671426E+03</pdfrwt>
<pdfrwt beam="2">  1       -2 0.39663800E-01 0.40671426E+03</pdfrwt>
<totfact> 0.18435356E+02</totfact>
</mgrwt>
</event>
<event>
 4    1  0.2318373E-002  0.4180671E+03  0.7818608E-02  0.1037697E+00
          2   -1    0    0  502    0  0.00000000000E+00  0.00000000000E+00  0.30753019057E+04  0.30753019057E+04  0.00000000000E+00 0.  1.
         -2   -1    0    0    0  501 -0.00000000000E+00 -0.00000000000E+00 -0.62586880442E+02  0.62586880442E+02  0.00000000000E+00 0. -1.
    9000005    1    1    2  502    0 -0.96664123189E+02 -0.73730237259E+02  0.10306628184E+04  0.11122256721E+04  0.40000000000E+03 0. -1.
   -9000005    1    1    2    0  501  0.96664123189E+02  0.73730237259E+02  0.19820522069E+04  0.20256631140E+04  0.40000000000E+03 0.  1.
<mgrwt>
<rscale>  2 0.41806710E+03</rscale>
<asrwt>0</asrwt>
<pdfrwt beam="1">  1        2 0.47312325E+00 0.41806710E+03</pdfrwt>
<pdfrwt beam="2">  1       -2 0.96287532E-02 0.41806710E+03</pdfrwt>
<totfact> 0.12735144E+02</totfact>
</mgrwt>
</event>
<event>
 4    1  0.2318373E-002  0.4950938E+03  0.7818608E-02  0.1015067E+00
          2   -1    0    0  502    0  0.00000000000E+00  0.00000000000E+00  0.86416308617E+03  0.86416308617E+03  0.00000000000E+00 0.  1.
         -2   -1    0    0    0  501 -0.00000000000E+00 -0.00000000000E+00 -0.30600181538E+03  0.30600181538E+03  0.00000000000E+00 0. -1.
    9000005    1    1    2  502    0 -0.89074127277E+02  0.27781956601E+03  0.12094368132E+03  0.50965212200E+03  0.40000000000E+03 0. -1.
   -9000005    1    1    2    0  501  0.89074127277E+02 -0.27781956601E+03  0.43721758947E+03  0.66051277955E+03  0.40000000000E+03 0.  1.
<mgrwt>
<rscale>  2 0.49509384E+03</rscale>
<asrwt>0</asrwt>
<pdfrwt beam="1">  1        2 0.13294817E+00 0.49509384E+03</pdfrwt>
<pdfrwt beam="2">  1       -2 0.47077203E-01 0.49509384E+03</pdfrwt>
<totfact> 0.13684059E+02</totfact>
</mgrwt>
</event>
<event>
 4    1  0.2318373E-002  0.4174382E+03  0.7818608E-02  0.1037903E+00
          2   -1    0    0  502    0  0.00000000000E+00  0.00000000000E+00  0.31454581045E+03  0.31454581045E+03  0.00000000000E+00 0.  1.
         -2   -1    0    0    0  501 -0.00000000000E+00 -0.00000000000E+00 -0.65148348716E+03  0.65148348716E+03  0.00000000000E+00 0. -1.
    9000005    1    1    2  502    0 -0.11929595072E+03 -0.48130689338E+01 -0.35532191390E+03  0.54818642084E+03  0.40000000000E+03 0. -1.
   -9000005    1    1    2    0  501  0.11929595072E+03  0.48130689338E+01  0.18384237186E+02  0.41784287677E+03  0.40000000000E+03 0.  1.
<mgrwt>
<rscale>  2 0.41743825E+03</rscale>
<asrwt>0</asrwt>
<pdfrwt beam="1">  1        2 0.48391664E-01 0.41743825E+03</pdfrwt>
<pdfrwt beam="2">  1       -2 0.10022823E+00 0.41743825E+03</pdfrwt>
<totfact> 0.88179152E+01</totfact>
</mgrwt>
</event>
<event>
 4    1  0.2318373E-002  0.5835107E+03  0.7818608E-02  0.9940219E-01
         -1   -1    0    0    0  501 -0.00000000000E+00  0.00000000000E+00  0.11663258905E+03  0.11663258905E+03  0.00000000000E+00 0. -1.
          1   -1    0    0  502    0  0.00000000000E+00 -0.00000000000E+00 -0.32221895222E+04  0.32221895222E+04  0.00000000000E+00 0.  1.
    9000005    1    1    2  502    0 -0.28793586550E+02 -0.42385811711E+03 -0.20646187200E+04  0.21454918394E+04  0.40000000000E+03 0.  1.
   -9000005    1    1    2    0  501  0.28793586550E+02  0.42385811711E+03 -0.10409382132E+04  0.11933302719E+04  0.40000000000E+03 0. -1.
<mgrwt>
<rscale>  2 0.58351073E+03</rscale>
<asrwt>0</asrwt>
<pdfrwt beam="1">  1        1 0.49572144E+00 0.58351073E+03</pdfrwt>
<pdfrwt beam="2">  1       -1 0.17943476E-01 0.58351073E+03</pdfrwt>
<totfact> 0.11036701E+01</totfact>
</mgrwt>
</event>
<event>
 4    1  0.2318373E-002  0.4994919E+03  0.7818608E-02  0.1013912E+00
         -1   -1    0    0    0  501 -0.00000000000E+00  0.00000000000E+00  0.66239428813E+03  0.66239428813E+03  0.00000000000E+00 0. -1.
          1   -1    0    0  502    0  0.00000000000E+00 -0.00000000000E+00 -0.72636456583E+03  0.72636456583E+03  0.00000000000E+00 0.  1.
    9000005    1    1    2  502    0  0.17918222127E+03 -0.23955352974E+03 -0.51379436513E+03  0.71657296325E+03  0.40000000000E+03 0.  1.
   -9000005    1    1    2    0  501 -0.17918222127E+03  0.23955352974E+03  0.44982408743E+03  0.67218589070E+03  0.40000000000E+03 0. -1.
<mgrwt>
<rscale>  2 0.49949190E+03</rscale>
<asrwt>0</asrwt>
<pdfrwt beam="1">  1        1 0.11174839E+00 0.49949190E+03</pdfrwt>
<pdfrwt beam="2">  1       -1 0.10190681E+00 0.49949190E+03</pdfrwt>
<totfact> 0.24922857E+01</totfact>
</mgrwt>
</event>
<event>
 4    1  0.2318373E-002  0.4034786E+03  0.7818608E-02  0.1042582E+00
          2   -1    0    0  502    0  0.00000000000E+00  0.00000000000E+00  0.33275357969E+04  0.33275357969E+04  0.00000000000E+00 0.  1.
         -2   -1    0    0    0  501 -0.00000000000E+00 -0.00000000000E+00 -0.67919775919E+02  0.67919775919E+02  0.00000000000E+00 0. -1.
    9000005    1    1    2  502    0 -0.47286305829E+02  0.23642648093E+02  0.73195915216E+03  0.83579852235E+03  0.40000000000E+03 0. -1.
   -9000005    1    1    2    0  501  0.47286305829E+02 -0.23642648093E+02  0.25276568688E+04  0.25596570504E+04  0.40000000000E+03 0.  1.
<mgrwt>
<rscale>  2 0.40347859E+03</rscale>
<asrwt>0</asrwt>
<pdfrwt beam="1">  1        2 0.51192846E+00 0.40347859E+03</pdfrwt>
<pdfrwt beam="2">  1       -2 0.10449199E-01 0.40347859E+03</pdfrwt>
<totfact> 0.77893570E+01</totfact>
</mgrwt>
</event>
<event>
 4    1  0.2318373E-002  0.4844038E+03  0.7818608E-02  0.1017932E+00
         -2   -1    0    0    0  501 -0.00000000000E+00  0.00000000000E+00  0.49268915617E+03  0.49268915617E+03  0.00000000000E+00 0.  1.
          2   -1    0    0  502    0  0.00000000000E+00 -0.00000000000E+00 -0.10385085771E+04  0.10385085771E+04  0.00000000000E+00 0. -1.
    9000005    1    1    2  502    0  0.27274951792E+03 -0.15960155577E+02  0.29041822924E+03  0.56479179701E+03  0.40000000000E+03 0.  1.
   -9000005    1    1    2    0  501 -0.27274951792E+03  0.15960155577E+02 -0.83623765020E+03  0.96640593629E+03  0.40000000000E+03 0. -1.
<mgrwt>
<rscale>  2 0.48440378E+03</rscale>
<asrwt>0</asrwt>
<pdfrwt beam="1">  1        2 0.15977055E+00 0.48440378E+03</pdfrwt>
<pdfrwt beam="2">  1       -2 0.75798332E-01 0.48440378E+03</pdfrwt>
<totfact> 0.38908955E+01</totfact>
</mgrwt>
</event>
<event>
 4    1  0.2318373E-002  0.4599164E+03  0.7818608E-02  0.1024805E+00
         -1   -1    0    0    0  501 -0.00000000000E+00  0.00000000000E+00  0.44650329037E+03  0.44650329037E+03  0.00000000000E+00 0.  1.
          1   -1    0    0  502    0  0.00000000000E+00 -0.00000000000E+00 -0.47773051427E+03  0.47773051427E+03  0.00000000000E+00 0. -1.
    9000005    1    1    2  502    0  0.13411346064E+03  0.18313019086E+03 -0.57888895698E+02  0.46354526356E+03  0.40000000000E+03 0. -1.
   -9000005    1    1    2    0  501 -0.13411346064E+03 -0.18313019086E+03  0.26661671799E+02  0.46068854107E+03  0.40000000000E+03 0.  1.
<mgrwt>
<rscale>  2 0.45991639E+03</rscale>
<asrwt>0</asrwt>
<pdfrwt beam="1">  1        1 0.73497002E-01 0.45991639E+03</pdfrwt>
<pdfrwt beam="2">  1       -1 0.68692814E-01 0.45991639E+03</pdfrwt>
<totfact> 0.10546290E+02</totfact>
</mgrwt>
</event>
<event>
 4    1  0.2318373E-002  0.6190355E+03  0.7818608E-02  0.9866682E-01
         -2   -1    0    0    0  501 -0.00000000000E+00  0.00000000000E+00  0.30850034637E+03  0.30850034637E+03  0.00000000000E+00 0. -1.
          2   -1    0    0  502    0  0.00000000000E+00 -0.00000000000E+00 -0.15480336741E+04  0.15480336741E+04  0.00000000000E+00 0.  1.
    9000005    1    1    2  502    0  0.46094618924E+03  0.10360262731E+03 -0.20713920191E+03  0.65277219819E+03  0.40000000000E+03 0. -1.
   -9000005    1    1    2    0  501 -0.46094618924E+03 -0.10360262731E+03 -0.10323941258E+04  0.12037618223E+04  0.40000000000E+03 0.  1.
<mgrwt>
<rscale>  2 0.61903545E+03</rscale>
<asrwt>0</asrwt>
<pdfrwt beam="1">  1        2 0.23815903E+00 0.61903545E+03</pdfrwt>
<pdfrwt beam="2">  1       -2 0.47461592E-01 0.61903545E+03</pdfrwt>
<totfact> 0.52081981E+01</totfact>
</mgrwt>
</event>
<event>
 4    1  0.2318373E-002  0.5536026E+03  0.7818608E-02  0.1000663E+00
          2   -1    0    0  502    0  0.00000000000E+00  0.00000000000E+00  0.34731312281E+04  0.34731312281E+04  0.00000000000E+00 0. -1.
         -2   -1    0    0    0  501 -0.00000000000E+00 -0.00000000000E+00 -0.89948195517E+02  0.89948195517E+02  0.00000000000E+00 0.  1.
    9000005    1    1    2  502    0 -0.35650031513E+03 -0.13922428970E+03  0.14462224302E+04  0.15485590706E+04  0.40000000000E+03 0.  1.
   -9000005    1    1    2    0  501  0.35650031513E+03  0.13922428970E+03  0.19369606023E+04  0.20145203529E+04  0.40000000000E+03 0. -1.
<mgrwt>
<rscale>  2 0.55360264E+03</rscale>
<asrwt>0</asrwt>
<pdfrwt beam="1">  1        2 0.53432778E+00 0.55360264E+03</pdfrwt>
<pdfrwt beam="2">  1       -2 0.13838187E-01 0.55360264E+03</pdfrwt>
<totfact> 0.37993949E+01</totfact>
</mgrwt>
</event>
<event>
 4    1  0.2318373E-002  0.4177797E+03  0.7818608E-02  0.1037791E+00
          2   -1    0    0  502    0  0.00000000000E+00  0.00000000000E+00  0.11469423171E+04  0.11469423171E+04  0.00000000000E+00 0. -1.
         -2   -1    0    0    0  501 -0.00000000000E+00 -0.00000000000E+00 -0.23319662278E+03  0.23319662278E+03  0.00000000000E+00 0.  1.
    9000005    1    1    2  502    0  0.12018849185E+03 -0.97268568691E+01  0.86361852938E+03  0.95936273099E+03  0.40000000000E+03 0. -1.
   -9000005    1    1    2    0  501 -0.12018849185E+03  0.97268568691E+01  0.50127164961E+02  0.42077620891E+03  0.40000000000E+03 0. -1.
<mgrwt>
<rscale>  2 0.41777971E+03</rscale>
<asrwt>0</asrwt>
<pdfrwt beam="1">  1        2 0.17645266E+00 0.41777971E+03</pdfrwt>
<pdfrwt beam="2">  1       -2 0.35876404E-01 0.41777971E+03</pdfrwt>
<totfact> 0.15548056E+02</totfact>
</mgrwt>
</event>
<event>
 4    1  0.2318373E-002  0.4912576E+03  0.7818608E-02  0.1016086E+00
         -2   -1    0    0    0  501 -0.00000000000E+00  0.00000000000E+00  0.14442479195E+03  0.14442479195E+03  0.00000000000E+00 0.  1.
          2   -1    0    0  502    0  0.00000000000E+00 -0.00000000000E+00 -0.16727927068E+04  0.16727927068E+04  0.00000000000E+00 0. -1.
    9000005    1    1    2  502    0  0.28470712050E+03  0.16610665758E+02 -0.73445248679E+03  0.88360314284E+03  0.40000000000E+03 0.  1.
   -9000005    1    1    2    0  501 -0.28470712050E+03 -0.16610665758E+02 -0.79391542809E+03  0.93361435595E+03  0.40000000000E+03 0.  1.
<mgrwt>
<rscale>  2 0.49125763E+03</rscale>
<asrwt>0</asrwt>
<pdfrwt beam="1">  1        2 0.25735271E+00 0.49125763E+03</pdfrwt>
<pdfrwt beam="2">  1       -2 0.22219200E-01 0.49125763E+03</pdfrwt>
<totfact> 0.18793107E+02</totfact>
</mgrwt>
</event>
<event>
 4    1  0.2318373E-002  0.4141228E+03  0.7818608E-02  0.1038996E+00
         -2   -1    0    0    0  501 -0.00000000000E+00  0.00000000000E+00  0.64630576787E+02  0.64630576787E+02  0.00000000000E+00 0.  1.
          2   -1    0    0  502    0  0.00000000000E+00 -0.00000000000E+00 -0.30855903096E+04  0.30855903096E+04  0.00000000000E+00 0. -1.
    9000005    1    1    2  502    0 -0.33143614809E+02  0.10197651162E+03 -0.92105905185E+03  0.10098749849E+04  0.40000000000E+03 0. -1.
   -9000005    1    1    2    0  501  0.33143614809E+02 -0.10197651162E+03 -0.20999006810E+04  0.21403459015E+04  0.40000000000E+03 0. -1.
<mgrwt>
<rscale>  2 0.41412282E+03</rscale>
<asrwt>0</asrwt>
<pdfrwt beam="1">  1        2 0.47470619E+00 0.41412282E+03</pdfrwt>
<pdfrwt beam="2">  1       -2 0.99431658E-02 0.41412282E+03</pdfrwt>
<totfact> 0.11930913E+02</totfact>
</mgrwt>
</event>
<event>
 4    1  0.2318373E-002  0.7108790E+03  0.7818608E-02  0.9698806E-01
         -2   -1    0    0    0  501 -0.00000000000E+00  0.00000000000E+00  0.35634526882E+03  0.35634526882E+03  0.00000000000E+00 0.  1.
          2   -1    0    0  502    0  0.00000000000E+00 -0.00000000000E+00 -0.15922450318E+04  0.15922450318E+04  0.00000000000E+00 0. -1.
    9000005    1    1    2  502    0 -0.57068072901E+03  0.14025838993E+03 -0.94012073145E+03  0.11786330642E+04  0.40000000000E+03 0. -1.
   -9000005    1    1    2    0  501  0.57068072901E+03 -0.14025838993E+03 -0.29577903159E+03  0.76995723643E+03  0.40000000000E+03 0.  1.
<mgrwt>
<rscale>  2 0.71087897E+03</rscale>
<asrwt>0</asrwt>
<pdfrwt beam="1">  1        2 0.24496077E+00 0.71087897E+03</pdfrwt>
<pdfrwt beam="2">  1       -2 0.54822351E-01 0.71087897E+03</pdfrwt>
<totfact> 0.36278377E+01</totfact>
</mgrwt>
</event>
<event>
 4    1  0.2318373E-002  0.4104124E+03  0.7818608E-02  0.1040233E+00
          2   -1    0    0  502    0  0.00000000000E+00  0.00000000000E+00  0.38011948397E+03  0.38011948397E+03  0.00000000000E+00 0.  1.
         -2   -1    0    0    0  501 -0.00000000000E+00 -0.00000000000E+00 -0.46446891068E+03  0.46446891068E+03  0.00000000000E+00 0. -1.
    9000005    1    1    2  502    0  0.84707066651E+02 -0.35539709576E+02  0.48363030932E+02  0.41325215167E+03  0.40000000000E+03 0.  1.
   -9000005    1    1    2    0  501 -0.84707066651E+02  0.35539709576E+02 -0.13271245764E+03  0.43133624298E+03  0.40000000000E+03 0.  1.
<mgrwt>
<rscale>  2 0.41041242E+03</rscale>
<asrwt>0</asrwt>
<pdfrwt beam="1">  1        2 0.58479920E-01 0.41041242E+03</pdfrwt>
<pdfrwt beam="2">  1       -2 0.71456756E-01 0.41041242E+03</pdfrwt>
<totfact> 0.15376431E+02</totfact>
</mgrwt>
</event>
<event>
 4    1  0.2318373E-002  0.5341202E+03  0.7818608E-02  0.1005238E+00
         -4   -1    0    0    0  501 -0.00000000000E+00  0.00000000000E+00  0.15737892904E+04  0.15737892904E+04  0.00000000000E+00 0.  1.
          4   -1    0    0  502    0  0.00000000000E+00 -0.00000000000E+00 -0.18861707770E+03  0.18861707770E+03  0.00000000000E+00 0. -1.
    9000005    1    1    2  502    0  0.13359199420E+03 -0.32777671090E+03  0.86647630009E+03  0.10178730627E+04  0.40000000000E+03 0. -1.
   -9000005    1    1    2    0  501 -0.13359199420E+03  0.32777671090E+03  0.51869591260E+03  0.74453330542E+03  0.40000000000E+03 0.  1.
<mgrwt>
<rscale>  2 0.53412020E+03</rscale>
<asrwt>0</asrwt>
<pdfrwt beam="1">  1        4 0.29018013E-01 0.53412020E+03</pdfrwt>
<pdfrwt beam="2">  1       -4 0.24212142E+00 0.53412020E+03</pdfrwt>
<totfact> 0.16325597E+00</totfact>
</mgrwt>
</event>
<event>
 4    1  0.2318373E-002  0.5405044E+03  0.7818608E-02  0.1003716E+00
         -2   -1    0    0    0  501 -0.00000000000E+00  0.00000000000E+00  0.11353587658E+03  0.11353587658E+03  0.00000000000E+00 0. -1.
          2   -1    0    0  502    0  0.00000000000E+00 -0.00000000000E+00 -0.31853536928E+04  0.31853536928E+04  0.00000000000E+00 0.  1.
    9000005    1    1    2  502    0 -0.35565715896E+03 -0.75186101883E+02 -0.22590225197E+04  0.23227844733E+04  0.40000000000E+03 0. -1.
   -9000005    1    1    2    0  501  0.35565715896E+03  0.75186101883E+02 -0.81279529650E+03  0.97610509611E+03  0.40000000000E+03 0. -1.
<mgrwt>
<rscale>  2 0.54050436E+03</rscale>
<asrwt>0</asrwt>
<pdfrwt beam="1">  1        2 0.49005439E+00 0.54050436E+03</pdfrwt>
<pdfrwt beam="2">  1       -2 0.17467059E-01 0.54050436E+03</pdfrwt>
<totfact> 0.39541253E+01</totfact>
</mgrwt>
</event>
<event>
 4    1  0.2318373E-002  0.4574420E+03  0.7818608E-02  0.1025526E+00
         -2   -1    0    0    0  501 -0.00000000000E+00  0.00000000000E+00  0.43749017916E+03  0.43749017916E+03  0.00000000000E+00 0. -1.
          2   -1    0    0  502    0  0.00000000000E+00 -0.00000000000E+00 -0.54983677484E+03  0.54983677484E+03  0.00000000000E+00 0.  1.
    9000005    1    1    2  502    0 -0.83944757104E+02  0.20544202987E+03  0.12188724870E+03  0.47340220878E+03  0.40000000000E+03 0. -1.
   -9000005    1    1    2    0  501  0.83944757104E+02 -0.20544202987E+03 -0.23423384438E+03  0.51392474521E+03  0.40000000000E+03 0.  1.
<mgrwt>
<rscale>  2 0.45744196E+03</rscale>
<asrwt>0</asrwt>
<pdfrwt beam="1">  1        2 0.84590272E-01 0.45744196E+03</pdfrwt>
<pdfrwt beam="2">  1       -2 0.67306182E-01 0.45744196E+03</pdfrwt>
<totfact> 0.11493151E+02</totfact>
</mgrwt>
</event>
<event>
 4    1  0.2318373E-002  0.5301342E+03  0.7818608E-02  0.1006200E+00
         -2   -1    0    0    0  501 -0.00000000000E+00  0.00000000000E+00  0.26746478739E+03  0.26746478739E+03  0.00000000000E+00 0.  1.
          2   -1    0    0  502    0  0.00000000000E+00 -0.00000000000E+00 -0.10622444048E+04  0.10622444048E+04  0.00000000000E+00 0. -1.
    9000005    1    1    2  502    0  0.73688742087E+01 -0.34783329719E+03 -0.46650886197E+03  0.70616770051E+03  0.40000000000E+03 0. -1.
   -9000005    1    1    2    0  501 -0.73688742087E+01  0.34783329719E+03 -0.32827075540E+03  0.62354149164E+03  0.40000000000E+03 0.  1.
<mgrwt>
<rscale>  2 0.53013423E+03</rscale>
<asrwt>0</asrwt>
<pdfrwt beam="1">  1        2 0.16342221E+00 0.53013423E+03</pdfrwt>
<pdfrwt beam="2">  1       -2 0.41148429E-01 0.53013423E+03</pdfrwt>
<totfact> 0.13268124E+02</totfact>
</mgrwt>
</event>
<event>
 4    1  0.2318373E-002  0.5838890E+03  0.7818608E-02  0.9939407E-01
         -2   -1    0    0    0  501 -0.00000000000E+00  0.00000000000E+00  0.16874564532E+03  0.16874564532E+03  0.00000000000E+00 0.  1.
          2   -1    0    0  502    0  0.00000000000E+00 -0.00000000000E+00 -0.21826689637E+04  0.21826689637E+04  0.00000000000E+00 0. -1.
    9000005    1    1    2  502    0  0.15449578396E+03  0.39630468615E+03 -0.68634853735E+03  0.90111079576E+03  0.40000000000E+03 0.  1.
   -9000005    1    1    2    0  501 -0.15449578396E+03 -0.39630468615E+03 -0.13275747811E+04  0.14503038133E+04  0.40000000000E+03 0.  1.
<mgrwt>
<rscale>  2 0.58388899E+03</rscale>
<asrwt>0</asrwt>
<pdfrwt beam="1">  1        2 0.33579523E+00 0.58388899E+03</pdfrwt>
<pdfrwt beam="2">  1       -2 0.25960868E-01 0.58388899E+03</pdfrwt>
<totfact> 0.74530285E+01</totfact>
</mgrwt>
</event>
<event>
 4    1  0.2318373E-002  0.4101304E+03  0.7818608E-02  0.1040327E+00
          1   -1    0    0  502    0  0.00000000000E+00  0.00000000000E+00  0.19833878102E+03  0.19833878102E+03  0.00000000000E+00 0. -1.
         -1   -1    0    0    0  501 -0.00000000000E+00 -0.00000000000E+00 -0.97237455089E+03  0.97237455089E+03  0.00000000000E+00 0.  1.
    9000005    1    1    2  502    0  0.63550051321E+02  0.64562756075E+02 -0.17773604828E+03  0.44698664561E+03  0.40000000000E+03 0. -1.
   -9000005    1    1    2    0  501 -0.63550051321E+02 -0.64562756075E+02 -0.59629972159E+03  0.72372668630E+03  0.40000000000E+03 0.  1.
<mgrwt>
<rscale>  2 0.41013042E+03</rscale>
<asrwt>0</asrwt>
<pdfrwt beam="1">  1        1 0.30513659E-01 0.41013042E+03</pdfrwt>
<pdfrwt beam="2">  1       -1 0.14959608E+00 0.41013042E+03</pdfrwt>
<totfact> 0.55667721E+01</totfact>
</mgrwt>
</event>
<event>
 4    1  0.2318373E-002  0.6249725E+03  0.7818608E-02  0.9854909E-01
          2   -1    0    0  502    0  0.00000000000E+00  0.00000000000E+00  0.26900279317E+03  0.26900279317E+03  0.00000000000E+00 0. -1.
         -2   -1    0    0    0  501 -0.00000000000E+00 -0.00000000000E+00 -0.15207367622E+04  0.15207367622E+04  0.00000000000E+00 0.  1.
    9000005    1    1    2  502    0 -0.45348453290E+03  0.15793144796E+03 -0.81612583716E+03  0.10279357694E+04  0.40000000000E+03 0. -1.
   -9000005    1    1    2    0  501  0.45348453290E+03 -0.15793144796E+03 -0.43560813188E+03  0.76180378602E+03  0.40000000000E+03 0. -1.
<mgrwt>
<rscale>  2 0.62497245E+03</rscale>
<asrwt>0</asrwt>
<pdfrwt beam="1">  1        2 0.41385045E-01 0.62497245E+03</pdfrwt>
<pdfrwt beam="2">  1       -2 0.23395950E+00 0.62497245E+03</pdfrwt>
<totfact> 0.10392449E+01</totfact>
</mgrwt>
</event>
<event>
 4    1  0.2318373E-002  0.4070221E+03  0.7818608E-02  0.1041375E+00
         -1   -1    0    0    0  501 -0.00000000000E+00  0.00000000000E+00  0.92818027610E+03  0.92818027610E+03  0.00000000000E+00 0. -1.
          1   -1    0    0  502    0  0.00000000000E+00 -0.00000000000E+00 -0.28104897426E+03  0.28104897426E+03  0.00000000000E+00 0.  1.
    9000005    1    1    2  502    0  0.43204824005E+02 -0.61646728636E+02 -0.41678630944E+02  0.40915044207E+03  0.40000000000E+03 0.  1.
   -9000005    1    1    2    0  501 -0.43204824005E+02  0.61646728636E+02  0.68880993279E+03  0.80007880829E+03  0.40000000000E+03 0. -1.
<mgrwt>
<rscale>  2 0.40702208E+03</rscale>
<asrwt>0</asrwt>
<pdfrwt beam="1">  1        1 0.43238304E-01 0.40702208E+03</pdfrwt>
<pdfrwt beam="2">  1       -1 0.14279696E+00 0.40702208E+03</pdfrwt>
<totfact> 0.40316843E+01</totfact>
</mgrwt>
</event>
<event>
 4    1  0.2318373E-002  0.4309508E+03  0.7818608E-02  0.1033560E+00
          2   -1    0    0  502    0  0.00000000000E+00  0.00000000000E+00  0.70484145718E+03  0.70484145718E+03  0.00000000000E+00 0. -1.
         -2   -1    0    0    0  501 -0.00000000000E+00 -0.00000000000E+00 -0.26823944769E+03  0.26823944769E+03  0.00000000000E+00 0.  1.
    9000005    1    1    2  502    0 -0.13496300474E+03  0.86623009634E+02  0.15355890476E+03  0.45749196242E+03  0.40000000000E+03 0.  1.
   -9000005    1    1    2    0  501  0.13496300474E+03 -0.86623009634E+02  0.28304310472E+03  0.51558894245E+03  0.40000000000E+03 0. -1.
<mgrwt>
<rscale>  2 0.43095076E+03</rscale>
<asrwt>0</asrwt>
<pdfrwt beam="1">  1        2 0.10843715E+00 0.43095076E+03</pdfrwt>
<pdfrwt beam="2">  1       -2 0.41267608E-01 0.43095076E+03</pdfrwt>
<totfact> 0.23213229E+02</totfact>
</mgrwt>
</event>
<event>
 4    1  0.2318373E-002  0.4572159E+03  0.7818608E-02  0.1025592E+00
         -1   -1    0    0    0  501 -0.00000000000E+00  0.00000000000E+00  0.45652778295E+03  0.45652778295E+03  0.00000000000E+00 0.  1.
          1   -1    0    0  502    0  0.00000000000E+00 -0.00000000000E+00 -0.71193821071E+03  0.71193821071E+03  0.00000000000E+00 0. -1.
    9000005    1    1    2  502    0 -0.73009227293E+02 -0.20908371498E+03  0.22128254409E+03  0.50794912290E+03  0.40000000000E+03 0.  1.
   -9000005    1    1    2    0  501  0.73009227293E+02  0.20908371498E+03 -0.47669297185E+03  0.66051687076E+03  0.40000000000E+03 0. -1.
<mgrwt>
<rscale>  2 0.45721586E+03</rscale>
<asrwt>0</asrwt>
<pdfrwt beam="1">  1        1 0.10952895E+00 0.45721586E+03</pdfrwt>
<pdfrwt beam="2">  1       -1 0.70235044E-01 0.45721586E+03</pdfrwt>
<totfact> 0.57427422E+01</totfact>
</mgrwt>
</event>
<event>
 4    1  0.2318373E-002  0.4621391E+03  0.7818608E-02  0.1024163E+00
          2   -1    0    0  502    0  0.00000000000E+00  0.00000000000E+00  0.28882541730E+03  0.28882541730E+03  0.00000000000E+00 0.  1.
         -2   -1    0    0    0  501 -0.00000000000E+00 -0.00000000000E+00 -0.93372230143E+03  0.93372230143E+03  0.00000000000E+00 0. -1.
    9000005    1    1    2  502    0 -0.11759368790E+03 -0.19935968667E+03 -0.43624503161E+02  0.46419355594E+03  0.40000000000E+03 0.  1.
   -9000005    1    1    2    0  501  0.11759368790E+03  0.19935968667E+03 -0.60127238097E+03  0.75835416279E+03  0.40000000000E+03 0. -1.
<mgrwt>
<rscale>  2 0.46213911E+03</rscale>
<asrwt>0</asrwt>
<pdfrwt beam="1">  1        2 0.44434679E-01 0.46213911E+03</pdfrwt>
<pdfrwt beam="2">  1       -2 0.14364959E+00 0.46213911E+03</pdfrwt>
<totfact> 0.39797127E+01</totfact>
</mgrwt>
</event>
<event>
 4    1  0.2318373E-002  0.6372420E+03  0.7818608E-02  0.9831018E-01
          2   -1    0    0  502    0  0.00000000000E+00  0.00000000000E+00  0.22072608721E+03  0.22072608721E+03  0.00000000000E+00 0. -1.
         -2   -1    0    0    0  501 -0.00000000000E+00 -0.00000000000E+00 -0.18432364134E+04  0.18432364134E+04  0.00000000000E+00 0.  1.
    9000005    1    1    2  502    0 -0.48217143586E+03  0.11656811004E+03 -0.85623608209E+03  0.10673413916E+04  0.40000000000E+03 0.  1.
   -9000005    1    1    2    0  501  0.48217143586E+03 -0.11656811004E+03 -0.76627424405E+03  0.99662110901E+03  0.40000000000E+03 0. -1.
<mgrwt>
<rscale>  2 0.63724204E+03</rscale>
<asrwt>0</asrwt>
<pdfrwt beam="1">  1        2 0.33957859E-01 0.63724204E+03</pdfrwt>
<pdfrwt beam="2">  1       -2 0.28357484E+00 0.63724204E+03</pdfrwt>
<totfact> 0.65047820E+00</totfact>
</mgrwt>
</event>
<event>
 4    1  0.2318373E-002  0.4412966E+03  0.7818608E-02  0.1030350E+00
          2   -1    0    0  502    0  0.00000000000E+00  0.00000000000E+00  0.23251390700E+04  0.23251390700E+04  0.00000000000E+00 0.  1.
         -2   -1    0    0    0  501 -0.00000000000E+00 -0.00000000000E+00 -0.84291351535E+02  0.84291351535E+02  0.00000000000E+00 0. -1.
    9000005    1    1    2  502    0 -0.18464586656E+03  0.25468018029E+02  0.10243518400E+04  0.11153651456E+04  0.40000000000E+03 0. -1.
   -9000005    1    1    2    0  501  0.18464586656E+03 -0.25468018029E+02  0.12164958785E+04  0.12940652760E+04  0.40000000000E+03 0.  1.
<mgrwt>
<rscale>  2 0.44129663E+03</rscale>
<asrwt>0</asrwt>
<pdfrwt beam="1">  1        2 0.35771365E+00 0.44129663E+03</pdfrwt>
<pdfrwt beam="2">  1       -2 0.12967902E-01 0.44129663E+03</pdfrwt>
<totfact> 0.21060307E+02</totfact>
</mgrwt>
</event>
<event>
 4    1  0.2318373E-002  0.4078259E+03  0.7818608E-02  0.1041103E+00
         -1   -1    0    0    0  501 -0.00000000000E+00  0.00000000000E+00  0.45790840999E+03  0.45790840999E+03  0.00000000000E+00 0. -1.
          1   -1    0    0  502    0  0.00000000000E+00 -0.00000000000E+00 -0.37387174993E+03  0.37387174993E+03  0.00000000000E+00 0.  1.
    9000005    1    1    2  502    0  0.59262719535E+02 -0.53008467614E+02 -0.28176733918E+02  0.40879811142E+03  0.40000000000E+03 0.  1.
   -9000005    1    1    2    0  501 -0.59262719535E+02  0.53008467614E+02  0.11221339398E+03  0.42298204850E+03  0.40000000000E+03 0. -1.
<mgrwt>
<rscale>  2 0.40782590E+03</rscale>
<asrwt>0</asrwt>
<pdfrwt beam="1">  1        1 0.57518731E-01 0.40782590E+03</pdfrwt>
<pdfrwt beam="2">  1       -1 0.70447447E-01 0.40782590E+03</pdfrwt>
<totfact> 0.13914991E+02</totfact>
</mgrwt>
</event>
<event>
 4    1  0.2318373E-002  0.5847332E+03  0.7818608E-02  0.9937596E-01
          2   -1    0    0  502    0  0.00000000000E+00  0.00000000000E+00  0.54261310871E+03  0.54261310871E+03  0.00000000000E+00 0.  1.
         -2   -1    0    0    0  501 -0.00000000000E+00 -0.00000000000E+00 -0.63250006615E+03  0.63250006615E+03  0.00000000000E+00 0. -1.
    9000005    1    1    2  502    0  0.39325600737E+03 -0.16511409525E+03 -0.89231106207E+01  0.58480131129E+03  0.40000000000E+03 0.  1.
   -9000005    1    1    2    0  501 -0.39325600737E+03  0.16511409525E+03 -0.80963846824E+02  0.59031186357E+03  0.40000000000E+03 0. -1.
<mgrwt>
<rscale>  2 0.58473323E+03</rscale>
<asrwt>0</asrwt>
<pdfrwt beam="1">  1        2 0.83478940E-01 0.58473323E+03</pdfrwt>
<pdfrwt beam="2">  1       -2 0.97307702E-01 0.58473323E+03</pdfrwt>
<totfact> 0.50512093E+01</totfact>
</mgrwt>
</event>
<event>
 4    1  0.2318373E-002  0.5562653E+03  0.7818608E-02  0.1000054E+00
          2   -1    0    0  502    0  0.00000000000E+00  0.00000000000E+00  0.14359397806E+03  0.14359397806E+03  0.00000000000E+00 0.  1.
         -2   -1    0    0    0  501 -0.00000000000E+00 -0.00000000000E+00 -0.23179589905E+04  0.23179589905E+04  0.00000000000E+00 0. -1.
    9000005    1    1    2  502    0  0.92492710686E+02  0.37533476964E+03 -0.14136160094E+04  0.15191251801E+04  0.40000000000E+03 0.  1.
   -9000005    1    1    2    0  501 -0.92492710686E+02 -0.37533476964E+03 -0.76074900309E+03  0.94242778850E+03  0.40000000000E+03 0. -1.
<mgrwt>
<rscale>  2 0.55626531E+03</rscale>
<asrwt>0</asrwt>
<pdfrwt beam="1">  1        2 0.22091382E-01 0.55626531E+03</pdfrwt>
<pdfrwt beam="2">  1       -2 0.35660907E+00 0.55626531E+03</pdfrwt>
<totfact> 0.38787915E+00</totfact>
</mgrwt>
</event>
<event>
 4    1  0.2318373E-002  0.4676004E+03  0.7818608E-02  0.1022600E+00
          4   -1    0    0  502    0  0.00000000000E+00  0.00000000000E+00  0.20672762614E+03  0.20672762614E+03  0.00000000000E+00 0. -1.
         -4   -1    0    0    0  501 -0.00000000000E+00 -0.00000000000E+00 -0.11083146661E+04  0.11083146661E+04  0.00000000000E+00 0.  1.
    9000005    1    1    2  502    0 -0.20485206400E+03 -0.12917343152E+03 -0.59134451987E+03  0.75388227511E+03  0.40000000000E+03 0. -1.
   -9000005    1    1    2    0  501  0.20485206400E+03  0.12917343152E+03 -0.31024252005E+03  0.56116001709E+03  0.40000000000E+03 0. -1.
<mgrwt>
<rscale>  2 0.46760041E+03</rscale>
<asrwt>0</asrwt>
<pdfrwt beam="1">  1        4 0.31804250E-01 0.46760041E+03</pdfrwt>
<pdfrwt beam="2">  1       -4 0.17050995E+00 0.46760041E+03</pdfrwt>
<totfact> 0.39595525E+00</totfact>
</mgrwt>
</event>
<event>
 4    1  0.2318373E-002  0.4199961E+03  0.7818608E-02  0.1037068E+00
         -2   -1    0    0    0  501 -0.00000000000E+00  0.00000000000E+00  0.11227094698E+04  0.11227094698E+04  0.00000000000E+00 0. -1.
          2   -1    0    0  502    0  0.00000000000E+00 -0.00000000000E+00 -0.20508593282E+03  0.20508593282E+03  0.00000000000E+00 0.  1.
    9000005    1    1    2  502    0 -0.91856977606E+02  0.89213314922E+02  0.13773169528E+03  0.44200309929E+03  0.40000000000E+03 0.  1.
   -9000005    1    1    2    0  501  0.91856977606E+02 -0.89213314922E+02  0.77989184175E+03  0.88579230338E+03  0.40000000000E+03 0. -1.
<mgrwt>
<rscale>  2 0.41999610E+03</rscale>
<asrwt>0</asrwt>
<pdfrwt beam="1">  1        2 0.31551683E-01 0.41999610E+03</pdfrwt>
<pdfrwt beam="2">  1       -2 0.17272453E+00 0.41999610E+03</pdfrwt>
<totfact> 0.35684230E+01</totfact>
</mgrwt>
</event>
<event>
 4    1  0.2318373E-002  0.4213200E+03  0.7818608E-02  0.1036638E+00
          2   -1    0    0  502    0  0.00000000000E+00  0.00000000000E+00  0.12057836933E+04  0.12057836933E+04  0.00000000000E+00 0.  1.
         -2   -1    0    0    0  501 -0.00000000000E+00 -0.00000000000E+00 -0.18588920266E+03  0.18588920266E+03  0.00000000000E+00 0. -1.
    9000005    1    1    2  502    0 -0.12478293397E+03 -0.44042854840E+02  0.19256281408E+03  0.46323966911E+03  0.40000000000E+03 0. -1.
   -9000005    1    1    2    0  501  0.12478293397E+03  0.44042854840E+02  0.82733167656E+03  0.92843322685E+03  0.40000000000E+03 0.  1.
<mgrwt>
<rscale>  2 0.42132001E+03</rscale>
<asrwt>0</asrwt>
<pdfrwt beam="1">  1        2 0.18550518E+00 0.42132001E+03</pdfrwt>
<pdfrwt beam="2">  1       -2 0.28598340E-01 0.42132001E+03</pdfrwt>
<totfact> 0.21883964E+02</totfact>
</mgrwt>
</event>
<event>
 4    1  0.2318373E-002  0.4715788E+03  0.7818608E-02  0.1021476E+00
          2   -1    0    0  502    0  0.00000000000E+00  0.00000000000E+00  0.23300814987E+04  0.23300814987E+04  0.00000000000E+00 0.  1.
         -2   -1    0    0    0  501 -0.00000000000E+00 -0.00000000000E+00 -0.10929094170E+03  0.10929094170E+03  0.00000000000E+00 0. -1.
    9000005    1    1    2  502    0 -0.14197773777E+03 -0.20549669572E+03  0.15445769800E+04  0.16149627294E+04  0.40000000000E+03 0.  1.
   -9000005    1    1    2    0  501  0.14197773777E+03  0.20549669572E+03  0.67621357698E+03  0.82440971105E+03  0.40000000000E+03 0. -1.
<mgrwt>
<rscale>  2 0.47157881E+03</rscale>
<asrwt>0</asrwt>
<pdfrwt beam="1">  1        2 0.35847404E+00 0.47157881E+03</pdfrwt>
<pdfrwt beam="2">  1       -2 0.16813993E-01 0.47157881E+03</pdfrwt>
<totfact> 0.13480706E+02</totfact>
</mgrwt>
</event>
<event>
 4    1  0.2318373E-002  0.1072017E+04  0.7818608E-02  0.9232904E-01
          2   -1    0    0  502    0  0.00000000000E+00  0.00000000000E+00  0.11353344175E+04  0.11353344175E+04  0.00000000000E+00 0.  1.
         -2   -1    0    0    0  501 -0.00000000000E+00 -0.00000000000E+00 -0.10994707567E+04  0.10994707567E+04  0.00000000000E+00 0. -1.
    9000005    1    1    2  502    0 -0.58799591670E+02 -0.99285576872E+03 -0.29682607005E+03  0.11123514217E+04  0.40000000000E+03 0. -1.
   -9000005    1    1    2    0  501  0.58799591670E+02  0.99285576872E+03  0.33268973087E+03  0.11224537525E+04  0.40000000000E+03 0.  1.
<mgrwt>
<rscale>  2 0.10720168E+04</rscale>
<asrwt>0</asrwt>
<pdfrwt beam="1">  1        2 0.17466683E+00 0.10720168E+04</pdfrwt>
<pdfrwt beam="2">  1       -2 0.16914935E+00 0.10720168E+04</pdfrwt>
<totfact> 0.44069065E+00</totfact>
</mgrwt>
</event>
<event>
 4    1  0.2318373E-002  0.4050637E+03  0.7818608E-02  0.1042040E+00
          1   -1    0    0  502    0  0.00000000000E+00  0.00000000000E+00  0.25938895651E+03  0.25938895651E+03  0.00000000000E+00 0. -1.
         -1   -1    0    0    0  501 -0.00000000000E+00 -0.00000000000E+00 -0.77352034870E+03  0.77352034870E+03  0.00000000000E+00 0.  1.
    9000005    1    1    2  502    0  0.56663912491E+02 -0.29424065424E+02 -0.47754086008E+03  0.62619633315E+03  0.40000000000E+03 0.  1.
   -9000005    1    1    2    0  501 -0.56663912491E+02  0.29424065424E+02 -0.36590532110E+02  0.40671297206E+03  0.40000000000E+03 0. -1.
<mgrwt>
<rscale>  2 0.40506367E+03</rscale>
<asrwt>0</asrwt>
<pdfrwt beam="1">  1        1 0.39905994E-01 0.40506367E+03</pdfrwt>
<pdfrwt beam="2">  1       -1 0.11900313E+00 0.40506367E+03</pdfrwt>
<totfact> 0.70369052E+01</totfact>
</mgrwt>
</event>
<event>
 4    1  0.2318373E-002  0.7624367E+03  0.7818608E-02  0.9616039E-01
         -2   -1    0    0    0  501 -0.00000000000E+00  0.00000000000E+00  0.89715313977E+03  0.89715313977E+03  0.00000000000E+00 0.  1.
          2   -1    0    0  502    0  0.00000000000E+00 -0.00000000000E+00 -0.75158626374E+03  0.75158626374E+03  0.00000000000E+00 0. -1.
    9000005    1    1    2  502    0 -0.34723952801E+03  0.54839255094E+03 -0.23333543557E+03  0.79734252692E+03  0.40000000000E+03 0.  1.
   -9000005    1    1    2    0  501  0.34723952801E+03 -0.54839255094E+03  0.37890231160E+03  0.85139687660E+03  0.40000000000E+03 0. -1.
<mgrwt>
<rscale>  2 0.76243667E+03</rscale>
<asrwt>0</asrwt>
<pdfrwt beam="1">  1        2 0.11562866E+00 0.76243667E+03</pdfrwt>
<pdfrwt beam="2">  1       -2 0.13802356E+00 0.76243667E+03</pdfrwt>
<totfact> 0.14126941E+01</totfact>
</mgrwt>
</event>
<event>
 4    1  0.2318373E-002  0.4040893E+03  0.7818608E-02  0.1042373E+00
          2   -1    0    0  502    0  0.00000000000E+00  0.00000000000E+00  0.14798190809E+04  0.14798190809E+04  0.00000000000E+00 0.  1.
         -2   -1    0    0    0  501 -0.00000000000E+00 -0.00000000000E+00 -0.17575329454E+03  0.17575329454E+03  0.00000000000E+00 0. -1.
    9000005    1    1    2  502    0  0.42978813840E+02 -0.37960613564E+02  0.14703641782E+03  0.43000917989E+03  0.40000000000E+03 0. -1.
   -9000005    1    1    2    0  501 -0.42978813840E+02  0.37960613564E+02  0.11570293685E+04  0.12255631955E+04  0.40000000000E+03 0.  1.
<mgrwt>
<rscale>  2 0.40408933E+03</rscale>
<asrwt>0</asrwt>
<pdfrwt beam="1">  1        2 0.22766447E+00 0.40408933E+03</pdfrwt>
<pdfrwt beam="2">  1       -2 0.27038969E-01 0.40408933E+03</pdfrwt>
<totfact> 0.17050106E+02</totfact>
</mgrwt>
</event>
<event>
 4    1  0.2318373E-002  0.6831739E+03  0.7818608E-02  0.9746448E-01
          2   -1    0    0  502    0  0.00000000000E+00  0.00000000000E+00  0.30804945978E+04  0.30804945978E+04  0.00000000000E+00 0.  1.
         -2   -1    0    0    0  501 -0.00000000000E+00 -0.00000000000E+00 -0.15590225103E+03  0.15590225103E+03  0.00000000000E+00 0. -1.
    9000005    1    1    2  502    0  0.27946226886E+03  0.47814995200E+03  0.11906920736E+04  0.13727615053E+04  0.40000000000E+03 0.  1.
   -9000005    1    1    2    0  501 -0.27946226886E+03 -0.47814995200E+03  0.17339002732E+04  0.18636353435E+04  0.40000000000E+03 0.  1.
<mgrwt>
<rscale>  2 0.68317387E+03</rscale>
<asrwt>0</asrwt>
<pdfrwt beam="1">  1        2 0.47392220E+00 0.68317387E+03</pdfrwt>
<pdfrwt beam="2">  1       -2 0.23984964E-01 0.68317387E+03</pdfrwt>
<totfact> 0.25664430E+01</totfact>
</mgrwt>
</event>
<event>
 4    1  0.2318373E-002  0.4143409E+03  0.7818608E-02  0.1038924E+00
         -3   -1    0    0    0  501 -0.00000000000E+00  0.00000000000E+00  0.49935941870E+03  0.49935941870E+03  0.00000000000E+00 0. -1.
          3   -1    0    0  502    0  0.00000000000E+00 -0.00000000000E+00 -0.35711255470E+03  0.35711255470E+03  0.00000000000E+00 0.  1.
    9000005    1    1    2  502    0 -0.16377746884E+02  0.10681811913E+03  0.15381436855E+03  0.44196968351E+03  0.40000000000E+03 0. -1.
   -9000005    1    1    2    0  501  0.16377746884E+02 -0.10681811913E+03 -0.11567504551E+02  0.41450228990E+03  0.40000000000E+03 0.  1.
<mgrwt>
<rscale>  2 0.41434085E+03</rscale>
<asrwt>0</asrwt>
<pdfrwt beam="1">  1        3 0.54940393E-01 0.41434085E+03</pdfrwt>
<pdfrwt beam="2">  1       -3 0.76824526E-01 0.41434085E+03</pdfrwt>
<totfact> 0.13495372E+01</totfact>
</mgrwt>
</event>
<event>
 4    1  0.2318373E-002  0.4342826E+03  0.7818608E-02  0.1032516E+00
         -4   -1    0    0    0  501 -0.00000000000E+00  0.00000000000E+00  0.85957502986E+03  0.85957502986E+03  0.00000000000E+00 0. -1.
          4   -1    0    0  502    0  0.00000000000E+00 -0.00000000000E+00 -0.30738592454E+03  0.30738592454E+03  0.00000000000E+00 0.  1.
    9000005    1    1    2  502    0 -0.13998015423E+02 -0.16853904822E+03 -0.36053423681E+02  0.43577655349E+03  0.40000000000E+03 0.  1.
   -9000005    1    1    2    0  501  0.13998015423E+02  0.16853904822E+03  0.58824252901E+03  0.73118440092E+03  0.40000000000E+03 0. -1.
<mgrwt>
<rscale>  2 0.43428258E+03</rscale>
<asrwt>0</asrwt>
<pdfrwt beam="1">  1        4 0.47290143E-01 0.43428258E+03</pdfrwt>
<pdfrwt beam="2">  1       -4 0.13224231E+00 0.43428258E+03</pdfrwt>
<totfact> 0.34903638E+00</totfact>
</mgrwt>
</event>
<event>
 4    1  0.2318373E-002  0.4569527E+03  0.7818608E-02  0.1025669E+00
         -2   -1    0    0    0  501 -0.00000000000E+00  0.00000000000E+00  0.19823446216E+03  0.19823446216E+03  0.00000000000E+00 0.  1.
          2   -1    0    0  502    0  0.00000000000E+00 -0.00000000000E+00 -0.14103787397E+04  0.14103787397E+04  0.00000000000E+00 0. -1.
    9000005    1    1    2  502    0 -0.72515893713E+02  0.20867963929E+03 -0.10107591120E+04  0.11092518782E+04  0.40000000000E+03 0. -1.
   -9000005    1    1    2    0  501  0.72515893713E+02 -0.20867963929E+03 -0.20138516551E+03  0.49936132368E+03  0.40000000000E+03 0.  1.
<mgrwt>
<rscale>  2 0.45695267E+03</rscale>
<asrwt>0</asrwt>
<pdfrwt beam="1">  1        2 0.21698134E+00 0.45695267E+03</pdfrwt>
<pdfrwt beam="2">  1       -2 0.30497610E-01 0.45695267E+03</pdfrwt>
<totfact> 0.14836842E+02</totfact>
</mgrwt>
</event>
<event>
 4    1  0.2318373E-002  0.4655196E+03  0.7818608E-02  0.1023192E+00
         -1   -1    0    0    0  501 -0.00000000000E+00  0.00000000000E+00  0.10064065852E+03  0.10064065852E+03  0.00000000000E+00 0. -1.
          1   -1    0    0  502    0  0.00000000000E+00 -0.00000000000E+00 -0.21537944873E+04  0.21537944873E+04  0.00000000000E+00 0.  1.
    9000005    1    1    2  502    0 -0.21722208249E+03 -0.97586399929E+02 -0.10093278091E+04  0.11115085086E+04  0.40000000000E+03 0.  1.
   -9000005    1    1    2    0  501  0.21722208249E+03  0.97586399929E+02 -0.10438260197E+04  0.11429266372E+04  0.40000000000E+03 0.  1.
<mgrwt>
<rscale>  2 0.46551964E+03</rscale>
<asrwt>0</asrwt>
<pdfrwt beam="1">  1        1 0.33135301E+00 0.46551964E+03</pdfrwt>
<pdfrwt beam="2">  1       -1 0.15483178E-01 0.46551964E+03</pdfrwt>
<totfact> 0.78686786E+01</totfact>
</mgrwt>
</event>
<event>
 4    1  0.2318373E-002  0.4297872E+03  0.7818608E-02  0.1033927E+00
          2   -1    0    0  502    0  0.00000000000E+00  0.00000000000E+00  0.57961738680E+03  0.57961738680E+03  0.00000000000E+00 0. -1.
         -2   -1    0    0    0  501 -0.00000000000E+00 -0.00000000000E+00 -0.31950572675E+03  0.31950572675E+03  0.00000000000E+00 0.  1.
    9000005    1    1    2  502    0 -0.93895242094E+02  0.12609806153E+03  0.15280078951E+03  0.45614155575E+03  0.40000000000E+03 0. -1.
   -9000005    1    1    2    0  501  0.93895242094E+02 -0.12609806153E+03  0.10731087054E+03  0.44298155779E+03  0.40000000000E+03 0.  1.
<mgrwt>
<rscale>  2 0.42978720E+03</rscale>
<asrwt>0</asrwt>
<pdfrwt beam="1">  1        2 0.89171906E-01 0.42978720E+03</pdfrwt>
<pdfrwt beam="2">  1       -2 0.49154727E-01 0.42978720E+03</pdfrwt>
<totfact> 0.20805676E+02</totfact>
</mgrwt>
</event>
<event>
 4    1  0.2318373E-002  0.4276378E+03  0.7818608E-02  0.1034609E+00
          2   -1    0    0  502    0  0.00000000000E+00  0.00000000000E+00  0.11311823882E+04  0.11311823882E+04  0.00000000000E+00 0.  1.
         -2   -1    0    0    0  501 -0.00000000000E+00 -0.00000000000E+00 -0.16266126639E+03  0.16266126639E+03  0.00000000000E+00 0. -1.
    9000005    1    1    2  502    0 -0.15120830705E+03 -0.31785614302E+01  0.53485665732E+03  0.68479610050E+03  0.40000000000E+03 0.  1.
   -9000005    1    1    2    0  501  0.15120830705E+03  0.31785614302E+01  0.43366446448E+03  0.60904755408E+03  0.40000000000E+03 0. -1.
<mgrwt>
<rscale>  2 0.42763776E+03</rscale>
<asrwt>0</asrwt>
<pdfrwt beam="1">  1        2 0.17402805E+00 0.42763776E+03</pdfrwt>
<pdfrwt beam="2">  1       -2 0.25024811E-01 0.42763776E+03</pdfrwt>
<totfact> 0.30774421E+02</totfact>
</mgrwt>
</event>
<event>
 4    1  0.2318373E-002  0.4045304E+03  0.7818608E-02  0.1042222E+00
         -1   -1    0    0    0  501 -0.00000000000E+00  0.00000000000E+00  0.16020215616E+03  0.16020215616E+03  0.00000000000E+00 0. -1.
          1   -1    0    0  502    0  0.00000000000E+00 -0.00000000000E+00 -0.10641956038E+04  0.10641956038E+04  0.00000000000E+00 0.  1.
    9000005    1    1    2  502    0 -0.29991997270E+02  0.52395901353E+02 -0.32935850781E+03  0.52165302362E+03  0.40000000000E+03 0. -1.
   -9000005    1    1    2    0  501  0.29991997270E+02 -0.52395901353E+02 -0.57463493983E+03  0.70274473634E+03  0.40000000000E+03 0.  1.
<mgrwt>
<rscale>  2 0.40453041E+03</rscale>
<asrwt>0</asrwt>
<pdfrwt beam="1">  1        1 0.16372240E+00 0.40453041E+03</pdfrwt>
<pdfrwt beam="2">  1       -1 0.24646486E-01 0.40453041E+03</pdfrwt>
<totfact> 0.20236843E+02</totfact>
</mgrwt>
</event>
<event>
 4    1  0.2318373E-002  0.4311803E+03  0.7818608E-02  0.1033488E+00
          2   -1    0    0  502    0  0.00000000000E+00  0.00000000000E+00  0.31463673066E+03  0.31463673066E+03  0.00000000000E+00 0.  1.
         -2   -1    0    0    0  501 -0.00000000000E+00 -0.00000000000E+00 -0.62289683368E+03  0.62289683368E+03  0.00000000000E+00 0. -1.
    9000005    1    1    2  502    0  0.84063675798E+02  0.13729444987E+03 -0.26038606671E+03  0.50370365423E+03  0.40000000000E+03 0.  1.
   -9000005    1    1    2    0  501 -0.84063675798E+02 -0.13729444987E+03 -0.47874036314E+02  0.43382991011E+03  0.40000000000E+03 0.  1.
<mgrwt>
<rscale>  2 0.43118032E+03</rscale>
<asrwt>0</asrwt>
<pdfrwt beam="1">  1        2 0.48405651E-01 0.43118032E+03</pdfrwt>
<pdfrwt beam="2">  1       -2 0.95830281E-01 0.43118032E+03</pdfrwt>
<totfact> 0.97782999E+01</totfact>
</mgrwt>
</event>
<event>
 4    1  0.2318373E-002  0.4567334E+03  0.7818608E-02  0.1025733E+00
         -2   -1    0    0    0  501 -0.00000000000E+00  0.00000000000E+00  0.21766707213E+03  0.21766707213E+03  0.00000000000E+00 0. -1.
          2   -1    0    0  502    0  0.00000000000E+00 -0.00000000000E+00 -0.11514232418E+04  0.11514232418E+04  0.00000000000E+00 0.  1.
    9000005    1    1    2  502    0 -0.20418987020E+03 -0.83137948349E+02 -0.74717869060E+03  0.87571765841E+03  0.40000000000E+03 0.  1.
   -9000005    1    1    2    0  501  0.20418987020E+03  0.83137948349E+02 -0.18657747909E+03  0.49337265556E+03  0.40000000000E+03 0. -1.
<mgrwt>
<rscale>  2 0.45673343E+03</rscale>
<asrwt>0</asrwt>
<pdfrwt beam="1">  1        2 0.17714204E+00 0.45673343E+03</pdfrwt>
<pdfrwt beam="2">  1       -2 0.33487242E-01 0.45673343E+03</pdfrwt>
<totfact> 0.17517687E+02</totfact>
</mgrwt>
</event>
<event>
 4    1  0.2318373E-002  0.6700388E+03  0.7818608E-02  0.9769888E-01
          2   -1    0    0  502    0  0.00000000000E+00  0.00000000000E+00  0.11711326004E+04  0.11711326004E+04  0.00000000000E+00 0. -1.
         -2   -1    0    0    0  501 -0.00000000000E+00 -0.00000000000E+00 -0.38950176324E+03  0.38950176324E+03  0.00000000000E+00 0.  1.
    9000005    1    1    2  502    0 -0.43682189155E+03  0.31327086532E+03  0.29273846591E+03  0.73119614975E+03  0.40000000000E+03 0.  1.
   -9000005    1    1    2    0  501  0.43682189155E+03 -0.31327086532E+03  0.48889237128E+03  0.82943821391E+03  0.40000000000E+03 0. -1.
<mgrwt>
<rscale>  2 0.67003880E+03</rscale>
<asrwt>0</asrwt>
<pdfrwt beam="1">  1        2 0.18017424E+00 0.67003880E+03</pdfrwt>
<pdfrwt beam="2">  1       -2 0.59923349E-01 0.67003880E+03</pdfrwt>
<totfact> 0.52486074E+01</totfact>
</mgrwt>
</event>
<event>
 4    1  0.2318373E-002  0.5015140E+03  0.7818608E-02  0.1013384E+00
         -2   -1    0    0    0  501 -0.00000000000E+00  0.00000000000E+00  0.51526957081E+03  0.51526957081E+03  0.00000000000E+00 0. -1.
          2   -1    0    0  502    0  0.00000000000E+00 -0.00000000000E+00 -0.63741850333E+03  0.63741850333E+03  0.00000000000E+00 0.  1.
    9000005    1    1    2  502    0  0.29862433733E+03 -0.48371775107E+02  0.21785146879E+03  0.54678659999E+03  0.40000000000E+03 0. -1.
   -9000005    1    1    2    0  501 -0.29862433733E+03  0.48371775107E+02 -0.34000040131E+03  0.60590147414E+03  0.40000000000E+03 0.  1.
<mgrwt>
<rscale>  2 0.50151403E+03</rscale>
<asrwt>0</asrwt>
<pdfrwt beam="1">  1        2 0.98064385E-01 0.50151403E+03</pdfrwt>
<pdfrwt beam="2">  1       -2 0.79272242E-01 0.50151403E+03</pdfrwt>
<totfact> 0.67125850E+01</totfact>
</mgrwt>
</event>
<event>
 4    1  0.2318373E-002  0.5628353E+03  0.7818608E-02  0.9985660E-01
         -1   -1    0    0    0  501 -0.00000000000E+00  0.00000000000E+00  0.19036098409E+03  0.19036098409E+03  0.00000000000E+00 0.  1.
          1   -1    0    0  502    0  0.00000000000E+00 -0.00000000000E+00 -0.16864644501E+04  0.16864644501E+04  0.00000000000E+00 0. -1.
    9000005    1    1    2  502    0  0.25374299223E+03  0.30397055615E+03 -0.85606716897E+03  0.10245167656E+04  0.40000000000E+03 0. -1.
   -9000005    1    1    2    0  501 -0.25374299223E+03 -0.30397055615E+03 -0.64003629703E+03  0.85230866863E+03  0.40000000000E+03 0.  1.
<mgrwt>
<rscale>  2 0.56283533E+03</rscale>
<asrwt>0</asrwt>
<pdfrwt beam="1">  1        1 0.25945606E+00 0.56283533E+03</pdfrwt>
<pdfrwt beam="2">  1       -1 0.29286306E-01 0.56283533E+03</pdfrwt>
<totfact> 0.54626294E+01</totfact>
</mgrwt>
</event>
<event>
 4    1  0.2318373E-002  0.5590048E+03  0.7818608E-02  0.9994309E-01
         -4   -1    0    0    0  501 -0.00000000000E+00  0.00000000000E+00  0.12393756932E+04  0.12393756932E+04  0.00000000000E+00 0.  1.
          4   -1    0    0  502    0  0.00000000000E+00 -0.00000000000E+00 -0.27002834568E+03  0.27002834568E+03  0.00000000000E+00 0. -1.
    9000005    1    1    2  502    0 -0.12476896529E+03  0.37002573656E+03  0.67896452313E+03  0.87947664215E+03  0.40000000000E+03 0. -1.
   -9000005    1    1    2    0  501  0.12476896529E+03 -0.37002573656E+03  0.29038282436E+03  0.62992739669E+03  0.40000000000E+03 0. -1.
<mgrwt>
<rscale>  2 0.55900478E+03</rscale>
<asrwt>0</asrwt>
<pdfrwt beam="1">  1        4 0.41542823E-01 0.55900478E+03</pdfrwt>
<pdfrwt beam="2">  1       -4 0.19067318E+00 0.55900478E+03</pdfrwt>
<totfact> 0.16987859E+00</totfact>
</mgrwt>
</event>
<event>
 4    1  0.2318373E-002  0.5453871E+03  0.7818608E-02  0.1002567E+00
          1   -1    0    0  502    0  0.00000000000E+00  0.00000000000E+00  0.20153965304E+04  0.20153965304E+04  0.00000000000E+00 0. -1.
         -1   -1    0    0    0  501 -0.00000000000E+00 -0.00000000000E+00 -0.14769937454E+03  0.14769937454E+03  0.00000000000E+00 0.  1.
    9000005    1    1    2  502    0  0.36964124353E+03  0.28502830084E+02  0.96363284773E+03  0.11072647947E+04  0.40000000000E+03 0.  1.
   -9000005    1    1    2    0  501 -0.36964124353E+03 -0.28502830084E+02  0.90406430815E+03  0.10558311103E+04  0.40000000000E+03 0. -1.
<mgrwt>
<rscale>  2 0.54538707E+03</rscale>
<asrwt>0</asrwt>
<pdfrwt beam="1">  1        1 0.31006099E+00 0.54538707E+03</pdfrwt>
<pdfrwt beam="2">  1       -1 0.22722982E-01 0.54538707E+03</pdfrwt>
<totfact> 0.51006311E+01</totfact>
</mgrwt>
</event>
<event>
 4    1  0.2318373E-002  0.4067193E+03  0.7818608E-02  0.1041478E+00
          2   -1    0    0  502    0  0.00000000000E+00  0.00000000000E+00  0.23760600478E+04  0.23760600478E+04  0.00000000000E+00 0. -1.
         -2   -1    0    0    0  501 -0.00000000000E+00 -0.00000000000E+00 -0.76569957500E+02  0.76569957500E+02  0.00000000000E+00 0.  1.
    9000005    1    1    2  502    0 -0.32788959926E+02 -0.65920356620E+02  0.15192097888E+04  0.15727107145E+04  0.40000000000E+03 0. -1.
   -9000005    1    1    2    0  501  0.32788959926E+02  0.65920356620E+02  0.78028030154E+03  0.87991929077E+03  0.40000000000E+03 0.  1.
<mgrwt>
<rscale>  2 0.40671932E+03</rscale>
<asrwt>0</asrwt>
<pdfrwt beam="1">  1        2 0.36554764E+00 0.40671932E+03</pdfrwt>
<pdfrwt beam="2">  1       -2 0.11779995E-01 0.40671932E+03</pdfrwt>
<totfact> 0.23258409E+02</totfact>
</mgrwt>
</event>
<event>
 4    1  0.2318373E-002  0.4776473E+03  0.7818608E-02  0.1019784E+00
         -1   -1    0    0    0  501 -0.00000000000E+00  0.00000000000E+00  0.64345166087E+02  0.64345166087E+02  0.00000000000E+00 0.  1.
          1   -1    0    0  502    0  0.00000000000E+00 -0.00000000000E+00 -0.35510936569E+04  0.35510936569E+04  0.00000000000E+00 0. -1.
    9000005    1    1    2  502    0 -0.25852437365E+03 -0.36222184775E+02 -0.18140040722E+04  0.18758351933E+04  0.40000000000E+03 0. -1.
   -9000005    1    1    2    0  501  0.25852437365E+03  0.36222184775E+02 -0.16727444186E+04  0.17396036297E+04  0.40000000000E+03 0. -1.
<mgrwt>
<rscale>  2 0.47764725E+03</rscale>
<asrwt>0</asrwt>
<pdfrwt beam="1">  1        1 0.54632207E+00 0.47764725E+03</pdfrwt>
<pdfrwt beam="2">  1       -1 0.98992568E-02 0.47764725E+03</pdfrwt>
<totfact> 0.16599908E+01</totfact>
</mgrwt>
</event>
<event>
 4    1  0.2318373E-002  0.4073037E+03  0.7818608E-02  0.1041280E+00
         -2   -1    0    0    0  501 -0.00000000000E+00  0.00000000000E+00  0.76312757806E+03  0.76312757806E+03  0.00000000000E+00 0. -1.
          2   -1    0    0  502    0  0.00000000000E+00 -0.00000000000E+00 -0.25830403895E+03  0.25830403895E+03  0.00000000000E+00 0.  1.
    9000005    1    1    2  502    0  0.76687044075E+02  0.39230240047E+01  0.45567085099E+03  0.61117282113E+03  0.40000000000E+03 0. -1.
   -9000005    1    1    2    0  501 -0.76687044075E+02 -0.39230240047E+01  0.49152688112E+02  0.41025879588E+03  0.40000000000E+03 0.  1.
<mgrwt>
<rscale>  2 0.40730369E+03</rscale>
<asrwt>0</asrwt>
<pdfrwt beam="1">  1        2 0.39739083E-01 0.40730369E+03</pdfrwt>
<pdfrwt beam="2">  1       -2 0.11740424E+00 0.40730369E+03</pdfrwt>
<totfact> 0.75016169E+01</totfact>
</mgrwt>
</event>
<event>
 4    1  0.2318373E-002  0.4638010E+03  0.7818608E-02  0.1023685E+00
          2   -1    0    0  502    0  0.00000000000E+00  0.00000000000E+00  0.55209603055E+03  0.55209603055E+03  0.00000000000E+00 0. -1.
         -2   -1    0    0    0  501 -0.00000000000E+00 -0.00000000000E+00 -0.42376871331E+03  0.42376871331E+03  0.00000000000E+00 0.  1.
    9000005    1    1    2  502    0 -0.21625599623E+03 -0.91349441244E+02 -0.74333064958E+02  0.46971989618E+03  0.40000000000E+03 0.  1.
   -9000005    1    1    2    0  501  0.21625599623E+03  0.91349441244E+02  0.20266038219E+03  0.50614484768E+03  0.40000000000E+03 0. -1.
<mgrwt>
<rscale>  2 0.46380101E+03</rscale>
<asrwt>0</asrwt>
<pdfrwt beam="1">  1        2 0.84937851E-01 0.46380101E+03</pdfrwt>
<pdfrwt beam="2">  1       -2 0.65195187E-01 0.46380101E+03</pdfrwt>
<totfact> 0.12239739E+02</totfact>
</mgrwt>
</event>
<event>
 4    1  0.2318373E-002  0.4311783E+03  0.7818608E-02  0.1033488E+00
         -2   -1    0    0    0  501 -0.00000000000E+00  0.00000000000E+00  0.12585185167E+03  0.12585185167E+03  0.00000000000E+00 0. -1.
          2   -1    0    0  502    0  0.00000000000E+00 -0.00000000000E+00 -0.17829960949E+04  0.17829960949E+04  0.00000000000E+00 0.  1.
    9000005    1    1    2  502    0 -0.67747485501E+02  0.14603075414E+03 -0.12237988361E+04  0.12975354693E+04  0.40000000000E+03 0.  1.
   -9000005    1    1    2    0  501  0.67747485501E+02 -0.14603075414E+03 -0.43334540712E+03  0.61131247723E+03  0.40000000000E+03 0. -1.
<mgrwt>
<rscale>  2 0.43117827E+03</rscale>
<asrwt>0</asrwt>
<pdfrwt beam="1">  1        2 0.27430709E+00 0.43117827E+03</pdfrwt>
<pdfrwt beam="2">  1       -2 0.19361823E-01 0.43117827E+03</pdfrwt>
<totfact> 0.21012856E+02</totfact>
</mgrwt>
</event>
<event>
 4    1  0.2318373E-002  0.4283883E+03  0.7818608E-02  0.1034370E+00
          2   -1    0    0  502    0  0.00000000000E+00  0.00000000000E+00  0.51010829212E+03  0.51010829212E+03  0.00000000000E+00 0.  1.
         -2   -1    0    0    0  501 -0.00000000000E+00 -0.00000000000E+00 -0.79643038250E+03  0.79643038250E+03  0.00000000000E+00 0. -1.
    9000005    1    1    2  502    0 -0.12778788606E+03 -0.84774877239E+02  0.34056031716E+03  0.54726397036E+03  0.40000000000E+03 0.  1.
   -9000005    1    1    2    0  501  0.12778788606E+03  0.84774877239E+02 -0.62688240754E+03  0.75927470425E+03  0.40000000000E+03 0. -1.
<mgrwt>
<rscale>  2 0.42838829E+03</rscale>
<asrwt>0</asrwt>
<pdfrwt beam="1">  1        2 0.78478200E-01 0.42838829E+03</pdfrwt>
<pdfrwt beam="2">  1       -2 0.12252775E+00 0.42838829E+03</pdfrwt>
<totfact> 0.31705219E+01</totfact>
</mgrwt>
</event>
<event>
 4    1  0.2318373E-002  0.5268183E+03  0.7818608E-02  0.1007007E+00
          2   -1    0    0  502    0  0.00000000000E+00  0.00000000000E+00  0.15411379531E+04  0.15411379531E+04  0.00000000000E+00 0. -1.
         -2   -1    0    0    0  501 -0.00000000000E+00 -0.00000000000E+00 -0.18015366032E+03  0.18015366032E+03  0.00000000000E+00 0.  1.
    9000005    1    1    2  502    0 -0.26039933191E+03  0.22300169849E+03  0.69715512710E+03  0.87382082879E+03  0.40000000000E+03 0.  1.
   -9000005    1    1    2    0  501  0.26039933191E+03 -0.22300169849E+03  0.66382916569E+03  0.84747078464E+03  0.40000000000E+03 0. -1.
<mgrwt>
<rscale>  2 0.52681835E+03</rscale>
<asrwt>0</asrwt>
<pdfrwt beam="1">  1        2 0.23709814E+00 0.52681835E+03</pdfrwt>
<pdfrwt beam="2">  1       -2 0.27715949E-01 0.52681835E+03</pdfrwt>
<totfact> 0.14851199E+02</totfact>
</mgrwt>
</event>
<event>
 4    1  0.2318373E-002  0.5886693E+03  0.7818608E-02  0.9929197E-01
          2   -1    0    0  502    0  0.00000000000E+00  0.00000000000E+00  0.27651938490E+04  0.27651938490E+04  0.00000000000E+00 0.  1.
         -2   -1    0    0    0  501 -0.00000000000E+00 -0.00000000000E+00 -0.12759934593E+03  0.12759934593E+03  0.00000000000E+00 0. -1.
    9000005    1    1    2  502    0 -0.42591151676E+03 -0.71630390351E+02  0.11254417757E+04  0.12700987062E+04  0.40000000000E+03 0. -1.
   -9000005    1    1    2    0  501  0.42591151676E+03  0.71630390351E+02  0.15121527274E+04  0.16226944887E+04  0.40000000000E+03 0. -1.
<mgrwt>
<rscale>  2 0.58866929E+03</rscale>
<asrwt>0</asrwt>
<pdfrwt beam="1">  1        2 0.42541439E+00 0.58866929E+03</pdfrwt>
<pdfrwt beam="2">  1       -2 0.19630671E-01 0.58866929E+03</pdfrwt>
<totfact> 0.57480674E+01</totfact>
</mgrwt>
</event>
<event>
 4    1  0.2318373E-002  0.4147588E+03  0.7818608E-02  0.1038786E+00
          1   -1    0    0  502    0  0.00000000000E+00  0.00000000000E+00  0.22490221741E+04  0.22490221741E+04  0.00000000000E+00 0. -1.
         -1   -1    0    0    0  501 -0.00000000000E+00 -0.00000000000E+00 -0.77548505464E+02  0.77548505464E+02  0.00000000000E+00 0.  1.
    9000005    1    1    2  502    0 -0.10657553836E+03  0.25817341318E+02  0.94974786683E+03  0.10363618533E+04  0.40000000000E+03 0.  1.
   -9000005    1    1    2    0  501  0.10657553836E+03 -0.25817341318E+02  0.12217258018E+04  0.12902088262E+04  0.40000000000E+03 0. -1.
<mgrwt>
<rscale>  2 0.41475882E+03</rscale>
<asrwt>0</asrwt>
<pdfrwt beam="1">  1        1 0.34600336E+00 0.41475882E+03</pdfrwt>
<pdfrwt beam="2">  1       -1 0.11930541E-01 0.41475882E+03</pdfrwt>
<totfact> 0.10418205E+02</totfact>
</mgrwt>
</event>
<event>
 4    1  0.2318373E-002  0.5265499E+03  0.7818608E-02  0.1007072E+00
          2   -1    0    0  502    0  0.00000000000E+00  0.00000000000E+00  0.10629959319E+04  0.10629959319E+04  0.00000000000E+00 0. -1.
         -2   -1    0    0    0  501 -0.00000000000E+00 -0.00000000000E+00 -0.27972136255E+03  0.27972136255E+03  0.00000000000E+00 0.  1.
    9000005    1    1    2  502    0 -0.15962168172E+03  0.30294512077E+03  0.56613615534E+03  0.77315262003E+03  0.40000000000E+03 0.  1.
   -9000005    1    1    2    0  501  0.15962168172E+03 -0.30294512077E+03  0.21713841396E+03  0.56956467437E+03  0.40000000000E+03 0.  1.
<mgrwt>
<rscale>  2 0.52654993E+03</rscale>
<asrwt>0</asrwt>
<pdfrwt beam="1">  1        2 0.16353783E+00 0.52654993E+03</pdfrwt>
<pdfrwt beam="2">  1       -2 0.43034056E-01 0.52654993E+03</pdfrwt>
<totfact> 0.12145186E+02</totfact>
</mgrwt>
</event>
<event>
 4    1  0.2318373E-002  0.5271356E+03  0.7818608E-02  0.1006929E+00
         -1   -1    0    0    0  501 -0.00000000000E+00  0.00000000000E+00  0.86096035787E+03  0.86096035787E+03  0.00000000000E+00 0. -1.
          1   -1    0    0  502    0  0.00000000000E+00 -0.00000000000E+00 -0.42204625961E+03  0.42204625961E+03  0.00000000000E+00 0.  1.
    9000005    1    1    2  502    0 -0.11753107570E+03 -0.32258080731E+03 -0.91709568942E+02  0.53505380667E+03  0.40000000000E+03 0.  1.
   -9000005    1    1    2    0  501  0.11753107570E+03  0.32258080731E+03  0.53062366720E+03  0.74795281081E+03  0.40000000000E+03 0. -1.
<mgrwt>
<rscale>  2 0.52713559E+03</rscale>
<asrwt>0</asrwt>
<pdfrwt beam="1">  1        1 0.64930194E-01 0.52713559E+03</pdfrwt>
<pdfrwt beam="2">  1       -1 0.13245544E+00 0.52713559E+03</pdfrwt>
<totfact> 0.28366972E+01</totfact>
</mgrwt>
</event>
<event>
 4    1  0.2318373E-002  0.4097398E+03  0.7818608E-02  0.1040458E+00
         -1   -1    0    0    0  501 -0.00000000000E+00  0.00000000000E+00  0.46826922446E+03  0.46826922446E+03  0.00000000000E+00 0. -1.
          1   -1    0    0  502    0  0.00000000000E+00 -0.00000000000E+00 -0.40722688860E+03  0.40722688860E+03  0.00000000000E+00 0.  1.
    9000005    1    1    2  502    0 -0.44549039211E+02  0.76824930523E+02 -0.12086092145E+03  0.42719322230E+03  0.40000000000E+03 0.  1.
   -9000005    1    1    2    0  501  0.44549039211E+02 -0.76824930523E+02  0.18190325731E+03  0.44830289076E+03  0.40000000000E+03 0. -1.
<mgrwt>
<rscale>  2 0.40973978E+03</rscale>
<asrwt>0</asrwt>
<pdfrwt beam="1">  1        1 0.62650290E-01 0.40973978E+03</pdfrwt>
<pdfrwt beam="2">  1       -1 0.72041419E-01 0.40973978E+03</pdfrwt>
<totfact> 0.11895023E+02</totfact>
</mgrwt>
</event>
<event>
 4    1  0.2318373E-002  0.4953518E+03  0.7818608E-02  0.1014999E+00
         -1   -1    0    0    0  501 -0.00000000000E+00  0.00000000000E+00  0.32075212349E+03  0.32075212349E+03  0.00000000000E+00 0.  1.
          1   -1    0    0  502    0  0.00000000000E+00 -0.00000000000E+00 -0.87959249206E+03  0.87959249206E+03  0.00000000000E+00 0. -1.
    9000005    1    1    2  502    0  0.28888661393E+03 -0.43794732768E+02 -0.49605318822E+03  0.70102940015E+03  0.40000000000E+03 0. -1.
   -9000005    1    1    2    0  501 -0.28888661393E+03  0.43794732768E+02 -0.62787180344E+02  0.49931521541E+03  0.40000000000E+03 0.  1.
<mgrwt>
<rscale>  2 0.49535185E+03</rscale>
<asrwt>0</asrwt>
<pdfrwt beam="1">  1        1 0.13532192E+00 0.49535185E+03</pdfrwt>
<pdfrwt beam="2">  1       -1 0.49346481E-01 0.49535185E+03</pdfrwt>
<totfact> 0.81526047E+01</totfact>
</mgrwt>
</event>
<event>
 4    1  0.2318373E-002  0.4177281E+03  0.7818608E-02  0.1037808E+00
         -2   -1    0    0    0  501 -0.00000000000E+00  0.00000000000E+00  0.74757317303E+03  0.74757317303E+03  0.00000000000E+00 0. -1.
          2   -1    0    0  502    0  0.00000000000E+00 -0.00000000000E+00 -0.23887142934E+03  0.23887142934E+03  0.00000000000E+00 0.  1.
    9000005    1    1    2  502    0 -0.80425092887E+02  0.89602448517E+02  0.32887694848E+03  0.53165481432E+03  0.40000000000E+03 0. -1.
   -9000005    1    1    2    0  501  0.80425092887E+02 -0.89602448517E+02  0.17982479521E+03  0.45478978806E+03  0.40000000000E+03 0.  1.
<mgrwt>
<rscale>  2 0.41772813E+03</rscale>
<asrwt>0</asrwt>
<pdfrwt beam="1">  1        2 0.36749451E-01 0.41772813E+03</pdfrwt>
<pdfrwt beam="2">  1       -2 0.11501126E+00 0.41772813E+03</pdfrwt>
<totfact> 0.85872046E+01</totfact>
</mgrwt>
</event>
<event>
 4    1  0.2318373E-002  0.4420761E+03  0.7818608E-02  0.1030112E+00
          2   -1    0    0  502    0  0.00000000000E+00  0.00000000000E+00  0.11771426591E+04  0.11771426591E+04  0.00000000000E+00 0. -1.
         -2   -1    0    0    0  501 -0.00000000000E+00 -0.00000000000E+00 -0.27740076740E+03  0.27740076740E+03  0.00000000000E+00 0.  1.
    9000005    1    1    2  502    0  0.16576650934E+03  0.89178360725E+02  0.91070493817E+03  0.10123313687E+04  0.40000000000E+03 0. -1.
   -9000005    1    1    2    0  501 -0.16576650934E+03 -0.89178360725E+02 -0.10963046507E+02  0.44221205776E+03  0.40000000000E+03 0.  1.
<mgrwt>
<rscale>  2 0.44207614E+03</rscale>
<asrwt>0</asrwt>
<pdfrwt beam="1">  1        2 0.18109887E+00 0.44207614E+03</pdfrwt>
<pdfrwt beam="2">  1       -2 0.42677042E-01 0.44207614E+03</pdfrwt>
<totfact> 0.10652639E+02</totfact>
</mgrwt>
</event>
<event>
 4    1  0.2318373E-002  0.4969466E+03  0.7818608E-02  0.1014579E+00
          1   -1    0    0  502    0  0.00000000000E+00  0.00000000000E+00  0.48208478072E+03  0.48208478072E+03  0.00000000000E+00 0.  1.
         -1   -1    0    0    0  501 -0.00000000000E+00 -0.00000000000E+00 -0.51865644576E+03  0.51865644576E+03  0.00000000000E+00 0. -1.
    9000005    1    1    2  502    0 -0.82852855312E+02  0.28300418962E+03 -0.73824389912E+02  0.50240024634E+03  0.40000000000E+03 0.  1.
   -9000005    1    1    2    0  501  0.82852855312E+02 -0.28300418962E+03  0.37252724877E+02  0.49834098014E+03  0.40000000000E+03 0. -1.
<mgrwt>
<rscale>  2 0.49694664E+03</rscale>
<asrwt>0</asrwt>
<pdfrwt beam="1">  1        1 0.74166890E-01 0.49694664E+03</pdfrwt>
<pdfrwt beam="2">  1       -1 0.79793299E-01 0.49694664E+03</pdfrwt>
<totfact> 0.76220863E+01</totfact>
</mgrwt>
</event>
<event>
 4    1  0.2318373E-002  0.4257853E+03  0.7818608E-02  0.1035200E+00
          2   -1    0    0  502    0  0.00000000000E+00  0.00000000000E+00  0.85672608727E+03  0.85672608727E+03  0.00000000000E+00 0.  1.
         -2   -1    0    0    0  501 -0.00000000000E+00 -0.00000000000E+00 -0.21602939401E+03  0.21602939401E+03  0.00000000000E+00 0. -1.
    9000005    1    1    2  502    0  0.78211620947E+02  0.12319106411E+03  0.24364368341E+03  0.49056634658E+03  0.40000000000E+03 0.  1.
   -9000005    1    1    2    0  501 -0.78211620947E+02 -0.12319106411E+03  0.39705300985E+03  0.58218913470E+03  0.40000000000E+03 0. -1.
<mgrwt>
<rscale>  2 0.42578527E+03</rscale>
<asrwt>0</asrwt>
<pdfrwt beam="1">  1        2 0.13180401E+00 0.42578527E+03</pdfrwt>
<pdfrwt beam="2">  1       -2 0.33235292E-01 0.42578527E+03</pdfrwt>
<totfact> 0.27290560E+02</totfact>
</mgrwt>
</event>
<event>
 4    1  0.2318373E-002  0.5202244E+03  0.7818608E-02  0.1008631E+00
          1   -1    0    0  502    0  0.00000000000E+00  0.00000000000E+00  0.19783086505E+04  0.19783086505E+04  0.00000000000E+00 0.  1.
         -1   -1    0    0    0  501 -0.00000000000E+00 -0.00000000000E+00 -0.15510833051E+03  0.15510833051E+03  0.00000000000E+00 0. -1.
    9000005    1    1    2  502    0 -0.13871911816E+03  0.30230858107E+03  0.12780777939E+04  0.13798972133E+04  0.40000000000E+03 0.  1.
   -9000005    1    1    2    0  501  0.13871911816E+03 -0.30230858107E+03  0.54512252615E+03  0.75351976779E+03  0.40000000000E+03 0. -1.
<mgrwt>
<rscale>  2 0.52022444E+03</rscale>
<asrwt>0</asrwt>
<pdfrwt beam="1">  1        1 0.30435516E+00 0.52022444E+03</pdfrwt>
<pdfrwt beam="2">  1       -1 0.23862821E-01 0.52022444E+03</pdfrwt>
<totfact> 0.49920989E+01</totfact>
</mgrwt>
</event>
<event>
 4    1  0.2318373E-002  0.5678598E+03  0.7818608E-02  0.9974426E-01
          1   -1    0    0  502    0  0.00000000000E+00  0.00000000000E+00  0.83525618094E+03  0.83525618094E+03  0.00000000000E+00 0.  1.
         -1   -1    0    0    0  501 -0.00000000000E+00 -0.00000000000E+00 -0.38776433962E+03  0.38776433962E+03  0.00000000000E+00 0. -1.
    9000005    1    1    2  502    0 -0.21119444187E+03 -0.34330977851E+03  0.18328577652E+03  0.59670626959E+03  0.40000000000E+03 0. -1.
   -9000005    1    1    2    0  501  0.21119444187E+03  0.34330977851E+03  0.26420606479E+03  0.62631425097E+03  0.40000000000E+03 0.  1.
<mgrwt>
<rscale>  2 0.56785975E+03</rscale>
<asrwt>0</asrwt>
<pdfrwt beam="1">  1        1 0.12850095E+00 0.56785975E+03</pdfrwt>
<pdfrwt beam="2">  1       -1 0.59656053E-01 0.56785975E+03</pdfrwt>
<totfact> 0.61141944E+01</totfact>
</mgrwt>
</event>
<event>
 4    1  0.2318373E-002  0.4828634E+03  0.7818608E-02  0.1018351E+00
         -1   -1    0    0    0  501 -0.00000000000E+00  0.00000000000E+00  0.44624971703E+03  0.44624971703E+03  0.00000000000E+00 0.  1.
          1   -1    0    0  502    0  0.00000000000E+00 -0.00000000000E+00 -0.61891493644E+03  0.61891493644E+03  0.00000000000E+00 0. -1.
    9000005    1    1    2  502    0 -0.51092470893E+02  0.26560615311E+03  0.12389311550E+03  0.49850433621E+03  0.40000000000E+03 0.  1.
   -9000005    1    1    2    0  501  0.51092470893E+02 -0.26560615311E+03 -0.29655833491E+03  0.56666031726E+03  0.40000000000E+03 0. -1.
<mgrwt>
<rscale>  2 0.48286341E+03</rscale>
<asrwt>0</asrwt>
<pdfrwt beam="1">  1        1 0.95217683E-01 0.48286341E+03</pdfrwt>
<pdfrwt beam="2">  1       -1 0.68653803E-01 0.48286341E+03</pdfrwt>
<totfact> 0.73576962E+01</totfact>
</mgrwt>
</event>
<event>
 4    1  0.2318373E-002  0.4062977E+03  0.7818608E-02  0.1041621E+00
         -1   -1    0    0    0  501 -0.00000000000E+00  0.00000000000E+00  0.22303613920E+03  0.22303613920E+03  0.00000000000E+00 0.  1.
          1   -1    0    0  502    0  0.00000000000E+00 -0.00000000000E+00 -0.74190972181E+03  0.74190972181E+03  0.00000000000E+00 0. -1.
    9000005    1    1    2  502    0 -0.65821610749E+02 -0.27300185029E+02 -0.28300631807E+03  0.49514680713E+03  0.40000000000E+03 0. -1.
   -9000005    1    1    2    0  501  0.65821610749E+02  0.27300185029E+02 -0.23586726455E+03  0.46979905388E+03  0.40000000000E+03 0.  1.
<mgrwt>
<rscale>  2 0.40629766E+03</rscale>
<asrwt>0</asrwt>
<pdfrwt beam="1">  1        1 0.11413996E+00 0.40629766E+03</pdfrwt>
<pdfrwt beam="2">  1       -1 0.34313253E-01 0.40629766E+03</pdfrwt>
<totfact> 0.20808573E+02</totfact>
</mgrwt>
</event>
<event>
 4    1  0.2318373E-002  0.4107373E+03  0.7818608E-02  0.1040124E+00
          1   -1    0    0  502    0  0.00000000000E+00  0.00000000000E+00  0.20324527483E+04  0.20324527483E+04  0.00000000000E+00 0.  1.
         -1   -1    0    0    0  501 -0.00000000000E+00 -0.00000000000E+00 -0.10358740644E+03  0.10358740644E+03  0.00000000000E+00 0. -1.
    9000005    1    1    2  502    0  0.51053493645E+02  0.78093967040E+02  0.14404982861E+04  0.14979120265E+04  0.40000000000E+03 0.  1.
   -9000005    1    1    2    0  501 -0.51053493645E+02 -0.78093967040E+02  0.48836705581E+03  0.63812812828E+03  0.40000000000E+03 0.  1.
<mgrwt>
<rscale>  2 0.41073730E+03</rscale>
<asrwt>0</asrwt>
<pdfrwt beam="1">  1        1 0.31268501E+00 0.41073730E+03</pdfrwt>
<pdfrwt beam="2">  1       -1 0.15936526E-01 0.41073730E+03</pdfrwt>
<totfact> 0.91219543E+01</totfact>
</mgrwt>
</event>
<event>
 4    1  0.2318373E-002  0.6288162E+03  0.7818608E-02  0.9847362E-01
         -2   -1    0    0    0  501 -0.00000000000E+00  0.00000000000E+00  0.33864739631E+03  0.33864739631E+03  0.00000000000E+00 0.  1.
          2   -1    0    0  502    0  0.00000000000E+00 -0.00000000000E+00 -0.12912849776E+04  0.12912849776E+04  0.00000000000E+00 0. -1.
    9000005    1    1    2  502    0  0.28679314512E+03 -0.39135604812E+03 -0.22410998701E+03  0.66755909908E+03  0.40000000000E+03 0.  1.
   -9000005    1    1    2    0  501 -0.28679314512E+03  0.39135604812E+03 -0.72852759427E+03  0.96237327483E+03  0.40000000000E+03 0.  1.
<mgrwt>
<rscale>  2 0.62881624E+03</rscale>
<asrwt>0</asrwt>
<pdfrwt beam="1">  1        2 0.19865922E+00 0.62881624E+03</pdfrwt>
<pdfrwt beam="2">  1       -2 0.52099600E-01 0.62881624E+03</pdfrwt>
<totfact> 0.59981965E+01</totfact>
</mgrwt>
</event>
<event>
 4    1  0.2318373E-002  0.4056530E+03  0.7818608E-02  0.1041840E+00
          2   -1    0    0  502    0  0.00000000000E+00  0.00000000000E+00  0.17215159629E+04  0.17215159629E+04  0.00000000000E+00 0.  1.
         -2   -1    0    0    0  501 -0.00000000000E+00 -0.00000000000E+00 -0.10229817966E+03  0.10229817966E+03  0.00000000000E+00 0. -1.
    9000005    1    1    2  502    0 -0.66340516154E+02 -0.12381357045E+02  0.57603756561E+03  0.70453789045E+03  0.40000000000E+03 0. -1.
   -9000005    1    1    2    0  501  0.66340516154E+02  0.12381357045E+02  0.10431802176E+04  0.11192762521E+04  0.40000000000E+03 0.  1.
<mgrwt>
<rscale>  2 0.40565301E+03</rscale>
<asrwt>0</asrwt>
<pdfrwt beam="1">  1        2 0.26484859E+00 0.40565301E+03</pdfrwt>
<pdfrwt beam="2">  1       -2 0.15738183E-01 0.40565301E+03</pdfrwt>
<totfact> 0.32367964E+02</totfact>
</mgrwt>
</event>
<event>
 4    1  0.2318373E-002  0.4244447E+03  0.7818608E-02  0.1035629E+00
         -2   -1    0    0    0  501 -0.00000000000E+00  0.00000000000E+00  0.19841373583E+03  0.19841373583E+03  0.00000000000E+00 0.  1.
          2   -1    0    0  502    0  0.00000000000E+00 -0.00000000000E+00 -0.12539189935E+04  0.12539189935E+04  0.00000000000E+00 0. -1.
    9000005    1    1    2  502    0  0.93852591638E+02 -0.10651274767E+03 -0.90917734622E+03  0.10033726732E+04  0.40000000000E+03 0. -1.
   -9000005    1    1    2    0  501 -0.93852591638E+02  0.10651274767E+03 -0.14632791148E+03  0.44896005619E+03  0.40000000000E+03 0.  1.
<mgrwt>
<rscale>  2 0.42444467E+03</rscale>
<asrwt>0</asrwt>
<pdfrwt beam="1">  1        2 0.19291062E+00 0.42444467E+03</pdfrwt>
<pdfrwt beam="2">  1       -2 0.30525190E-01 0.42444467E+03</pdfrwt>
<totfact> 0.18211983E+02</totfact>
</mgrwt>
</event>
<event>
 4    1  0.2318373E-002  0.4400894E+03  0.7818608E-02  0.1030719E+00
         -2   -1    0    0    0  501 -0.00000000000E+00  0.00000000000E+00  0.31629767688E+03  0.31629767688E+03  0.00000000000E+00 0. -1.
          2   -1    0    0  502    0  0.00000000000E+00 -0.00000000000E+00 -0.63234610399E+03  0.63234610399E+03  0.00000000000E+00 0.  1.
    9000005    1    1    2  502    0 -0.23284067318E+02 -0.18203439424E+03 -0.73636022454E+02  0.44620727502E+03  0.40000000000E+03 0.  1.
   -9000005    1    1    2    0  501  0.23284067318E+02  0.18203439424E+03 -0.24241240466E+03  0.50243650585E+03  0.40000000000E+03 0.  1.
<mgrwt>
<rscale>  2 0.44008939E+03</rscale>
<asrwt>0</asrwt>
<pdfrwt beam="1">  1        2 0.97284015E-01 0.44008939E+03</pdfrwt>
<pdfrwt beam="2">  1       -2 0.48661182E-01 0.44008939E+03</pdfrwt>
<totfact> 0.19128175E+02</totfact>
</mgrwt>
</event>
<event>
 4    1  0.2318373E-002  0.4613670E+03  0.7818608E-02  0.1024386E+00
          2   -1    0    0  502    0  0.00000000000E+00  0.00000000000E+00  0.13184634590E+04  0.13184634590E+04  0.00000000000E+00 0. -1.
         -2   -1    0    0    0  501 -0.00000000000E+00 -0.00000000000E+00 -0.20065693358E+03  0.20065693358E+03  0.00000000000E+00 0.  1.
    9000005    1    1    2  502    0 -0.18397824599E+03  0.13788212933E+03  0.89467461450E+03  0.10066290987E+04  0.40000000000E+03 0. -1.
   -9000005    1    1    2    0  501  0.18397824599E+03 -0.13788212933E+03  0.22313191088E+03  0.51249129382E+03  0.40000000000E+03 0.  1.
<mgrwt>
<rscale>  2 0.46136697E+03</rscale>
<asrwt>0</asrwt>
<pdfrwt beam="1">  1        2 0.20284053E+00 0.46136697E+03</pdfrwt>
<pdfrwt beam="2">  1       -2 0.30870298E-01 0.46136697E+03</pdfrwt>
<totfact> 0.16321446E+02</totfact>
</mgrwt>
</event>
<event>
 4    1  0.2318373E-002  0.4617627E+03  0.7818608E-02  0.1024271E+00
          2   -1    0    0  502    0  0.00000000000E+00  0.00000000000E+00  0.11005244932E+04  0.11005244932E+04  0.00000000000E+00 0.  1.
         -2   -1    0    0    0  501 -0.00000000000E+00 -0.00000000000E+00 -0.21381316790E+03  0.21381316790E+03  0.00000000000E+00 0. -1.
    9000005    1    1    2  502    0 -0.19826668768E+03  0.11796246571E+03  0.24204018478E+03  0.52135235092E+03  0.40000000000E+03 0. -1.
   -9000005    1    1    2    0  501  0.19826668768E+03 -0.11796246571E+03  0.64467114055E+03  0.79298531022E+03  0.40000000000E+03 0.  1.
<mgrwt>
<rscale>  2 0.46176273E+03</rscale>
<asrwt>0</asrwt>
<pdfrwt beam="1">  1        2 0.16931146E+00 0.46176273E+03</pdfrwt>
<pdfrwt beam="2">  1       -2 0.32894334E-01 0.46176273E+03</pdfrwt>
<totfact> 0.19413189E+02</totfact>
</mgrwt>
</event>
<event>
 4    1  0.2318373E-002  0.4092405E+03  0.7818608E-02  0.1040626E+00
          2   -1    0    0  502    0  0.00000000000E+00  0.00000000000E+00  0.16287230555E+04  0.16287230555E+04  0.00000000000E+00 0.  1.
         -2   -1    0    0    0  501 -0.00000000000E+00 -0.00000000000E+00 -0.10503507831E+03  0.10503507831E+03  0.00000000000E+00 0. -1.
    9000005    1    1    2  502    0 -0.19271186035E+02 -0.84299514275E+02  0.88751447173E+03  0.97732273290E+03  0.40000000000E+03 0.  1.
   -9000005    1    1    2    0  501  0.19271186035E+02  0.84299514275E+02  0.63617350550E+03  0.75643540095E+03  0.40000000000E+03 0. -1.
<mgrwt>
<rscale>  2 0.40924050E+03</rscale>
<asrwt>0</asrwt>
<pdfrwt beam="1">  1        2 0.25057276E+00 0.40924050E+03</pdfrwt>
<pdfrwt beam="2">  1       -2 0.16159244E-01 0.40924050E+03</pdfrwt>
<totfact> 0.34705312E+02</totfact>
</mgrwt>
</event>
<event>
 4    1  0.2318373E-002  0.4521939E+03  0.7818608E-02  0.1027070E+00
          2   -1    0    0  502    0  0.00000000000E+00  0.00000000000E+00  0.49187558098E+03  0.49187558098E+03  0.00000000000E+00 0.  1.
         -2   -1    0    0    0  501 -0.00000000000E+00 -0.00000000000E+00 -0.41585118561E+03  0.41585118561E+03  0.00000000000E+00 0. -1.
    9000005    1    1    2  502    0  0.20684699413E+03  0.41154385957E+02  0.29756341348E+02  0.45317193460E+03  0.40000000000E+03 0.  1.
   -9000005    1    1    2    0  501 -0.20684699413E+03 -0.41154385957E+02  0.46268054025E+02  0.45455483199E+03  0.40000000000E+03 0. -1.
<mgrwt>
<rscale>  2 0.45219394E+03</rscale>
<asrwt>0</asrwt>
<pdfrwt beam="1">  1        2 0.75673166E-01 0.45219394E+03</pdfrwt>
<pdfrwt beam="2">  1       -2 0.63977106E-01 0.45219394E+03</pdfrwt>
<totfact> 0.14569659E+02</totfact>
</mgrwt>
</event>
<event>
 4    1  0.2318373E-002  0.5858148E+03  0.7818608E-02  0.9935281E-01
          1   -1    0    0  502    0  0.00000000000E+00  0.00000000000E+00  0.29336195303E+03  0.29336195303E+03  0.00000000000E+00 0. -1.
         -1   -1    0    0    0  501 -0.00000000000E+00 -0.00000000000E+00 -0.13766182770E+04  0.13766182770E+04  0.00000000000E+00 0.  1.
    9000005    1    1    2  502    0  0.15082688846E+03 -0.40053743905E+03 -0.86526211186E+03  0.10449198594E+04  0.40000000000E+03 0.  1.
   -9000005    1    1    2    0  501 -0.15082688846E+03  0.40053743905E+03 -0.21799421206E+03  0.62506037057E+03  0.40000000000E+03 0. -1.
<mgrwt>
<rscale>  2 0.58581481E+03</rscale>
<asrwt>0</asrwt>
<pdfrwt beam="1">  1        1 0.45132608E-01 0.58581481E+03</pdfrwt>
<pdfrwt beam="2">  1       -1 0.21178743E+00 0.58581481E+03</pdfrwt>
<totfact> 0.11886895E+01</totfact>
</mgrwt>
</event>
<event>
 4    1  0.2318373E-002  0.4429037E+03  0.7818608E-02  0.1029860E+00
          2   -1    0    0  502    0  0.00000000000E+00  0.00000000000E+00  0.28479172778E+04  0.28479172778E+04  0.00000000000E+00 0. -1.
         -2   -1    0    0    0  501 -0.00000000000E+00 -0.00000000000E+00 -0.13459586956E+03  0.13459586956E+03  0.00000000000E+00 0.  1.
    9000005    1    1    2  502    0 -0.74389035262E+02  0.17501414089E+03  0.31464890483E+03  0.54329330144E+03  0.40000000000E+03 0.  1.
   -9000005    1    1    2    0  501  0.74389035262E+02 -0.17501414089E+03  0.23986725034E+04  0.24392198459E+04  0.40000000000E+03 0. -1.
<mgrwt>
<rscale>  2 0.44290369E+03</rscale>
<asrwt>0</asrwt>
<pdfrwt beam="1">  1        2 0.43814108E+00 0.44290369E+03</pdfrwt>
<pdfrwt beam="2">  1       -2 0.20707059E-01 0.44290369E+03</pdfrwt>
<totfact> 0.48304123E+01</totfact>
</mgrwt>
</event>
<event>
 4    1  0.2318373E-002  0.4045627E+03  0.7818608E-02  0.1042211E+00
         -2   -1    0    0    0  501 -0.00000000000E+00  0.00000000000E+00  0.18134579858E+04  0.18134579858E+04  0.00000000000E+00 0. -1.
          2   -1    0    0  502    0  0.00000000000E+00 -0.00000000000E+00 -0.11447239585E+03  0.11447239585E+03  0.00000000000E+00 0.  1.
    9000005    1    1    2  502    0  0.99330551747E+01 -0.59769141177E+02  0.12928846515E+04  0.13547035609E+04  0.40000000000E+03 0. -1.
   -9000005    1    1    2    0  501 -0.99330551747E+01  0.59769141177E+02  0.40610093843E+03  0.57322682074E+03  0.40000000000E+03 0.  1.
<mgrwt>
<rscale>  2 0.40456275E+03</rscale>
<asrwt>0</asrwt>
<pdfrwt beam="1">  1        2 0.17611139E-01 0.40456275E+03</pdfrwt>
<pdfrwt beam="2">  1       -2 0.27899351E+00 0.40456275E+03</pdfrwt>
<totfact> 0.15238017E+01</totfact>
</mgrwt>
</event>
<event>
 4    1  0.2318373E-002  0.4454858E+03  0.7818608E-02  0.1029077E+00
          1   -1    0    0  502    0  0.00000000000E+00  0.00000000000E+00  0.25144432275E+03  0.25144432275E+03  0.00000000000E+00 0. -1.
         -1   -1    0    0    0  501 -0.00000000000E+00 -0.00000000000E+00 -0.83869131265E+03  0.83869131265E+03  0.00000000000E+00 0.  1.
    9000005    1    1    2  502    0  0.19204173198E+03  0.39719190755E+02 -0.42593678110E+03  0.61634388326E+03  0.40000000000E+03 0.  1.
   -9000005    1    1    2    0  501 -0.19204173198E+03 -0.39719190755E+02 -0.16131020880E+03  0.47379175214E+03  0.40000000000E+03 0. -1.
<mgrwt>
<rscale>  2 0.44548585E+03</rscale>
<asrwt>0</asrwt>
<pdfrwt beam="1">  1        1 0.38683742E-01 0.44548585E+03</pdfrwt>
<pdfrwt beam="2">  1       -1 0.12902943E+00 0.44548585E+03</pdfrwt>
<totfact> 0.59787100E+01</totfact>
</mgrwt>
</event>
<event>
 4    1  0.2318373E-002  0.4324042E+03  0.7818608E-02  0.1033103E+00
          2   -1    0    0  502    0  0.00000000000E+00  0.00000000000E+00  0.66179049553E+03  0.66179049553E+03  0.00000000000E+00 0.  1.
         -2   -1    0    0    0  501 -0.00000000000E+00 -0.00000000000E+00 -0.44332047896E+03  0.44332047896E+03  0.00000000000E+00 0. -1.
    9000005    1    1    2  502    0  0.16299216316E+03 -0.20173040625E+02  0.44201085703E+03  0.61834213390E+03  0.40000000000E+03 0.  1.
   -9000005    1    1    2    0  501 -0.16299216316E+03  0.20173040625E+02 -0.22354084046E+03  0.48676884059E+03  0.40000000000E+03 0. -1.
<mgrwt>
<rscale>  2 0.43240421E+03</rscale>
<asrwt>0</asrwt>
<pdfrwt beam="1">  1        2 0.10181392E+00 0.43240421E+03</pdfrwt>
<pdfrwt beam="2">  1       -2 0.68203151E-01 0.43240421E+03</pdfrwt>
<totfact> 0.89803686E+01</totfact>
</mgrwt>
</event>
<event>
 4    1  0.2318373E-002  0.4163723E+03  0.7818608E-02  0.1038253E+00
          2   -1    0    0  502    0  0.00000000000E+00  0.00000000000E+00  0.10698698567E+04  0.10698698567E+04  0.00000000000E+00 0.  1.
         -2   -1    0    0    0  501 -0.00000000000E+00 -0.00000000000E+00 -0.16294817922E+03  0.16294817922E+03  0.00000000000E+00 0. -1.
    9000005    1    1    2  502    0  0.11246836438E+03  0.26772515463E+02  0.40754190455E+03  0.58262878794E+03  0.40000000000E+03 0.  1.
   -9000005    1    1    2    0  501 -0.11246836438E+03 -0.26772515463E+02  0.49937977291E+03  0.65018924796E+03  0.40000000000E+03 0.  1.
<mgrwt>
<rscale>  2 0.41637231E+03</rscale>
<asrwt>0</asrwt>
<pdfrwt beam="1">  1        2 0.16459536E+00 0.41637231E+03</pdfrwt>
<pdfrwt beam="2">  1       -2 0.25068951E-01 0.41637231E+03</pdfrwt>
<totfact> 0.33420567E+02</totfact>
</mgrwt>
</event>
<event>
 4    1  0.2318373E-002  0.5035540E+03  0.7818608E-02  0.1012855E+00
          2   -1    0    0  502    0  0.00000000000E+00  0.00000000000E+00  0.10209722297E+04  0.10209722297E+04  0.00000000000E+00 0.  1.
         -2   -1    0    0    0  501 -0.00000000000E+00 -0.00000000000E+00 -0.26867285656E+03  0.26867285656E+03  0.00000000000E+00 0. -1.
    9000005    1    1    2  502    0 -0.17694284690E+03 -0.24951528402E+03  0.55346037372E+03  0.74825465806E+03  0.40000000000E+03 0. -1.
   -9000005    1    1    2    0  501  0.17694284690E+03  0.24951528402E+03  0.19883899937E+03  0.54139042815E+03  0.40000000000E+03 0. -1.
<mgrwt>
<rscale>  2 0.50355402E+03</rscale>
<asrwt>0</asrwt>
<pdfrwt beam="1">  1        2 0.15707265E+00 0.50355402E+03</pdfrwt>
<pdfrwt beam="2">  1       -2 0.41334286E-01 0.50355402E+03</pdfrwt>
<totfact> 0.13984683E+02</totfact>
</mgrwt>
</event>
<event>
 4    1  0.2318373E-002  0.4165750E+03  0.7818608E-02  0.1038187E+00
         -1   -1    0    0    0  501 -0.00000000000E+00  0.00000000000E+00  0.27010327194E+03  0.27010327194E+03  0.00000000000E+00 0. -1.
          1   -1    0    0  502    0  0.00000000000E+00 -0.00000000000E+00 -0.70385004231E+03  0.70385004231E+03  0.00000000000E+00 0.  1.
    9000005    1    1    2  502    0 -0.47436215534E+02  0.10622883705E+03 -0.73072396989E+02  0.42293537989E+03  0.40000000000E+03 0. -1.
   -9000005    1    1    2    0  501  0.47436215534E+02 -0.10622883705E+03 -0.36067437339E+03  0.55101793436E+03  0.40000000000E+03 0.  1.
<mgrwt>
<rscale>  2 0.41657504E+03</rscale>
<asrwt>0</asrwt>
<pdfrwt beam="1">  1        1 0.10828462E+00 0.41657504E+03</pdfrwt>
<pdfrwt beam="2">  1       -1 0.41554350E-01 0.41657504E+03</pdfrwt>
<totfact> 0.15996645E+02</totfact>
</mgrwt>
</event>
<event>
 4    1  0.2318373E-002  0.4088770E+03  0.7818608E-02  0.1040749E+00
          1   -1    0    0  502    0  0.00000000000E+00  0.00000000000E+00  0.13279590588E+03  0.13279590588E+03  0.00000000000E+00 0. -1.
         -1   -1    0    0    0  501 -0.00000000000E+00 -0.00000000000E+00 -0.12744923520E+04  0.12744923520E+04  0.00000000000E+00 0.  1.
    9000005    1    1    2  502    0  0.24892733978E+02  0.80998599938E+02 -0.49308816591E+03  0.64055941235E+03  0.40000000000E+03 0. -1.
   -9000005    1    1    2    0  501 -0.24892733978E+02 -0.80998599938E+02 -0.64860828019E+03  0.76672884551E+03  0.40000000000E+03 0.  1.
<mgrwt>
<rscale>  2 0.40887702E+03</rscale>
<asrwt>0</asrwt>
<pdfrwt beam="1">  1        1 0.20430139E-01 0.40887702E+03</pdfrwt>
<pdfrwt beam="2">  1       -1 0.19607575E+00 0.40887702E+03</pdfrwt>
<totfact> 0.43299786E+01</totfact>
</mgrwt>
</event>
<event>
 4    1  0.2318373E-002  0.4211447E+03  0.7818608E-02  0.1036694E+00
         -1   -1    0    0    0  501 -0.00000000000E+00  0.00000000000E+00  0.39641818803E+03  0.39641818803E+03  0.00000000000E+00 0.  1.
          1   -1    0    0  502    0  0.00000000000E+00 -0.00000000000E+00 -0.45274574648E+03  0.45274574648E+03  0.00000000000E+00 0. -1.
    9000005    1    1    2  502    0  0.10840139238E+03  0.74913440430E+02 -0.74240940876E+02  0.42763840184E+03  0.40000000000E+03 0. -1.
   -9000005    1    1    2    0  501 -0.10840139238E+03 -0.74913440430E+02  0.17913382425E+02  0.42152553268E+03  0.40000000000E+03 0.  1.
<mgrwt>
<rscale>  2 0.42114473E+03</rscale>
<asrwt>0</asrwt>
<pdfrwt beam="1">  1        1 0.69653192E-01 0.42114473E+03</pdfrwt>
<pdfrwt beam="2">  1       -1 0.60987413E-01 0.42114473E+03</pdfrwt>
<totfact> 0.14408187E+02</totfact>
</mgrwt>
</event>
<event>
 4    1  0.2318373E-002  0.6183593E+03  0.7818608E-02  0.9868032E-01
          2   -1    0    0  502    0  0.00000000000E+00  0.00000000000E+00  0.15082297983E+03  0.15082297983E+03  0.00000000000E+00 0. -1.
         -2   -1    0    0    0  501 -0.00000000000E+00 -0.00000000000E+00 -0.25581672047E+04  0.25581672047E+04  0.00000000000E+00 0.  1.
    9000005    1    1    2  502    0  0.26821035636E+03  0.38785484067E+03 -0.13319810909E+04  0.14685168706E+04  0.40000000000E+03 0. -1.
   -9000005    1    1    2    0  501 -0.26821035636E+03 -0.38785484067E+03 -0.10753631340E+04  0.12404733140E+04  0.40000000000E+03 0.  1.
<mgrwt>
<rscale>  2 0.61835926E+03</rscale>
<asrwt>0</asrwt>
<pdfrwt beam="1">  1        2 0.23203537E-01 0.61835926E+03</pdfrwt>
<pdfrwt beam="2">  1       -2 0.39356416E+00 0.61835926E+03</pdfrwt>
<totfact> 0.21157044E+00</totfact>
</mgrwt>
</event>
<event>
 4    1  0.2318373E-002  0.4905117E+03  0.7818608E-02  0.1016286E+00
         -2   -1    0    0    0  501 -0.00000000000E+00  0.00000000000E+00  0.17201039050E+03  0.17201039050E+03  0.00000000000E+00 0.  1.
          2   -1    0    0  502    0  0.00000000000E+00 -0.00000000000E+00 -0.15988013522E+04  0.15988013522E+04  0.00000000000E+00 0. -1.
    9000005    1    1    2  502    0  0.41874339470E+02 -0.28079926585E+03 -0.40020951346E+03  0.63306345865E+03  0.40000000000E+03 0.  1.
   -9000005    1    1    2    0  501 -0.41874339470E+02  0.28079926585E+03 -0.10265814482E+04  0.11377482841E+04  0.40000000000E+03 0. -1.
<mgrwt>
<rscale>  2 0.49051166E+03</rscale>
<asrwt>0</asrwt>
<pdfrwt beam="1">  1        2 0.24596943E+00 0.49051166E+03</pdfrwt>
<pdfrwt beam="2">  1       -2 0.26463137E-01 0.49051166E+03</pdfrwt>
<totfact> 0.15090819E+02</totfact>
</mgrwt>
</event>
<event>
 4    1  0.2318373E-002  0.4491124E+03  0.7818608E-02  0.1027987E+00
         -2   -1    0    0    0  501 -0.00000000000E+00  0.00000000000E+00  0.23095213128E+04  0.23095213128E+04  0.00000000000E+00 0.  1.
          2   -1    0    0  502    0  0.00000000000E+00 -0.00000000000E+00 -0.89192502507E+02  0.89192502507E+02  0.00000000000E+00 0. -1.
    9000005    1    1    2  502    0  0.11038124679E+03 -0.17180794189E+03  0.12832463516E+04  0.13595672795E+04  0.40000000000E+03 0. -1.
   -9000005    1    1    2    0  501 -0.11038124679E+03  0.17180794189E+03  0.93708245873E+03  0.10391465359E+04  0.40000000000E+03 0. -1.
<mgrwt>
<rscale>  2 0.44911245E+03</rscale>
<asrwt>0</asrwt>
<pdfrwt beam="1">  1        2 0.13721925E-01 0.44911245E+03</pdfrwt>
<pdfrwt beam="2">  1       -2 0.35531093E+00 0.44911245E+03</pdfrwt>
<totfact> 0.71054609E+00</totfact>
</mgrwt>
</event>
<event>
 4    1  0.2318373E-002  0.6107571E+03  0.7818608E-02  0.9883336E-01
          1   -1    0    0  502    0  0.00000000000E+00  0.00000000000E+00  0.64779751906E+03  0.64779751906E+03  0.00000000000E+00 0.  1.
         -1   -1    0    0    0  501 -0.00000000000E+00 -0.00000000000E+00 -0.63401531779E+03  0.63401531779E+03  0.00000000000E+00 0. -1.
    9000005    1    1    2  502    0  0.25071802954E+03 -0.38751095088E+03  0.20103960104E+03  0.64299392577E+03  0.40000000000E+03 0.  1.
   -9000005    1    1    2    0  501 -0.25071802954E+03  0.38751095088E+03 -0.18725739977E+03  0.63881891108E+03  0.40000000000E+03 0. -1.
<mgrwt>
<rscale>  2 0.61075713E+03</rscale>
<asrwt>0</asrwt>
<pdfrwt beam="1">  1        1 0.99661157E-01 0.61075713E+03</pdfrwt>
<pdfrwt beam="2">  1       -1 0.97540818E-01 0.61075713E+03</pdfrwt>
<totfact> 0.32121231E+01</totfact>
</mgrwt>
</event>
<event>
 4    1  0.2318373E-002  0.5247923E+03  0.7818608E-02  0.1007503E+00
          1   -1    0    0  502    0  0.00000000000E+00  0.00000000000E+00  0.16904061087E+04  0.16904061087E+04  0.00000000000E+00 0. -1.
         -1   -1    0    0    0  501 -0.00000000000E+00 -0.00000000000E+00 -0.19361167760E+03  0.19361167760E+03  0.00000000000E+00 0.  1.
    9000005    1    1    2  502    0  0.14122136430E+03 -0.30897159790E+03  0.11234346342E+04  0.12399646363E+04  0.40000000000E+03 0.  1.
   -9000005    1    1    2    0  501 -0.14122136430E+03  0.30897159790E+03  0.37335979695E+03  0.64405315000E+03  0.40000000000E+03 0. -1.
<mgrwt>
<rscale>  2 0.52479227E+03</rscale>
<asrwt>0</asrwt>
<pdfrwt beam="1">  1        1 0.26006247E+00 0.52479227E+03</pdfrwt>
<pdfrwt beam="2">  1       -1 0.29786413E-01 0.52479227E+03</pdfrwt>
<totfact> 0.53040746E+01</totfact>
</mgrwt>
</event>
<event>
 4    1  0.2318373E-002  0.4392064E+03  0.7818608E-02  0.1030991E+00
          2   -1    0    0  502    0  0.00000000000E+00  0.00000000000E+00  0.31212921714E+04  0.31212921714E+04  0.00000000000E+00 0. -1.
         -2   -1    0    0    0  501 -0.00000000000E+00 -0.00000000000E+00 -0.68947806594E+02  0.68947806594E+02  0.00000000000E+00 0.  1.
    9000005    1    1    2  502    0 -0.89632501861E+02 -0.15769690773E+03  0.20396915156E+04  0.20864428531E+04  0.40000000000E+03 0. -1.
   -9000005    1    1    2    0  501  0.89632501861E+02  0.15769690773E+03  0.10126528492E+04  0.11037971249E+04  0.40000000000E+03 0.  1.
<mgrwt>
<rscale>  2 0.43920644E+03</rscale>
<asrwt>0</asrwt>
<pdfrwt beam="1">  1        2 0.48019868E+00 0.43920644E+03</pdfrwt>
<pdfrwt beam="2">  1       -2 0.10607357E-01 0.43920644E+03</pdfrwt>
<totfact> 0.10160923E+02</totfact>
</mgrwt>
</event>
<event>
 4    1  0.2318373E-002  0.4668361E+03  0.7818608E-02  0.1022817E+00
         -1   -1    0    0    0  501 -0.00000000000E+00  0.00000000000E+00  0.40630790286E+03  0.40630790286E+03  0.00000000000E+00 0. -1.
          1   -1    0    0  502    0  0.00000000000E+00 -0.00000000000E+00 -0.57759748193E+03  0.57759748193E+03  0.00000000000E+00 0.  1.
    9000005    1    1    2  502    0 -0.18222980490E+03 -0.15725205612E+03 -0.21705987630E+03  0.51483094395E+03  0.40000000000E+03 0. -1.
   -9000005    1    1    2    0  501  0.18222980490E+03  0.15725205612E+03  0.45770297225E+02  0.46907444085E+03  0.40000000000E+03 0.  1.
<mgrwt>
<rscale>  2 0.46683606E+03</rscale>
<asrwt>0</asrwt>
<pdfrwt beam="1">  1        1 0.88861151E-01 0.46683606E+03</pdfrwt>
<pdfrwt beam="2">  1       -1 0.62508908E-01 0.46683606E+03</pdfrwt>
<totfact> 0.98028575E+01</totfact>
</mgrwt>
</event>
<event>
 4    1  0.2318373E-002  0.4805196E+03  0.7818608E-02  0.1018992E+00
         -2   -1    0    0    0  501 -0.00000000000E+00  0.00000000000E+00  0.26850870235E+03  0.26850870235E+03  0.00000000000E+00 0. -1.
          2   -1    0    0  502    0  0.00000000000E+00 -0.00000000000E+00 -0.10070790258E+04  0.10070790258E+04  0.00000000000E+00 0.  1.
    9000005    1    1    2  502    0  0.24559944908E+03  0.10285907219E+03 -0.12548998174E+03  0.49663549374E+03  0.40000000000E+03 0. -1.
   -9000005    1    1    2    0  501 -0.24559944908E+03 -0.10285907219E+03 -0.61308034172E+03  0.77895223443E+03  0.40000000000E+03 0.  1.
<mgrwt>
<rscale>  2 0.48051959E+03</rscale>
<asrwt>0</asrwt>
<pdfrwt beam="1">  1        2 0.15493524E+00 0.48051959E+03</pdfrwt>
<pdfrwt beam="2">  1       -2 0.41309031E-01 0.48051959E+03</pdfrwt>
<totfact> 0.14317188E+02</totfact>
</mgrwt>
</event>
<event>
 4    1  0.2318373E-002  0.4077740E+03  0.7818608E-02  0.1041121E+00
         -1   -1    0    0    0  501 -0.00000000000E+00  0.00000000000E+00  0.47142719619E+03  0.47142719619E+03  0.00000000000E+00 0. -1.
          1   -1    0    0  502    0  0.00000000000E+00 -0.00000000000E+00 -0.35336603732E+03  0.35336603732E+03  0.00000000000E+00 0.  1.
    9000005    1    1    2  502    0  0.74562304601E+02  0.26835143627E+02  0.41335567981E+02  0.40986374734E+03  0.40000000000E+03 0.  1.
   -9000005    1    1    2    0  501 -0.74562304601E+02 -0.26835143627E+02  0.76725590886E+02  0.41492948618E+03  0.40000000000E+03 0. -1.
<mgrwt>
<rscale>  2 0.40777403E+03</rscale>
<asrwt>0</asrwt>
<pdfrwt beam="1">  1        1 0.54364006E-01 0.40777403E+03</pdfrwt>
<pdfrwt beam="2">  1       -1 0.72527261E-01 0.40777403E+03</pdfrwt>
<totfact> 0.14108134E+02</totfact>
</mgrwt>
</event>
<event>
 4    1  0.2318373E-002  0.4382642E+03  0.7818608E-02  0.1031281E+00
         -1   -1    0    0    0  501 -0.00000000000E+00  0.00000000000E+00  0.93274725300E+02  0.93274725300E+02  0.00000000000E+00 0.  1.
          1   -1    0    0  502    0  0.00000000000E+00 -0.00000000000E+00 -0.25850776174E+04  0.25850776174E+04  0.00000000000E+00 0. -1.
    9000005    1    1    2  502    0  0.17903235157E+03 -0.47844552664E+01 -0.18498846305E+04  0.19010914287E+04  0.40000000000E+03 0. -1.
   -9000005    1    1    2    0  501 -0.17903235157E+03  0.47844552664E+01 -0.64191826153E+03  0.77726091398E+03  0.40000000000E+03 0.  1.
<mgrwt>
<rscale>  2 0.43826416E+03</rscale>
<asrwt>0</asrwt>
<pdfrwt beam="1">  1        1 0.39770428E+00 0.43826416E+03</pdfrwt>
<pdfrwt beam="2">  1       -1 0.14349957E-01 0.43826416E+03</pdfrwt>
<totfact> 0.46012059E+01</totfact>
</mgrwt>
</event>
<event>
 4    1  0.2318373E-002  0.5720607E+03  0.7818608E-02  0.9965129E-01
         -2   -1    0    0    0  501 -0.00000000000E+00  0.00000000000E+00  0.52297963779E+03  0.52297963779E+03  0.00000000000E+00 0.  1.
          2   -1    0    0  502    0  0.00000000000E+00 -0.00000000000E+00 -0.63011753897E+03  0.63011753897E+03  0.00000000000E+00 0. -1.
    9000005    1    1    2  502    0 -0.35156949101E+03 -0.20893151831E+03 -0.55579606887E+01  0.57208773565E+03  0.40000000000E+03 0.  1.
   -9000005    1    1    2    0  501  0.35156949101E+03  0.20893151831E+03 -0.10157994049E+03  0.58100944111E+03  0.40000000000E+03 0. -1.
<mgrwt>
<rscale>  2 0.57206074E+03</rscale>
<asrwt>0</asrwt>
<pdfrwt beam="1">  1        2 0.96941159E-01 0.57206074E+03</pdfrwt>
<pdfrwt beam="2">  1       -2 0.80458406E-01 0.57206074E+03</pdfrwt>
<totfact> 0.65415879E+01</totfact>
</mgrwt>
</event>
<event>
 4    1  0.2318373E-002  0.4437468E+03  0.7818608E-02  0.1029603E+00
          1   -1    0    0  502    0  0.00000000000E+00  0.00000000000E+00  0.10655142632E+04  0.10655142632E+04  0.00000000000E+00 0. -1.
         -1   -1    0    0    0  501 -0.00000000000E+00 -0.00000000000E+00 -0.20046519631E+03  0.20046519631E+03  0.00000000000E+00 0.  1.
    9000005    1    1    2  502    0  0.10349507136E+03  0.16186422093E+03  0.25559913348E+03  0.51209586295E+03  0.40000000000E+03 0.  1.
   -9000005    1    1    2    0  501 -0.10349507136E+03 -0.16186422093E+03  0.60944993338E+03  0.75388359652E+03  0.40000000000E+03 0.  1.
<mgrwt>
<rscale>  2 0.44374684E+03</rscale>
<asrwt>0</asrwt>
<pdfrwt beam="1">  1        1 0.16392527E+00 0.44374684E+03</pdfrwt>
<pdfrwt beam="2">  1       -1 0.30840800E-01 0.44374684E+03</pdfrwt>
<totfact> 0.13707673E+02</totfact>
</mgrwt>
</event>
<event>
 4    1  0.2318373E-002  0.4194882E+03  0.7818608E-02  0.1037233E+00
         -2   -1    0    0    0  501 -0.00000000000E+00  0.00000000000E+00  0.28021395464E+03  0.28021395464E+03  0.00000000000E+00 0. -1.
          2   -1    0    0  502    0  0.00000000000E+00 -0.00000000000E+00 -0.63749254656E+03  0.63749254656E+03  0.00000000000E+00 0.  1.
    9000005    1    1    2  502    0 -0.10473430492E+03 -0.70718479094E+02 -0.23467344099E+03  0.48066828668E+03  0.40000000000E+03 0.  1.
   -9000005    1    1    2    0  501  0.10473430492E+03  0.70718479094E+02 -0.12260515092E+03  0.43703821451E+03  0.40000000000E+03 0.  1.
<mgrwt>
<rscale>  2 0.41948823E+03</rscale>
<asrwt>0</asrwt>
<pdfrwt beam="1">  1        2 0.98075776E-01 0.41948823E+03</pdfrwt>
<pdfrwt beam="2">  1       -2 0.43109840E-01 0.41948823E+03</pdfrwt>
<totfact> 0.24122502E+02</totfact>
</mgrwt>
</event>
<event>
 4    1  0.2318373E-002  0.4337823E+03  0.7818608E-02  0.1032672E+00
          2   -1    0    0  502    0  0.00000000000E+00  0.00000000000E+00  0.39365870969E+04  0.39365870969E+04  0.00000000000E+00 0. -1.
         -2   -1    0    0    0  501 -0.00000000000E+00 -0.00000000000E+00 -0.51229009152E+02  0.51229009152E+02  0.00000000000E+00 0.  1.
    9000005    1    1    2  502    0 -0.88833928960E+02 -0.14239236966E+03  0.24585731617E+04  0.24965474250E+04  0.40000000000E+03 0. -1.
   -9000005    1    1    2    0  501  0.88833928960E+02  0.14239236966E+03  0.14267849261E+04  0.14912686811E+04  0.40000000000E+03 0.  1.
<mgrwt>
<rscale>  2 0.43378227E+03</rscale>
<asrwt>0</asrwt>
<pdfrwt beam="1">  1        2 0.60562855E+00 0.43378227E+03</pdfrwt>
<pdfrwt beam="2">  1       -2 0.78813891E-02 0.43378227E+03</pdfrwt>
<totfact> 0.45602064E+01</totfact>
</mgrwt>
</event>
<event>
 4    1  0.2318373E-002  0.4447818E+03  0.7818608E-02  0.1029290E+00
         -1   -1    0    0    0  501 -0.00000000000E+00  0.00000000000E+00  0.20669061308E+03  0.20669061308E+03  0.00000000000E+00 0. -1.
          1   -1    0    0  502    0  0.00000000000E+00 -0.00000000000E+00 -0.10771822982E+04  0.10771822982E+04  0.00000000000E+00 0.  1.
    9000005    1    1    2  502    0  0.11820762703E+03  0.15445966932E+03 -0.64954650870E+03  0.78723662231E+03  0.40000000000E+03 0.  1.
   -9000005    1    1    2    0  501 -0.11820762703E+03 -0.15445966932E+03 -0.22094517641E+03  0.49663628896E+03  0.40000000000E+03 0. -1.
<mgrwt>
<rscale>  2 0.44478178E+03</rscale>
<asrwt>0</asrwt>
<pdfrwt beam="1">  1        1 0.16572035E+00 0.44478178E+03</pdfrwt>
<pdfrwt beam="2">  1       -1 0.31798557E-01 0.44478178E+03</pdfrwt>
<totfact> 0.12740821E+02</totfact>
</mgrwt>
</event>
<event>
 4    1  0.2318373E-002  0.8253727E+03  0.7818608E-02  0.9524000E-01
         -1   -1    0    0    0  501 -0.00000000000E+00  0.00000000000E+00  0.12243405566E+04  0.12243405566E+04  0.00000000000E+00 0.  1.
          1   -1    0    0  502    0  0.00000000000E+00 -0.00000000000E+00 -0.56108495722E+03  0.56108495722E+03  0.00000000000E+00 0. -1.
    9000005    1    1    2  502    0  0.61430852501E+03 -0.37929555262E+03  0.25017501639E+03  0.86245441558E+03  0.40000000000E+03 0.  1.
   -9000005    1    1    2    0  501 -0.61430852501E+03  0.37929555262E+03  0.41308058298E+03  0.92297109823E+03  0.40000000000E+03 0. -1.
<mgrwt>
<rscale>  2 0.82537269E+03</rscale>
<asrwt>0</asrwt>
<pdfrwt beam="1">  1        1 0.86320763E-01 0.82537269E+03</pdfrwt>
<pdfrwt beam="2">  1       -1 0.18836009E+00 0.82537269E+03</pdfrwt>
<totfact> 0.70024109E+00</totfact>
</mgrwt>
</event>
<event>
 4    1  0.2318373E-002  0.4322946E+03  0.7818608E-02  0.1033138E+00
         -2   -1    0    0    0  501 -0.00000000000E+00  0.00000000000E+00  0.11442037668E+04  0.11442037668E+04  0.00000000000E+00 0. -1.
          2   -1    0    0  502    0  0.00000000000E+00 -0.00000000000E+00 -0.16355434852E+03  0.16355434852E+03  0.00000000000E+00 0.  1.
    9000005    1    1    2  502    0  0.21010765821E+02  0.16259515813E+03  0.46591167792E+03  0.63557244225E+03  0.40000000000E+03 0. -1.
   -9000005    1    1    2    0  501 -0.21010765821E+02 -0.16259515813E+03  0.51473774035E+03  0.67218567306E+03  0.40000000000E+03 0.  1.
<mgrwt>
<rscale>  2 0.43229462E+03</rscale>
<asrwt>0</asrwt>
<pdfrwt beam="1">  1        2 0.25162208E-01 0.43229462E+03</pdfrwt>
<pdfrwt beam="2">  1       -2 0.17603134E+00 0.43229462E+03</pdfrwt>
<totfact> 0.43608011E+01</totfact>
</mgrwt>
</event>
<event>
 4    1  0.2318373E-002  0.5853608E+03  0.7818608E-02  0.9936252E-01
          1   -1    0    0  502    0  0.00000000000E+00  0.00000000000E+00  0.93306843978E+03  0.93306843978E+03  0.00000000000E+00 0.  1.
         -1   -1    0    0    0  501 -0.00000000000E+00 -0.00000000000E+00 -0.52075886569E+03  0.52075886569E+03  0.00000000000E+00 0. -1.
    9000005    1    1    2  502    0  0.13390052347E+03  0.40585448429E+03 -0.18854312731E+03  0.61497619747E+03  0.40000000000E+03 0. -1.
   -9000005    1    1    2    0  501 -0.13390052347E+03 -0.40585448429E+03  0.60085270140E+03  0.83885110799E+03  0.40000000000E+03 0.  1.
<mgrwt>
<rscale>  2 0.58536075E+03</rscale>
<asrwt>0</asrwt>
<pdfrwt beam="1">  1        1 0.14354899E+00 0.58536075E+03</pdfrwt>
<pdfrwt beam="2">  1       -1 0.80116748E-01 0.58536075E+03</pdfrwt>
<totfact> 0.27886210E+01</totfact>
</mgrwt>
</event>
<event>
 4    1  0.2318373E-002  0.5991644E+03  0.7818608E-02  0.9907141E-01
          1   -1    0    0  502    0  0.00000000000E+00  0.00000000000E+00  0.63851455425E+03  0.63851455425E+03  0.00000000000E+00 0. -1.
         -1   -1    0    0    0  501 -0.00000000000E+00 -0.00000000000E+00 -0.57198606611E+03  0.57198606611E+03  0.00000000000E+00 0.  1.
    9000005    1    1    2  502    0  0.19858075189E+03  0.39945426160E+03 -0.45743736132E+02  0.60090807244E+03  0.40000000000E+03 0. -1.
   -9000005    1    1    2    0  501 -0.19858075189E+03 -0.39945426160E+03  0.11227222426E+03  0.60959254792E+03  0.40000000000E+03 0.  1.
<mgrwt>
<rscale>  2 0.59916444E+03</rscale>
<asrwt>0</asrwt>
<pdfrwt beam="1">  1        1 0.98233008E-01 0.59916444E+03</pdfrwt>
<pdfrwt beam="2">  1       -1 0.87997857E-01 0.59916444E+03</pdfrwt>
<totfact> 0.41251383E+01</totfact>
</mgrwt>
</event>
<event>
 4    1  0.2318373E-002  0.5756207E+03  0.7818608E-02  0.9957317E-01
          3   -1    0    0  502    0  0.00000000000E+00  0.00000000000E+00  0.65725236972E+03  0.65725236972E+03  0.00000000000E+00 0.  1.
         -3   -1    0    0    0  501 -0.00000000000E+00 -0.00000000000E+00 -0.56091821904E+03  0.56091821904E+03  0.00000000000E+00 0. -1.
    9000005    1    1    2  502    0 -0.23798537353E+03 -0.33867701069E+03  0.24197256951E+03  0.62441162704E+03  0.40000000000E+03 0.  1.
   -9000005    1    1    2    0  501  0.23798537353E+03  0.33867701069E+03 -0.14563841883E+03  0.59375896172E+03  0.40000000000E+03 0. -1.
<mgrwt>
<rscale>  2 0.57562067E+03</rscale>
<asrwt>0</asrwt>
<pdfrwt beam="1">  1        3 0.10111575E+00 0.57562067E+03</pdfrwt>
<pdfrwt beam="2">  1       -3 0.86295111E-01 0.57562067E+03</pdfrwt>
<totfact> 0.27314752E+00</totfact>
</mgrwt>
</event>
<event>
 4    1  0.2318373E-002  0.4091360E+03  0.7818608E-02  0.1040661E+00
         -2   -1    0    0    0  501 -0.00000000000E+00  0.00000000000E+00  0.10393594422E+03  0.10393594422E+03  0.00000000000E+00 0. -1.
          2   -1    0    0  502    0  0.00000000000E+00 -0.00000000000E+00 -0.16130009406E+04  0.16130009406E+04  0.00000000000E+00 0.  1.
    9000005    1    1    2  502    0  0.85962860760E+02  0.16191655636E+01 -0.78811416425E+03  0.88798433039E+03  0.40000000000E+03 0.  1.
   -9000005    1    1    2    0  501 -0.85962860760E+02 -0.16191655636E+01 -0.72095083209E+03  0.82895255438E+03  0.40000000000E+03 0. -1.
<mgrwt>
<rscale>  2 0.40913596E+03</rscale>
<asrwt>0</asrwt>
<pdfrwt beam="1">  1        2 0.24815397E+00 0.40913596E+03</pdfrwt>
<pdfrwt beam="2">  1       -2 0.15990147E-01 0.40913596E+03</pdfrwt>
<totfact> 0.36022024E+02</totfact>
</mgrwt>
</event>
<event>
 4    1  0.2318373E-002  0.4413147E+03  0.7818608E-02  0.1030344E+00
         -2   -1    0    0    0  501 -0.00000000000E+00  0.00000000000E+00  0.23220297339E+03  0.23220297339E+03  0.00000000000E+00 0. -1.
          2   -1    0    0  502    0  0.00000000000E+00 -0.00000000000E+00 -0.89968854079E+03  0.89968854079E+03  0.00000000000E+00 0.  1.
    9000005    1    1    2  502    0 -0.15427181690E+03 -0.10468448552E+03 -0.48104165821E+03  0.65280909302E+03  0.40000000000E+03 0.  1.
   -9000005    1    1    2    0  501  0.15427181690E+03  0.10468448552E+03 -0.18644390919E+03  0.47908242117E+03  0.40000000000E+03 0.  1.
<mgrwt>
<rscale>  2 0.44131467E+03</rscale>
<asrwt>0</asrwt>
<pdfrwt beam="1">  1        2 0.13841362E+00 0.44131467E+03</pdfrwt>
<pdfrwt beam="2">  1       -2 0.35723534E-01 0.44131467E+03</pdfrwt>
<totfact> 0.22268029E+02</totfact>
</mgrwt>
</event>
<event>
 4    1  0.2318373E-002  0.5012696E+03  0.7818608E-02  0.1013448E+00
         -1   -1    0    0    0  501 -0.00000000000E+00  0.00000000000E+00  0.13214065484E+03  0.13214065484E+03  0.00000000000E+00 0. -1.
          1   -1    0    0  502    0  0.00000000000E+00 -0.00000000000E+00 -0.19395028368E+04  0.19395028368E+04  0.00000000000E+00 0.  1.
    9000005    1    1    2  502    0 -0.22647265935E+03  0.19995343545E+03 -0.10485907909E+04  0.11622451930E+04  0.40000000000E+03 0. -1.
   -9000005    1    1    2    0  501  0.22647265935E+03 -0.19995343545E+03 -0.75877139105E+03  0.90939829869E+03  0.40000000000E+03 0. -1.
<mgrwt>
<rscale>  2 0.50126963E+03</rscale>
<asrwt>0</asrwt>
<pdfrwt beam="1">  1        1 0.29838503E+00 0.50126963E+03</pdfrwt>
<pdfrwt beam="2">  1       -1 0.20329333E-01 0.50126963E+03</pdfrwt>
<totfact> 0.69433402E+01</totfact>
</mgrwt>
</event>
<event>
 4    1  0.2318373E-002  0.4470617E+03  0.7818608E-02  0.1028602E+00
          1   -1    0    0  502    0  0.00000000000E+00  0.00000000000E+00  0.23221501876E+04  0.23221501876E+04  0.00000000000E+00 0.  1.
         -1   -1    0    0    0  501 -0.00000000000E+00 -0.00000000000E+00 -0.10209626533E+03  0.10209626533E+03  0.00000000000E+00 0. -1.
    9000005    1    1    2  502    0 -0.18224162308E+03  0.81560676214E+02  0.62976593675E+03  0.77231424186E+03  0.40000000000E+03 0. -1.
   -9000005    1    1    2    0  501  0.18224162308E+03 -0.81560676214E+02  0.15902879855E+04  0.16519322111E+04  0.40000000000E+03 0.  1.
<mgrwt>
<rscale>  2 0.44706169E+03</rscale>
<asrwt>0</asrwt>
<pdfrwt beam="1">  1        1 0.35725384E+00 0.44706169E+03</pdfrwt>
<pdfrwt beam="2">  1       -1 0.15707119E-01 0.44706169E+03</pdfrwt>
<totfact> 0.59640746E+01</totfact>
</mgrwt>
</event>
<event>
 4    1  0.2318373E-002  0.4376945E+03  0.7818608E-02  0.1031457E+00
         -2   -1    0    0    0  501 -0.00000000000E+00  0.00000000000E+00  0.15174555115E+03  0.15174555115E+03  0.00000000000E+00 0.  1.
          2   -1    0    0  502    0  0.00000000000E+00 -0.00000000000E+00 -0.12981355935E+04  0.12981355935E+04  0.00000000000E+00 0. -1.
    9000005    1    1    2  502    0  0.14540663092E+03  0.10214414630E+03 -0.69333137392E+03  0.81992981956E+03  0.40000000000E+03 0. -1.
   -9000005    1    1    2    0  501 -0.14540663092E+03 -0.10214414630E+03 -0.45305866844E+03  0.62995132510E+03  0.40000000000E+03 0.  1.
<mgrwt>
<rscale>  2 0.43769455E+03</rscale>
<asrwt>0</asrwt>
<pdfrwt beam="1">  1        2 0.19971317E+00 0.43769455E+03</pdfrwt>
<pdfrwt beam="2">  1       -2 0.23345469E-01 0.43769455E+03</pdfrwt>
<totfact> 0.27851169E+02</totfact>
</mgrwt>
</event>
<event>
 4    1  0.2318373E-002  0.4151142E+03  0.7818608E-02  0.1038668E+00
         -2   -1    0    0    0  501 -0.00000000000E+00  0.00000000000E+00  0.26155067641E+03  0.26155067641E+03  0.00000000000E+00 0. -1.
          2   -1    0    0  502    0  0.00000000000E+00 -0.00000000000E+00 -0.66175550104E+03  0.66175550104E+03  0.00000000000E+00 0.  1.
    9000005    1    1    2  502    0 -0.72159028135E+02 -0.84337796565E+02 -0.16945476587E+03  0.44836894066E+03  0.40000000000E+03 0. -1.
   -9000005    1    1    2    0  501  0.72159028135E+02  0.84337796565E+02 -0.23075005877E+03  0.47493723679E+03  0.40000000000E+03 0. -1.
<mgrwt>
<rscale>  2 0.41511419E+03</rscale>
<asrwt>0</asrwt>
<pdfrwt beam="1">  1        2 0.10180854E+00 0.41511419E+03</pdfrwt>
<pdfrwt beam="2">  1       -2 0.40238566E-01 0.41511419E+03</pdfrwt>
<totfact> 0.26374325E+02</totfact>
</mgrwt>
</event>
<event>
 4    1  0.2318373E-002  0.4006713E+03  0.7818608E-02  0.1043547E+00
         -2   -1    0    0    0  501 -0.00000000000E+00  0.00000000000E+00  0.25433773850E+03  0.25433773850E+03  0.00000000000E+00 0.  1.
          2   -1    0    0  502    0  0.00000000000E+00 -0.00000000000E+00 -0.64319192975E+03  0.64319192975E+03  0.00000000000E+00 0. -1.
    9000005    1    1    2  502    0  0.18451101245E+02 -0.14038290043E+02 -0.13314606205E+03  0.42221486303E+03  0.40000000000E+03 0.  1.
   -9000005    1    1    2    0  501 -0.18451101245E+02  0.14038290043E+02 -0.25570812920E+03  0.47531480522E+03  0.40000000000E+03 0. -1.
<mgrwt>
<rscale>  2 0.40067133E+03</rscale>
<asrwt>0</asrwt>
<pdfrwt beam="1">  1        2 0.98952604E-01 0.40067133E+03</pdfrwt>
<pdfrwt beam="2">  1       -2 0.39128883E-01 0.40067133E+03</pdfrwt>
<totfact> 0.28839403E+02</totfact>
</mgrwt>
</event>
<event>
 4    1  0.2318373E-002  0.5675388E+03  0.7818608E-02  0.9975140E-01
         -1   -1    0    0    0  501 -0.00000000000E+00  0.00000000000E+00  0.80182441266E+03  0.80182441266E+03  0.00000000000E+00 0. -1.
          1   -1    0    0  502    0  0.00000000000E+00 -0.00000000000E+00 -0.47864182051E+03  0.47864182051E+03  0.00000000000E+00 0.  1.
    9000005    1    1    2  502    0 -0.18652015362E+03 -0.35680602084E+03 -0.95086240433E+02  0.57544912663E+03  0.40000000000E+03 0.  1.
   -9000005    1    1    2    0  501  0.18652015362E+03  0.35680602084E+03  0.41826883258E+03  0.70501710654E+03  0.40000000000E+03 0. -1.
<mgrwt>
<rscale>  2 0.56753881E+03</rscale>
<asrwt>0</asrwt>
<pdfrwt beam="1">  1        1 0.73637203E-01 0.56753881E+03</pdfrwt>
<pdfrwt beam="2">  1       -1 0.12335760E+00 0.56753881E+03</pdfrwt>
<totfact> 0.28457660E+01</totfact>
</mgrwt>
</event>
<event>
 4    1  0.2318373E-002  0.4337151E+03  0.7818608E-02  0.1032693E+00
          1   -1    0    0  502    0  0.00000000000E+00  0.00000000000E+00  0.21877099473E+04  0.21877099473E+04  0.00000000000E+00 0.  1.
         -1   -1    0    0    0  501 -0.00000000000E+00 -0.00000000000E+00 -0.88134029665E+02  0.88134029665E+02  0.00000000000E+00 0. -1.
    9000005    1    1    2  502    0  0.12336288706E+03 -0.11353600716E+03  0.87207171166E+03  0.97397017259E+03  0.40000000000E+03 0.  1.
   -9000005    1    1    2    0  501 -0.12336288706E+03  0.11353600716E+03  0.12275042060E+04  0.13018738044E+04  0.40000000000E+03 0.  1.
<mgrwt>
<rscale>  2 0.43371514E+03</rscale>
<asrwt>0</asrwt>
<pdfrwt beam="1">  1        1 0.33657072E+00 0.43371514E+03</pdfrwt>
<pdfrwt beam="2">  1       -1 0.13559083E-01 0.43371514E+03</pdfrwt>
<totfact> 0.93008930E+01</totfact>
</mgrwt>
</event>
<event>
 4    1  0.2318373E-002  0.4030246E+03  0.7818608E-02  0.1042737E+00
          2   -1    0    0  502    0  0.00000000000E+00  0.00000000000E+00  0.13003503270E+04  0.13003503270E+04  0.00000000000E+00 0.  1.
         -2   -1    0    0    0  501 -0.00000000000E+00 -0.00000000000E+00 -0.21285083450E+03  0.21285083450E+03  0.00000000000E+00 0. -1.
    9000005    1    1    2  502    0 -0.35185119600E+02  0.34508380509E+02  0.57431719656E+02  0.40709608619E+03  0.40000000000E+03 0. -1.
   -9000005    1    1    2    0  501  0.35185119600E+02 -0.34508380509E+02  0.10300677728E+04  0.11061050753E+04  0.40000000000E+03 0.  1.
<mgrwt>
<rscale>  2 0.40302459E+03</rscale>
<asrwt>0</asrwt>
<pdfrwt beam="1">  1        2 0.20005389E+00 0.40302459E+03</pdfrwt>
<pdfrwt beam="2">  1       -2 0.32746283E-01 0.40302459E+03</pdfrwt>
<totfact> 0.15089399E+02</totfact>
</mgrwt>
</event>
<event>
 4    1  0.2318373E-002  0.4059282E+03  0.7818608E-02  0.1041746E+00
          3   -1    0    0  502    0  0.00000000000E+00  0.00000000000E+00  0.15223574298E+04  0.15223574298E+04  0.00000000000E+00 0. -1.
         -3   -1    0    0    0  501 -0.00000000000E+00 -0.00000000000E+00 -0.14915413578E+03  0.14915413578E+03  0.00000000000E+00 0.  1.
    9000005    1    1    2  502    0 -0.30366344453E+02 -0.62093209418E+02  0.11243317387E+04  0.11953658604E+04  0.40000000000E+03 0. -1.
   -9000005    1    1    2    0  501  0.30366344453E+02  0.62093209418E+02  0.24887155534E+03  0.47614570521E+03  0.40000000000E+03 0.  1.
<mgrwt>
<rscale>  2 0.40592817E+03</rscale>
<asrwt>0</asrwt>
<pdfrwt beam="1">  1        3 0.23420883E+00 0.40592817E+03</pdfrwt>
<pdfrwt beam="2">  1       -3 0.22946791E-01 0.40592817E+03</pdfrwt>
<totfact> 0.43730993E+00</totfact>
</mgrwt>
</event>
<event>
 4    1  0.2318373E-002  0.5089920E+03  0.7818608E-02  0.1011458E+00
         -1   -1    0    0    0  501 -0.00000000000E+00  0.00000000000E+00  0.35583176411E+03  0.35583176411E+03  0.00000000000E+00 0.  1.
          1   -1    0    0  502    0  0.00000000000E+00 -0.00000000000E+00 -0.73568440617E+03  0.73568440617E+03  0.00000000000E+00 0. -1.
    9000005    1    1    2  502    0  0.95941032028E+02  0.29978029054E+03 -0.24542392541E+03  0.56507150644E+03  0.40000000000E+03 0. -1.
   -9000005    1    1    2    0  501 -0.95941032028E+02 -0.29978029054E+03 -0.13442871665E+03  0.52644466384E+03  0.40000000000E+03 0. -1.
<mgrwt>
<rscale>  2 0.50899205E+03</rscale>
<asrwt>0</asrwt>
<pdfrwt beam="1">  1        1 0.11318222E+00 0.50899205E+03</pdfrwt>
<pdfrwt beam="2">  1       -1 0.54743348E-01 0.50899205E+03</pdfrwt>
<totfact> 0.88700705E+01</totfact>
</mgrwt>
</event>
<event>
 4    1  0.2318373E-002  0.6811644E+03  0.7818608E-02  0.9749997E-01
         -4   -1    0    0    0  501 -0.00000000000E+00  0.00000000000E+00  0.10130623934E+04  0.10130623934E+04  0.00000000000E+00 0.  1.
          4   -1    0    0  502    0  0.00000000000E+00 -0.00000000000E+00 -0.46599894511E+03  0.46599894511E+03  0.00000000000E+00 0. -1.
    9000005    1    1    2  502    0  0.36099403464E+03  0.41673528239E+03  0.37040755169E+03  0.77536233013E+03  0.40000000000E+03 0. -1.
   -9000005    1    1    2    0  501 -0.36099403464E+03 -0.41673528239E+03  0.17665589663E+03  0.70369900842E+03  0.40000000000E+03 0. -1.
<mgrwt>
<rscale>  2 0.68116444E+03</rscale>
<asrwt>0</asrwt>
<pdfrwt beam="1">  1        4 0.71692146E-01 0.68116444E+03</pdfrwt>
<pdfrwt beam="2">  1       -4 0.15585575E+00 0.68116444E+03</pdfrwt>
<totfact> 0.93648150E-01</totfact>
</mgrwt>
</event>
<event>
 4    1  0.2318373E-002  0.4480296E+03  0.7818608E-02  0.1028311E+00
          1   -1    0    0  502    0  0.00000000000E+00  0.00000000000E+00  0.49632567235E+03  0.49632567235E+03  0.00000000000E+00 0.  1.
         -1   -1    0    0    0  501 -0.00000000000E+00 -0.00000000000E+00 -0.42575004501E+03  0.42575004501E+03  0.00000000000E+00 0. -1.
    9000005    1    1    2  502    0  0.18385080713E+03  0.83242906762E+02 -0.67874797341E+02  0.45314179781E+03  0.40000000000E+03 0. -1.
   -9000005    1    1    2    0  501 -0.18385080713E+03 -0.83242906762E+02  0.13845042468E+03  0.46893391955E+03  0.40000000000E+03 0.  1.
<mgrwt>
<rscale>  2 0.44802958E+03</rscale>
<asrwt>0</asrwt>
<pdfrwt beam="1">  1        1 0.76357796E-01 0.44802958E+03</pdfrwt>
<pdfrwt beam="2">  1       -1 0.65500007E-01 0.44802958E+03</pdfrwt>
<totfact> 0.11033603E+02</totfact>
</mgrwt>
</event>
<event>
 4    1  0.2318373E-002  0.4348009E+03  0.7818608E-02  0.1032354E+00
          2   -1    0    0  502    0  0.00000000000E+00  0.00000000000E+00  0.25846625873E+04  0.25846625873E+04  0.00000000000E+00 0. -1.
         -2   -1    0    0    0  501 -0.00000000000E+00 -0.00000000000E+00 -0.73177548522E+02  0.73177548522E+02  0.00000000000E+00 0.  1.
    9000005    1    1    2  502    0  0.12283050347E+02  0.17000289819E+03  0.12271734267E+04  0.13019241445E+04  0.40000000000E+03 0. -1.
   -9000005    1    1    2    0  501 -0.12283050347E+02 -0.17000289819E+03  0.12843116120E+04  0.13559159913E+04  0.40000000000E+03 0. -1.
<mgrwt>
<rscale>  2 0.43480094E+03</rscale>
<asrwt>0</asrwt>
<pdfrwt beam="1">  1        2 0.39764033E+00 0.43480094E+03</pdfrwt>
<pdfrwt beam="2">  1       -2 0.11258086E-01 0.43480094E+03</pdfrwt>
<totfact> 0.19082627E+02</totfact>
</mgrwt>
</event>
<event>
 4    1  0.2318373E-002  0.4612338E+03  0.7818608E-02  0.1024424E+00
          1   -1    0    0  502    0  0.00000000000E+00  0.00000000000E+00  0.32570813961E+03  0.32570813961E+03  0.00000000000E+00 0. -1.
         -1   -1    0    0    0  501 -0.00000000000E+00 -0.00000000000E+00 -0.67591858766E+03  0.67591858766E+03  0.00000000000E+00 0.  1.
    9000005    1    1    2  502    0 -0.21722627682E+03 -0.74493983415E+02 -0.83190121253E+02  0.46867601302E+03  0.40000000000E+03 0.  1.
   -9000005    1    1    2    0  501  0.21722627682E+03  0.74493983415E+02 -0.26702032680E+03  0.53295071426E+03  0.40000000000E+03 0. -1.
<mgrwt>
<rscale>  2 0.46123379E+03</rscale>
<asrwt>0</asrwt>
<pdfrwt beam="1">  1        1 0.50108945E-01 0.46123379E+03</pdfrwt>
<pdfrwt beam="2">  1       -1 0.10398747E+00 0.46123379E+03</pdfrwt>
<totfact> 0.71635485E+01</totfact>
</mgrwt>
</event>
<event>
 4    1  0.2318373E-002  0.5157680E+03  0.7818608E-02  0.1009743E+00
         -1   -1    0    0    0  501 -0.00000000000E+00  0.00000000000E+00  0.45811994612E+03  0.45811994612E+03  0.00000000000E+00 0. -1.
          1   -1    0    0  502    0  0.00000000000E+00 -0.00000000000E+00 -0.70794094385E+03  0.70794094385E+03  0.00000000000E+00 0.  1.
    9000005    1    1    2  502    0  0.29414940955E+03 -0.13961642958E+03  0.12229431766E+03  0.53006841321E+03  0.40000000000E+03 0.  1.
   -9000005    1    1    2    0  501 -0.29414940955E+03  0.13961642958E+03 -0.37211531539E+03  0.63599247676E+03  0.40000000000E+03 0.  1.
<mgrwt>
<rscale>  2 0.51576799E+03</rscale>
<asrwt>0</asrwt>
<pdfrwt beam="1">  1        1 0.10891399E+00 0.51576799E+03</pdfrwt>
<pdfrwt beam="2">  1       -1 0.70479991E-01 0.51576799E+03</pdfrwt>
<totfact> 0.57051933E+01</totfact>
</mgrwt>
</event>
<event>
 4    1  0.2318373E-002  0.5614062E+03  0.7818608E-02  0.9988878E-01
          1   -1    0    0  502    0  0.00000000000E+00  0.00000000000E+00  0.78294339605E+03  0.78294339605E+03  0.00000000000E+00 0.  1.
         -1   -1    0    0    0  501 -0.00000000000E+00 -0.00000000000E+00 -0.75803250349E+03  0.75803250349E+03  0.00000000000E+00 0. -1.
    9000005    1    1    2  502    0 -0.10291490050E+03  0.38024389890E+03 -0.51517358541E+03  0.76195847820E+03  0.40000000000E+03 0. -1.
   -9000005    1    1    2    0  501  0.10291490050E+03 -0.38024389890E+03  0.54008447798E+03  0.77901742134E+03  0.40000000000E+03 0.  1.
<mgrwt>
<rscale>  2 0.56140618E+03</rscale>
<asrwt>0</asrwt>
<pdfrwt beam="1">  1        1 0.12045283E+00 0.56140618E+03</pdfrwt>
<pdfrwt beam="2">  1       -1 0.11662039E+00 0.56140618E+03</pdfrwt>
<totfact> 0.16042512E+01</totfact>
</mgrwt>
</event>
<event>
 4    1  0.2318373E-002  0.4176478E+03  0.7818608E-02  0.1037835E+00
          1   -1    0    0  502    0  0.00000000000E+00  0.00000000000E+00  0.85494230011E+03  0.85494230011E+03  0.00000000000E+00 0. -1.
         -1   -1    0    0    0  501 -0.00000000000E+00 -0.00000000000E+00 -0.20452203955E+03  0.20452203955E+03  0.00000000000E+00 0.  1.
    9000005    1    1    2  502    0 -0.10586257435E+03 -0.56769956169E+02  0.29909900104E+03  0.51370217538E+03  0.40000000000E+03 0.  1.
   -9000005    1    1    2    0  501  0.10586257435E+03  0.56769956169E+02  0.35132125952E+03  0.54576216428E+03  0.40000000000E+03 0. -1.
<mgrwt>
<rscale>  2 0.41764783E+03</rscale>
<asrwt>0</asrwt>
<pdfrwt beam="1">  1        1 0.13152958E+00 0.41764783E+03</pdfrwt>
<pdfrwt beam="2">  1       -1 0.31464930E-01 0.41764783E+03</pdfrwt>
<totfact> 0.19365954E+02</totfact>
</mgrwt>
</event>
<event>
 4    1  0.2318373E-002  0.4366483E+03  0.7818608E-02  0.1031780E+00
         -2   -1    0    0    0  501 -0.00000000000E+00  0.00000000000E+00  0.55822030331E+03  0.55822030331E+03  0.00000000000E+00 0.  1.
          2   -1    0    0  502    0  0.00000000000E+00 -0.00000000000E+00 -0.34931529657E+03  0.34931529657E+03  0.00000000000E+00 0. -1.
    9000005    1    1    2  502    0  0.14454162078E+03  0.98840681376E+02  0.36809491605E+02  0.43819710075E+03  0.40000000000E+03 0. -1.
   -9000005    1    1    2    0  501 -0.14454162078E+03 -0.98840681376E+02  0.17209551514E+03  0.46933849913E+03  0.40000000000E+03 0. -1.
<mgrwt>
<rscale>  2 0.43664833E+03</rscale>
<asrwt>0</asrwt>
<pdfrwt beam="1">  1        2 0.53740815E-01 0.43664833E+03</pdfrwt>
<pdfrwt beam="2">  1       -2 0.85880046E-01 0.43664833E+03</pdfrwt>
<totfact> 0.11203436E+02</totfact>
</mgrwt>
</event>
<event>
 4    1  0.2318373E-002  0.4989288E+03  0.7818608E-02  0.1014059E+00
         -1   -1    0    0    0  501 -0.00000000000E+00  0.00000000000E+00  0.10127238283E+03  0.10127238283E+03  0.00000000000E+00 0.  1.
          1   -1    0    0  502    0  0.00000000000E+00 -0.00000000000E+00 -0.31955953372E+04  0.31955953372E+04  0.00000000000E+00 0. -1.
    9000005    1    1    2  502    0  0.28186389971E+03 -0.97378875323E+02 -0.75521144384E+03  0.90513768467E+03  0.40000000000E+03 0.  1.
   -9000005    1    1    2    0  501 -0.28186389971E+03  0.97378875323E+02 -0.23391115105E+04  0.23917300354E+04  0.40000000000E+03 0. -1.
<mgrwt>
<rscale>  2 0.49892876E+03</rscale>
<asrwt>0</asrwt>
<pdfrwt beam="1">  1        1 0.49162996E+00 0.49892876E+03</pdfrwt>
<pdfrwt beam="2">  1       -1 0.15580370E-01 0.49892876E+03</pdfrwt>
<totfact> 0.14817455E+01</totfact>
</mgrwt>
</event>
<event>
 4    1  0.2318373E-002  0.5073169E+03  0.7818608E-02  0.1011887E+00
         -2   -1    0    0    0  501 -0.00000000000E+00  0.00000000000E+00  0.17015608241E+03  0.17015608241E+03  0.00000000000E+00 0.  1.
          2   -1    0    0  502    0  0.00000000000E+00 -0.00000000000E+00 -0.17354355039E+04  0.17354355039E+04  0.00000000000E+00 0. -1.
    9000005    1    1    2  502    0  0.10470897842E+03  0.29394972660E+03 -0.44118606479E+03  0.67232102131E+03  0.40000000000E+03 0.  1.
   -9000005    1    1    2    0  501 -0.10470897842E+03 -0.29394972660E+03 -0.11240933567E+04  0.12332705650E+04  0.40000000000E+03 0. -1.
<mgrwt>
<rscale>  2 0.50731688E+03</rscale>
<asrwt>0</asrwt>
<pdfrwt beam="1">  1        2 0.26699007E+00 0.50731688E+03</pdfrwt>
<pdfrwt beam="2">  1       -2 0.26177859E-01 0.50731688E+03</pdfrwt>
<totfact> 0.12952436E+02</totfact>
</mgrwt>
</event>
<event>
 4    1  0.2318373E-002  0.4120883E+03  0.7818608E-02  0.1039672E+00
         -2   -1    0    0    0  501 -0.00000000000E+00  0.00000000000E+00  0.90550929536E+02  0.90550929536E+02  0.00000000000E+00 0.  1.
          2   -1    0    0  502    0  0.00000000000E+00 -0.00000000000E+00 -0.19655734582E+04  0.19655734582E+04  0.00000000000E+00 0. -1.
    9000005    1    1    2  502    0  0.98472877548E+02 -0.10949628676E+02 -0.71728037757E+03  0.82722907470E+03  0.40000000000E+03 0.  1.
   -9000005    1    1    2    0  501 -0.98472877548E+02  0.10949628676E+02 -0.11577421511E+04  0.12288953130E+04  0.40000000000E+03 0. -1.
<mgrwt>
<rscale>  2 0.41208834E+03</rscale>
<asrwt>0</asrwt>
<pdfrwt beam="1">  1        2 0.30239592E+00 0.41208834E+03</pdfrwt>
<pdfrwt beam="2">  1       -2 0.13930912E-01 0.41208834E+03</pdfrwt>
<totfact> 0.29371088E+02</totfact>
</mgrwt>
</event>
<event>
 4    1  0.2318373E-002  0.5051704E+03  0.7818608E-02  0.1012438E+00
         -2   -1    0    0    0  501 -0.00000000000E+00  0.00000000000E+00  0.14168894528E+03  0.14168894528E+03  0.00000000000E+00 0. -1.
          2   -1    0    0  502    0  0.00000000000E+00 -0.00000000000E+00 -0.18893108746E+04  0.18893108746E+04  0.00000000000E+00 0.  1.
    9000005    1    1    2  502    0 -0.16115788082E+03  0.26310697527E+03 -0.10932271577E+04  0.12043017734E+04  0.40000000000E+03 0.  1.
   -9000005    1    1    2    0  501  0.16115788082E+03 -0.26310697527E+03 -0.65439477157E+03  0.82669804647E+03  0.40000000000E+03 0. -1.
<mgrwt>
<rscale>  2 0.50517041E+03</rscale>
<asrwt>0</asrwt>
<pdfrwt beam="1">  1        2 0.29066319E+00 0.50517041E+03</pdfrwt>
<pdfrwt beam="2">  1       -2 0.21798301E-01 0.50517041E+03</pdfrwt>
<totfact> 0.14834446E+02</totfact>
</mgrwt>
</event>
<event>
 4    1  0.2318373E-002  0.5164614E+03  0.7818608E-02  0.1009569E+00
          2   -1    0    0  502    0  0.00000000000E+00  0.00000000000E+00  0.11133246334E+04  0.11133246334E+04  0.00000000000E+00 0.  1.
         -2   -1    0    0    0  501 -0.00000000000E+00 -0.00000000000E+00 -0.35135910605E+03  0.35135910605E+03  0.00000000000E+00 0. -1.
    9000005    1    1    2  502    0 -0.28966556507E+03  0.15108352314E+03 -0.32078993455E+02  0.51745669614E+03  0.40000000000E+03 0. -1.
   -9000005    1    1    2    0  501  0.28966556507E+03 -0.15108352314E+03  0.79404452079E+03  0.94722704330E+03  0.40000000000E+03 0.  1.
<mgrwt>
<rscale>  2 0.51646139E+03</rscale>
<asrwt>0</asrwt>
<pdfrwt beam="1">  1        2 0.17128071E+00 0.51646139E+03</pdfrwt>
<pdfrwt beam="2">  1       -2 0.54055247E-01 0.51646139E+03</pdfrwt>
<totfact> 0.71660732E+01</totfact>
</mgrwt>
</event>
<event>
 4    1  0.2318373E-002  0.4863163E+03  0.7818608E-02  0.1017414E+00
         -1   -1    0    0    0  501 -0.00000000000E+00  0.00000000000E+00  0.17086429825E+03  0.17086429825E+03  0.00000000000E+00 0. -1.
          1   -1    0    0  502    0  0.00000000000E+00 -0.00000000000E+00 -0.13845783705E+04  0.13845783705E+04  0.00000000000E+00 0.  1.
    9000005    1    1    2  502    0 -0.49671742910E+02  0.27209604342E+03 -0.62037495662E+03  0.78826938650E+03  0.40000000000E+03 0. -1.
   -9000005    1    1    2    0  501  0.49671742910E+02 -0.27209604342E+03 -0.59333911564E+03  0.76717328228E+03  0.40000000000E+03 0. -1.
<mgrwt>
<rscale>  2 0.48631630E+03</rscale>
<asrwt>0</asrwt>
<pdfrwt beam="1">  1        1 0.21301205E+00 0.48631630E+03</pdfrwt>
<pdfrwt beam="2">  1       -1 0.26286816E-01 0.48631630E+03</pdfrwt>
<totfact> 0.10633829E+02</totfact>
</mgrwt>
</event>
<event>
 4    1  0.2318373E-002  0.5173619E+03  0.7818608E-02  0.1009344E+00
         -1   -1    0    0    0  501 -0.00000000000E+00  0.00000000000E+00  0.51648993039E+03  0.51648993039E+03  0.00000000000E+00 0.  1.
          1   -1    0    0  502    0  0.00000000000E+00 -0.00000000000E+00 -0.53148010551E+03  0.53148010551E+03  0.00000000000E+00 0. -1.
    9000005    1    1    2  502    0 -0.31400982440E+03  0.95190421780E+02  0.75222119911E+02  0.52280183009E+03  0.40000000000E+03 0.  1.
   -9000005    1    1    2    0  501  0.31400982440E+03 -0.95190421780E+02 -0.90212295028E+02  0.52516820581E+03  0.40000000000E+03 0.  1.
<mgrwt>
<rscale>  2 0.51736195E+03</rscale>
<asrwt>0</asrwt>
<pdfrwt beam="1">  1        1 0.81766170E-01 0.51736195E+03</pdfrwt>
<pdfrwt beam="2">  1       -1 0.79459990E-01 0.51736195E+03</pdfrwt>
<totfact> 0.67164046E+01</totfact>
</mgrwt>
</event>
<event>
 4    1  0.2318373E-002  0.7085841E+03  0.7818608E-02  0.9702664E-01
          2   -1    0    0  502    0  0.00000000000E+00  0.00000000000E+00  0.32717060100E+04  0.32717060100E+04  0.00000000000E+00 0. -1.
         -2   -1    0    0    0  501 -0.00000000000E+00 -0.00000000000E+00 -0.15681853886E+03  0.15681853886E+03  0.00000000000E+00 0.  1.
    9000005    1    1    2  502    0 -0.31090828259E+03  0.49540636912E+03  0.18081404741E+04  0.19420255933E+04  0.40000000000E+03 0.  1.
   -9000005    1    1    2    0  501  0.31090828259E+03 -0.49540636912E+03  0.13067469970E+04  0.14864989556E+04  0.40000000000E+03 0. -1.
<mgrwt>
<rscale>  2 0.70858410E+03</rscale>
<asrwt>0</asrwt>
<pdfrwt beam="1">  1        2 0.50333934E+00 0.70858410E+03</pdfrwt>
<pdfrwt beam="2">  1       -2 0.24125931E-01 0.70858410E+03</pdfrwt>
<totfact> 0.19136809E+01</totfact>
</mgrwt>
</event>
<event>
 4    1  0.2318373E-002  0.5560126E+03  0.7818608E-02  0.1000112E+00
         -1   -1    0    0    0  501 -0.00000000000E+00  0.00000000000E+00  0.36829498092E+03  0.36829498092E+03  0.00000000000E+00 0. -1.
          1   -1    0    0  502    0  0.00000000000E+00 -0.00000000000E+00 -0.83942969465E+03  0.83942969465E+03  0.00000000000E+00 0.  1.
    9000005    1    1    2  502    0 -0.35393836768E+03  0.15452388625E+03 -0.23254513772E+03  0.60268336680E+03  0.40000000000E+03 0.  1.
   -9000005    1    1    2    0  501  0.35393836768E+03 -0.15452388625E+03 -0.23858957602E+03  0.60504130877E+03  0.40000000000E+03 0. -1.
<mgrwt>
<rscale>  2 0.55601259E+03</rscale>
<asrwt>0</asrwt>
<pdfrwt beam="1">  1        1 0.12914303E+00 0.55601259E+03</pdfrwt>
<pdfrwt beam="2">  1       -1 0.56660767E-01 0.55601259E+03</pdfrwt>
<totfact> 0.67140237E+01</totfact>
</mgrwt>
</event>
<event>
 4    1  0.2318373E-002  0.7309989E+03  0.7818608E-02  0.9665641E-01
          1   -1    0    0  502    0  0.00000000000E+00  0.00000000000E+00  0.24027627541E+04  0.24027627541E+04  0.00000000000E+00 0. -1.
         -1   -1    0    0    0  501 -0.00000000000E+00 -0.00000000000E+00 -0.90683725058E+03  0.90683725058E+03  0.00000000000E+00 0.  1.
    9000005    1    1    2  502    0 -0.10917629457E+03  0.60202979688E+03 -0.68967559868E+03  0.10049934184E+04  0.40000000000E+03 0.  1.
   -9000005    1    1    2    0  501  0.10917629457E+03 -0.60202979688E+03  0.21856011022E+04  0.23046065863E+04  0.40000000000E+03 0. -1.
<mgrwt>
<rscale>  2 0.73099886E+03</rscale>
<asrwt>0</asrwt>
<pdfrwt beam="1">  1        1 0.36965581E+00 0.73099886E+03</pdfrwt>
<pdfrwt beam="2">  1       -1 0.13951342E+00 0.73099886E+03</pdfrwt>
<totfact> 0.71741302E-01</totfact>
</mgrwt>
</event>
<event>
 4    1  0.2318373E-002  0.6221567E+03  0.7818608E-02  0.9860475E-01
          3   -1    0    0  502    0  0.00000000000E+00  0.00000000000E+00  0.34344100796E+04  0.34344100796E+04  0.00000000000E+00 0. -1.
         -3   -1    0    0    0  501 -0.00000000000E+00 -0.00000000000E+00 -0.14130000009E+03  0.14130000009E+03  0.00000000000E+00 0.  1.
    9000005    1    1    2  502    0 -0.10111647439E+03 -0.46567625125E+03  0.24508179443E+04  0.25285544306E+04  0.40000000000E+03 0. -1.
   -9000005    1    1    2    0  501  0.10111647439E+03  0.46567625125E+03  0.84229213513E+03  0.10471556490E+04  0.40000000000E+03 0.  1.
<mgrwt>
<rscale>  2 0.62215666E+03</rscale>
<asrwt>0</asrwt>
<pdfrwt beam="1">  1        3 0.52837072E+00 0.62215666E+03</pdfrwt>
<pdfrwt beam="2">  1       -3 0.21738464E-01 0.62215666E+03</pdfrwt>
<totfact> 0.13814150E-01</totfact>
</mgrwt>
</event>
<event>
 4    1  0.2318373E-002  0.7237482E+03  0.7818608E-02  0.9677460E-01
          1   -1    0    0  502    0  0.00000000000E+00  0.00000000000E+00  0.28324986333E+04  0.28324986333E+04  0.00000000000E+00 0.  1.
         -1   -1    0    0    0  501 -0.00000000000E+00 -0.00000000000E+00 -0.18516971436E+03  0.18516971436E+03  0.00000000000E+00 0. -1.
    9000005    1    1    2  502    0  0.49691748081E+03 -0.34188380242E+03  0.13780504856E+04  0.15565457456E+04  0.40000000000E+03 0. -1.
   -9000005    1    1    2    0  501 -0.49691748081E+03  0.34188380242E+03  0.12692784333E+04  0.14611226021E+04  0.40000000000E+03 0.  1.
<mgrwt>
<rscale>  2 0.72374824E+03</rscale>
<asrwt>0</asrwt>
<pdfrwt beam="1">  1        1 0.43576899E+00 0.72374824E+03</pdfrwt>
<pdfrwt beam="2">  1       -1 0.28487650E-01 0.72374824E+03</pdfrwt>
<totfact> 0.93911157E+00</totfact>
</mgrwt>
</event>
<event>
 4    1  0.2318373E-002  0.4405565E+03  0.7818608E-02  0.1030576E+00
          2   -1    0    0  502    0  0.00000000000E+00  0.00000000000E+00  0.21379003162E+04  0.21379003162E+04  0.00000000000E+00 0. -1.
         -2   -1    0    0    0  501 -0.00000000000E+00 -0.00000000000E+00 -0.11610259916E+03  0.11610259916E+03  0.00000000000E+00 0.  1.
    9000005    1    1    2  502    0 -0.17919372873E+03 -0.44493327508E+02  0.15371725786E+04  0.15990589686E+04  0.40000000000E+03 0. -1.
   -9000005    1    1    2    0  501  0.17919372873E+03  0.44493327508E+02  0.48462513843E+03  0.65494394677E+03  0.40000000000E+03 0.  1.
<mgrwt>
<rscale>  2 0.44055652E+03</rscale>
<asrwt>0</asrwt>
<pdfrwt beam="1">  1        2 0.32890771E+00 0.44055652E+03</pdfrwt>
<pdfrwt beam="2">  1       -2 0.17861940E-01 0.44055652E+03</pdfrwt>
<totfact> 0.15551491E+02</totfact>
</mgrwt>
</event>
<event>
 4    1  0.2318373E-002  0.4164540E+03  0.7818608E-02  0.1038227E+00
          2   -1    0    0  502    0  0.00000000000E+00  0.00000000000E+00  0.47036918440E+03  0.47036918440E+03  0.00000000000E+00 0.  1.
         -2   -1    0    0    0  501 -0.00000000000E+00 -0.00000000000E+00 -0.87494835945E+03  0.87494835945E+03  0.00000000000E+00 0. -1.
    9000005    1    1    2  502    0 -0.11319299667E+03  0.24925226281E+02  0.30936560523E+03  0.51878800979E+03  0.40000000000E+03 0.  1.
   -9000005    1    1    2    0  501  0.11319299667E+03 -0.24925226281E+02 -0.71394478028E+03  0.82652953407E+03  0.40000000000E+03 0. -1.
<mgrwt>
<rscale>  2 0.41645398E+03</rscale>
<asrwt>0</asrwt>
<pdfrwt beam="1">  1        2 0.72364490E-01 0.41645398E+03</pdfrwt>
<pdfrwt beam="2">  1       -2 0.13460744E+00 0.41645398E+03</pdfrwt>
<totfact> 0.27537523E+01</totfact>
</mgrwt>
</event>
<event>
 4    1  0.2318373E-002  0.4304996E+03  0.7818608E-02  0.1033702E+00
          1   -1    0    0  502    0  0.00000000000E+00  0.00000000000E+00  0.12673272572E+04  0.12673272572E+04  0.00000000000E+00 0. -1.
         -1   -1    0    0    0  501 -0.00000000000E+00 -0.00000000000E+00 -0.20615263943E+03  0.20615263943E+03  0.00000000000E+00 0.  1.
    9000005    1    1    2  502    0 -0.25450933936E+02 -0.15710561910E+03  0.13340447441E+03  0.45069577254E+03  0.40000000000E+03 0. -1.
   -9000005    1    1    2    0  501  0.25450933936E+02  0.15710561910E+03  0.92777014331E+03  0.10227841240E+04  0.40000000000E+03 0. -1.
<mgrwt>
<rscale>  2 0.43049962E+03</rscale>
<asrwt>0</asrwt>
<pdfrwt beam="1">  1        1 0.19497342E+00 0.43049962E+03</pdfrwt>
<pdfrwt beam="2">  1       -1 0.31715791E-01 0.43049962E+03</pdfrwt>
<totfact> 0.93625810E+01</totfact>
</mgrwt>
</event>
<event>
 4    1  0.2318373E-002  0.7955555E+03  0.7818608E-02  0.9566473E-01
          1   -1    0    0  502    0  0.00000000000E+00  0.00000000000E+00  0.14156717607E+04  0.14156717607E+04  0.00000000000E+00 0. -1.
         -1   -1    0    0    0  501 -0.00000000000E+00 -0.00000000000E+00 -0.60048546144E+03  0.60048546144E+03  0.00000000000E+00 0.  1.
    9000005    1    1    2  502    0 -0.67753915921E+03 -0.11768275805E+03 -0.10194129528E+03  0.80206020440E+03  0.40000000000E+03 0.  1.
   -9000005    1    1    2    0  501  0.67753915921E+03  0.11768275805E+03  0.91712759453E+03  0.12140970177E+04  0.40000000000E+03 0. -1.
<mgrwt>
<rscale>  2 0.79555549E+03</rscale>
<asrwt>0</asrwt>
<pdfrwt beam="1">  1        1 0.21779565E+00 0.79555549E+03</pdfrwt>
<pdfrwt beam="2">  1       -1 0.92382379E-01 0.79555549E+03</pdfrwt>
<totfact> 0.88035476E+00</totfact>
</mgrwt>
</event>
<event>
 4    1  0.2318373E-002  0.4105513E+03  0.7818608E-02  0.1040186E+00
          2   -1    0    0  502    0  0.00000000000E+00  0.00000000000E+00  0.51610890810E+03  0.51610890810E+03  0.00000000000E+00 0. -1.
         -2   -1    0    0    0  501 -0.00000000000E+00 -0.00000000000E+00 -0.42074378209E+03  0.42074378209E+03  0.00000000000E+00 0.  1.
    9000005    1    1    2  502    0  0.77624485734E+02  0.50267667725E+02 -0.17391627125E+03  0.44586911601E+03  0.40000000000E+03 0. -1.
   -9000005    1    1    2    0  501 -0.77624485734E+02 -0.50267667725E+02  0.26928139727E+03  0.49098357418E+03  0.40000000000E+03 0. -1.
<mgrwt>
<rscale>  2 0.41055134E+03</rscale>
<asrwt>0</asrwt>
<pdfrwt beam="1">  1        2 0.79401370E-01 0.41055134E+03</pdfrwt>
<pdfrwt beam="2">  1       -2 0.64729813E-01 0.41055134E+03</pdfrwt>
<totfact> 0.13494639E+02</totfact>
</mgrwt>
</event>
<event>
 4    1  0.2318373E-002  0.5516935E+03  0.7818608E-02  0.1001103E+00
         -1   -1    0    0    0  501 -0.00000000000E+00  0.00000000000E+00  0.25077741878E+03  0.25077741878E+03  0.00000000000E+00 0.  1.
          1   -1    0    0  502    0  0.00000000000E+00 -0.00000000000E+00 -0.13494121280E+04  0.13494121280E+04  0.00000000000E+00 0. -1.
    9000005    1    1    2  502    0 -0.37178493272E+03 -0.78369088572E+02 -0.29557302723E+03  0.62588270839E+03  0.40000000000E+03 0. -1.
   -9000005    1    1    2    0  501  0.37178493272E+03  0.78369088572E+02 -0.80306168198E+03  0.97430683838E+03  0.40000000000E+03 0. -1.
<mgrwt>
<rscale>  2 0.55169353E+03</rscale>
<asrwt>0</asrwt>
<pdfrwt beam="1">  1        1 0.20760187E+00 0.55169353E+03</pdfrwt>
<pdfrwt beam="2">  1       -1 0.38581141E-01 0.55169353E+03</pdfrwt>
<totfact> 0.57020367E+01</totfact>
</mgrwt>
</event>
<event>
 4    1  0.2318373E-002  0.4691534E+03  0.7818608E-02  0.1022159E+00
         -2   -1    0    0    0  501 -0.00000000000E+00  0.00000000000E+00  0.56696582986E+03  0.56696582986E+03  0.00000000000E+00 0. -1.
          2   -1    0    0  502    0  0.00000000000E+00 -0.00000000000E+00 -0.53780450500E+03  0.53780450500E+03  0.00000000000E+00 0.  1.
    9000005    1    1    2  502    0 -0.14074839130E+03  0.20073561237E+03 -0.27674564045E+03  0.54469536920E+03  0.40000000000E+03 0.  1.
   -9000005    1    1    2    0  501  0.14074839130E+03 -0.20073561237E+03  0.30590696531E+03  0.56007496565E+03  0.40000000000E+03 0. -1.
<mgrwt>
<rscale>  2 0.46915338E+03</rscale>
<asrwt>0</asrwt>
<pdfrwt beam="1">  1        2 0.82739155E-01 0.46915338E+03</pdfrwt>
<pdfrwt beam="2">  1       -2 0.87225512E-01 0.46915338E+03</pdfrwt>
<totfact> 0.66402239E+01</totfact>
</mgrwt>
</event>
<event>
 4    1  0.2318373E-002  0.5142486E+03  0.7818608E-02  0.1010125E+00
          1   -1    0    0  502    0  0.00000000000E+00  0.00000000000E+00  0.18098480141E+04  0.18098480141E+04  0.00000000000E+00 0. -1.
         -1   -1    0    0    0  501 -0.00000000000E+00 -0.00000000000E+00 -0.23466402803E+03  0.23466402803E+03  0.00000000000E+00 0.  1.
    9000005    1    1    2  502    0 -0.78645360667E+02 -0.31347492184E+03  0.15964841412E+03  0.53846005934E+03  0.40000000000E+03 0.  1.
   -9000005    1    1    2    0  501  0.78645360667E+02  0.31347492184E+03  0.14155355720E+04  0.15060519828E+04  0.40000000000E+03 0. -1.
<mgrwt>
<rscale>  2 0.51424860E+03</rscale>
<asrwt>0</asrwt>
<pdfrwt beam="1">  1        1 0.27843815E+00 0.51424860E+03</pdfrwt>
<pdfrwt beam="2">  1       -1 0.36102160E-01 0.51424860E+03</pdfrwt>
<totfact> 0.31597333E+01</totfact>
</mgrwt>
</event>
<event>
 4    1  0.2318373E-002  0.4396851E+03  0.7818608E-02  0.1030843E+00
         -2   -1    0    0    0  501 -0.00000000000E+00  0.00000000000E+00  0.10357101170E+04  0.10357101170E+04  0.00000000000E+00 0. -1.
          2   -1    0    0  502    0  0.00000000000E+00 -0.00000000000E+00 -0.20723874802E+03  0.20723874802E+03  0.00000000000E+00 0.  1.
    9000005    1    1    2  502    0 -0.90488115717E+02  0.15853974407E+03  0.61008622608E+03  0.75201605886E+03  0.40000000000E+03 0. -1.
   -9000005    1    1    2    0  501  0.90488115717E+02 -0.15853974407E+03  0.21838514294E+03  0.49093280619E+03  0.40000000000E+03 0.  1.
<mgrwt>
<rscale>  2 0.43968506E+03</rscale>
<asrwt>0</asrwt>
<pdfrwt beam="1">  1        2 0.31882885E-01 0.43968506E+03</pdfrwt>
<pdfrwt beam="2">  1       -2 0.15934001E+00 0.43968506E+03</pdfrwt>
<totfact> 0.43816867E+01</totfact>
</mgrwt>
</event>
<event>
 4    1  0.2318373E-002  0.5228962E+03  0.7818608E-02  0.1007970E+00
         -1   -1    0    0    0  501 -0.00000000000E+00  0.00000000000E+00  0.37271282120E+03  0.37271282120E+03  0.00000000000E+00 0. -1.
          1   -1    0    0  502    0  0.00000000000E+00 -0.00000000000E+00 -0.78910711086E+03  0.78910711086E+03  0.00000000000E+00 0.  1.
    9000005    1    1    2  502    0 -0.20482937733E+03  0.26732996989E+03 -0.36227258336E+03  0.63613034142E+03  0.40000000000E+03 0.  1.
   -9000005    1    1    2    0  501  0.20482937733E+03 -0.26732996989E+03 -0.54121706292E+02  0.52568959064E+03  0.40000000000E+03 0.  1.
<mgrwt>
<rscale>  2 0.52289615E+03</rscale>
<asrwt>0</asrwt>
<pdfrwt beam="1">  1        1 0.12140109E+00 0.52289615E+03</pdfrwt>
<pdfrwt beam="2">  1       -1 0.57340435E-01 0.52289615E+03</pdfrwt>
<totfact> 0.72681260E+01</totfact>
</mgrwt>
</event>
<event>
 4    1  0.2318373E-002  0.4876445E+03  0.7818608E-02  0.1017055E+00
          2   -1    0    0  502    0  0.00000000000E+00  0.00000000000E+00  0.10159055256E+04  0.10159055256E+04  0.00000000000E+00 0.  1.
         -2   -1    0    0    0  501 -0.00000000000E+00 -0.00000000000E+00 -0.25619576742E+03  0.25619576742E+03  0.00000000000E+00 0. -1.
    9000005    1    1    2  502    0  0.67187540291E+02  0.27070839239E+03  0.19295269134E+03  0.52443106351E+03  0.40000000000E+03 0. -1.
   -9000005    1    1    2    0  501 -0.67187540291E+02 -0.27070839239E+03  0.56675706683E+03  0.74767022950E+03  0.40000000000E+03 0.  1.
<mgrwt>
<rscale>  2 0.48764454E+03</rscale>
<asrwt>0</asrwt>
<pdfrwt beam="1">  1        2 0.15629316E+00 0.48764454E+03</pdfrwt>
<pdfrwt beam="2">  1       -2 0.39414734E-01 0.48764454E+03</pdfrwt>
<totfact> 0.15473104E+02</totfact>
</mgrwt>
</event>
<event>
 4    1  0.2318373E-002  0.4896508E+03  0.7818608E-02  0.1016516E+00
         -1   -1    0    0    0  501 -0.00000000000E+00  0.00000000000E+00  0.45897330029E+03  0.45897330029E+03  0.00000000000E+00 0.  1.
          1   -1    0    0  502    0  0.00000000000E+00 -0.00000000000E+00 -0.65726133274E+03  0.65726133274E+03  0.00000000000E+00 0. -1.
    9000005    1    1    2  502    0  0.24598084688E+03 -0.13874912097E+03 -0.35197739242E+03  0.60303066288E+03  0.40000000000E+03 0. -1.
   -9000005    1    1    2    0  501 -0.24598084688E+03  0.13874912097E+03  0.15368935997E+03  0.51320397014E+03  0.40000000000E+03 0.  1.
<mgrwt>
<rscale>  2 0.48965079E+03</rscale>
<asrwt>0</asrwt>
<pdfrwt beam="1">  1        1 0.10111713E+00 0.48965079E+03</pdfrwt>
<pdfrwt beam="2">  1       -1 0.70611277E-01 0.48965079E+03</pdfrwt>
<totfact> 0.63658330E+01</totfact>
</mgrwt>
</event>
<event>
 4    1  0.2318373E-002  0.4164068E+03  0.7818608E-02  0.1038242E+00
          2   -1    0    0  502    0  0.00000000000E+00  0.00000000000E+00  0.16658513719E+04  0.16658513719E+04  0.00000000000E+00 0. -1.
         -2   -1    0    0    0  501 -0.00000000000E+00 -0.00000000000E+00 -0.10654145742E+03  0.10654145742E+03  0.00000000000E+00 0.  1.
    9000005    1    1    2  502    0 -0.94861145729E+01  0.11534580089E+03  0.91414383261E+03  0.10045165936E+04  0.40000000000E+03 0. -1.
   -9000005    1    1    2    0  501  0.94861145729E+01 -0.11534580089E+03  0.64516608185E+03  0.76787623568E+03  0.40000000000E+03 0. -1.
<mgrwt>
<rscale>  2 0.41640682E+03</rscale>
<asrwt>0</asrwt>
<pdfrwt beam="1">  1        2 0.25628481E+00 0.41640682E+03</pdfrwt>
<pdfrwt beam="2">  1       -2 0.16390995E-01 0.41640682E+03</pdfrwt>
<totfact> 0.32331189E+02</totfact>
</mgrwt>
</event>
<event>
 4    1  0.2318373E-002  0.5349181E+03  0.7818608E-02  0.1005046E+00
          2   -1    0    0  502    0  0.00000000000E+00  0.00000000000E+00  0.12100146017E+04  0.12100146017E+04  0.00000000000E+00 0. -1.
         -2   -1    0    0    0  501 -0.00000000000E+00 -0.00000000000E+00 -0.27535597025E+03  0.27535597025E+03  0.00000000000E+00 0.  1.
    9000005    1    1    2  502    0  0.18521108050E+02  0.35467501120E+03  0.18824858778E+03  0.56707576726E+03  0.40000000000E+03 0.  1.
   -9000005    1    1    2    0  501 -0.18521108050E+02 -0.35467501120E+03  0.74641004367E+03  0.91829480468E+03  0.40000000000E+03 0. -1.
<mgrwt>
<rscale>  2 0.53491812E+03</rscale>
<asrwt>0</asrwt>
<pdfrwt beam="1">  1        2 0.18615609E+00 0.53491812E+03</pdfrwt>
<pdfrwt beam="2">  1       -2 0.42362458E-01 0.53491812E+03</pdfrwt>
<totfact> 0.10224215E+02</totfact>
</mgrwt>
</event>
<event>
 4    1  0.2318373E-002  0.5084309E+03  0.7818608E-02  0.1011601E+00
          2   -1    0    0  502    0  0.00000000000E+00  0.00000000000E+00  0.11365733895E+04  0.11365733895E+04  0.00000000000E+00 0.  1.
         -2   -1    0    0    0  501 -0.00000000000E+00 -0.00000000000E+00 -0.23617526550E+03  0.23617526550E+03  0.00000000000E+00 0. -1.
    9000005    1    1    2  502    0 -0.13283963281E+03  0.28435127004E+03  0.31819505798E+03  0.59979172030E+03  0.40000000000E+03 0. -1.
   -9000005    1    1    2    0  501  0.13283963281E+03 -0.28435127004E+03  0.58220306600E+03  0.77295693469E+03  0.40000000000E+03 0.  1.
<mgrwt>
<rscale>  2 0.50843093E+03</rscale>
<asrwt>0</asrwt>
<pdfrwt beam="1">  1        2 0.17485744E+00 0.50843093E+03</pdfrwt>
<pdfrwt beam="2">  1       -2 0.36334657E-01 0.50843093E+03</pdfrwt>
<totfact> 0.15238809E+02</totfact>
</mgrwt>
</event>
<event>
 4    1  0.2318373E-002  0.5095062E+03  0.7818608E-02  0.1011327E+00
         -2   -1    0    0    0  501 -0.00000000000E+00  0.00000000000E+00  0.41905628554E+03  0.41905628554E+03  0.00000000000E+00 0.  1.
          2   -1    0    0  502    0  0.00000000000E+00 -0.00000000000E+00 -0.10012986459E+04  0.10012986459E+04  0.00000000000E+00 0. -1.
    9000005    1    1    2  502    0  0.14171225160E+03 -0.28198260515E+03 -0.72966624852E+03  0.88994909185E+03  0.40000000000E+03 0. -1.
   -9000005    1    1    2    0  501 -0.14171225160E+03  0.28198260515E+03  0.14742388817E+03  0.53040583958E+03  0.40000000000E+03 0.  1.
<mgrwt>
<rscale>  2 0.50950618E+03</rscale>
<asrwt>0</asrwt>
<pdfrwt beam="1">  1        2 0.15404595E+00 0.50950618E+03</pdfrwt>
<pdfrwt beam="2">  1       -2 0.64470198E-01 0.50950618E+03</pdfrwt>
<totfact> 0.58115417E+01</totfact>
</mgrwt>
</event>
<event>
 4    1  0.2318373E-002  0.4299527E+03  0.7818608E-02  0.1033875E+00
         -1   -1    0    0    0  501 -0.00000000000E+00  0.00000000000E+00  0.15596237910E+03  0.15596237910E+03  0.00000000000E+00 0. -1.
          1   -1    0    0  502    0  0.00000000000E+00 -0.00000000000E+00 -0.13000159320E+04  0.13000159320E+04  0.00000000000E+00 0.  1.
    9000005    1    1    2  502    0 -0.79550067984E+02  0.13612896577E+03 -0.35575610557E+03  0.55805171381E+03  0.40000000000E+03 0. -1.
   -9000005    1    1    2    0  501  0.79550067984E+02 -0.13612896577E+03 -0.78829744735E+03  0.89792659730E+03  0.40000000000E+03 0. -1.
<mgrwt>
<rscale>  2 0.42995268E+03</rscale>
<asrwt>0</asrwt>
<pdfrwt beam="1">  1        1 0.20000245E+00 0.42995268E+03</pdfrwt>
<pdfrwt beam="2">  1       -1 0.23994212E-01 0.42995268E+03</pdfrwt>
<totfact> 0.14304033E+02</totfact>
</mgrwt>
</event>
<event>
 4    1  0.2318373E-002  0.4727877E+03  0.7818608E-02  0.1021136E+00
          2   -1    0    0  502    0  0.00000000000E+00  0.00000000000E+00  0.71671174348E+03  0.71671174348E+03  0.00000000000E+00 0.  1.
         -2   -1    0    0    0  501 -0.00000000000E+00 -0.00000000000E+00 -0.38412778064E+03  0.38412778064E+03  0.00000000000E+00 0. -1.
    9000005    1    1    2  502    0  0.18667483928E+03 -0.16935383198E+03  0.40500041047E+03  0.62253798961E+03  0.40000000000E+03 0.  1.
   -9000005    1    1    2    0  501 -0.18667483928E+03  0.16935383198E+03 -0.72416447627E+02  0.47830153451E+03  0.40000000000E+03 0.  1.
<mgrwt>
<rscale>  2 0.47278771E+03</rscale>
<asrwt>0</asrwt>
<pdfrwt beam="1">  1        2 0.11026334E+00 0.47278771E+03</pdfrwt>
<pdfrwt beam="2">  1       -2 0.59096582E-01 0.47278771E+03</pdfrwt>
<totfact> 0.10984915E+02</totfact>
</mgrwt>
</event>
<event>
 4    1  0.2318373E-002  0.4762460E+03  0.7818608E-02  0.1020172E+00
         -2   -1    0    0    0  501 -0.00000000000E+00  0.00000000000E+00  0.89699295052E+03  0.89699295052E+03  0.00000000000E+00 0. -1.
          2   -1    0    0  502    0  0.00000000000E+00 -0.00000000000E+00 -0.25912058370E+03  0.25912058370E+03  0.00000000000E+00 0.  1.
    9000005    1    1    2  502    0  0.33580703097E+02 -0.25628623888E+03  0.40881471450E+03  0.62764621456E+03  0.40000000000E+03 0. -1.
   -9000005    1    1    2    0  501 -0.33580703097E+02  0.25628623888E+03  0.22905765232E+03  0.52846731966E+03  0.40000000000E+03 0.  1.
<mgrwt>
<rscale>  2 0.47624605E+03</rscale>
<asrwt>0</asrwt>
<pdfrwt beam="1">  1        2 0.39864706E-01 0.47624605E+03</pdfrwt>
<pdfrwt beam="2">  1       -2 0.13799891E+00 0.47624605E+03</pdfrwt>
<totfact> 0.49657347E+01</totfact>
</mgrwt>
</event>
<event>
 4    1  0.2318373E-002  0.4202668E+03  0.7818608E-02  0.1036979E+00
          2   -1    0    0  502    0  0.00000000000E+00  0.00000000000E+00  0.88433291246E+03  0.88433291246E+03  0.00000000000E+00 0.  1.
         -2   -1    0    0    0  501 -0.00000000000E+00 -0.00000000000E+00 -0.19977276871E+03  0.19977276871E+03  0.00000000000E+00 0. -1.
    9000005    1    1    2  502    0 -0.12025892831E+03  0.46497366574E+02  0.35057987437E+03  0.54729376321E+03  0.40000000000E+03 0.  1.
   -9000005    1    1    2    0  501  0.12025892831E+03 -0.46497366574E+02  0.33398026938E+03  0.53681191797E+03  0.40000000000E+03 0. -1.
<mgrwt>
<rscale>  2 0.42026684E+03</rscale>
<asrwt>0</asrwt>
<pdfrwt beam="1">  1        2 0.13605122E+00 0.42026684E+03</pdfrwt>
<pdfrwt beam="2">  1       -2 0.30734273E-01 0.42026684E+03</pdfrwt>
<totfact> 0.30252962E+02</totfact>
</mgrwt>
</event>
<event>
 4    1  0.2318373E-002  0.5348129E+03  0.7818608E-02  0.1005072E+00
         -1   -1    0    0    0  501 -0.00000000000E+00  0.00000000000E+00  0.12705493975E+03  0.12705493975E+03  0.00000000000E+00 0.  1.
          1   -1    0    0  502    0  0.00000000000E+00 -0.00000000000E+00 -0.22870040339E+04  0.22870040339E+04  0.00000000000E+00 0. -1.
    9000005    1    1    2  502    0  0.10649668868E+03  0.33864915248E+03 -0.12310214514E+04  0.13421768166E+04  0.40000000000E+03 0. -1.
   -9000005    1    1    2    0  501 -0.10649668868E+03 -0.33864915248E+03 -0.92892764272E+03  0.10718821570E+04  0.40000000000E+03 0. -1.
<mgrwt>
<rscale>  2 0.53481286E+03</rscale>
<asrwt>0</asrwt>
<pdfrwt beam="1">  1        1 0.35184677E+00 0.53481286E+03</pdfrwt>
<pdfrwt beam="2">  1       -1 0.19546914E-01 0.53481286E+03</pdfrwt>
<totfact> 0.43315475E+01</totfact>
</mgrwt>
</event>
<event>
 4    1  0.2318373E-002  0.4696819E+03  0.7818608E-02  0.1022010E+00
          1   -1    0    0  502    0  0.00000000000E+00  0.00000000000E+00  0.15037345831E+04  0.15037345831E+04  0.00000000000E+00 0. -1.
         -1   -1    0    0    0  501 -0.00000000000E+00 -0.00000000000E+00 -0.28618640937E+03  0.28618640937E+03  0.00000000000E+00 0.  1.
    9000005    1    1    2  502    0 -0.16071517475E+03  0.18647181899E+03 -0.16027253708E+02  0.46995529525E+03  0.40000000000E+03 0.  1.
   -9000005    1    1    2    0  501  0.16071517475E+03 -0.18647181899E+03  0.12335754274E+04  0.13199656972E+04  0.40000000000E+03 0. -1.
<mgrwt>
<rscale>  2 0.46968192E+03</rscale>
<asrwt>0</asrwt>
<pdfrwt beam="1">  1        1 0.23134378E+00 0.46968192E+03</pdfrwt>
<pdfrwt beam="2">  1       -1 0.44028679E-01 0.46968192E+03</pdfrwt>
<totfact> 0.35663966E+01</totfact>
</mgrwt>
</event>
<event>
 4    1  0.2318373E-002  0.4470254E+03  0.7818608E-02  0.1028613E+00
         -1   -1    0    0    0  501 -0.00000000000E+00  0.00000000000E+00  0.66933859296E+03  0.66933859296E+03  0.00000000000E+00 0.  1.
          1   -1    0    0  502    0  0.00000000000E+00 -0.00000000000E+00 -0.30245062158E+03  0.30245062158E+03  0.00000000000E+00 0. -1.
    9000005    1    1    2  502    0 -0.20475057384E+02  0.19852582975E+03  0.12827133583E+03  0.46506480048E+03  0.40000000000E+03 0. -1.
   -9000005    1    1    2    0  501  0.20475057384E+02 -0.19852582975E+03  0.23861663555E+03  0.50672441407E+03  0.40000000000E+03 0.  1.
<mgrwt>
<rscale>  2 0.44702543E+03</rscale>
<asrwt>0</asrwt>
<pdfrwt beam="1">  1        1 0.46530865E-01 0.44702543E+03</pdfrwt>
<pdfrwt beam="2">  1       -1 0.10297517E+00 0.44702543E+03</pdfrwt>
<totfact> 0.80697082E+01</totfact>
</mgrwt>
</event>
<event>
 4    1  0.2318373E-002  0.4590950E+03  0.7818608E-02  0.1025044E+00
         -2   -1    0    0    0  501 -0.00000000000E+00  0.00000000000E+00  0.20800888989E+03  0.20800888989E+03  0.00000000000E+00 0. -1.
          2   -1    0    0  502    0  0.00000000000E+00 -0.00000000000E+00 -0.10334728479E+04  0.10334728479E+04  0.00000000000E+00 0.  1.
    9000005    1    1    2  502    0 -0.98915533356E+02 -0.20244480942E+03 -0.49953162517E+03  0.67845414594E+03  0.40000000000E+03 0.  1.
   -9000005    1    1    2    0  501  0.98915533356E+02  0.20244480942E+03 -0.32593233283E+03  0.56302759185E+03  0.40000000000E+03 0.  1.
<mgrwt>
<rscale>  2 0.45909496E+03</rscale>
<asrwt>0</asrwt>
<pdfrwt beam="1">  1        2 0.15899582E+00 0.45909496E+03</pdfrwt>
<pdfrwt beam="2">  1       -2 0.32001368E-01 0.45909496E+03</pdfrwt>
<totfact> 0.22457279E+02</totfact>
</mgrwt>
</event>
<event>
 4    1  0.2318373E-002  0.4340125E+03  0.7818608E-02  0.1032600E+00
          2   -1    0    0  502    0  0.00000000000E+00  0.00000000000E+00  0.10070941693E+04  0.10070941693E+04  0.00000000000E+00 0.  1.
         -2   -1    0    0    0  501 -0.00000000000E+00 -0.00000000000E+00 -0.19973566367E+03  0.19973566367E+03  0.00000000000E+00 0. -1.
    9000005    1    1    2  502    0 -0.80982719770E+02 -0.14767743481E+03  0.25154847404E+03  0.50164076832E+03  0.40000000000E+03 0. -1.
   -9000005    1    1    2    0  501  0.80982719770E+02  0.14767743481E+03  0.55581003156E+03  0.70518906460E+03  0.40000000000E+03 0.  1.
<mgrwt>
<rscale>  2 0.43401247E+03</rscale>
<asrwt>0</asrwt>
<pdfrwt beam="1">  1        2 0.15493756E+00 0.43401247E+03</pdfrwt>
<pdfrwt beam="2">  1       -2 0.30728564E-01 0.43401247E+03</pdfrwt>
<totfact> 0.25199798E+02</totfact>
</mgrwt>
</event>
<event>
 4    1  0.2318373E-002  0.4509420E+03  0.7818608E-02  0.1027442E+00
         -2   -1    0    0    0  501 -0.00000000000E+00  0.00000000000E+00  0.24268335708E+03  0.24268335708E+03  0.00000000000E+00 0.  1.
          2   -1    0    0  502    0  0.00000000000E+00 -0.00000000000E+00 -0.12650981365E+04  0.12650981365E+04  0.00000000000E+00 0. -1.
    9000005    1    1    2  502    0  0.36520396308E+02  0.20497543189E+03 -0.94928596131E+03  0.10509483828E+04  0.40000000000E+03 0. -1.
   -9000005    1    1    2    0  501 -0.36520396308E+02 -0.20497543189E+03 -0.73128818094E+02  0.45683311073E+03  0.40000000000E+03 0.  1.
<mgrwt>
<rscale>  2 0.45094198E+03</rscale>
<asrwt>0</asrwt>
<pdfrwt beam="1">  1        2 0.19463048E+00 0.45094198E+03</pdfrwt>
<pdfrwt beam="2">  1       -2 0.37335902E-01 0.45094198E+03</pdfrwt>
<totfact> 0.12257818E+02</totfact>
</mgrwt>
</event>
<event>
 4    1  0.2318373E-002  0.4306380E+03  0.7818608E-02  0.1033659E+00
          1   -1    0    0  502    0  0.00000000000E+00  0.00000000000E+00  0.11675531345E+04  0.11675531345E+04  0.00000000000E+00 0.  1.
         -1   -1    0    0    0  501 -0.00000000000E+00 -0.00000000000E+00 -0.16327021571E+03  0.16327021571E+03  0.00000000000E+00 0. -1.
    9000005    1    1    2  502    0  0.39770155254E+02  0.15449079234E+03  0.39247796065E+03  0.58265600466E+03  0.40000000000E+03 0. -1.
   -9000005    1    1    2    0  501 -0.39770155254E+02 -0.15449079234E+03  0.61180495818E+03  0.74816734560E+03  0.40000000000E+03 0.  1.
<mgrwt>
<rscale>  2 0.43063798E+03</rscale>
<asrwt>0</asrwt>
<pdfrwt beam="1">  1        1 0.17962355E+00 0.43063798E+03</pdfrwt>
<pdfrwt beam="2">  1       -1 0.25118495E-01 0.43063798E+03</pdfrwt>
<totfact> 0.16424679E+02</totfact>
</mgrwt>
</event>
<event>
 4    1  0.2318373E-002  0.4016560E+03  0.7818608E-02  0.1043208E+00
          1   -1    0    0  502    0  0.00000000000E+00  0.00000000000E+00  0.38321059232E+03  0.38321059232E+03  0.00000000000E+00 0.  1.
         -1   -1    0    0    0  501 -0.00000000000E+00 -0.00000000000E+00 -0.70778036295E+03  0.70778036295E+03  0.00000000000E+00 0. -1.
    9000005    1    1    2  502    0 -0.15559089979E+02 -0.32946548659E+02 -0.50952085282E+03  0.64879816569E+03  0.40000000000E+03 0. -1.
   -9000005    1    1    2    0  501  0.15559089979E+02  0.32946548659E+02  0.18495108219E+03  0.44219278958E+03  0.40000000000E+03 0.  1.
<mgrwt>
<rscale>  2 0.40165602E+03</rscale>
<asrwt>0</asrwt>
<pdfrwt beam="1">  1        1 0.58955477E-01 0.40165602E+03</pdfrwt>
<pdfrwt beam="2">  1       -1 0.10888928E+00 0.40165602E+03</pdfrwt>
<totfact> 0.52615320E+01</totfact>
</mgrwt>
</event>
<event>
 4    1  0.2318373E-002  0.4364855E+03  0.7818608E-02  0.1031831E+00
          1   -1    0    0  502    0  0.00000000000E+00  0.00000000000E+00  0.24080875877E+03  0.24080875877E+03  0.00000000000E+00 0.  1.
         -1   -1    0    0    0  501 -0.00000000000E+00 -0.00000000000E+00 -0.84180880745E+03  0.84180880745E+03  0.00000000000E+00 0. -1.
    9000005    1    1    2  502    0  0.12621981316E+03 -0.12078143013E+03 -0.43326977489E+03  0.61501405913E+03  0.40000000000E+03 0. -1.
   -9000005    1    1    2    0  501 -0.12621981316E+03  0.12078143013E+03 -0.16773027378E+03  0.46760350709E+03  0.40000000000E+03 0.  1.
<mgrwt>
<rscale>  2 0.43648550E+03</rscale>
<asrwt>0</asrwt>
<pdfrwt beam="1">  1        1 0.37047502E-01 0.43648550E+03</pdfrwt>
<pdfrwt beam="2">  1       -1 0.12950905E+00 0.43648550E+03</pdfrwt>
<totfact> 0.62671041E+01</totfact>
</mgrwt>
</event>
<event>
 4    1  0.2318373E-002  0.4106497E+03  0.7818608E-02  0.1040153E+00
         -2   -1    0    0    0  501 -0.00000000000E+00  0.00000000000E+00  0.82102416050E+02  0.82102416050E+02  0.00000000000E+00 0. -1.
          2   -1    0    0  502    0  0.00000000000E+00 -0.00000000000E+00 -0.20841800094E+04  0.20841800094E+04  0.00000000000E+00 0.  1.
    9000005    1    1    2  502    0 -0.83632399600E+02  0.40482303058E+02 -0.87056312772E+03  0.96255563708E+03  0.40000000000E+03 0.  1.
   -9000005    1    1    2    0  501  0.83632399600E+02 -0.40482303058E+02 -0.11315144657E+04  0.12037267884E+04  0.40000000000E+03 0. -1.
<mgrwt>
<rscale>  2 0.41064972E+03</rscale>
<asrwt>0</asrwt>
<pdfrwt beam="1">  1        2 0.32064311E+00 0.41064972E+03</pdfrwt>
<pdfrwt beam="2">  1       -2 0.12631140E-01 0.41064972E+03</pdfrwt>
<totfact> 0.29839744E+02</totfact>
</mgrwt>
</event>
<event>
 4    1  0.2318373E-002  0.4977076E+03  0.7818608E-02  0.1014379E+00
          1   -1    0    0  502    0  0.00000000000E+00  0.00000000000E+00  0.70015657422E+03  0.70015657422E+03  0.00000000000E+00 0.  1.
         -1   -1    0    0    0  501 -0.00000000000E+00 -0.00000000000E+00 -0.45954156586E+03  0.45954156586E+03  0.00000000000E+00 0. -1.
    9000005    1    1    2  502    0  0.29428856220E+03  0.33273217055E+02 -0.15784492526E+03  0.52213780293E+03  0.40000000000E+03 0. -1.
   -9000005    1    1    2    0  501 -0.29428856220E+03 -0.33273217055E+02  0.39845993361E+03  0.63756033715E+03  0.40000000000E+03 0.  1.
<mgrwt>
<rscale>  2 0.49770761E+03</rscale>
<asrwt>0</asrwt>
<pdfrwt beam="1">  1        1 0.10771640E+00 0.49770761E+03</pdfrwt>
<pdfrwt beam="2">  1       -1 0.70698702E-01 0.49770761E+03</pdfrwt>
<totfact> 0.57774490E+01</totfact>
</mgrwt>
</event>
<event>
 4    1  0.2318373E-002  0.4406722E+03  0.7818608E-02  0.1030541E+00
          2   -1    0    0  502    0  0.00000000000E+00  0.00000000000E+00  0.96399243664E+03  0.96399243664E+03  0.00000000000E+00 0. -1.
         -2   -1    0    0    0  501 -0.00000000000E+00 -0.00000000000E+00 -0.32115216222E+03  0.32115216222E+03  0.00000000000E+00 0.  1.
    9000005    1    1    2  502    0 -0.75898447643E+02  0.16861609029E+03  0.71372680908E+03  0.83880743812E+03  0.40000000000E+03 0. -1.
   -9000005    1    1    2    0  501  0.75898447643E+02 -0.16861609029E+03 -0.70886534652E+02  0.44633716074E+03  0.40000000000E+03 0.  1.
<mgrwt>
<rscale>  2 0.44067217E+03</rscale>
<asrwt>0</asrwt>
<pdfrwt beam="1">  1        2 0.14830653E+00 0.44067217E+03</pdfrwt>
<pdfrwt beam="2">  1       -2 0.49408025E-01 0.44067217E+03</pdfrwt>
<totfact> 0.10739862E+02</totfact>
</mgrwt>
</event>
<event>
 4    1  0.2318373E-002  0.4919848E+03  0.7818608E-02  0.1015892E+00
          2   -1    0    0  502    0  0.00000000000E+00  0.00000000000E+00  0.92787670424E+03  0.92787670424E+03  0.00000000000E+00 0. -1.
         -2   -1    0    0    0  501 -0.00000000000E+00 -0.00000000000E+00 -0.27924243707E+03  0.27924243707E+03  0.00000000000E+00 0.  1.
    9000005    1    1    2  502    0 -0.16174580834E+03 -0.23640496546E+03  0.16947414609E+03  0.52035612844E+03  0.40000000000E+03 0.  1.
   -9000005    1    1    2    0  501  0.16174580834E+03  0.23640496546E+03  0.47916012108E+03  0.68676301287E+03  0.40000000000E+03 0. -1.
<mgrwt>
<rscale>  2 0.49198477E+03</rscale>
<asrwt>0</asrwt>
<pdfrwt beam="1">  1        2 0.14275026E+00 0.49198477E+03</pdfrwt>
<pdfrwt beam="2">  1       -2 0.42960375E-01 0.49198477E+03</pdfrwt>
<totfact> 0.14882847E+02</totfact>
</mgrwt>
</event>
<event>
 4    1  0.2318373E-002  0.4041768E+03  0.7818608E-02  0.1042343E+00
         -2   -1    0    0    0  501 -0.00000000000E+00  0.00000000000E+00  0.28852489926E+03  0.28852489926E+03  0.00000000000E+00 0.  1.
          2   -1    0    0  502    0  0.00000000000E+00 -0.00000000000E+00 -0.10039657100E+04  0.10039657100E+04  0.00000000000E+00 0. -1.
    9000005    1    1    2  502    0 -0.18129298636E+02  0.55047246864E+02 -0.78446259615E+03  0.88246271060E+03  0.40000000000E+03 0. -1.
   -9000005    1    1    2    0  501  0.18129298636E+02 -0.55047246864E+02  0.69021785360E+02  0.41002789870E+03  0.40000000000E+03 0.  1.
<mgrwt>
<rscale>  2 0.40417678E+03</rscale>
<asrwt>0</asrwt>
<pdfrwt beam="1">  1        2 0.15445627E+00 0.40417678E+03</pdfrwt>
<pdfrwt beam="2">  1       -2 0.44388445E-01 0.40417678E+03</pdfrwt>
<totfact> 0.12600853E+02</totfact>
</mgrwt>
</event>
<event>
 4    1  0.2318373E-002  0.4541505E+03  0.7818608E-02  0.1026491E+00
         -3   -1    0    0    0  501 -0.00000000000E+00  0.00000000000E+00  0.40371651514E+03  0.40371651514E+03  0.00000000000E+00 0.  1.
          3   -1    0    0  502    0  0.00000000000E+00 -0.00000000000E+00 -0.52480094013E+03  0.52480094013E+03  0.00000000000E+00 0. -1.
    9000005    1    1    2  502    0 -0.11466169498E+03 -0.18194888446E+03 -0.13614180856E+03  0.47411738303E+03  0.40000000000E+03 0. -1.
   -9000005    1    1    2    0  501  0.11466169498E+03  0.18194888446E+03  0.15057383568E+02  0.45440007224E+03  0.40000000000E+03 0. -1.
<mgrwt>
<rscale>  2 0.45415053E+03</rscale>
<asrwt>0</asrwt>
<pdfrwt beam="1">  1        3 0.80738606E-01 0.45415053E+03</pdfrwt>
<pdfrwt beam="2">  1       -3 0.62110234E-01 0.45415053E+03</pdfrwt>
<totfact> 0.93727830E+00</totfact>
</mgrwt>
</event>
<event>
 4    1  0.2318373E-002  0.4671781E+03  0.7818608E-02  0.1022720E+00
          3   -1    0    0  502    0  0.00000000000E+00  0.00000000000E+00  0.37626985140E+03  0.37626985140E+03  0.00000000000E+00 0. -1.
         -3   -1    0    0    0  501 -0.00000000000E+00 -0.00000000000E+00 -0.65816159441E+03  0.65816159441E+03  0.00000000000E+00 0.  1.
    9000005    1    1    2  502    0  0.14558620089E+03 -0.19250971635E+03 -0.31912759741E+03  0.56577182345E+03  0.40000000000E+03 0. -1.
   -9000005    1    1    2    0  501 -0.14558620089E+03  0.19250971635E+03  0.37235854406E+02  0.46865962236E+03  0.40000000000E+03 0.  1.
<mgrwt>
<rscale>  2 0.46717805E+03</rscale>
<asrwt>0</asrwt>
<pdfrwt beam="1">  1        3 0.57887670E-01 0.46717805E+03</pdfrwt>
<pdfrwt beam="2">  1       -3 0.10125563E+00 0.46717805E+03</pdfrwt>
<totfact> 0.64871603E+00</totfact>
</mgrwt>
</event>
<event>
 4    1  0.2318373E-002  0.4247991E+03  0.7818608E-02  0.1035516E+00
         -2   -1    0    0    0  501 -0.00000000000E+00  0.00000000000E+00  0.66458422139E+03  0.66458422139E+03  0.00000000000E+00 0. -1.
          2   -1    0    0  502    0  0.00000000000E+00 -0.00000000000E+00 -0.31697725996E+03  0.31697725996E+03  0.00000000000E+00 0.  1.
    9000005    1    1    2  502    0 -0.77438198003E+02  0.12023989368E+03 -0.12032193210E+02  0.42496950504E+03  0.40000000000E+03 0.  1.
   -9000005    1    1    2    0  501  0.77438198003E+02 -0.12023989368E+03  0.35963915464E+03  0.55659197631E+03  0.40000000000E+03 0. -1.
<mgrwt>
<rscale>  2 0.42479914E+03</rscale>
<asrwt>0</asrwt>
<pdfrwt beam="1">  1        2 0.48765732E-01 0.42479914E+03</pdfrwt>
<pdfrwt beam="2">  1       -2 0.10224373E+00 0.42479914E+03</pdfrwt>
<totfact> 0.83374430E+01</totfact>
</mgrwt>
</event>
<event>
 4    1  0.2318373E-002  0.4227285E+03  0.7818608E-02  0.1036182E+00
          2   -1    0    0  502    0  0.00000000000E+00  0.00000000000E+00  0.22544969445E+04  0.22544969445E+04  0.00000000000E+00 0.  1.
         -2   -1    0    0    0  501 -0.00000000000E+00 -0.00000000000E+00 -0.79598958688E+02  0.79598958688E+02  0.00000000000E+00 0. -1.
    9000005    1    1    2  502    0  0.18363990363E+02 -0.13550691129E+03  0.10116884853E+04  0.10964547188E+04  0.40000000000E+03 0. -1.
   -9000005    1    1    2    0  501 -0.18363990363E+02  0.13550691129E+03  0.11632095006E+04  0.12376411844E+04  0.40000000000E+03 0.  1.
<mgrwt>
<rscale>  2 0.42272847E+03</rscale>
<asrwt>0</asrwt>
<pdfrwt beam="1">  1        2 0.34684564E+00 0.42272847E+03</pdfrwt>
<pdfrwt beam="2">  1       -2 0.12245995E-01 0.42272847E+03</pdfrwt>
<totfact> 0.25361938E+02</totfact>
</mgrwt>
</event>
<event>
 4    1  0.2318373E-002  0.4331301E+03  0.7818608E-02  0.1032876E+00
         -2   -1    0    0    0  501 -0.00000000000E+00  0.00000000000E+00  0.26592132957E+03  0.26592132957E+03  0.00000000000E+00 0.  1.
          2   -1    0    0  502    0  0.00000000000E+00 -0.00000000000E+00 -0.14300484958E+04  0.14300484958E+04  0.00000000000E+00 0. -1.
    9000005    1    1    2  502    0 -0.15375410946E+03 -0.62939186369E+02  0.21541715391E+02  0.43366543886E+03  0.40000000000E+03 0.  1.
   -9000005    1    1    2    0  501  0.15375410946E+03  0.62939186369E+02 -0.11856688816E+04  0.12623043865E+04  0.40000000000E+03 0. -1.
<mgrwt>
<rscale>  2 0.43313008E+03</rscale>
<asrwt>0</asrwt>
<pdfrwt beam="1">  1        2 0.22000746E+00 0.43313008E+03</pdfrwt>
<pdfrwt beam="2">  1       -2 0.40910974E-01 0.43313008E+03</pdfrwt>
<totfact> 0.83291327E+01</totfact>
</mgrwt>
</event>
<event>
 4    1  0.2318373E-002  0.4383865E+03  0.7818608E-02  0.1031243E+00
          2   -1    0    0  502    0  0.00000000000E+00  0.00000000000E+00  0.12824305093E+04  0.12824305093E+04  0.00000000000E+00 0.  1.
         -2   -1    0    0    0  501 -0.00000000000E+00 -0.00000000000E+00 -0.29836028783E+03  0.29836028783E+03  0.00000000000E+00 0. -1.
    9000005    1    1    2  502    0  0.16760068346E+03  0.63974395325E+02  0.10496574858E+04  0.11375251865E+04  0.40000000000E+03 0.  1.
   -9000005    1    1    2    0  501 -0.16760068346E+03 -0.63974395325E+02 -0.65587264329E+02  0.44326561066E+03  0.40000000000E+03 0. -1.
<mgrwt>
<rscale>  2 0.43838649E+03</rscale>
<asrwt>0</asrwt>
<pdfrwt beam="1">  1        2 0.19729700E+00 0.43838649E+03</pdfrwt>
<pdfrwt beam="2">  1       -2 0.45901583E-01 0.43838649E+03</pdfrwt>
<totfact> 0.80293599E+01</totfact>
</mgrwt>
</event>
<event>
 4    1  0.2318373E-002  0.4395646E+03  0.7818608E-02  0.1030880E+00
         -1   -1    0    0    0  501 -0.00000000000E+00  0.00000000000E+00  0.56885457367E+03  0.56885457367E+03  0.00000000000E+00 0.  1.
          1   -1    0    0  502    0  0.00000000000E+00 -0.00000000000E+00 -0.37611023162E+03  0.37611023162E+03  0.00000000000E+00 0. -1.
    9000005    1    1    2  502    0 -0.93672476440E+02 -0.15634110323E+03 -0.50716408789E+02  0.44248076514E+03  0.40000000000E+03 0. -1.
   -9000005    1    1    2    0  501  0.93672476440E+02  0.15634110323E+03  0.24346075085E+03  0.50248404015E+03  0.40000000000E+03 0.  1.
<mgrwt>
<rscale>  2 0.43956464E+03</rscale>
<asrwt>0</asrwt>
<pdfrwt beam="1">  1        1 0.57863113E-01 0.43956464E+03</pdfrwt>
<pdfrwt beam="2">  1       -1 0.87516088E-01 0.43956464E+03</pdfrwt>
<totfact> 0.87462184E+01</totfact>
</mgrwt>
</event>
<event>
 4    1  0.2318373E-002  0.7112907E+03  0.7818608E-02  0.9698116E-01
         -2   -1    0    0    0  501 -0.00000000000E+00  0.00000000000E+00  0.48400288269E+03  0.48400288269E+03  0.00000000000E+00 0.  1.
          2   -1    0    0  502    0  0.00000000000E+00 -0.00000000000E+00 -0.15301605800E+04  0.15301605800E+04  0.00000000000E+00 0. -1.
    9000005    1    1    2  502    0  0.33296284083E+03  0.48484033187E+03 -0.10899690182E+04  0.13015248217E+04  0.40000000000E+03 0.  1.
   -9000005    1    1    2    0  501 -0.33296284083E+03 -0.48484033187E+03  0.43811320932E+02  0.71263864099E+03  0.40000000000E+03 0. -1.
<mgrwt>
<rscale>  2 0.71129066E+03</rscale>
<asrwt>0</asrwt>
<pdfrwt beam="1">  1        2 0.23540932E+00 0.71129066E+03</pdfrwt>
<pdfrwt beam="2">  1       -2 0.74461983E-01 0.71129066E+03</pdfrwt>
<totfact> 0.20388564E+01</totfact>
</mgrwt>
</event>
<event>
 4    1  0.2318373E-002  0.4382555E+03  0.7818608E-02  0.1031283E+00
          2   -1    0    0  502    0  0.00000000000E+00  0.00000000000E+00  0.26900337139E+03  0.26900337139E+03  0.00000000000E+00 0. -1.
         -2   -1    0    0    0  501 -0.00000000000E+00 -0.00000000000E+00 -0.71568432524E+03  0.71568432524E+03  0.00000000000E+00 0.  1.
    9000005    1    1    2  502    0  0.17252740430E+03  0.47981105170E+02 -0.19944214149E+03  0.48150291743E+03  0.40000000000E+03 0.  1.
   -9000005    1    1    2    0  501 -0.17252740430E+03 -0.47981105170E+02 -0.24723881236E+03  0.50318477921E+03  0.40000000000E+03 0. -1.
<mgrwt>
<rscale>  2 0.43825551E+03</rscale>
<asrwt>0</asrwt>
<pdfrwt beam="1">  1        2 0.41385135E-01 0.43825551E+03</pdfrwt>
<pdfrwt beam="2">  1       -2 0.11010528E+00 0.43825551E+03</pdfrwt>
<totfact> 0.83570178E+01</totfact>
</mgrwt>
</event>
<event>
 4    1  0.2318373E-002  0.4471289E+03  0.7818608E-02  0.1028582E+00
         -1   -1    0    0    0  501 -0.00000000000E+00  0.00000000000E+00  0.16778910525E+03  0.16778910525E+03  0.00000000000E+00 0. -1.
          1   -1    0    0  502    0  0.00000000000E+00 -0.00000000000E+00 -0.11925993754E+04  0.11925993754E+04  0.00000000000E+00 0.  1.
    9000005    1    1    2  502    0 -0.17810382177E+03  0.90571850279E+02 -0.49195086673E+03  0.66478559451E+03  0.40000000000E+03 0.  1.
   -9000005    1    1    2    0  501  0.17810382177E+03 -0.90571850279E+02 -0.53285940340E+03  0.69560288612E+03  0.40000000000E+03 0.  1.
<mgrwt>
<rscale>  2 0.44712888E+03</rscale>
<asrwt>0</asrwt>
<pdfrwt beam="1">  1        1 0.18347683E+00 0.44712888E+03</pdfrwt>
<pdfrwt beam="2">  1       -1 0.25813708E-01 0.44712888E+03</pdfrwt>
<totfact> 0.15018029E+02</totfact>
</mgrwt>
</event>
<event>
 4    1  0.2318373E-002  0.4021379E+03  0.7818608E-02  0.1043042E+00
         -2   -1    0    0    0  501 -0.00000000000E+00  0.00000000000E+00  0.25917253823E+03  0.25917253823E+03  0.00000000000E+00 0. -1.
          2   -1    0    0  502    0  0.00000000000E+00 -0.00000000000E+00 -0.64653190247E+03  0.64653190247E+03  0.00000000000E+00 0.  1.
    9000005    1    1    2  502    0  0.31448317754E+02  0.26942563779E+02 -0.10907660667E+03  0.41666845880E+03  0.40000000000E+03 0.  1.
   -9000005    1    1    2    0  501 -0.31448317754E+02 -0.26942563779E+02 -0.27828275758E+03  0.48903598190E+03  0.40000000000E+03 0. -1.
<mgrwt>
<rscale>  2 0.40213791E+03</rscale>
<asrwt>0</asrwt>
<pdfrwt beam="1">  1        2 0.99466447E-01 0.40213791E+03</pdfrwt>
<pdfrwt beam="2">  1       -2 0.39872698E-01 0.40213791E+03</pdfrwt>
<totfact> 0.27636194E+02</totfact>
</mgrwt>
</event>
<event>
 4    1  0.2318373E-002  0.4322794E+03  0.7818608E-02  0.1033142E+00
          2   -1    0    0  502    0  0.00000000000E+00  0.00000000000E+00  0.32488491714E+04  0.32488491714E+04  0.00000000000E+00 0. -1.
         -2   -1    0    0    0  501 -0.00000000000E+00 -0.00000000000E+00 -0.14509645737E+03  0.14509645737E+03  0.00000000000E+00 0.  1.
    9000005    1    1    2  502    0 -0.16384875318E+03 -0.43678822621E+01  0.28702742816E+04  0.29026436130E+04  0.40000000000E+03 0. -1.
   -9000005    1    1    2    0  501  0.16384875318E+03  0.43678822621E+01  0.23347843244E+03  0.49130201580E+03  0.40000000000E+03 0.  1.
<mgrwt>
<rscale>  2 0.43227941E+03</rscale>
<asrwt>0</asrwt>
<pdfrwt beam="1">  1        2 0.49982289E+00 0.43227941E+03</pdfrwt>
<pdfrwt beam="2">  1       -2 0.22322534E-01 0.43227941E+03</pdfrwt>
<totfact> 0.24225011E+01</totfact>
</mgrwt>
</event>
<event>
 4    1  0.2318373E-002  0.4623216E+03  0.7818608E-02  0.1024110E+00
          2   -1    0    0  502    0  0.00000000000E+00  0.00000000000E+00  0.26196982163E+04  0.26196982163E+04  0.00000000000E+00 0.  1.
         -2   -1    0    0    0  501 -0.00000000000E+00 -0.00000000000E+00 -0.11888625137E+03  0.11888625137E+03  0.00000000000E+00 0. -1.
    9000005    1    1    2  502    0 -0.21931629486E+03 -0.75110609558E+02  0.20173484370E+04  0.20696463362E+04  0.40000000000E+03 0.  1.
   -9000005    1    1    2    0  501  0.21931629486E+03  0.75110609558E+02  0.48346352801E+03  0.66893813150E+03  0.40000000000E+03 0. -1.
<mgrwt>
<rscale>  2 0.46232158E+03</rscale>
<asrwt>0</asrwt>
<pdfrwt beam="1">  1        2 0.40303045E+00 0.46232158E+03</pdfrwt>
<pdfrwt beam="2">  1       -2 0.18290195E-01 0.46232158E+03</pdfrwt>
<totfact> 0.80673847E+01</totfact>
</mgrwt>
</event>
<event>
 4    1  0.2318373E-002  0.4461231E+03  0.7818608E-02  0.1028885E+00
          2   -1    0    0  502    0  0.00000000000E+00  0.00000000000E+00  0.31143661079E+04  0.31143661079E+04  0.00000000000E+00 0.  1.
         -2   -1    0    0    0  501 -0.00000000000E+00 -0.00000000000E+00 -0.63947610092E+02  0.63947610092E+02  0.00000000000E+00 0. -1.
    9000005    1    1    2  502    0 -0.37491636289E+02 -0.19395934333E+03  0.15658762074E+04  0.16281873807E+04  0.40000000000E+03 0. -1.
   -9000005    1    1    2    0  501  0.37491636289E+02  0.19395934333E+03  0.14845422904E+04  0.15501263373E+04  0.40000000000E+03 0. -1.
<mgrwt>
<rscale>  2 0.44612313E+03</rscale>
<asrwt>0</asrwt>
<pdfrwt beam="1">  1        2 0.47913313E+00 0.44612313E+03</pdfrwt>
<pdfrwt beam="2">  1       -2 0.98380963E-02 0.44612313E+03</pdfrwt>
<totfact> 0.11570455E+02</totfact>
</mgrwt>
</event>
<event>
 4    1  0.2318373E-002  0.4458947E+03  0.7818608E-02  0.1028953E+00
         -2   -1    0    0    0  501 -0.00000000000E+00  0.00000000000E+00  0.20084489472E+03  0.20084489472E+03  0.00000000000E+00 0.  1.
          2   -1    0    0  502    0  0.00000000000E+00 -0.00000000000E+00 -0.10186671110E+04  0.10186671110E+04  0.00000000000E+00 0. -1.
    9000005    1    1    2  502    0  0.95803872079E+02 -0.17217339427E+03 -0.51132852030E+03  0.67843858622E+03  0.40000000000E+03 0. -1.
   -9000005    1    1    2    0  501 -0.95803872079E+02  0.17217339427E+03 -0.30649369597E+03  0.54107341948E+03  0.40000000000E+03 0.  1.
<mgrwt>
<rscale>  2 0.44589467E+03</rscale>
<asrwt>0</asrwt>
<pdfrwt beam="1">  1        2 0.15671802E+00 0.44589467E+03</pdfrwt>
<pdfrwt beam="2">  1       -2 0.30899215E-01 0.44589467E+03</pdfrwt>
<totfact> 0.24506530E+02</totfact>
</mgrwt>
</event>
<event>
 4    1  0.2318373E-002  0.5037643E+03  0.7818608E-02  0.1012801E+00
          2   -1    0    0  502    0  0.00000000000E+00  0.00000000000E+00  0.23524065536E+04  0.23524065536E+04  0.00000000000E+00 0. -1.
         -2   -1    0    0    0  501 -0.00000000000E+00 -0.00000000000E+00 -0.10849189636E+03  0.10849189636E+03  0.00000000000E+00 0.  1.
    9000005    1    1    2  502    0 -0.27135856866E+03  0.14192612878E+03  0.10295787625E+04  0.11462159164E+04  0.40000000000E+03 0.  1.
   -9000005    1    1    2    0  501  0.27135856866E+03 -0.14192612878E+03  0.12143358947E+04  0.13146825335E+04  0.40000000000E+03 0. -1.
<mgrwt>
<rscale>  2 0.50376433E+03</rscale>
<asrwt>0</asrwt>
<pdfrwt beam="1">  1        2 0.36190866E+00 0.50376433E+03</pdfrwt>
<pdfrwt beam="2">  1       -2 0.16691063E-01 0.50376433E+03</pdfrwt>
<totfact> 0.13198179E+02</totfact>
</mgrwt>
</event>
<event>
 4    1  0.2318373E-002  0.5471449E+03  0.7818608E-02  0.1002157E+00
         -2   -1    0    0    0  501 -0.00000000000E+00  0.00000000000E+00  0.15542525580E+03  0.15542525580E+03  0.00000000000E+00 0. -1.
          2   -1    0    0  502    0  0.00000000000E+00 -0.00000000000E+00 -0.21689195445E+04  0.21689195445E+04  0.00000000000E+00 0.  1.
    9000005    1    1    2  502    0 -0.99705009395E+02 -0.35975891101E+03 -0.61790482721E+03  0.82533262291E+03  0.40000000000E+03 0. -1.
   -9000005    1    1    2    0  501  0.99705009395E+02  0.35975891101E+03 -0.13955894615E+04  0.14990121774E+04  0.40000000000E+03 0.  1.
<mgrwt>
<rscale>  2 0.54714492E+03</rscale>
<asrwt>0</asrwt>
<pdfrwt beam="1">  1        2 0.33367991E+00 0.54714492E+03</pdfrwt>
<pdfrwt beam="2">  1       -2 0.23911579E-01 0.54714492E+03</pdfrwt>
<totfact> 0.88385347E+01</totfact>
</mgrwt>
</event>
<event>
 4    1  0.2318373E-002  0.4242630E+03  0.7818608E-02  0.1035688E+00
          1   -1    0    0  502    0  0.00000000000E+00  0.00000000000E+00  0.32713771565E+03  0.32713771565E+03  0.00000000000E+00 0.  1.
         -1   -1    0    0    0  501 -0.00000000000E+00 -0.00000000000E+00 -0.55765880454E+03  0.55765880454E+03  0.00000000000E+00 0. -1.
    9000005    1    1    2  502    0 -0.14140155703E+03  0.21657048777E+01 -0.16634135987E+03  0.45570663657E+03  0.40000000000E+03 0. -1.
   -9000005    1    1    2    0  501  0.14140155703E+03 -0.21657048777E+01 -0.64179729019E+02  0.42908988362E+03  0.40000000000E+03 0.  1.
<mgrwt>
<rscale>  2 0.42426300E+03</rscale>
<asrwt>0</asrwt>
<pdfrwt beam="1">  1        1 0.50328880E-01 0.42426300E+03</pdfrwt>
<pdfrwt beam="2">  1       -1 0.85793661E-01 0.42426300E+03</pdfrwt>
<totfact> 0.10948465E+02</totfact>
</mgrwt>
</event>
<event>
 4    1  0.2318373E-002  0.4506893E+03  0.7818608E-02  0.1027517E+00
         -3   -1    0    0    0  501 -0.00000000000E+00  0.00000000000E+00  0.25244748243E+03  0.25244748243E+03  0.00000000000E+00 0.  1.
          3   -1    0    0  502    0  0.00000000000E+00 -0.00000000000E+00 -0.82687793408E+03  0.82687793408E+03  0.00000000000E+00 0. -1.
    9000005    1    1    2  502    0 -0.79561568730E+01  0.20750307097E+03 -0.37578348945E+03  0.58679984308E+03  0.40000000000E+03 0.  1.
   -9000005    1    1    2    0  501  0.79561568730E+01 -0.20750307097E+03 -0.19864696219E+03  0.49252557343E+03  0.40000000000E+03 0.  1.
<mgrwt>
<rscale>  2 0.45068928E+03</rscale>
<asrwt>0</asrwt>
<pdfrwt beam="1">  1        3 0.12721199E+00 0.45068928E+03</pdfrwt>
<pdfrwt beam="2">  1       -3 0.38838074E-01 0.45068928E+03</pdfrwt>
<totfact> 0.84499969E+00</totfact>
</mgrwt>
</event>
<event>
 4    1  0.2318373E-002  0.4930565E+03  0.7818608E-02  0.1015607E+00
          2   -1    0    0  502    0  0.00000000000E+00  0.00000000000E+00  0.31437391701E+04  0.31437391701E+04  0.00000000000E+00 0.  1.
         -2   -1    0    0    0  501 -0.00000000000E+00 -0.00000000000E+00 -0.10552076424E+03  0.10552076424E+03  0.00000000000E+00 0. -1.
    9000005    1    1    2  502    0 -0.18189212107E+03  0.22365145287E+03  0.67937764662E+03  0.83943951706E+03  0.40000000000E+03 0. -1.
   -9000005    1    1    2    0  501  0.18189212107E+03 -0.22365145287E+03  0.23588407592E+04  0.24098204173E+04  0.40000000000E+03 0.  1.
<mgrwt>
<rscale>  2 0.49305650E+03</rscale>
<asrwt>0</asrwt>
<pdfrwt beam="1">  1        2 0.48365211E+00 0.49305650E+03</pdfrwt>
<pdfrwt beam="2">  1       -2 0.16233966E-01 0.49305650E+03</pdfrwt>
<totfact> 0.48057027E+01</totfact>
</mgrwt>
</event>
<event>
 4    1  0.2318373E-002  0.4840800E+03  0.7818608E-02  0.1018020E+00
         -2   -1    0    0    0  501 -0.00000000000E+00  0.00000000000E+00  0.24437404116E+03  0.24437404116E+03  0.00000000000E+00 0. -1.
          2   -1    0    0  502    0  0.00000000000E+00 -0.00000000000E+00 -0.11277854985E+04  0.11277854985E+04  0.00000000000E+00 0.  1.
    9000005    1    1    2  502    0  0.27237399070E+03  0.12075663873E+02 -0.17622011272E+03  0.51515719988E+03  0.40000000000E+03 0. -1.
   -9000005    1    1    2    0  501 -0.27237399070E+03 -0.12075663873E+02 -0.70719134457E+03  0.85700233973E+03  0.40000000000E+03 0. -1.
<mgrwt>
<rscale>  2 0.48407996E+03</rscale>
<asrwt>0</asrwt>
<pdfrwt beam="1">  1        2 0.17350546E+00 0.48407996E+03</pdfrwt>
<pdfrwt beam="2">  1       -2 0.37596006E-01 0.48407996E+03</pdfrwt>
<totfact> 0.14487507E+02</totfact>
</mgrwt>
</event>
<event>
 4    1  0.2318373E-002  0.4319851E+03  0.7818608E-02  0.1033235E+00
         -1   -1    0    0    0  501 -0.00000000000E+00  0.00000000000E+00  0.78911757902E+02  0.78911757902E+02  0.00000000000E+00 0.  1.
          1   -1    0    0  502    0  0.00000000000E+00 -0.00000000000E+00 -0.26334839559E+04  0.26334839559E+04  0.00000000000E+00 0. -1.
    9000005    1    1    2  502    0 -0.13767009833E+03  0.87510196665E+02 -0.84410171574E+03  0.94821874956E+03  0.40000000000E+03 0.  1.
   -9000005    1    1    2    0  501  0.13767009833E+03 -0.87510196665E+02 -0.17104704822E+04  0.17641769642E+04  0.40000000000E+03 0. -1.
<mgrwt>
<rscale>  2 0.43198506E+03</rscale>
<asrwt>0</asrwt>
<pdfrwt beam="1">  1        1 0.40515130E+00 0.43198506E+03</pdfrwt>
<pdfrwt beam="2">  1       -1 0.12140273E-01 0.43198506E+03</pdfrwt>
<totfact> 0.55768774E+01</totfact>
</mgrwt>
</event>
<event>
 4    1  0.2318373E-002  0.4960987E+03  0.7818608E-02  0.1014802E+00
          2   -1    0    0  502    0  0.00000000000E+00  0.00000000000E+00  0.24239197883E+04  0.24239197883E+04  0.00000000000E+00 0. -1.
         -2   -1    0    0    0  501 -0.00000000000E+00 -0.00000000000E+00 -0.14994596070E+03  0.14994596070E+03  0.00000000000E+00 0.  1.
    9000005    1    1    2  502    0 -0.28738874226E+03  0.59343105874E+02  0.18682238893E+04  0.19329703552E+04  0.40000000000E+03 0. -1.
   -9000005    1    1    2    0  501  0.28738874226E+03 -0.59343105874E+02  0.40574993827E+03  0.64089539381E+03  0.40000000000E+03 0.  1.
<mgrwt>
<rscale>  2 0.49609867E+03</rscale>
<asrwt>0</asrwt>
<pdfrwt beam="1">  1        2 0.37291071E+00 0.49609867E+03</pdfrwt>
<pdfrwt beam="2">  1       -2 0.23068611E-01 0.49609867E+03</pdfrwt>
<totfact> 0.68843277E+01</totfact>
</mgrwt>
</event>
<event>
 4    1  0.2318373E-002  0.5410493E+03  0.7818608E-02  0.1003587E+00
          1   -1    0    0  502    0  0.00000000000E+00  0.00000000000E+00  0.10526855101E+04  0.10526855101E+04  0.00000000000E+00 0.  1.
         -1   -1    0    0    0  501 -0.00000000000E+00 -0.00000000000E+00 -0.28296624507E+03  0.28296624507E+03  0.00000000000E+00 0. -1.
    9000005    1    1    2  502    0 -0.63717008565E+02 -0.35871233751E+03  0.47258617791E+03  0.71838157953E+03  0.40000000000E+03 0.  1.
   -9000005    1    1    2    0  501  0.63717008565E+02  0.35871233751E+03  0.29713308709E+03  0.61727017561E+03  0.40000000000E+03 0. -1.
<mgrwt>
<rscale>  2 0.54104935E+03</rscale>
<asrwt>0</asrwt>
<pdfrwt beam="1">  1        1 0.16195161E+00 0.54104935E+03</pdfrwt>
<pdfrwt beam="2">  1       -1 0.43533269E-01 0.54104935E+03</pdfrwt>
<totfact> 0.74947504E+01</totfact>
</mgrwt>
</event>
<event>
 4    1  0.2318373E-002  0.4685662E+03  0.7818608E-02  0.1022326E+00
          2   -1    0    0  502    0  0.00000000000E+00  0.00000000000E+00  0.27915505416E+04  0.27915505416E+04  0.00000000000E+00 0. -1.
         -2   -1    0    0    0  501 -0.00000000000E+00 -0.00000000000E+00 -0.81773438767E+02  0.81773438767E+02  0.00000000000E+00 0.  1.
    9000005    1    1    2  502    0 -0.24241830820E+03 -0.28064716465E+02  0.10740902381E+04  0.11718464507E+04  0.40000000000E+03 0. -1.
   -9000005    1    1    2    0  501  0.24241830820E+03  0.28064716465E+02  0.16356868647E+04  0.17014775296E+04  0.40000000000E+03 0. -1.
<mgrwt>
<rscale>  2 0.46856618E+03</rscale>
<asrwt>0</asrwt>
<pdfrwt beam="1">  1        2 0.42946924E+00 0.46856618E+03</pdfrwt>
<pdfrwt beam="2">  1       -2 0.12580531E-01 0.46856618E+03</pdfrwt>
<totfact> 0.12036825E+02</totfact>
</mgrwt>
</event>
<event>
 4    1  0.2318373E-002  0.4173609E+03  0.7818608E-02  0.1037929E+00
         -1   -1    0    0    0  501 -0.00000000000E+00  0.00000000000E+00  0.68666301774E+03  0.68666301774E+03  0.00000000000E+00 0.  1.
          1   -1    0    0  502    0  0.00000000000E+00 -0.00000000000E+00 -0.32661714529E+03  0.32661714529E+03  0.00000000000E+00 0. -1.
    9000005    1    1    2  502    0  0.52415975911E+02 -0.10697035725E+03 -0.59399933994E+02  0.42156665430E+03  0.40000000000E+03 0. -1.
   -9000005    1    1    2    0  501 -0.52415975911E+02  0.10697035725E+03  0.41944580645E+03  0.59171350873E+03  0.40000000000E+03 0.  1.
<mgrwt>
<rscale>  2 0.41736087E+03</rscale>
<asrwt>0</asrwt>
<pdfrwt beam="1">  1        1 0.50248792E-01 0.41736087E+03</pdfrwt>
<pdfrwt beam="2">  1       -1 0.10564046E+00 0.41736087E+03</pdfrwt>
<totfact> 0.69203221E+01</totfact>
</mgrwt>
</event>
<event>
 4    1  0.2318373E-002  0.5768842E+03  0.7818608E-02  0.9954559E-01
         -2   -1    0    0    0  501 -0.00000000000E+00  0.00000000000E+00  0.11029390012E+04  0.11029390012E+04  0.00000000000E+00 0.  1.
          2   -1    0    0  502    0  0.00000000000E+00 -0.00000000000E+00 -0.30298493671E+03  0.30298493671E+03  0.00000000000E+00 0. -1.
    9000005    1    1    2  502    0 -0.41469278922E+03 -0.28728405038E+02  0.35482839334E+03  0.67727292830E+03  0.40000000000E+03 0.  1.
   -9000005    1    1    2    0  501  0.41469278922E+03  0.28728405038E+02  0.44512567117E+03  0.72865100962E+03  0.40000000000E+03 0. -1.
<mgrwt>
<rscale>  2 0.57688424E+03</rscale>
<asrwt>0</asrwt>
<pdfrwt beam="1">  1        2 0.46613068E-01 0.57688424E+03</pdfrwt>
<pdfrwt beam="2">  1       -2 0.16968292E+00 0.57688424E+03</pdfrwt>
<totfact> 0.23938075E+01</totfact>
</mgrwt>
</event>
<event>
 4    1  0.2318373E-002  0.5054964E+03  0.7818608E-02  0.1012354E+00
         -2   -1    0    0    0  501 -0.00000000000E+00  0.00000000000E+00  0.35190044077E+03  0.35190044077E+03  0.00000000000E+00 0. -1.
          2   -1    0    0  502    0  0.00000000000E+00 -0.00000000000E+00 -0.15886640873E+04  0.15886640873E+04  0.00000000000E+00 0.  1.
    9000005    1    1    2  502    0  0.41723266900E+02  0.30624467699E+03 -0.13333214236E+04  0.14259286980E+04  0.40000000000E+03 0.  1.
   -9000005    1    1    2    0  501 -0.41723266900E+02 -0.30624467699E+03  0.96557777142E+02  0.51463582999E+03  0.40000000000E+03 0. -1.
<mgrwt>
<rscale>  2 0.50549642E+03</rscale>
<asrwt>0</asrwt>
<pdfrwt beam="1">  1        2 0.24440986E+00 0.50549642E+03</pdfrwt>
<pdfrwt beam="2">  1       -2 0.54138529E-01 0.50549642E+03</pdfrwt>
<totfact> 0.38508063E+01</totfact>
</mgrwt>
</event>
<event>
 4    1  0.2318373E-002  0.4440366E+03  0.7818608E-02  0.1029515E+00
          1   -1    0    0  502    0  0.00000000000E+00  0.00000000000E+00  0.30142872003E+04  0.30142872003E+04  0.00000000000E+00 0.  1.
         -1   -1    0    0    0  501 -0.00000000000E+00 -0.00000000000E+00 -0.69606695768E+02  0.69606695768E+02  0.00000000000E+00 0. -1.
    9000005    1    1    2  502    0 -0.18269784827E+03 -0.61562946197E+02  0.18508956412E+04  0.19034135586E+04  0.40000000000E+03 0. -1.
   -9000005    1    1    2    0  501  0.18269784827E+03  0.61562946197E+02  0.10937848633E+04  0.11804803375E+04  0.40000000000E+03 0.  1.
<mgrwt>
<rscale>  2 0.44403660E+03</rscale>
<asrwt>0</asrwt>
<pdfrwt beam="1">  1        1 0.46373639E+00 0.44403660E+03</pdfrwt>
<pdfrwt beam="2">  1       -1 0.10708725E-01 0.44403660E+03</pdfrwt>
<totfact> 0.36883178E+01</totfact>
</mgrwt>
</event>
<event>
 4    1  0.2318373E-002  0.7524407E+03  0.7818608E-02  0.9631529E-01
          1   -1    0    0  502    0  0.00000000000E+00  0.00000000000E+00  0.14500308860E+04  0.14500308860E+04  0.00000000000E+00 0.  1.
         -1   -1    0    0    0  501 -0.00000000000E+00 -0.00000000000E+00 -0.43957523744E+03  0.43957523744E+03  0.00000000000E+00 0. -1.
    9000005    1    1    2  502    0 -0.19532811436E+03  0.60664146827E+03  0.82106972635E+03  0.11136976425E+04  0.40000000000E+03 0.  1.
   -9000005    1    1    2    0  501  0.19532811436E+03 -0.60664146827E+03  0.18938592216E+03  0.77590848094E+03  0.40000000000E+03 0. -1.
<mgrwt>
<rscale>  2 0.75244066E+03</rscale>
<asrwt>0</asrwt>
<pdfrwt beam="1">  1        1 0.22308167E+00 0.75244066E+03</pdfrwt>
<pdfrwt beam="2">  1       -1 0.67626960E-01 0.75244066E+03</pdfrwt>
<totfact> 0.16239605E+01</totfact>
</mgrwt>
</event>
<event>
 4    1  0.2318373E-002  0.4588612E+03  0.7818608E-02  0.1025112E+00
         -2   -1    0    0    0  501 -0.00000000000E+00  0.00000000000E+00  0.33957125262E+03  0.33957125262E+03  0.00000000000E+00 0. -1.
          2   -1    0    0  502    0  0.00000000000E+00 -0.00000000000E+00 -0.75107965064E+03  0.75107965064E+03  0.00000000000E+00 0.  1.
    9000005    1    1    2  502    0 -0.22401576018E+03  0.19248631771E+02  0.22010163666E+02  0.45938874381E+03  0.40000000000E+03 0. -1.
   -9000005    1    1    2    0  501  0.22401576018E+03 -0.19248631771E+02 -0.43351856168E+03  0.63126215945E+03  0.40000000000E+03 0.  1.
<mgrwt>
<rscale>  2 0.45886117E+03</rscale>
<asrwt>0</asrwt>
<pdfrwt beam="1">  1        2 0.11555071E+00 0.45886117E+03</pdfrwt>
<pdfrwt beam="2">  1       -2 0.52241732E-01 0.45886117E+03</pdfrwt>
<totfact> 0.13372416E+02</totfact>
</mgrwt>
</event>
<event>
 4    1  0.2318373E-002  0.5328973E+03  0.7818608E-02  0.1005532E+00
         -2   -1    0    0    0  501 -0.00000000000E+00  0.00000000000E+00  0.13005656826E+03  0.13005656826E+03  0.00000000000E+00 0. -1.
          2   -1    0    0  502    0  0.00000000000E+00 -0.00000000000E+00 -0.24346561553E+04  0.24346561553E+04  0.00000000000E+00 0.  1.
    9000005    1    1    2  502    0 -0.66442035100E+02 -0.34578178089E+03 -0.74043494131E+03  0.91226283840E+03  0.40000000000E+03 0. -1.
   -9000005    1    1    2    0  501  0.66442035100E+02  0.34578178089E+03 -0.15641646457E+04  0.16524498851E+04  0.40000000000E+03 0.  1.
<mgrwt>
<rscale>  2 0.53289735E+03</rscale>
<asrwt>0</asrwt>
<pdfrwt beam="1">  1        2 0.37456246E+00 0.53289735E+03</pdfrwt>
<pdfrwt beam="2">  1       -2 0.20008704E-01 0.53289735E+03</pdfrwt>
<totfact> 0.86600260E+01</totfact>
</mgrwt>
</event>
<event>
 4    1  0.2318373E-002  0.1109931E+04  0.7818608E-02  0.9195566E-01
          2   -1    0    0  502    0  0.00000000000E+00  0.00000000000E+00  0.21658820214E+04  0.21658820214E+04  0.00000000000E+00 0.  1.
         -2   -1    0    0    0  501 -0.00000000000E+00 -0.00000000000E+00 -0.61478671509E+03  0.61478671509E+03  0.00000000000E+00 0. -1.
    9000005    1    1    2  502    0  0.74412371961E+03 -0.71987997498E+03  0.39528193065E+03  0.11782169126E+04  0.40000000000E+03 0. -1.
   -9000005    1    1    2    0  501 -0.74412371961E+03  0.71987997498E+03  0.11558133756E+04  0.16024518238E+04  0.40000000000E+03 0.  1.
<mgrwt>
<rscale>  2 0.11099312E+04</rscale>
<asrwt>0</asrwt>
<pdfrwt beam="1">  1        2 0.33321261E+00 0.11099312E+04</pdfrwt>
<pdfrwt beam="2">  1       -2 0.94582573E-01 0.11099312E+04</pdfrwt>
<totfact> 0.50331725E+00</totfact>
</mgrwt>
</event>
<event>
 4    1  0.2318373E-002  0.4430894E+03  0.7818608E-02  0.1029803E+00
         -2   -1    0    0    0  501 -0.00000000000E+00  0.00000000000E+00  0.17483200802E+03  0.17483200802E+03  0.00000000000E+00 0. -1.
          2   -1    0    0  502    0  0.00000000000E+00 -0.00000000000E+00 -0.15196265476E+04  0.15196265476E+04  0.00000000000E+00 0.  1.
    9000005    1    1    2  502    0 -0.47099507992E+02  0.18468862157E+03 -0.11052585657E+04  0.11907664539E+04  0.40000000000E+03 0.  1.
   -9000005    1    1    2    0  501  0.47099507992E+02 -0.18468862157E+03 -0.23953597386E+03  0.50369210175E+03  0.40000000000E+03 0. -1.
<mgrwt>
<rscale>  2 0.44308944E+03</rscale>
<asrwt>0</asrwt>
<pdfrwt beam="1">  1        2 0.23378870E+00 0.44308944E+03</pdfrwt>
<pdfrwt beam="2">  1       -2 0.26897232E-01 0.44308944E+03</pdfrwt>
<totfact> 0.16283955E+02</totfact>
</mgrwt>
</event>
<event>
 4    1  0.2318373E-002  0.7372529E+03  0.7818608E-02  0.9655564E-01
          1   -1    0    0  502    0  0.00000000000E+00  0.00000000000E+00  0.97552315266E+03  0.97552315266E+03  0.00000000000E+00 0.  1.
         -1   -1    0    0    0  501 -0.00000000000E+00 -0.00000000000E+00 -0.74963285765E+03  0.74963285765E+03  0.00000000000E+00 0. -1.
    9000005    1    1    2  502    0  0.74369607219E+02 -0.61482593836E+03  0.55000056327E+03  0.91980562759E+03  0.40000000000E+03 0.  1.
   -9000005    1    1    2    0  501 -0.74369607219E+02  0.61482593836E+03 -0.32411026826E+03  0.80535038272E+03  0.40000000000E+03 0. -1.
<mgrwt>
<rscale>  2 0.73725286E+03</rscale>
<asrwt>0</asrwt>
<pdfrwt beam="1">  1        1 0.15008048E+00 0.73725286E+03</pdfrwt>
<pdfrwt beam="2">  1       -1 0.11532813E+00 0.73725286E+03</pdfrwt>
<totfact> 0.11145385E+01</totfact>
</mgrwt>
</event>
<event>
 4    1  0.2318373E-002  0.4005265E+03  0.7818608E-02  0.1043598E+00
          2   -1    0    0  502    0  0.00000000000E+00  0.00000000000E+00  0.21301929874E+04  0.21301929874E+04  0.00000000000E+00 0. -1.
         -2   -1    0    0    0  501 -0.00000000000E+00 -0.00000000000E+00 -0.79306191537E+02  0.79306191537E+02  0.00000000000E+00 0.  1.
    9000005    1    1    2  502    0 -0.16409078696E+02 -0.12337583401E+02  0.12734819247E+04  0.13349822794E+04  0.40000000000E+03 0. -1.
   -9000005    1    1    2    0  501  0.16409078696E+02  0.12337583401E+02  0.77740487114E+03  0.87451689949E+03  0.40000000000E+03 0.  1.
<mgrwt>
<rscale>  2 0.40052650E+03</rscale>
<asrwt>0</asrwt>
<pdfrwt beam="1">  1        2 0.32772195E+00 0.40052650E+03</pdfrwt>
<pdfrwt beam="2">  1       -2 0.12200954E-01 0.40052650E+03</pdfrwt>
<totfact> 0.29884714E+02</totfact>
</mgrwt>
</event>
<event>
 4    1  0.2318373E-002  0.4653555E+03  0.7818608E-02  0.1023239E+00
          1   -1    0    0  502    0  0.00000000000E+00  0.00000000000E+00  0.23598346513E+04  0.23598346513E+04  0.00000000000E+00 0.  1.
         -1   -1    0    0    0  501 -0.00000000000E+00 -0.00000000000E+00 -0.98600337712E+02  0.98600337712E+02  0.00000000000E+00 0. -1.
    9000005    1    1    2  502    0  0.23778440864E+03 -0.37867721661E+01  0.14542070552E+04  0.15268509829E+04  0.40000000000E+03 0.  1.
   -9000005    1    1    2    0  501 -0.23778440864E+03  0.37867721661E+01  0.80702725840E+03  0.93158400611E+03  0.40000000000E+03 0. -1.
<mgrwt>
<rscale>  2 0.46535552E+03</rscale>
<asrwt>0</asrwt>
<pdfrwt beam="1">  1        1 0.36305144E+00 0.46535552E+03</pdfrwt>
<pdfrwt beam="2">  1       -1 0.15169284E-01 0.46535552E+03</pdfrwt>
<totfact> 0.59327119E+01</totfact>
</mgrwt>
</event>
<event>
 4    1  0.2318373E-002  0.4460583E+03  0.7818608E-02  0.1028904E+00
          2   -1    0    0  502    0  0.00000000000E+00  0.00000000000E+00  0.22033717317E+04  0.22033717317E+04  0.00000000000E+00 0.  1.
         -2   -1    0    0    0  501 -0.00000000000E+00 -0.00000000000E+00 -0.12801857668E+03  0.12801857668E+03  0.00000000000E+00 0. -1.
    9000005    1    1    2  502    0  0.16094134724E+03 -0.11430603535E+03  0.40494873475E+03  0.60245453334E+03  0.40000000000E+03 0. -1.
   -9000005    1    1    2    0  501 -0.16094134724E+03  0.11430603535E+03  0.16704044203E+04  0.17289357751E+04  0.40000000000E+03 0.  1.
<mgrwt>
<rscale>  2 0.44605828E+03</rscale>
<asrwt>0</asrwt>
<pdfrwt beam="1">  1        2 0.33898024E+00 0.44605828E+03</pdfrwt>
<pdfrwt beam="2">  1       -2 0.19695167E-01 0.44605828E+03</pdfrwt>
<totfact> 0.12105824E+02</totfact>
</mgrwt>
</event>
<event>
 4    1  0.2318373E-002  0.4609223E+03  0.7818608E-02  0.1024514E+00
         -2   -1    0    0    0  501 -0.00000000000E+00  0.00000000000E+00  0.34988207283E+03  0.34988207283E+03  0.00000000000E+00 0. -1.
          2   -1    0    0  502    0  0.00000000000E+00 -0.00000000000E+00 -0.61177102242E+03  0.61177102242E+03  0.00000000000E+00 0.  1.
    9000005    1    1    2  502    0  0.13739915749E+03  0.18322351878E+03 -0.17249399134E+03  0.49214181224E+03  0.40000000000E+03 0. -1.
   -9000005    1    1    2    0  501 -0.13739915749E+03 -0.18322351878E+03 -0.89394958255E+02  0.46951128301E+03  0.40000000000E+03 0.  1.
<mgrwt>
<rscale>  2 0.46092232E+03</rscale>
<asrwt>0</asrwt>
<pdfrwt beam="1">  1        2 0.94118618E-01 0.46092232E+03</pdfrwt>
<pdfrwt beam="2">  1       -2 0.53828012E-01 0.46092232E+03</pdfrwt>
<totfact> 0.16191777E+02</totfact>
</mgrwt>
</event>
<event>
 4    1  0.2318373E-002  0.5933681E+03  0.7818608E-02  0.9919261E-01
          2   -1    0    0  502    0  0.00000000000E+00  0.00000000000E+00  0.21896383288E+04  0.21896383288E+04  0.00000000000E+00 0. -1.
         -2   -1    0    0    0  501 -0.00000000000E+00 -0.00000000000E+00 -0.17004050910E+03  0.17004050910E+03  0.00000000000E+00 0.  1.
    9000005    1    1    2  502    0 -0.22244707043E+03 -0.37762815757E+03  0.12848933210E+04  0.14152867451E+04  0.40000000000E+03 0. -1.
   -9000005    1    1    2    0  501  0.22244707043E+03  0.37762815757E+03  0.73470449873E+03  0.94439209282E+03  0.40000000000E+03 0.  1.
<mgrwt>
<rscale>  2 0.59336812E+03</rscale>
<asrwt>0</asrwt>
<pdfrwt beam="1">  1        2 0.33686741E+00 0.59336812E+03</pdfrwt>
<pdfrwt beam="2">  1       -2 0.26160080E-01 0.59336812E+03</pdfrwt>
<totfact> 0.72760944E+01</totfact>
</mgrwt>
</event>
<event>
 4    1  0.2318373E-002  0.4167729E+03  0.7818608E-02  0.1038122E+00
          2   -1    0    0  502    0  0.00000000000E+00  0.00000000000E+00  0.48980598140E+03  0.48980598140E+03  0.00000000000E+00 0.  1.
         -2   -1    0    0    0  501 -0.00000000000E+00 -0.00000000000E+00 -0.37304941411E+03  0.37304941411E+03  0.00000000000E+00 0. -1.
    9000005    1    1    2  502    0 -0.31006286649E+02 -0.11286392556E+03  0.15424514676E+03  0.44439984339E+03  0.40000000000E+03 0.  1.
   -9000005    1    1    2    0  501  0.31006286649E+02  0.11286392556E+03 -0.37488579474E+02  0.41845555211E+03  0.40000000000E+03 0. -1.
<mgrwt>
<rscale>  2 0.41677291E+03</rscale>
<asrwt>0</asrwt>
<pdfrwt beam="1">  1        2 0.75354766E-01 0.41677291E+03</pdfrwt>
<pdfrwt beam="2">  1       -2 0.57392218E-01 0.41677291E+03</pdfrwt>
<totfact> 0.18434499E+02</totfact>
</mgrwt>
</event>
<event>
 4    1  0.2318373E-002  0.7045270E+03  0.7818608E-02  0.9709522E-01
          2   -1    0    0  502    0  0.00000000000E+00  0.00000000000E+00  0.17759471630E+04  0.17759471630E+04  0.00000000000E+00 0.  1.
         -2   -1    0    0    0  501 -0.00000000000E+00 -0.00000000000E+00 -0.28108603156E+03  0.28108603156E+03  0.00000000000E+00 0. -1.
    9000005    1    1    2  502    0 -0.25024735721E+03  0.52319641203E+03  0.82494952614E+03  0.10848501952E+04  0.40000000000E+03 0.  1.
   -9000005    1    1    2    0  501  0.25024735721E+03 -0.52319641203E+03  0.66991160534E+03  0.97218299940E+03  0.40000000000E+03 0. -1.
<mgrwt>
<rscale>  2 0.70452695E+03</rscale>
<asrwt>0</asrwt>
<pdfrwt beam="1">  1        2 0.27322263E+00 0.70452695E+03</pdfrwt>
<pdfrwt beam="2">  1       -2 0.43244006E-01 0.70452695E+03</pdfrwt>
<totfact> 0.46557464E+01</totfact>
</mgrwt>
</event>
<event>
 4    1  0.2318373E-002  0.4481634E+03  0.7818608E-02  0.1028271E+00
         -1   -1    0    0    0  501 -0.00000000000E+00  0.00000000000E+00  0.43430180762E+03  0.43430180762E+03  0.00000000000E+00 0. -1.
          1   -1    0    0  502    0  0.00000000000E+00 -0.00000000000E+00 -0.57827883984E+03  0.57827883984E+03  0.00000000000E+00 0.  1.
    9000005    1    1    2  502    0 -0.73253278341E+02 -0.18837302748E+03 -0.29856073261E+03  0.53850622218E+03  0.40000000000E+03 0.  1.
   -9000005    1    1    2    0  501  0.73253278341E+02  0.18837302748E+03  0.15458370039E+03  0.47407442527E+03  0.40000000000E+03 0. -1.
<mgrwt>
<rscale>  2 0.44816341E+03</rscale>
<asrwt>0</asrwt>
<pdfrwt beam="1">  1        1 0.88965975E-01 0.44816341E+03</pdfrwt>
<pdfrwt beam="2">  1       -1 0.66815663E-01 0.44816341E+03</pdfrwt>
<totfact> 0.85918706E+01</totfact>
</mgrwt>
</event>
<event>
 4    1  0.2318373E-002  0.4401619E+03  0.7818608E-02  0.1030697E+00
          1   -1    0    0  502    0  0.00000000000E+00  0.00000000000E+00  0.23126549545E+03  0.23126549545E+03  0.00000000000E+00 0. -1.
         -1   -1    0    0    0  501 -0.00000000000E+00 -0.00000000000E+00 -0.98972476448E+03  0.98972476448E+03  0.00000000000E+00 0.  1.
    9000005    1    1    2  502    0  0.54625904632E+02  0.17538094030E+03 -0.14000164405E+03  0.46189059745E+03  0.40000000000E+03 0. -1.
   -9000005    1    1    2    0  501 -0.54625904632E+02 -0.17538094030E+03 -0.61845762498E+03  0.75909966248E+03  0.40000000000E+03 0.  1.
<mgrwt>
<rscale>  2 0.44016186E+03</rscale>
<asrwt>0</asrwt>
<pdfrwt beam="1">  1        1 0.35579307E-01 0.44016186E+03</pdfrwt>
<pdfrwt beam="2">  1       -1 0.15226535E+00 0.44016186E+03</pdfrwt>
<totfact> 0.43457822E+01</totfact>
</mgrwt>
</event>
<event>
 4    1  0.2318373E-002  0.7528595E+03  0.7818608E-02  0.9630875E-01
          2   -1    0    0  502    0  0.00000000000E+00  0.00000000000E+00  0.24978917197E+04  0.24978917197E+04  0.00000000000E+00 0.  1.
         -2   -1    0    0    0  501 -0.00000000000E+00 -0.00000000000E+00 -0.22924403654E+03  0.22924403654E+03  0.00000000000E+00 0. -1.
    9000005    1    1    2  502    0  0.53468434572E+03 -0.34772124506E+03  0.99674500671E+03  0.12491188984E+04  0.40000000000E+03 0. -1.
   -9000005    1    1    2    0  501 -0.53468434572E+03  0.34772124506E+03  0.12719026764E+04  0.14780168579E+04  0.40000000000E+03 0.  1.
<mgrwt>
<rscale>  2 0.75285949E+03</rscale>
<asrwt>0</asrwt>
<pdfrwt beam="1">  1        2 0.38429101E+00 0.75285949E+03</pdfrwt>
<pdfrwt beam="2">  1       -2 0.35268315E-01 0.75285949E+03</pdfrwt>
<totfact> 0.27499625E+01</totfact>
</mgrwt>
</event>
<event>
 4    1  0.2318373E-002  0.4416103E+03  0.7818608E-02  0.1030254E+00
          1   -1    0    0  502    0  0.00000000000E+00  0.00000000000E+00  0.35233867661E+03  0.35233867661E+03  0.00000000000E+00 0. -1.
         -1   -1    0    0    0  501 -0.00000000000E+00 -0.00000000000E+00 -0.68670509898E+03  0.68670509898E+03  0.00000000000E+00 0.  1.
    9000005    1    1    2  502    0  0.13884557006E+03 -0.12546531270E+03  0.61628530836E+02  0.44588979897E+03  0.40000000000E+03 0. -1.
   -9000005    1    1    2    0  501 -0.13884557006E+03  0.12546531270E+03 -0.39599495321E+03  0.59315397662E+03  0.40000000000E+03 0.  1.
<mgrwt>
<rscale>  2 0.44161028E+03</rscale>
<asrwt>0</asrwt>
<pdfrwt beam="1">  1        1 0.54205950E-01 0.44161028E+03</pdfrwt>
<pdfrwt beam="2">  1       -1 0.10564694E+00 0.44161028E+03</pdfrwt>
<totfact> 0.62564617E+01</totfact>
</mgrwt>
</event>
<event>
 4    1  0.2318373E-002  0.4104730E+03  0.7818608E-02  0.1040212E+00
          2   -1    0    0  502    0  0.00000000000E+00  0.00000000000E+00  0.50848011283E+03  0.50848011283E+03  0.00000000000E+00 0. -1.
         -2   -1    0    0    0  501 -0.00000000000E+00 -0.00000000000E+00 -0.34532116654E+03  0.34532116654E+03  0.00000000000E+00 0.  1.
    9000005    1    1    2  502    0 -0.91966353436E+02  0.54991903503E+01  0.16742837595E+03  0.44330611583E+03  0.40000000000E+03 0. -1.
   -9000005    1    1    2    0  501  0.91966353436E+02 -0.54991903503E+01 -0.42694296564E+01  0.41049516354E+03  0.40000000000E+03 0.  1.
<mgrwt>
<rscale>  2 0.41047296E+03</rscale>
<asrwt>0</asrwt>
<pdfrwt beam="1">  1        2 0.78227710E-01 0.41047296E+03</pdfrwt>
<pdfrwt beam="2">  1       -2 0.53126333E-01 0.41047296E+03</pdfrwt>
<totfact> 0.20716557E+02</totfact>
</mgrwt>
</event>
<event>
 4    1  0.2318373E-002  0.4399618E+03  0.7818608E-02  0.1030759E+00
          2   -1    0    0  502    0  0.00000000000E+00  0.00000000000E+00  0.21905130795E+04  0.21905130795E+04  0.00000000000E+00 0. -1.
         -2   -1    0    0    0  501 -0.00000000000E+00 -0.00000000000E+00 -0.93260648469E+02  0.93260648469E+02  0.00000000000E+00 0.  1.
    9000005    1    1    2  502    0  0.16165300010E+03  0.86224509298E+02  0.78702175010E+03  0.90164826489E+03  0.40000000000E+03 0.  1.
   -9000005    1    1    2    0  501 -0.16165300010E+03 -0.86224509298E+02  0.13102306810E+04  0.13821254631E+04  0.40000000000E+03 0.  1.
<mgrwt>
<rscale>  2 0.43996177E+03</rscale>
<asrwt>0</asrwt>
<pdfrwt beam="1">  1        2 0.33700197E+00 0.43996177E+03</pdfrwt>
<pdfrwt beam="2">  1       -2 0.14347794E-01 0.43996177E+03</pdfrwt>
<totfact> 0.21083553E+02</totfact>
</mgrwt>
</event>
<event>
 4    1  0.2318373E-002  0.5341283E+03  0.7818608E-02  0.1005236E+00
          2   -1    0    0  502    0  0.00000000000E+00  0.00000000000E+00  0.62982541424E+03  0.62982541424E+03  0.00000000000E+00 0. -1.
         -2   -1    0    0    0  501 -0.00000000000E+00 -0.00000000000E+00 -0.49648052487E+03  0.49648052487E+03  0.00000000000E+00 0.  1.
    9000005    1    1    2  502    0  0.64824793306E+02 -0.34798105602E+03  0.23338338476E+03  0.58289010410E+03  0.40000000000E+03 0. -1.
   -9000005    1    1    2    0  501 -0.64824793306E+02  0.34798105602E+03 -0.10003849540E+03  0.54341583501E+03  0.40000000000E+03 0.  1.
<mgrwt>
<rscale>  2 0.53412833E+03</rscale>
<asrwt>0</asrwt>
<pdfrwt beam="1">  1        2 0.96896218E-01 0.53412833E+03</pdfrwt>
<pdfrwt beam="2">  1       -2 0.76381619E-01 0.53412833E+03</pdfrwt>
<totfact> 0.73741595E+01</totfact>
</mgrwt>
</event>
<event>
 4    1  0.2318373E-002  0.4114526E+03  0.7818608E-02  0.1039885E+00
          1   -1    0    0  502    0  0.00000000000E+00  0.00000000000E+00  0.85693472627E+03  0.85693472627E+03  0.00000000000E+00 0.  1.
         -1   -1    0    0    0  501 -0.00000000000E+00 -0.00000000000E+00 -0.23007214766E+03  0.23007214766E+03  0.00000000000E+00 0. -1.
    9000005    1    1    2  502    0  0.82255639391E+02 -0.50271844563E+02  0.51775310327E+03  0.66133314186E+03  0.40000000000E+03 0.  1.
   -9000005    1    1    2    0  501 -0.82255639391E+02  0.50271844563E+02  0.10910947534E+03  0.42567373207E+03  0.40000000000E+03 0. -1.
<mgrwt>
<rscale>  2 0.41145261E+03</rscale>
<asrwt>0</asrwt>
<pdfrwt beam="1">  1        1 0.13183611E+00 0.41145261E+03</pdfrwt>
<pdfrwt beam="2">  1       -1 0.35395715E-01 0.41145261E+03</pdfrwt>
<totfact> 0.15714977E+02</totfact>
</mgrwt>
</event>
<event>
 4    1  0.2318373E-002  0.4772792E+03  0.7818608E-02  0.1019886E+00
         -2   -1    0    0    0  501 -0.00000000000E+00  0.00000000000E+00  0.37133625647E+03  0.37133625647E+03  0.00000000000E+00 0. -1.
          2   -1    0    0  502    0  0.00000000000E+00 -0.00000000000E+00 -0.67513767215E+03  0.67513767215E+03  0.00000000000E+00 0.  1.
    9000005    1    1    2  502    0  0.22793870866E+03 -0.12585478158E+03 -0.31006502291E+03  0.56915358155E+03  0.40000000000E+03 0. -1.
   -9000005    1    1    2    0  501 -0.22793870866E+03  0.12585478158E+03  0.62636072318E+01  0.47732034707E+03  0.40000000000E+03 0.  1.
<mgrwt>
<rscale>  2 0.47727925E+03</rscale>
<asrwt>0</asrwt>
<pdfrwt beam="1">  1        2 0.10386733E+00 0.47727925E+03</pdfrwt>
<pdfrwt beam="2">  1       -2 0.57128655E-01 0.47727925E+03</pdfrwt>
<totfact> 0.12690813E+02</totfact>
</mgrwt>
</event>
<event>
 4    1  0.2318373E-002  0.5550928E+03  0.7818608E-02  0.1000322E+00
         -1   -1    0    0    0  501 -0.00000000000E+00  0.00000000000E+00  0.30119759059E+03  0.30119759059E+03  0.00000000000E+00 0.  1.
          1   -1    0    0  502    0  0.00000000000E+00 -0.00000000000E+00 -0.12980344790E+04  0.12980344790E+04  0.00000000000E+00 0. -1.
    9000005    1    1    2  502    0  0.31501336165E+03 -0.22112128030E+03 -0.86648329038E+03  0.10290390329E+04  0.40000000000E+03 0. -1.
   -9000005    1    1    2    0  501 -0.31501336165E+03  0.22112128030E+03 -0.13035359802E+03  0.57019303673E+03  0.40000000000E+03 0.  1.
<mgrwt>
<rscale>  2 0.55509282E+03</rscale>
<asrwt>0</asrwt>
<pdfrwt beam="1">  1        1 0.19969761E+00 0.55509282E+03</pdfrwt>
<pdfrwt beam="2">  1       -1 0.46338092E-01 0.55509282E+03</pdfrwt>
<totfact> 0.44294483E+01</totfact>
</mgrwt>
</event>
<event>
 4    1  0.2318373E-002  0.4159457E+03  0.7818608E-02  0.1038394E+00
         -1   -1    0    0    0  501 -0.00000000000E+00  0.00000000000E+00  0.17575687264E+03  0.17575687264E+03  0.00000000000E+00 0. -1.
          1   -1    0    0  502    0  0.00000000000E+00 -0.00000000000E+00 -0.98460565874E+03  0.98460565874E+03  0.00000000000E+00 0.  1.
    9000005    1    1    2  502    0 -0.62116535133E+02 -0.95667957722E+02 -0.39556080605E+03  0.57400276424E+03  0.40000000000E+03 0. -1.
   -9000005    1    1    2    0  501  0.62116535133E+02  0.95667957722E+02 -0.41328798005E+03  0.58635976714E+03  0.40000000000E+03 0. -1.
<mgrwt>
<rscale>  2 0.41594570E+03</rscale>
<asrwt>0</asrwt>
<pdfrwt beam="1">  1        1 0.15147779E+00 0.41594570E+03</pdfrwt>
<pdfrwt beam="2">  1       -1 0.27039519E-01 0.41594570E+03</pdfrwt>
<totfact> 0.19838218E+02</totfact>
</mgrwt>
</event>
<event>
 4    1  0.2318373E-002  0.4532933E+03  0.7818608E-02  0.1026744E+00
         -2   -1    0    0    0  501 -0.00000000000E+00  0.00000000000E+00  0.52965097930E+03  0.52965097930E+03  0.00000000000E+00 0. -1.
          2   -1    0    0  502    0  0.00000000000E+00 -0.00000000000E+00 -0.11038252916E+04  0.11038252916E+04  0.00000000000E+00 0.  1.
    9000005    1    1    2  502    0  0.19184113943E+03 -0.93122556279E+02  0.37065127765E+03  0.58554009503E+03  0.40000000000E+03 0. -1.
   -9000005    1    1    2    0  501 -0.19184113943E+03  0.93122556279E+02 -0.94482558997E+03  0.10479361759E+04  0.40000000000E+03 0.  1.
<mgrwt>
<rscale>  2 0.45329332E+03</rscale>
<asrwt>0</asrwt>
<pdfrwt beam="1">  1        2 0.16981927E+00 0.45329332E+03</pdfrwt>
<pdfrwt beam="2">  1       -2 0.81484767E-01 0.45329332E+03</pdfrwt>
<totfact> 0.30375737E+01</totfact>
</mgrwt>
</event>
<event>
 4    1  0.2318373E-002  0.5775622E+03  0.7818608E-02  0.9953083E-01
         -2   -1    0    0    0  501 -0.00000000000E+00  0.00000000000E+00  0.40071375408E+03  0.40071375408E+03  0.00000000000E+00 0. -1.
          2   -1    0    0  502    0  0.00000000000E+00 -0.00000000000E+00 -0.10155165954E+04  0.10155165954E+04  0.00000000000E+00 0.  1.
    9000005    1    1    2  502    0 -0.31745014919E+03  0.26982120307E+03 -0.67568577007E+01  0.57760170877E+03  0.40000000000E+03 0. -1.
   -9000005    1    1    2    0  501  0.31745014919E+03 -0.26982120307E+03 -0.60804598363E+03  0.83862864073E+03  0.40000000000E+03 0.  1.
<mgrwt>
<rscale>  2 0.57756219E+03</rscale>
<asrwt>0</asrwt>
<pdfrwt beam="1">  1        2 0.15623332E+00 0.57756219E+03</pdfrwt>
<pdfrwt beam="2">  1       -2 0.61648271E-01 0.57756219E+03</pdfrwt>
<totfact> 0.62117661E+01</totfact>
</mgrwt>
</event>
<event>
 4    1  0.2318373E-002  0.4287886E+03  0.7818608E-02  0.1034243E+00
          1   -1    0    0  502    0  0.00000000000E+00  0.00000000000E+00  0.11355431847E+04  0.11355431847E+04  0.00000000000E+00 0.  1.
         -1   -1    0    0    0  501 -0.00000000000E+00 -0.00000000000E+00 -0.16493994466E+03  0.16493994466E+03  0.00000000000E+00 0. -1.
    9000005    1    1    2  502    0  0.14430379627E+03  0.55100885908E+02  0.39722044203E+03  0.58450301352E+03  0.40000000000E+03 0.  1.
   -9000005    1    1    2    0  501 -0.14430379627E+03 -0.55100885908E+02  0.57338279806E+03  0.71598011589E+03  0.40000000000E+03 0.  1.
<mgrwt>
<rscale>  2 0.42878863E+03</rscale>
<asrwt>0</asrwt>
<pdfrwt beam="1">  1        1 0.17469895E+00 0.42878863E+03</pdfrwt>
<pdfrwt beam="2">  1       -1 0.25375377E-01 0.42878863E+03</pdfrwt>
<totfact> 0.17030972E+02</totfact>
</mgrwt>
</event>
<event>
 4    1  0.2318373E-002  0.4427152E+03  0.7818608E-02  0.1029917E+00
         -2   -1    0    0    0  501 -0.00000000000E+00  0.00000000000E+00  0.13637517276E+03  0.13637517276E+03  0.00000000000E+00 0. -1.
          2   -1    0    0  502    0  0.00000000000E+00 -0.00000000000E+00 -0.18326874502E+04  0.18326874502E+04  0.00000000000E+00 0.  1.
    9000005    1    1    2  502    0  0.18507843604E+03 -0.41745426902E+02 -0.13055164637E+04  0.13785390618E+04  0.40000000000E+03 0.  1.
   -9000005    1    1    2    0  501 -0.18507843604E+03  0.41745426902E+02 -0.39079581379E+03  0.59052356111E+03  0.40000000000E+03 0. -1.
<mgrwt>
<rscale>  2 0.44271515E+03</rscale>
<asrwt>0</asrwt>
<pdfrwt beam="1">  1        2 0.28195190E+00 0.44271515E+03</pdfrwt>
<pdfrwt beam="2">  1       -2 0.20980797E-01 0.44271515E+03</pdfrwt>
<totfact> 0.17164847E+02</totfact>
</mgrwt>
</event>
<event>
 4    1  0.2318373E-002  0.4732262E+03  0.7818608E-02  0.1021014E+00
          1   -1    0    0  502    0  0.00000000000E+00  0.00000000000E+00  0.36751436547E+03  0.36751436547E+03  0.00000000000E+00 0. -1.
         -1   -1    0    0    0  501 -0.00000000000E+00 -0.00000000000E+00 -0.61176693583E+03  0.61176693583E+03  0.00000000000E+00 0.  1.
    9000005    1    1    2  502    0 -0.23516191498E+03  0.92962071716E+02 -0.91318677588E+02  0.48195660999E+03  0.40000000000E+03 0.  1.
   -9000005    1    1    2    0  501  0.23516191498E+03 -0.92962071716E+02 -0.15293389278E+03  0.49732469132E+03  0.40000000000E+03 0. -1.
<mgrwt>
<rscale>  2 0.47322624E+03</rscale>
<asrwt>0</asrwt>
<pdfrwt beam="1">  1        1 0.56540672E-01 0.47322624E+03</pdfrwt>
<pdfrwt beam="2">  1       -1 0.94117990E-01 0.47322624E+03</pdfrwt>
<totfact> 0.76601741E+01</totfact>
</mgrwt>
</event>
<event>
 4    1  0.2318373E-002  0.4453278E+03  0.7818608E-02  0.1029125E+00
          1   -1    0    0  502    0  0.00000000000E+00  0.00000000000E+00  0.24358855908E+03  0.24358855908E+03  0.00000000000E+00 0.  1.
         -1   -1    0    0    0  501 -0.00000000000E+00 -0.00000000000E+00 -0.81649950362E+03  0.81649950362E+03  0.00000000000E+00 0. -1.
    9000005    1    1    2  502    0  0.20309266191E+02  0.19469040158E+03 -0.25800248458E+03  0.51466698049E+03  0.40000000000E+03 0. -1.
   -9000005    1    1    2    0  501 -0.20309266191E+02 -0.19469040158E+03 -0.31490845996E+03  0.54542108221E+03  0.40000000000E+03 0. -1.
<mgrwt>
<rscale>  2 0.44532777E+03</rscale>
<asrwt>0</asrwt>
<pdfrwt beam="1">  1        1 0.37475163E-01 0.44532777E+03</pdfrwt>
<pdfrwt beam="2">  1       -1 0.12561531E+00 0.44532777E+03</pdfrwt>
<totfact> 0.66530442E+01</totfact>
</mgrwt>
</event>
<event>
 4    1  0.2318373E-002  0.4467812E+03  0.7818608E-02  0.1028686E+00
         -2   -1    0    0    0  501 -0.00000000000E+00  0.00000000000E+00  0.17060664218E+03  0.17060664218E+03  0.00000000000E+00 0. -1.
          2   -1    0    0  502    0  0.00000000000E+00 -0.00000000000E+00 -0.12868192974E+04  0.12868192974E+04  0.00000000000E+00 0.  1.
    9000005    1    1    2  502    0 -0.72676365250E+02 -0.18528791104E+03 -0.33856576417E+03  0.56057135202E+03  0.40000000000E+03 0. -1.
   -9000005    1    1    2    0  501  0.72676365250E+02  0.18528791104E+03 -0.77764689103E+03  0.89685458753E+03  0.40000000000E+03 0.  1.
<mgrwt>
<rscale>  2 0.44678123E+03</rscale>
<asrwt>0</asrwt>
<pdfrwt beam="1">  1        2 0.19797220E+00 0.44678123E+03</pdfrwt>
<pdfrwt beam="2">  1       -2 0.26247176E-01 0.44678123E+03</pdfrwt>
<totfact> 0.22908754E+02</totfact>
</mgrwt>
</event>
<event>
 4    1  0.2318373E-002  0.4218144E+03  0.7818608E-02  0.1036477E+00
          4   -1    0    0  502    0  0.00000000000E+00  0.00000000000E+00  0.15746348192E+04  0.15746348192E+04  0.00000000000E+00 0. -1.
         -4   -1    0    0    0  501 -0.00000000000E+00 -0.00000000000E+00 -0.12322933321E+03  0.12322933321E+03  0.00000000000E+00 0.  1.
    9000005    1    1    2  502    0  0.14392350651E+02 -0.13311732749E+03  0.97034160108E+03  0.10580596323E+04  0.40000000000E+03 0. -1.
   -9000005    1    1    2    0  501 -0.14392350651E+02  0.13311732749E+03  0.48106388491E+03  0.63980452015E+03  0.40000000000E+03 0.  1.
<mgrwt>
<rscale>  2 0.42181437E+03</rscale>
<asrwt>0</asrwt>
<pdfrwt beam="1">  1        4 0.24225150E+00 0.42181437E+03</pdfrwt>
<pdfrwt beam="2">  1       -4 0.18958360E-01 0.42181437E+03</pdfrwt>
<totfact> 0.36185561E+00</totfact>
</mgrwt>
</event>
<event>
 4    1  0.2318373E-002  0.5800264E+03  0.7818608E-02  0.9947734E-01
          2   -1    0    0  502    0  0.00000000000E+00  0.00000000000E+00  0.11481831636E+04  0.11481831636E+04  0.00000000000E+00 0.  1.
         -2   -1    0    0    0  501 -0.00000000000E+00 -0.00000000000E+00 -0.32625248487E+03  0.32625248487E+03  0.00000000000E+00 0. -1.
    9000005    1    1    2  502    0  0.34120249836E+02 -0.41864836454E+03  0.64628441975E+03  0.86839748721E+03  0.40000000000E+03 0.  1.
   -9000005    1    1    2    0  501 -0.34120249836E+02  0.41864836454E+03  0.17564625895E+03  0.60603816123E+03  0.40000000000E+03 0. -1.
<mgrwt>
<rscale>  2 0.58002642E+03</rscale>
<asrwt>0</asrwt>
<pdfrwt beam="1">  1        2 0.17664356E+00 0.58002642E+03</pdfrwt>
<pdfrwt beam="2">  1       -2 0.50192691E-01 0.58002642E+03</pdfrwt>
<totfact> 0.78887529E+01</totfact>
</mgrwt>
</event>
<event>
 4    1  0.2318373E-002  0.4529525E+03  0.7818608E-02  0.1026845E+00
         -2   -1    0    0    0  501 -0.00000000000E+00  0.00000000000E+00  0.42565897341E+03  0.42565897341E+03  0.00000000000E+00 0.  1.
          2   -1    0    0  502    0  0.00000000000E+00 -0.00000000000E+00 -0.48769947616E+03  0.48769947616E+03  0.00000000000E+00 0. -1.
    9000005    1    1    2  502    0 -0.90560245581E+02 -0.19226225911E+03  0.18365750648E+02  0.45332464653E+03  0.40000000000E+03 0.  1.
   -9000005    1    1    2    0  501  0.90560245581E+02  0.19226225911E+03 -0.80406253396E+02  0.46003380304E+03  0.40000000000E+03 0.  1.
<mgrwt>
<rscale>  2 0.45295246E+03</rscale>
<asrwt>0</asrwt>
<pdfrwt beam="1">  1        2 0.75030689E-01 0.45295246E+03</pdfrwt>
<pdfrwt beam="2">  1       -2 0.65485996E-01 0.45295246E+03</pdfrwt>
<totfact> 0.13998546E+02</totfact>
</mgrwt>
</event>
<event>
 4    1  0.2318373E-002  0.4517511E+03  0.7818608E-02  0.1027201E+00
          2   -1    0    0  502    0  0.00000000000E+00  0.00000000000E+00  0.15573420211E+04  0.15573420211E+04  0.00000000000E+00 0. -1.
         -2   -1    0    0    0  501 -0.00000000000E+00 -0.00000000000E+00 -0.15089317245E+03  0.15089317245E+03  0.00000000000E+00 0.  1.
    9000005    1    1    2  502    0 -0.20971054566E+03 -0.10025889723E+02  0.39343742805E+03  0.59905929691E+03  0.40000000000E+03 0. -1.
   -9000005    1    1    2    0  501  0.20971054566E+03  0.10025889723E+02  0.10130114206E+04  0.11091758967E+04  0.40000000000E+03 0.  1.
<mgrwt>
<rscale>  2 0.45175107E+03</rscale>
<asrwt>0</asrwt>
<pdfrwt beam="1">  1        2 0.23959107E+00 0.45175107E+03</pdfrwt>
<pdfrwt beam="2">  1       -2 0.23214335E-01 0.45175107E+03</pdfrwt>
<totfact> 0.20188171E+02</totfact>
</mgrwt>
</event>
<event>
 4    1  0.2318373E-002  0.4401148E+03  0.7818608E-02  0.1030712E+00
          1   -1    0    0  502    0  0.00000000000E+00  0.00000000000E+00  0.36042665749E+03  0.36042665749E+03  0.00000000000E+00 0. -1.
         -1   -1    0    0    0  501 -0.00000000000E+00 -0.00000000000E+00 -0.87678335668E+03  0.87678335668E+03  0.00000000000E+00 0.  1.
    9000005    1    1    2  502    0  0.60618116920E+02  0.17328143690E+03 -0.64303485825E+03  0.77922707948E+03  0.40000000000E+03 0.  1.
   -9000005    1    1    2    0  501 -0.60618116920E+02 -0.17328143690E+03  0.12667815906E+03  0.45798293468E+03  0.40000000000E+03 0. -1.
<mgrwt>
<rscale>  2 0.44011477E+03</rscale>
<asrwt>0</asrwt>
<pdfrwt beam="1">  1        1 0.55450255E-01 0.44011477E+03</pdfrwt>
<pdfrwt beam="2">  1       -1 0.13488975E+00 0.44011477E+03</pdfrwt>
<totfact> 0.33729371E+01</totfact>
</mgrwt>
</event>
<event>
 4    1  0.2318373E-002  0.4197547E+03  0.7818608E-02  0.1037146E+00
         -1   -1    0    0    0  501 -0.00000000000E+00  0.00000000000E+00  0.13813134416E+03  0.13813134416E+03  0.00000000000E+00 0. -1.
          1   -1    0    0  502    0  0.00000000000E+00 -0.00000000000E+00 -0.12977594252E+04  0.12977594252E+04  0.00000000000E+00 0.  1.
    9000005    1    1    2  502    0 -0.43004574441E+02 -0.11976902343E+03 -0.48590180645E+03  0.64210168814E+03  0.40000000000E+03 0. -1.
   -9000005    1    1    2    0  501  0.43004574441E+02  0.11976902343E+03 -0.67372627454E+03  0.79378908118E+03  0.40000000000E+03 0. -1.
<mgrwt>
<rscale>  2 0.41975471E+03</rscale>
<asrwt>0</asrwt>
<pdfrwt beam="1">  1        1 0.19965530E+00 0.41975471E+03</pdfrwt>
<pdfrwt beam="2">  1       -1 0.21250976E-01 0.41975471E+03</pdfrwt>
<totfact> 0.17602339E+02</totfact>
</mgrwt>
</event>
<event>
 4    1  0.2318373E-002  0.4248733E+03  0.7818608E-02  0.1035492E+00
          2   -1    0    0  502    0  0.00000000000E+00  0.00000000000E+00  0.18874871483E+04  0.18874871483E+04  0.00000000000E+00 0. -1.
         -2   -1    0    0    0  501 -0.00000000000E+00 -0.00000000000E+00 -0.10763848315E+03  0.10763848315E+03  0.00000000000E+00 0.  1.
    9000005    1    1    2  502    0 -0.14272711904E+03 -0.12093767740E+02  0.12229967245E+04  0.12946962107E+04  0.40000000000E+03 0.  1.
   -9000005    1    1    2    0  501  0.14272711904E+03  0.12093767740E+02  0.55685194066E+03  0.70042942081E+03  0.40000000000E+03 0.  1.
<mgrwt>
<rscale>  2 0.42487326E+03</rscale>
<asrwt>0</asrwt>
<pdfrwt beam="1">  1        2 0.29038261E+00 0.42487326E+03</pdfrwt>
<pdfrwt beam="2">  1       -2 0.16559768E-01 0.42487326E+03</pdfrwt>
<totfact> 0.24155501E+02</totfact>
</mgrwt>
</event>
<event>
 4    1  0.2318373E-002  0.4628944E+03  0.7818608E-02  0.1023945E+00
         -1   -1    0    0    0  501 -0.00000000000E+00  0.00000000000E+00  0.31508379779E+03  0.31508379779E+03  0.00000000000E+00 0. -1.
          1   -1    0    0  502    0  0.00000000000E+00 -0.00000000000E+00 -0.71047174464E+03  0.71047174464E+03  0.00000000000E+00 0.  1.
    9000005    1    1    2  502    0  0.19992060283E+03 -0.11959497225E+03 -0.91577564868E+02  0.47186614120E+03  0.40000000000E+03 0.  1.
   -9000005    1    1    2    0  501 -0.19992060283E+03  0.11959497225E+03 -0.30381038198E+03  0.55368940122E+03  0.40000000000E+03 0.  1.
<mgrwt>
<rscale>  2 0.46289438E+03</rscale>
<asrwt>0</asrwt>
<pdfrwt beam="1">  1        1 0.10930335E+00 0.46289438E+03</pdfrwt>
<pdfrwt beam="2">  1       -1 0.48474431E-01 0.46289438E+03</pdfrwt>
<totfact> 0.11826617E+02</totfact>
</mgrwt>
</event>
<event>
 4    1  0.2318373E-002  0.4113091E+03  0.7818608E-02  0.1039933E+00
          1   -1    0    0  502    0  0.00000000000E+00  0.00000000000E+00  0.24508377426E+04  0.24508377426E+04  0.00000000000E+00 0.  1.
         -1   -1    0    0    0  501 -0.00000000000E+00 -0.00000000000E+00 -0.11896374565E+03  0.11896374565E+03  0.00000000000E+00 0. -1.
    9000005    1    1    2  502    0 -0.93813612731E+02 -0.19343458529E+02  0.33346376458E+03  0.52950282871E+03  0.40000000000E+03 0. -1.
   -9000005    1    1    2    0  501  0.93813612731E+02  0.19343458529E+02  0.19984102323E+04  0.20402986595E+04  0.40000000000E+03 0.  1.
<mgrwt>
<rscale>  2 0.41130908E+03</rscale>
<asrwt>0</asrwt>
<pdfrwt beam="1">  1        1 0.37705192E+00 0.41130908E+03</pdfrwt>
<pdfrwt beam="2">  1       -1 0.18302117E-01 0.41130908E+03</pdfrwt>
<totfact> 0.38465666E+01</totfact>
</mgrwt>
</event>
<event>
 4    1  0.2318373E-002  0.4031968E+03  0.7818608E-02  0.1042678E+00
         -2   -1    0    0    0  501 -0.00000000000E+00  0.00000000000E+00  0.41127690102E+03  0.41127690102E+03  0.00000000000E+00 0.  1.
          2   -1    0    0  502    0  0.00000000000E+00 -0.00000000000E+00 -0.10648907041E+04  0.10648907041E+04  0.00000000000E+00 0. -1.
    9000005    1    1    2  502    0 -0.23173205897E+02  0.45062862998E+02 -0.91208979176E+03  0.99723389800E+03  0.40000000000E+03 0. -1.
   -9000005    1    1    2    0  501  0.23173205897E+02 -0.45062862998E+02  0.25847598867E+03  0.47893370712E+03  0.40000000000E+03 0.  1.
<mgrwt>
<rscale>  2 0.40319680E+03</rscale>
<asrwt>0</asrwt>
<pdfrwt beam="1">  1        2 0.16382934E+00 0.40319680E+03</pdfrwt>
<pdfrwt beam="2">  1       -2 0.63273370E-01 0.40319680E+03</pdfrwt>
<totfact> 0.56084144E+01</totfact>
</mgrwt>
</event>
<event>
 4    1  0.2318373E-002  0.4515038E+03  0.7818608E-02  0.1027275E+00
          2   -1    0    0  502    0  0.00000000000E+00  0.00000000000E+00  0.41150341689E+04  0.41150341689E+04  0.00000000000E+00 0.  1.
         -2   -1    0    0    0  501 -0.00000000000E+00 -0.00000000000E+00 -0.49544076506E+02  0.49544076506E+02  0.00000000000E+00 0. -1.
    9000005    1    1    2  502    0  0.22080975598E+02 -0.20825006552E+03  0.20533217968E+04  0.21023762890E+04  0.40000000000E+03 0.  1.
   -9000005    1    1    2    0  501 -0.22080975598E+02  0.20825006552E+03  0.20121682955E+04  0.20622019564E+04  0.40000000000E+03 0.  1.
<mgrwt>
<rscale>  2 0.45150378E+03</rscale>
<asrwt>0</asrwt>
<pdfrwt beam="1">  1        2 0.63308191E+00 0.45150378E+03</pdfrwt>
<pdfrwt beam="2">  1       -2 0.76221688E-02 0.45150378E+03</pdfrwt>
<totfact> 0.34650009E+01</totfact>
</mgrwt>
</event>
<event>
 4    1  0.2318373E-002  0.4046344E+03  0.7818608E-02  0.1042187E+00
         -1   -1    0    0    0  501 -0.00000000000E+00  0.00000000000E+00  0.11180537395E+03  0.11180537395E+03  0.00000000000E+00 0.  1.
          1   -1    0    0  502    0  0.00000000000E+00 -0.00000000000E+00 -0.14918134198E+04  0.14918134198E+04  0.00000000000E+00 0. -1.
    9000005    1    1    2  502    0 -0.49047833835E+02 -0.36377006361E+02 -0.58133359351E+03  0.70829211738E+03  0.40000000000E+03 0.  1.
   -9000005    1    1    2    0  501  0.49047833835E+02  0.36377006361E+02 -0.79867445234E+03  0.89532667636E+03  0.40000000000E+03 0.  1.
<mgrwt>
<rscale>  2 0.40463437E+03</rscale>
<asrwt>0</asrwt>
<pdfrwt beam="1">  1        1 0.22950975E+00 0.40463437E+03</pdfrwt>
<pdfrwt beam="2">  1       -1 0.17200827E-01 0.40463437E+03</pdfrwt>
<totfact> 0.18387699E+02</totfact>
</mgrwt>
</event>
<event>
 4    1  0.2318373E-002  0.9012317E+03  0.7818608E-02  0.9424043E-01
         -2   -1    0    0    0  501 -0.00000000000E+00  0.00000000000E+00  0.50385054175E+03  0.50385054175E+03  0.00000000000E+00 0. -1.
          2   -1    0    0  502    0  0.00000000000E+00 -0.00000000000E+00 -0.18199960490E+04  0.18199960490E+04  0.00000000000E+00 0.  1.
    9000005    1    1    2  502    0 -0.80728474978E+03  0.22582155532E+02 -0.10508495743E+04  0.13843783619E+04  0.40000000000E+03 0.  1.
   -9000005    1    1    2    0  501  0.80728474978E+03 -0.22582155532E+02 -0.26529593289E+03  0.93946822883E+03  0.40000000000E+03 0. -1.
<mgrwt>
<rscale>  2 0.90123172E+03</rscale>
<asrwt>0</asrwt>
<pdfrwt beam="1">  1        2 0.27999939E+00 0.90123172E+03</pdfrwt>
<pdfrwt beam="2">  1       -2 0.77515468E-01 0.90123172E+03</pdfrwt>
<totfact> 0.12618205E+01</totfact>
</mgrwt>
</event>
<event>
 4    1  0.2318373E-002  0.4350108E+03  0.7818608E-02  0.1032289E+00
          2   -1    0    0  502    0  0.00000000000E+00  0.00000000000E+00  0.64432017844E+03  0.64432017844E+03  0.00000000000E+00 0.  1.
         -2   -1    0    0    0  501 -0.00000000000E+00 -0.00000000000E+00 -0.34219738356E+03  0.34219738356E+03  0.00000000000E+00 0. -1.
    9000005    1    1    2  502    0  0.15729517976E+03  0.67027155066E+02  0.33676164254E+03  0.55012981829E+03  0.40000000000E+03 0.  1.
   -9000005    1    1    2    0  501 -0.15729517976E+03 -0.67027155066E+02 -0.34638847653E+02  0.43638774371E+03  0.40000000000E+03 0. -1.
<mgrwt>
<rscale>  2 0.43501082E+03</rscale>
<asrwt>0</asrwt>
<pdfrwt beam="1">  1        2 0.99126181E-01 0.43501082E+03</pdfrwt>
<pdfrwt beam="2">  1       -2 0.52645751E-01 0.43501082E+03</pdfrwt>
<totfact> 0.15953170E+02</totfact>
</mgrwt>
</event>
<event>
 4    1  0.2318373E-002  0.8370556E+03  0.7818608E-02  0.9507877E-01
         -2   -1    0    0    0  501 -0.00000000000E+00  0.00000000000E+00  0.50948313696E+03  0.50948313696E+03  0.00000000000E+00 0.  1.
          2   -1    0    0  502    0  0.00000000000E+00 -0.00000000000E+00 -0.15828441178E+04  0.15828441178E+04  0.00000000000E+00 0. -1.
    9000005    1    1    2  502    0 -0.73256989747E+03  0.63272318830E+02 -0.15780405254E+03  0.85180054004E+03  0.40000000000E+03 0. -1.
   -9000005    1    1    2    0  501  0.73256989747E+03 -0.63272318830E+02 -0.91555692834E+03  0.12405267148E+04  0.40000000000E+03 0.  1.
<mgrwt>
<rscale>  2 0.83705558E+03</rscale>
<asrwt>0</asrwt>
<pdfrwt beam="1">  1        2 0.24351448E+00 0.83705558E+03</pdfrwt>
<pdfrwt beam="2">  1       -2 0.78382021E-01 0.83705558E+03</pdfrwt>
<totfact> 0.16747096E+01</totfact>
</mgrwt>
</event>
<event>
 4    1  0.2318373E-002  0.4167995E+03  0.7818608E-02  0.1038113E+00
         -1   -1    0    0    0  501 -0.00000000000E+00  0.00000000000E+00  0.19769971097E+03  0.19769971097E+03  0.00000000000E+00 0. -1.
          1   -1    0    0  502    0  0.00000000000E+00 -0.00000000000E+00 -0.24379135225E+04  0.24379135225E+04  0.00000000000E+00 0.  1.
    9000005    1    1    2  502    0  0.10577047946E+03  0.50343106227E+02 -0.66222064957E+02  0.42202746896E+03  0.40000000000E+03 0. -1.
   -9000005    1    1    2    0  501 -0.10577047946E+03 -0.50343106227E+02 -0.21739917465E+04  0.22135857645E+04  0.40000000000E+03 0.  1.
<mgrwt>
<rscale>  2 0.41679950E+03</rscale>
<asrwt>0</asrwt>
<pdfrwt beam="1">  1        1 0.37506360E+00 0.41679950E+03</pdfrwt>
<pdfrwt beam="2">  1       -1 0.30415342E-01 0.41679950E+03</pdfrwt>
<totfact> 0.16721190E+01</totfact>
</mgrwt>
</event>
<event>
 4    1  0.2318373E-002  0.4413831E+03  0.7818608E-02  0.1030323E+00
          2   -1    0    0  502    0  0.00000000000E+00  0.00000000000E+00  0.10594547038E+04  0.10594547038E+04  0.00000000000E+00 0. -1.
         -2   -1    0    0    0  501 -0.00000000000E+00 -0.00000000000E+00 -0.20262180625E+03  0.20262180625E+03  0.00000000000E+00 0.  1.
    9000005    1    1    2  502    0 -0.18058705952E+03 -0.46982060929E+02  0.23652856207E+03  0.50076417682E+03  0.40000000000E+03 0.  1.
   -9000005    1    1    2    0  501  0.18058705952E+03  0.46982060929E+02  0.62030433550E+03  0.76131233325E+03  0.40000000000E+03 0. -1.
<mgrwt>
<rscale>  2 0.44138305E+03</rscale>
<asrwt>0</asrwt>
<pdfrwt beam="1">  1        2 0.16299303E+00 0.44138305E+03</pdfrwt>
<pdfrwt beam="2">  1       -2 0.31172586E-01 0.44138305E+03</pdfrwt>
<totfact> 0.22765596E+02</totfact>
</mgrwt>
</event>
<event>
 4    1  0.2318373E-002  0.4292496E+03  0.7818608E-02  0.1034097E+00
         -1   -1    0    0    0  501 -0.00000000000E+00  0.00000000000E+00  0.30436067477E+03  0.30436067477E+03  0.00000000000E+00 0. -1.
          1   -1    0    0  502    0  0.00000000000E+00 -0.00000000000E+00 -0.61047182605E+03  0.61047182605E+03  0.00000000000E+00 0.  1.
    9000005    1    1    2  502    0  0.14838501535E+03  0.47298275385E+02 -0.19481196141E+03  0.47138831121E+03  0.40000000000E+03 0.  1.
   -9000005    1    1    2    0  501 -0.14838501535E+03 -0.47298275385E+02 -0.11129918987E+03  0.44344418961E+03  0.40000000000E+03 0.  1.
<mgrwt>
<rscale>  2 0.42924962E+03</rscale>
<asrwt>0</asrwt>
<pdfrwt beam="1">  1        1 0.93918742E-01 0.42924962E+03</pdfrwt>
<pdfrwt beam="2">  1       -1 0.46824719E-01 0.42924962E+03</pdfrwt>
<totfact> 0.15792548E+02</totfact>
</mgrwt>
</event>
<event>
 4    1  0.2318373E-002  0.4053547E+03  0.7818608E-02  0.1041941E+00
          1   -1    0    0  502    0  0.00000000000E+00  0.00000000000E+00  0.26223965758E+03  0.26223965758E+03  0.00000000000E+00 0.  1.
         -1   -1    0    0    0  501 -0.00000000000E+00 -0.00000000000E+00 -0.62783204763E+03  0.62783204763E+03  0.00000000000E+00 0. -1.
    9000005    1    1    2  502    0  0.63013013050E+01 -0.65366286569E+02 -0.20272050378E+03  0.45321966029E+03  0.40000000000E+03 0. -1.
   -9000005    1    1    2    0  501 -0.63013013050E+01  0.65366286569E+02 -0.16287188627E+03  0.43685204492E+03  0.40000000000E+03 0.  1.
<mgrwt>
<rscale>  2 0.40535473E+03</rscale>
<asrwt>0</asrwt>
<pdfrwt beam="1">  1        1 0.40344563E-01 0.40535473E+03</pdfrwt>
<pdfrwt beam="2">  1       -1 0.96589545E-01 0.40535473E+03</pdfrwt>
<totfact> 0.11235336E+02</totfact>
</mgrwt>
</event>
<event>
 4    1  0.2318373E-002  0.4128275E+03  0.7818608E-02  0.1039426E+00
          2   -1    0    0  502    0  0.00000000000E+00  0.00000000000E+00  0.80100563631E+03  0.80100563631E+03  0.00000000000E+00 0.  1.
         -2   -1    0    0    0  501 -0.00000000000E+00 -0.00000000000E+00 -0.21286485796E+03  0.21286485796E+03  0.00000000000E+00 0. -1.
    9000005    1    1    2  502    0  0.40946618417E+01  0.10202815784E+03  0.30501251375E+03  0.51328271429E+03  0.40000000000E+03 0.  1.
   -9000005    1    1    2    0  501 -0.40946618417E+01 -0.10202815784E+03  0.28312826460E+03  0.50058777997E+03  0.40000000000E+03 0. -1.
<mgrwt>
<rscale>  2 0.41282746E+03</rscale>
<asrwt>0</asrwt>
<pdfrwt beam="1">  1        2 0.12323164E+00 0.41282746E+03</pdfrwt>
<pdfrwt beam="2">  1       -2 0.32748440E-01 0.41282746E+03</pdfrwt>
<totfact> 0.30683574E+02</totfact>
</mgrwt>
</event>
<event>
 4    1  0.2318373E-002  0.5583363E+03  0.7818608E-02  0.9995826E-01
         -2   -1    0    0    0  501 -0.00000000000E+00  0.00000000000E+00  0.26855656995E+03  0.26855656995E+03  0.00000000000E+00 0.  1.
          2   -1    0    0  502    0  0.00000000000E+00 -0.00000000000E+00 -0.11853828743E+04  0.11853828743E+04  0.00000000000E+00 0. -1.
    9000005    1    1    2  502    0  0.10764221098E+03 -0.37436958817E+03 -0.35371541887E+03  0.66094934123E+03  0.40000000000E+03 0. -1.
   -9000005    1    1    2    0  501 -0.10764221098E+03  0.37436958817E+03 -0.56311088546E+03  0.79299010300E+03  0.40000000000E+03 0. -1.
<mgrwt>
<rscale>  2 0.55833631E+03</rscale>
<asrwt>0</asrwt>
<pdfrwt beam="1">  1        2 0.18236660E+00 0.55833631E+03</pdfrwt>
<pdfrwt beam="2">  1       -2 0.41316395E-01 0.55833631E+03</pdfrwt>
<totfact> 0.11071425E+02</totfact>
</mgrwt>
</event>
<event>
 4    1  0.2318373E-002  0.6922202E+03  0.7818608E-02  0.9730630E-01
          1   -1    0    0  502    0  0.00000000000E+00  0.00000000000E+00  0.10048116321E+04  0.10048116321E+04  0.00000000000E+00 0.  1.
         -1   -1    0    0    0  501 -0.00000000000E+00 -0.00000000000E+00 -0.51318910509E+03  0.51318910509E+03  0.00000000000E+00 0. -1.
    9000005    1    1    2  502    0  0.53720071806E+03  0.17488333723E+03  0.43907026569E+02  0.69361128892E+03  0.40000000000E+03 0. -1.
   -9000005    1    1    2    0  501 -0.53720071806E+03 -0.17488333723E+03  0.44771550047E+03  0.82438944831E+03  0.40000000000E+03 0.  1.
<mgrwt>
<rscale>  2 0.69222019E+03</rscale>
<asrwt>0</asrwt>
<pdfrwt beam="1">  1        1 0.15458640E+00 0.69222019E+03</pdfrwt>
<pdfrwt beam="2">  1       -1 0.78952170E-01 0.69222019E+03</pdfrwt>
<totfact> 0.24914448E+01</totfact>
</mgrwt>
</event>
<event>
 4    1  0.2318373E-002  0.4833831E+03  0.7818608E-02  0.1018210E+00
          2   -1    0    0  502    0  0.00000000000E+00  0.00000000000E+00  0.17196799080E+04  0.17196799080E+04  0.00000000000E+00 0. -1.
         -2   -1    0    0    0  501 -0.00000000000E+00 -0.00000000000E+00 -0.15158486899E+03  0.15158486899E+03  0.00000000000E+00 0.  1.
    9000005    1    1    2  502    0 -0.12454053897E+03 -0.24114080346E+03  0.48282885126E+03  0.68321514368E+03  0.40000000000E+03 0.  1.
   -9000005    1    1    2    0  501  0.12454053897E+03  0.24114080346E+03  0.10852661877E+04  0.11880496333E+04  0.40000000000E+03 0. -1.
<mgrwt>
<rscale>  2 0.48338311E+03</rscale>
<asrwt>0</asrwt>
<pdfrwt beam="1">  1        2 0.26456613E+00 0.48338311E+03</pdfrwt>
<pdfrwt beam="2">  1       -2 0.23320750E-01 0.48338311E+03</pdfrwt>
<totfact> 0.16293587E+02</totfact>
</mgrwt>
</event>
<event>
 4    1  0.2318373E-002  0.4189767E+03  0.7818608E-02  0.1037400E+00
          1   -1    0    0  502    0  0.00000000000E+00  0.00000000000E+00  0.59969409335E+03  0.59969409335E+03  0.00000000000E+00 0. -1.
         -1   -1    0    0    0  501 -0.00000000000E+00 -0.00000000000E+00 -0.31068690095E+03  0.31068690095E+03  0.00000000000E+00 0.  1.
    9000005    1    1    2  502    0  0.96024182863E+02 -0.79503647267E+02  0.25397182205E+03  0.48994199659E+03  0.40000000000E+03 0. -1.
   -9000005    1    1    2    0  501 -0.96024182863E+02  0.79503647267E+02  0.35035370353E+02  0.42043899771E+03  0.40000000000E+03 0.  1.
<mgrwt>
<rscale>  2 0.41897670E+03</rscale>
<asrwt>0</asrwt>
<pdfrwt beam="1">  1        1 0.92260630E-01 0.41897670E+03</pdfrwt>
<pdfrwt beam="2">  1       -1 0.47797985E-01 0.41897670E+03</pdfrwt>
<totfact> 0.15606884E+02</totfact>
</mgrwt>
</event>
<event>
 4    1  0.2318373E-002  0.4096058E+03  0.7818608E-02  0.1040503E+00
          1   -1    0    0  502    0  0.00000000000E+00  0.00000000000E+00  0.16063135499E+03  0.16063135499E+03  0.00000000000E+00 0.  1.
         -1   -1    0    0    0  501 -0.00000000000E+00 -0.00000000000E+00 -0.12617615806E+04  0.12617615806E+04  0.00000000000E+00 0. -1.
    9000005    1    1    2  502    0  0.60459048638E+02 -0.64199530088E+02 -0.25543846544E+03  0.48272734111E+03  0.40000000000E+03 0.  1.
   -9000005    1    1    2    0  501 -0.60459048638E+02  0.64199530088E+02 -0.84569176018E+03  0.93966559449E+03  0.40000000000E+03 0. -1.
<mgrwt>
<rscale>  2 0.40960576E+03</rscale>
<asrwt>0</asrwt>
<pdfrwt beam="1">  1        1 0.24712516E-01 0.40960576E+03</pdfrwt>
<pdfrwt beam="2">  1       -1 0.19411716E+00 0.40960576E+03</pdfrwt>
<totfact> 0.34863168E+01</totfact>
</mgrwt>
</event>
<event>
 4    1  0.2318373E-002  0.4247471E+03  0.7818608E-02  0.1035532E+00
          1   -1    0    0  502    0  0.00000000000E+00  0.00000000000E+00  0.20271507123E+03  0.20271507123E+03  0.00000000000E+00 0.  1.
         -1   -1    0    0    0  501 -0.00000000000E+00 -0.00000000000E+00 -0.90671457391E+03  0.90671457391E+03  0.00000000000E+00 0. -1.
    9000005    1    1    2  502    0 -0.14276148194E+03  0.54083473471E+01 -0.27661440407E+03  0.50687830836E+03  0.40000000000E+03 0.  1.
   -9000005    1    1    2    0  501  0.14276148194E+03 -0.54083473471E+01 -0.42738509861E+03  0.60255133678E+03  0.40000000000E+03 0. -1.
<mgrwt>
<rscale>  2 0.42474709E+03</rscale>
<asrwt>0</asrwt>
<pdfrwt beam="1">  1        1 0.31186933E-01 0.42474709E+03</pdfrwt>
<pdfrwt beam="2">  1       -1 0.13949455E+00 0.42474709E+03</pdfrwt>
<totfact> 0.64846814E+01</totfact>
</mgrwt>
</event>
<event>
 4    1  0.2318373E-002  0.4138186E+03  0.7818608E-02  0.1039097E+00
          1   -1    0    0  502    0  0.00000000000E+00  0.00000000000E+00  0.42507319350E+03  0.42507319350E+03  0.00000000000E+00 0.  1.
         -1   -1    0    0    0  501 -0.00000000000E+00 -0.00000000000E+00 -0.48133135639E+03  0.48133135639E+03  0.00000000000E+00 0. -1.
    9000005    1    1    2  502    0 -0.89110814989E+02 -0.57489638816E+02 -0.21111611459E+03  0.46455980213E+03  0.40000000000E+03 0.  1.
   -9000005    1    1    2    0  501  0.89110814989E+02  0.57489638816E+02  0.15485795169E+03  0.44184474776E+03  0.40000000000E+03 0.  1.
<mgrwt>
<rscale>  2 0.41381855E+03</rscale>
<asrwt>0</asrwt>
<pdfrwt beam="1">  1        1 0.65395876E-01 0.41381855E+03</pdfrwt>
<pdfrwt beam="2">  1       -1 0.74050977E-01 0.41381855E+03</pdfrwt>
<totfact> 0.10624381E+02</totfact>
</mgrwt>
</event>
<event>
 4    1  0.2318373E-002  0.4592141E+03  0.7818608E-02  0.1025009E+00
          1   -1    0    0  502    0  0.00000000000E+00  0.00000000000E+00  0.24688637564E+04  0.24688637564E+04  0.00000000000E+00 0.  1.
         -1   -1    0    0    0  501 -0.00000000000E+00 -0.00000000000E+00 -0.12066438554E+03  0.12066438554E+03  0.00000000000E+00 0. -1.
    9000005    1    1    2  502    0 -0.22486658285E+03  0.17680689054E+02  0.47429332185E+03  0.66017553878E+03  0.40000000000E+03 0. -1.
   -9000005    1    1    2    0  501  0.22486658285E+03 -0.17680689054E+02  0.18739060490E+04  0.19293526032E+04  0.40000000000E+03 0.  1.
<mgrwt>
<rscale>  2 0.45921410E+03</rscale>
<asrwt>0</asrwt>
<pdfrwt beam="1">  1        1 0.37982515E+00 0.45921410E+03</pdfrwt>
<pdfrwt beam="2">  1       -1 0.18563754E-01 0.45921410E+03</pdfrwt>
<totfact> 0.36149059E+01</totfact>
</mgrwt>
</event>
<event>
 4    1  0.2318373E-002  0.5223139E+03  0.7818608E-02  0.1008113E+00
          2   -1    0    0  502    0  0.00000000000E+00  0.00000000000E+00  0.28733360452E+04  0.28733360452E+04  0.00000000000E+00 0.  1.
         -2   -1    0    0    0  501 -0.00000000000E+00 -0.00000000000E+00 -0.11987331826E+03  0.11987331826E+03  0.00000000000E+00 0. -1.
    9000005    1    1    2  502    0  0.31448072174E+03  0.11795628196E+03  0.20592012288E+04  0.21244108617E+04  0.40000000000E+03 0.  1.
   -9000005    1    1    2    0  501 -0.31448072174E+03 -0.11795628196E+03  0.69426149818E+03  0.86879850176E+03  0.40000000000E+03 0. -1.
<mgrwt>
<rscale>  2 0.52231390E+03</rscale>
<asrwt>0</asrwt>
<pdfrwt beam="1">  1        2 0.44205165E+00 0.52231390E+03</pdfrwt>
<pdfrwt beam="2">  1       -2 0.18442051E-01 0.52231390E+03</pdfrwt>
<totfact> 0.56024240E+01</totfact>
</mgrwt>
</event>
<event>
 4    1  0.2318373E-002  0.4307554E+03  0.7818608E-02  0.1033622E+00
         -2   -1    0    0    0  501 -0.00000000000E+00  0.00000000000E+00  0.23262123704E+03  0.23262123704E+03  0.00000000000E+00 0.  1.
          2   -1    0    0  502    0  0.00000000000E+00 -0.00000000000E+00 -0.10461835343E+04  0.10461835343E+04  0.00000000000E+00 0. -1.
    9000005    1    1    2  502    0  0.10110723581E+03 -0.12380456838E+03 -0.71842827798E+03  0.83766904854E+03  0.40000000000E+03 0. -1.
   -9000005    1    1    2    0  501 -0.10110723581E+03  0.12380456838E+03 -0.95134019258E+02  0.44113572277E+03  0.40000000000E+03 0.  1.
<mgrwt>
<rscale>  2 0.43075543E+03</rscale>
<asrwt>0</asrwt>
<pdfrwt beam="1">  1        2 0.16095131E+00 0.43075543E+03</pdfrwt>
<pdfrwt beam="2">  1       -2 0.35787884E-01 0.43075543E+03</pdfrwt>
<totfact> 0.17930119E+02</totfact>
</mgrwt>
</event>
<event>
 4    1  0.2318373E-002  0.4950161E+03  0.7818608E-02  0.1015088E+00
          2   -1    0    0  502    0  0.00000000000E+00  0.00000000000E+00  0.33136080886E+04  0.33136080886E+04  0.00000000000E+00 0.  1.
         -2   -1    0    0    0  501 -0.00000000000E+00 -0.00000000000E+00 -0.91582392597E+02  0.91582392597E+02  0.00000000000E+00 0. -1.
    9000005    1    1    2  502    0 -0.29154284759E+03 -0.66106400155E+01  0.86394081430E+03  0.99570812147E+03  0.40000000000E+03 0. -1.
   -9000005    1    1    2    0  501  0.29154284759E+03  0.66106400155E+01  0.23580848817E+04  0.24094823597E+04  0.40000000000E+03 0. -1.
<mgrwt>
<rscale>  2 0.49501609E+03</rscale>
<asrwt>0</asrwt>
<pdfrwt beam="1">  1        2 0.50978577E+00 0.49501609E+03</pdfrwt>
<pdfrwt beam="2">  1       -2 0.14089601E-01 0.49501609E+03</pdfrwt>
<totfact> 0.47581434E+01</totfact>
</mgrwt>
</event>
<event>
 4    1  0.2318373E-002  0.4150932E+03  0.7818608E-02  0.1038675E+00
          1   -1    0    0  502    0  0.00000000000E+00  0.00000000000E+00  0.11173190450E+04  0.11173190450E+04  0.00000000000E+00 0.  1.
         -1   -1    0    0    0  501 -0.00000000000E+00 -0.00000000000E+00 -0.18447325707E+03  0.18447325707E+03  0.00000000000E+00 0. -1.
    9000005    1    1    2  502    0  0.55019157401E+01 -0.11077952640E+03  0.20279039504E+03  0.46198086418E+03  0.40000000000E+03 0. -1.
   -9000005    1    1    2    0  501 -0.55019157401E+01  0.11077952640E+03  0.73005539289E+03  0.83981143791E+03  0.40000000000E+03 0.  1.
<mgrwt>
<rscale>  2 0.41509321E+03</rscale>
<asrwt>0</asrwt>
<pdfrwt beam="1">  1        1 0.17189523E+00 0.41509321E+03</pdfrwt>
<pdfrwt beam="2">  1       -1 0.28380502E-01 0.41509321E+03</pdfrwt>
<totfact> 0.14541471E+02</totfact>
</mgrwt>
</event>
<event>
 4    1  0.2318373E-002  0.4064408E+03  0.7818608E-02  0.1041572E+00
         -1   -1    0    0    0  501 -0.00000000000E+00  0.00000000000E+00  0.11385284816E+03  0.11385284816E+03  0.00000000000E+00 0.  1.
          1   -1    0    0  502    0  0.00000000000E+00 -0.00000000000E+00 -0.15997770933E+04  0.15997770933E+04  0.00000000000E+00 0. -1.
    9000005    1    1    2  502    0 -0.71699868632E+02  0.72968997453E+01 -0.10043027612E+04  0.10834288865E+04  0.40000000000E+03 0. -1.
   -9000005    1    1    2    0  501  0.71699868632E+02 -0.72968997453E+01 -0.48162148397E+03  0.63020105500E+03  0.40000000000E+03 0.  1.
<mgrwt>
<rscale>  2 0.40644079E+03</rscale>
<asrwt>0</asrwt>
<pdfrwt beam="1">  1        1 0.24611954E+00 0.40644079E+03</pdfrwt>
<pdfrwt beam="2">  1       -1 0.17515823E-01 0.40644079E+03</pdfrwt>
<totfact> 0.15112282E+02</totfact>
</mgrwt>
</event>
<event>
 4    1  0.2318373E-002  0.4197257E+03  0.7818608E-02  0.1037156E+00
         -1   -1    0    0    0  501 -0.00000000000E+00  0.00000000000E+00  0.49946363684E+03  0.49946363684E+03  0.00000000000E+00 0. -1.
          1   -1    0    0  502    0  0.00000000000E+00 -0.00000000000E+00 -0.36051134179E+03  0.36051134179E+03  0.00000000000E+00 0.  1.
    9000005    1    1    2  502    0 -0.12635897168E+03 -0.14249825406E+02  0.62542426985E+01  0.41977227493E+03  0.40000000000E+03 0. -1.
   -9000005    1    1    2    0  501  0.12635897168E+03  0.14249825406E+02  0.13269805235E+03  0.44020270370E+03  0.40000000000E+03 0. -1.
<mgrwt>
<rscale>  2 0.41972568E+03</rscale>
<asrwt>0</asrwt>
<pdfrwt beam="1">  1        1 0.55463283E-01 0.41972568E+03</pdfrwt>
<pdfrwt beam="2">  1       -1 0.76840559E-01 0.41972568E+03</pdfrwt>
<totfact> 0.12192730E+02</totfact>
</mgrwt>
</event>
<event>
 4    1  0.2318373E-002  0.5455806E+03  0.7818608E-02  0.1002522E+00
         -2   -1    0    0    0  501 -0.00000000000E+00  0.00000000000E+00  0.11856097738E+03  0.11856097738E+03  0.00000000000E+00 0. -1.
          2   -1    0    0  502    0  0.00000000000E+00 -0.00000000000E+00 -0.25131352128E+04  0.25131352128E+04  0.00000000000E+00 0.  1.
    9000005    1    1    2  502    0  0.31888904727E+03 -0.18965227439E+03 -0.11554258863E+04  0.12777586581E+04  0.40000000000E+03 0. -1.
   -9000005    1    1    2    0  501 -0.31888904727E+03  0.18965227439E+03 -0.12391483491E+04  0.13539375321E+04  0.40000000000E+03 0.  1.
<mgrwt>
<rscale>  2 0.54558062E+03</rscale>
<asrwt>0</asrwt>
<pdfrwt beam="1">  1        2 0.38663616E+00 0.54558062E+03</pdfrwt>
<pdfrwt beam="2">  1       -2 0.18240151E-01 0.54558062E+03</pdfrwt>
<totfact> 0.91667888E+01</totfact>
</mgrwt>
</event>
<event>
 4    1  0.2318373E-002  0.4175269E+03  0.7818608E-02  0.1037874E+00
         -2   -1    0    0    0  501 -0.00000000000E+00  0.00000000000E+00  0.11381971856E+03  0.11381971856E+03  0.00000000000E+00 0.  1.
          2   -1    0    0  502    0  0.00000000000E+00 -0.00000000000E+00 -0.20230627182E+04  0.20230627182E+04  0.00000000000E+00 0. -1.
    9000005    1    1    2  502    0 -0.32555048186E+02 -0.11519071903E+03 -0.42802043721E+03  0.59793831419E+03  0.40000000000E+03 0.  1.
   -9000005    1    1    2    0  501  0.32555048186E+02  0.11519071903E+03 -0.14812225625E+04  0.15389441226E+04  0.40000000000E+03 0. -1.
<mgrwt>
<rscale>  2 0.41752692E+03</rscale>
<asrwt>0</asrwt>
<pdfrwt beam="1">  1        2 0.31124040E+00 0.41752692E+03</pdfrwt>
<pdfrwt beam="2">  1       -2 0.17510727E-01 0.41752692E+03</pdfrwt>
<totfact> 0.18614309E+02</totfact>
</mgrwt>
</event>
<event>
 4    1  0.2318373E-002  0.6883796E+03  0.7818608E-02  0.9737314E-01
          2   -1    0    0  502    0  0.00000000000E+00  0.00000000000E+00  0.12537256114E+04  0.12537256114E+04  0.00000000000E+00 0.  1.
         -2   -1    0    0    0  501 -0.00000000000E+00 -0.00000000000E+00 -0.38365047201E+03  0.38365047201E+03  0.00000000000E+00 0. -1.
    9000005    1    1    2  502    0 -0.52445893394E+03  0.19700092527E+03  0.53468560102E+03  0.87163939211E+03  0.40000000000E+03 0. -1.
   -9000005    1    1    2    0  501  0.52445893394E+03 -0.19700092527E+03  0.33538953836E+03  0.76573669129E+03  0.40000000000E+03 0.  1.
<mgrwt>
<rscale>  2 0.68837965E+03</rscale>
<asrwt>0</asrwt>
<pdfrwt beam="1">  1        2 0.19288086E+00 0.68837965E+03</pdfrwt>
<pdfrwt beam="2">  1       -2 0.59023150E-01 0.68837965E+03</pdfrwt>
<totfact> 0.48360419E+01</totfact>
</mgrwt>
</event>
<event>
 4    1  0.2318373E-002  0.4958899E+03  0.7818608E-02  0.1014857E+00
         -2   -1    0    0    0  501 -0.00000000000E+00  0.00000000000E+00  0.87382500845E+03  0.87382500845E+03  0.00000000000E+00 0.  1.
          2   -1    0    0  502    0  0.00000000000E+00 -0.00000000000E+00 -0.32294892032E+03  0.32294892032E+03  0.00000000000E+00 0. -1.
    9000005    1    1    2  502    0 -0.28327795089E+03  0.75235514607E+02  0.60842468094E+02  0.49960843272E+03  0.40000000000E+03 0. -1.
   -9000005    1    1    2    0  501  0.28327795089E+03 -0.75235514607E+02  0.49003362004E+03  0.69716549605E+03  0.40000000000E+03 0.  1.
<mgrwt>
<rscale>  2 0.49588989E+03</rscale>
<asrwt>0</asrwt>
<pdfrwt beam="1">  1        2 0.49684450E-01 0.49588989E+03</pdfrwt>
<pdfrwt beam="2">  1       -2 0.13443462E+00 0.49588989E+03</pdfrwt>
<totfact> 0.41579127E+01</totfact>
</mgrwt>
</event>
<event>
 4    1  0.2318373E-002  0.4065305E+03  0.7818608E-02  0.1041542E+00
          2   -1    0    0  502    0  0.00000000000E+00  0.00000000000E+00  0.19174324787E+03  0.19174324787E+03  0.00000000000E+00 0.  1.
         -2   -1    0    0    0  501 -0.00000000000E+00 -0.00000000000E+00 -0.93986081469E+03  0.93986081469E+03  0.00000000000E+00 0. -1.
    9000005    1    1    2  502    0  0.37783321900E+02  0.61963312442E+02 -0.21112179435E+03  0.45808235455E+03  0.40000000000E+03 0.  1.
   -9000005    1    1    2    0  501 -0.37783321900E+02 -0.61963312442E+02 -0.53699577247E+03  0.67352170801E+03  0.40000000000E+03 0. -1.
<mgrwt>
<rscale>  2 0.40653048E+03</rscale>
<asrwt>0</asrwt>
<pdfrwt beam="1">  1        2 0.29498962E-01 0.40653048E+03</pdfrwt>
<pdfrwt beam="2">  1       -2 0.14459397E+00 0.40653048E+03</pdfrwt>
<totfact> 0.61863522E+01</totfact>
</mgrwt>
</event>
<event>
 4    1  0.2318373E-002  0.4377921E+03  0.7818608E-02  0.1031426E+00
          1   -1    0    0  502    0  0.00000000000E+00  0.00000000000E+00  0.69398875887E+03  0.69398875887E+03  0.00000000000E+00 0.  1.
         -1   -1    0    0    0  501 -0.00000000000E+00 -0.00000000000E+00 -0.28977732848E+03  0.28977732848E+03  0.00000000000E+00 0. -1.
    9000005    1    1    2  502    0 -0.17774755839E+03  0.82321028570E+01  0.30867820183E+03  0.53567172253E+03  0.40000000000E+03 0. -1.
   -9000005    1    1    2    0  501  0.17774755839E+03 -0.82321028570E+01  0.95533228558E+02  0.44809436483E+03  0.40000000000E+03 0.  1.
<mgrwt>
<rscale>  2 0.43779214E+03</rscale>
<asrwt>0</asrwt>
<pdfrwt beam="1">  1        1 0.10676750E+00 0.43779214E+03</pdfrwt>
<pdfrwt beam="2">  1       -1 0.44581127E-01 0.43779214E+03</pdfrwt>
<totfact> 0.14338553E+02</totfact>
</mgrwt>
</event>
<event>
 4    1  0.2318373E-002  0.4565816E+03  0.7818608E-02  0.1025777E+00
          3   -1    0    0  502    0  0.00000000000E+00  0.00000000000E+00  0.13922729485E+03  0.13922729485E+03  0.00000000000E+00 0. -1.
         -3   -1    0    0    0  501 -0.00000000000E+00 -0.00000000000E+00 -0.16934562406E+04  0.16934562406E+04  0.00000000000E+00 0.  1.
    9000005    1    1    2  502    0 -0.20999898260E+03 -0.66084364045E+02 -0.10889733722E+04  0.11808173954E+04  0.40000000000E+03 0.  1.
   -9000005    1    1    2    0  501  0.20999898260E+03  0.66084364045E+02 -0.46525557356E+03  0.65186614009E+03  0.40000000000E+03 0. -1.
<mgrwt>
<rscale>  2 0.45658155E+03</rscale>
<asrwt>0</asrwt>
<pdfrwt beam="1">  1        3 0.21419585E-01 0.45658155E+03</pdfrwt>
<pdfrwt beam="2">  1       -3 0.26053172E+00 0.45658155E+03</pdfrwt>
<totfact> 0.34785663E+00</totfact>
</mgrwt>
</event>
<event>
 4    1  0.2318373E-002  0.4633568E+03  0.7818608E-02  0.1023812E+00
         -1   -1    0    0    0  501 -0.00000000000E+00  0.00000000000E+00  0.11778414964E+03  0.11778414964E+03  0.00000000000E+00 0.  1.
          1   -1    0    0  502    0  0.00000000000E+00 -0.00000000000E+00 -0.22658668990E+04  0.22658668990E+04  0.00000000000E+00 0. -1.
    9000005    1    1    2  502    0  0.15751042055E+03  0.17288723215E+03 -0.16010520386E+04  0.16667534785E+04  0.40000000000E+03 0. -1.
   -9000005    1    1    2    0  501 -0.15751042055E+03 -0.17288723215E+03 -0.54703071076E+03  0.71689757018E+03  0.40000000000E+03 0.  1.
<mgrwt>
<rscale>  2 0.46335680E+03</rscale>
<asrwt>0</asrwt>
<pdfrwt beam="1">  1        1 0.34859489E+00 0.46335680E+03</pdfrwt>
<pdfrwt beam="2">  1       -1 0.18120639E-01 0.46335680E+03</pdfrwt>
<totfact> 0.51364783E+01</totfact>
</mgrwt>
</event>
<event>
 4    1  0.2318373E-002  0.4762489E+03  0.7818608E-02  0.1020171E+00
          2   -1    0    0  502    0  0.00000000000E+00  0.00000000000E+00  0.60829019872E+03  0.60829019872E+03  0.00000000000E+00 0.  1.
         -2   -1    0    0    0  501 -0.00000000000E+00 -0.00000000000E+00 -0.38674579240E+03  0.38674579240E+03  0.00000000000E+00 0. -1.
    9000005    1    1    2  502    0 -0.23739212251E+03  0.10226439741E+03  0.20501072886E+03  0.51850016948E+03  0.40000000000E+03 0.  1.
   -9000005    1    1    2    0  501  0.23739212251E+03 -0.10226439741E+03  0.16533677456E+02  0.47653582163E+03  0.40000000000E+03 0. -1.
<mgrwt>
<rscale>  2 0.47624891E+03</rscale>
<asrwt>0</asrwt>
<pdfrwt beam="1">  1        2 0.93583107E-01 0.47624891E+03</pdfrwt>
<pdfrwt beam="2">  1       -2 0.59499353E-01 0.47624891E+03</pdfrwt>
<totfact> 0.13230762E+02</totfact>
</mgrwt>
</event>
<event>
 4    1  0.2318373E-002  0.5124678E+03  0.7818608E-02  0.1010575E+00
         -2   -1    0    0    0  501 -0.00000000000E+00  0.00000000000E+00  0.79411779080E+03  0.79411779080E+03  0.00000000000E+00 0. -1.
          2   -1    0    0  502    0  0.00000000000E+00 -0.00000000000E+00 -0.53508121801E+03  0.53508121801E+03  0.00000000000E+00 0.  1.
    9000005    1    1    2  502    0 -0.35263287458E+02 -0.31840189930E+03  0.54025096531E+03  0.74464379030E+03  0.40000000000E+03 0. -1.
   -9000005    1    1    2    0  501  0.35263287458E+02  0.31840189930E+03 -0.28121439253E+03  0.58455521850E+03  0.40000000000E+03 0.  1.
<mgrwt>
<rscale>  2 0.51246782E+03</rscale>
<asrwt>0</asrwt>
<pdfrwt beam="1">  1        2 0.82320187E-01 0.51246782E+03</pdfrwt>
<pdfrwt beam="2">  1       -2 0.12217197E+00 0.51246782E+03</pdfrwt>
<totfact> 0.29907188E+01</totfact>
</mgrwt>
</event>
<event>
 4    1  0.2318373E-002  0.5436587E+03  0.7818608E-02  0.1002972E+00
          2   -1    0    0  502    0  0.00000000000E+00  0.00000000000E+00  0.17268035805E+04  0.17268035805E+04  0.00000000000E+00 0.  1.
         -2   -1    0    0    0  501 -0.00000000000E+00 -0.00000000000E+00 -0.48390701884E+03  0.48390701884E+03  0.00000000000E+00 0. -1.
    9000005    1    1    2  502    0  0.35136052555E+03  0.11004784508E+03  0.15100670814E+04  0.16049508832E+04  0.40000000000E+03 0.  1.
   -9000005    1    1    2    0  501 -0.35136052555E+03 -0.11004784508E+03 -0.26717051972E+03  0.60575971616E+03  0.40000000000E+03 0. -1.
<mgrwt>
<rscale>  2 0.54365867E+03</rscale>
<asrwt>0</asrwt>
<pdfrwt beam="1">  1        2 0.26566209E+00 0.54365867E+03</pdfrwt>
<pdfrwt beam="2">  1       -2 0.74447234E-01 0.54365867E+03</pdfrwt>
<totfact> 0.16346970E+01</totfact>
</mgrwt>
</event>
<event>
 4    1  0.2318373E-002  0.4000396E+03  0.7818608E-02  0.1043766E+00
         -2   -1    0    0    0  501 -0.00000000000E+00  0.00000000000E+00  0.97002707035E+02  0.97002707035E+02  0.00000000000E+00 0. -1.
          2   -1    0    0  502    0  0.00000000000E+00 -0.00000000000E+00 -0.16751549478E+04  0.16751549478E+04  0.00000000000E+00 0.  1.
    9000005    1    1    2  502    0 -0.33179070743E+00 -0.56217952694E+01 -0.89816284920E+03  0.98322338172E+03  0.40000000000E+03 0.  1.
   -9000005    1    1    2    0  501  0.33179070743E+00  0.56217952694E+01 -0.67998939157E+03  0.78893427313E+03  0.40000000000E+03 0. -1.
<mgrwt>
<rscale>  2 0.40003964E+03</rscale>
<asrwt>0</asrwt>
<pdfrwt beam="1">  1        2 0.25771611E+00 0.40003964E+03</pdfrwt>
<pdfrwt beam="2">  1       -2 0.14923495E-01 0.40003964E+03</pdfrwt>
<totfact> 0.37492543E+02</totfact>
</mgrwt>
</event>
<event>
 4    1  0.2318373E-002  0.4551109E+03  0.7818608E-02  0.1026209E+00
          2   -1    0    0  502    0  0.00000000000E+00  0.00000000000E+00  0.16612676999E+04  0.16612676999E+04  0.00000000000E+00 0. -1.
         -2   -1    0    0    0  501 -0.00000000000E+00 -0.00000000000E+00 -0.18600325622E+03  0.18600325622E+03  0.00000000000E+00 0.  1.
    9000005    1    1    2  502    0 -0.11177015910E+03  0.18610045254E+03  0.12679728224E+04  0.13471752021E+04  0.40000000000E+03 0.  1.
   -9000005    1    1    2    0  501  0.11177015910E+03 -0.18610045254E+03  0.20729162129E+03  0.50009575399E+03  0.40000000000E+03 0.  1.
<mgrwt>
<rscale>  2 0.45511092E+03</rscale>
<asrwt>0</asrwt>
<pdfrwt beam="1">  1        2 0.25557964E+00 0.45511092E+03</pdfrwt>
<pdfrwt beam="2">  1       -2 0.28615887E-01 0.45511092E+03</pdfrwt>
<totfact> 0.12172342E+02</totfact>
</mgrwt>
</event>
<event>
 4    1  0.2318373E-002  0.4770881E+03  0.7818608E-02  0.1019939E+00
         -2   -1    0    0    0  501 -0.00000000000E+00  0.00000000000E+00  0.35708675599E+03  0.35708675599E+03  0.00000000000E+00 0.  1.
          2   -1    0    0  502    0  0.00000000000E+00 -0.00000000000E+00 -0.93049060549E+03  0.93049060549E+03  0.00000000000E+00 0. -1.
    9000005    1    1    2  502    0  0.25977454063E+03  0.11410716507E+02  0.74604770874E+02  0.48288599922E+03  0.40000000000E+03 0.  1.
   -9000005    1    1    2    0  501 -0.25977454063E+03 -0.11410716507E+02 -0.64800862037E+03  0.80469136225E+03  0.40000000000E+03 0. -1.
<mgrwt>
<rscale>  2 0.47708806E+03</rscale>
<asrwt>0</asrwt>
<pdfrwt beam="1">  1        2 0.14315240E+00 0.47708806E+03</pdfrwt>
<pdfrwt beam="2">  1       -2 0.54936424E-01 0.47708806E+03</pdfrwt>
<totfact> 0.90554040E+01</totfact>
</mgrwt>
</event>
<event>
 4    1  0.2318373E-002  0.4040836E+03  0.7818608E-02  0.1042375E+00
          1   -1    0    0  502    0  0.00000000000E+00  0.00000000000E+00  0.13183894704E+03  0.13183894704E+03  0.00000000000E+00 0. -1.
         -1   -1    0    0    0  501 -0.00000000000E+00 -0.00000000000E+00 -0.15627901378E+04  0.15627901378E+04  0.00000000000E+00 0.  1.
    9000005    1    1    2  502    0  0.84852413865E+01  0.56670263058E+02 -0.32950322977E+03  0.52139802116E+03  0.40000000000E+03 0. -1.
   -9000005    1    1    2    0  501 -0.84852413865E+01 -0.56670263058E+02 -0.11014479609E+04  0.11732310636E+04  0.40000000000E+03 0.  1.
<mgrwt>
<rscale>  2 0.40408355E+03</rscale>
<asrwt>0</asrwt>
<pdfrwt beam="1">  1        1 0.20282916E-01 0.40408355E+03</pdfrwt>
<pdfrwt beam="2">  1       -1 0.24042924E+00 0.40408355E+03</pdfrwt>
<totfact> 0.22347262E+01</totfact>
</mgrwt>
</event>
<event>
 4    1  0.2318373E-002  0.5458435E+03  0.7818608E-02  0.1002461E+00
         -1   -1    0    0    0  501 -0.00000000000E+00  0.00000000000E+00  0.59174999883E+03  0.59174999883E+03  0.00000000000E+00 0. -1.
          1   -1    0    0  502    0  0.00000000000E+00 -0.00000000000E+00 -0.10911272471E+04  0.10911272471E+04  0.00000000000E+00 0.  1.
    9000005    1    1    2  502    0 -0.28615842104E+03  0.23676677799E+03 -0.86718770266E+03  0.10246753929E+04  0.40000000000E+03 0.  1.
   -9000005    1    1    2    0  501  0.28615842104E+03 -0.23676677799E+03  0.36781045435E+03  0.65820185310E+03  0.40000000000E+03 0. -1.
<mgrwt>
<rscale>  2 0.54584352E+03</rscale>
<asrwt>0</asrwt>
<pdfrwt beam="1">  1        1 0.16786573E+00 0.54584352E+03</pdfrwt>
<pdfrwt beam="2">  1       -1 0.91038462E-01 0.54584352E+03</pdfrwt>
<totfact> 0.16129476E+01</totfact>
</mgrwt>
</event>
<event>
 4    1  0.2318373E-002  0.4768167E+03  0.7818608E-02  0.1020014E+00
         -2   -1    0    0    0  501 -0.00000000000E+00  0.00000000000E+00  0.13139128709E+03  0.13139128709E+03  0.00000000000E+00 0. -1.
          2   -1    0    0  502    0  0.00000000000E+00 -0.00000000000E+00 -0.18247607543E+04  0.18247607543E+04  0.00000000000E+00 0.  1.
    9000005    1    1    2  502    0 -0.24042921611E+03  0.97713625700E+02 -0.62422134424E+03  0.78549757938E+03  0.40000000000E+03 0. -1.
   -9000005    1    1    2    0  501  0.24042921611E+03 -0.97713625700E+02 -0.10691481230E+04  0.11706544621E+04  0.40000000000E+03 0.  1.
<mgrwt>
<rscale>  2 0.47681669E+03</rscale>
<asrwt>0</asrwt>
<pdfrwt beam="1">  1        2 0.28073242E+00 0.47681669E+03</pdfrwt>
<pdfrwt beam="2">  1       -2 0.20214045E-01 0.47681669E+03</pdfrwt>
<totfact> 0.18404767E+02</totfact>
</mgrwt>
</event>
<event>
 4    1  0.2318373E-002  0.4961035E+03  0.7818608E-02  0.1014801E+00
          1   -1    0    0  502    0  0.00000000000E+00  0.00000000000E+00  0.50807135002E+03  0.50807135002E+03  0.00000000000E+00 0.  1.
         -1   -1    0    0    0  501 -0.00000000000E+00 -0.00000000000E+00 -0.49137017076E+03  0.49137017076E+03  0.00000000000E+00 0. -1.
    9000005    1    1    2  502    0  0.33536849884E+02 -0.29153718384E+03 -0.51092179836E+02  0.49872744129E+03  0.40000000000E+03 0. -1.
   -9000005    1    1    2    0  501 -0.33536849884E+02  0.29153718384E+03  0.67793359101E+02  0.50071407949E+03  0.40000000000E+03 0. -1.
<mgrwt>
<rscale>  2 0.49610347E+03</rscale>
<asrwt>0</asrwt>
<pdfrwt beam="1">  1        1 0.78164823E-01 0.49610347E+03</pdfrwt>
<pdfrwt beam="2">  1       -1 0.75595411E-01 0.49610347E+03</pdfrwt>
<totfact> 0.79468323E+01</totfact>
</mgrwt>
</event>
<event>
 4    1  0.2318373E-002  0.4467512E+03  0.7818608E-02  0.1028695E+00
          2   -1    0    0  502    0  0.00000000000E+00  0.00000000000E+00  0.53540486377E+03  0.53540486377E+03  0.00000000000E+00 0. -1.
         -2   -1    0    0    0  501 -0.00000000000E+00 -0.00000000000E+00 -0.37277764284E+03  0.37277764284E+03  0.00000000000E+00 0.  1.
    9000005    1    1    2  502    0  0.19889491254E+03 -0.52365466096E+01  0.81919586659E+02  0.45419976479E+03  0.40000000000E+03 0. -1.
   -9000005    1    1    2    0  501 -0.19889491254E+03  0.52365466096E+01  0.80707634271E+02  0.45398274183E+03  0.40000000000E+03 0.  1.
<mgrwt>
<rscale>  2 0.44675117E+03</rscale>
<asrwt>0</asrwt>
<pdfrwt beam="1">  1        2 0.82369979E-01 0.44675117E+03</pdfrwt>
<pdfrwt beam="2">  1       -2 0.57350406E-01 0.44675117E+03</pdfrwt>
<totfact> 0.16634676E+02</totfact>
</mgrwt>
</event>
<event>
 4    1  0.2318373E-002  0.4153921E+03  0.7818608E-02  0.1038577E+00
          1   -1    0    0  502    0  0.00000000000E+00  0.00000000000E+00  0.46300413668E+03  0.46300413668E+03  0.00000000000E+00 0. -1.
         -1   -1    0    0    0  501 -0.00000000000E+00 -0.00000000000E+00 -0.46607395482E+03  0.46607395482E+03  0.00000000000E+00 0.  1.
    9000005    1    1    2  502    0 -0.10810351026E+03 -0.29397370632E+02  0.20641716922E+03  0.46385193983E+03  0.40000000000E+03 0. -1.
   -9000005    1    1    2    0  501  0.10810351026E+03  0.29397370632E+02 -0.20948698736E+03  0.46522615168E+03  0.40000000000E+03 0.  1.
<mgrwt>
<rscale>  2 0.41539207E+03</rscale>
<asrwt>0</asrwt>
<pdfrwt beam="1">  1        1 0.71231406E-01 0.41539207E+03</pdfrwt>
<pdfrwt beam="2">  1       -1 0.71703685E-01 0.41539207E+03</pdfrwt>
<totfact> 0.10131753E+02</totfact>
</mgrwt>
</event>
<event>
 4    1  0.2318373E-002  0.4257152E+03  0.7818608E-02  0.1035222E+00
         -2   -1    0    0    0  501 -0.00000000000E+00  0.00000000000E+00  0.17571962098E+03  0.17571962098E+03  0.00000000000E+00 0.  1.
          2   -1    0    0  502    0  0.00000000000E+00 -0.00000000000E+00 -0.10948191756E+04  0.10948191756E+04  0.00000000000E+00 0. -1.
    9000005    1    1    2  502    0 -0.60055293738E+02 -0.13276593919E+03 -0.61247205491E+03  0.74589238564E+03  0.40000000000E+03 0.  1.
   -9000005    1    1    2    0  501  0.60055293738E+02  0.13276593919E+03 -0.30662749968E+03  0.52464641090E+03  0.40000000000E+03 0. -1.
<mgrwt>
<rscale>  2 0.42571520E+03</rscale>
<asrwt>0</asrwt>
<pdfrwt beam="1">  1        2 0.16843372E+00 0.42571520E+03</pdfrwt>
<pdfrwt beam="2">  1       -2 0.27033788E-01 0.42571520E+03</pdfrwt>
<totfact> 0.28164407E+02</totfact>
</mgrwt>
</event>
<event>
 4    1  0.2318373E-002  0.4153696E+03  0.7818608E-02  0.1038584E+00
         -2   -1    0    0    0  501 -0.00000000000E+00  0.00000000000E+00  0.91320963424E+02  0.91320963424E+02  0.00000000000E+00 0. -1.
          2   -1    0    0  502    0  0.00000000000E+00 -0.00000000000E+00 -0.20697880758E+04  0.20697880758E+04  0.00000000000E+00 0.  1.
    9000005    1    1    2  502    0  0.34117465070E+02  0.10662040387E+03 -0.67013978020E+03  0.78842833343E+03  0.40000000000E+03 0. -1.
   -9000005    1    1    2    0  501 -0.34117465070E+02 -0.10662040387E+03 -0.13083273321E+04  0.13726807058E+04  0.40000000000E+03 0.  1.
<mgrwt>
<rscale>  2 0.41536961E+03</rscale>
<asrwt>0</asrwt>
<pdfrwt beam="1">  1        2 0.31842891E+00 0.41536961E+03</pdfrwt>
<pdfrwt beam="2">  1       -2 0.14049380E-01 0.41536961E+03</pdfrwt>
<totfact> 0.25458006E+02</totfact>
</mgrwt>
</event>
<event>
 4    1  0.2318373E-002  0.4528104E+03  0.7818608E-02  0.1026887E+00
         -4   -1    0    0    0  501 -0.00000000000E+00  0.00000000000E+00  0.71421358896E+03  0.71421358896E+03  0.00000000000E+00 0.  1.
          4   -1    0    0  502    0  0.00000000000E+00 -0.00000000000E+00 -0.28823242786E+03  0.28823242786E+03  0.00000000000E+00 0. -1.
    9000005    1    1    2  502    0  0.18840091620E+02 -0.21138199353E+03  0.24466726218E+03  0.51468375282E+03  0.40000000000E+03 0. -1.
   -9000005    1    1    2    0  501 -0.18840091620E+02  0.21138199353E+03  0.18131389892E+03  0.48776226400E+03  0.40000000000E+03 0. -1.
<mgrwt>
<rscale>  2 0.45281044E+03</rscale>
<asrwt>0</asrwt>
<pdfrwt beam="1">  1        4 0.44343451E-01 0.45281044E+03</pdfrwt>
<pdfrwt beam="2">  1       -4 0.10987901E+00 0.45281044E+03</pdfrwt>
<totfact> 0.63120622E+00</totfact>
</mgrwt>
</event>
<event>
 4    1  0.2318373E-002  0.4098241E+03  0.7818608E-02  0.1040430E+00
         -1   -1    0    0    0  501 -0.00000000000E+00  0.00000000000E+00  0.66162468249E+03  0.66162468249E+03  0.00000000000E+00 0.  1.
          1   -1    0    0  502    0  0.00000000000E+00 -0.00000000000E+00 -0.62767001133E+03  0.62767001133E+03  0.00000000000E+00 0. -1.
    9000005    1    1    2  502    0  0.81628667059E+02 -0.35952591112E+02 -0.48051417454E+03  0.63154548532E+03  0.40000000000E+03 0. -1.
   -9000005    1    1    2    0  501 -0.81628667059E+02  0.35952591112E+02  0.51446884570E+03  0.65774920850E+03  0.40000000000E+03 0.  1.
<mgrwt>
<rscale>  2 0.40982414E+03</rscale>
<asrwt>0</asrwt>
<pdfrwt beam="1">  1        1 0.96564617E-01 0.40982414E+03</pdfrwt>
<pdfrwt beam="2">  1       -1 0.10178841E+00 0.40982414E+03</pdfrwt>
<totfact> 0.31471737E+01</totfact>
</mgrwt>
</event>
<event>
 4    1  0.2318373E-002  0.4832465E+03  0.7818608E-02  0.1018247E+00
          2   -1    0    0  502    0  0.00000000000E+00  0.00000000000E+00  0.28349140287E+03  0.28349140287E+03  0.00000000000E+00 0. -1.
         -2   -1    0    0    0  501 -0.00000000000E+00 -0.00000000000E+00 -0.83943520332E+03  0.83943520332E+03  0.00000000000E+00 0.  1.
    9000005    1    1    2  502    0  0.18593822343E+03 -0.19736803005E+03 -0.35471126605E+03  0.59945579027E+03  0.40000000000E+03 0. -1.
   -9000005    1    1    2    0  501 -0.18593822343E+03  0.19736803005E+03 -0.20123253440E+03  0.52347081592E+03  0.40000000000E+03 0.  1.
<mgrwt>
<rscale>  2 0.48324648E+03</rscale>
<asrwt>0</asrwt>
<pdfrwt beam="1">  1        2 0.43614062E-01 0.48324648E+03</pdfrwt>
<pdfrwt beam="2">  1       -2 0.12914388E+00 0.48324648E+03</pdfrwt>
<totfact> 0.53157493E+01</totfact>
</mgrwt>
</event>
<event>
 4    1  0.2318373E-002  0.5088807E+03  0.7818608E-02  0.1011487E+00
         -1   -1    0    0    0  501 -0.00000000000E+00  0.00000000000E+00  0.66760260446E+03  0.66760260446E+03  0.00000000000E+00 0.  1.
          1   -1    0    0  502    0  0.00000000000E+00 -0.00000000000E+00 -0.38927578252E+03  0.38927578252E+03  0.00000000000E+00 0. -1.
    9000005    1    1    2  502    0 -0.30211489777E+03  0.87670544942E+02  0.10768806548E+03  0.52015022383E+03  0.40000000000E+03 0. -1.
   -9000005    1    1    2    0  501  0.30211489777E+03 -0.87670544942E+02  0.17063875647E+03  0.53672816315E+03  0.40000000000E+03 0. -1.
<mgrwt>
<rscale>  2 0.50888067E+03</rscale>
<asrwt>0</asrwt>
<pdfrwt beam="1">  1        1 0.59888582E-01 0.50888067E+03</pdfrwt>
<pdfrwt beam="2">  1       -1 0.10270809E+00 0.50888067E+03</pdfrwt>
<totfact> 0.58164367E+01</totfact>
</mgrwt>
</event>
<event>
 4    1  0.2318373E-002  0.4281116E+03  0.7818608E-02  0.1034458E+00
          2   -1    0    0  502    0  0.00000000000E+00  0.00000000000E+00  0.58028687298E+03  0.58028687298E+03  0.00000000000E+00 0. -1.
         -2   -1    0    0    0  501 -0.00000000000E+00 -0.00000000000E+00 -0.45357160086E+03  0.45357160086E+03  0.00000000000E+00 0.  1.
    9000005    1    1    2  502    0 -0.67575419836E+02 -0.13679570020E+03 -0.22149507764E+03  0.48201615157E+03  0.40000000000E+03 0.  1.
   -9000005    1    1    2    0  501  0.67575419836E+02  0.13679570020E+03  0.34821034977E+03  0.55184232227E+03  0.40000000000E+03 0. -1.
<mgrwt>
<rscale>  2 0.42811155E+03</rscale>
<asrwt>0</asrwt>
<pdfrwt beam="1">  1        2 0.89274903E-01 0.42811155E+03</pdfrwt>
<pdfrwt beam="2">  1       -2 0.69780246E-01 0.42811155E+03</pdfrwt>
<totfact> 0.10008615E+02</totfact>
</mgrwt>
</event>
<event>
 4    1  0.2318373E-002  0.4372473E+03  0.7818608E-02  0.1031595E+00
          1   -1    0    0  502    0  0.00000000000E+00  0.00000000000E+00  0.10548778676E+04  0.10548778676E+04  0.00000000000E+00 0.  1.
         -1   -1    0    0    0  501 -0.00000000000E+00 -0.00000000000E+00 -0.18166655644E+03  0.18166655644E+03  0.00000000000E+00 0. -1.
    9000005    1    1    2  502    0 -0.17433294353E+03  0.28163826776E+02  0.40661687598E+03  0.59709501771E+03  0.40000000000E+03 0. -1.
   -9000005    1    1    2    0  501  0.17433294353E+03 -0.28163826776E+02  0.46659443522E+03  0.63944940638E+03  0.40000000000E+03 0. -1.
<mgrwt>
<rscale>  2 0.43724727E+03</rscale>
<asrwt>0</asrwt>
<pdfrwt beam="1">  1        1 0.16228890E+00 0.43724727E+03</pdfrwt>
<pdfrwt beam="2">  1       -1 0.27948702E-01 0.43724727E+03</pdfrwt>
<totfact> 0.16550892E+02</totfact>
</mgrwt>
</event>
<event>
 4    1  0.2318373E-002  0.5175918E+03  0.7818608E-02  0.1009287E+00
         -2   -1    0    0    0  501 -0.00000000000E+00  0.00000000000E+00  0.29433352753E+03  0.29433352753E+03  0.00000000000E+00 0. -1.
          2   -1    0    0  502    0  0.00000000000E+00 -0.00000000000E+00 -0.10634257724E+04  0.10634257724E+04  0.00000000000E+00 0.  1.
    9000005    1    1    2  502    0  0.57699448938E+02  0.32337597468E+03 -0.64224382518E+03  0.82485051882E+03  0.40000000000E+03 0.  1.
   -9000005    1    1    2    0  501 -0.57699448938E+02 -0.32337597468E+03 -0.12684841968E+03  0.53290878111E+03  0.40000000000E+03 0. -1.
<mgrwt>
<rscale>  2 0.51759178E+03</rscale>
<asrwt>0</asrwt>
<pdfrwt beam="1">  1        2 0.16360396E+00 0.51759178E+03</pdfrwt>
<pdfrwt beam="2">  1       -2 0.45282081E-01 0.51759178E+03</pdfrwt>
<totfact> 0.10986513E+02</totfact>
</mgrwt>
</event>
<event>
 4    1  0.2318373E-002  0.5014908E+03  0.7818608E-02  0.1013391E+00
         -2   -1    0    0    0  501 -0.00000000000E+00  0.00000000000E+00  0.14763396280E+03  0.14763396280E+03  0.00000000000E+00 0. -1.
          2   -1    0    0  502    0  0.00000000000E+00 -0.00000000000E+00 -0.17041275175E+04  0.17041275175E+04  0.00000000000E+00 0.  1.
    9000005    1    1    2  502    0  0.27473721749E+03  0.12654040187E+03 -0.76034176489E+03  0.91083072600E+03  0.40000000000E+03 0.  1.
   -9000005    1    1    2    0  501 -0.27473721749E+03 -0.12654040187E+03 -0.79615178981E+03  0.94093075431E+03  0.40000000000E+03 0. -1.
<mgrwt>
<rscale>  2 0.50149079E+03</rscale>
<asrwt>0</asrwt>
<pdfrwt beam="1">  1        2 0.26217348E+00 0.50149079E+03</pdfrwt>
<pdfrwt beam="2">  1       -2 0.22712916E-01 0.50149079E+03</pdfrwt>
<totfact> 0.17365255E+02</totfact>
</mgrwt>
</event>
<event>
 4    1  0.2318373E-002  0.4045858E+03  0.7818608E-02  0.1042203E+00
          2   -1    0    0  502    0  0.00000000000E+00  0.00000000000E+00  0.13191988479E+04  0.13191988479E+04  0.00000000000E+00 0.  1.
         -2   -1    0    0    0  501 -0.00000000000E+00 -0.00000000000E+00 -0.15063397560E+03  0.15063397560E+03  0.00000000000E+00 0. -1.
    9000005    1    1    2  502    0  0.59995435740E+02  0.94981156504E+01  0.27573657869E+03  0.48961242564E+03  0.40000000000E+03 0. -1.
   -9000005    1    1    2    0  501 -0.59995435740E+02 -0.94981156504E+01  0.89282829361E+03  0.98022039786E+03  0.40000000000E+03 0. -1.
<mgrwt>
<rscale>  2 0.40458580E+03</rscale>
<asrwt>0</asrwt>
<pdfrwt beam="1">  1        2 0.20295366E+00 0.40458580E+03</pdfrwt>
<pdfrwt beam="2">  1       -2 0.23174459E-01 0.40458580E+03</pdfrwt>
<totfact> 0.27552505E+02</totfact>
</mgrwt>
</event>
<event>
 4    1  0.2318373E-002  0.4746625E+03  0.7818608E-02  0.1020612E+00
          1   -1    0    0  502    0  0.00000000000E+00  0.00000000000E+00  0.36316145413E+03  0.36316145413E+03  0.00000000000E+00 0.  1.
         -1   -1    0    0    0  501 -0.00000000000E+00 -0.00000000000E+00 -0.90759416464E+03  0.90759416464E+03  0.00000000000E+00 0. -1.
    9000005    1    1    2  502    0  0.96435444196E+02  0.23665302569E+03  0.85201224561E+02  0.48224858541E+03  0.40000000000E+03 0. -1.
   -9000005    1    1    2    0  501 -0.96435444196E+02 -0.23665302569E+03 -0.62963393507E+03  0.78850703336E+03  0.40000000000E+03 0. -1.
<mgrwt>
<rscale>  2 0.47466246E+03</rscale>
<asrwt>0</asrwt>
<pdfrwt beam="1">  1        1 0.55870994E-01 0.47466246E+03</pdfrwt>
<pdfrwt beam="2">  1       -1 0.13962987E+00 0.47466246E+03</pdfrwt>
<totfact> 0.30421836E+01</totfact>
</mgrwt>
</event>
<event>
 4    1  0.2318373E-002  0.4672549E+03  0.7818608E-02  0.1022698E+00
         -2   -1    0    0    0  501 -0.00000000000E+00  0.00000000000E+00  0.18345463084E+03  0.18345463084E+03  0.00000000000E+00 0.  1.
          2   -1    0    0  502    0  0.00000000000E+00 -0.00000000000E+00 -0.12414452161E+04  0.12414452161E+04  0.00000000000E+00 0. -1.
    9000005    1    1    2  502    0 -0.23270754535E+03 -0.64609347637E+02 -0.67390282507E+03  0.82004401535E+03  0.40000000000E+03 0. -1.
   -9000005    1    1    2    0  501  0.23270754535E+03  0.64609347637E+02 -0.38408776015E+03  0.60485583155E+03  0.40000000000E+03 0.  1.
<mgrwt>
<rscale>  2 0.46725493E+03</rscale>
<asrwt>0</asrwt>
<pdfrwt beam="1">  1        2 0.19099158E+00 0.46725493E+03</pdfrwt>
<pdfrwt beam="2">  1       -2 0.28223789E-01 0.46725493E+03</pdfrwt>
<totfact> 0.21273599E+02</totfact>
</mgrwt>
</event>
<event>
 4    1  0.2318373E-002  0.4372105E+03  0.7818608E-02  0.1031606E+00
          1   -1    0    0  502    0  0.00000000000E+00  0.00000000000E+00  0.72113097499E+03  0.72113097499E+03  0.00000000000E+00 0.  1.
         -1   -1    0    0    0  501 -0.00000000000E+00 -0.00000000000E+00 -0.33375906103E+03  0.33375906103E+03  0.00000000000E+00 0. -1.
    9000005    1    1    2  502    0  0.14021711365E+03  0.10720166682E+03 -0.45586088886E+02  0.43958062722E+03  0.40000000000E+03 0. -1.
   -9000005    1    1    2    0  501 -0.14021711365E+03 -0.10720166682E+03  0.43295800285E+03  0.61530940880E+03  0.40000000000E+03 0.  1.
<mgrwt>
<rscale>  2 0.43721052E+03</rscale>
<asrwt>0</asrwt>
<pdfrwt beam="1">  1        1 0.11094323E+00 0.43721052E+03</pdfrwt>
<pdfrwt beam="2">  1       -1 0.51347548E-01 0.43721052E+03</pdfrwt>
<totfact> 0.10413019E+02</totfact>
</mgrwt>
</event>
<event>
 4    1  0.2318373E-002  0.4329833E+03  0.7818608E-02  0.1032922E+00
         -1   -1    0    0    0  501 -0.00000000000E+00  0.00000000000E+00  0.22821941736E+03  0.22821941736E+03  0.00000000000E+00 0.  1.
          1   -1    0    0  502    0  0.00000000000E+00 -0.00000000000E+00 -0.84026424094E+03  0.84026424094E+03  0.00000000000E+00 0. -1.
    9000005    1    1    2  502    0 -0.85784995806E+02  0.14182889411E+03 -0.38593001565E+03  0.58001420473E+03  0.40000000000E+03 0.  1.
   -9000005    1    1    2    0  501  0.85784995806E+02 -0.14182889411E+03 -0.22611480792E+03  0.48846945357E+03  0.40000000000E+03 0.  1.
<mgrwt>
<rscale>  2 0.43298326E+03</rscale>
<asrwt>0</asrwt>
<pdfrwt beam="1">  1        1 0.12927142E+00 0.43298326E+03</pdfrwt>
<pdfrwt beam="2">  1       -1 0.35110680E-01 0.43298326E+03</pdfrwt>
<totfact> 0.16412767E+02</totfact>
</mgrwt>
</event>
<event>
 4    1  0.2318373E-002  0.4399449E+03  0.7818608E-02  0.1030764E+00
         -2   -1    0    0    0  501 -0.00000000000E+00  0.00000000000E+00  0.43308425059E+03  0.43308425059E+03  0.00000000000E+00 0.  1.
          2   -1    0    0  502    0  0.00000000000E+00 -0.00000000000E+00 -0.72394185445E+03  0.72394185445E+03  0.00000000000E+00 0. -1.
    9000005    1    1    2  502    0 -0.16783800049E+03 -0.73361801332E+02  0.21243914074E+03  0.48855085387E+03  0.40000000000E+03 0.  1.
   -9000005    1    1    2    0  501  0.16783800049E+03  0.73361801332E+02 -0.50329674460E+03  0.66847525117E+03  0.40000000000E+03 0. -1.
<mgrwt>
<rscale>  2 0.43994494E+03</rscale>
<asrwt>0</asrwt>
<pdfrwt beam="1">  1        2 0.11137567E+00 0.43994494E+03</pdfrwt>
<pdfrwt beam="2">  1       -2 0.66628346E-01 0.43994494E+03</pdfrwt>
<totfact> 0.84437403E+01</totfact>
</mgrwt>
</event>
<event>
 4    1  0.2318373E-002  0.4913297E+03  0.7818608E-02  0.1016067E+00
         -2   -1    0    0    0  501 -0.00000000000E+00  0.00000000000E+00  0.11313168439E+03  0.11313168439E+03  0.00000000000E+00 0.  1.
          2   -1    0    0  502    0  0.00000000000E+00 -0.00000000000E+00 -0.21346073862E+04  0.21346073862E+04  0.00000000000E+00 0. -1.
    9000005    1    1    2  502    0  0.26465821960E+03 -0.10658742881E+03 -0.10320542832E+04  0.11430401990E+04  0.40000000000E+03 0. -1.
   -9000005    1    1    2    0  501 -0.26465821960E+03  0.10658742881E+03 -0.98942141861E+03  0.11046988715E+04  0.40000000000E+03 0.  1.
<mgrwt>
<rscale>  2 0.49132968E+03</rscale>
<asrwt>0</asrwt>
<pdfrwt beam="1">  1        2 0.32840110E+00 0.49132968E+03</pdfrwt>
<pdfrwt beam="2">  1       -2 0.17404877E-01 0.49132968E+03</pdfrwt>
<totfact> 0.16190119E+02</totfact>
</mgrwt>
</event>
<event>
 4    1  0.2318373E-002  0.4036406E+03  0.7818608E-02  0.1042526E+00
          2   -1    0    0  502    0  0.00000000000E+00  0.00000000000E+00  0.18449592135E+04  0.18449592135E+04  0.00000000000E+00 0.  1.
         -2   -1    0    0    0  501 -0.00000000000E+00 -0.00000000000E+00 -0.15616194523E+03  0.15616194523E+03  0.00000000000E+00 0. -1.
    9000005    1    1    2  502    0 -0.15036519089E+02  0.51958040803E+02  0.15039391318E+04  0.15571636546E+04  0.40000000000E+03 0.  1.
   -9000005    1    1    2    0  501  0.15036519089E+02 -0.51958040803E+02  0.18485813650E+03  0.44395750420E+03  0.40000000000E+03 0.  1.
<mgrwt>
<rscale>  2 0.40364060E+03</rscale>
<asrwt>0</asrwt>
<pdfrwt beam="1">  1        2 0.28383986E+00 0.40364060E+03</pdfrwt>
<pdfrwt beam="2">  1       -2 0.24024916E-01 0.40364060E+03</pdfrwt>
<totfact> 0.13406235E+02</totfact>
</mgrwt>
</event>
<event>
 4    1  0.2318373E-002  0.4662037E+03  0.7818608E-02  0.1022997E+00
         -3   -1    0    0    0  501 -0.00000000000E+00  0.00000000000E+00  0.16068238647E+03  0.16068238647E+03  0.00000000000E+00 0.  1.
          3   -1    0    0  502    0  0.00000000000E+00 -0.00000000000E+00 -0.18663797150E+04  0.18663797150E+04  0.00000000000E+00 0. -1.
    9000005    1    1    2  502    0  0.23631263640E+03 -0.38759034786E+02 -0.13845984286E+04  0.14609786903E+04  0.40000000000E+03 0. -1.
   -9000005    1    1    2    0  501 -0.23631263640E+03  0.38759034786E+02 -0.32109889990E+03  0.56608341118E+03  0.40000000000E+03 0.  1.
<mgrwt>
<rscale>  2 0.46620374E+03</rscale>
<asrwt>0</asrwt>
<pdfrwt beam="1">  1        3 0.28713533E+00 0.46620374E+03</pdfrwt>
<pdfrwt beam="2">  1       -3 0.24720368E-01 0.46620374E+03</pdfrwt>
<totfact> 0.19339204E+00</totfact>
</mgrwt>
</event>
<event>
 4    1  0.2318373E-002  0.4472041E+03  0.7818608E-02  0.1028559E+00
         -2   -1    0    0    0  501 -0.00000000000E+00  0.00000000000E+00  0.28703800396E+03  0.28703800396E+03  0.00000000000E+00 0.  1.
          2   -1    0    0  502    0  0.00000000000E+00 -0.00000000000E+00 -0.13487385042E+04  0.13487385042E+04  0.00000000000E+00 0. -1.
    9000005    1    1    2  502    0 -0.10319166435E+03  0.17129787009E+03  0.37809738903E+02  0.44879957247E+03  0.40000000000E+03 0.  1.
   -9000005    1    1    2    0  501  0.10319166435E+03 -0.17129787009E+03 -0.10995102391E+04  0.11869769357E+04  0.40000000000E+03 0. -1.
<mgrwt>
<rscale>  2 0.44720407E+03</rscale>
<asrwt>0</asrwt>
<pdfrwt beam="1">  1        2 0.20749823E+00 0.44720407E+03</pdfrwt>
<pdfrwt beam="2">  1       -2 0.44159693E-01 0.44720407E+03</pdfrwt>
<totfact> 0.79419467E+01</totfact>
</mgrwt>
</event>
<event>
 4    1  0.2318373E-002  0.4229976E+03  0.7818608E-02  0.1036095E+00
         -2   -1    0    0    0  501 -0.00000000000E+00  0.00000000000E+00  0.33031302631E+03  0.33031302631E+03  0.00000000000E+00 0.  1.
          2   -1    0    0  502    0  0.00000000000E+00 -0.00000000000E+00 -0.66312178679E+03  0.66312178679E+03  0.00000000000E+00 0. -1.
    9000005    1    1    2  502    0 -0.28378656963E+02 -0.13461642581E+03  0.46155220731E+02  0.42550820752E+03  0.40000000000E+03 0.  1.
   -9000005    1    1    2    0  501  0.28378656963E+02  0.13461642581E+03 -0.37896398121E+03  0.56792660558E+03  0.40000000000E+03 0. -1.
<mgrwt>
<rscale>  2 0.42299755E+03</rscale>
<asrwt>0</asrwt>
<pdfrwt beam="1">  1        2 0.10201873E+00 0.42299755E+03</pdfrwt>
<pdfrwt beam="2">  1       -2 0.50817389E-01 0.42299755E+03</pdfrwt>
<totfact> 0.16569556E+02</totfact>
</mgrwt>
</event>
<event>
 4    1  0.2318373E-002  0.4066818E+03  0.7818608E-02  0.1041490E+00
          2   -1    0    0  502    0  0.00000000000E+00  0.00000000000E+00  0.31014194646E+04  0.31014194646E+04  0.00000000000E+00 0.  1.
         -2   -1    0    0    0  501 -0.00000000000E+00 -0.00000000000E+00 -0.70928712016E+02  0.70928712016E+02  0.00000000000E+00 0. -1.
    9000005    1    1    2  502    0  0.72451024875E+02 -0.11871408774E+02  0.72508628244E+03  0.83134842174E+03  0.40000000000E+03 0. -1.
   -9000005    1    1    2    0  501 -0.72451024875E+02  0.11871408774E+02  0.23054044701E+04  0.23409997549E+04  0.40000000000E+03 0.  1.
<mgrwt>
<rscale>  2 0.40668179E+03</rscale>
<asrwt>0</asrwt>
<pdfrwt beam="1">  1        2 0.47714135E+00 0.40668179E+03</pdfrwt>
<pdfrwt beam="2">  1       -2 0.10912112E-01 0.40668179E+03</pdfrwt>
<totfact> 0.10058145E+02</totfact>
</mgrwt>
</event>
<event>
 4    1  0.2318373E-002  0.5423710E+03  0.7818608E-02  0.1003275E+00
         -1   -1    0    0    0  501 -0.00000000000E+00  0.00000000000E+00  0.36447398544E+03  0.36447398544E+03  0.00000000000E+00 0.  1.
          1   -1    0    0  502    0  0.00000000000E+00 -0.00000000000E+00 -0.80918070111E+03  0.80918070111E+03  0.00000000000E+00 0. -1.
    9000005    1    1    2  502    0 -0.36536039742E+03 -0.26039767211E+02 -0.25212361099E+03  0.59810751934E+03  0.40000000000E+03 0. -1.
   -9000005    1    1    2    0  501  0.36536039742E+03  0.26039767211E+02 -0.19258310468E+03  0.57554716721E+03  0.40000000000E+03 0. -1.
<mgrwt>
<rscale>  2 0.54237099E+03</rscale>
<asrwt>0</asrwt>
<pdfrwt beam="1">  1        1 0.12448934E+00 0.54237099E+03</pdfrwt>
<pdfrwt beam="2">  1       -1 0.56072921E-01 0.54237099E+03</pdfrwt>
<totfact> 0.72770033E+01</totfact>
</mgrwt>
</event>
<event>
 4    1  0.2318373E-002  0.4087691E+03  0.7818608E-02  0.1040785E+00
         -2   -1    0    0    0  501 -0.00000000000E+00  0.00000000000E+00  0.25026466320E+03  0.25026466320E+03  0.00000000000E+00 0. -1.
          2   -1    0    0  502    0  0.00000000000E+00 -0.00000000000E+00 -0.79290194229E+03  0.79290194229E+03  0.00000000000E+00 0.  1.
    9000005    1    1    2  502    0 -0.81803783551E+02 -0.20008708955E+02 -0.64025296464E+02  0.41375288038E+03  0.40000000000E+03 0. -1.
   -9000005    1    1    2    0  501  0.81803783551E+02  0.20008708955E+02 -0.47861198262E+03  0.62941372510E+03  0.40000000000E+03 0. -1.
<mgrwt>
<rscale>  2 0.40876914E+03</rscale>
<asrwt>0</asrwt>
<pdfrwt beam="1">  1        2 0.12198491E+00 0.40876914E+03</pdfrwt>
<pdfrwt beam="2">  1       -2 0.38502256E-01 0.40876914E+03</pdfrwt>
<totfact> 0.22902101E+02</totfact>
</mgrwt>
</event>
<event>
 4    1  0.2318373E-002  0.4347368E+03  0.7818608E-02  0.1032374E+00
          2   -1    0    0  502    0  0.00000000000E+00  0.00000000000E+00  0.13618859842E+04  0.13618859842E+04  0.00000000000E+00 0.  1.
         -2   -1    0    0    0  501 -0.00000000000E+00 -0.00000000000E+00 -0.23055639345E+03  0.23055639345E+03  0.00000000000E+00 0. -1.
    9000005    1    1    2  502    0  0.16515148959E+03  0.41485413663E+02  0.10680327191E+04  0.11531218250E+04  0.40000000000E+03 0.  1.
   -9000005    1    1    2    0  501 -0.16515148959E+03 -0.41485413663E+02  0.63296871623E+02  0.43932055269E+03  0.40000000000E+03 0. -1.
<mgrwt>
<rscale>  2 0.43473676E+03</rscale>
<asrwt>0</asrwt>
<pdfrwt beam="1">  1        2 0.20952092E+00 0.43473676E+03</pdfrwt>
<pdfrwt beam="2">  1       -2 0.35470215E-01 0.43473676E+03</pdfrwt>
<totfact> 0.11941610E+02</totfact>
</mgrwt>
</event>
<event>
 4    1  0.2318373E-002  0.4440666E+03  0.7818608E-02  0.1029506E+00
         -2   -1    0    0    0  501 -0.00000000000E+00  0.00000000000E+00  0.20300609310E+03  0.20300609310E+03  0.00000000000E+00 0. -1.
          2   -1    0    0  502    0  0.00000000000E+00 -0.00000000000E+00 -0.97525931761E+03  0.97525931761E+03  0.00000000000E+00 0.  1.
    9000005    1    1    2  502    0  0.19074688605E+03  0.28473988306E+02 -0.42330437219E+03  0.61349957951E+03  0.40000000000E+03 0. -1.
   -9000005    1    1    2    0  501 -0.19074688605E+03 -0.28473988306E+02 -0.34894885232E+03  0.56476583120E+03  0.40000000000E+03 0. -1.
<mgrwt>
<rscale>  2 0.44406660E+03</rscale>
<asrwt>0</asrwt>
<pdfrwt beam="1">  1        2 0.15003990E+00 0.44406660E+03</pdfrwt>
<pdfrwt beam="2">  1       -2 0.31231706E-01 0.44406660E+03</pdfrwt>
<totfact> 0.25585336E+02</totfact>
</mgrwt>
</event>
<event>
 4    1  0.2318373E-002  0.5233071E+03  0.7818608E-02  0.1007868E+00
         -2   -1    0    0    0  501 -0.00000000000E+00  0.00000000000E+00  0.40139959420E+03  0.40139959420E+03  0.00000000000E+00 0. -1.
          2   -1    0    0  502    0  0.00000000000E+00 -0.00000000000E+00 -0.72276357202E+03  0.72276357202E+03  0.00000000000E+00 0.  1.
    9000005    1    1    2  502    0  0.17036271028E+03 -0.29125053062E+03 -0.27586840983E+02  0.52403373788E+03  0.40000000000E+03 0.  1.
   -9000005    1    1    2    0  501 -0.17036271028E+03  0.29125053062E+03 -0.29377713683E+03  0.60012942834E+03  0.40000000000E+03 0. -1.
<mgrwt>
<rscale>  2 0.52330710E+03</rscale>
<asrwt>0</asrwt>
<pdfrwt beam="1">  1        2 0.11119439E+00 0.52330710E+03</pdfrwt>
<pdfrwt beam="2">  1       -2 0.61753785E-01 0.52330710E+03</pdfrwt>
<totfact> 0.98637945E+01</totfact>
</mgrwt>
</event>
<event>
 4    1  0.2318373E-002  0.4003494E+03  0.7818608E-02  0.1043659E+00
          2   -1    0    0  502    0  0.00000000000E+00  0.00000000000E+00  0.38930515535E+03  0.38930515535E+03  0.00000000000E+00 0.  1.
         -2   -1    0    0    0  501 -0.00000000000E+00 -0.00000000000E+00 -0.45872838971E+03  0.45872838971E+03  0.00000000000E+00 0. -1.
    9000005    1    1    2  502    0  0.10077373354E+02 -0.13345152526E+02  0.10104252443E+03  0.41290342490E+03  0.40000000000E+03 0.  1.
   -9000005    1    1    2    0  501 -0.10077373354E+02  0.13345152526E+02 -0.17046575880E+03  0.43513012016E+03  0.40000000000E+03 0. -1.
<mgrwt>
<rscale>  2 0.40034941E+03</rscale>
<asrwt>0</asrwt>
<pdfrwt beam="1">  1        2 0.59893100E-01 0.40034941E+03</pdfrwt>
<pdfrwt beam="2">  1       -2 0.70573599E-01 0.40034941E+03</pdfrwt>
<totfact> 0.15396338E+02</totfact>
</mgrwt>
</event>
<event>
 4    1  0.2318373E-002  0.4945567E+03  0.7818608E-02  0.1015210E+00
         -1   -1    0    0    0  501 -0.00000000000E+00  0.00000000000E+00  0.32711688826E+03  0.32711688826E+03  0.00000000000E+00 0. -1.
          1   -1    0    0  502    0  0.00000000000E+00 -0.00000000000E+00 -0.74838828460E+03  0.74838828460E+03  0.00000000000E+00 0.  1.
    9000005    1    1    2  502    0 -0.26070514734E+03  0.12891526923E+03 -0.22690668973E+03  0.54412587361E+03  0.40000000000E+03 0. -1.
   -9000005    1    1    2    0  501  0.26070514734E+03 -0.12891526923E+03 -0.19436470661E+03  0.53137929924E+03  0.40000000000E+03 0. -1.
<mgrwt>
<rscale>  2 0.49455669E+03</rscale>
<asrwt>0</asrwt>
<pdfrwt beam="1">  1        1 0.11513666E+00 0.49455669E+03</pdfrwt>
<pdfrwt beam="2">  1       -1 0.50325675E-01 0.49455669E+03</pdfrwt>
<totfact> 0.10153965E+02</totfact>
</mgrwt>
</event>
<event>
 4    1  0.2318373E-002  0.4681473E+03  0.7818608E-02  0.1022444E+00
          2   -1    0    0  502    0  0.00000000000E+00  0.00000000000E+00  0.13232244629E+04  0.13232244629E+04  0.00000000000E+00 0. -1.
         -2   -1    0    0    0  501 -0.00000000000E+00 -0.00000000000E+00 -0.24468528017E+03  0.24468528017E+03  0.00000000000E+00 0.  1.
    9000005    1    1    2  502    0  0.22551739027E+03  0.91125307880E+02  0.93654005594E+02  0.47742327951E+03  0.40000000000E+03 0.  1.
   -9000005    1    1    2    0  501 -0.22551739027E+03 -0.91125307880E+02  0.98488517711E+03  0.10904864635E+04  0.40000000000E+03 0. -1.
<mgrwt>
<rscale>  2 0.46814732E+03</rscale>
<asrwt>0</asrwt>
<pdfrwt beam="1">  1        2 0.20357299E+00 0.46814732E+03</pdfrwt>
<pdfrwt beam="2">  1       -2 0.37643890E-01 0.46814732E+03</pdfrwt>
<totfact> 0.11158886E+02</totfact>
</mgrwt>
</event>
<event>
 4    1  0.2318373E-002  0.4309045E+03  0.7818608E-02  0.1033575E+00
         -1   -1    0    0    0  501 -0.00000000000E+00  0.00000000000E+00  0.11302449127E+04  0.11302449127E+04  0.00000000000E+00 0. -1.
          1   -1    0    0  502    0  0.00000000000E+00 -0.00000000000E+00 -0.22941002574E+03  0.22941002574E+03  0.00000000000E+00 0.  1.
    9000005    1    1    2  502    0 -0.12371004274E+03 -0.10185554688E+03  0.88193659463E+02  0.43983729796E+03  0.40000000000E+03 0.  1.
   -9000005    1    1    2    0  501  0.12371004274E+03  0.10185554688E+03  0.81264122755E+03  0.91981764052E+03  0.40000000000E+03 0. -1.
<mgrwt>
<rscale>  2 0.43090455E+03</rscale>
<asrwt>0</asrwt>
<pdfrwt beam="1">  1        1 0.35293851E-01 0.43090455E+03</pdfrwt>
<pdfrwt beam="2">  1       -1 0.17388383E+00 0.43090455E+03</pdfrwt>
<totfact> 0.30445523E+01</totfact>
</mgrwt>
</event>
<event>
 4    1  0.2318373E-002  0.1130614E+04  0.7818608E-02  0.9175856E-01
         -1   -1    0    0    0  501 -0.00000000000E+00  0.00000000000E+00  0.17113764422E+04  0.17113764422E+04  0.00000000000E+00 0. -1.
          1   -1    0    0  502    0  0.00000000000E+00 -0.00000000000E+00 -0.82962632387E+03  0.82962632387E+03  0.00000000000E+00 0.  1.
    9000005    1    1    2  502    0  0.10531163294E+04  0.96095073503E+02  0.39766570864E+02  0.11313132398E+04  0.40000000000E+03 0.  1.
   -9000005    1    1    2    0  501 -0.10531163294E+04 -0.96095073503E+02  0.84198354747E+03  0.14096895263E+04  0.40000000000E+03 0. -1.
<mgrwt>
<rscale>  2 0.11306141E+04</rscale>
<asrwt>0</asrwt>
<pdfrwt beam="1">  1        1 0.12763482E+00 0.11306141E+04</pdfrwt>
<pdfrwt beam="2">  1       -1 0.26328868E+00 0.11306141E+04</pdfrwt>
<totfact> 0.11814996E+00</totfact>
</mgrwt>
</event>
<event>
 4    1  0.2318373E-002  0.4769752E+03  0.7818608E-02  0.1019970E+00
          2   -1    0    0  502    0  0.00000000000E+00  0.00000000000E+00  0.90424370610E+03  0.90424370610E+03  0.00000000000E+00 0.  1.
         -2   -1    0    0    0  501 -0.00000000000E+00 -0.00000000000E+00 -0.31357588357E+03  0.31357588357E+03  0.00000000000E+00 0. -1.
    9000005    1    1    2  502    0  0.25680765187E+03  0.39435653961E+02  0.56604260360E+03  0.74020913933E+03  0.40000000000E+03 0.  1.
   -9000005    1    1    2    0  501 -0.25680765187E+03 -0.39435653961E+02  0.24625218924E+02  0.47761045034E+03  0.40000000000E+03 0. -1.
<mgrwt>
<rscale>  2 0.47697520E+03</rscale>
<asrwt>0</asrwt>
<pdfrwt beam="1">  1        2 0.13911442E+00 0.47697520E+03</pdfrwt>
<pdfrwt beam="2">  1       -2 0.48242444E-01 0.47697520E+03</pdfrwt>
<totfact> 0.12270990E+02</totfact>
</mgrwt>
</event>
<event>
 4    1  0.2318373E-002  0.4237068E+03  0.7818608E-02  0.1035867E+00
         -1   -1    0    0    0  501 -0.00000000000E+00  0.00000000000E+00  0.29146296790E+03  0.29146296790E+03  0.00000000000E+00 0.  1.
          1   -1    0    0  502    0  0.00000000000E+00 -0.00000000000E+00 -0.11674336715E+04  0.11674336715E+04  0.00000000000E+00 0. -1.
    9000005    1    1    2  502    0  0.13009947336E+03 -0.51005865588E+02  0.63367619356E+02  0.42841910144E+03  0.40000000000E+03 0.  1.
   -9000005    1    1    2    0  501 -0.13009947336E+03  0.51005865588E+02 -0.93933832298E+03  0.10304775380E+04  0.40000000000E+03 0. -1.
<mgrwt>
<rscale>  2 0.42370682E+03</rscale>
<asrwt>0</asrwt>
<pdfrwt beam="1">  1        1 0.17960518E+00 0.42370682E+03</pdfrwt>
<pdfrwt beam="2">  1       -1 0.44840457E-01 0.42370682E+03</pdfrwt>
<totfact> 0.59495729E+01</totfact>
</mgrwt>
</event>
<event>
 4    1  0.2318373E-002  0.4302737E+03  0.7818608E-02  0.1033774E+00
         -1   -1    0    0    0  501 -0.00000000000E+00  0.00000000000E+00  0.16133813172E+03  0.16133813172E+03  0.00000000000E+00 0. -1.
          1   -1    0    0  502    0  0.00000000000E+00 -0.00000000000E+00 -0.11499264833E+04  0.11499264833E+04  0.00000000000E+00 0.  1.
    9000005    1    1    2  502    0  0.11938020125E+03 -0.10432555545E+03 -0.46417501236E+03  0.63292487395E+03  0.40000000000E+03 0.  1.
   -9000005    1    1    2    0  501 -0.11938020125E+03  0.10432555545E+03 -0.52441333924E+03  0.67833974109E+03  0.40000000000E+03 0. -1.
<mgrwt>
<rscale>  2 0.43027370E+03</rscale>
<asrwt>0</asrwt>
<pdfrwt beam="1">  1        1 0.17691176E+00 0.43027370E+03</pdfrwt>
<pdfrwt beam="2">  1       -1 0.24821252E-01 0.43027370E+03</pdfrwt>
<totfact> 0.17255633E+02</totfact>
</mgrwt>
</event>
<event>
 4    1  0.2318373E-002  0.4064269E+03  0.7818608E-02  0.1041577E+00
          2   -1    0    0  502    0  0.00000000000E+00  0.00000000000E+00  0.52806734635E+03  0.52806734635E+03  0.00000000000E+00 0.  1.
         -2   -1    0    0    0  501 -0.00000000000E+00 -0.00000000000E+00 -0.44641431293E+03  0.44641431293E+03  0.00000000000E+00 0. -1.
    9000005    1    1    2  502    0 -0.40677022170E+02 -0.59398854427E+02 -0.22573086477E+03  0.46490565424E+03  0.40000000000E+03 0. -1.
   -9000005    1    1    2    0  501  0.40677022170E+02  0.59398854427E+02  0.30738389819E+03  0.50957600504E+03  0.40000000000E+03 0.  1.
<mgrwt>
<rscale>  2 0.40642692E+03</rscale>
<asrwt>0</asrwt>
<pdfrwt beam="1">  1        2 0.81241131E-01 0.40642692E+03</pdfrwt>
<pdfrwt beam="2">  1       -2 0.68679125E-01 0.40642692E+03</pdfrwt>
<totfact> 0.11583171E+02</totfact>
</mgrwt>
</event>
<event>
 4    1  0.2318373E-002  0.4102355E+03  0.7818608E-02  0.1040292E+00
         -3   -1    0    0    0  501 -0.00000000000E+00  0.00000000000E+00  0.93248371478E+03  0.93248371478E+03  0.00000000000E+00 0. -1.
          3   -1    0    0  502    0  0.00000000000E+00 -0.00000000000E+00 -0.40867277183E+03  0.40867277183E+03  0.00000000000E+00 0.  1.
    9000005    1    1    2  502    0  0.48852925179E+02 -0.76853870370E+02  0.76299360196E+03  0.86628653592E+03  0.40000000000E+03 0. -1.
   -9000005    1    1    2    0  501 -0.48852925179E+02  0.76853870370E+02 -0.23918265901E+03  0.47486995068E+03  0.40000000000E+03 0.  1.
<mgrwt>
<rscale>  2 0.41023545E+03</rscale>
<asrwt>0</asrwt>
<pdfrwt beam="1">  1        3 0.62872735E-01 0.41023545E+03</pdfrwt>
<pdfrwt beam="2">  1       -3 0.14345903E+00 0.41023545E+03</pdfrwt>
<totfact> 0.23391311E+00</totfact>
</mgrwt>
</event>
<event>
 4    1  0.2318373E-002  0.4266398E+03  0.7818608E-02  0.1034927E+00
          2   -1    0    0  502    0  0.00000000000E+00  0.00000000000E+00  0.16513861028E+04  0.16513861028E+04  0.00000000000E+00 0. -1.
         -2   -1    0    0    0  501 -0.00000000000E+00 -0.00000000000E+00 -0.11255443309E+03  0.11255443309E+03  0.00000000000E+00 0.  1.
    9000005    1    1    2  502    0 -0.14600979325E+03 -0.26508524513E+02  0.89633793086E+03  0.99269494201E+03  0.40000000000E+03 0. -1.
   -9000005    1    1    2    0  501  0.14600979325E+03  0.26508524513E+02  0.64249373881E+03  0.77124559383E+03  0.40000000000E+03 0.  1.
<mgrwt>
<rscale>  2 0.42663985E+03</rscale>
<asrwt>0</asrwt>
<pdfrwt beam="1">  1        2 0.25405938E+00 0.42663985E+03</pdfrwt>
<pdfrwt beam="2">  1       -2 0.17316068E-01 0.42663985E+03</pdfrwt>
<totfact> 0.29952282E+02</totfact>
</mgrwt>
</event>
<event>
 4    1  0.2318373E-002  0.4172518E+03  0.7818608E-02  0.1037964E+00
          2   -1    0    0  502    0  0.00000000000E+00  0.00000000000E+00  0.63296808222E+03  0.63296808222E+03  0.00000000000E+00 0. -1.
         -2   -1    0    0    0  501 -0.00000000000E+00 -0.00000000000E+00 -0.35427066930E+03  0.35427066930E+03  0.00000000000E+00 0.  1.
    9000005    1    1    2  502    0 -0.11811245811E+03 -0.12186426364E+02 -0.94071633215E+02  0.42772483436E+03  0.40000000000E+03 0.  1.
   -9000005    1    1    2    0  501  0.11811245811E+03  0.12186426364E+02  0.37276904613E+03  0.55951391717E+03  0.40000000000E+03 0. -1.
<mgrwt>
<rscale>  2 0.41725180E+03</rscale>
<asrwt>0</asrwt>
<pdfrwt beam="1">  1        2 0.97379705E-01 0.41725180E+03</pdfrwt>
<pdfrwt beam="2">  1       -2 0.54503180E-01 0.41725180E+03</pdfrwt>
<totfact> 0.15205560E+02</totfact>
</mgrwt>
</event>
<event>
 4    1  0.2318373E-002  0.4186457E+03  0.7818608E-02  0.1037508E+00
         -2   -1    0    0    0  501 -0.00000000000E+00  0.00000000000E+00  0.14238320582E+03  0.14238320582E+03  0.00000000000E+00 0.  1.
          2   -1    0    0  502    0  0.00000000000E+00 -0.00000000000E+00 -0.12493745535E+04  0.12493745535E+04  0.00000000000E+00 0. -1.
    9000005    1    1    2  502    0  0.38957689176E+02  0.11724557646E+03 -0.63803966893E+03  0.76312439738E+03  0.40000000000E+03 0. -1.
   -9000005    1    1    2    0  501 -0.38957689176E+02 -0.11724557646E+03 -0.46895167879E+03  0.62863336198E+03  0.40000000000E+03 0. -1.
<mgrwt>
<rscale>  2 0.41864571E+03</rscale>
<asrwt>0</asrwt>
<pdfrwt beam="1">  1        2 0.19221148E+00 0.41864571E+03</pdfrwt>
<pdfrwt beam="2">  1       -2 0.21905108E-01 0.41864571E+03</pdfrwt>
<totfact> 0.33275489E+02</totfact>
</mgrwt>
</event>
<event>
 4    1  0.2318373E-002  0.5540339E+03  0.7818608E-02  0.1000565E+00
         -3   -1    0    0    0  501 -0.00000000000E+00  0.00000000000E+00  0.11033280251E+04  0.11033280251E+04  0.00000000000E+00 0.  1.
          3   -1    0    0  502    0  0.00000000000E+00 -0.00000000000E+00 -0.28003126004E+03  0.28003126004E+03  0.00000000000E+00 0. -1.
    9000005    1    1    2  502    0 -0.67141314018E+02 -0.37741966915E+03  0.35582103934E+03  0.65845438319E+03  0.40000000000E+03 0. -1.
   -9000005    1    1    2    0  501  0.67141314018E+02  0.37741966915E+03  0.46747572572E+03  0.72490490193E+03  0.40000000000E+03 0.  1.
<mgrwt>
<rscale>  2 0.55403390E+03</rscale>
<asrwt>0</asrwt>
<pdfrwt beam="1">  1        3 0.43081733E-01 0.55403390E+03</pdfrwt>
<pdfrwt beam="2">  1       -3 0.16974277E+00 0.55403390E+03</pdfrwt>
<totfact> 0.32756422E+00</totfact>
</mgrwt>
</event>
<event>
 4    1  0.2318373E-002  0.4105177E+03  0.7818608E-02  0.1040197E+00
         -1   -1    0    0    0  501 -0.00000000000E+00  0.00000000000E+00  0.83265948848E+02  0.83265948848E+02  0.00000000000E+00 0.  1.
          1   -1    0    0  502    0  0.00000000000E+00 -0.00000000000E+00 -0.20313733679E+04  0.20313733679E+04  0.00000000000E+00 0. -1.
    9000005    1    1    2  502    0  0.80847171851E+02  0.44592552723E+02 -0.91006728435E+03  0.99837228677E+03  0.40000000000E+03 0. -1.
   -9000005    1    1    2    0  501 -0.80847171851E+02 -0.44592552723E+02 -0.10380401347E+04  0.11162670300E+04  0.40000000000E+03 0. -1.
<mgrwt>
<rscale>  2 0.41051767E+03</rscale>
<asrwt>0</asrwt>
<pdfrwt beam="1">  1        1 0.31251895E+00 0.41051767E+03</pdfrwt>
<pdfrwt beam="2">  1       -1 0.12810147E-01 0.41051767E+03</pdfrwt>
<totfact> 0.12964449E+02</totfact>
</mgrwt>
</event>
<event>
 4    1  0.2318373E-002  0.4860570E+03  0.7818608E-02  0.1017484E+00
          1   -1    0    0  502    0  0.00000000000E+00  0.00000000000E+00  0.15507608517E+04  0.15507608517E+04  0.00000000000E+00 0. -1.
         -1   -1    0    0    0  501 -0.00000000000E+00 -0.00000000000E+00 -0.16912511976E+03  0.16912511976E+03  0.00000000000E+00 0.  1.
    9000005    1    1    2  502    0 -0.16221548193E+03 -0.22346699890E+03  0.41995012571E+03  0.64234684576E+03  0.40000000000E+03 0. -1.
   -9000005    1    1    2    0  501  0.16221548193E+03  0.22346699890E+03  0.96168560625E+03  0.10775391257E+04  0.40000000000E+03 0. -1.
<mgrwt>
<rscale>  2 0.48605695E+03</rscale>
<asrwt>0</asrwt>
<pdfrwt beam="1">  1        1 0.23857858E+00 0.48605695E+03</pdfrwt>
<pdfrwt beam="2">  1       -1 0.26019250E-01 0.48605695E+03</pdfrwt>
<totfact> 0.83439354E+01</totfact>
</mgrwt>
</event>
<event>
 4    1  0.2318373E-002  0.4319585E+03  0.7818608E-02  0.1033243E+00
         -2   -1    0    0    0  501 -0.00000000000E+00  0.00000000000E+00  0.74687415312E+03  0.74687415312E+03  0.00000000000E+00 0.  1.
          2   -1    0    0  502    0  0.00000000000E+00 -0.00000000000E+00 -0.24986859294E+03  0.24986859294E+03  0.00000000000E+00 0. -1.
    9000005    1    1    2  502    0  0.16304711050E+03 -0.19510461628E+01  0.24195365999E+03  0.49510578708E+03  0.40000000000E+03 0. -1.
   -9000005    1    1    2    0  501 -0.16304711050E+03  0.19510461628E+01  0.25505190019E+03  0.50163695898E+03  0.40000000000E+03 0.  1.
<mgrwt>
<rscale>  2 0.43195852E+03</rscale>
<asrwt>0</asrwt>
<pdfrwt beam="1">  1        2 0.38441322E-01 0.43195852E+03</pdfrwt>
<pdfrwt beam="2">  1       -2 0.11490372E+00 0.43195852E+03</pdfrwt>
<totfact> 0.81814637E+01</totfact>
</mgrwt>
</event>
<event>
 4    1  0.2318373E-002  0.5199877E+03  0.7818608E-02  0.1008690E+00
          4   -1    0    0  502    0  0.00000000000E+00  0.00000000000E+00  0.55196222960E+03  0.55196222960E+03  0.00000000000E+00 0.  1.
         -4   -1    0    0    0  501 -0.00000000000E+00 -0.00000000000E+00 -0.57314502340E+03  0.57314502340E+03  0.00000000000E+00 0. -1.
    9000005    1    1    2  502    0 -0.11221694616E+01 -0.33224387417E+03 -0.22502892518E+03  0.56659091800E+03  0.40000000000E+03 0. -1.
   -9000005    1    1    2    0  501  0.11221694616E+01  0.33224387417E+03  0.20384613138E+03  0.55851633500E+03  0.40000000000E+03 0.  1.
<mgrwt>
<rscale>  2 0.51998774E+03</rscale>
<asrwt>0</asrwt>
<pdfrwt beam="1">  1        4 0.84917266E-01 0.51998774E+03</pdfrwt>
<pdfrwt beam="2">  1       -4 0.88176157E-01 0.51998774E+03</pdfrwt>
<totfact> 0.26192619E+00</totfact>
</mgrwt>
</event>
<event>
 4    1  0.2318373E-002  0.5113044E+03  0.7818608E-02  0.1010870E+00
          1   -1    0    0  502    0  0.00000000000E+00  0.00000000000E+00  0.74664646434E+03  0.74664646434E+03  0.00000000000E+00 0.  1.
         -1   -1    0    0    0  501 -0.00000000000E+00 -0.00000000000E+00 -0.36343092839E+03  0.36343092839E+03  0.00000000000E+00 0. -1.
    9000005    1    1    2  502    0 -0.28954573785E+03  0.13264783826E+03  0.85472540346E+02  0.51839920762E+03  0.40000000000E+03 0.  1.
   -9000005    1    1    2    0  501  0.28954573785E+03 -0.13264783826E+03  0.29774299561E+03  0.59167818511E+03  0.40000000000E+03 0. -1.
<mgrwt>
<rscale>  2 0.51130439E+03</rscale>
<asrwt>0</asrwt>
<pdfrwt beam="1">  1        1 0.11486869E+00 0.51130439E+03</pdfrwt>
<pdfrwt beam="2">  1       -1 0.55912451E-01 0.51130439E+03</pdfrwt>
<totfact> 0.83250443E+01</totfact>
</mgrwt>
</event>
<event>
 4    1  0.2318373E-002  0.4210522E+03  0.7818608E-02  0.1036724E+00
          2   -1    0    0  502    0  0.00000000000E+00  0.00000000000E+00  0.19544369686E+04  0.19544369686E+04  0.00000000000E+00 0. -1.
         -2   -1    0    0    0  501 -0.00000000000E+00 -0.00000000000E+00 -0.10273126197E+03  0.10273126197E+03  0.00000000000E+00 0.  1.
    9000005    1    1    2  502    0 -0.13112333685E+03 -0.95704503573E+01  0.57398262785E+03  0.71185741554E+03  0.40000000000E+03 0.  1.
   -9000005    1    1    2    0  501  0.13112333685E+03  0.95704503573E+01  0.12777230788E+04  0.13453108150E+04  0.40000000000E+03 0. -1.
<mgrwt>
<rscale>  2 0.42105216E+03</rscale>
<asrwt>0</asrwt>
<pdfrwt beam="1">  1        2 0.30068258E+00 0.42105216E+03</pdfrwt>
<pdfrwt beam="2">  1       -2 0.15804811E-01 0.42105216E+03</pdfrwt>
<totfact> 0.24081569E+02</totfact>
</mgrwt>
</event>
<event>
 4    1  0.2318373E-002  0.4237028E+03  0.7818608E-02  0.1035868E+00
          3   -1    0    0  502    0  0.00000000000E+00  0.00000000000E+00  0.16537536423E+03  0.16537536423E+03  0.00000000000E+00 0. -1.
         -3   -1    0    0    0  501 -0.00000000000E+00 -0.00000000000E+00 -0.11835922745E+04  0.11835922745E+04  0.00000000000E+00 0.  1.
    9000005    1    1    2  502    0  0.58624273860E+02 -0.12683558209E+03 -0.70322647987E+03  0.82100642650E+03  0.40000000000E+03 0.  1.
   -9000005    1    1    2    0  501 -0.58624273860E+02  0.12683558209E+03 -0.31499043041E+03  0.52796121223E+03  0.40000000000E+03 0. -1.
<mgrwt>
<rscale>  2 0.42370281E+03</rscale>
<asrwt>0</asrwt>
<pdfrwt beam="1">  1        3 0.25442364E-01 0.42370281E+03</pdfrwt>
<pdfrwt beam="2">  1       -3 0.18209112E+00 0.42370281E+03</pdfrwt>
<totfact> 0.74530502E+00</totfact>
</mgrwt>
</event>
<event>
 4    1  0.2318373E-002  0.5013195E+03  0.7818608E-02  0.1013435E+00
          2   -1    0    0  502    0  0.00000000000E+00  0.00000000000E+00  0.21583173055E+04  0.21583173055E+04  0.00000000000E+00 0.  1.
         -2   -1    0    0    0  501 -0.00000000000E+00 -0.00000000000E+00 -0.16394092371E+03  0.16394092371E+03  0.00000000000E+00 0. -1.
    9000005    1    1    2  502    0 -0.88168100062E+02  0.28904607015E+03  0.37219757295E+03  0.62438151626E+03  0.40000000000E+03 0. -1.
   -9000005    1    1    2    0  501  0.88168100062E+02 -0.28904607015E+03  0.16221788088E+04  0.16978767129E+04  0.40000000000E+03 0.  1.
<mgrwt>
<rscale>  2 0.50131950E+03</rscale>
<asrwt>0</asrwt>
<pdfrwt beam="1">  1        2 0.33204880E+00 0.50131950E+03</pdfrwt>
<pdfrwt beam="2">  1       -2 0.25221682E-01 0.50131950E+03</pdfrwt>
<totfact> 0.82025080E+01</totfact>
</mgrwt>
</event>
<event>
 4    1  0.2318373E-002  0.4570690E+03  0.7818608E-02  0.1025635E+00
          1   -1    0    0  502    0  0.00000000000E+00  0.00000000000E+00  0.53435496158E+03  0.53435496158E+03  0.00000000000E+00 0. -1.
         -1   -1    0    0    0  501 -0.00000000000E+00 -0.00000000000E+00 -0.11216055111E+04  0.11216055111E+04  0.00000000000E+00 0.  1.
    9000005    1    1    2  502    0  0.32615528810E+02 -0.21874248786E+03 -0.96189673060E+03  0.10649682479E+04  0.40000000000E+03 0.  1.
   -9000005    1    1    2    0  501 -0.32615528810E+02  0.21874248786E+03  0.37464618109E+03  0.59099222476E+03  0.40000000000E+03 0. -1.
<mgrwt>
<rscale>  2 0.45706898E+03</rscale>
<asrwt>0</asrwt>
<pdfrwt beam="1">  1        1 0.82208457E-01 0.45706898E+03</pdfrwt>
<pdfrwt beam="2">  1       -1 0.17255469E+00 0.45706898E+03</pdfrwt>
<totfact> 0.10289729E+01</totfact>
</mgrwt>
</event>
<event>
 4    1  0.2318373E-002  0.4377421E+03  0.7818608E-02  0.1031442E+00
         -2   -1    0    0    0  501 -0.00000000000E+00  0.00000000000E+00  0.12489784853E+03  0.12489784853E+03  0.00000000000E+00 0.  1.
          2   -1    0    0  502    0  0.00000000000E+00 -0.00000000000E+00 -0.15391687628E+04  0.15391687628E+04  0.00000000000E+00 0. -1.
    9000005    1    1    2  502    0 -0.17629578246E+03  0.23193801831E+02 -0.75441410661E+03  0.87221488156E+03  0.40000000000E+03 0.  1.
   -9000005    1    1    2    0  501  0.17629578246E+03 -0.23193801831E+02 -0.65985680771E+03  0.79185172983E+03  0.40000000000E+03 0. -1.
<mgrwt>
<rscale>  2 0.43774211E+03</rscale>
<asrwt>0</asrwt>
<pdfrwt beam="1">  1        2 0.23679518E+00 0.43774211E+03</pdfrwt>
<pdfrwt beam="2">  1       -2 0.19215055E-01 0.43774211E+03</pdfrwt>
<totfact> 0.28783756E+02</totfact>
</mgrwt>
</event>
<event>
 4    1  0.2318373E-002  0.4043503E+03  0.7818608E-02  0.1042284E+00
          1   -1    0    0  502    0  0.00000000000E+00  0.00000000000E+00  0.52196199931E+03  0.52196199931E+03  0.00000000000E+00 0.  1.
         -1   -1    0    0    0  501 -0.00000000000E+00 -0.00000000000E+00 -0.37915761207E+03  0.37915761207E+03  0.00000000000E+00 0. -1.
    9000005    1    1    2  502    0  0.13086943600E+02 -0.57687679098E+02 -0.11646234294E+03  0.42078808650E+03  0.40000000000E+03 0. -1.
   -9000005    1    1    2    0  501 -0.13086943600E+02  0.57687679098E+02  0.25926673019E+03  0.48033152488E+03  0.40000000000E+03 0.  1.
<mgrwt>
<rscale>  2 0.40435026E+03</rscale>
<asrwt>0</asrwt>
<pdfrwt beam="1">  1        1 0.80301846E-01 0.40435026E+03</pdfrwt>
<pdfrwt beam="2">  1       -1 0.58331940E-01 0.40435026E+03</pdfrwt>
<totfact> 0.12998111E+02</totfact>
</mgrwt>
</event>
<event>
 4    1  0.2318373E-002  0.4056981E+03  0.7818608E-02  0.1041824E+00
         -1   -1    0    0    0  501 -0.00000000000E+00  0.00000000000E+00  0.10181450658E+04  0.10181450658E+04  0.00000000000E+00 0.  1.
          1   -1    0    0  502    0  0.00000000000E+00 -0.00000000000E+00 -0.20748161222E+03  0.20748161222E+03  0.00000000000E+00 0. -1.
    9000005    1    1    2  502    0 -0.41809830304E+02 -0.53318708244E+02  0.69332655285E+03  0.80330109887E+03  0.40000000000E+03 0.  1.
   -9000005    1    1    2    0  501  0.41809830304E+02  0.53318708244E+02  0.11733690076E+03  0.42232557919E+03  0.40000000000E+03 0. -1.
<mgrwt>
<rscale>  2 0.40569810E+03</rscale>
<asrwt>0</asrwt>
<pdfrwt beam="1">  1        1 0.31920248E-01 0.40569810E+03</pdfrwt>
<pdfrwt beam="2">  1       -1 0.15663770E+00 0.40569810E+03</pdfrwt>
<totfact> 0.46486073E+01</totfact>
</mgrwt>
</event>
<event>
 4    1  0.2318373E-002  0.4888185E+03  0.7818608E-02  0.1016739E+00
         -2   -1    0    0    0  501 -0.00000000000E+00  0.00000000000E+00  0.59566664875E+03  0.59566664875E+03  0.00000000000E+00 0. -1.
          2   -1    0    0  502    0  0.00000000000E+00 -0.00000000000E+00 -0.42717734697E+03  0.42717734697E+03  0.00000000000E+00 0.  1.
    9000005    1    1    2  502    0  0.10895944870E+03  0.25898133890E+03  0.21051599400E+03  0.53222220837E+03  0.40000000000E+03 0.  1.
   -9000005    1    1    2    0  501 -0.10895944870E+03 -0.25898133890E+03 -0.42026692212E+02  0.49062178734E+03  0.40000000000E+03 0. -1.
<mgrwt>
<rscale>  2 0.48881847E+03</rscale>
<asrwt>0</asrwt>
<pdfrwt beam="1">  1        2 0.65719592E-01 0.48881847E+03</pdfrwt>
<pdfrwt beam="2">  1       -2 0.91641023E-01 0.48881847E+03</pdfrwt>
<totfact> 0.76960591E+01</totfact>
</mgrwt>
</event>
<event>
 4    1  0.2318373E-002  0.6559332E+03  0.7818608E-02  0.9795709E-01
          2   -1    0    0  502    0  0.00000000000E+00  0.00000000000E+00  0.24801021410E+04  0.24801021410E+04  0.00000000000E+00 0. -1.
         -2   -1    0    0    0  501 -0.00000000000E+00 -0.00000000000E+00 -0.24068059954E+03  0.24068059954E+03  0.00000000000E+00 0.  1.
    9000005    1    1    2  502    0 -0.21324643625E+03  0.47410372294E+03  0.18385463370E+04  0.19520504645E+04  0.40000000000E+03 0. -1.
   -9000005    1    1    2    0  501  0.21324643625E+03 -0.47410372294E+03  0.40087520447E+03  0.76873227605E+03  0.40000000000E+03 0. -1.
<mgrwt>
<rscale>  2 0.65593322E+03</rscale>
<asrwt>0</asrwt>
<pdfrwt beam="1">  1        2 0.38155416E+00 0.65593322E+03</pdfrwt>
<pdfrwt beam="2">  1       -2 0.37027786E-01 0.65593322E+03</pdfrwt>
<totfact> 0.26033472E+01</totfact>
</mgrwt>
</event>
<event>
 4    1  0.2318373E-002  0.5266004E+03  0.7818608E-02  0.1007060E+00
         -2   -1    0    0    0  501 -0.00000000000E+00  0.00000000000E+00  0.41077091756E+03  0.41077091756E+03  0.00000000000E+00 0.  1.
          2   -1    0    0  502    0  0.00000000000E+00 -0.00000000000E+00 -0.11413176120E+04  0.11413176120E+04  0.00000000000E+00 0. -1.
    9000005    1    1    2  502    0  0.30708508244E+03 -0.15167983792E+03  0.13072640078E+03  0.54258401465E+03  0.40000000000E+03 0.  1.
   -9000005    1    1    2    0  501 -0.30708508244E+03  0.15167983792E+03 -0.86127309525E+03  0.10095045149E+04  0.40000000000E+03 0. -1.
<mgrwt>
<rscale>  2 0.52660044E+03</rscale>
<asrwt>0</asrwt>
<pdfrwt beam="1">  1        2 0.17558733E+00 0.52660044E+03</pdfrwt>
<pdfrwt beam="2">  1       -2 0.63195526E-01 0.52660044E+03</pdfrwt>
<totfact> 0.49682297E+01</totfact>
</mgrwt>
</event>
<event>
 4    1  0.2318373E-002  0.4101311E+03  0.7818608E-02  0.1040327E+00
          1   -1    0    0  502    0  0.00000000000E+00  0.00000000000E+00  0.12862329482E+04  0.12862329482E+04  0.00000000000E+00 0.  1.
         -1   -1    0    0    0  501 -0.00000000000E+00 -0.00000000000E+00 -0.13692332842E+03  0.13692332842E+03  0.00000000000E+00 0. -1.
    9000005    1    1    2  502    0 -0.68346863912E+02  0.59466043665E+02  0.72543756805E+03  0.83334696813E+03  0.40000000000E+03 0.  1.
   -9000005    1    1    2    0  501  0.68346863912E+02 -0.59466043665E+02  0.42387205175E+03  0.58980930852E+03  0.40000000000E+03 0. -1.
<mgrwt>
<rscale>  2 0.41013108E+03</rscale>
<asrwt>0</asrwt>
<pdfrwt beam="1">  1        1 0.19788198E+00 0.41013108E+03</pdfrwt>
<pdfrwt beam="2">  1       -1 0.21065128E-01 0.41013108E+03</pdfrwt>
<totfact> 0.18215987E+02</totfact>
</mgrwt>
</event>
<event>
 4    1  0.2318373E-002  0.4049220E+03  0.7818608E-02  0.1042089E+00
          2   -1    0    0  502    0  0.00000000000E+00  0.00000000000E+00  0.43829011953E+03  0.43829011953E+03  0.00000000000E+00 0.  1.
         -2   -1    0    0    0  501 -0.00000000000E+00 -0.00000000000E+00 -0.42053674810E+03  0.42053674810E+03  0.00000000000E+00 0. -1.
    9000005    1    1    2  502    0 -0.11024481464E+01 -0.62933621583E+02 -0.13382561750E+03  0.42646354125E+03  0.40000000000E+03 0. -1.
   -9000005    1    1    2    0  501  0.11024481464E+01  0.62933621583E+02  0.15157898893E+03  0.43236332639E+03  0.40000000000E+03 0.  1.
<mgrwt>
<rscale>  2 0.40492204E+03</rscale>
<asrwt>0</asrwt>
<pdfrwt beam="1">  1        2 0.67429249E-01 0.40492204E+03</pdfrwt>
<pdfrwt beam="2">  1       -2 0.64697962E-01 0.40492204E+03</pdfrwt>
<totfact> 0.16260345E+02</totfact>
</mgrwt>
</event>
<event>
 4    1  0.2318373E-002  0.4499510E+03  0.7818608E-02  0.1027737E+00
         -2   -1    0    0    0  501 -0.00000000000E+00  0.00000000000E+00  0.15389686402E+03  0.15389686402E+03  0.00000000000E+00 0. -1.
          2   -1    0    0  502    0  0.00000000000E+00 -0.00000000000E+00 -0.15325960582E+04  0.15325960582E+04  0.00000000000E+00 0.  1.
    9000005    1    1    2  502    0  0.17572100527E+03  0.10760134301E+03 -0.37200086295E+03  0.58381552116E+03  0.40000000000E+03 0. -1.
   -9000005    1    1    2    0  501 -0.17572100527E+03 -0.10760134301E+03 -0.10066983313E+04  0.11026774011E+04  0.40000000000E+03 0.  1.
<mgrwt>
<rscale>  2 0.44995102E+03</rscale>
<asrwt>0</asrwt>
<pdfrwt beam="1">  1        2 0.23578400E+00 0.44995102E+03</pdfrwt>
<pdfrwt beam="2">  1       -2 0.23676442E-01 0.44995102E+03</pdfrwt>
<totfact> 0.20113714E+02</totfact>
</mgrwt>
</event>
<event>
 4    1  0.2318373E-002  0.5488955E+03  0.7818608E-02  0.1001750E+00
          3   -1    0    0  502    0  0.00000000000E+00  0.00000000000E+00  0.50519630874E+03  0.50519630874E+03  0.00000000000E+00 0.  1.
         -3   -1    0    0    0  501 -0.00000000000E+00 -0.00000000000E+00 -0.66877825074E+03  0.66877825074E+03  0.00000000000E+00 0. -1.
    9000005    1    1    2  502    0 -0.33536115796E+03 -0.16976192351E+03 -0.27492910342E+03  0.61389920089E+03  0.40000000000E+03 0. -1.
   -9000005    1    1    2    0  501  0.33536115796E+03  0.16976192351E+03  0.11134716142E+03  0.56007535859E+03  0.40000000000E+03 0.  1.
<mgrwt>
<rscale>  2 0.54889545E+03</rscale>
<asrwt>0</asrwt>
<pdfrwt beam="1">  1        3 0.77722509E-01 0.54889545E+03</pdfrwt>
<pdfrwt beam="2">  1       -3 0.10288896E+00 0.54889545E+03</pdfrwt>
<totfact> 0.33135434E+00</totfact>
</mgrwt>
</event>
<event>
 4    1  0.2318373E-002  0.4241685E+03  0.7818608E-02  0.1035718E+00
          2   -1    0    0  502    0  0.00000000000E+00  0.00000000000E+00  0.24326564698E+04  0.24326564698E+04  0.00000000000E+00 0.  1.
         -2   -1    0    0    0  501 -0.00000000000E+00 -0.00000000000E+00 -0.77632863775E+02  0.77632863775E+02  0.00000000000E+00 0. -1.
    9000005    1    1    2  502    0 -0.47520213881E+02  0.13289364754E+03  0.90449923977E+03  0.99901840174E+03  0.40000000000E+03 0. -1.
   -9000005    1    1    2    0  501  0.47520213881E+02 -0.13289364754E+03  0.14505243662E+04  0.15112709318E+04  0.40000000000E+03 0. -1.
<mgrwt>
<rscale>  2 0.42416847E+03</rscale>
<asrwt>0</asrwt>
<pdfrwt beam="1">  1        2 0.37425478E+00 0.42416847E+03</pdfrwt>
<pdfrwt beam="2">  1       -2 0.11943519E-01 0.42416847E+03</pdfrwt>
<totfact> 0.21102168E+02</totfact>
</mgrwt>
</event>
<event>
 4    1  0.2318373E-002  0.4196965E+03  0.7818608E-02  0.1037165E+00
          2   -1    0    0  502    0  0.00000000000E+00  0.00000000000E+00  0.14146314364E+04  0.14146314364E+04  0.00000000000E+00 0. -1.
         -2   -1    0    0    0  501 -0.00000000000E+00 -0.00000000000E+00 -0.13589538461E+03  0.13589538461E+03  0.00000000000E+00 0.  1.
    9000005    1    1    2  502    0  0.97449210485E+02  0.81539973940E+02  0.86370177398E+03  0.96027385175E+03  0.40000000000E+03 0.  1.
   -9000005    1    1    2    0  501 -0.97449210485E+02 -0.81539973940E+02  0.41503427782E+03  0.59025296928E+03  0.40000000000E+03 0.  1.
<mgrwt>
<rscale>  2 0.41969646E+03</rscale>
<asrwt>0</asrwt>
<pdfrwt beam="1">  1        2 0.21763560E+00 0.41969646E+03</pdfrwt>
<pdfrwt beam="2">  1       -2 0.20906983E-01 0.41969646E+03</pdfrwt>
<totfact> 0.29155622E+02</totfact>
</mgrwt>
</event>
<event>
 4    1  0.2318373E-002  0.4137132E+03  0.7818608E-02  0.1039132E+00
         -2   -1    0    0    0  501 -0.00000000000E+00  0.00000000000E+00  0.21428480475E+03  0.21428480475E+03  0.00000000000E+00 0.  1.
          2   -1    0    0  502    0  0.00000000000E+00 -0.00000000000E+00 -0.85860746015E+03  0.85860746015E+03  0.00000000000E+00 0. -1.
    9000005    1    1    2  502    0  0.10037560876E+03 -0.32914379135E+02 -0.18051311441E+03  0.45137966687E+03  0.40000000000E+03 0.  1.
   -9000005    1    1    2    0  501 -0.10037560876E+03  0.32914379135E+02 -0.46380954099E+03  0.62151259802E+03  0.40000000000E+03 0. -1.
<mgrwt>
<rscale>  2 0.41371321E+03</rscale>
<asrwt>0</asrwt>
<pdfrwt beam="1">  1        2 0.13209346E+00 0.41371321E+03</pdfrwt>
<pdfrwt beam="2">  1       -2 0.32966893E-01 0.41371321E+03</pdfrwt>
<totfact> 0.27652720E+02</totfact>
</mgrwt>
</event>
<event>
 4    1  0.2318373E-002  0.4386912E+03  0.7818608E-02  0.1031149E+00
         -2   -1    0    0    0  501 -0.00000000000E+00  0.00000000000E+00  0.96660715326E+02  0.96660715326E+02  0.00000000000E+00 0. -1.
          2   -1    0    0  502    0  0.00000000000E+00 -0.00000000000E+00 -0.21147039120E+04  0.21147039120E+04  0.00000000000E+00 0.  1.
    9000005    1    1    2  502    0 -0.78529442459E+02  0.16212060894E+03 -0.74158251213E+03  0.86162322825E+03  0.40000000000E+03 0. -1.
   -9000005    1    1    2    0  501  0.78529442459E+02 -0.16212060894E+03 -0.12764606845E+04  0.13497413991E+04  0.40000000000E+03 0.  1.
<mgrwt>
<rscale>  2 0.43869120E+03</rscale>
<asrwt>0</asrwt>
<pdfrwt beam="1">  1        2 0.32533905E+00 0.43869120E+03</pdfrwt>
<pdfrwt beam="2">  1       -2 0.14870880E-01 0.43869120E+03</pdfrwt>
<totfact> 0.21826037E+02</totfact>
</mgrwt>
</event>
<event>
 4    1  0.2318373E-002  0.6343617E+03  0.7818608E-02  0.9836574E-01
         -2   -1    0    0    0  501 -0.00000000000E+00  0.00000000000E+00  0.51511677584E+03  0.51511677584E+03  0.00000000000E+00 0. -1.
          2   -1    0    0  502    0  0.00000000000E+00 -0.00000000000E+00 -0.86713956660E+03  0.86713956660E+03  0.00000000000E+00 0.  1.
    9000005    1    1    2  502    0  0.23615845380E+02  0.49178962355E+03 -0.39357368049E+03  0.74653531997E+03  0.40000000000E+03 0. -1.
   -9000005    1    1    2    0  501 -0.23615845380E+02 -0.49178962355E+03  0.41550889728E+02  0.63572102248E+03  0.40000000000E+03 0. -1.
<mgrwt>
<rscale>  2 0.63436168E+03</rscale>
<asrwt>0</asrwt>
<pdfrwt beam="1">  1        2 0.13340608E+00 0.63436168E+03</pdfrwt>
<pdfrwt beam="2">  1       -2 0.79248736E-01 0.63436168E+03</pdfrwt>
<totfact> 0.44696635E+01</totfact>
</mgrwt>
</event>
<event>
 4    1  0.2318373E-002  0.4965520E+03  0.7818608E-02  0.1014683E+00
         -1   -1    0    0    0  501 -0.00000000000E+00  0.00000000000E+00  0.18793861702E+04  0.18793861702E+04  0.00000000000E+00 0.  1.
          1   -1    0    0  502    0  0.00000000000E+00 -0.00000000000E+00 -0.13629069730E+03  0.13629069730E+03  0.00000000000E+00 0. -1.
    9000005    1    1    2  502    0  0.87178550152E+01  0.29408818381E+03  0.10664467645E+04  0.11763811297E+04  0.40000000000E+03 0.  1.
   -9000005    1    1    2    0  501 -0.87178550152E+01 -0.29408818381E+03  0.67664870835E+03  0.83929573773E+03  0.40000000000E+03 0. -1.
<mgrwt>
<rscale>  2 0.49655197E+03</rscale>
<asrwt>0</asrwt>
<pdfrwt beam="1">  1        1 0.20967801E-01 0.49655197E+03</pdfrwt>
<pdfrwt beam="2">  1       -1 0.28913632E+00 0.49655197E+03</pdfrwt>
<totfact> 0.10325888E+01</totfact>
</mgrwt>
</event>
<event>
 4    1  0.2318373E-002  0.1145018E+04  0.7818608E-02  0.9162392E-01
          1   -1    0    0  502    0  0.00000000000E+00  0.00000000000E+00  0.13833490460E+04  0.13833490460E+04  0.00000000000E+00 0.  1.
         -1   -1    0    0    0  501 -0.00000000000E+00 -0.00000000000E+00 -0.99753086102E+03  0.99753086102E+03  0.00000000000E+00 0. -1.
    9000005    1    1    2  502    0 -0.13336933325E+03  0.10645554264E+04 -0.73032534186E+02  0.11473444931E+04  0.40000000000E+03 0. -1.
   -9000005    1    1    2    0  501  0.13336933325E+03 -0.10645554264E+04  0.45885071917E+03  0.12335354139E+04  0.40000000000E+03 0.  1.
<mgrwt>
<rscale>  2 0.11450177E+04</rscale>
<asrwt>0</asrwt>
<pdfrwt beam="1">  1        1 0.21282293E+00 0.11450177E+04</pdfrwt>
<pdfrwt beam="2">  1       -1 0.15346629E+00 0.11450177E+04</pdfrwt>
<totfact> 0.25544562E+00</totfact>
</mgrwt>
</event>
<event>
 4    1  0.2318373E-002  0.4507650E+03  0.7818608E-02  0.1027494E+00
          1   -1    0    0  502    0  0.00000000000E+00  0.00000000000E+00  0.43265473908E+03  0.43265473908E+03  0.00000000000E+00 0. -1.
         -1   -1    0    0    0  501 -0.00000000000E+00 -0.00000000000E+00 -0.76695897782E+03  0.76695897782E+03  0.00000000000E+00 0.  1.
    9000005    1    1    2  502    0 -0.42065981886E+01  0.20777715318E+03  0.20630575627E+03  0.49573289776E+03  0.40000000000E+03 0. -1.
   -9000005    1    1    2    0  501  0.42065981886E+01 -0.20777715318E+03 -0.54060999501E+03  0.70388081914E+03  0.40000000000E+03 0.  1.
<mgrwt>
<rscale>  2 0.45076495E+03</rscale>
<asrwt>0</asrwt>
<pdfrwt beam="1">  1        1 0.66562268E-01 0.45076495E+03</pdfrwt>
<pdfrwt beam="2">  1       -1 0.11799369E+00 0.45076495E+03</pdfrwt>
<totfact> 0.36880778E+01</totfact>
</mgrwt>
</event>
<event>
 4    1  0.2318373E-002  0.4113662E+03  0.7818608E-02  0.1039914E+00
          2   -1    0    0  502    0  0.00000000000E+00  0.00000000000E+00  0.11058602232E+04  0.11058602232E+04  0.00000000000E+00 0.  1.
         -2   -1    0    0    0  501 -0.00000000000E+00 -0.00000000000E+00 -0.20526595205E+03  0.20526595205E+03  0.00000000000E+00 0. -1.
    9000005    1    1    2  502    0 -0.96018770225E+02  0.16063585550E+01  0.11957034401E+03  0.42839147026E+03  0.40000000000E+03 0. -1.
   -9000005    1    1    2    0  501  0.96018770225E+02 -0.16063585550E+01  0.78102392711E+03  0.88273470496E+03  0.40000000000E+03 0. -1.
<mgrwt>
<rscale>  2 0.41136624E+03</rscale>
<asrwt>0</asrwt>
<pdfrwt beam="1">  1        2 0.17013234E+00 0.41136624E+03</pdfrwt>
<pdfrwt beam="2">  1       -2 0.31579378E-01 0.41136624E+03</pdfrwt>
<totfact> 0.20901271E+02</totfact>
</mgrwt>
</event>
<event>
 4    1  0.2318373E-002  0.4063387E+03  0.7818608E-02  0.1041607E+00
         -1   -1    0    0    0  501 -0.00000000000E+00  0.00000000000E+00  0.21948586076E+03  0.21948586076E+03  0.00000000000E+00 0.  1.
          1   -1    0    0  502    0  0.00000000000E+00 -0.00000000000E+00 -0.13296024665E+04  0.13296024665E+04  0.00000000000E+00 0. -1.
    9000005    1    1    2  502    0  0.85348138160E+01 -0.70980917315E+02 -0.10654467457E+04  0.11403016713E+04  0.40000000000E+03 0. -1.
   -9000005    1    1    2    0  501 -0.85348138160E+01  0.70980917315E+02 -0.44669860017E+02  0.40878665593E+03  0.40000000000E+03 0.  1.
<mgrwt>
<rscale>  2 0.40633869E+03</rscale>
<asrwt>0</asrwt>
<pdfrwt beam="1">  1        1 0.20455422E+00 0.40633869E+03</pdfrwt>
<pdfrwt beam="2">  1       -1 0.33767056E-01 0.40633869E+03</pdfrwt>
<totfact> 0.76275073E+01</totfact>
</mgrwt>
</event>
<event>
 4    1  0.2318373E-002  0.4080866E+03  0.7818608E-02  0.1041015E+00
         -2   -1    0    0    0  501 -0.00000000000E+00  0.00000000000E+00  0.78937028816E+02  0.78937028816E+02  0.00000000000E+00 0.  1.
          2   -1    0    0  502    0  0.00000000000E+00 -0.00000000000E+00 -0.22699085103E+04  0.22699085103E+04  0.00000000000E+00 0. -1.
    9000005    1    1    2  502    0 -0.66456380923E+02 -0.46023993851E+02 -0.78349455917E+03  0.88340159770E+03  0.40000000000E+03 0.  1.
   -9000005    1    1    2    0  501  0.66456380923E+02  0.46023993851E+02 -0.14074769223E+04  0.14654439414E+04  0.40000000000E+03 0. -1.
<mgrwt>
<rscale>  2 0.40808658E+03</rscale>
<asrwt>0</asrwt>
<pdfrwt beam="1">  1        2 0.34921677E+00 0.40808658E+03</pdfrwt>
<pdfrwt beam="2">  1       -2 0.12144156E-01 0.40808658E+03</pdfrwt>
<totfact> 0.25280176E+02</totfact>
</mgrwt>
</event>
<event>
 4    1  0.2318373E-002  0.5783405E+03  0.7818608E-02  0.9951390E-01
          1   -1    0    0  502    0  0.00000000000E+00  0.00000000000E+00  0.64713344056E+03  0.64713344056E+03  0.00000000000E+00 0.  1.
         -1   -1    0    0    0  501 -0.00000000000E+00 -0.00000000000E+00 -0.60979338693E+03  0.60979338693E+03  0.00000000000E+00 0. -1.
    9000005    1    1    2  502    0  0.41760104158E+03  0.93329325723E+01  0.26401280989E+03  0.63575191493E+03  0.40000000000E+03 0.  1.
   -9000005    1    1    2    0  501 -0.41760104158E+03 -0.93329325723E+01 -0.22667275627E+03  0.62117491256E+03  0.40000000000E+03 0. -1.
<mgrwt>
<rscale>  2 0.57834050E+03</rscale>
<asrwt>0</asrwt>
<pdfrwt beam="1">  1        1 0.99558991E-01 0.57834050E+03</pdfrwt>
<pdfrwt beam="2">  1       -1 0.93814367E-01 0.57834050E+03</pdfrwt>
<totfact> 0.35236811E+01</totfact>
</mgrwt>
</event>
<event>
 4    1  0.2318373E-002  0.5344965E+03  0.7818608E-02  0.1005147E+00
         -1   -1    0    0    0  501 -0.00000000000E+00  0.00000000000E+00  0.52065402165E+03  0.52065402165E+03  0.00000000000E+00 0. -1.
          1   -1    0    0  502    0  0.00000000000E+00 -0.00000000000E+00 -0.61823004887E+03  0.61823004887E+03  0.00000000000E+00 0.  1.
    9000005    1    1    2  502    0 -0.45306133598E+02  0.35161606100E+03  0.14217044903E+03  0.55308131108E+03  0.40000000000E+03 0. -1.
   -9000005    1    1    2    0  501  0.45306133598E+02 -0.35161606100E+03 -0.23974647625E+03  0.58580275944E+03  0.40000000000E+03 0. -1.
<mgrwt>
<rscale>  2 0.53449649E+03</rscale>
<asrwt>0</asrwt>
<pdfrwt beam="1">  1        1 0.95112315E-01 0.53449649E+03</pdfrwt>
<pdfrwt beam="2">  1       -1 0.80100619E-01 0.53449649E+03</pdfrwt>
<totfact> 0.53277003E+01</totfact>
</mgrwt>
</event>
<event>
 4    1  0.2318373E-002  0.4078178E+03  0.7818608E-02  0.1041106E+00
         -2   -1    0    0    0  501 -0.00000000000E+00  0.00000000000E+00  0.10999330974E+04  0.10999330974E+04  0.00000000000E+00 0. -1.
          2   -1    0    0  502    0  0.00000000000E+00 -0.00000000000E+00 -0.15123717463E+03  0.15123717463E+03  0.00000000000E+00 0.  1.
    9000005    1    1    2  502    0  0.47526091524E+02 -0.63691354094E+02  0.48348107122E+03  0.63251028781E+03  0.40000000000E+03 0. -1.
   -9000005    1    1    2    0  501 -0.47526091524E+02  0.63691354094E+02  0.46521485153E+03  0.61865998420E+03  0.40000000000E+03 0. -1.
<mgrwt>
<rscale>  2 0.40781775E+03</rscale>
<asrwt>0</asrwt>
<pdfrwt beam="1">  1        2 0.23267258E-01 0.40781775E+03</pdfrwt>
<pdfrwt beam="2">  1       -2 0.16922047E+00 0.40781775E+03</pdfrwt>
<totfact> 0.53281198E+01</totfact>
</mgrwt>
</event>
<event>
 4    1  0.2318373E-002  0.4381052E+03  0.7818608E-02  0.1031330E+00
          1   -1    0    0  502    0  0.00000000000E+00  0.00000000000E+00  0.59234743349E+03  0.59234743349E+03  0.00000000000E+00 0. -1.
         -1   -1    0    0    0  501 -0.00000000000E+00 -0.00000000000E+00 -0.39454150690E+03  0.39454150690E+03  0.00000000000E+00 0.  1.
    9000005    1    1    2  502    0 -0.50796398364E+02  0.17133573982E+03  0.30751194519E+03  0.53525676666E+03  0.40000000000E+03 0. -1.
   -9000005    1    1    2    0  501  0.50796398364E+02 -0.17133573982E+03 -0.10970601860E+03  0.45163217373E+03  0.40000000000E+03 0.  1.
<mgrwt>
<rscale>  2 0.43810525E+03</rscale>
<asrwt>0</asrwt>
<pdfrwt beam="1">  1        1 0.91130374E-01 0.43810525E+03</pdfrwt>
<pdfrwt beam="2">  1       -1 0.60698693E-01 0.43810525E+03</pdfrwt>
<totfact> 0.10056129E+02</totfact>
</mgrwt>
</event>
<event>
 4    1  0.2318373E-002  0.4200978E+03  0.7818608E-02  0.1037034E+00
          2   -1    0    0  502    0  0.00000000000E+00  0.00000000000E+00  0.91618355544E+03  0.91618355544E+03  0.00000000000E+00 0.  1.
         -2   -1    0    0    0  501 -0.00000000000E+00 -0.00000000000E+00 -0.36153190688E+03  0.36153190688E+03  0.00000000000E+00 0. -1.
    9000005    1    1    2  502    0 -0.11843816842E+03 -0.49543611855E+02 -0.15934210763E+03  0.44930176550E+03  0.40000000000E+03 0. -1.
   -9000005    1    1    2    0  501  0.11843816842E+03  0.49543611855E+02  0.71399375619E+03  0.82841369683E+03  0.40000000000E+03 0.  1.
<mgrwt>
<rscale>  2 0.42009781E+03</rscale>
<asrwt>0</asrwt>
<pdfrwt beam="1">  1        2 0.14095132E+00 0.42009781E+03</pdfrwt>
<pdfrwt beam="2">  1       -2 0.55620294E-01 0.42009781E+03</pdfrwt>
<totfact> 0.90811741E+01</totfact>
</mgrwt>
</event>
<event>
 4    1  0.2318373E-002  0.4570428E+03  0.7818608E-02  0.1025642E+00
         -2   -1    0    0    0  501 -0.00000000000E+00  0.00000000000E+00  0.30419869172E+03  0.30419869172E+03  0.00000000000E+00 0.  1.
          2   -1    0    0  502    0  0.00000000000E+00 -0.00000000000E+00 -0.77470061016E+03  0.77470061016E+03  0.00000000000E+00 0. -1.
    9000005    1    1    2  502    0 -0.10383052106E+03 -0.19521102596E+03 -0.53419788183E+02  0.46015409976E+03  0.40000000000E+03 0.  1.
   -9000005    1    1    2    0  501  0.10383052106E+03  0.19521102596E+03 -0.41708213026E+03  0.61874520211E+03  0.40000000000E+03 0.  1.
<mgrwt>
<rscale>  2 0.45704280E+03</rscale>
<asrwt>0</asrwt>
<pdfrwt beam="1">  1        2 0.11918471E+00 0.45704280E+03</pdfrwt>
<pdfrwt beam="2">  1       -2 0.46799799E-01 0.45704280E+03</pdfrwt>
<totfact> 0.16045968E+02</totfact>
</mgrwt>
</event>
<event>
 4    1  0.2318373E-002  0.4011432E+03  0.7818608E-02  0.1043385E+00
          2   -1    0    0  502    0  0.00000000000E+00  0.00000000000E+00  0.14534207713E+03  0.14534207713E+03  0.00000000000E+00 0. -1.
         -2   -1    0    0    0  501 -0.00000000000E+00 -0.00000000000E+00 -0.11977555933E+04  0.11977555933E+04  0.00000000000E+00 0.  1.
    9000005    1    1    2  502    0 -0.26821149268E+02 -0.14016847285E+02 -0.34150757440E+03  0.52682375557E+03  0.40000000000E+03 0. -1.
   -9000005    1    1    2    0  501  0.26821149268E+02  0.14016847285E+02 -0.71090594178E+03  0.81627391488E+03  0.40000000000E+03 0.  1.
<mgrwt>
<rscale>  2 0.40114317E+03</rscale>
<asrwt>0</asrwt>
<pdfrwt beam="1">  1        2 0.22360320E-01 0.40114317E+03</pdfrwt>
<pdfrwt beam="2">  1       -2 0.18427009E+00 0.40114317E+03</pdfrwt>
<totfact> 0.44026000E+01</totfact>
</mgrwt>
</event>
<event>
 4    1  0.2318373E-002  0.5744897E+03  0.7818608E-02  0.9959792E-01
          1   -1    0    0  502    0  0.00000000000E+00  0.00000000000E+00  0.22958584154E+03  0.22958584154E+03  0.00000000000E+00 0. -1.
         -1   -1    0    0    0  501 -0.00000000000E+00 -0.00000000000E+00 -0.14424862701E+04  0.14424862701E+04  0.00000000000E+00 0.  1.
    9000005    1    1    2  502    0  0.29655622255E+03 -0.28651845765E+03 -0.65541531411E+03  0.87155473361E+03  0.40000000000E+03 0.  1.
   -9000005    1    1    2    0  501 -0.29655622255E+03  0.28651845765E+03 -0.55748511447E+03  0.80051737805E+03  0.40000000000E+03 0. -1.
<mgrwt>
<rscale>  2 0.57448970E+03</rscale>
<asrwt>0</asrwt>
<pdfrwt beam="1">  1        1 0.35320898E-01 0.57448970E+03</pdfrwt>
<pdfrwt beam="2">  1       -1 0.22192097E+00 0.57448970E+03</pdfrwt>
<totfact> 0.13983640E+01</totfact>
</mgrwt>
</event>
<event>
 4    1  0.2318373E-002  0.4021977E+03  0.7818608E-02  0.1043021E+00
          2   -1    0    0  502    0  0.00000000000E+00  0.00000000000E+00  0.15052225222E+04  0.15052225222E+04  0.00000000000E+00 0. -1.
         -2   -1    0    0    0  501 -0.00000000000E+00 -0.00000000000E+00 -0.10757583549E+03  0.10757583549E+03  0.00000000000E+00 0.  1.
    9000005    1    1    2  502    0 -0.37789162457E+02  0.18302085276E+02  0.72437566237E+03  0.82854274926E+03  0.40000000000E+03 0. -1.
   -9000005    1    1    2    0  501  0.37789162457E+02 -0.18302085276E+02  0.67327102434E+03  0.78425560842E+03  0.40000000000E+03 0. -1.
<mgrwt>
<rscale>  2 0.40219770E+03</rscale>
<asrwt>0</asrwt>
<pdfrwt beam="1">  1        2 0.23157268E+00 0.40219770E+03</pdfrwt>
<pdfrwt beam="2">  1       -2 0.16550130E-01 0.40219770E+03</pdfrwt>
<totfact> 0.38906905E+02</totfact>
</mgrwt>
</event>
<event>
 4    1  0.2318373E-002  0.4360695E+03  0.7818608E-02  0.1031960E+00
          1   -1    0    0  502    0  0.00000000000E+00  0.00000000000E+00  0.20928721795E+04  0.20928721795E+04  0.00000000000E+00 0. -1.
         -1   -1    0    0    0  501 -0.00000000000E+00 -0.00000000000E+00 -0.10084720145E+03  0.10084720145E+03  0.00000000000E+00 0.  1.
    9000005    1    1    2  502    0 -0.12294986804E+03 -0.12263736990E+03  0.13412034866E+04  0.14103132230E+04  0.40000000000E+03 0. -1.
   -9000005    1    1    2    0  501  0.12294986804E+03  0.12263736990E+03  0.65082149142E+03  0.78340615790E+03  0.40000000000E+03 0.  1.
<mgrwt>
<rscale>  2 0.43606948E+03</rscale>
<asrwt>0</asrwt>
<pdfrwt beam="1">  1        1 0.32198030E+00 0.43606948E+03</pdfrwt>
<pdfrwt beam="2">  1       -1 0.15514956E-01 0.43606948E+03</pdfrwt>
<totfact> 0.86503957E+01</totfact>
</mgrwt>
</event>
<event>
 4    1  0.2318373E-002  0.4919207E+03  0.7818608E-02  0.1015909E+00
          3   -1    0    0  502    0  0.00000000000E+00  0.00000000000E+00  0.77277152377E+03  0.77277152377E+03  0.00000000000E+00 0.  1.
         -3   -1    0    0    0  501 -0.00000000000E+00 -0.00000000000E+00 -0.40281237297E+03  0.40281237297E+03  0.00000000000E+00 0. -1.
    9000005    1    1    2  502    0 -0.19521701621E+03  0.20946674086E+03  0.46231193563E+03  0.67506912592E+03  0.40000000000E+03 0.  1.
   -9000005    1    1    2    0  501  0.19521701621E+03 -0.20946674086E+03 -0.92352784839E+02  0.50051477082E+03  0.40000000000E+03 0. -1.
<mgrwt>
<rscale>  2 0.49192072E+03</rscale>
<asrwt>0</asrwt>
<pdfrwt beam="1">  1        3 0.11888793E+00 0.49192072E+03</pdfrwt>
<pdfrwt beam="2">  1       -3 0.61971134E-01 0.49192072E+03</pdfrwt>
<totfact> 0.38449049E+00</totfact>
</mgrwt>
</event>
<event>
 4    1  0.2318373E-002  0.4097726E+03  0.7818608E-02  0.1040447E+00
          2   -1    0    0  502    0  0.00000000000E+00  0.00000000000E+00  0.27653767363E+04  0.27653767363E+04  0.00000000000E+00 0.  1.
         -2   -1    0    0    0  501 -0.00000000000E+00 -0.00000000000E+00 -0.65145198680E+02  0.65145198680E+02  0.00000000000E+00 0. -1.
    9000005    1    1    2  502    0  0.48525364504E+02 -0.74557693343E+02  0.17189776244E+04  0.17671439199E+04  0.40000000000E+03 0. -1.
   -9000005    1    1    2    0  501 -0.48525364504E+02  0.74557693343E+02  0.98125391325E+03  0.10633780151E+04  0.40000000000E+03 0. -1.
<mgrwt>
<rscale>  2 0.40977257E+03</rscale>
<asrwt>0</asrwt>
<pdfrwt beam="1">  1        2 0.42544248E+00 0.40977257E+03</pdfrwt>
<pdfrwt beam="2">  1       -2 0.10022340E-01 0.40977257E+03</pdfrwt>
<totfact> 0.18259048E+02</totfact>
</mgrwt>
</event>
<event>
 4    1  0.2318373E-002  0.5371930E+03  0.7818608E-02  0.1004502E+00
          2   -1    0    0  502    0  0.00000000000E+00  0.00000000000E+00  0.95710270254E+03  0.95710270254E+03  0.00000000000E+00 0. -1.
         -2   -1    0    0    0  501 -0.00000000000E+00 -0.00000000000E+00 -0.34065063650E+03  0.34065063650E+03  0.00000000000E+00 0.  1.
    9000005    1    1    2  502    0  0.10793764166E+03 -0.34194412089E+03  0.88278106009E+02  0.54439814502E+03  0.40000000000E+03 0.  1.
   -9000005    1    1    2    0  501 -0.10793764166E+03  0.34194412089E+03  0.52817396004E+03  0.75335519402E+03  0.40000000000E+03 0. -1.
<mgrwt>
<rscale>  2 0.53719300E+03</rscale>
<asrwt>0</asrwt>
<pdfrwt beam="1">  1        2 0.14724657E+00 0.53719300E+03</pdfrwt>
<pdfrwt beam="2">  1       -2 0.52407791E-01 0.53719300E+03</pdfrwt>
<totfact> 0.95253013E+01</totfact>
</mgrwt>
</event>
<event>
 4    1  0.2318373E-002  0.6868121E+03  0.7818608E-02  0.9740055E-01
          2   -1    0    0  502    0  0.00000000000E+00  0.00000000000E+00  0.13466934692E+04  0.13466934692E+04  0.00000000000E+00 0. -1.
         -2   -1    0    0    0  501 -0.00000000000E+00 -0.00000000000E+00 -0.51690019242E+03  0.51690019242E+03  0.00000000000E+00 0.  1.
    9000005    1    1    2  502    0  0.51840482504E+02 -0.55589873501E+03  0.94393889016E+03  0.11673608986E+04  0.40000000000E+03 0. -1.
   -9000005    1    1    2    0  501 -0.51840482504E+02  0.55589873501E+03 -0.11414561341E+03  0.69623276300E+03  0.40000000000E+03 0.  1.
<mgrwt>
<rscale>  2 0.68681208E+03</rscale>
<asrwt>0</asrwt>
<pdfrwt beam="1">  1        2 0.20718361E+00 0.68681208E+03</pdfrwt>
<pdfrwt beam="2">  1       -2 0.79523107E-01 0.68681208E+03</pdfrwt>
<totfact> 0.22389522E+01</totfact>
</mgrwt>
</event>
<event>
 4    1  0.2318373E-002  0.6371175E+03  0.7818608E-02  0.9831257E-01
         -2   -1    0    0    0  501 -0.00000000000E+00  0.00000000000E+00  0.34730242821E+03  0.34730242821E+03  0.00000000000E+00 0.  1.
          2   -1    0    0  502    0  0.00000000000E+00 -0.00000000000E+00 -0.13030903037E+04  0.13030903037E+04  0.00000000000E+00 0. -1.
    9000005    1    1    2  502    0 -0.45722460500E+03  0.19200108092E+03 -0.74282393097E+03  0.97862462002E+03  0.40000000000E+03 0. -1.
   -9000005    1    1    2    0  501  0.45722460500E+03 -0.19200108092E+03 -0.21296394453E+03  0.67176811189E+03  0.40000000000E+03 0.  1.
<mgrwt>
<rscale>  2 0.63711754E+03</rscale>
<asrwt>0</asrwt>
<pdfrwt beam="1">  1        2 0.20047543E+00 0.63711754E+03</pdfrwt>
<pdfrwt beam="2">  1       -2 0.53431143E-01 0.63711754E+03</pdfrwt>
<totfact> 0.56020563E+01</totfact>
</mgrwt>
</event>
<event>
 4    1  0.2318373E-002  0.5216222E+03  0.7818608E-02  0.1008284E+00
          1   -1    0    0  502    0  0.00000000000E+00  0.00000000000E+00  0.54226859787E+03  0.54226859787E+03  0.00000000000E+00 0.  1.
         -1   -1    0    0    0  501 -0.00000000000E+00 -0.00000000000E+00 -0.83046842937E+03  0.83046842937E+03  0.00000000000E+00 0. -1.
    9000005    1    1    2  502    0  0.24969542922E+03  0.22302900175E+03 -0.57591710757E+03  0.77702654896E+03  0.40000000000E+03 0. -1.
   -9000005    1    1    2    0  501 -0.24969542922E+03 -0.22302900175E+03  0.28771727606E+03  0.59571047828E+03  0.40000000000E+03 0.  1.
<mgrwt>
<rscale>  2 0.52162222E+03</rscale>
<asrwt>0</asrwt>
<pdfrwt beam="1">  1        1 0.83425939E-01 0.52162222E+03</pdfrwt>
<pdfrwt beam="2">  1       -1 0.12776437E+00 0.52162222E+03</pdfrwt>
<totfact> 0.22142309E+01</totfact>
</mgrwt>
</event>
<event>
 4    1  0.2318373E-002  0.4458600E+03  0.7818608E-02  0.1028964E+00
         -2   -1    0    0    0  501 -0.00000000000E+00  0.00000000000E+00  0.93255750243E+02  0.93255750243E+02  0.00000000000E+00 0.  1.
          2   -1    0    0  502    0  0.00000000000E+00 -0.00000000000E+00 -0.23088453407E+04  0.23088453407E+04  0.00000000000E+00 0. -1.
    9000005    1    1    2  502    0  0.18793477736E+03  0.58920837718E+02 -0.77509171581E+03  0.89418024670E+03  0.40000000000E+03 0.  1.
   -9000005    1    1    2    0  501 -0.18793477736E+03 -0.58920837718E+02 -0.14404978746E+04  0.15079208442E+04  0.40000000000E+03 0. -1.
<mgrwt>
<rscale>  2 0.44586001E+03</rscale>
<asrwt>0</asrwt>
<pdfrwt beam="1">  1        2 0.35520690E+00 0.44586001E+03</pdfrwt>
<pdfrwt beam="2">  1       -2 0.14347042E-01 0.44586001E+03</pdfrwt>
<totfact> 0.18164408E+02</totfact>
</mgrwt>
</event>
<event>
 4    1  0.2318373E-002  0.6220305E+03  0.7818608E-02  0.9860725E-01
         -1   -1    0    0    0  501 -0.00000000000E+00  0.00000000000E+00  0.31453112985E+03  0.31453112985E+03  0.00000000000E+00 0. -1.
          1   -1    0    0  502    0  0.00000000000E+00 -0.00000000000E+00 -0.12307331540E+04  0.12307331540E+04  0.00000000000E+00 0.  1.
    9000005    1    1    2  502    0 -0.14673645497E+03  0.45320015003E+03 -0.47485069993E+03  0.78256319261E+03  0.40000000000E+03 0.  1.
   -9000005    1    1    2    0  501  0.14673645497E+03 -0.45320015003E+03 -0.44135132421E+03  0.76270109124E+03  0.40000000000E+03 0. -1.
<mgrwt>
<rscale>  2 0.62203052E+03</rscale>
<asrwt>0</asrwt>
<pdfrwt beam="1">  1        1 0.18934356E+00 0.62203052E+03</pdfrwt>
<pdfrwt beam="2">  1       -1 0.48389405E-01 0.62203052E+03</pdfrwt>
<totfact> 0.45171184E+01</totfact>
</mgrwt>
</event>
<event>
 4    1  0.2318373E-002  0.6915289E+03  0.7818608E-02  0.9731830E-01
          2   -1    0    0  502    0  0.00000000000E+00  0.00000000000E+00  0.94851554154E+03  0.94851554154E+03  0.00000000000E+00 0.  1.
         -2   -1    0    0    0  501 -0.00000000000E+00 -0.00000000000E+00 -0.51496270261E+03  0.51496270261E+03  0.00000000000E+00 0. -1.
    9000005    1    1    2  502    0  0.49906130796E+03  0.26296397004E+03  0.32271431726E+03  0.76312303674E+03  0.40000000000E+03 0.  1.
   -9000005    1    1    2    0  501 -0.49906130796E+03 -0.26296397004E+03  0.11083852167E+03  0.70035520740E+03  0.40000000000E+03 0. -1.
<mgrwt>
<rscale>  2 0.69152891E+03</rscale>
<asrwt>0</asrwt>
<pdfrwt beam="1">  1        2 0.14592547E+00 0.69152891E+03</pdfrwt>
<pdfrwt beam="2">  1       -2 0.79225031E-01 0.69152891E+03</pdfrwt>
<totfact> 0.39248258E+01</totfact>
</mgrwt>
</event>
<event>
 4    1  0.2318373E-002  0.4178148E+03  0.7818608E-02  0.1037780E+00
         -2   -1    0    0    0  501 -0.00000000000E+00  0.00000000000E+00  0.22411853739E+04  0.22411853739E+04  0.00000000000E+00 0. -1.
          2   -1    0    0  502    0  0.00000000000E+00 -0.00000000000E+00 -0.18920678852E+03  0.18920678852E+03  0.00000000000E+00 0.  1.
    9000005    1    1    2  502    0  0.11566369866E+03  0.34512846174E+02  0.19580741790E+04  0.20021547688E+04  0.40000000000E+03 0. -1.
   -9000005    1    1    2    0  501 -0.11566369866E+03 -0.34512846174E+02  0.93904406343E+02  0.42823739359E+03  0.40000000000E+03 0.  1.
<mgrwt>
<rscale>  2 0.41781482E+03</rscale>
<asrwt>0</asrwt>
<pdfrwt beam="1">  1        2 0.29108738E-01 0.41781482E+03</pdfrwt>
<pdfrwt beam="2">  1       -2 0.34479773E+00 0.41781482E+03</pdfrwt>
<totfact> 0.34512137E+00</totfact>
</mgrwt>
</event>
<event>
 4    1  0.2318373E-002  0.4675657E+03  0.7818608E-02  0.1022610E+00
          2   -1    0    0  502    0  0.00000000000E+00  0.00000000000E+00  0.19092690608E+04  0.19092690608E+04  0.00000000000E+00 0.  1.
         -2   -1    0    0    0  501 -0.00000000000E+00 -0.00000000000E+00 -0.11452795300E+03  0.11452795300E+03  0.00000000000E+00 0. -1.
    9000005    1    1    2  502    0 -0.82241852519E+02  0.22771458647E+03  0.91220934419E+03  0.10250578241E+04  0.40000000000E+03 0. -1.
   -9000005    1    1    2    0  501  0.82241852519E+02 -0.22771458647E+03  0.88253176356E+03  0.99873918962E+03  0.40000000000E+03 0. -1.
<mgrwt>
<rscale>  2 0.46756567E+03</rscale>
<asrwt>0</asrwt>
<pdfrwt beam="1">  1        2 0.29373368E+00 0.46756567E+03</pdfrwt>
<pdfrwt beam="2">  1       -2 0.17619686E-01 0.46756567E+03</pdfrwt>
<totfact> 0.21035126E+02</totfact>
</mgrwt>
</event>
<event>
 4    1  0.2318373E-002  0.4380837E+03  0.7818608E-02  0.1031336E+00
          2   -1    0    0  502    0  0.00000000000E+00  0.00000000000E+00  0.59025548671E+03  0.59025548671E+03  0.00000000000E+00 0. -1.
         -2   -1    0    0    0  501 -0.00000000000E+00 -0.00000000000E+00 -0.35571900007E+03  0.35571900007E+03  0.00000000000E+00 0.  1.
    9000005    1    1    2  502    0  0.14592622534E+03 -0.10306746799E+03 -0.21403225703E+02  0.43860627477E+03  0.40000000000E+03 0.  1.
   -9000005    1    1    2    0  501 -0.14592622534E+03  0.10306746799E+03  0.25593971235E+03  0.50736821201E+03  0.40000000000E+03 0. -1.
<mgrwt>
<rscale>  2 0.43808374E+03</rscale>
<asrwt>0</asrwt>
<pdfrwt beam="1">  1        2 0.90808536E-01 0.43808374E+03</pdfrwt>
<pdfrwt beam="2">  1       -2 0.54726000E-01 0.43808374E+03</pdfrwt>
<totfact> 0.16360015E+02</totfact>
</mgrwt>
</event>
<event>
 4    1  0.2318373E-002  0.4412065E+03  0.7818608E-02  0.1030377E+00
         -1   -1    0    0    0  501 -0.00000000000E+00  0.00000000000E+00  0.23189700424E+03  0.23189700424E+03  0.00000000000E+00 0. -1.
          1   -1    0    0  502    0  0.00000000000E+00 -0.00000000000E+00 -0.84594077753E+03  0.84594077753E+03  0.00000000000E+00 0.  1.
    9000005    1    1    2  502    0 -0.10038217945E+03  0.15680108201E+03 -0.35427194229E+03  0.56583722957E+03  0.40000000000E+03 0.  1.
   -9000005    1    1    2    0  501  0.10038217945E+03 -0.15680108201E+03 -0.25977183100E+03  0.51200055220E+03  0.40000000000E+03 0.  1.
<mgrwt>
<rscale>  2 0.44120648E+03</rscale>
<asrwt>0</asrwt>
<pdfrwt beam="1">  1        1 0.13014473E+00 0.44120648E+03</pdfrwt>
<pdfrwt beam="2">  1       -1 0.35676462E-01 0.44120648E+03</pdfrwt>
<totfact> 0.15770177E+02</totfact>
</mgrwt>
</event>
<event>
 4    1  0.2318373E-002  0.4174754E+03  0.7818608E-02  0.1037891E+00
          2   -1    0    0  502    0  0.00000000000E+00  0.00000000000E+00  0.11162273869E+04  0.11162273869E+04  0.00000000000E+00 0. -1.
         -2   -1    0    0    0  501 -0.00000000000E+00 -0.00000000000E+00 -0.20537010702E+03  0.20537010702E+03  0.00000000000E+00 0.  1.
    9000005    1    1    2  502    0 -0.25176035106E+02  0.11684112780E+03  0.13189150508E+03  0.43781394564E+03  0.40000000000E+03 0.  1.
   -9000005    1    1    2    0  501  0.25176035106E+02 -0.11684112780E+03  0.77896577484E+03  0.88378354831E+03  0.40000000000E+03 0. -1.
<mgrwt>
<rscale>  2 0.41747537E+03</rscale>
<asrwt>0</asrwt>
<pdfrwt beam="1">  1        2 0.17172729E+00 0.41747537E+03</pdfrwt>
<pdfrwt beam="2">  1       -2 0.31595402E-01 0.41747537E+03</pdfrwt>
<totfact> 0.20572519E+02</totfact>
</mgrwt>
</event>
<event>
 4    1  0.2318373E-002  0.5721129E+03  0.7818608E-02  0.9965014E-01
         -1   -1    0    0    0  501 -0.00000000000E+00  0.00000000000E+00  0.47166529021E+03  0.47166529021E+03  0.00000000000E+00 0.  1.
          1   -1    0    0  502    0  0.00000000000E+00 -0.00000000000E+00 -0.77633268659E+03  0.77633268659E+03  0.00000000000E+00 0. -1.
    9000005    1    1    2  502    0 -0.29662307728E+03  0.28165221856E+03 -0.35560300722E+03  0.67362209060E+03  0.40000000000E+03 0. -1.
   -9000005    1    1    2    0  501  0.29662307728E+03 -0.28165221856E+03  0.50935610842E+02  0.57437588620E+03  0.40000000000E+03 0. -1.
<mgrwt>
<rscale>  2 0.57211295E+03</rscale>
<asrwt>0</asrwt>
<pdfrwt beam="1">  1        1 0.11943580E+00 0.57211295E+03</pdfrwt>
<pdfrwt beam="2">  1       -1 0.72563892E-01 0.57211295E+03</pdfrwt>
<totfact> 0.46344671E+01</totfact>
</mgrwt>
</event>
<event>
 4    1  0.2318373E-002  0.4796907E+03  0.7818608E-02  0.1019220E+00
          2   -1    0    0  502    0  0.00000000000E+00  0.00000000000E+00  0.56267366217E+03  0.56267366217E+03  0.00000000000E+00 0. -1.
         -2   -1    0    0    0  501 -0.00000000000E+00 -0.00000000000E+00 -0.40973335990E+03  0.40973335990E+03  0.00000000000E+00 0.  1.
    9000005    1    1    2  502    0  0.26453347323E+03 -0.11187569657E+02  0.55156125572E+02  0.48285123834E+03  0.40000000000E+03 0.  1.
   -9000005    1    1    2    0  501 -0.26453347323E+03  0.11187569657E+02  0.97784176694E+02  0.48955578373E+03  0.40000000000E+03 0. -1.
<mgrwt>
<rscale>  2 0.47969065E+03</rscale>
<asrwt>0</asrwt>
<pdfrwt beam="1">  1        2 0.86565178E-01 0.47969065E+03</pdfrwt>
<pdfrwt beam="2">  1       -2 0.63035902E-01 0.47969065E+03</pdfrwt>
<totfact> 0.12844067E+02</totfact>
</mgrwt>
</event>
<event>
 4    1  0.2318373E-002  0.7236630E+03  0.7818608E-02  0.9677600E-01
         -1   -1    0    0    0  501 -0.00000000000E+00  0.00000000000E+00  0.13217897302E+04  0.13217897302E+04  0.00000000000E+00 0.  1.
          1   -1    0    0  502    0  0.00000000000E+00 -0.00000000000E+00 -0.39873867535E+03  0.39873867535E+03  0.00000000000E+00 0. -1.
    9000005    1    1    2  502    0 -0.23491005963E+03 -0.55543263353E+03  0.53021829158E+03  0.89711737428E+03  0.40000000000E+03 0.  1.
   -9000005    1    1    2    0  501  0.23491005963E+03  0.55543263353E+03  0.39283276327E+03  0.82341103126E+03  0.40000000000E+03 0. -1.
<mgrwt>
<rscale>  2 0.72366301E+03</rscale>
<asrwt>0</asrwt>
<pdfrwt beam="1">  1        1 0.61344412E-01 0.72366301E+03</pdfrwt>
<pdfrwt beam="2">  1       -1 0.20335226E+00 0.72366301E+03</pdfrwt>
<totfact> 0.89067070E+00</totfact>
</mgrwt>
</event>
<event>
 4    1  0.2318373E-002  0.4018703E+03  0.7818608E-02  0.1043134E+00
         -2   -1    0    0    0  501 -0.00000000000E+00  0.00000000000E+00  0.13767125941E+04  0.13767125941E+04  0.00000000000E+00 0.  1.
          2   -1    0    0  502    0  0.00000000000E+00 -0.00000000000E+00 -0.14369790506E+03  0.14369790506E+03  0.00000000000E+00 0. -1.
    9000005    1    1    2  502    0 -0.18999671224E+02  0.33745398068E+02  0.94228593299E+03  0.10244034942E+04  0.40000000000E+03 0.  1.
   -9000005    1    1    2    0  501  0.18999671224E+02 -0.33745398068E+02  0.29072875606E+03  0.49600700499E+03  0.40000000000E+03 0. -1.
<mgrwt>
<rscale>  2 0.40187030E+03</rscale>
<asrwt>0</asrwt>
<pdfrwt beam="1">  1        2 0.22107371E-01 0.40187030E+03</pdfrwt>
<pdfrwt beam="2">  1       -2 0.21180193E+00 0.40187030E+03</pdfrwt>
<totfact> 0.29641449E+01</totfact>
</mgrwt>
</event>
<event>
 4    1  0.2318373E-002  0.4561608E+03  0.7818608E-02  0.1025901E+00
          1   -1    0    0  502    0  0.00000000000E+00  0.00000000000E+00  0.53695394738E+03  0.53695394738E+03  0.00000000000E+00 0.  1.
         -1   -1    0    0    0  501 -0.00000000000E+00 -0.00000000000E+00 -0.39595716106E+03  0.39595716106E+03  0.00000000000E+00 0. -1.
    9000005    1    1    2  502    0 -0.55292936796E+02 -0.21219186207E+03  0.24255334884E+01  0.45616727020E+03  0.40000000000E+03 0.  1.
   -9000005    1    1    2    0  501  0.55292936796E+02  0.21219186207E+03  0.13857125283E+03  0.47674383824E+03  0.40000000000E+03 0. -1.
<mgrwt>
<rscale>  2 0.45616082E+03</rscale>
<asrwt>0</asrwt>
<pdfrwt beam="1">  1        1 0.82608299E-01 0.45616082E+03</pdfrwt>
<pdfrwt beam="2">  1       -1 0.60916487E-01 0.45616082E+03</pdfrwt>
<totfact> 0.11427373E+02</totfact>
</mgrwt>
</event>
<event>
 4    1  0.2318373E-002  0.4214227E+03  0.7818608E-02  0.1036604E+00
         -1   -1    0    0    0  501 -0.00000000000E+00  0.00000000000E+00  0.35708013803E+03  0.35708013803E+03  0.00000000000E+00 0.  1.
          1   -1    0    0  502    0  0.00000000000E+00 -0.00000000000E+00 -0.99900184354E+03  0.99900184354E+03  0.00000000000E+00 0. -1.
    9000005    1    1    2  502    0 -0.41045997146E+02  0.12614390837E+03  0.15951334247E+03  0.45060133813E+03  0.40000000000E+03 0.  1.
   -9000005    1    1    2    0  501  0.41045997146E+02 -0.12614390837E+03 -0.80143504798E+03  0.90548064344E+03  0.40000000000E+03 0. -1.
<mgrwt>
<rscale>  2 0.42142266E+03</rscale>
<asrwt>0</asrwt>
<pdfrwt beam="1">  1        1 0.15369259E+00 0.42142266E+03</pdfrwt>
<pdfrwt beam="2">  1       -1 0.54935407E-01 0.42142266E+03</pdfrwt>
<totfact> 0.54205917E+01</totfact>
</mgrwt>
</event>
<event>
 4    1  0.2318373E-002  0.5823890E+03  0.7818608E-02  0.9942632E-01
          2   -1    0    0  502    0  0.00000000000E+00  0.00000000000E+00  0.41740914579E+03  0.41740914579E+03  0.00000000000E+00 0.  1.
         -2   -1    0    0    0  501 -0.00000000000E+00 -0.00000000000E+00 -0.85456492378E+03  0.85456492378E+03  0.00000000000E+00 0. -1.
    9000005    1    1    2  502    0 -0.40770896342E+03 -0.11379950826E+03 -0.35955211586E+03  0.68443747045E+03  0.40000000000E+03 0. -1.
   -9000005    1    1    2    0  501  0.40770896342E+03  0.11379950826E+03 -0.77603662130E+02  0.58753659912E+03  0.40000000000E+03 0.  1.
<mgrwt>
<rscale>  2 0.58238898E+03</rscale>
<asrwt>0</asrwt>
<pdfrwt beam="1">  1        2 0.64216793E-01 0.58238898E+03</pdfrwt>
<pdfrwt beam="2">  1       -2 0.13147152E+00 0.58238898E+03</pdfrwt>
<totfact> 0.32811681E+01</totfact>
</mgrwt>
</event>
<event>
 4    1  0.2318373E-002  0.5727758E+03  0.7818608E-02  0.9963555E-01
         -2   -1    0    0    0  501 -0.00000000000E+00  0.00000000000E+00  0.10907569192E+04  0.10907569192E+04  0.00000000000E+00 0. -1.
          2   -1    0    0  502    0  0.00000000000E+00 -0.00000000000E+00 -0.30189164318E+03  0.30189164318E+03  0.00000000000E+00 0.  1.
    9000005    1    1    2  502    0  0.37549550149E+03  0.16454553653E+03  0.35207829434E+03  0.67233267850E+03  0.40000000000E+03 0.  1.
   -9000005    1    1    2    0  501 -0.37549550149E+03 -0.16454553653E+03  0.43678698172E+03  0.72031588393E+03  0.40000000000E+03 0.  1.
<mgrwt>
<rscale>  2 0.57277579E+03</rscale>
<asrwt>0</asrwt>
<pdfrwt beam="1">  1        2 0.46444869E-01 0.57277579E+03</pdfrwt>
<pdfrwt beam="2">  1       -2 0.16780875E+00 0.57277579E+03</pdfrwt>
<totfact> 0.24788659E+01</totfact>
</mgrwt>
</event>
<event>
 4    1  0.2318373E-002  0.5125676E+03  0.7818608E-02  0.1010550E+00
         -1   -1    0    0    0  501 -0.00000000000E+00  0.00000000000E+00  0.13288018744E+03  0.13288018744E+03  0.00000000000E+00 0.  1.
          1   -1    0    0  502    0  0.00000000000E+00 -0.00000000000E+00 -0.19788348519E+04  0.19788348519E+04  0.00000000000E+00 0. -1.
    9000005    1    1    2  502    0 -0.30084713561E+03 -0.11052858667E+03 -0.89227178244E+03  0.10290162784E+04  0.40000000000E+03 0. -1.
   -9000005    1    1    2    0  501  0.30084713561E+03  0.11052858667E+03 -0.95368288202E+03  0.10826987609E+04  0.40000000000E+03 0.  1.
<mgrwt>
<rscale>  2 0.51256762E+03</rscale>
<asrwt>0</asrwt>
<pdfrwt beam="1">  1        1 0.30443613E+00 0.51256762E+03</pdfrwt>
<pdfrwt beam="2">  1       -1 0.20443106E-01 0.51256762E+03</pdfrwt>
<totfact> 0.64675254E+01</totfact>
</mgrwt>
</event>
<event>
 4    1  0.2318373E-002  0.4339303E+03  0.7818608E-02  0.1032626E+00
         -2   -1    0    0    0  501 -0.00000000000E+00  0.00000000000E+00  0.11015792058E+03  0.11015792058E+03  0.00000000000E+00 0.  1.
          2   -1    0    0  502    0  0.00000000000E+00 -0.00000000000E+00 -0.18265719514E+04  0.18265719514E+04  0.00000000000E+00 0. -1.
    9000005    1    1    2  502    0  0.31478944685E+01  0.16818328254E+03 -0.11035502936E+04  0.11857987925E+04  0.40000000000E+03 0. -1.
   -9000005    1    1    2    0  501 -0.31478944685E+01 -0.16818328254E+03 -0.61286373727E+03  0.75093107954E+03  0.40000000000E+03 0.  1.
<mgrwt>
<rscale>  2 0.43393032E+03</rscale>
<asrwt>0</asrwt>
<pdfrwt beam="1">  1        2 0.28101105E+00 0.43393032E+03</pdfrwt>
<pdfrwt beam="2">  1       -2 0.16947373E-01 0.43393032E+03</pdfrwt>
<totfact> 0.25003225E+02</totfact>
</mgrwt>
</event>
<event>
 4    1  0.2318373E-002  0.4516249E+03  0.7818608E-02  0.1027239E+00
         -1   -1    0    0    0  501 -0.00000000000E+00  0.00000000000E+00  0.22962260274E+03  0.22962260274E+03  0.00000000000E+00 0. -1.
          1   -1    0    0  502    0  0.00000000000E+00 -0.00000000000E+00 -0.88826799690E+03  0.88826799690E+03  0.00000000000E+00 0.  1.
    9000005    1    1    2  502    0 -0.64767406862E+02  0.19942472379E+03 -0.33077232036E+03  0.55979939744E+03  0.40000000000E+03 0. -1.
   -9000005    1    1    2    0  501  0.64767406862E+02 -0.19942472379E+03 -0.32787307380E+03  0.55809120220E+03  0.40000000000E+03 0.  1.
<mgrwt>
<rscale>  2 0.45162489E+03</rscale>
<asrwt>0</asrwt>
<pdfrwt beam="1">  1        1 0.13665661E+00 0.45162489E+03</pdfrwt>
<pdfrwt beam="2">  1       -1 0.35326554E-01 0.45162489E+03</pdfrwt>
<totfact> 0.14802783E+02</totfact>
</mgrwt>
</event>
<event>
 4    1  0.2318373E-002  0.4399785E+03  0.7818608E-02  0.1030753E+00
         -1   -1    0    0    0  501 -0.00000000000E+00  0.00000000000E+00  0.27014312355E+03  0.27014312355E+03  0.00000000000E+00 0.  1.
          1   -1    0    0  502    0  0.00000000000E+00 -0.00000000000E+00 -0.73079703857E+03  0.73079703857E+03  0.00000000000E+00 0. -1.
    9000005    1    1    2  502    0 -0.17922478874E+03  0.38203802631E+02 -0.16053954795E+03  0.46835243342E+03  0.40000000000E+03 0.  1.
   -9000005    1    1    2    0  501  0.17922478874E+03 -0.38203802631E+02 -0.30011436706E+03  0.53258772869E+03  0.40000000000E+03 0. -1.
<mgrwt>
<rscale>  2 0.43997847E+03</rscale>
<asrwt>0</asrwt>
<pdfrwt beam="1">  1        1 0.11243031E+00 0.43997847E+03</pdfrwt>
<pdfrwt beam="2">  1       -1 0.41560480E-01 0.43997847E+03</pdfrwt>
<totfact> 0.15078140E+02</totfact>
</mgrwt>
</event>
<event>
 4    1  0.2318373E-002  0.4463969E+03  0.7818608E-02  0.1028802E+00
         -2   -1    0    0    0  501 -0.00000000000E+00  0.00000000000E+00  0.81158071270E+02  0.81158071270E+02  0.00000000000E+00 0.  1.
          2   -1    0    0  502    0  0.00000000000E+00 -0.00000000000E+00 -0.24561195177E+04  0.24561195177E+04  0.00000000000E+00 0. -1.
    9000005    1    1    2  502    0 -0.19334694115E+03  0.43441650361E+02 -0.11648009696E+04  0.12474099228E+04  0.40000000000E+03 0.  1.
   -9000005    1    1    2    0  501  0.19334694115E+03 -0.43441650361E+02 -0.12101604769E+04  0.12898676662E+04  0.40000000000E+03 0. -1.
<mgrwt>
<rscale>  2 0.44639693E+03</rscale>
<asrwt>0</asrwt>
<pdfrwt beam="1">  1        2 0.37786457E+00 0.44639693E+03</pdfrwt>
<pdfrwt beam="2">  1       -2 0.12485856E-01 0.44639693E+03</pdfrwt>
<totfact> 0.18968793E+02</totfact>
</mgrwt>
</event>
<event>
 4    1  0.2318373E-002  0.4148139E+03  0.7818608E-02  0.1038768E+00
          2   -1    0    0  502    0  0.00000000000E+00  0.00000000000E+00  0.89402040040E+03  0.89402040040E+03  0.00000000000E+00 0.  1.
         -2   -1    0    0    0  501 -0.00000000000E+00 -0.00000000000E+00 -0.19270615052E+03  0.19270615052E+03  0.00000000000E+00 0. -1.
    9000005    1    1    2  502    0 -0.24804114092E+01 -0.10983823086E+03  0.36974650061E+03  0.55568252097E+03  0.40000000000E+03 0.  1.
   -9000005    1    1    2    0  501  0.24804114092E+01  0.10983823086E+03  0.33156774927E+03  0.53104402996E+03  0.40000000000E+03 0. -1.
<mgrwt>
<rscale>  2 0.41481392E+03</rscale>
<asrwt>0</asrwt>
<pdfrwt beam="1">  1        2 0.13754160E+00 0.41481392E+03</pdfrwt>
<pdfrwt beam="2">  1       -2 0.29647101E-01 0.41481392E+03</pdfrwt>
<totfact> 0.31863781E+02</totfact>
</mgrwt>
</event>
<event>
 4    1  0.2318373E-002  0.4338784E+03  0.7818608E-02  0.1032642E+00
          2   -1    0    0  502    0  0.00000000000E+00  0.00000000000E+00  0.21200637860E+03  0.21200637860E+03  0.00000000000E+00 0. -1.
         -2   -1    0    0    0  501 -0.00000000000E+00 -0.00000000000E+00 -0.14059531798E+04  0.14059531798E+04  0.00000000000E+00 0.  1.
    9000005    1    1    2  502    0  0.92534696579E+02 -0.14031313325E+03 -0.10593023267E+03  0.44662250238E+03  0.40000000000E+03 0. -1.
   -9000005    1    1    2    0  501 -0.92534696579E+02  0.14031313325E+03 -0.10880165686E+04  0.11713370561E+04  0.40000000000E+03 0.  1.
<mgrwt>
<rscale>  2 0.43387838E+03</rscale>
<asrwt>0</asrwt>
<pdfrwt beam="1">  1        2 0.32616366E-01 0.43387838E+03</pdfrwt>
<pdfrwt beam="2">  1       -2 0.21630049E+00 0.43387838E+03</pdfrwt>
<totfact> 0.17833728E+01</totfact>
</mgrwt>
</event>
<event>
 4    1  0.2318373E-002  0.4061808E+03  0.7818608E-02  0.1041660E+00
          2   -1    0    0  502    0  0.00000000000E+00  0.00000000000E+00  0.25036370933E+04  0.25036370933E+04  0.00000000000E+00 0. -1.
         -2   -1    0    0    0  501 -0.00000000000E+00 -0.00000000000E+00 -0.10005202573E+03  0.10005202573E+03  0.00000000000E+00 0.  1.
    9000005    1    1    2  502    0 -0.70107461655E+02  0.82345239526E+01  0.19624195479E+04  0.20040143077E+04  0.40000000000E+03 0. -1.
   -9000005    1    1    2    0  501  0.70107461655E+02 -0.82345239526E+01  0.44116551963E+03  0.59967481128E+03  0.40000000000E+03 0.  1.
<mgrwt>
<rscale>  2 0.40618083E+03</rscale>
<asrwt>0</asrwt>
<pdfrwt beam="1">  1        2 0.38517489E+00 0.40618083E+03</pdfrwt>
<pdfrwt beam="2">  1       -2 0.15392621E-01 0.40618083E+03</pdfrwt>
<totfact> 0.12705922E+02</totfact>
</mgrwt>
</event>
<event>
 4    1  0.2318373E-002  0.4142004E+03  0.7818608E-02  0.1038971E+00
          2   -1    0    0  502    0  0.00000000000E+00  0.00000000000E+00  0.24562147947E+04  0.24562147947E+04  0.00000000000E+00 0. -1.
         -2   -1    0    0    0  501 -0.00000000000E+00 -0.00000000000E+00 -0.71388666067E+02  0.71388666067E+02  0.00000000000E+00 0.  1.
    9000005    1    1    2  502    0  0.60101345106E+02 -0.89161541041E+02  0.13780667550E+04  0.14389683574E+04  0.40000000000E+03 0. -1.
   -9000005    1    1    2    0  501 -0.60101345106E+02  0.89161541041E+02  0.10067593735E+04  0.10886351034E+04  0.40000000000E+03 0.  1.
<mgrwt>
<rscale>  2 0.41420038E+03</rscale>
<asrwt>0</asrwt>
<pdfrwt beam="1">  1        2 0.37787913E+00 0.41420038E+03</pdfrwt>
<pdfrwt beam="2">  1       -2 0.10982874E-01 0.41420038E+03</pdfrwt>
<totfact> 0.23517353E+02</totfact>
</mgrwt>
</event>
<event>
 4    1  0.2318373E-002  0.4002154E+03  0.7818608E-02  0.1043705E+00
          2   -1    0    0  502    0  0.00000000000E+00  0.00000000000E+00  0.56469415007E+03  0.56469415007E+03  0.00000000000E+00 0. -1.
         -2   -1    0    0    0  501 -0.00000000000E+00 -0.00000000000E+00 -0.28968176408E+03  0.28968176408E+03  0.00000000000E+00 0.  1.
    9000005    1    1    2  502    0 -0.12968876020E+02 -0.20353929703E+01  0.75835045370E+02  0.40733682460E+03  0.40000000000E+03 0.  1.
   -9000005    1    1    2    0  501  0.12968876020E+02  0.20353929703E+01  0.19917734061E+03  0.44703908955E+03  0.40000000000E+03 0. -1.
<mgrwt>
<rscale>  2 0.40021536E+03</rscale>
<asrwt>0</asrwt>
<pdfrwt beam="1">  1        2 0.86876023E-01 0.40021536E+03</pdfrwt>
<pdfrwt beam="2">  1       -2 0.44566425E-01 0.40021536E+03</pdfrwt>
<totfact> 0.26122912E+02</totfact>
</mgrwt>
</event>
<event>
 4    1  0.2318373E-002  0.4239815E+03  0.7818608E-02  0.1035778E+00
          3   -1    0    0  502    0  0.00000000000E+00  0.00000000000E+00  0.68370160260E+03  0.68370160260E+03  0.00000000000E+00 0. -1.
         -3   -1    0    0    0  501 -0.00000000000E+00 -0.00000000000E+00 -0.28304467490E+03  0.28304467490E+03  0.00000000000E+00 0.  1.
    9000005    1    1    2  502    0 -0.26440047283E+02 -0.13806254648E+03  0.32921142483E+03  0.53678720651E+03  0.40000000000E+03 0. -1.
   -9000005    1    1    2    0  501  0.26440047283E+02  0.13806254648E+03  0.71445502875E+02  0.42995907099E+03  0.40000000000E+03 0.  1.
<mgrwt>
<rscale>  2 0.42398154E+03</rscale>
<asrwt>0</asrwt>
<pdfrwt beam="1">  1        3 0.10518486E+00 0.42398154E+03</pdfrwt>
<pdfrwt beam="2">  1       -3 0.43545335E-01 0.42398154E+03</pdfrwt>
<totfact> 0.10617485E+01</totfact>
</mgrwt>
</event>
<event>
 4    1  0.2318373E-002  0.4568825E+03  0.7818608E-02  0.1025689E+00
         -1   -1    0    0    0  501 -0.00000000000E+00  0.00000000000E+00  0.14687623868E+04  0.14687623868E+04  0.00000000000E+00 0.  1.
          1   -1    0    0  502    0  0.00000000000E+00 -0.00000000000E+00 -0.20158545352E+03  0.20158545352E+03  0.00000000000E+00 0. -1.
    9000005    1    1    2  502    0  0.15225160664E+03  0.15987837305E+03  0.10871924648E+04  0.11792917796E+04  0.40000000000E+03 0.  1.
   -9000005    1    1    2    0  501 -0.15225160664E+03 -0.15987837305E+03  0.17998446849E+03  0.49105606074E+03  0.40000000000E+03 0. -1.
<mgrwt>
<rscale>  2 0.45688253E+03</rscale>
<asrwt>0</asrwt>
<pdfrwt beam="1">  1        1 0.31013148E-01 0.45688253E+03</pdfrwt>
<pdfrwt beam="2">  1       -1 0.22596344E+00 0.45688253E+03</pdfrwt>
<totfact> 0.15846159E+01</totfact>
</mgrwt>
</event>
<event>
 4    1  0.2318373E-002  0.4315117E+03  0.7818608E-02  0.1033384E+00
          1   -1    0    0  502    0  0.00000000000E+00  0.00000000000E+00  0.11286786286E+04  0.11286786286E+04  0.00000000000E+00 0.  1.
         -1   -1    0    0    0  501 -0.00000000000E+00 -0.00000000000E+00 -0.40730443760E+03  0.40730443760E+03  0.00000000000E+00 0. -1.
    9000005    1    1    2  502    0  0.15978636977E+03 -0.25896338627E+02 -0.23169387855E+03  0.48977990738E+03  0.40000000000E+03 0. -1.
   -9000005    1    1    2    0  501 -0.15978636977E+03  0.25896338627E+02  0.95306806957E+03  0.10462031588E+04  0.40000000000E+03 0.  1.
<mgrwt>
<rscale>  2 0.43151165E+03</rscale>
<asrwt>0</asrwt>
<pdfrwt beam="1">  1        1 0.17364286E+00 0.43151165E+03</pdfrwt>
<pdfrwt beam="2">  1       -1 0.62662222E-01 0.43151165E+03</pdfrwt>
<totfact> 0.33572966E+01</totfact>
</mgrwt>
</event>
<event>
 4    1  0.2318373E-002  0.5200315E+03  0.7818608E-02  0.1008679E+00
         -1   -1    0    0    0  501 -0.00000000000E+00  0.00000000000E+00  0.78814234282E+03  0.78814234282E+03  0.00000000000E+00 0.  1.
          1   -1    0    0  502    0  0.00000000000E+00 -0.00000000000E+00 -0.57215936869E+03  0.57215936869E+03  0.00000000000E+00 0. -1.
    9000005    1    1    2  502    0  0.20844412545E+03 -0.25881234206E+03  0.53831525872E+03  0.74847585105E+03  0.40000000000E+03 0.  1.
   -9000005    1    1    2    0  501 -0.20844412545E+03  0.25881234206E+03 -0.32233228458E+03  0.61182586046E+03  0.40000000000E+03 0. -1.
<mgrwt>
<rscale>  2 0.52003152E+03</rscale>
<asrwt>0</asrwt>
<pdfrwt beam="1">  1        1 0.88024518E-01 0.52003152E+03</pdfrwt>
<pdfrwt beam="2">  1       -1 0.12125267E+00 0.52003152E+03</pdfrwt>
<totfact> 0.23369480E+01</totfact>
</mgrwt>
</event>
<event>
 4    1  0.2318373E-002  0.4072246E+03  0.7818608E-02  0.1041306E+00
         -1   -1    0    0    0  501 -0.00000000000E+00  0.00000000000E+00  0.10300909835E+03  0.10300909835E+03  0.00000000000E+00 0. -1.
          1   -1    0    0  502    0  0.00000000000E+00 -0.00000000000E+00 -0.18686174530E+04  0.18686174530E+04  0.00000000000E+00 0.  1.
    9000005    1    1    2  502    0  0.14643628639E+02 -0.74949847758E+02 -0.12496361149E+04  0.13143143974E+04  0.40000000000E+03 0.  1.
   -9000005    1    1    2    0  501 -0.14643628639E+02  0.74949847758E+02 -0.51597223978E+03  0.65731215397E+03  0.40000000000E+03 0. -1.
<mgrwt>
<rscale>  2 0.40722465E+03</rscale>
<asrwt>0</asrwt>
<pdfrwt beam="1">  1        1 0.28747957E+00 0.40722465E+03</pdfrwt>
<pdfrwt beam="2">  1       -1 0.15847555E-01 0.40722465E+03</pdfrwt>
<totfact> 0.11804154E+02</totfact>
</mgrwt>
</event>
<event>
 4    1  0.2318373E-002  0.7167991E+03  0.7818608E-02  0.9688927E-01
         -2   -1    0    0    0  501 -0.00000000000E+00  0.00000000000E+00  0.15316110067E+03  0.15316110067E+03  0.00000000000E+00 0.  1.
          2   -1    0    0  502    0  0.00000000000E+00 -0.00000000000E+00 -0.36477962530E+04  0.36477962530E+04  0.00000000000E+00 0. -1.
    9000005    1    1    2  502    0 -0.13865861014E+03  0.57842433116E+03 -0.22860766237E+04  0.23958187007E+04  0.40000000000E+03 0.  1.
   -9000005    1    1    2    0  501  0.13865861014E+03 -0.57842433116E+03 -0.12085585286E+04  0.14051386530E+04  0.40000000000E+03 0. -1.
<mgrwt>
<rscale>  2 0.71679908E+03</rscale>
<asrwt>0</asrwt>
<pdfrwt beam="1">  1        2 0.56119933E+00 0.71679908E+03</pdfrwt>
<pdfrwt beam="2">  1       -2 0.23563250E-01 0.71679908E+03</pdfrwt>
<totfact> 0.11105391E+01</totfact>
</mgrwt>
</event>
<event>
 4    1  0.2318373E-002  0.5677648E+03  0.7818608E-02  0.9974637E-01
         -2   -1    0    0    0  501 -0.00000000000E+00  0.00000000000E+00  0.30675605214E+03  0.30675605214E+03  0.00000000000E+00 0. -1.
          2   -1    0    0  502    0  0.00000000000E+00 -0.00000000000E+00 -0.14298559612E+04  0.14298559612E+04  0.00000000000E+00 0.  1.
    9000005    1    1    2  502    0  0.37843854717E+03  0.13835140364E+03 -0.10085890264E+04  0.11574146488E+04  0.40000000000E+03 0.  1.
   -9000005    1    1    2    0  501 -0.37843854717E+03 -0.13835140364E+03 -0.11451088258E+03  0.57919736455E+03  0.40000000000E+03 0. -1.
<mgrwt>
<rscale>  2 0.56776478E+03</rscale>
<asrwt>0</asrwt>
<pdfrwt beam="1">  1        2 0.21997784E+00 0.56776478E+03</pdfrwt>
<pdfrwt beam="2">  1       -2 0.47193239E-01 0.56776478E+03</pdfrwt>
<totfact> 0.61646306E+01</totfact>
</mgrwt>
</event>
<event>
 4    1  0.2318373E-002  0.4566263E+03  0.7818608E-02  0.1025764E+00
         -1   -1    0    0    0  501 -0.00000000000E+00  0.00000000000E+00  0.59345710233E+03  0.59345710233E+03  0.00000000000E+00 0. -1.
          1   -1    0    0  502    0  0.00000000000E+00 -0.00000000000E+00 -0.35172458332E+03  0.35172458332E+03  0.00000000000E+00 0.  1.
    9000005    1    1    2  502    0  0.20133606059E+03  0.89282632801E+02  0.10532080664E+03  0.46861505538E+03  0.40000000000E+03 0. -1.
   -9000005    1    1    2    0  501 -0.20133606059E+03 -0.89282632801E+02  0.13641171237E+03  0.47656663027E+03  0.40000000000E+03 0.  1.
<mgrwt>
<rscale>  2 0.45662632E+03</rscale>
<asrwt>0</asrwt>
<pdfrwt beam="1">  1        1 0.54111474E-01 0.45662632E+03</pdfrwt>
<pdfrwt beam="2">  1       -1 0.91301093E-01 0.45662632E+03</pdfrwt>
<totfact> 0.86852818E+01</totfact>
</mgrwt>
</event>
<event>
 4    1  0.2318373E-002  0.4308584E+03  0.7818608E-02  0.1033589E+00
         -1   -1    0    0    0  501 -0.00000000000E+00  0.00000000000E+00  0.15339727201E+03  0.15339727201E+03  0.00000000000E+00 0. -1.
          1   -1    0    0  502    0  0.00000000000E+00 -0.00000000000E+00 -0.12347136516E+04  0.12347136516E+04  0.00000000000E+00 0.  1.
    9000005    1    1    2  502    0  0.10660421966E+03  0.11947604884E+03 -0.44283244057E+03  0.61785075570E+03  0.40000000000E+03 0. -1.
   -9000005    1    1    2    0  501 -0.10660421966E+03 -0.11947604884E+03 -0.63848393899E+03  0.77026016789E+03  0.40000000000E+03 0.  1.
<mgrwt>
<rscale>  2 0.43085843E+03</rscale>
<asrwt>0</asrwt>
<pdfrwt beam="1">  1        1 0.18995594E+00 0.43085843E+03</pdfrwt>
<pdfrwt beam="2">  1       -1 0.23599581E-01 0.43085843E+03</pdfrwt>
<totfact> 0.16339188E+02</totfact>
</mgrwt>
</event>
<event>
 4    1  0.2318373E-002  0.4322360E+03  0.7818608E-02  0.1033156E+00
          1   -1    0    0  502    0  0.00000000000E+00  0.00000000000E+00  0.17041880354E+04  0.17041880354E+04  0.00000000000E+00 0.  1.
         -1   -1    0    0    0  501 -0.00000000000E+00 -0.00000000000E+00 -0.19381544262E+03  0.19381544262E+03  0.00000000000E+00 0. -1.
    9000005    1    1    2  502    0  0.11261131597E+03  0.11893960671E+03  0.12973334987E+03  0.45128558652E+03  0.40000000000E+03 0. -1.
   -9000005    1    1    2    0  501 -0.11261131597E+03 -0.11893960671E+03  0.13806392429E+04  0.14467178915E+04  0.40000000000E+03 0.  1.
<mgrwt>
<rscale>  2 0.43223598E+03</rscale>
<asrwt>0</asrwt>
<pdfrwt beam="1">  1        1 0.26218277E+00 0.43223598E+03</pdfrwt>
<pdfrwt beam="2">  1       -1 0.29817761E-01 0.43223598E+03</pdfrwt>
<totfact> 0.52702691E+01</totfact>
</mgrwt>
</event>
<event>
 4    1  0.2318373E-002  0.4131600E+03  0.7818608E-02  0.1039316E+00
         -2   -1    0    0    0  501 -0.00000000000E+00  0.00000000000E+00  0.31107071836E+03  0.31107071836E+03  0.00000000000E+00 0. -1.
          2   -1    0    0  502    0  0.00000000000E+00 -0.00000000000E+00 -0.55201199592E+03  0.55201199592E+03  0.00000000000E+00 0.  1.
    9000005    1    1    2  502    0  0.14380101358E+02  0.10244234325E+03 -0.15362499269E+03  0.44079684593E+03  0.40000000000E+03 0.  1.
   -9000005    1    1    2    0  501 -0.14380101358E+02 -0.10244234325E+03 -0.87316284873E+02  0.42228586835E+03  0.40000000000E+03 0. -1.
<mgrwt>
<rscale>  2 0.41316004E+03</rscale>
<asrwt>0</asrwt>
<pdfrwt beam="1">  1        2 0.84924921E-01 0.41316004E+03</pdfrwt>
<pdfrwt beam="2">  1       -2 0.47857035E-01 0.41316004E+03</pdfrwt>
<totfact> 0.23267539E+02</totfact>
</mgrwt>
</event>
<event>
 4    1  0.2318373E-002  0.5496181E+03  0.7818608E-02  0.1001582E+00
         -2   -1    0    0    0  501 -0.00000000000E+00  0.00000000000E+00  0.61274030500E+03  0.61274030500E+03  0.00000000000E+00 0. -1.
          2   -1    0    0  502    0  0.00000000000E+00 -0.00000000000E+00 -0.16080718199E+04  0.16080718199E+04  0.00000000000E+00 0.  1.
    9000005    1    1    2  502    0 -0.29209818469E+03 -0.23824081761E+03 -0.14223230954E+04  0.15248222928E+04  0.40000000000E+03 0.  1.
   -9000005    1    1    2    0  501  0.29209818469E+03  0.23824081761E+03  0.42699158050E+03  0.69598983218E+03  0.40000000000E+03 0. -1.
<mgrwt>
<rscale>  2 0.54961808E+03</rscale>
<asrwt>0</asrwt>
<pdfrwt beam="1">  1        2 0.24739566E+00 0.54961808E+03</pdfrwt>
<pdfrwt beam="2">  1       -2 0.94267739E-01 0.54961808E+03</pdfrwt>
<totfact> 0.11106805E+01</totfact>
</mgrwt>
</event>
<event>
 4    1  0.2318373E-002  0.4030702E+03  0.7818608E-02  0.1042722E+00
          2   -1    0    0  502    0  0.00000000000E+00  0.00000000000E+00  0.10418903127E+04  0.10418903127E+04  0.00000000000E+00 0.  1.
         -2   -1    0    0    0  501 -0.00000000000E+00 -0.00000000000E+00 -0.15616977210E+03  0.15616977210E+03  0.00000000000E+00 0. -1.
    9000005    1    1    2  502    0  0.34135093484E+02  0.36061185292E+02  0.46615978989E+03  0.61625527455E+03  0.40000000000E+03 0. -1.
   -9000005    1    1    2    0  501 -0.34135093484E+02 -0.36061185292E+02  0.41956075066E+03  0.58180481021E+03  0.40000000000E+03 0. -1.
<mgrwt>
<rscale>  2 0.40307023E+03</rscale>
<asrwt>0</asrwt>
<pdfrwt beam="1">  1        2 0.16029081E+00 0.40307023E+03</pdfrwt>
<pdfrwt beam="2">  1       -2 0.24026119E-01 0.40307023E+03</pdfrwt>
<totfact> 0.37532239E+02</totfact>
</mgrwt>
</event>
<event>
 4    1  0.2318373E-002  0.5998443E+03  0.7818608E-02  0.9905729E-01
          2   -1    0    0  502    0  0.00000000000E+00  0.00000000000E+00  0.23919659192E+04  0.23919659192E+04  0.00000000000E+00 0. -1.
         -2   -1    0    0    0  501 -0.00000000000E+00 -0.00000000000E+00 -0.15784082876E+03  0.15784082876E+03  0.00000000000E+00 0.  1.
    9000005    1    1    2  502    0  0.15773871415E+02 -0.44672629310E+03  0.13933914734E+04  0.15170210922E+04  0.40000000000E+03 0. -1.
   -9000005    1    1    2    0  501 -0.15773871415E+02  0.44672629310E+03  0.84073361705E+03  0.10327856558E+04  0.40000000000E+03 0.  1.
<mgrwt>
<rscale>  2 0.59984431E+03</rscale>
<asrwt>0</asrwt>
<pdfrwt beam="1">  1        2 0.36799473E+00 0.59984431E+03</pdfrwt>
<pdfrwt beam="2">  1       -2 0.24283206E-01 0.59984431E+03</pdfrwt>
<totfact> 0.64287775E+01</totfact>
</mgrwt>
</event>
<event>
 4    1  0.2318373E-002  0.4773939E+03  0.7818608E-02  0.1019854E+00
         -2   -1    0    0    0  501 -0.00000000000E+00  0.00000000000E+00  0.60181647572E+03  0.60181647572E+03  0.00000000000E+00 0. -1.
          2   -1    0    0  502    0  0.00000000000E+00 -0.00000000000E+00 -0.46697241301E+03  0.46697241301E+03  0.00000000000E+00 0.  1.
    9000005    1    1    2  502    0 -0.25808902518E+03 -0.35986292336E+02 -0.16492698779E+03  0.50508006242E+03  0.40000000000E+03 0.  1.
   -9000005    1    1    2    0  501  0.25808902518E+03  0.35986292336E+02  0.29977105049E+03  0.56370882631E+03  0.40000000000E+03 0. -1.
<mgrwt>
<rscale>  2 0.47739392E+03</rscale>
<asrwt>0</asrwt>
<pdfrwt beam="1">  1        2 0.71841910E-01 0.47739392E+03</pdfrwt>
<pdfrwt beam="2">  1       -2 0.92587150E-01 0.47739392E+03</pdfrwt>
<totfact> 0.68048565E+01</totfact>
</mgrwt>
</event>
<event>
 4    1  0.2318373E-002  0.5083345E+03  0.7818608E-02  0.1011626E+00
         -2   -1    0    0    0  501 -0.00000000000E+00  0.00000000000E+00  0.22086202899E+03  0.22086202899E+03  0.00000000000E+00 0.  1.
          2   -1    0    0  502    0  0.00000000000E+00 -0.00000000000E+00 -0.24629102408E+04  0.24629102408E+04  0.00000000000E+00 0. -1.
    9000005    1    1    2  502    0 -0.16238950479E+03 -0.26839086863E+03 -0.20932765237E+04  0.21541148099E+04  0.40000000000E+03 0. -1.
   -9000005    1    1    2    0  501  0.16238950479E+03  0.26839086863E+03 -0.14877168812E+03  0.52965745989E+03  0.40000000000E+03 0.  1.
<mgrwt>
<rscale>  2 0.50833454E+03</rscale>
<asrwt>0</asrwt>
<pdfrwt beam="1">  1        2 0.37890927E+00 0.50833454E+03</pdfrwt>
<pdfrwt beam="2">  1       -2 0.33978774E-01 0.50833454E+03</pdfrwt>
<totfact> 0.32228664E+01</totfact>
</mgrwt>
</event>
<event>
 4    1  0.2318373E-002  0.4369569E+03  0.7818608E-02  0.1031685E+00
         -1   -1    0    0    0  501 -0.00000000000E+00  0.00000000000E+00  0.39549093229E+03  0.39549093229E+03  0.00000000000E+00 0.  1.
          1   -1    0    0  502    0  0.00000000000E+00 -0.00000000000E+00 -0.62292188442E+03  0.62292188442E+03  0.00000000000E+00 0. -1.
    9000005    1    1    2  502    0  0.17562955561E+03  0.92496022185E+01  0.12781725616E+03  0.45526755531E+03  0.40000000000E+03 0.  1.
   -9000005    1    1    2    0  501 -0.17562955561E+03 -0.92496022185E+01 -0.35524820829E+03  0.56314526140E+03  0.40000000000E+03 0. -1.
<mgrwt>
<rscale>  2 0.43695686E+03</rscale>
<asrwt>0</asrwt>
<pdfrwt beam="1">  1        1 0.95834136E-01 0.43695686E+03</pdfrwt>
<pdfrwt beam="2">  1       -1 0.60844759E-01 0.43695686E+03</pdfrwt>
<totfact> 0.93194128E+01</totfact>
</mgrwt>
</event>
<event>
 4    1  0.2318373E-002  0.5439185E+03  0.7818608E-02  0.1002911E+00
         -1   -1    0    0    0  501 -0.00000000000E+00  0.00000000000E+00  0.31984879078E+03  0.31984879078E+03  0.00000000000E+00 0.  1.
          1   -1    0    0  502    0  0.00000000000E+00 -0.00000000000E+00 -0.11845030401E+04  0.11845030401E+04  0.00000000000E+00 0. -1.
    9000005    1    1    2  502    0 -0.23798777881E+03  0.28144116449E+03 -0.78441907325E+03  0.95454732435E+03  0.40000000000E+03 0. -1.
   -9000005    1    1    2    0  501  0.23798777881E+03 -0.28144116449E+03 -0.80235176067E+02  0.54980450654E+03  0.40000000000E+03 0.  1.
<mgrwt>
<rscale>  2 0.54391848E+03</rscale>
<asrwt>0</asrwt>
<pdfrwt beam="1">  1        1 0.18223124E+00 0.54391848E+03</pdfrwt>
<pdfrwt beam="2">  1       -1 0.49207506E-01 0.54391848E+03</pdfrwt>
<totfact> 0.47752082E+01</totfact>
</mgrwt>
</event>
<event>
 4    1  0.2318373E-002  0.4428954E+03  0.7818608E-02  0.1029862E+00
          1   -1    0    0  502    0  0.00000000000E+00  0.00000000000E+00  0.70091680767E+03  0.70091680767E+03  0.00000000000E+00 0. -1.
         -1   -1    0    0    0  501 -0.00000000000E+00 -0.00000000000E+00 -0.30122264435E+03  0.30122264435E+03  0.00000000000E+00 0.  1.
    9000005    1    1    2  502    0  0.76888639092E+02 -0.17390943857E+03  0.33329570084E+03  0.55429448837E+03  0.40000000000E+03 0.  1.
   -9000005    1    1    2    0  501 -0.76888639092E+02  0.17390943857E+03  0.66398462485E+02  0.44784496365E+03  0.40000000000E+03 0. -1.
<mgrwt>
<rscale>  2 0.44289542E+03</rscale>
<asrwt>0</asrwt>
<pdfrwt beam="1">  1        1 0.10783335E+00 0.44289542E+03</pdfrwt>
<pdfrwt beam="2">  1       -1 0.46341945E-01 0.44289542E+03</pdfrwt>
<totfact> 0.13148565E+02</totfact>
</mgrwt>
</event>
<event>
 4    1  0.2318373E-002  0.4408609E+03  0.7818608E-02  0.1030483E+00
          2   -1    0    0  502    0  0.00000000000E+00  0.00000000000E+00  0.59416502346E+03  0.59416502346E+03  0.00000000000E+00 0.  1.
         -2   -1    0    0    0  501 -0.00000000000E+00 -0.00000000000E+00 -0.65840030195E+03  0.65840030195E+03  0.00000000000E+00 0. -1.
    9000005    1    1    2  502    0  0.10299536211E+03 -0.15411116941E+03  0.41213361536E+03  0.60350013593E+03  0.40000000000E+03 0.  1.
   -9000005    1    1    2    0  501 -0.10299536211E+03  0.15411116941E+03 -0.47636889385E+03  0.64906518947E+03  0.40000000000E+03 0. -1.
<mgrwt>
<rscale>  2 0.44086086E+03</rscale>
<asrwt>0</asrwt>
<pdfrwt beam="1">  1        2 0.91410004E-01 0.44086086E+03</pdfrwt>
<pdfrwt beam="2">  1       -2 0.10129235E+00 0.44086086E+03</pdfrwt>
<totfact> 0.41929482E+01</totfact>
</mgrwt>
</event>
<event>
 4    1  0.2318373E-002  0.6109179E+03  0.7818608E-02  0.9883010E-01
          2   -1    0    0  502    0  0.00000000000E+00  0.00000000000E+00  0.88057248508E+03  0.88057248508E+03  0.00000000000E+00 0.  1.
         -2   -1    0    0    0  501 -0.00000000000E+00 -0.00000000000E+00 -0.43124319570E+03  0.43124319570E+03  0.00000000000E+00 0. -1.
    9000005    1    1    2  502    0  0.33797335456E+03 -0.31463430068E+03  0.31061116480E+03  0.68534664751E+03  0.40000000000E+03 0.  1.
   -9000005    1    1    2    0  501 -0.33797335456E+03  0.31463430068E+03  0.13871812458E+03  0.62646903327E+03  0.40000000000E+03 0.  1.
<mgrwt>
<rscale>  2 0.61091794E+03</rscale>
<asrwt>0</asrwt>
<pdfrwt beam="1">  1        2 0.13547269E+00 0.61091794E+03</pdfrwt>
<pdfrwt beam="2">  1       -2 0.66345107E-01 0.61091794E+03</pdfrwt>
<totfact> 0.64789266E+01</totfact>
</mgrwt>
</event>
<event>
 4    1  0.2318373E-002  0.5928101E+03  0.7818608E-02  0.9920436E-01
         -1   -1    0    0    0  501 -0.00000000000E+00  0.00000000000E+00  0.30362818237E+03  0.30362818237E+03  0.00000000000E+00 0. -1.
          1   -1    0    0  502    0  0.00000000000E+00 -0.00000000000E+00 -0.11647648691E+04  0.11647648691E+04  0.00000000000E+00 0.  1.
    9000005    1    1    2  502    0 -0.41703798479E+03 -0.13229957842E+03 -0.48888981455E+03  0.76839905647E+03  0.40000000000E+03 0. -1.
   -9000005    1    1    2    0  501  0.41703798479E+03  0.13229957842E+03 -0.37224687219E+03  0.69999399502E+03  0.40000000000E+03 0.  1.
<mgrwt>
<rscale>  2 0.59281014E+03</rscale>
<asrwt>0</asrwt>
<pdfrwt beam="1">  1        1 0.17919459E+00 0.59281014E+03</pdfrwt>
<pdfrwt beam="2">  1       -1 0.46712028E-01 0.59281014E+03</pdfrwt>
<totfact> 0.54027488E+01</totfact>
</mgrwt>
</event>
<event>
 4    1  0.2318373E-002  0.4370617E+03  0.7818608E-02  0.1031652E+00
         -2   -1    0    0    0  501 -0.00000000000E+00  0.00000000000E+00  0.16722221038E+03  0.16722221038E+03  0.00000000000E+00 0.  1.
          2   -1    0    0  502    0  0.00000000000E+00 -0.00000000000E+00 -0.25821282133E+04  0.25821282133E+04  0.00000000000E+00 0. -1.
    9000005    1    1    2  502    0  0.17270016418E+03  0.34606625558E+02 -0.18094580293E+03  0.47303736516E+03  0.40000000000E+03 0.  1.
   -9000005    1    1    2    0  501 -0.17270016418E+03 -0.34606625558E+02 -0.22339602000E+04  0.22763130585E+04  0.40000000000E+03 0. -1.
<mgrwt>
<rscale>  2 0.43706174E+03</rscale>
<asrwt>0</asrwt>
<pdfrwt beam="1">  1        2 0.39725047E+00 0.43706174E+03</pdfrwt>
<pdfrwt beam="2">  1       -2 0.25726496E-01 0.43706174E+03</pdfrwt>
<totfact> 0.46833687E+01</totfact>
</mgrwt>
</event>
<event>
 4    1  0.2318373E-002  0.5232366E+03  0.7818608E-02  0.1007886E+00
          2   -1    0    0  502    0  0.00000000000E+00  0.00000000000E+00  0.11192844483E+04  0.11192844483E+04  0.00000000000E+00 0.  1.
         -2   -1    0    0    0  501 -0.00000000000E+00 -0.00000000000E+00 -0.27423420492E+03  0.27423420492E+03  0.00000000000E+00 0. -1.
    9000005    1    1    2  502    0 -0.27579901486E+03  0.19419446472E+03  0.19347993591E+03  0.55786295120E+03  0.40000000000E+03 0. -1.
   -9000005    1    1    2    0  501  0.27579901486E+03 -0.19419446472E+03  0.65157030742E+03  0.83565570198E+03  0.40000000000E+03 0.  1.
<mgrwt>
<rscale>  2 0.52323665E+03</rscale>
<asrwt>0</asrwt>
<pdfrwt beam="1">  1        2 0.17219760E+00 0.52323665E+03</pdfrwt>
<pdfrwt beam="2">  1       -2 0.42189878E-01 0.52323665E+03</pdfrwt>
<totfact> 0.11676243E+02</totfact>
</mgrwt>
</event>
<event>
 4    1  0.2318373E-002  0.4419848E+03  0.7818608E-02  0.1030140E+00
          2   -1    0    0  502    0  0.00000000000E+00  0.00000000000E+00  0.25405838377E+04  0.25405838377E+04  0.00000000000E+00 0.  1.
         -2   -1    0    0    0  501 -0.00000000000E+00 -0.00000000000E+00 -0.87226710962E+02  0.87226710962E+02  0.00000000000E+00 0. -1.
    9000005    1    1    2  502    0 -0.43907571993E+01  0.18796628710E+03  0.77441852482E+03  0.89166958870E+03  0.40000000000E+03 0. -1.
   -9000005    1    1    2    0  501  0.43907571993E+01 -0.18796628710E+03  0.16789386019E+04  0.17361409600E+04  0.40000000000E+03 0.  1.
<mgrwt>
<rscale>  2 0.44198485E+03</rscale>
<asrwt>0</asrwt>
<pdfrwt beam="1">  1        2 0.39085899E+00 0.44198485E+03</pdfrwt>
<pdfrwt beam="2">  1       -2 0.13419496E-01 0.44198485E+03</pdfrwt>
<totfact> 0.15122087E+02</totfact>
</mgrwt>
</event>
<event>
 4    1  0.2318373E-002  0.4252499E+03  0.7818608E-02  0.1035371E+00
         -2   -1    0    0    0  501 -0.00000000000E+00  0.00000000000E+00  0.82673918266E+02  0.82673918266E+02  0.00000000000E+00 0.  1.
          2   -1    0    0  502    0  0.00000000000E+00 -0.00000000000E+00 -0.23264929848E+04  0.23264929848E+04  0.00000000000E+00 0. -1.
    9000005    1    1    2  502    0 -0.10780779669E+03  0.95994498631E+02 -0.14164900605E+04  0.14789460965E+04  0.40000000000E+03 0. -1.
   -9000005    1    1    2    0  501  0.10780779669E+03 -0.95994498631E+02 -0.82732900610E+03  0.93022080665E+03  0.40000000000E+03 0. -1.
<mgrwt>
<rscale>  2 0.42524989E+03</rscale>
<asrwt>0</asrwt>
<pdfrwt beam="1">  1        2 0.35792194E+00 0.42524989E+03</pdfrwt>
<pdfrwt beam="2">  1       -2 0.12719066E-01 0.42524989E+03</pdfrwt>
<totfact> 0.21764238E+02</totfact>
</mgrwt>
</event>
<event>
 4    1  0.2318373E-002  0.6363101E+03  0.7818608E-02  0.9832812E-01
          2   -1    0    0  502    0  0.00000000000E+00  0.00000000000E+00  0.22804905550E+04  0.22804905550E+04  0.00000000000E+00 0. -1.
         -2   -1    0    0    0  501 -0.00000000000E+00 -0.00000000000E+00 -0.18073877145E+03  0.18073877145E+03  0.00000000000E+00 0.  1.
    9000005    1    1    2  502    0 -0.24714852555E+03 -0.42872848869E+03  0.12134535690E+04  0.13701679002E+04  0.40000000000E+03 0. -1.
   -9000005    1    1    2    0  501  0.24714852555E+03  0.42872848869E+03  0.88629821460E+03  0.10910614263E+04  0.40000000000E+03 0.  1.
<mgrwt>
<rscale>  2 0.63631007E+03</rscale>
<asrwt>0</asrwt>
<pdfrwt beam="1">  1        2 0.35084468E+00 0.63631007E+03</pdfrwt>
<pdfrwt beam="2">  1       -2 0.27805966E-01 0.63631007E+03</pdfrwt>
<totfact> 0.57684476E+01</totfact>
</mgrwt>
</event>
<event>
 4    1  0.2318373E-002  0.4693297E+03  0.7818608E-02  0.1022110E+00
          1   -1    0    0  502    0  0.00000000000E+00  0.00000000000E+00  0.37881168104E+04  0.37881168104E+04  0.00000000000E+00 0. -1.
         -1   -1    0    0    0  501 -0.00000000000E+00 -0.00000000000E+00 -0.60685181636E+02  0.60685181636E+02  0.00000000000E+00 0.  1.
    9000005    1    1    2  502    0  0.14003711285E+03 -0.20164325900E+03  0.22572233517E+04  0.23054994375E+04  0.40000000000E+03 0. -1.
   -9000005    1    1    2    0  501 -0.14003711285E+03  0.20164325900E+03  0.14702082770E+04  0.15433025545E+04  0.40000000000E+03 0.  1.
<mgrwt>
<rscale>  2 0.46932973E+03</rscale>
<asrwt>0</asrwt>
<pdfrwt beam="1">  1        1 0.58278701E+00 0.46932973E+03</pdfrwt>
<pdfrwt beam="2">  1       -1 0.93361848E-02 0.46932973E+03</pdfrwt>
<totfact> 0.11838415E+01</totfact>
</mgrwt>
</event>
<event>
 4    1  0.2318373E-002  0.4421515E+03  0.7818608E-02  0.1030089E+00
          1   -1    0    0  502    0  0.00000000000E+00  0.00000000000E+00  0.91857218456E+03  0.91857218456E+03  0.00000000000E+00 0.  1.
         -1   -1    0    0    0  501 -0.00000000000E+00 -0.00000000000E+00 -0.25357922104E+03  0.25357922104E+03  0.00000000000E+00 0. -1.
    9000005    1    1    2  502    0  0.18161868178E+03  0.50126005740E+02  0.56744176350E+03  0.71936646918E+03  0.40000000000E+03 0.  1.
   -9000005    1    1    2    0  501 -0.18161868178E+03 -0.50126005740E+02  0.97551200024E+02  0.45278493642E+03  0.40000000000E+03 0. -1.
<mgrwt>
<rscale>  2 0.44215151E+03</rscale>
<asrwt>0</asrwt>
<pdfrwt beam="1">  1        1 0.14131880E+00 0.44215151E+03</pdfrwt>
<pdfrwt beam="2">  1       -1 0.39012188E-01 0.44215151E+03</pdfrwt>
<totfact> 0.11746918E+02</totfact>
</mgrwt>
</event>
<event>
 4    1  0.2318373E-002  0.4102433E+03  0.7818608E-02  0.1040289E+00
          2   -1    0    0  502    0  0.00000000000E+00  0.00000000000E+00  0.24417917477E+04  0.24417917477E+04  0.00000000000E+00 0.  1.
         -2   -1    0    0    0  501 -0.00000000000E+00 -0.00000000000E+00 -0.71259578913E+02  0.71259578913E+02  0.00000000000E+00 0. -1.
    9000005    1    1    2  502    0 -0.12149029724E+02  0.90288287477E+02  0.14127177656E+04  0.14710781961E+04  0.40000000000E+03 0.  1.
   -9000005    1    1    2    0  501  0.12149029724E+02 -0.90288287477E+02  0.95781440325E+03  0.10419731306E+04  0.40000000000E+03 0. -1.
<mgrwt>
<rscale>  2 0.41024331E+03</rscale>
<asrwt>0</asrwt>
<pdfrwt beam="1">  1        2 0.37566020E+00 0.41024331E+03</pdfrwt>
<pdfrwt beam="2">  1       -2 0.10963014E-01 0.41024331E+03</pdfrwt>
<totfact> 0.24040030E+02</totfact>
</mgrwt>
</event>
<event>
 4    1  0.2318373E-002  0.4224395E+03  0.7818608E-02  0.1036275E+00
          3   -1    0    0  502    0  0.00000000000E+00  0.00000000000E+00  0.55448716215E+03  0.55448716215E+03  0.00000000000E+00 0. -1.
         -3   -1    0    0    0  501 -0.00000000000E+00 -0.00000000000E+00 -0.56449412627E+03  0.56449412627E+03  0.00000000000E+00 0.  1.
    9000005    1    1    2  502    0 -0.13584521878E+03 -0.11038064510E+01 -0.37182818933E+03  0.56277112953E+03  0.40000000000E+03 0.  1.
   -9000005    1    1    2    0  501  0.13584521878E+03  0.11038064510E+01  0.36182122521E+03  0.55621015890E+03  0.40000000000E+03 0. -1.
<mgrwt>
<rscale>  2 0.42243951E+03</rscale>
<asrwt>0</asrwt>
<pdfrwt beam="1">  1        3 0.85305717E-01 0.42243951E+03</pdfrwt>
<pdfrwt beam="2">  1       -3 0.86845250E-01 0.42243951E+03</pdfrwt>
<totfact> 0.39784420E+00</totfact>
</mgrwt>
</event>
<event>
 4    1  0.2318373E-002  0.7111705E+03  0.7818608E-02  0.9698318E-01
          1   -1    0    0  502    0  0.00000000000E+00  0.00000000000E+00  0.40422730282E+04  0.40422730282E+04  0.00000000000E+00 0. -1.
         -1   -1    0    0    0  501 -0.00000000000E+00 -0.00000000000E+00 -0.21790034504E+03  0.21790034504E+03  0.00000000000E+00 0.  1.
    9000005    1    1    2  502    0 -0.45814121201E+03  0.36860565084E+03  0.52223494591E+03  0.88232240973E+03  0.40000000000E+03 0.  1.
   -9000005    1    1    2    0  501  0.45814121201E+03 -0.36860565084E+03  0.33021377372E+04  0.33778509635E+04  0.40000000000E+03 0. -1.
<mgrwt>
<rscale>  2 0.71117051E+03</rscale>
<asrwt>0</asrwt>
<pdfrwt beam="1">  1        1 0.62188810E+00 0.71117051E+03</pdfrwt>
<pdfrwt beam="2">  1       -1 0.33523133E-01 0.71117051E+03</pdfrwt>
<totfact> 0.82544255E-01</totfact>
</mgrwt>
</event>
<event>
 4    1  0.2318373E-002  0.4075803E+03  0.7818608E-02  0.1041186E+00
          2   -1    0    0  502    0  0.00000000000E+00  0.00000000000E+00  0.47849214923E+03  0.47849214923E+03  0.00000000000E+00 0. -1.
         -2   -1    0    0    0  501 -0.00000000000E+00 -0.00000000000E+00 -0.34912284394E+03  0.34912284394E+03  0.00000000000E+00 0.  1.
    9000005    1    1    2  502    0  0.22955580909E+02 -0.74798258490E+02  0.95573408344E+02  0.41863589735E+03  0.40000000000E+03 0. -1.
   -9000005    1    1    2    0  501 -0.22955580909E+02  0.74798258490E+02  0.33795896947E+02  0.40897909582E+03  0.40000000000E+03 0. -1.
<mgrwt>
<rscale>  2 0.40758035E+03</rscale>
<asrwt>0</asrwt>
<pdfrwt beam="1">  1        2 0.73614177E-01 0.40758035E+03</pdfrwt>
<pdfrwt beam="2">  1       -2 0.53711207E-01 0.40758035E+03</pdfrwt>
<totfact> 0.21713121E+02</totfact>
</mgrwt>
</event>
<event>
 4    1  0.2318373E-002  0.7701940E+03  0.7818608E-02  0.9604191E-01
          2   -1    0    0  502    0  0.00000000000E+00  0.00000000000E+00  0.42763178511E+04  0.42763178511E+04  0.00000000000E+00 0.  1.
         -2   -1    0    0    0  501 -0.00000000000E+00 -0.00000000000E+00 -0.14017449956E+03  0.14017449956E+03  0.00000000000E+00 0. -1.
    9000005    1    1    2  502    0 -0.64780679810E+02 -0.65498263842E+03  0.18429128466E+04  0.19973799221E+04  0.40000000000E+03 0. -1.
   -9000005    1    1    2    0  501  0.64780679810E+02  0.65498263842E+03  0.22932305049E+04  0.24191124285E+04  0.40000000000E+03 0.  1.
<mgrwt>
<rscale>  2 0.77019400E+03</rscale>
<asrwt>0</asrwt>
<pdfrwt beam="1">  1        2 0.65789496E+00 0.77019400E+03</pdfrwt>
<pdfrwt beam="2">  1       -2 0.21565311E-01 0.77019400E+03</pdfrwt>
<totfact> 0.41451384E+00</totfact>
</mgrwt>
</event>
<event>
 4    1  0.2318373E-002  0.4145118E+03  0.7818608E-02  0.1038867E+00
         -1   -1    0    0    0  501 -0.00000000000E+00  0.00000000000E+00  0.55051651346E+03  0.55051651346E+03  0.00000000000E+00 0. -1.
          1   -1    0    0  502    0  0.00000000000E+00 -0.00000000000E+00 -0.35991062375E+03  0.35991062375E+03  0.00000000000E+00 0.  1.
    9000005    1    1    2  502    0 -0.10147077560E+02 -0.10824557274E+03  0.26120363588E+03  0.48994633032E+03  0.40000000000E+03 0. -1.
   -9000005    1    1    2    0  501  0.10147077560E+02  0.10824557274E+03 -0.70597746170E+02  0.42048080689E+03  0.40000000000E+03 0.  1.
<mgrwt>
<rscale>  2 0.41451184E+03</rscale>
<asrwt>0</asrwt>
<pdfrwt beam="1">  1        1 0.55370865E-01 0.41451184E+03</pdfrwt>
<pdfrwt beam="2">  1       -1 0.84694848E-01 0.41451184E+03</pdfrwt>
<totfact> 0.99622764E+01</totfact>
</mgrwt>
</event>
<event>
 4    1  0.2318373E-002  0.4435335E+03  0.7818608E-02  0.1029668E+00
          2   -1    0    0  502    0  0.00000000000E+00  0.00000000000E+00  0.39603776633E+04  0.39603776633E+04  0.00000000000E+00 0.  1.
         -2   -1    0    0    0  501 -0.00000000000E+00 -0.00000000000E+00 -0.54731444433E+02  0.54731444433E+02  0.00000000000E+00 0. -1.
    9000005    1    1    2  502    0 -0.16140414942E+03 -0.10329901812E+03  0.13424751770E+04  0.14138463805E+04  0.40000000000E+03 0. -1.
   -9000005    1    1    2    0  501  0.16140414942E+03  0.10329901812E+03  0.25631710419E+04  0.26012627273E+04  0.40000000000E+03 0.  1.
<mgrwt>
<rscale>  2 0.44353352E+03</rscale>
<asrwt>0</asrwt>
<pdfrwt beam="1">  1        2 0.60928865E+00 0.44353352E+03</pdfrwt>
<pdfrwt beam="2">  1       -2 0.84202253E-02 0.44353352E+03</pdfrwt>
<totfact> 0.39262932E+01</totfact>
</mgrwt>
</event>
<event>
 4    1  0.2318373E-002  0.4053835E+03  0.7818608E-02  0.1041931E+00
         -1   -1    0    0    0  501 -0.00000000000E+00  0.00000000000E+00  0.19786301161E+03  0.19786301161E+03  0.00000000000E+00 0. -1.
          1   -1    0    0  502    0  0.00000000000E+00 -0.00000000000E+00 -0.86673669240E+03  0.86673669240E+03  0.00000000000E+00 0.  1.
    9000005    1    1    2  502    0 -0.59875886749E+02  0.27397977279E+02 -0.22567724447E+03  0.46396766013E+03  0.40000000000E+03 0. -1.
   -9000005    1    1    2    0  501  0.59875886749E+02 -0.27397977279E+02 -0.44319643632E+03  0.60063204388E+03  0.40000000000E+03 0.  1.
<mgrwt>
<rscale>  2 0.40538349E+03</rscale>
<asrwt>0</asrwt>
<pdfrwt beam="1">  1        1 0.13334411E+00 0.40538349E+03</pdfrwt>
<pdfrwt beam="2">  1       -1 0.30440463E-01 0.40538349E+03</pdfrwt>
<totfact> 0.20083562E+02</totfact>
</mgrwt>
</event>
<event>
 4    1  0.2318373E-002  0.5021523E+03  0.7818608E-02  0.1013219E+00
         -1   -1    0    0    0  501 -0.00000000000E+00  0.00000000000E+00  0.31382987022E+03  0.31382987022E+03  0.00000000000E+00 0.  1.
          1   -1    0    0  502    0  0.00000000000E+00 -0.00000000000E+00 -0.82238065107E+03  0.82238065107E+03  0.00000000000E+00 0. -1.
    9000005    1    1    2  502    0 -0.18311819471E+03  0.24212522883E+03 -0.34039433452E+03  0.60665080783E+03  0.40000000000E+03 0.  1.
   -9000005    1    1    2    0  501  0.18311819471E+03 -0.24212522883E+03 -0.16815644633E+03  0.52955971345E+03  0.40000000000E+03 0.  1.
<mgrwt>
<rscale>  2 0.50215227E+03</rscale>
<asrwt>0</asrwt>
<pdfrwt beam="1">  1        1 0.12652010E+00 0.50215227E+03</pdfrwt>
<pdfrwt beam="2">  1       -1 0.48281519E-01 0.50215227E+03</pdfrwt>
<totfact> 0.94624868E+01</totfact>
</mgrwt>
</event>
<event>
 4    1  0.2318373E-002  0.5849617E+03  0.7818608E-02  0.9937106E-01
          2   -1    0    0  502    0  0.00000000000E+00  0.00000000000E+00  0.67701990073E+03  0.67701990073E+03  0.00000000000E+00 0. -1.
         -2   -1    0    0    0  501 -0.00000000000E+00 -0.00000000000E+00 -0.51940569751E+03  0.51940569751E+03  0.00000000000E+00 0.  1.
    9000005    1    1    2  502    0  0.24611282671E+03 -0.34872440308E+03  0.17696500461E+03  0.61114388292E+03  0.40000000000E+03 0. -1.
   -9000005    1    1    2    0  501 -0.24611282671E+03  0.34872440308E+03 -0.19350801394E+02  0.58528171532E+03  0.40000000000E+03 0. -1.
<mgrwt>
<rscale>  2 0.58496174E+03</rscale>
<asrwt>0</asrwt>
<pdfrwt beam="1">  1        2 0.10415691E+00 0.58496174E+03</pdfrwt>
<pdfrwt beam="2">  1       -2 0.79908569E-01 0.58496174E+03</pdfrwt>
<totfact> 0.60762305E+01</totfact>
</mgrwt>
</event>
<event>
 4    1  0.2318373E-002  0.4383800E+03  0.7818608E-02  0.1031245E+00
         -2   -1    0    0    0  501 -0.00000000000E+00  0.00000000000E+00  0.56426098068E+02  0.56426098068E+02  0.00000000000E+00 0. -1.
          2   -1    0    0  502    0  0.00000000000E+00 -0.00000000000E+00 -0.34310679845E+04  0.34310679845E+04  0.00000000000E+00 0.  1.
    9000005    1    1    2  502    0  0.39287597602E+02 -0.17502441144E+03 -0.18369077760E+04  0.18884933776E+04  0.40000000000E+03 0.  1.
   -9000005    1    1    2    0  501 -0.39287597602E+02  0.17502441144E+03 -0.15377341105E+04  0.15990007050E+04  0.40000000000E+03 0. -1.
<mgrwt>
<rscale>  2 0.43838004E+03</rscale>
<asrwt>0</asrwt>
<pdfrwt beam="1">  1        2 0.52785680E+00 0.43838004E+03</pdfrwt>
<pdfrwt beam="2">  1       -2 0.86809352E-02 0.43838004E+03</pdfrwt>
<totfact> 0.88996846E+01</totfact>
</mgrwt>
</event>
<event>
 4    1  0.2318373E-002  0.4264254E+03  0.7818608E-02  0.1034995E+00
         -2   -1    0    0    0  501 -0.00000000000E+00  0.00000000000E+00  0.35084195588E+03  0.35084195588E+03  0.00000000000E+00 0.  1.
          2   -1    0    0  502    0  0.00000000000E+00 -0.00000000000E+00 -0.54179277859E+03  0.54179277859E+03  0.00000000000E+00 0. -1.
    9000005    1    1    2  502    0  0.10318548576E+03 -0.10578940643E+03 -0.18842909837E+03  0.46620185338E+03  0.40000000000E+03 0. -1.
   -9000005    1    1    2    0  501 -0.10318548576E+03  0.10578940643E+03 -0.25217243331E+01  0.42643288109E+03  0.40000000000E+03 0.  1.
<mgrwt>
<rscale>  2 0.42642542E+03</rscale>
<asrwt>0</asrwt>
<pdfrwt beam="1">  1        2 0.83352735E-01 0.42642542E+03</pdfrwt>
<pdfrwt beam="2">  1       -2 0.53975686E-01 0.42642542E+03</pdfrwt>
<totfact> 0.18621422E+02</totfact>
</mgrwt>
</event>
<event>
 4    1  0.2318373E-002  0.7634733E+03  0.7818608E-02  0.9614447E-01
         -1   -1    0    0    0  501 -0.00000000000E+00  0.00000000000E+00  0.76302109792E+03  0.76302109792E+03  0.00000000000E+00 0.  1.
          1   -1    0    0  502    0  0.00000000000E+00 -0.00000000000E+00 -0.82745192726E+03  0.82745192726E+03  0.00000000000E+00 0. -1.
    9000005    1    1    2  502    0 -0.37087707012E+03  0.53417379913E+03  0.18812865046E+03  0.78631026824E+03  0.40000000000E+03 0. -1.
   -9000005    1    1    2    0  501  0.37087707012E+03 -0.53417379913E+03 -0.25255947980E+03  0.80416275694E+03  0.40000000000E+03 0. -1.
<mgrwt>
<rscale>  2 0.76347328E+03</rscale>
<asrwt>0</asrwt>
<pdfrwt beam="1">  1        1 0.12730030E+00 0.76347328E+03</pdfrwt>
<pdfrwt beam="2">  1       -1 0.11738786E+00 0.76347328E+03</pdfrwt>
<totfact> 0.14053224E+01</totfact>
</mgrwt>
</event>
<event>
 4    1  0.2318373E-002  0.5932640E+03  0.7818608E-02  0.9919481E-01
          1   -1    0    0  502    0  0.00000000000E+00  0.00000000000E+00  0.14254962095E+04  0.14254962095E+04  0.00000000000E+00 0. -1.
         -1   -1    0    0    0  501 -0.00000000000E+00 -0.00000000000E+00 -0.36767335791E+03  0.36767335791E+03  0.00000000000E+00 0.  1.
    9000005    1    1    2  502    0 -0.41928841131E+03  0.12711949872E+03  0.15060826442E+02  0.59345510976E+03  0.40000000000E+03 0.  1.
   -9000005    1    1    2    0  501  0.41928841131E+03 -0.12711949872E+03  0.10427620252E+04  0.11997144577E+04  0.40000000000E+03 0. -1.
<mgrwt>
<rscale>  2 0.59326397E+03</rscale>
<asrwt>0</asrwt>
<pdfrwt beam="1">  1        1 0.21930711E+00 0.59326397E+03</pdfrwt>
<pdfrwt beam="2">  1       -1 0.56565132E-01 0.59326397E+03</pdfrwt>
<totfact> 0.24621463E+01</totfact>
</mgrwt>
</event>
<event>
 4    1  0.2318373E-002  0.4001556E+03  0.7818608E-02  0.1043726E+00
         -2   -1    0    0    0  501 -0.00000000000E+00  0.00000000000E+00  0.24109444787E+03  0.24109444787E+03  0.00000000000E+00 0. -1.
          2   -1    0    0  502    0  0.00000000000E+00 -0.00000000000E+00 -0.11615236010E+04  0.11615236010E+04  0.00000000000E+00 0.  1.
    9000005    1    1    2  502    0 -0.27005991892E+01  0.10827001505E+02 -0.12979376067E+01  0.40015772120E+03  0.40000000000E+03 0. -1.
   -9000005    1    1    2    0  501  0.27005991892E+01 -0.10827001505E+02 -0.91913121557E+03  0.10024603277E+04  0.40000000000E+03 0.  1.
<mgrwt>
<rscale>  2 0.40015562E+03</rscale>
<asrwt>0</asrwt>
<pdfrwt beam="1">  1        2 0.17869594E+00 0.40015562E+03</pdfrwt>
<pdfrwt beam="2">  1       -2 0.37091454E-01 0.40015562E+03</pdfrwt>
<totfact> 0.14342228E+02</totfact>
</mgrwt>
</event>
<event>
 4    1  0.2318373E-002  0.6620165E+03  0.7818608E-02  0.9784489E-01
         -2   -1    0    0    0  501 -0.00000000000E+00  0.00000000000E+00  0.37857777966E+03  0.37857777966E+03  0.00000000000E+00 0. -1.
          2   -1    0    0  502    0  0.00000000000E+00 -0.00000000000E+00 -0.13089846480E+04  0.13089846480E+04  0.00000000000E+00 0.  1.
    9000005    1    1    2  502    0  0.51424068346E+03 -0.11756836800E+03 -0.17831574123E+03  0.68561089931E+03  0.40000000000E+03 0. -1.
   -9000005    1    1    2    0  501 -0.51424068346E+03  0.11756836800E+03 -0.75209112707E+03  0.10019515283E+04  0.40000000000E+03 0.  1.
<mgrwt>
<rscale>  2 0.66201647E+03</rscale>
<asrwt>0</asrwt>
<pdfrwt beam="1">  1        2 0.20138226E+00 0.66201647E+03</pdfrwt>
<pdfrwt beam="2">  1       -2 0.58242735E-01 0.66201647E+03</pdfrwt>
<totfact> 0.46342719E+01</totfact>
</mgrwt>
</event>
<event>
 4    1  0.2318373E-002  0.6812723E+03  0.7818608E-02  0.9749806E-01
         -1   -1    0    0    0  501 -0.00000000000E+00  0.00000000000E+00  0.57245373868E+03  0.57245373868E+03  0.00000000000E+00 0.  1.
          1   -1    0    0  502    0  0.00000000000E+00 -0.00000000000E+00 -0.11022373225E+04  0.11022373225E+04  0.00000000000E+00 0. -1.
    9000005    1    1    2  502    0  0.43278910338E+03  0.34179755822E+03  0.16569164634E+03  0.70113172833E+03  0.40000000000E+03 0.  1.
   -9000005    1    1    2    0  501 -0.43278910338E+03 -0.34179755822E+03 -0.69547523017E+03  0.97355933285E+03  0.40000000000E+03 0. -1.
<mgrwt>
<rscale>  2 0.68127232E+03</rscale>
<asrwt>0</asrwt>
<pdfrwt beam="1">  1        1 0.16957497E+00 0.68127232E+03</pdfrwt>
<pdfrwt beam="2">  1       -1 0.88069807E-01 0.68127232E+03</pdfrwt>
<totfact> 0.16653047E+01</totfact>
</mgrwt>
</event>
<event>
 4    1  0.2318373E-002  0.5055647E+03  0.7818608E-02  0.1012337E+00
         -2   -1    0    0    0  501 -0.00000000000E+00  0.00000000000E+00  0.13829230199E+04  0.13829230199E+04  0.00000000000E+00 0. -1.
          2   -1    0    0  502    0  0.00000000000E+00 -0.00000000000E+00 -0.33913745261E+03  0.33913745261E+03  0.00000000000E+00 0.  1.
    9000005    1    1    2  502    0  0.22206280056E+03  0.21513664868E+03 -0.58917301610E+02  0.50898616232E+03  0.40000000000E+03 0.  1.
   -9000005    1    1    2    0  501 -0.22206280056E+03 -0.21513664868E+03  0.11027028689E+04  0.12130743102E+04  0.40000000000E+03 0. -1.
<mgrwt>
<rscale>  2 0.50556470E+03</rscale>
<asrwt>0</asrwt>
<pdfrwt beam="1">  1        2 0.52174994E-01 0.50556470E+03</pdfrwt>
<pdfrwt beam="2">  1       -2 0.21275738E+00 0.50556470E+03</pdfrwt>
<totfact> 0.11059674E+01</totfact>
</mgrwt>
</event>
<event>
 4    1  0.2318373E-002  0.4035498E+03  0.7818608E-02  0.1042557E+00
          3   -1    0    0  502    0  0.00000000000E+00  0.00000000000E+00  0.90892793221E+03  0.90892793221E+03  0.00000000000E+00 0.  1.
         -3   -1    0    0    0  501 -0.00000000000E+00 -0.00000000000E+00 -0.21675912706E+03  0.21675912706E+03  0.00000000000E+00 0. -1.
    9000005    1    1    2  502    0 -0.16893346791E+02  0.50666397517E+02  0.11169873810E+03  0.41872315090E+03  0.40000000000E+03 0. -1.
   -9000005    1    1    2    0  501  0.16893346791E+02 -0.50666397517E+02  0.58047006705E+03  0.70696390837E+03  0.40000000000E+03 0.  1.
<mgrwt>
<rscale>  2 0.40354983E+03</rscale>
<asrwt>0</asrwt>
<pdfrwt beam="1">  1        3 0.13983506E+00 0.40354983E+03</pdfrwt>
<pdfrwt beam="2">  1       -3 0.33347558E-01 0.40354983E+03</pdfrwt>
<totfact> 0.89691725E+00</totfact>
</mgrwt>
</event>
<event>
 4    1  0.2318373E-002  0.4792022E+03  0.7818608E-02  0.1019355E+00
         -2   -1    0    0    0  501 -0.00000000000E+00  0.00000000000E+00  0.37393308767E+03  0.37393308767E+03  0.00000000000E+00 0.  1.
          2   -1    0    0  502    0  0.00000000000E+00 -0.00000000000E+00 -0.12387897745E+04  0.12387897745E+04  0.00000000000E+00 0. -1.
    9000005    1    1    2  502    0  0.24481769826E+03 -0.98483960727E+02 -0.10050408480E+04  0.11134369771E+04  0.40000000000E+03 0. -1.
   -9000005    1    1    2    0  501 -0.24481769826E+03  0.98483960727E+02  0.14018416121E+03  0.49928588499E+03  0.40000000000E+03 0.  1.
<mgrwt>
<rscale>  2 0.47920225E+03</rscale>
<asrwt>0</asrwt>
<pdfrwt beam="1">  1        2 0.19058304E+00 0.47920225E+03</pdfrwt>
<pdfrwt beam="2">  1       -2 0.57528167E-01 0.47920225E+03</pdfrwt>
<totfact> 0.53428051E+01</totfact>
</mgrwt>
</event>
<event>
 4    1  0.2318373E-002  0.5772957E+03  0.7818608E-02  0.9953663E-01
         -2   -1    0    0    0  501 -0.00000000000E+00  0.00000000000E+00  0.25363120942E+03  0.25363120942E+03  0.00000000000E+00 0.  1.
          2   -1    0    0  502    0  0.00000000000E+00 -0.00000000000E+00 -0.17731815793E+04  0.17731815793E+04  0.00000000000E+00 0. -1.
    9000005    1    1    2  502    0  0.21653879839E+02 -0.41569390810E+03 -0.12754801376E+04  0.14000428197E+04  0.40000000000E+03 0. -1.
   -9000005    1    1    2    0  501 -0.21653879839E+02  0.41569390810E+03 -0.24407023233E+03  0.62676996901E+03  0.40000000000E+03 0.  1.
<mgrwt>
<rscale>  2 0.57729569E+03</rscale>
<asrwt>0</asrwt>
<pdfrwt beam="1">  1        2 0.27279715E+00 0.57729569E+03</pdfrwt>
<pdfrwt beam="2">  1       -2 0.39020188E-01 0.57729569E+03</pdfrwt>
<totfact> 0.58089407E+01</totfact>
</mgrwt>
</event>
<event>
 4    1  0.2318373E-002  0.4972075E+03  0.7818608E-02  0.1014510E+00
         -2   -1    0    0    0  501 -0.00000000000E+00  0.00000000000E+00  0.63165341950E+03  0.63165341950E+03  0.00000000000E+00 0.  1.
          2   -1    0    0  502    0  0.00000000000E+00 -0.00000000000E+00 -0.41165278407E+03  0.41165278407E+03  0.00000000000E+00 0. -1.
    9000005    1    1    2  502    0 -0.28697772897E+03  0.69707404571E+02  0.22576948423E+03  0.54606519683E+03  0.40000000000E+03 0. -1.
   -9000005    1    1    2    0  501  0.28697772897E+03 -0.69707404571E+02 -0.57688487942E+01  0.49724100675E+03  0.40000000000E+03 0.  1.
<mgrwt>
<rscale>  2 0.49720754E+03</rscale>
<asrwt>0</asrwt>
<pdfrwt beam="1">  1        2 0.63331198E-01 0.49720754E+03</pdfrwt>
<pdfrwt beam="2">  1       -2 0.97177449E-01 0.49720754E+03</pdfrwt>
<totfact> 0.69966204E+01</totfact>
</mgrwt>
</event>
<event>
 4    1  0.2318373E-002  0.4931147E+03  0.7818608E-02  0.1015592E+00
         -1   -1    0    0    0  501 -0.00000000000E+00  0.00000000000E+00  0.47778576503E+03  0.47778576503E+03  0.00000000000E+00 0. -1.
          1   -1    0    0  502    0  0.00000000000E+00 -0.00000000000E+00 -0.53822654921E+03  0.53822654921E+03  0.00000000000E+00 0.  1.
    9000005    1    1    2  502    0  0.13081854609E+03  0.25699918059E+03  0.88289584444E+02  0.50095620722E+03  0.40000000000E+03 0. -1.
   -9000005    1    1    2    0  501 -0.13081854609E+03 -0.25699918059E+03 -0.14873036863E+03  0.51505610702E+03  0.40000000000E+03 0.  1.
<mgrwt>
<rscale>  2 0.49311466E+03</rscale>
<asrwt>0</asrwt>
<pdfrwt beam="1">  1        1 0.82804084E-01 0.49311466E+03</pdfrwt>
<pdfrwt beam="2">  1       -1 0.73505503E-01 0.49311466E+03</pdfrwt>
<totfact> 0.77823531E+01</totfact>
</mgrwt>
</event>
<event>
 4    1  0.2318373E-002  0.4245292E+03  0.7818608E-02  0.1035602E+00
         -1   -1    0    0    0  501 -0.00000000000E+00  0.00000000000E+00  0.97332627856E+02  0.97332627856E+02  0.00000000000E+00 0. -1.
          1   -1    0    0  502    0  0.00000000000E+00 -0.00000000000E+00 -0.19872954652E+04  0.19872954652E+04  0.00000000000E+00 0.  1.
    9000005    1    1    2  502    0  0.35017632313E+02  0.13783630974E+03 -0.67265834419E+03  0.79542085142E+03  0.40000000000E+03 0. -1.
   -9000005    1    1    2    0  501 -0.35017632313E+02 -0.13783630974E+03 -0.12173044932E+04  0.12892072417E+04  0.40000000000E+03 0.  1.
<mgrwt>
<rscale>  2 0.42452925E+03</rscale>
<asrwt>0</asrwt>
<pdfrwt beam="1">  1        1 0.30573774E+00 0.42452925E+03</pdfrwt>
<pdfrwt beam="2">  1       -1 0.14974252E-01 0.42452925E+03</pdfrwt>
<totfact> 0.10772527E+02</totfact>
</mgrwt>
</event>
<event>
 4    1  0.2318373E-002  0.4004149E+03  0.7818608E-02  0.1043636E+00
         -2   -1    0    0    0  501 -0.00000000000E+00  0.00000000000E+00  0.33049990492E+03  0.33049990492E+03  0.00000000000E+00 0.  1.
          2   -1    0    0  502    0  0.00000000000E+00 -0.00000000000E+00 -0.67052764337E+03  0.67052764337E+03  0.00000000000E+00 0. -1.
    9000005    1    1    2  502    0  0.93495216612E+01  0.15641902391E+02 -0.43320522292E+03  0.58991427160E+03  0.40000000000E+03 0. -1.
   -9000005    1    1    2    0  501 -0.93495216612E+01 -0.15641902391E+02  0.93177484475E+02  0.41111327670E+03  0.40000000000E+03 0.  1.
<mgrwt>
<rscale>  2 0.40041489E+03</rscale>
<asrwt>0</asrwt>
<pdfrwt beam="1">  1        2 0.10315810E+00 0.40041489E+03</pdfrwt>
<pdfrwt beam="2">  1       -2 0.50846139E-01 0.40041489E+03</pdfrwt>
<totfact> 0.16360349E+02</totfact>
</mgrwt>
</event>
<event>
 4    1  0.2318373E-002  0.5333949E+03  0.7818608E-02  0.1005412E+00
          1   -1    0    0  502    0  0.00000000000E+00  0.00000000000E+00  0.23217613231E+03  0.23217613231E+03  0.00000000000E+00 0.  1.
         -1   -1    0    0    0  501 -0.00000000000E+00 -0.00000000000E+00 -0.12292385517E+04  0.12292385517E+04  0.00000000000E+00 0. -1.
    9000005    1    1    2  502    0  0.29823349961E+03  0.18859195473E+03 -0.53932932368E+03  0.75854219729E+03  0.40000000000E+03 0.  1.
   -9000005    1    1    2    0  501 -0.29823349961E+03 -0.18859195473E+03 -0.45773309568E+03  0.70287248670E+03  0.40000000000E+03 0. -1.
<mgrwt>
<rscale>  2 0.53339492E+03</rscale>
<asrwt>0</asrwt>
<pdfrwt beam="1">  1        1 0.35719405E-01 0.53339492E+03</pdfrwt>
<pdfrwt beam="2">  1       -1 0.18911362E+00 0.53339492E+03</pdfrwt>
<totfact> 0.23070879E+01</totfact>
</mgrwt>
</event>
<event>
 4    1  0.2318373E-002  0.4335543E+03  0.7818608E-02  0.1032743E+00
         -1   -1    0    0    0  501 -0.00000000000E+00  0.00000000000E+00  0.18269753538E+03  0.18269753538E+03  0.00000000000E+00 0. -1.
          1   -1    0    0  502    0  0.00000000000E+00 -0.00000000000E+00 -0.10316747696E+04  0.10316747696E+04  0.00000000000E+00 0.  1.
    9000005    1    1    2  502    0  0.98992507093E+02  0.13479551023E+03 -0.39274719544E+03  0.58499547482E+03  0.40000000000E+03 0. -1.
   -9000005    1    1    2    0  501 -0.98992507093E+02 -0.13479551023E+03 -0.45623003876E+03  0.62937683013E+03  0.40000000000E+03 0.  1.
<mgrwt>
<rscale>  2 0.43355432E+03</rscale>
<asrwt>0</asrwt>
<pdfrwt beam="1">  1        1 0.15871919E+00 0.43355432E+03</pdfrwt>
<pdfrwt beam="2">  1       -1 0.28107314E-01 0.43355432E+03</pdfrwt>
<totfact> 0.17068318E+02</totfact>
</mgrwt>
</event>
<event>
 4    1  0.2318373E-002  0.4874268E+03  0.7818608E-02  0.1017114E+00
         -2   -1    0    0    0  501 -0.00000000000E+00  0.00000000000E+00  0.43864093913E+03  0.43864093913E+03  0.00000000000E+00 0. -1.
          2   -1    0    0  502    0  0.00000000000E+00 -0.00000000000E+00 -0.63899521914E+03  0.63899521914E+03  0.00000000000E+00 0.  1.
    9000005    1    1    2  502    0  0.10755265908E+03 -0.25693834788E+03 -0.31049491090E+03  0.57792039139E+03  0.40000000000E+03 0.  1.
   -9000005    1    1    2    0  501 -0.10755265908E+03  0.25693834788E+03  0.11014063089E+03  0.49971576687E+03  0.40000000000E+03 0. -1.
<mgrwt>
<rscale>  2 0.48742680E+03</rscale>
<asrwt>0</asrwt>
<pdfrwt beam="1">  1        2 0.98306956E-01 0.48742680E+03</pdfrwt>
<pdfrwt beam="2">  1       -2 0.67483222E-01 0.48742680E+03</pdfrwt>
<totfact> 0.95362122E+01</totfact>
</mgrwt>
</event>
<event>
 4    1  0.2318373E-002  0.6214893E+03  0.7818608E-02  0.9861799E-01
         -2   -1    0    0    0  501 -0.00000000000E+00  0.00000000000E+00  0.80526050512E+03  0.80526050512E+03  0.00000000000E+00 0. -1.
          2   -1    0    0  502    0  0.00000000000E+00 -0.00000000000E+00 -0.53055944571E+03  0.53055944571E+03  0.00000000000E+00 0.  1.
    9000005    1    1    2  502    0 -0.32887444311E+03  0.34364303833E+03  0.34423109989E+03  0.71045336741E+03  0.40000000000E+03 0.  1.
   -9000005    1    1    2    0  501  0.32887444311E+03 -0.34364303833E+03 -0.69530040482E+02  0.62536658342E+03  0.40000000000E+03 0. -1.
<mgrwt>
<rscale>  2 0.62148929E+03</rscale>
<asrwt>0</asrwt>
<pdfrwt beam="1">  1        2 0.81624530E-01 0.62148929E+03</pdfrwt>
<pdfrwt beam="2">  1       -2 0.12388623E+00 0.62148929E+03</pdfrwt>
<totfact> 0.28844248E+01</totfact>
</mgrwt>
</event>
<event>
 4    1  0.2318373E-002  0.6122085E+03  0.7818608E-02  0.9880396E-01
          2   -1    0    0  502    0  0.00000000000E+00  0.00000000000E+00  0.15045608829E+04  0.15045608829E+04  0.00000000000E+00 0.  1.
         -2   -1    0    0    0  501 -0.00000000000E+00 -0.00000000000E+00 -0.25056575335E+03  0.25056575335E+03  0.00000000000E+00 0. -1.
    9000005    1    1    2  502    0  0.44848720365E+03  0.11686934149E+03  0.69391733171E+03  0.92537585773E+03  0.40000000000E+03 0. -1.
   -9000005    1    1    2    0  501 -0.44848720365E+03 -0.11686934149E+03  0.56007779784E+03  0.82975077852E+03  0.40000000000E+03 0.  1.
<mgrwt>
<rscale>  2 0.61220847E+03</rscale>
<asrwt>0</asrwt>
<pdfrwt beam="1">  1        2 0.23147090E+00 0.61220847E+03</pdfrwt>
<pdfrwt beam="2">  1       -2 0.38548578E-01 0.61220847E+03</pdfrwt>
<totfact> 0.82966053E+01</totfact>
</mgrwt>
</event>
<event>
 4    1  0.2318373E-002  0.4524733E+03  0.7818608E-02  0.1026987E+00
          2   -1    0    0  502    0  0.00000000000E+00  0.00000000000E+00  0.13885457278E+04  0.13885457278E+04  0.00000000000E+00 0. -1.
         -2   -1    0    0    0  501 -0.00000000000E+00 -0.00000000000E+00 -0.18482069183E+03  0.18482069183E+03  0.00000000000E+00 0.  1.
    9000005    1    1    2  502    0 -0.18965941980E+03  0.93602362652E+02  0.24808707239E+03  0.51602257053E+03  0.40000000000E+03 0.  1.
   -9000005    1    1    2    0  501  0.18965941980E+03 -0.93602362652E+02  0.95563796362E+03  0.10573438491E+04  0.40000000000E+03 0. -1.
<mgrwt>
<rscale>  2 0.45247331E+03</rscale>
<asrwt>0</asrwt>
<pdfrwt beam="1">  1        2 0.21362241E+00 0.45247331E+03</pdfrwt>
<pdfrwt beam="2">  1       -2 0.28433954E-01 0.45247331E+03</pdfrwt>
<totfact> 0.17360245E+02</totfact>
</mgrwt>
</event>
<event>
 4    1  0.2318373E-002  0.5662411E+03  0.7818608E-02  0.9978031E-01
          2   -1    0    0  502    0  0.00000000000E+00  0.00000000000E+00  0.21872062521E+04  0.21872062521E+04  0.00000000000E+00 0. -1.
         -2   -1    0    0    0  501 -0.00000000000E+00 -0.00000000000E+00 -0.16537623579E+03  0.16537623579E+03  0.00000000000E+00 0.  1.
    9000005    1    1    2  502    0  0.78990473636E+02  0.39292425534E+03  0.14073430505E+04  0.15169849793E+04  0.40000000000E+03 0. -1.
   -9000005    1    1    2    0  501 -0.78990473636E+02 -0.39292425534E+03  0.61448696578E+03  0.83559750866E+03  0.40000000000E+03 0.  1.
<mgrwt>
<rscale>  2 0.56624108E+03</rscale>
<asrwt>0</asrwt>
<pdfrwt beam="1">  1        2 0.33649325E+00 0.56624108E+03</pdfrwt>
<pdfrwt beam="2">  1       -2 0.25442499E-01 0.56624108E+03</pdfrwt>
<totfact> 0.77060763E+01</totfact>
</mgrwt>
</event>
<event>
 4    1  0.2318373E-002  0.5266306E+03  0.7818608E-02  0.1007053E+00
          2   -1    0    0  502    0  0.00000000000E+00  0.00000000000E+00  0.11887944746E+04  0.11887944746E+04  0.00000000000E+00 0. -1.
         -2   -1    0    0    0  501 -0.00000000000E+00 -0.00000000000E+00 -0.28170929240E+03  0.28170929240E+03  0.00000000000E+00 0.  1.
    9000005    1    1    2  502    0  0.31918320365E+03 -0.12434560313E+03  0.75834793849E+03  0.92327208466E+03  0.40000000000E+03 0.  1.
   -9000005    1    1    2    0  501 -0.31918320365E+03  0.12434560313E+03  0.14873724375E+03  0.54723168237E+03  0.40000000000E+03 0.  1.
<mgrwt>
<rscale>  2 0.52663056E+03</rscale>
<asrwt>0</asrwt>
<pdfrwt beam="1">  1        2 0.18289145E+00 0.52663056E+03</pdfrwt>
<pdfrwt beam="2">  1       -2 0.43339892E-01 0.52663056E+03</pdfrwt>
<totfact> 0.10068943E+02</totfact>
</mgrwt>
</event>
<event>
 4    1  0.2318373E-002  0.4066133E+03  0.7818608E-02  0.1041513E+00
         -2   -1    0    0    0  501 -0.00000000000E+00  0.00000000000E+00  0.10212089978E+04  0.10212089978E+04  0.00000000000E+00 0. -1.
          2   -1    0    0  502    0  0.00000000000E+00 -0.00000000000E+00 -0.50434145912E+03  0.50434145912E+03  0.00000000000E+00 0.  1.
    9000005    1    1    2  502    0  0.22047354811E+02 -0.69629543043E+02  0.88696524086E+03  0.97572624112E+03  0.40000000000E+03 0. -1.
   -9000005    1    1    2    0  501 -0.22047354811E+02  0.69629543043E+02 -0.37009770218E+03  0.54982421580E+03  0.40000000000E+03 0.  1.
<mgrwt>
<rscale>  2 0.40661328E+03</rscale>
<asrwt>0</asrwt>
<pdfrwt beam="1">  1        2 0.77590994E-01 0.40661328E+03</pdfrwt>
<pdfrwt beam="2">  1       -2 0.15710908E+00 0.40661328E+03</pdfrwt>
<totfact> 0.17069540E+01</totfact>
</mgrwt>
</event>
<event>
 4    1  0.2318373E-002  0.4228217E+03  0.7818608E-02  0.1036152E+00
         -1   -1    0    0    0  501 -0.00000000000E+00  0.00000000000E+00  0.68873335232E+03  0.68873335232E+03  0.00000000000E+00 0. -1.
          1   -1    0    0  502    0  0.00000000000E+00 -0.00000000000E+00 -0.30405015149E+03  0.30405015149E+03  0.00000000000E+00 0.  1.
    9000005    1    1    2  502    0 -0.10877260331E+03 -0.83346973172E+02  0.38219089192E+03  0.56995444997E+03  0.40000000000E+03 0. -1.
   -9000005    1    1    2    0  501  0.10877260331E+03  0.83346973172E+02  0.24923089099E+01  0.42282905384E+03  0.40000000000E+03 0.  1.
<mgrwt>
<rscale>  2 0.42282171E+03</rscale>
<asrwt>0</asrwt>
<pdfrwt beam="1">  1        1 0.46776947E-01 0.42282171E+03</pdfrwt>
<pdfrwt beam="2">  1       -1 0.10595898E+00 0.42282171E+03</pdfrwt>
<totfact> 0.75281008E+01</totfact>
</mgrwt>
</event>
<event>
 4    1  0.2318373E-002  0.4229988E+03  0.7818608E-02  0.1036095E+00
         -2   -1    0    0    0  501 -0.00000000000E+00  0.00000000000E+00  0.73066233203E+03  0.73066233203E+03  0.00000000000E+00 0.  1.
          2   -1    0    0  502    0  0.00000000000E+00 -0.00000000000E+00 -0.24510094817E+03  0.24510094817E+03  0.00000000000E+00 0. -1.
    9000005    1    1    2  502    0  0.48642252764E+02 -0.12869302197E+03  0.25727525770E+03  0.49509445653E+03  0.40000000000E+03 0. -1.
   -9000005    1    1    2    0  501 -0.48642252764E+02  0.12869302197E+03  0.22828612615E+03  0.48066882367E+03  0.40000000000E+03 0. -1.
<mgrwt>
<rscale>  2 0.42299877E+03</rscale>
<asrwt>0</asrwt>
<pdfrwt beam="1">  1        2 0.37707839E-01 0.42299877E+03</pdfrwt>
<pdfrwt beam="2">  1       -2 0.11240959E+00 0.42299877E+03</pdfrwt>
<totfact> 0.88175031E+01</totfact>
</mgrwt>
</event>
<event>
 4    1  0.2318373E-002  0.4067266E+03  0.7818608E-02  0.1041475E+00
          1   -1    0    0  502    0  0.00000000000E+00  0.00000000000E+00  0.13314412170E+04  0.13314412170E+04  0.00000000000E+00 0.  1.
         -1   -1    0    0    0  501 -0.00000000000E+00 -0.00000000000E+00 -0.13742049074E+03  0.13742049074E+03  0.00000000000E+00 0. -1.
    9000005    1    1    2  502    0  0.73629892646E+02  0.22740985556E+01  0.36961137424E+03  0.54958084081E+03  0.40000000000E+03 0.  1.
   -9000005    1    1    2    0  501 -0.73629892646E+02 -0.22740985556E+01  0.82440935197E+03  0.91928086689E+03  0.40000000000E+03 0.  1.
<mgrwt>
<rscale>  2 0.40672661E+03</rscale>
<asrwt>0</asrwt>
<pdfrwt beam="1">  1        1 0.20483710E+00 0.40672661E+03</pdfrwt>
<pdfrwt beam="2">  1       -1 0.21141615E-01 0.40672661E+03</pdfrwt>
<totfact> 0.16854282E+02</totfact>
</mgrwt>
</event>
<event>
 4    1  0.2318373E-002  0.4883167E+03  0.7818608E-02  0.1016874E+00
         -1   -1    0    0    0  501 -0.00000000000E+00  0.00000000000E+00  0.11050578354E+03  0.11050578354E+03  0.00000000000E+00 0.  1.
          1   -1    0    0  502    0  0.00000000000E+00 -0.00000000000E+00 -0.25688967363E+04  0.25688967363E+04  0.00000000000E+00 0. -1.
    9000005    1    1    2  502    0 -0.15714786271E+03  0.23185711232E+03 -0.69328958371E+03  0.84799977487E+03  0.40000000000E+03 0.  1.
   -9000005    1    1    2    0  501  0.15714786271E+03 -0.23185711232E+03 -0.17651013690E+04  0.18314027450E+04  0.40000000000E+03 0.  1.
<mgrwt>
<rscale>  2 0.48831667E+03</rscale>
<asrwt>0</asrwt>
<pdfrwt beam="1">  1        1 0.39521489E+00 0.48831667E+03</pdfrwt>
<pdfrwt beam="2">  1       -1 0.17000890E-01 0.48831667E+03</pdfrwt>
<totfact> 0.35493137E+01</totfact>
</mgrwt>
</event>
<event>
 4    1  0.2318373E-002  0.4040023E+03  0.7818608E-02  0.1042403E+00
          1   -1    0    0  502    0  0.00000000000E+00  0.00000000000E+00  0.15790791589E+04  0.15790791589E+04  0.00000000000E+00 0.  1.
         -1   -1    0    0    0  501 -0.00000000000E+00 -0.00000000000E+00 -0.16511596377E+03  0.16511596377E+03  0.00000000000E+00 0. -1.
    9000005    1    1    2  502    0  0.56717608311E+02  0.97352391413E+00  0.12403172429E+04  0.13044557094E+04  0.40000000000E+03 0.  1.
   -9000005    1    1    2    0  501 -0.56717608311E+02 -0.97352391413E+00  0.17364595225E+03  0.43973941326E+03  0.40000000000E+03 0. -1.
<mgrwt>
<rscale>  2 0.40400227E+03</rscale>
<asrwt>0</asrwt>
<pdfrwt beam="1">  1        1 0.24293524E+00 0.40400227E+03</pdfrwt>
<pdfrwt beam="2">  1       -1 0.25402457E-01 0.40400227E+03</pdfrwt>
<totfact> 0.84331734E+01</totfact>
</mgrwt>
</event>
<event>
 4    1  0.2318373E-002  0.6411640E+03  0.7818608E-02  0.9823502E-01
         -1   -1    0    0    0  501 -0.00000000000E+00  0.00000000000E+00  0.69166825901E+03  0.69166825901E+03  0.00000000000E+00 0.  1.
          1   -1    0    0  502    0  0.00000000000E+00 -0.00000000000E+00 -0.62061190938E+03  0.62061190938E+03  0.00000000000E+00 0. -1.
    9000005    1    1    2  502    0  0.41383521129E+03 -0.28254494896E+03  0.17050871975E+03  0.66344890820E+03  0.40000000000E+03 0.  1.
   -9000005    1    1    2    0  501 -0.41383521129E+03  0.28254494896E+03 -0.99452370114E+02  0.64883126019E+03  0.40000000000E+03 0. -1.
<mgrwt>
<rscale>  2 0.64116397E+03</rscale>
<asrwt>0</asrwt>
<pdfrwt beam="1">  1        1 0.95478755E-01 0.64116397E+03</pdfrwt>
<pdfrwt beam="2">  1       -1 0.10641050E+00 0.64116397E+03</pdfrwt>
<totfact> 0.27910735E+01</totfact>
</mgrwt>
</event>
<event>
 4    1  0.2318373E-002  0.5498330E+03  0.7818608E-02  0.1001533E+00
          1   -1    0    0  502    0  0.00000000000E+00  0.00000000000E+00  0.56397702926E+03  0.56397702926E+03  0.00000000000E+00 0. -1.
         -1   -1    0    0    0  501 -0.00000000000E+00 -0.00000000000E+00 -0.53643368054E+03  0.53643368054E+03  0.00000000000E+00 0.  1.
    9000005    1    1    2  502    0 -0.37271294511E+03 -0.58320989135E+02 -0.10652471406E+01  0.54983398583E+03  0.40000000000E+03 0. -1.
   -9000005    1    1    2    0  501  0.37271294511E+03  0.58320989135E+02  0.28608595860E+02  0.55057672397E+03  0.40000000000E+03 0.  1.
<mgrwt>
<rscale>  2 0.54983295E+03</rscale>
<asrwt>0</asrwt>
<pdfrwt beam="1">  1        1 0.86765697E-01 0.54983295E+03</pdfrwt>
<pdfrwt beam="2">  1       -1 0.82528259E-01 0.54983295E+03</pdfrwt>
<totfact> 0.56869682E+01</totfact>
</mgrwt>
</event>
<event>
 4    1  0.2318373E-002  0.5273546E+03  0.7818608E-02  0.1006876E+00
          2   -1    0    0  502    0  0.00000000000E+00  0.00000000000E+00  0.11519889159E+04  0.11519889159E+04  0.00000000000E+00 0.  1.
         -2   -1    0    0    0  501 -0.00000000000E+00 -0.00000000000E+00 -0.26202504051E+03  0.26202504051E+03  0.00000000000E+00 0. -1.
    9000005    1    1    2  502    0  0.11012676319E+03  0.32553798616E+03  0.64328666061E+03  0.83181765557E+03  0.40000000000E+03 0.  1.
   -9000005    1    1    2    0  501 -0.11012676319E+03 -0.32553798616E+03  0.24667721474E+03  0.58219630081E+03  0.40000000000E+03 0. -1.
<mgrwt>
<rscale>  2 0.52735461E+03</rscale>
<asrwt>0</asrwt>
<pdfrwt beam="1">  1        2 0.17722906E+00 0.52735461E+03</pdfrwt>
<pdfrwt beam="2">  1       -2 0.40311545E-01 0.52735461E+03</pdfrwt>
<totfact> 0.12194853E+02</totfact>
</mgrwt>
</event>
<event>
 4    1  0.2318373E-002  0.6423617E+03  0.7818608E-02  0.9821218E-01
          2   -1    0    0  502    0  0.00000000000E+00  0.00000000000E+00  0.60525239290E+03  0.60525239290E+03  0.00000000000E+00 0. -1.
         -2   -1    0    0    0  501 -0.00000000000E+00 -0.00000000000E+00 -0.68174633979E+03  0.68174633979E+03  0.00000000000E+00 0.  1.
    9000005    1    1    2  502    0  0.39248102702E+03  0.31398592955E+03 -0.37958400024E+02  0.64348221472E+03  0.40000000000E+03 0. -1.
   -9000005    1    1    2    0  501 -0.39248102702E+03 -0.31398592955E+03 -0.38535546869E+02  0.64351651797E+03  0.40000000000E+03 0.  1.
<mgrwt>
<rscale>  2 0.64236167E+03</rscale>
<asrwt>0</asrwt>
<pdfrwt beam="1">  1        2 0.93115753E-01 0.64236167E+03</pdfrwt>
<pdfrwt beam="2">  1       -2 0.10488405E+00 0.64236167E+03</pdfrwt>
<totfact> 0.36956478E+01</totfact>
</mgrwt>
</event>
<event>
 4    1  0.2318373E-002  0.4407914E+03  0.7818608E-02  0.1030504E+00
          2   -1    0    0  502    0  0.00000000000E+00  0.00000000000E+00  0.25297358072E+04  0.25297358072E+04  0.00000000000E+00 0.  1.
         -2   -1    0    0    0  501 -0.00000000000E+00 -0.00000000000E+00 -0.99219840988E+02  0.99219840988E+02  0.00000000000E+00 0. -1.
    9000005    1    1    2  502    0  0.53545050815E+02 -0.17728504175E+03  0.59048944474E+03  0.73686826696E+03  0.40000000000E+03 0. -1.
   -9000005    1    1    2    0  501 -0.53545050815E+02  0.17728504175E+03  0.18400265214E+04  0.18920873812E+04  0.40000000000E+03 0.  1.
<mgrwt>
<rscale>  2 0.44079140E+03</rscale>
<asrwt>0</asrwt>
<pdfrwt beam="1">  1        2 0.38919008E+00 0.44079140E+03</pdfrwt>
<pdfrwt beam="2">  1       -2 0.15264593E-01 0.44079140E+03</pdfrwt>
<totfact> 0.12373841E+02</totfact>
</mgrwt>
</event>
<event>
 4    1  0.2318373E-002  0.5867842E+03  0.7818608E-02  0.9933210E-01
          2   -1    0    0  502    0  0.00000000000E+00  0.00000000000E+00  0.86218139623E+03  0.86218139623E+03  0.00000000000E+00 0.  1.
         -2   -1    0    0    0  501 -0.00000000000E+00 -0.00000000000E+00 -0.64477165483E+03  0.64477165483E+03  0.00000000000E+00 0. -1.
    9000005    1    1    2  502    0 -0.55382463137E+02 -0.42573284269E+03  0.57356208515E+03  0.82054197704E+03  0.40000000000E+03 0.  1.
   -9000005    1    1    2    0  501  0.55382463137E+02  0.42573284269E+03 -0.35615234375E+03  0.68641107402E+03  0.40000000000E+03 0. -1.
<mgrwt>
<rscale>  2 0.58678418E+03</rscale>
<asrwt>0</asrwt>
<pdfrwt beam="1">  1        2 0.13264329E+00 0.58678418E+03</pdfrwt>
<pdfrwt beam="2">  1       -2 0.99195639E-01 0.58678418E+03</pdfrwt>
<totfact> 0.27057617E+01</totfact>
</mgrwt>
</event>
<event>
 4    1  0.2318373E-002  0.4741326E+03  0.7818608E-02  0.1020760E+00
         -1   -1    0    0    0  501 -0.00000000000E+00  0.00000000000E+00  0.20697345129E+03  0.20697345129E+03  0.00000000000E+00 0. -1.
          1   -1    0    0  502    0  0.00000000000E+00 -0.00000000000E+00 -0.11940592608E+04  0.11940592608E+04  0.00000000000E+00 0.  1.
    9000005    1    1    2  502    0 -0.16406613724E+03 -0.19463823435E+03 -0.28294271660E+03  0.55213976540E+03  0.40000000000E+03 0.  1.
   -9000005    1    1    2    0  501  0.16406613724E+03  0.19463823435E+03 -0.70414309294E+03  0.84889294672E+03  0.40000000000E+03 0. -1.
<mgrwt>
<rscale>  2 0.47413262E+03</rscale>
<asrwt>0</asrwt>
<pdfrwt beam="1">  1        1 0.18370142E+00 0.47413262E+03</pdfrwt>
<pdfrwt beam="2">  1       -1 0.31842070E-01 0.47413262E+03</pdfrwt>
<totfact> 0.10411149E+02</totfact>
</mgrwt>
</event>
<event>
 4    1  0.2318373E-002  0.4022026E+03  0.7818608E-02  0.1043020E+00
         -2   -1    0    0    0  501 -0.00000000000E+00  0.00000000000E+00  0.11813248692E+03  0.11813248692E+03  0.00000000000E+00 0.  1.
          2   -1    0    0  502    0  0.00000000000E+00 -0.00000000000E+00 -0.14237493567E+04  0.14237493567E+04  0.00000000000E+00 0. -1.
    9000005    1    1    2  502    0 -0.40132962494E+02  0.12499614864E+02 -0.80347876325E+03  0.89852379937E+03  0.40000000000E+03 0.  1.
   -9000005    1    1    2    0  501  0.40132962494E+02 -0.12499614864E+02 -0.50213810653E+03  0.64335804423E+03  0.40000000000E+03 0.  1.
<mgrwt>
<rscale>  2 0.40220255E+03</rscale>
<asrwt>0</asrwt>
<pdfrwt beam="1">  1        2 0.21903838E+00 0.40220255E+03</pdfrwt>
<pdfrwt beam="2">  1       -2 0.18174228E-01 0.40220255E+03</pdfrwt>
<totfact> 0.36771645E+02</totfact>
</mgrwt>
</event>
<event>
 4    1  0.2318373E-002  0.4420097E+03  0.7818608E-02  0.1030132E+00
         -1   -1    0    0    0  501 -0.00000000000E+00  0.00000000000E+00  0.75533687189E+03  0.75533687189E+03  0.00000000000E+00 0. -1.
          1   -1    0    0  502    0  0.00000000000E+00 -0.00000000000E+00 -0.25970585233E+03  0.25970585233E+03  0.00000000000E+00 0.  1.
    9000005    1    1    2  502    0  0.12287067511E+01 -0.18807187822E+03  0.21554968708E+03  0.49176641681E+03  0.40000000000E+03 0.  1.
   -9000005    1    1    2    0  501 -0.12287067511E+01  0.18807187822E+03  0.28008133248E+03  0.52327630741E+03  0.40000000000E+03 0. -1.
<mgrwt>
<rscale>  2 0.44200966E+03</rscale>
<asrwt>0</asrwt>
<pdfrwt beam="1">  1        1 0.39954747E-01 0.44200966E+03</pdfrwt>
<pdfrwt beam="2">  1       -1 0.11620567E+00 0.44200966E+03</pdfrwt>
<totfact> 0.74038455E+01</totfact>
</mgrwt>
</event>
<event>
 4    1  0.2318373E-002  0.4511604E+03  0.7818608E-02  0.1027377E+00
         -2   -1    0    0    0  501 -0.00000000000E+00  0.00000000000E+00  0.13211620692E+03  0.13211620692E+03  0.00000000000E+00 0.  1.
          2   -1    0    0  502    0  0.00000000000E+00 -0.00000000000E+00 -0.15517576688E+04  0.15517576688E+04  0.00000000000E+00 0. -1.
    9000005    1    1    2  502    0 -0.15590261005E+03  0.13870857762E+03 -0.63860893964E+03  0.78189965540E+03  0.40000000000E+03 0. -1.
   -9000005    1    1    2    0  501  0.15590261005E+03 -0.13870857762E+03 -0.78103252227E+03  0.90197422035E+03  0.40000000000E+03 0.  1.
<mgrwt>
<rscale>  2 0.45116039E+03</rscale>
<asrwt>0</asrwt>
<pdfrwt beam="1">  1        2 0.23873194E+00 0.45116039E+03</pdfrwt>
<pdfrwt beam="2">  1       -2 0.20325571E-01 0.45116039E+03</pdfrwt>
<totfact> 0.25667108E+02</totfact>
</mgrwt>
</event>
<event>
 4    1  0.2318373E-002  0.4295023E+03  0.7818608E-02  0.1034017E+00
          1   -1    0    0  502    0  0.00000000000E+00  0.00000000000E+00  0.51566876299E+03  0.51566876299E+03  0.00000000000E+00 0.  1.
         -1   -1    0    0    0  501 -0.00000000000E+00 -0.00000000000E+00 -0.45082714841E+03  0.45082714841E+03  0.00000000000E+00 0. -1.
    9000005    1    1    2  502    0  0.51055395708E+02 -0.14787007251E+03 -0.18717498979E+03  0.46851540912E+03  0.40000000000E+03 0. -1.
   -9000005    1    1    2    0  501 -0.51055395708E+02  0.14787007251E+03  0.25201660436E+03  0.49798050228E+03  0.40000000000E+03 0.  1.
<mgrwt>
<rscale>  2 0.42950228E+03</rscale>
<asrwt>0</asrwt>
<pdfrwt beam="1">  1        1 0.79333656E-01 0.42950228E+03</pdfrwt>
<pdfrwt beam="2">  1       -1 0.69358022E-01 0.42950228E+03</pdfrwt>
<totfact> 0.93589302E+01</totfact>
</mgrwt>
</event>
<event>
 4    1  0.2318373E-002  0.4520751E+03  0.7818608E-02  0.1027105E+00
          1   -1    0    0  502    0  0.00000000000E+00  0.00000000000E+00  0.24747728033E+04  0.24747728033E+04  0.00000000000E+00 0. -1.
         -1   -1    0    0    0  501 -0.00000000000E+00 -0.00000000000E+00 -0.30574030319E+03  0.30574030319E+03  0.00000000000E+00 0.  1.
    9000005    1    1    2  502    0 -0.21061121036E+03  0.38482058841E+01 -0.10323378086E+03  0.46371230750E+03  0.40000000000E+03 0.  1.
   -9000005    1    1    2    0  501  0.21061121036E+03 -0.38482058841E+01  0.22722662809E+04  0.23168007990E+04  0.40000000000E+03 0. -1.
<mgrwt>
<rscale>  2 0.45207509E+03</rscale>
<asrwt>0</asrwt>
<pdfrwt beam="1">  1        1 0.38073427E+00 0.45207509E+03</pdfrwt>
<pdfrwt beam="2">  1       -1 0.47036971E-01 0.45207509E+03</pdfrwt>
<totfact> 0.71779648E+00</totfact>
</mgrwt>
</event>
<event>
 4    1  0.2318373E-002  0.4066169E+03  0.7818608E-02  0.1041512E+00
          1   -1    0    0  502    0  0.00000000000E+00  0.00000000000E+00  0.11974748427E+04  0.11974748427E+04  0.00000000000E+00 0. -1.
         -1   -1    0    0    0  501 -0.00000000000E+00 -0.00000000000E+00 -0.22889204742E+03  0.22889204742E+03  0.00000000000E+00 0.  1.
    9000005    1    1    2  502    0  0.70355698898E+02 -0.19681076463E+02  0.93353067165E+03  0.10182420066E+04  0.40000000000E+03 0. -1.
   -9000005    1    1    2    0  501 -0.70355698898E+02  0.19681076463E+02  0.35052123612E+02  0.40812488347E+03  0.40000000000E+03 0.  1.
<mgrwt>
<rscale>  2 0.40661686E+03</rscale>
<asrwt>0</asrwt>
<pdfrwt beam="1">  1        1 0.18422690E+00 0.40661686E+03</pdfrwt>
<pdfrwt beam="2">  1       -1 0.35214162E-01 0.40661686E+03</pdfrwt>
<totfact> 0.87671810E+01</totfact>
</mgrwt>
</event>
<event>
 4    1  0.2318373E-002  0.4100030E+03  0.7818608E-02  0.1040370E+00
          2   -1    0    0  502    0  0.00000000000E+00  0.00000000000E+00  0.10148669320E+04  0.10148669320E+04  0.00000000000E+00 0.  1.
         -2   -1    0    0    0  501 -0.00000000000E+00 -0.00000000000E+00 -0.16696080824E+03  0.16696080824E+03  0.00000000000E+00 0. -1.
    9000005    1    1    2  502    0 -0.86170488395E+02  0.26021914894E+02  0.47651210003E+03  0.62862252155E+03  0.40000000000E+03 0.  1.
   -9000005    1    1    2    0  501  0.86170488395E+02 -0.26021914894E+02  0.37139402376E+03  0.55320521871E+03  0.40000000000E+03 0. -1.
<mgrwt>
<rscale>  2 0.41000304E+03</rscale>
<asrwt>0</asrwt>
<pdfrwt beam="1">  1        2 0.15613337E+00 0.41000304E+03</pdfrwt>
<pdfrwt beam="2">  1       -2 0.25686279E-01 0.41000304E+03</pdfrwt>
<totfact> 0.34599187E+02</totfact>
</mgrwt>
</event>
<event>
 4    1  0.2318373E-002  0.4553479E+03  0.7818608E-02  0.1026139E+00
          2   -1    0    0  502    0  0.00000000000E+00  0.00000000000E+00  0.21911357946E+04  0.21911357946E+04  0.00000000000E+00 0.  1.
         -2   -1    0    0    0  501 -0.00000000000E+00 -0.00000000000E+00 -0.13668986973E+03  0.13668986973E+03  0.00000000000E+00 0. -1.
    9000005    1    1    2  502    0 -0.15931843095E+03  0.14818673582E+03  0.38156987294E+03  0.59408521194E+03  0.40000000000E+03 0. -1.
   -9000005    1    1    2    0  501  0.15931843095E+03 -0.14818673582E+03  0.16728760520E+04  0.17337404524E+04  0.40000000000E+03 0.  1.
<mgrwt>
<rscale>  2 0.45534786E+03</rscale>
<asrwt>0</asrwt>
<pdfrwt beam="1">  1        2 0.33709779E+00 0.45534786E+03</pdfrwt>
<pdfrwt beam="2">  1       -2 0.21029212E-01 0.45534786E+03</pdfrwt>
<totfact> 0.10949982E+02</totfact>
</mgrwt>
</event>
<event>
 4    1  0.2318373E-002  0.4373282E+03  0.7818608E-02  0.1031570E+00
         -2   -1    0    0    0  501 -0.00000000000E+00  0.00000000000E+00  0.19877400507E+03  0.19877400507E+03  0.00000000000E+00 0.  1.
          2   -1    0    0  502    0  0.00000000000E+00 -0.00000000000E+00 -0.96699422093E+03  0.96699422093E+03  0.00000000000E+00 0. -1.
    9000005    1    1    2  502    0 -0.36502159347E+02  0.17298411370E+03 -0.42524760496E+03  0.60999298091E+03  0.40000000000E+03 0. -1.
   -9000005    1    1    2    0  501  0.36502159347E+02 -0.17298411370E+03 -0.34297261090E+03  0.55577524509E+03  0.40000000000E+03 0. -1.
<mgrwt>
<rscale>  2 0.43732815E+03</rscale>
<asrwt>0</asrwt>
<pdfrwt beam="1">  1        2 0.14876834E+00 0.43732815E+03</pdfrwt>
<pdfrwt beam="2">  1       -2 0.30580617E-01 0.43732815E+03</pdfrwt>
<totfact> 0.26940490E+02</totfact>
</mgrwt>
</event>
<event>
 4    1  0.2318373E-002  0.6266836E+03  0.7818608E-02  0.9851542E-01
          2   -1    0    0  502    0  0.00000000000E+00  0.00000000000E+00  0.28974995174E+03  0.28974995174E+03  0.00000000000E+00 0.  1.
         -2   -1    0    0    0  501 -0.00000000000E+00 -0.00000000000E+00 -0.14372944532E+04  0.14372944532E+04  0.00000000000E+00 0. -1.
    9000005    1    1    2  502    0 -0.45856155080E+03 -0.14984520329E+03 -0.36767114554E+03  0.72657714806E+03  0.40000000000E+03 0.  1.
   -9000005    1    1    2    0  501  0.45856155080E+03  0.14984520329E+03 -0.77987335592E+03  0.10004672569E+04  0.40000000000E+03 0.  1.
<mgrwt>
<rscale>  2 0.62668356E+03</rscale>
<asrwt>0</asrwt>
<pdfrwt beam="1">  1        2 0.44576914E-01 0.62668356E+03</pdfrwt>
<pdfrwt beam="2">  1       -2 0.22112223E+00 0.62668356E+03</pdfrwt>
<totfact> 0.11482543E+01</totfact>
</mgrwt>
</event>
<event>
 4    1  0.2318373E-002  0.4417638E+03  0.7818608E-02  0.1030207E+00
          1   -1    0    0  502    0  0.00000000000E+00  0.00000000000E+00  0.11323833778E+04  0.11323833778E+04  0.00000000000E+00 0.  1.
         -1   -1    0    0    0  501 -0.00000000000E+00 -0.00000000000E+00 -0.25063796863E+03  0.25063796863E+03  0.00000000000E+00 0. -1.
    9000005    1    1    2  502    0 -0.88378597145E+02  0.16536153986E+03  0.82737320233E+03  0.93792410739E+03  0.40000000000E+03 0.  1.
   -9000005    1    1    2    0  501  0.88378597145E+02 -0.16536153986E+03  0.54372206799E+02  0.44509723900E+03  0.40000000000E+03 0.  1.
<mgrwt>
<rscale>  2 0.44176376E+03</rscale>
<asrwt>0</asrwt>
<pdfrwt beam="1">  1        1 0.17421282E+00 0.44176376E+03</pdfrwt>
<pdfrwt beam="2">  1       -1 0.38559688E-01 0.44176376E+03</pdfrwt>
<totfact> 0.82654453E+01</totfact>
</mgrwt>
</event>
<event>
 4    1  0.2318373E-002  0.4245324E+03  0.7818608E-02  0.1035601E+00
         -2   -1    0    0    0  501 -0.00000000000E+00  0.00000000000E+00  0.48861736542E+03  0.48861736542E+03  0.00000000000E+00 0. -1.
          2   -1    0    0  502    0  0.00000000000E+00 -0.00000000000E+00 -0.37555671158E+03  0.37555671158E+03  0.00000000000E+00 0.  1.
    9000005    1    1    2  502    0 -0.78361423532E+02  0.11868977996E+03 -0.12000899275E+01  0.42453411733E+03  0.40000000000E+03 0. -1.
   -9000005    1    1    2    0  501  0.78361423532E+02 -0.11868977996E+03  0.11426074377E+03  0.43963995966E+03  0.40000000000E+03 0.  1.
<mgrwt>
<rscale>  2 0.42453242E+03</rscale>
<asrwt>0</asrwt>
<pdfrwt beam="1">  1        2 0.57777956E-01 0.42453242E+03</pdfrwt>
<pdfrwt beam="2">  1       -2 0.75171902E-01 0.42453242E+03</pdfrwt>
<totfact> 0.13934964E+02</totfact>
</mgrwt>
</event>
<event>
 4    1  0.2318373E-002  0.4343801E+03  0.7818608E-02  0.1032485E+00
          2   -1    0    0  502    0  0.00000000000E+00  0.00000000000E+00  0.14290417815E+04  0.14290417815E+04  0.00000000000E+00 0.  1.
         -2   -1    0    0    0  501 -0.00000000000E+00 -0.00000000000E+00 -0.13225112432E+03  0.13225112432E+03  0.00000000000E+00 0. -1.
    9000005    1    1    2  502    0 -0.16497798457E+03 -0.38318399012E+02  0.67982495419E+03  0.80675151282E+03  0.40000000000E+03 0. -1.
   -9000005    1    1    2    0  501  0.16497798457E+03  0.38318399012E+02  0.61696570300E+03  0.75454139302E+03  0.40000000000E+03 0.  1.
<mgrwt>
<rscale>  2 0.43438006E+03</rscale>
<asrwt>0</asrwt>
<pdfrwt beam="1">  1        2 0.21985257E+00 0.43438006E+03</pdfrwt>
<pdfrwt beam="2">  1       -2 0.20346328E-01 0.43438006E+03</pdfrwt>
<totfact> 0.29964452E+02</totfact>
</mgrwt>
</event>
<event>
 4    1  0.2318373E-002  0.4201353E+03  0.7818608E-02  0.1037022E+00
          1   -1    0    0  502    0  0.00000000000E+00  0.00000000000E+00  0.93861796815E+03  0.93861796815E+03  0.00000000000E+00 0.  1.
         -1   -1    0    0    0  501 -0.00000000000E+00 -0.00000000000E+00 -0.23479417598E+03  0.23479417598E+03  0.00000000000E+00 0. -1.
    9000005    1    1    2  502    0 -0.10492970343E+03 -0.74185142466E+02  0.61367483771E+03  0.74371398028E+03  0.40000000000E+03 0.  1.
   -9000005    1    1    2    0  501  0.10492970343E+03  0.74185142466E+02  0.90148954463E+02  0.42969816385E+03  0.40000000000E+03 0. -1.
<mgrwt>
<rscale>  2 0.42013531E+03</rscale>
<asrwt>0</asrwt>
<pdfrwt beam="1">  1        1 0.14440276E+00 0.42013531E+03</pdfrwt>
<pdfrwt beam="2">  1       -1 0.36122181E-01 0.42013531E+03</pdfrwt>
<totfact> 0.13027364E+02</totfact>
</mgrwt>
</event>
<event>
 4    1  0.2318373E-002  0.4946292E+03  0.7818608E-02  0.1015190E+00
          2   -1    0    0  502    0  0.00000000000E+00  0.00000000000E+00  0.22298399042E+04  0.22298399042E+04  0.00000000000E+00 0.  1.
         -2   -1    0    0    0  501 -0.00000000000E+00 -0.00000000000E+00 -0.11272496195E+03  0.11272496195E+03  0.00000000000E+00 0. -1.
    9000005    1    1    2  502    0 -0.17219290687E+03 -0.23453699618E+03  0.12497945886E+04  0.13441147694E+04  0.40000000000E+03 0. -1.
   -9000005    1    1    2    0  501  0.17219290687E+03  0.23453699618E+03  0.86732035368E+03  0.99845009673E+03  0.40000000000E+03 0. -1.
<mgrwt>
<rscale>  2 0.49462915E+03</rscale>
<asrwt>0</asrwt>
<pdfrwt beam="1">  1        2 0.34305226E+00 0.49462915E+03</pdfrwt>
<pdfrwt beam="2">  1       -2 0.17342303E-01 0.49462915E+03</pdfrwt>
<totfact> 0.14453772E+02</totfact>
</mgrwt>
</event>
<event>
 4    1  0.2318373E-002  0.4266192E+03  0.7818608E-02  0.1034933E+00
         -2   -1    0    0    0  501 -0.00000000000E+00  0.00000000000E+00  0.48478769769E+03  0.48478769769E+03  0.00000000000E+00 0. -1.
          2   -1    0    0  502    0  0.00000000000E+00 -0.00000000000E+00 -0.42103136899E+03  0.42103136899E+03  0.00000000000E+00 0.  1.
    9000005    1    1    2  502    0  0.13429042909E+03  0.63007808113E+02  0.18093181146E+03  0.46340071604E+03  0.40000000000E+03 0. -1.
   -9000005    1    1    2    0  501 -0.13429042909E+03 -0.63007808113E+02 -0.11717548275E+03  0.44241835064E+03  0.40000000000E+03 0.  1.
<mgrwt>
<rscale>  2 0.42661915E+03</rscale>
<asrwt>0</asrwt>
<pdfrwt beam="1">  1        2 0.64774057E-01 0.42661915E+03</pdfrwt>
<pdfrwt beam="2">  1       -2 0.74582723E-01 0.42661915E+03</pdfrwt>
<totfact> 0.12488737E+02</totfact>
</mgrwt>
</event>
<event>
 4    1  0.2318373E-002  0.4188479E+03  0.7818608E-02  0.1037442E+00
          2   -1    0    0  502    0  0.00000000000E+00  0.00000000000E+00  0.11559586111E+04  0.11559586111E+04  0.00000000000E+00 0.  1.
         -2   -1    0    0    0  501 -0.00000000000E+00 -0.00000000000E+00 -0.16121702272E+03  0.16121702272E+03  0.00000000000E+00 0. -1.
    9000005    1    1    2  502    0  0.29856228434E+02  0.12059100639E+03  0.33790041339E+03  0.53815450808E+03  0.40000000000E+03 0. -1.
   -9000005    1    1    2    0  501 -0.29856228434E+02 -0.12059100639E+03  0.65684117502E+03  0.77902112577E+03  0.40000000000E+03 0.  1.
<mgrwt>
<rscale>  2 0.41884793E+03</rscale>
<asrwt>0</asrwt>
<pdfrwt beam="1">  1        2 0.17783978E+00 0.41884793E+03</pdfrwt>
<pdfrwt beam="2">  1       -2 0.24802620E-01 0.41884793E+03</pdfrwt>
<totfact> 0.30257658E+02</totfact>
</mgrwt>
</event>
<event>
 4    1  0.2318373E-002  0.4319373E+03  0.7818608E-02  0.1033250E+00
         -2   -1    0    0    0  501 -0.00000000000E+00  0.00000000000E+00  0.31998896974E+03  0.31998896974E+03  0.00000000000E+00 0. -1.
          2   -1    0    0  502    0  0.00000000000E+00 -0.00000000000E+00 -0.18473792373E+04  0.18473792373E+04  0.00000000000E+00 0.  1.
    9000005    1    1    2  502    0 -0.10384807161E+03  0.12563983106E+03  0.13281384995E+03  0.45189523992E+03  0.40000000000E+03 0. -1.
   -9000005    1    1    2    0  501  0.10384807161E+03 -0.12563983106E+03 -0.16602041175E+04  0.17154729671E+04  0.40000000000E+03 0.  1.
<mgrwt>
<rscale>  2 0.43193725E+03</rscale>
<asrwt>0</asrwt>
<pdfrwt beam="1">  1        2 0.28421219E+00 0.43193725E+03</pdfrwt>
<pdfrwt beam="2">  1       -2 0.49229073E-01 0.43193725E+03</pdfrwt>
<totfact> 0.34386817E+01</totfact>
</mgrwt>
</event>
<event>
 4    1  0.2318373E-002  0.4848229E+03  0.7818608E-02  0.1017818E+00
          2   -1    0    0  502    0  0.00000000000E+00  0.00000000000E+00  0.27836610199E+03  0.27836610199E+03  0.00000000000E+00 0.  1.
         -2   -1    0    0    0  501 -0.00000000000E+00 -0.00000000000E+00 -0.91466281666E+03  0.91466281666E+03  0.00000000000E+00 0. -1.
    9000005    1    1    2  502    0  0.65071386687E+02  0.26611832794E+03 -0.15282161783E+03  0.50833817160E+03  0.40000000000E+03 0.  1.
   -9000005    1    1    2    0  501 -0.65071386687E+02 -0.26611832794E+03 -0.48347509684E+03  0.68469074705E+03  0.40000000000E+03 0. -1.
<mgrwt>
<rscale>  2 0.48482291E+03</rscale>
<asrwt>0</asrwt>
<pdfrwt beam="1">  1        2 0.42825553E-01 0.48482291E+03</pdfrwt>
<pdfrwt beam="2">  1       -2 0.14071736E+00 0.48482291E+03</pdfrwt>
<totfact> 0.43615783E+01</totfact>
</mgrwt>
</event>
<event>
 4    1  0.2318373E-002  0.4251606E+03  0.7818608E-02  0.1035400E+00
         -2   -1    0    0    0  501 -0.00000000000E+00  0.00000000000E+00  0.23206608233E+03  0.23206608233E+03  0.00000000000E+00 0. -1.
          2   -1    0    0  502    0  0.00000000000E+00 -0.00000000000E+00 -0.79066660934E+03  0.79066660934E+03  0.00000000000E+00 0.  1.
    9000005    1    1    2  502    0  0.13985477892E+03  0.34671978146E+02 -0.21697781449E+03  0.47732680339E+03  0.40000000000E+03 0. -1.
   -9000005    1    1    2    0  501 -0.13985477892E+03 -0.34671978146E+02 -0.34162271252E+03  0.54540588827E+03  0.40000000000E+03 0. -1.
<mgrwt>
<rscale>  2 0.42516056E+03</rscale>
<asrwt>0</asrwt>
<pdfrwt beam="1">  1        2 0.12164102E+00 0.42516056E+03</pdfrwt>
<pdfrwt beam="2">  1       -2 0.35702474E-01 0.42516056E+03</pdfrwt>
<totfact> 0.26506930E+02</totfact>
</mgrwt>
</event>
<event>
 4    1  0.2318373E-002  0.4367654E+03  0.7818608E-02  0.1031744E+00
          2   -1    0    0  502    0  0.00000000000E+00  0.00000000000E+00  0.25893891433E+03  0.25893891433E+03  0.00000000000E+00 0. -1.
         -2   -1    0    0    0  501 -0.00000000000E+00 -0.00000000000E+00 -0.73765313453E+03  0.73765313453E+03  0.00000000000E+00 0.  1.
    9000005    1    1    2  502    0  0.12545456030E+03  0.12257707984E+03 -0.25713450776E+03  0.50683541933E+03  0.40000000000E+03 0.  1.
   -9000005    1    1    2    0  501 -0.12545456030E+03 -0.12257707984E+03 -0.22157971245E+03  0.48975662953E+03  0.40000000000E+03 0.  1.
<mgrwt>
<rscale>  2 0.43676537E+03</rscale>
<asrwt>0</asrwt>
<pdfrwt beam="1">  1        2 0.39836756E-01 0.43676537E+03</pdfrwt>
<pdfrwt beam="2">  1       -2 0.11348510E+00 0.43676537E+03</pdfrwt>
<totfact> 0.81034910E+01</totfact>
</mgrwt>
</event>
<event>
 4    1  0.2318373E-002  0.5900099E+03  0.7818608E-02  0.9926352E-01
         -2   -1    0    0    0  501 -0.00000000000E+00  0.00000000000E+00  0.36563738229E+03  0.36563738229E+03  0.00000000000E+00 0.  1.
          2   -1    0    0  502    0  0.00000000000E+00 -0.00000000000E+00 -0.95247024245E+03  0.95247024245E+03  0.00000000000E+00 0. -1.
    9000005    1    1    2  502    0  0.41857998043E+03 -0.11358925123E+03 -0.27987574694E+03  0.65302538369E+03  0.40000000000E+03 0.  1.
   -9000005    1    1    2    0  501 -0.41857998043E+03  0.11358925123E+03 -0.30695711322E+03  0.66508224106E+03  0.40000000000E+03 0. -1.
<mgrwt>
<rscale>  2 0.59000993E+03</rscale>
<asrwt>0</asrwt>
<pdfrwt beam="1">  1        2 0.14653388E+00 0.59000993E+03</pdfrwt>
<pdfrwt beam="2">  1       -2 0.56251904E-01 0.59000993E+03</pdfrwt>
<totfact> 0.82463178E+01</totfact>
</mgrwt>
</event>
<event>
 4    1  0.2318373E-002  0.4400900E+03  0.7818608E-02  0.1030719E+00
         -2   -1    0    0    0  501 -0.00000000000E+00  0.00000000000E+00  0.55541101134E+03  0.55541101134E+03  0.00000000000E+00 0. -1.
          2   -1    0    0  502    0  0.00000000000E+00 -0.00000000000E+00 -0.35430853130E+03  0.35430853130E+03  0.00000000000E+00 0.  1.
    9000005    1    1    2  502    0  0.73273754316E+02  0.16825624582E+03  0.15771169755E+03  0.46749565439E+03  0.40000000000E+03 0.  1.
   -9000005    1    1    2    0  501 -0.73273754316E+02 -0.16825624582E+03  0.43390782483E+02  0.44222388824E+03  0.40000000000E+03 0.  1.
<mgrwt>
<rscale>  2 0.44009000E+03</rscale>
<asrwt>0</asrwt>
<pdfrwt beam="1">  1        2 0.54509005E-01 0.44009000E+03</pdfrwt>
<pdfrwt beam="2">  1       -2 0.85447847E-01 0.44009000E+03</pdfrwt>
<totfact> 0.11153491E+02</totfact>
</mgrwt>
</event>
<event>
 4    1  0.2318373E-002  0.4297484E+03  0.7818608E-02  0.1033939E+00
          1   -1    0    0  502    0  0.00000000000E+00  0.00000000000E+00  0.26980618539E+03  0.26980618539E+03  0.00000000000E+00 0.  1.
         -1   -1    0    0    0  501 -0.00000000000E+00 -0.00000000000E+00 -0.11192070771E+04  0.11192070771E+04  0.00000000000E+00 0. -1.
    9000005    1    1    2  502    0  0.15512822758E+03  0.24877566305E+02 -0.85753016466E+03  0.95918801264E+03  0.40000000000E+03 0. -1.
   -9000005    1    1    2    0  501 -0.15512822758E+03 -0.24877566305E+02  0.81292729874E+01  0.42982524981E+03  0.40000000000E+03 0.  1.
<mgrwt>
<rscale>  2 0.42974837E+03</rscale>
<asrwt>0</asrwt>
<pdfrwt beam="1">  1        1 0.41508643E-01 0.42974837E+03</pdfrwt>
<pdfrwt beam="2">  1       -1 0.17218571E+00 0.42974837E+03</pdfrwt>
<totfact> 0.25457364E+01</totfact>
</mgrwt>
</event>
<event>
 4    1  0.2318373E-002  0.6631260E+03  0.7818608E-02  0.9782456E-01
          2   -1    0    0  502    0  0.00000000000E+00  0.00000000000E+00  0.15633622570E+04  0.15633622570E+04  0.00000000000E+00 0.  1.
         -2   -1    0    0    0  501 -0.00000000000E+00 -0.00000000000E+00 -0.73194439120E+03  0.73194439120E+03  0.00000000000E+00 0. -1.
    9000005    1    1    2  502    0  0.34411219317E+03 -0.40165020823E+03 -0.48482541784E+03  0.82145710603E+03  0.40000000000E+03 0. -1.
   -9000005    1    1    2    0  501 -0.34411219317E+03  0.40165020823E+03  0.13162432837E+04  0.14738495422E+04  0.40000000000E+03 0.  1.
<mgrwt>
<rscale>  2 0.66312600E+03</rscale>
<asrwt>0</asrwt>
<pdfrwt beam="1">  1        2 0.24051727E+00 0.66312600E+03</pdfrwt>
<pdfrwt beam="2">  1       -2 0.11260683E+00 0.66312600E+03</pdfrwt>
<totfact> 0.75470387E+00</totfact>
</mgrwt>
</event>
<event>
 4    1  0.2318373E-002  0.4649184E+03  0.7818608E-02  0.1023364E+00
          2   -1    0    0  502    0  0.00000000000E+00  0.00000000000E+00  0.12318512174E+04  0.12318512174E+04  0.00000000000E+00 0.  1.
         -2   -1    0    0    0  501 -0.00000000000E+00 -0.00000000000E+00 -0.19247782611E+03  0.19247782611E+03  0.00000000000E+00 0. -1.
    9000005    1    1    2  502    0 -0.21463349233E+03 -0.10040708883E+03  0.30797058473E+03  0.55766925733E+03  0.40000000000E+03 0. -1.
   -9000005    1    1    2    0  501  0.21463349233E+03  0.10040708883E+03  0.73140280651E+03  0.86665978613E+03  0.40000000000E+03 0.  1.
<mgrwt>
<rscale>  2 0.46491840E+03</rscale>
<asrwt>0</asrwt>
<pdfrwt beam="1">  1        2 0.18951557E+00 0.46491840E+03</pdfrwt>
<pdfrwt beam="2">  1       -2 0.29611974E-01 0.46491840E+03</pdfrwt>
<totfact> 0.19737994E+02</totfact>
</mgrwt>
</event>
<event>
 4    1  0.2318373E-002  0.4516584E+03  0.7818608E-02  0.1027229E+00
         -2   -1    0    0    0  501 -0.00000000000E+00  0.00000000000E+00  0.14809470745E+04  0.14809470745E+04  0.00000000000E+00 0. -1.
          2   -1    0    0  502    0  0.00000000000E+00 -0.00000000000E+00 -0.13818924370E+03  0.13818924370E+03  0.00000000000E+00 0.  1.
    9000005    1    1    2  502    0 -0.11327098330E+03 -0.17653616748E+03  0.62555699108E+03  0.77156780854E+03  0.40000000000E+03 0.  1.
   -9000005    1    1    2    0  501  0.11327098330E+03  0.17653616748E+03  0.71720083974E+03  0.84756850969E+03  0.40000000000E+03 0. -1.
<mgrwt>
<rscale>  2 0.45165843E+03</rscale>
<asrwt>0</asrwt>
<pdfrwt beam="1">  1        2 0.21259885E-01 0.45165843E+03</pdfrwt>
<pdfrwt beam="2">  1       -2 0.22783800E+00 0.45165843E+03</pdfrwt>
<totfact> 0.24533650E+01</totfact>
</mgrwt>
</event>
<event>
 4    1  0.2318373E-002  0.4934970E+03  0.7818608E-02  0.1015490E+00
          1   -1    0    0  502    0  0.00000000000E+00  0.00000000000E+00  0.84309978837E+03  0.84309978837E+03  0.00000000000E+00 0.  1.
         -1   -1    0    0    0  501 -0.00000000000E+00 -0.00000000000E+00 -0.68308207516E+03  0.68308207516E+03  0.00000000000E+00 0. -1.
    9000005    1    1    2  502    0  0.22645680596E+03  0.17960115870E+03  0.65971695374E+03  0.82387239317E+03  0.40000000000E+03 0.  1.
   -9000005    1    1    2    0  501 -0.22645680596E+03 -0.17960115870E+03 -0.49969924053E+03  0.70230947036E+03  0.40000000000E+03 0. -1.
<mgrwt>
<rscale>  2 0.49349697E+03</rscale>
<asrwt>0</asrwt>
<pdfrwt beam="1">  1        1 0.12970766E+00 0.49349697E+03</pdfrwt>
<pdfrwt beam="2">  1       -1 0.10508955E+00 0.49349697E+03</pdfrwt>
<totfact> 0.18422366E+01</totfact>
</mgrwt>
</event>
<event>
 4    1  0.2318373E-002  0.4646300E+03  0.7818608E-02  0.1023447E+00
          1   -1    0    0  502    0  0.00000000000E+00  0.00000000000E+00  0.39946998417E+03  0.39946998417E+03  0.00000000000E+00 0.  1.
         -1   -1    0    0    0  501 -0.00000000000E+00 -0.00000000000E+00 -0.69626516610E+03  0.69626516610E+03  0.00000000000E+00 0. -1.
    9000005    1    1    2  502    0 -0.22248845144E+03 -0.79874520966E+02 -0.40759863193E+03  0.61807580026E+03  0.40000000000E+03 0. -1.
   -9000005    1    1    2    0  501  0.22248845144E+03  0.79874520966E+02  0.11080344999E+03  0.47765935001E+03  0.40000000000E+03 0.  1.
<mgrwt>
<rscale>  2 0.46463001E+03</rscale>
<asrwt>0</asrwt>
<pdfrwt beam="1">  1        1 0.61456921E-01 0.46463001E+03</pdfrwt>
<pdfrwt beam="2">  1       -1 0.10711772E+00 0.46463001E+03</pdfrwt>
<totfact> 0.51320665E+01</totfact>
</mgrwt>
</event>
<event>
 4    1  0.2318373E-002  0.5725098E+03  0.7818608E-02  0.9964140E-01
         -1   -1    0    0    0  501 -0.00000000000E+00  0.00000000000E+00  0.18539723807E+04  0.18539723807E+04  0.00000000000E+00 0. -1.
          1   -1    0    0  502    0  0.00000000000E+00 -0.00000000000E+00 -0.22119322755E+03  0.22119322755E+03  0.00000000000E+00 0.  1.
    9000005    1    1    2  502    0  0.18218694623E+03  0.36684524993E+03  0.12812624956E+04  0.14033535204E+04  0.40000000000E+03 0. -1.
   -9000005    1    1    2    0  501 -0.18218694623E+03 -0.36684524993E+03  0.35151665759E+03  0.67181208782E+03  0.40000000000E+03 0. -1.
<mgrwt>
<rscale>  2 0.57250984E+03</rscale>
<asrwt>0</asrwt>
<pdfrwt beam="1">  1        1 0.34029729E-01 0.57250984E+03</pdfrwt>
<pdfrwt beam="2">  1       -1 0.28522651E+00 0.57250984E+03</pdfrwt>
<totfact> 0.57543068E+00</totfact>
</mgrwt>
</event>
<event>
 4    1  0.2318373E-002  0.4491033E+03  0.7818608E-02  0.1027990E+00
         -1   -1    0    0    0  501 -0.00000000000E+00  0.00000000000E+00  0.27557714948E+03  0.27557714948E+03  0.00000000000E+00 0. -1.
          1   -1    0    0  502    0  0.00000000000E+00 -0.00000000000E+00 -0.11010522007E+04  0.11010522007E+04  0.00000000000E+00 0.  1.
    9000005    1    1    2  502    0 -0.20418185855E+03 -0.18828058762E+01 -0.81129250302E+03  0.92730216315E+03  0.40000000000E+03 0.  1.
   -9000005    1    1    2    0  501  0.20418185855E+03  0.18828058762E+01 -0.14182548178E+02  0.44932718701E+03  0.40000000000E+03 0. -1.
<mgrwt>
<rscale>  2 0.44910330E+03</rscale>
<asrwt>0</asrwt>
<pdfrwt beam="1">  1        1 0.16939265E+00 0.44910330E+03</pdfrwt>
<pdfrwt beam="2">  1       -1 0.42396485E-01 0.44910330E+03</pdfrwt>
<totfact> 0.73339680E+01</totfact>
</mgrwt>
</event>
<event>
 4    1  0.2318373E-002  0.4716963E+03  0.7818608E-02  0.1021443E+00
         -2   -1    0    0    0  501 -0.00000000000E+00  0.00000000000E+00  0.20026712067E+03  0.20026712067E+03  0.00000000000E+00 0.  1.
          2   -1    0    0  502    0  0.00000000000E+00 -0.00000000000E+00 -0.12583559432E+04  0.12583559432E+04  0.00000000000E+00 0. -1.
    9000005    1    1    2  502    0 -0.22636046312E+03 -0.10610521814E+03 -0.77861344709E+03  0.91034953538E+03  0.40000000000E+03 0. -1.
   -9000005    1    1    2    0  501  0.22636046312E+03  0.10610521814E+03 -0.27947537549E+03  0.54827352853E+03  0.40000000000E+03 0.  1.
<mgrwt>
<rscale>  2 0.47169628E+03</rscale>
<asrwt>0</asrwt>
<pdfrwt beam="1">  1        2 0.19359322E+00 0.47169628E+03</pdfrwt>
<pdfrwt beam="2">  1       -2 0.30810326E-01 0.47169628E+03</pdfrwt>
<totfact> 0.17700356E+02</totfact>
</mgrwt>
</event>
<event>
 4    1  0.2318373E-002  0.4093345E+03  0.7818608E-02  0.1040595E+00
         -2   -1    0    0    0  501 -0.00000000000E+00  0.00000000000E+00  0.25566888932E+03  0.25566888932E+03  0.00000000000E+00 0. -1.
          2   -1    0    0  502    0  0.00000000000E+00 -0.00000000000E+00 -0.68775864402E+03  0.68775864402E+03  0.00000000000E+00 0.  1.
    9000005    1    1    2  502    0  0.71278315528E+02 -0.49740837676E+02 -0.11366024035E+03  0.42482160895E+03  0.40000000000E+03 0. -1.
   -9000005    1    1    2    0  501 -0.71278315528E+02  0.49740837676E+02 -0.31842951435E+03  0.51860592438E+03  0.40000000000E+03 0.  1.
<mgrwt>
<rscale>  2 0.40933452E+03</rscale>
<asrwt>0</asrwt>
<pdfrwt beam="1">  1        2 0.10580902E+00 0.40933452E+03</pdfrwt>
<pdfrwt beam="2">  1       -2 0.39333676E-01 0.40933452E+03</pdfrwt>
<totfact> 0.26298496E+02</totfact>
</mgrwt>
</event>
<event>
 4    1  0.2318373E-002  0.5500073E+03  0.7818608E-02  0.1001492E+00
          2   -1    0    0  502    0  0.00000000000E+00  0.00000000000E+00  0.22895146574E+04  0.22895146574E+04  0.00000000000E+00 0.  1.
         -2   -1    0    0    0  501 -0.00000000000E+00 -0.00000000000E+00 -0.19280883356E+03  0.19280883356E+03  0.00000000000E+00 0. -1.
    9000005    1    1    2  502    0 -0.11177822341E+03 -0.36057406435E+03  0.35205964442E+03  0.65303447102E+03  0.40000000000E+03 0. -1.
   -9000005    1    1    2    0  501  0.11177822341E+03  0.36057406435E+03  0.17446461794E+04  0.18292890200E+04  0.40000000000E+03 0.  1.
<mgrwt>
<rscale>  2 0.55000730E+03</rscale>
<asrwt>0</asrwt>
<pdfrwt beam="1">  1        2 0.35223300E+00 0.55000730E+03</pdfrwt>
<pdfrwt beam="2">  1       -2 0.29662899E-01 0.55000730E+03</pdfrwt>
<totfact> 0.51354546E+01</totfact>
</mgrwt>
</event>
<event>
 4    1  0.2318373E-002  0.4606888E+03  0.7818608E-02  0.1024582E+00
          2   -1    0    0  502    0  0.00000000000E+00  0.00000000000E+00  0.52344091221E+03  0.52344091221E+03  0.00000000000E+00 0.  1.
         -2   -1    0    0    0  501 -0.00000000000E+00 -0.00000000000E+00 -0.51382476978E+03  0.51382476978E+03  0.00000000000E+00 0. -1.
    9000005    1    1    2  502    0 -0.75730330523E+02  0.21563642898E+03  0.24298369804E+03  0.52084088739E+03  0.40000000000E+03 0.  1.
   -9000005    1    1    2    0  501  0.75730330523E+02 -0.21563642898E+03 -0.23336755560E+03  0.51642479460E+03  0.40000000000E+03 0. -1.
<mgrwt>
<rscale>  2 0.46068878E+03</rscale>
<asrwt>0</asrwt>
<pdfrwt beam="1">  1        2 0.80529371E-01 0.46068878E+03</pdfrwt>
<pdfrwt beam="2">  1       -2 0.79049964E-01 0.46068878E+03</pdfrwt>
<totfact> 0.85570883E+01</totfact>
</mgrwt>
</event>
<event>
 4    1  0.2318373E-002  0.4464145E+03  0.7818608E-02  0.1028797E+00
         -1   -1    0    0    0  501 -0.00000000000E+00  0.00000000000E+00  0.57246153500E+03  0.57246153500E+03  0.00000000000E+00 0. -1.
          1   -1    0    0  502    0  0.00000000000E+00 -0.00000000000E+00 -0.63569436794E+03  0.63569436794E+03  0.00000000000E+00 0.  1.
    9000005    1    1    2  502    0 -0.19453499903E+03  0.37974445840E+02 -0.43791291410E+03  0.62534282175E+03  0.40000000000E+03 0.  1.
   -9000005    1    1    2    0  501  0.19453499903E+03 -0.37974445840E+02  0.37468008115E+03  0.58281308118E+03  0.40000000000E+03 0. -1.
<mgrwt>
<rscale>  2 0.44641452E+03</rscale>
<asrwt>0</asrwt>
<pdfrwt beam="1">  1        1 0.97799133E-01 0.44641452E+03</pdfrwt>
<pdfrwt beam="2">  1       -1 0.88071006E-01 0.44641452E+03</pdfrwt>
<totfact> 0.42308231E+01</totfact>
</mgrwt>
</event>
<event>
 4    1  0.2318373E-002  0.4501336E+03  0.7818608E-02  0.1027682E+00
         -2   -1    0    0    0  501 -0.00000000000E+00  0.00000000000E+00  0.76829481465E+03  0.76829481465E+03  0.00000000000E+00 0.  1.
          2   -1    0    0  502    0  0.00000000000E+00 -0.00000000000E+00 -0.35246309193E+03  0.35246309193E+03  0.00000000000E+00 0. -1.
    9000005    1    1    2  502    0 -0.19495591209E+03 -0.67914784169E+02 -0.73257840407E+02  0.45605584828E+03  0.40000000000E+03 0. -1.
   -9000005    1    1    2    0  501  0.19495591209E+03  0.67914784169E+02  0.48908956313E+03  0.66470205831E+03  0.40000000000E+03 0.  1.
<mgrwt>
<rscale>  2 0.45013356E+03</rscale>
<asrwt>0</asrwt>
<pdfrwt beam="1">  1        2 0.54225092E-01 0.45013356E+03</pdfrwt>
<pdfrwt beam="2">  1       -2 0.11819920E+00 0.45013356E+03</pdfrwt>
<totfact> 0.52264343E+01</totfact>
</mgrwt>
</event>
<event>
 4    1  0.2318373E-002  0.5090957E+03  0.7818608E-02  0.1011432E+00
         -2   -1    0    0    0  501 -0.00000000000E+00  0.00000000000E+00  0.42056248893E+03  0.42056248893E+03  0.00000000000E+00 0.  1.
          2   -1    0    0  502    0  0.00000000000E+00 -0.00000000000E+00 -0.83186154795E+03  0.83186154795E+03  0.00000000000E+00 0. -1.
    9000005    1    1    2  502    0  0.28268643356E+03 -0.13880485380E+03  0.11314852433E+03  0.52151797257E+03  0.40000000000E+03 0.  1.
   -9000005    1    1    2    0  501 -0.28268643356E+03  0.13880485380E+03 -0.52444758335E+03  0.73090606431E+03  0.40000000000E+03 0. -1.
<mgrwt>
<rscale>  2 0.50909568E+03</rscale>
<asrwt>0</asrwt>
<pdfrwt beam="1">  1        2 0.12797870E+00 0.50909568E+03</pdfrwt>
<pdfrwt beam="2">  1       -2 0.64701922E-01 0.50909568E+03</pdfrwt>
<totfact> 0.74583417E+01</totfact>
</mgrwt>
</event>
<event>
 4    1  0.2318373E-002  0.4056170E+03  0.7818608E-02  0.1041852E+00
         -2   -1    0    0    0  501 -0.00000000000E+00  0.00000000000E+00  0.22175387783E+03  0.22175387783E+03  0.00000000000E+00 0.  1.
          2   -1    0    0  502    0  0.00000000000E+00 -0.00000000000E+00 -0.76643496006E+03  0.76643496006E+03  0.00000000000E+00 0. -1.
    9000005    1    1    2  502    0 -0.12417808335E+02 -0.66113213812E+02 -0.18398636362E+03  0.44539436570E+03  0.40000000000E+03 0.  1.
   -9000005    1    1    2    0  501  0.12417808335E+02  0.66113213812E+02 -0.36069471861E+03  0.54279447219E+03  0.40000000000E+03 0. -1.
<mgrwt>
<rscale>  2 0.40561701E+03</rscale>
<asrwt>0</asrwt>
<pdfrwt beam="1">  1        2 0.11791307E+00 0.40561701E+03</pdfrwt>
<pdfrwt beam="2">  1       -2 0.34115981E-01 0.40561701E+03</pdfrwt>
<totfact> 0.30100632E+02</totfact>
</mgrwt>
</event>
<event>
 4    1  0.2318373E-002  0.4073783E+03  0.7818608E-02  0.1041254E+00
         -1   -1    0    0    0  501 -0.00000000000E+00  0.00000000000E+00  0.75402005758E+03  0.75402005758E+03  0.00000000000E+00 0. -1.
          1   -1    0    0  502    0  0.00000000000E+00 -0.00000000000E+00 -0.25680238706E+03  0.25680238706E+03  0.00000000000E+00 0.  1.
    9000005    1    1    2  502    0  0.19597515336E+02  0.74652400276E+02  0.57529266982E+02  0.41142029609E+03  0.40000000000E+03 0.  1.
   -9000005    1    1    2    0  501 -0.19597515336E+02 -0.74652400276E+02  0.43968840354E+03  0.59940214854E+03  0.40000000000E+03 0. -1.
<mgrwt>
<rscale>  2 0.40737826E+03</rscale>
<asrwt>0</asrwt>
<pdfrwt beam="1">  1        1 0.39508060E-01 0.40737826E+03</pdfrwt>
<pdfrwt beam="2">  1       -1 0.11600309E+00 0.40737826E+03</pdfrwt>
<totfact> 0.75725026E+01</totfact>
</mgrwt>
</event>
<event>
 4    1  0.2318373E-002  0.5550490E+03  0.7818608E-02  0.1000332E+00
         -1   -1    0    0    0  501 -0.00000000000E+00  0.00000000000E+00  0.43474423549E+03  0.43474423549E+03  0.00000000000E+00 0. -1.
          1   -1    0    0  502    0  0.00000000000E+00 -0.00000000000E+00 -0.96211702673E+03  0.96211702673E+03  0.00000000000E+00 0.  1.
    9000005    1    1    2  502    0  0.11772855974E+03  0.36635963892E+03  0.94801262404E+02  0.56308674124E+03  0.40000000000E+03 0. -1.
   -9000005    1    1    2    0  501 -0.11772855974E+03 -0.36635963892E+03 -0.62217405365E+03  0.83377452098E+03  0.40000000000E+03 0.  1.
<mgrwt>
<rscale>  2 0.55504901E+03</rscale>
<asrwt>0</asrwt>
<pdfrwt beam="1">  1        1 0.14801800E+00 0.55504901E+03</pdfrwt>
<pdfrwt beam="2">  1       -1 0.66883729E-01 0.55504901E+03</pdfrwt>
<totfact> 0.38544158E+01</totfact>
</mgrwt>
</event>
<event>
 4    1  0.2318373E-002  0.6538795E+03  0.7818608E-02  0.9799527E-01
          1   -1    0    0  502    0  0.00000000000E+00  0.00000000000E+00  0.16237511286E+04  0.16237511286E+04  0.00000000000E+00 0. -1.
         -1   -1    0    0    0  501 -0.00000000000E+00 -0.00000000000E+00 -0.26493565815E+03  0.26493565815E+03  0.00000000000E+00 0.  1.
    9000005    1    1    2  502    0 -0.48280958893E+03 -0.18561583038E+03  0.75326276797E+03  0.99747838736E+03  0.40000000000E+03 0. -1.
   -9000005    1    1    2    0  501  0.48280958893E+03  0.18561583038E+03  0.60555270248E+03  0.89120839938E+03  0.40000000000E+03 0. -1.
<mgrwt>
<rscale>  2 0.65387945E+03</rscale>
<asrwt>0</asrwt>
<pdfrwt beam="1">  1        1 0.24980786E+00 0.65387945E+03</pdfrwt>
<pdfrwt beam="2">  1       -1 0.40759333E-01 0.65387945E+03</pdfrwt>
<totfact> 0.33067508E+01</totfact>
</mgrwt>
</event>
<event>
 4    1  0.2318373E-002  0.4480956E+03  0.7818608E-02  0.1028291E+00
         -2   -1    0    0    0  501 -0.00000000000E+00  0.00000000000E+00  0.27733325407E+03  0.27733325407E+03  0.00000000000E+00 0. -1.
          2   -1    0    0  502    0  0.00000000000E+00 -0.00000000000E+00 -0.83764803801E+03  0.83764803801E+03  0.00000000000E+00 0.  1.
    9000005    1    1    2  502    0  0.46705802951E+02 -0.19648978328E+03 -0.74811946636E+02  0.45429780357E+03  0.40000000000E+03 0. -1.
   -9000005    1    1    2    0  501 -0.46705802951E+02  0.19648978328E+03 -0.48550283730E+03  0.66068348851E+03  0.40000000000E+03 0.  1.
<mgrwt>
<rscale>  2 0.44809560E+03</rscale>
<asrwt>0</asrwt>
<pdfrwt beam="1">  1        2 0.12886893E+00 0.44809560E+03</pdfrwt>
<pdfrwt beam="2">  1       -2 0.42666655E-01 0.44809560E+03</pdfrwt>
<totfact> 0.17406276E+02</totfact>
</mgrwt>
</event>
<event>
 4    1  0.2318373E-002  0.6711464E+03  0.7818608E-02  0.9767889E-01
          1   -1    0    0  502    0  0.00000000000E+00  0.00000000000E+00  0.35938862236E+03  0.35938862236E+03  0.00000000000E+00 0.  1.
         -1   -1    0    0    0  501 -0.00000000000E+00 -0.00000000000E+00 -0.13953315313E+04  0.13953315313E+04  0.00000000000E+00 0. -1.
    9000005    1    1    2  502    0  0.36785907328E+03 -0.39384918149E+03 -0.23809608153E+03  0.71212865382E+03  0.40000000000E+03 0.  1.
   -9000005    1    1    2    0  501 -0.36785907328E+03  0.39384918149E+03 -0.79784682745E+03  0.10425914999E+04  0.40000000000E+03 0.  1.
<mgrwt>
<rscale>  2 0.67114639E+03</rscale>
<asrwt>0</asrwt>
<pdfrwt beam="1">  1        1 0.55290558E-01 0.67114639E+03</pdfrwt>
<pdfrwt beam="2">  1       -1 0.21466639E+00 0.67114639E+03</pdfrwt>
<totfact> 0.86314617E+00</totfact>
</mgrwt>
</event>
<event>
 4    1  0.2318373E-002  0.4234189E+03  0.7818608E-02  0.1035959E+00
         -2   -1    0    0    0  501 -0.00000000000E+00  0.00000000000E+00  0.21484219088E+03  0.21484219088E+03  0.00000000000E+00 0. -1.
          2   -1    0    0  502    0  0.00000000000E+00 -0.00000000000E+00 -0.10990032765E+04  0.10990032765E+04  0.00000000000E+00 0.  1.
    9000005    1    1    2  502    0  0.12873603596E+03 -0.52063583877E+02 -0.11979648259E+03  0.44003952205E+03  0.40000000000E+03 0. -1.
   -9000005    1    1    2    0  501 -0.12873603596E+03  0.52063583877E+02 -0.76436460302E+03  0.87380594531E+03  0.40000000000E+03 0.  1.
<mgrwt>
<rscale>  2 0.42341892E+03</rscale>
<asrwt>0</asrwt>
<pdfrwt beam="1">  1        2 0.16907743E+00 0.42341892E+03</pdfrwt>
<pdfrwt beam="2">  1       -2 0.33052645E-01 0.42341892E+03</pdfrwt>
<totfact> 0.19358066E+02</totfact>
</mgrwt>
</event>
<event>
 4    1  0.2318373E-002  0.5159929E+03  0.7818608E-02  0.1009687E+00
         -2   -1    0    0    0  501 -0.00000000000E+00  0.00000000000E+00  0.13278589167E+03  0.13278589167E+03  0.00000000000E+00 0.  1.
          2   -1    0    0  502    0  0.00000000000E+00 -0.00000000000E+00 -0.21070654738E+04  0.21070654738E+04  0.00000000000E+00 0. -1.
    9000005    1    1    2  502    0  0.99347488723E+02  0.31044934330E+03 -0.74077358253E+03  0.90277030237E+03  0.40000000000E+03 0. -1.
   -9000005    1    1    2    0  501 -0.99347488723E+02 -0.31044934330E+03 -0.12335059996E+04  0.13370810631E+04  0.40000000000E+03 0. -1.
<mgrwt>
<rscale>  2 0.51599294E+03</rscale>
<asrwt>0</asrwt>
<pdfrwt beam="1">  1        2 0.32416392E+00 0.51599294E+03</pdfrwt>
<pdfrwt beam="2">  1       -2 0.20428599E-01 0.51599294E+03</pdfrwt>
<totfact> 0.12663757E+02</totfact>
</mgrwt>
</event>
<event>
 4    1  0.2318373E-002  0.4552298E+03  0.7818608E-02  0.1026174E+00
         -2   -1    0    0    0  501 -0.00000000000E+00  0.00000000000E+00  0.15558207518E+03  0.15558207518E+03  0.00000000000E+00 0. -1.
          2   -1    0    0  502    0  0.00000000000E+00 -0.00000000000E+00 -0.13896299727E+04  0.13896299727E+04  0.00000000000E+00 0.  1.
    9000005    1    1    2  502    0  0.15092784225E+03  0.15638091679E+03 -0.45967645862E+03  0.64694408669E+03  0.40000000000E+03 0.  1.
   -9000005    1    1    2    0  501 -0.15092784225E+03 -0.15638091679E+03 -0.77437143894E+03  0.89826796121E+03  0.40000000000E+03 0.  1.
<mgrwt>
<rscale>  2 0.45522984E+03</rscale>
<asrwt>0</asrwt>
<pdfrwt beam="1">  1        2 0.21378923E+00 0.45522984E+03</pdfrwt>
<pdfrwt beam="2">  1       -2 0.23935703E-01 0.45522984E+03</pdfrwt>
<totfact> 0.23630483E+02</totfact>
</mgrwt>
</event>
<event>
 4    1  0.2318373E-002  0.5080278E+03  0.7818608E-02  0.1011705E+00
         -2   -1    0    0    0  501 -0.00000000000E+00  0.00000000000E+00  0.34394400062E+03  0.34394400062E+03  0.00000000000E+00 0. -1.
          2   -1    0    0  502    0  0.00000000000E+00 -0.00000000000E+00 -0.91148190459E+03  0.91148190459E+03  0.00000000000E+00 0.  1.
    9000005    1    1    2  502    0  0.19319407950E+03 -0.24651216014E+03 -0.54765941324E+03  0.74700939108E+03  0.40000000000E+03 0.  1.
   -9000005    1    1    2    0  501 -0.19319407950E+03  0.24651216014E+03 -0.19878490726E+02  0.50841651413E+03  0.40000000000E+03 0. -1.
<mgrwt>
<rscale>  2 0.50802775E+03</rscale>
<asrwt>0</asrwt>
<pdfrwt beam="1">  1        2 0.14022798E+00 0.50802775E+03</pdfrwt>
<pdfrwt beam="2">  1       -2 0.52914462E-01 0.50802775E+03</pdfrwt>
<totfact> 0.10031310E+02</totfact>
</mgrwt>
</event>
<event>
 4    1  0.2318373E-002  0.4097767E+03  0.7818608E-02  0.1040446E+00
         -1   -1    0    0    0  501 -0.00000000000E+00  0.00000000000E+00  0.18647273234E+03  0.18647273234E+03  0.00000000000E+00 0. -1.
          1   -1    0    0  502    0  0.00000000000E+00 -0.00000000000E+00 -0.92578137979E+03  0.92578137979E+03  0.00000000000E+00 0.  1.
    9000005    1    1    2  502    0 -0.78984695007E+02  0.40968295095E+02 -0.46157200141E+03  0.61722418596E+03  0.40000000000E+03 0.  1.
   -9000005    1    1    2    0  501  0.78984695007E+02 -0.40968295095E+02 -0.27773664604E+03  0.49502992617E+03  0.40000000000E+03 0. -1.
<mgrwt>
<rscale>  2 0.40977675E+03</rscale>
<asrwt>0</asrwt>
<pdfrwt beam="1">  1        1 0.14242790E+00 0.40977675E+03</pdfrwt>
<pdfrwt beam="2">  1       -1 0.28688113E-01 0.40977675E+03</pdfrwt>
<totfact> 0.19935628E+02</totfact>
</mgrwt>
</event>
<event>
 4    1  0.2318373E-002  0.4161610E+03  0.7818608E-02  0.1038323E+00
         -2   -1    0    0    0  501 -0.00000000000E+00  0.00000000000E+00  0.26446821638E+03  0.26446821638E+03  0.00000000000E+00 0. -1.
          2   -1    0    0  502    0  0.00000000000E+00 -0.00000000000E+00 -0.66105281796E+03  0.66105281796E+03  0.00000000000E+00 0.  1.
    9000005    1    1    2  502    0 -0.11479623659E+03  0.34390889369E+01 -0.24307768982E+03  0.48195100016E+03  0.40000000000E+03 0.  1.
   -9000005    1    1    2    0  501  0.11479623659E+03 -0.34390889369E+01 -0.15350691175E+03  0.44357003418E+03  0.40000000000E+03 0.  1.
<mgrwt>
<rscale>  2 0.41616103E+03</rscale>
<asrwt>0</asrwt>
<pdfrwt beam="1">  1        2 0.10170043E+00 0.41616103E+03</pdfrwt>
<pdfrwt beam="2">  1       -2 0.40687418E-01 0.41616103E+03</pdfrwt>
<totfact> 0.25845478E+02</totfact>
</mgrwt>
</event>
<event>
 4    1  0.2318373E-002  0.4717571E+03  0.7818608E-02  0.1021425E+00
         -2   -1    0    0    0  501 -0.00000000000E+00  0.00000000000E+00  0.82980052429E+03  0.82980052429E+03  0.00000000000E+00 0. -1.
          2   -1    0    0  502    0  0.00000000000E+00 -0.00000000000E+00 -0.30306223882E+03  0.30306223882E+03  0.00000000000E+00 0.  1.
    9000005    1    1    2  502    0 -0.17301254772E+03  0.18061400611E+03  0.71262641398E+02  0.47710913315E+03  0.40000000000E+03 0.  1.
   -9000005    1    1    2    0  501  0.17301254772E+03 -0.18061400611E+03  0.45547564407E+03  0.65575362996E+03  0.40000000000E+03 0. -1.
<mgrwt>
<rscale>  2 0.47175710E+03</rscale>
<asrwt>0</asrwt>
<pdfrwt beam="1">  1        2 0.46624960E-01 0.47175710E+03</pdfrwt>
<pdfrwt beam="2">  1       -2 0.12766162E+00 0.47175710E+03</pdfrwt>
<totfact> 0.50894733E+01</totfact>
</mgrwt>
</event>
<event>
 4    1  0.2318373E-002  0.4293008E+03  0.7818608E-02  0.1034081E+00
          3   -1    0    0  502    0  0.00000000000E+00  0.00000000000E+00  0.84017640597E+03  0.84017640597E+03  0.00000000000E+00 0. -1.
         -3   -1    0    0    0  501 -0.00000000000E+00 -0.00000000000E+00 -0.25951702579E+03  0.25951702579E+03  0.00000000000E+00 0.  1.
    9000005    1    1    2  502    0 -0.10392461243E+03 -0.11618463578E+03  0.50662729828E+03  0.66405603229E+03  0.40000000000E+03 0. -1.
   -9000005    1    1    2    0  501  0.10392461243E+03  0.11618463578E+03  0.74032081903E+02  0.43563739946E+03  0.40000000000E+03 0.  1.
<mgrwt>
<rscale>  2 0.42930082E+03</rscale>
<asrwt>0</asrwt>
<pdfrwt beam="1">  1        3 0.12925791E+00 0.42930082E+03</pdfrwt>
<pdfrwt beam="2">  1       -3 0.39925697E-01 0.42930082E+03</pdfrwt>
<totfact> 0.76907140E+00</totfact>
</mgrwt>
</event>
<event>
 4    1  0.2318373E-002  0.4384015E+03  0.7818608E-02  0.1031238E+00
          1   -1    0    0  502    0  0.00000000000E+00  0.00000000000E+00  0.12844361730E+04  0.12844361730E+04  0.00000000000E+00 0. -1.
         -1   -1    0    0    0  501 -0.00000000000E+00 -0.00000000000E+00 -0.22364449497E+03  0.22364449497E+03  0.00000000000E+00 0.  1.
    9000005    1    1    2  502    0  0.17902597633E+03  0.12063729933E+02  0.96416728173E+03  0.10591573920E+04  0.40000000000E+03 0. -1.
   -9000005    1    1    2    0  501 -0.17902597633E+03 -0.12063729933E+02  0.96624396290E+02  0.44892327600E+03  0.40000000000E+03 0.  1.
<mgrwt>
<rscale>  2 0.43840145E+03</rscale>
<asrwt>0</asrwt>
<pdfrwt beam="1">  1        1 0.19760556E+00 0.43840145E+03</pdfrwt>
<pdfrwt beam="2">  1       -1 0.34406846E-01 0.43840145E+03</pdfrwt>
<totfact> 0.78899596E+01</totfact>
</mgrwt>
</event>
