<event>
 4    1  0.5003329E-002  0.4952336E+03  0.7818608E-02  0.1015031E+00
         21   -1    0    0  501  502  0.00000000000E+00  0.00000000000E+00  0.36602597010E+03  0.36602597010E+03  0.00000000000E+00 0. -1.
         21   -1    0    0  502  503 -0.00000000000E+00 -0.00000000000E+00 -0.95923444938E+03  0.95923444938E+03  0.00000000000E+00 0.  1.
    9000007    1    1    2  501    0 -0.19599585092E+03  0.21642993688E+03  0.67222911382E+02  0.49977516042E+03  0.40000000000E+03 0. -1.
   -9000007    1    1    2    0  503  0.19599585092E+03 -0.21642993688E+03 -0.66043139066E+03  0.82548525906E+03  0.40000000000E+03 0.  1.
<mgrwt>
<rscale>  2 0.49523357E+03</rscale>
<asrwt>0</asrwt>
<pdfrwt beam="1">  1       21 0.56311688E-01 0.49523357E+03</pdfrwt>
<pdfrwt beam="2">  1       21 0.14757453E+00 0.49523357E+03</pdfrwt>
<totfact> 0.76365779E+02</totfact>
</mgrwt>
</event>
<event>
 4    1  0.5003329E-002  0.5503199E+03  0.7818608E-02  0.1001420E+00
         21   -1    0    0  503  502  0.00000000000E+00  0.00000000000E+00  0.59185443361E+03  0.59185443361E+03  0.00000000000E+00 0.  1.
         21   -1    0    0  501  503 -0.00000000000E+00 -0.00000000000E+00 -0.52205116577E+03  0.52205116577E+03  0.00000000000E+00 0. -1.
    9000007    1    1    2  501    0  0.15992556365E+03 -0.34245548247E+03  0.11332679787E+03  0.56186733888E+03  0.40000000000E+03 0.  1.
   -9000007    1    1    2    0  502 -0.15992556365E+03  0.34245548247E+03 -0.43523530038E+02  0.55203826050E+03  0.40000000000E+03 0. -1.
<mgrwt>
<rscale>  2 0.55031986E+03</rscale>
<asrwt>0</asrwt>
<pdfrwt beam="1">  1       21 0.91054528E-01 0.55031986E+03</pdfrwt>
<pdfrwt beam="2">  1       21 0.80315564E-01 0.55031986E+03</pdfrwt>
<totfact> 0.11476447E+03</totfact>
</mgrwt>
</event>
<event>
 4    1  0.5003329E-002  0.5742119E+03  0.7818608E-02  0.9960401E-01
         21   -1    0    0  501  502  0.00000000000E+00  0.00000000000E+00  0.16715221865E+04  0.16715221865E+04  0.00000000000E+00 0.  1.
         21   -1    0    0  502  503 -0.00000000000E+00 -0.00000000000E+00 -0.27451791574E+03  0.27451791574E+03  0.00000000000E+00 0. -1.
    9000007    1    1    2  501    0 -0.30309572074E+03 -0.27902028213E+03  0.12147004329E+04  0.13435834457E+04  0.40000000000E+03 0.  1.
   -9000007    1    1    2    0  503  0.30309572074E+03  0.27902028213E+03  0.18230383789E+03  0.60245665660E+03  0.40000000000E+03 0. -1.
<mgrwt>
<rscale>  2 0.57421192E+03</rscale>
<asrwt>0</asrwt>
<pdfrwt beam="1">  1       21 0.25715725E+00 0.57421192E+03</pdfrwt>
<pdfrwt beam="2">  1       21 0.42233526E-01 0.57421192E+03</pdfrwt>
<totfact> 0.24456493E+02</totfact>
</mgrwt>
</event>
<event>
 4    1  0.5003329E-002  0.4575506E+03  0.7818608E-02  0.1025494E+00
         21   -1    0    0  501  502  0.00000000000E+00  0.00000000000E+00  0.71161908253E+03  0.71161908253E+03  0.00000000000E+00 0.  1.
         21   -1    0    0  502  503 -0.00000000000E+00 -0.00000000000E+00 -0.41462329521E+03  0.41462329521E+03  0.00000000000E+00 0. -1.
    9000007    1    1    2  501    0  0.47205838165E+02  0.21708094119E+03  0.45198831562E+03  0.64315314167E+03  0.40000000000E+03 0.  1.
   -9000007    1    1    2    0  503 -0.47205838165E+02 -0.21708094119E+03 -0.15499252830E+03  0.48308923608E+03  0.40000000000E+03 0. -1.
<mgrwt>
<rscale>  2 0.45755057E+03</rscale>
<asrwt>0</asrwt>
<pdfrwt beam="1">  1       21 0.10947986E+00 0.45755057E+03</pdfrwt>
<pdfrwt beam="2">  1       21 0.63788199E-01 0.45755057E+03</pdfrwt>
<totfact> 0.12770105E+03</totfact>
</mgrwt>
</event>
<event>
 4    1  0.5003329E-002  0.4152373E+03  0.7818608E-02  0.1038628E+00
         21   -1    0    0  503  502  0.00000000000E+00  0.00000000000E+00  0.18809466482E+04  0.18809466482E+04  0.00000000000E+00 0.  1.
         21   -1    0    0  501  503 -0.00000000000E+00 -0.00000000000E+00 -0.99855543074E+02  0.99855543074E+02  0.00000000000E+00 0.  1.
    9000007    1    1    2  501    0 -0.61077818662E+02  0.93228105699E+02  0.60694255694E+03  0.73539190031E+03  0.40000000000E+03 0.  1.
   -9000007    1    1    2    0  502  0.61077818662E+02 -0.93228105699E+02  0.11741485482E+04  0.12454102910E+04  0.40000000000E+03 0.  1.
<mgrwt>
<rscale>  2 0.41523726E+03</rscale>
<asrwt>0</asrwt>
<pdfrwt beam="1">  1       21 0.28937638E+00 0.41523726E+03</pdfrwt>
<pdfrwt beam="2">  1       21 0.15362393E-01 0.41523726E+03</pdfrwt>
<totfact> 0.12228549E+03</totfact>
</mgrwt>
</event>
<event>
 4    1  0.5003329E-002  0.4239146E+03  0.7818608E-02  0.1035800E+00
         21   -1    0    0  503  502  0.00000000000E+00  0.00000000000E+00  0.15709321408E+04  0.15709321408E+04  0.00000000000E+00 0. -1.
         21   -1    0    0  501  503 -0.00000000000E+00 -0.00000000000E+00 -0.25643063268E+03  0.25643063268E+03  0.00000000000E+00 0. -1.
    9000007    1    1    2  501    0 -0.12469267622E+03  0.64461914055E+02 -0.22753415873E+02  0.42452481647E+03  0.40000000000E+03 0. -1.
   -9000007    1    1    2    0  502  0.12469267622E+03 -0.64461914055E+02  0.13372549240E+04  0.14028379570E+04  0.40000000000E+03 0. -1.
<mgrwt>
<rscale>  2 0.42391462E+03</rscale>
<asrwt>0</asrwt>
<pdfrwt beam="1">  1       21 0.24168186E+00 0.42391462E+03</pdfrwt>
<pdfrwt beam="2">  1       21 0.39450867E-01 0.42391462E+03</pdfrwt>
<totfact> 0.37816912E+02</totfact>
</mgrwt>
</event>
<event>
 4    1  0.5003329E-002  0.4217236E+03  0.7818608E-02  0.1036507E+00
         21   -1    0    0  501  502  0.00000000000E+00  0.00000000000E+00  0.30190513940E+03  0.30190513940E+03  0.00000000000E+00 0. -1.
         21   -1    0    0  502  503 -0.00000000000E+00 -0.00000000000E+00 -0.96653903092E+03  0.96653903092E+03  0.00000000000E+00 0. -1.
    9000007    1    1    2  501    0 -0.85772881396E+02  0.10243910815E+03  0.64014050598E+02  0.42655428346E+03  0.40000000000E+03 0. -1.
   -9000007    1    1    2    0  503  0.85772881396E+02 -0.10243910815E+03 -0.72864794211E+03  0.84188988687E+03  0.40000000000E+03 0. -1.
<mgrwt>
<rscale>  2 0.42172356E+03</rscale>
<asrwt>0</asrwt>
<pdfrwt beam="1">  1       21 0.46446944E-01 0.42172356E+03</pdfrwt>
<pdfrwt beam="2">  1       21 0.14869831E+00 0.42172356E+03</pdfrwt>
<totfact> 0.11645943E+03</totfact>
</mgrwt>
</event>
<event>
 4    1  0.5003329E-002  0.4030711E+03  0.7818608E-02  0.1042721E+00
         21   -1    0    0  503  502  0.00000000000E+00  0.00000000000E+00  0.61515105789E+03  0.61515105789E+03  0.00000000000E+00 0.  1.
         21   -1    0    0  501  503 -0.00000000000E+00 -0.00000000000E+00 -0.60591401523E+03  0.60591401523E+03  0.00000000000E+00 0.  1.
    9000007    1    1    2  501    0  0.33905890844E+02 -0.36286233300E+02 -0.45393832392E+03  0.60706367218E+03  0.40000000000E+03 0.  1.
   -9000007    1    1    2    0  502 -0.33905890844E+02  0.36286233300E+02  0.46317536658E+03  0.61400140095E+03  0.40000000000E+03 0.  1.
<mgrwt>
<rscale>  2 0.40307109E+03</rscale>
<asrwt>0</asrwt>
<pdfrwt beam="1">  1       21 0.94638624E-01 0.40307109E+03</pdfrwt>
<pdfrwt beam="2">  1       21 0.93217541E-01 0.40307109E+03</pdfrwt>
<totfact> 0.78127751E+02</totfact>
</mgrwt>
</event>
<event>
 4    1  0.5003329E-002  0.4741860E+03  0.7818608E-02  0.1020745E+00
         21   -1    0    0  501  502  0.00000000000E+00  0.00000000000E+00  0.41595797781E+03  0.41595797781E+03  0.00000000000E+00 0. -1.
         21   -1    0    0  502  503 -0.00000000000E+00 -0.00000000000E+00 -0.68505657962E+03  0.68505657962E+03  0.00000000000E+00 0.  1.
    9000007    1    1    2  501    0 -0.18361919668E+03  0.17645494288E+03  0.11827627111E+03  0.48871426474E+03  0.40000000000E+03 0. -1.
   -9000007    1    1    2    0  503  0.18361919668E+03 -0.17645494288E+03 -0.38737487292E+03  0.61230029269E+03  0.40000000000E+03 0.  1.
<mgrwt>
<rscale>  2 0.47418599E+03</rscale>
<asrwt>0</asrwt>
<pdfrwt beam="1">  1       21 0.63993536E-01 0.47418599E+03</pdfrwt>
<pdfrwt beam="2">  1       21 0.10539332E+00 0.47418599E+03</pdfrwt>
<totfact> 0.13840976E+03</totfact>
</mgrwt>
</event>
<event>
 4    1  0.5003329E-002  0.4196034E+03  0.7818608E-02  0.1037195E+00
         21   -1    0    0  503  502  0.00000000000E+00  0.00000000000E+00  0.24911787625E+03  0.24911787625E+03  0.00000000000E+00 0. -1.
         21   -1    0    0  501  503 -0.00000000000E+00 -0.00000000000E+00 -0.70954265683E+03  0.70954265683E+03  0.00000000000E+00 0. -1.
    9000007    1    1    2  501    0 -0.11632319576E+03 -0.50358376475E+02 -0.20020569288E+03  0.46491867183E+03  0.40000000000E+03 0. -1.
   -9000007    1    1    2    0  502  0.11632319576E+03  0.50358376475E+02 -0.26021908770E+03  0.49374186126E+03  0.40000000000E+03 0. -1.
<mgrwt>
<rscale>  2 0.41960345E+03</rscale>
<asrwt>0</asrwt>
<pdfrwt beam="1">  1       21 0.38325828E-01 0.41960345E+03</pdfrwt>
<pdfrwt beam="2">  1       21 0.10916041E+00 0.41960345E+03</pdfrwt>
<totfact> 0.38536989E+03</totfact>
</mgrwt>
</event>
<event>
 4    1  0.5003329E-002  0.4436184E+03  0.7818608E-02  0.1029642E+00
         21   -1    0    0  501  502  0.00000000000E+00  0.00000000000E+00  0.10035867645E+04  0.10035867645E+04  0.00000000000E+00 0.  1.
         21   -1    0    0  502  503 -0.00000000000E+00 -0.00000000000E+00 -0.37045516981E+03  0.37045516981E+03  0.00000000000E+00 0.  1.
    9000007    1    1    2  501    0 -0.14893898698E+03 -0.12089045561E+03  0.78789795568E+03  0.90420158851E+03  0.40000000000E+03 0.  1.
   -9000007    1    1    2    0  503  0.14893898698E+03  0.12089045561E+03 -0.15476636095E+03  0.46984034585E+03  0.40000000000E+03 0.  1.
<mgrwt>
<rscale>  2 0.44361844E+03</rscale>
<asrwt>0</asrwt>
<pdfrwt beam="1">  1       21 0.15439796E+00 0.44361844E+03</pdfrwt>
<pdfrwt beam="2">  1       21 0.56993103E-01 0.44361844E+03</pdfrwt>
<totfact> 0.67254104E+02</totfact>
</mgrwt>
</event>
<event>
 4    1  0.5003329E-002  0.5149464E+03  0.7818608E-02  0.1009950E+00
         21   -1    0    0  501  502  0.00000000000E+00  0.00000000000E+00  0.11997853705E+04  0.11997853705E+04  0.00000000000E+00 0.  1.
         21   -1    0    0  502  503 -0.00000000000E+00 -0.00000000000E+00 -0.24649520233E+03  0.24649520233E+03  0.00000000000E+00 0.  1.
    9000007    1    1    2  501    0  0.11589820435E+02  0.32409173051E+03  0.70914637496E+03  0.87638938540E+03  0.40000000000E+03 0.  1.
   -9000007    1    1    2    0  503 -0.11589820435E+02 -0.32409173051E+03  0.24414379318E+03  0.56989118740E+03  0.40000000000E+03 0.  1.
<mgrwt>
<rscale>  2 0.51494638E+03</rscale>
<asrwt>0</asrwt>
<pdfrwt beam="1">  1       21 0.18458236E+00 0.51494638E+03</pdfrwt>
<pdfrwt beam="2">  1       21 0.37922339E-01 0.51494638E+03</pdfrwt>
<totfact> 0.92567876E+02</totfact>
</mgrwt>
</event>
<event>
 4    1  0.5003329E-002  0.5242990E+03  0.7818608E-02  0.1007624E+00
         21   -1    0    0  501  502  0.00000000000E+00  0.00000000000E+00  0.15221066772E+03  0.15221066772E+03  0.00000000000E+00 0. -1.
         21   -1    0    0  502  503 -0.00000000000E+00 -0.00000000000E+00 -0.20296517262E+04  0.20296517262E+04  0.00000000000E+00 0. -1.
    9000007    1    1    2  501    0 -0.30964451009E+03  0.13787573367E+03 -0.57656758154E+03  0.77930713884E+03  0.40000000000E+03 0. -1.
   -9000007    1    1    2    0  503  0.30964451009E+03 -0.13787573367E+03 -0.13008734770E+04  0.14025552551E+04  0.40000000000E+03 0. -1.
<mgrwt>
<rscale>  2 0.52429900E+03</rscale>
<asrwt>0</asrwt>
<pdfrwt beam="1">  1       21 0.23417026E-01 0.52429900E+03</pdfrwt>
<pdfrwt beam="2">  1       21 0.31225411E+00 0.52429900E+03</pdfrwt>
<totfact> 0.37784097E+02</totfact>
</mgrwt>
</event>
<event>
 4    1  0.5003329E-002  0.4526406E+03  0.7818608E-02  0.1026937E+00
         21   -1    0    0  501  502  0.00000000000E+00  0.00000000000E+00  0.26479741023E+03  0.26479741023E+03  0.00000000000E+00 0.  1.
         21   -1    0    0  502  503 -0.00000000000E+00 -0.00000000000E+00 -0.85707702821E+03  0.85707702821E+03  0.00000000000E+00 0.  1.
    9000007    1    1    2  501    0 -0.13190230569E+03  0.16578698209E+03 -0.12122311094E+03  0.46859213001E+03  0.40000000000E+03 0.  1.
   -9000007    1    1    2    0  503  0.13190230569E+03 -0.16578698209E+03 -0.47105650704E+03  0.65328230842E+03  0.40000000000E+03 0.  1.
<mgrwt>
<rscale>  2 0.45264063E+03</rscale>
<asrwt>0</asrwt>
<pdfrwt beam="1">  1       21 0.40738064E-01 0.45264063E+03</pdfrwt>
<pdfrwt beam="2">  1       21 0.13185800E+00 0.45264063E+03</pdfrwt>
<totfact> 0.20790290E+03</totfact>
</mgrwt>
</event>
<event>
 4    1  0.5003329E-002  0.4955649E+03  0.7818608E-02  0.1014943E+00
         21   -1    0    0  501  502  0.00000000000E+00  0.00000000000E+00  0.58361830042E+03  0.58361830042E+03  0.00000000000E+00 0.  1.
         21   -1    0    0  502  503 -0.00000000000E+00 -0.00000000000E+00 -0.44567879456E+03  0.44567879456E+03  0.00000000000E+00 0. -1.
    9000007    1    1    2  501    0 -0.34136476864E+01  0.29252856862E+03 -0.52633112482E+02  0.49835214556E+03  0.40000000000E+03 0. -1.
   -9000007    1    1    2    0  503  0.34136476864E+01 -0.29252856862E+03  0.19057261835E+03  0.53094494942E+03  0.40000000000E+03 0.  1.
<mgrwt>
<rscale>  2 0.49556495E+03</rscale>
<asrwt>0</asrwt>
<pdfrwt beam="1">  1       21 0.89787431E-01 0.49556495E+03</pdfrwt>
<pdfrwt beam="2">  1       21 0.68565968E-01 0.49556495E+03</pdfrwt>
<totfact> 0.17344320E+03</totfact>
</mgrwt>
</event>
<event>
 4    1  0.5003329E-002  0.5057727E+03  0.7818608E-02  0.1012283E+00
         21   -1    0    0  501  502  0.00000000000E+00  0.00000000000E+00  0.12533931604E+04  0.12533931604E+04  0.00000000000E+00 0. -1.
         21   -1    0    0  502  503 -0.00000000000E+00 -0.00000000000E+00 -0.29964462556E+03  0.29964462556E+03  0.00000000000E+00 0.  1.
    9000007    1    1    2  501    0  0.17131720254E+03 -0.25779143487E+03  0.38371004723E+02  0.50722612490E+03  0.40000000000E+03 0.  1.
   -9000007    1    1    2    0  503 -0.17131720254E+03  0.25779143487E+03  0.91537753015E+03  0.10458116611E+04  0.40000000000E+03 0.  1.
<mgrwt>
<rscale>  2 0.50577268E+03</rscale>
<asrwt>0</asrwt>
<pdfrwt beam="1">  1       21 0.19282971E+00 0.50577268E+03</pdfrwt>
<pdfrwt beam="2">  1       21 0.46099174E-01 0.50577268E+03</pdfrwt>
<totfact> 0.54311627E+02</totfact>
</mgrwt>
</event>
<event>
 4    1  0.5003329E-002  0.4011647E+03  0.7818608E-02  0.1043377E+00
         21   -1    0    0  503  502  0.00000000000E+00  0.00000000000E+00  0.21033606939E+03  0.21033606939E+03  0.00000000000E+00 0.  1.
         21   -1    0    0  501  503 -0.00000000000E+00 -0.00000000000E+00 -0.12681423414E+04  0.12681423414E+04  0.00000000000E+00 0.  1.
    9000007    1    1    2  501    0 -0.24064351190E+02  0.18816084945E+02 -0.99448169920E+03  0.10723464870E+04  0.40000000000E+03 0.  1.
   -9000007    1    1    2    0  502  0.24064351190E+02 -0.18816084945E+02 -0.63324572828E+02  0.40613192386E+03  0.40000000000E+03 0.  1.
<mgrwt>
<rscale>  2 0.40116473E+03</rscale>
<asrwt>0</asrwt>
<pdfrwt beam="1">  1       21 0.32359395E-01 0.40116473E+03</pdfrwt>
<pdfrwt beam="2">  1       21 0.19509882E+00 0.40116473E+03</pdfrwt>
<totfact> 0.11374125E+03</totfact>
</mgrwt>
</event>
<event>
 4    1  0.5003329E-002  0.5529030E+03  0.7818608E-02  0.1000824E+00
         21   -1    0    0  501  502  0.00000000000E+00  0.00000000000E+00  0.28519911095E+03  0.28519911095E+03  0.00000000000E+00 0. -1.
         21   -1    0    0  502  503 -0.00000000000E+00 -0.00000000000E+00 -0.11676870985E+04  0.11676870985E+04  0.00000000000E+00 0.  1.
    9000007    1    1    2  501    0  0.21164037246E+03 -0.31766349810E+03 -0.23317030647E+03  0.60005844474E+03  0.40000000000E+03 0.  1.
   -9000007    1    1    2    0  503 -0.21164037246E+03  0.31766349810E+03 -0.64931768108E+03  0.85282776470E+03  0.40000000000E+03 0. -1.
<mgrwt>
<rscale>  2 0.55290302E+03</rscale>
<asrwt>0</asrwt>
<pdfrwt beam="1">  1       21 0.43876785E-01 0.55290302E+03</pdfrwt>
<pdfrwt beam="2">  1       21 0.17964417E+00 0.55290302E+03</pdfrwt>
<totfact> 0.73065498E+02</totfact>
</mgrwt>
</event>
<event>
 4    1  0.5003329E-002  0.6499867E+03  0.7818608E-02  0.9806804E-01
         21   -1    0    0  503  502  0.00000000000E+00  0.00000000000E+00  0.10931012272E+04  0.10931012272E+04  0.00000000000E+00 0.  1.
         21   -1    0    0  501  503 -0.00000000000E+00 -0.00000000000E+00 -0.44565384249E+03  0.44565384249E+03  0.00000000000E+00 0.  1.
    9000007    1    1    2  501    0 -0.22392681584E+03 -0.46080313069E+03  0.43415939605E+02  0.65143509878E+03  0.40000000000E+03 0.  1.
   -9000007    1    1    2    0  502  0.22392681584E+03  0.46080313069E+03  0.60403144510E+03  0.88731997091E+03  0.40000000000E+03 0.  1.
<mgrwt>
<rscale>  2 0.64998673E+03</rscale>
<asrwt>0</asrwt>
<pdfrwt beam="1">  1       21 0.16816942E+00 0.64998673E+03</pdfrwt>
<pdfrwt beam="2">  1       21 0.68562130E-01 0.64998673E+03</pdfrwt>
<totfact> 0.32424373E+02</totfact>
</mgrwt>
</event>
<event>
 4    1  0.5003329E-002  0.4031063E+03  0.7818608E-02  0.1042709E+00
         21   -1    0    0  501  502  0.00000000000E+00  0.00000000000E+00  0.18619980233E+03  0.18619980233E+03  0.00000000000E+00 0. -1.
         21   -1    0    0  502  503 -0.00000000000E+00 -0.00000000000E+00 -0.17100239224E+04  0.17100239224E+04  0.00000000000E+00 0. -1.
    9000007    1    1    2  501    0 -0.34113685719E+02 -0.36482247264E+02 -0.98462606358E+02  0.41495732644E+03  0.40000000000E+03 0. -1.
   -9000007    1    1    2    0  503  0.34113685719E+02  0.36482247264E+02 -0.14253615137E+04  0.14812663983E+04  0.40000000000E+03 0. -1.
<mgrwt>
<rscale>  2 0.40310631E+03</rscale>
<asrwt>0</asrwt>
<pdfrwt beam="1">  1       21 0.28646122E-01 0.40310631E+03</pdfrwt>
<pdfrwt beam="2">  1       21 0.26308062E+00 0.40310631E+03</pdfrwt>
<totfact> 0.53925807E+02</totfact>
</mgrwt>
</event>
<event>
 4    1  0.5003329E-002  0.4324517E+03  0.7818608E-02  0.1033088E+00
         21   -1    0    0  501  502  0.00000000000E+00  0.00000000000E+00  0.84111551642E+03  0.84111551642E+03  0.00000000000E+00 0.  1.
         21   -1    0    0  502  503 -0.00000000000E+00 -0.00000000000E+00 -0.25455303040E+03  0.25455303040E+03  0.00000000000E+00 0.  1.
    9000007    1    1    2  501    0 -0.15350874251E+03 -0.58732600283E+02  0.48816211529E+03  0.65216309553E+03  0.40000000000E+03 0.  1.
   -9000007    1    1    2    0  503  0.15350874251E+03  0.58732600283E+02  0.98400370728E+02  0.44350545129E+03  0.40000000000E+03 0.  1.
<mgrwt>
<rscale>  2 0.43245168E+03</rscale>
<asrwt>0</asrwt>
<pdfrwt beam="1">  1       21 0.12940239E+00 0.43245168E+03</pdfrwt>
<pdfrwt beam="2">  1       21 0.39162005E-01 0.43245168E+03</pdfrwt>
<totfact> 0.23864248E+03</totfact>
</mgrwt>
</event>
<event>
 4    1  0.5003329E-002  0.4818634E+03  0.7818608E-02  0.1018624E+00
         21   -1    0    0  501  502  0.00000000000E+00  0.00000000000E+00  0.36179001565E+03  0.36179001565E+03  0.00000000000E+00 0.  1.
         21   -1    0    0  502  503 -0.00000000000E+00 -0.00000000000E+00 -0.67474317270E+03  0.67474317270E+03  0.00000000000E+00 0.  1.
    9000007    1    1    2  501    0 -0.23175140350E+03 -0.13595463514E+03 -0.41939038197E+02  0.48368508222E+03  0.40000000000E+03 0.  1.
   -9000007    1    1    2    0  503  0.23175140350E+03  0.13595463514E+03 -0.27101411885E+03  0.55284810613E+03  0.40000000000E+03 0.  1.
<mgrwt>
<rscale>  2 0.48186344E+03</rscale>
<asrwt>0</asrwt>
<pdfrwt beam="1">  1       21 0.55660003E-01 0.48186344E+03</pdfrwt>
<pdfrwt beam="2">  1       21 0.10380664E+00 0.48186344E+03</pdfrwt>
<totfact> 0.19454907E+03</totfact>
</mgrwt>
</event>
<event>
 4    1  0.5003329E-002  0.4100915E+03  0.7818608E-02  0.1040340E+00
         21   -1    0    0  503  502  0.00000000000E+00  0.00000000000E+00  0.39775964952E+03  0.39775964952E+03  0.00000000000E+00 0.  1.
         21   -1    0    0  501  503 -0.00000000000E+00 -0.00000000000E+00 -0.57438771927E+03  0.57438771927E+03  0.00000000000E+00 0.  1.
    9000007    1    1    2  501    0 -0.32679470304E+02  0.84303545530E+02 -0.33801684039E+03  0.53144183120E+03  0.40000000000E+03 0.  1.
   -9000007    1    1    2    0  502  0.32679470304E+02 -0.84303545530E+02  0.16138877064E+03  0.44070553759E+03  0.40000000000E+03 0.  1.
<mgrwt>
<rscale>  2 0.41009150E+03</rscale>
<asrwt>0</asrwt>
<pdfrwt beam="1">  1       21 0.61193792E-01 0.41009150E+03</pdfrwt>
<pdfrwt beam="2">  1       21 0.88367341E-01 0.41009150E+03</pdfrwt>
<totfact> 0.23939468E+03</totfact>
</mgrwt>
</event>
<event>
 4    1  0.5003329E-002  0.7529731E+03  0.7818608E-02  0.9630698E-01
         21   -1    0    0  501  502  0.00000000000E+00  0.00000000000E+00  0.83460312173E+03  0.83460312173E+03  0.00000000000E+00 0. -1.
         21   -1    0    0  502  503 -0.00000000000E+00 -0.00000000000E+00 -0.81153642258E+03  0.81153642258E+03  0.00000000000E+00 0.  1.
    9000007    1    1    2  501    0  0.16204859889E+03  0.61701593869E+03 -0.32067755483E+03  0.81841463280E+03  0.40000000000E+03 0. -1.
   -9000007    1    1    2    0  503 -0.16204859889E+03 -0.61701593869E+03  0.34374425398E+03  0.82772491152E+03  0.40000000000E+03 0.  1.
<mgrwt>
<rscale>  2 0.75297305E+03</rscale>
<asrwt>0</asrwt>
<pdfrwt beam="1">  1       21 0.12840048E+00 0.75297305E+03</pdfrwt>
<pdfrwt beam="2">  1       21 0.12485176E+00 0.75297305E+03</pdfrwt>
<totfact> 0.15449131E+02</totfact>
</mgrwt>
</event>
<event>
 4    1  0.5003329E-002  0.5863906E+03  0.7818608E-02  0.9934051E-01
         21   -1    0    0  503  502  0.00000000000E+00  0.00000000000E+00  0.54388419146E+03  0.54388419146E+03  0.00000000000E+00 0. -1.
         21   -1    0    0  501  503 -0.00000000000E+00 -0.00000000000E+00 -0.84365459586E+03  0.84365459586E+03  0.00000000000E+00 0. -1.
    9000007    1    1    2  501    0  0.38738381548E+03  0.18381435492E+03 -0.49719882361E+03  0.76880466164E+03  0.40000000000E+03 0. -1.
   -9000007    1    1    2    0  502 -0.38738381548E+03 -0.18381435492E+03  0.19742841921E+03  0.61873412568E+03  0.40000000000E+03 0. -1.
<mgrwt>
<rscale>  2 0.58639060E+03</rscale>
<asrwt>0</asrwt>
<pdfrwt beam="1">  1       21 0.83674492E-01 0.58639060E+03</pdfrwt>
<pdfrwt beam="2">  1       21 0.12979301E+00 0.58639060E+03</pdfrwt>
<totfact> 0.42538555E+02</totfact>
</mgrwt>
</event>
<event>
 4    1  0.5003329E-002  0.4726313E+03  0.7818608E-02  0.1021180E+00
         21   -1    0    0  501  502  0.00000000000E+00  0.00000000000E+00  0.31215234443E+03  0.31215234443E+03  0.00000000000E+00 0.  1.
         21   -1    0    0  502  503 -0.00000000000E+00 -0.00000000000E+00 -0.71699537652E+03  0.71699537652E+03  0.00000000000E+00 0. -1.
    9000007    1    1    2  501    0  0.15504606674E+03  0.19834574761E+03 -0.17982813619E+03  0.50568614473E+03  0.40000000000E+03 0. -1.
   -9000007    1    1    2    0  503 -0.15504606674E+03 -0.19834574761E+03 -0.22501489590E+03  0.52346157622E+03  0.40000000000E+03 0. -1.
<mgrwt>
<rscale>  2 0.47263127E+03</rscale>
<asrwt>0</asrwt>
<pdfrwt beam="1">  1       21 0.48023438E-01 0.47263127E+03</pdfrwt>
<pdfrwt beam="2">  1       21 0.11030698E+00 0.47263127E+03</pdfrwt>
<totfact> 0.23037325E+03</totfact>
</mgrwt>
</event>
<event>
 4    1  0.5003329E-002  0.4363890E+03  0.7818608E-02  0.1031861E+00
         21   -1    0    0  501  502  0.00000000000E+00  0.00000000000E+00  0.77972529636E+03  0.77972529636E+03  0.00000000000E+00 0. -1.
         21   -1    0    0  502  503 -0.00000000000E+00 -0.00000000000E+00 -0.24574570405E+03  0.24574570405E+03  0.00000000000E+00 0. -1.
    9000007    1    1    2  501    0 -0.13039121440E+03  0.11590304360E+03  0.30720514720E+03  0.53367629400E+03  0.40000000000E+03 0. -1.
   -9000007    1    1    2    0  503  0.13039121440E+03 -0.11590304360E+03  0.22677444511E+03  0.49179470642E+03  0.40000000000E+03 0. -1.
<mgrwt>
<rscale>  2 0.43638903E+03</rscale>
<asrwt>0</asrwt>
<pdfrwt beam="1">  1       21 0.11995774E+00 0.43638903E+03</pdfrwt>
<pdfrwt beam="2">  1       21 0.37807032E-01 0.43638903E+03</pdfrwt>
<totfact> 0.31108866E+03</totfact>
</mgrwt>
</event>
<event>
 4    1  0.5003329E-002  0.4455569E+03  0.7818608E-02  0.1029055E+00
         21   -1    0    0  503  502  0.00000000000E+00  0.00000000000E+00  0.26675298561E+03  0.26675298561E+03  0.00000000000E+00 0.  1.
         21   -1    0    0  501  503 -0.00000000000E+00 -0.00000000000E+00 -0.74449544072E+03  0.74449544072E+03  0.00000000000E+00 0.  1.
    9000007    1    1    2  501    0 -0.17484519965E+03  0.89163615198E+02 -0.22901996782E+03  0.50097019849E+03  0.40000000000E+03 0. -1.
   -9000007    1    1    2    0  502  0.17484519965E+03 -0.89163615198E+02 -0.24872248729E+03  0.51027822783E+03  0.40000000000E+03 0. -1.
<mgrwt>
<rscale>  2 0.44555695E+03</rscale>
<asrwt>0</asrwt>
<pdfrwt beam="1">  1       21 0.41038921E-01 0.44555695E+03</pdfrwt>
<pdfrwt beam="2">  1       21 0.11453776E+00 0.44555695E+03</pdfrwt>
<totfact> 0.29426154E+03</totfact>
</mgrwt>
</event>
<event>
 4    1  0.5003329E-002  0.5059422E+03  0.7818608E-02  0.1012239E+00
         21   -1    0    0  501  502  0.00000000000E+00  0.00000000000E+00  0.29489394146E+03  0.29489394146E+03  0.00000000000E+00 0.  1.
         21   -1    0    0  502  503 -0.00000000000E+00 -0.00000000000E+00 -0.12680633804E+04  0.12680633804E+04  0.00000000000E+00 0.  1.
    9000007    1    1    2  501    0  0.18863376997E+03 -0.24575357274E+03 -0.47656588157E+02  0.50818172742E+03  0.40000000000E+03 0.  1.
   -9000007    1    1    2    0  503 -0.18863376997E+03  0.24575357274E+03 -0.92551285079E+03  0.10547755945E+04  0.40000000000E+03 0.  1.
<mgrwt>
<rscale>  2 0.50594221E+03</rscale>
<asrwt>0</asrwt>
<pdfrwt beam="1">  1       21 0.45368299E-01 0.50594221E+03</pdfrwt>
<pdfrwt beam="2">  1       21 0.19508667E+00 0.50594221E+03</pdfrwt>
<totfact> 0.54212509E+02</totfact>
</mgrwt>
</event>
<event>
 4    1  0.5003329E-002  0.4415687E+03  0.7818608E-02  0.1030267E+00
         21   -1    0    0  501  502  0.00000000000E+00  0.00000000000E+00  0.44265914512E+03  0.44265914512E+03  0.00000000000E+00 0. -1.
         21   -1    0    0  502  503 -0.00000000000E+00 -0.00000000000E+00 -0.61052327220E+03  0.61052327220E+03  0.00000000000E+00 0. -1.
    9000007    1    1    2  501    0 -0.87686048725E+01  0.18683166475E+03  0.19397583805E+03  0.48229615915E+03  0.40000000000E+03 0. -1.
   -9000007    1    1    2    0  503  0.87686048725E+01 -0.18683166475E+03 -0.36183996513E+03  0.57088625816E+03  0.40000000000E+03 0. -1.
<mgrwt>
<rscale>  2 0.44156875E+03</rscale>
<asrwt>0</asrwt>
<pdfrwt beam="1">  1       21 0.68101407E-01 0.44156875E+03</pdfrwt>
<pdfrwt beam="2">  1       21 0.93926657E-01 0.44156875E+03</pdfrwt>
<totfact> 0.16138982E+03</totfact>
</mgrwt>
</event>
<event>
 4    1  0.5003329E-002  0.4012103E+03  0.7818608E-02  0.1043361E+00
         21   -1    0    0  501  502  0.00000000000E+00  0.00000000000E+00  0.62210181116E+03  0.62210181116E+03  0.00000000000E+00 0. -1.
         21   -1    0    0  502  503 -0.00000000000E+00 -0.00000000000E+00 -0.26279602389E+03  0.26279602389E+03  0.00000000000E+00 0. -1.
    9000007    1    1    2  501    0  0.19229397849E+02  0.24493200732E+02  0.23454314579E+03  0.46473667153E+03  0.40000000000E+03 0.  1.
   -9000007    1    1    2    0  503 -0.19229397849E+02 -0.24493200732E+02  0.12476264149E+03  0.42016116352E+03  0.40000000000E+03 0.  1.
<mgrwt>
<rscale>  2 0.40121028E+03</rscale>
<asrwt>0</asrwt>
<pdfrwt beam="1">  1       21 0.95707970E-01 0.40121028E+03</pdfrwt>
<pdfrwt beam="2">  1       21 0.40430158E-01 0.40121028E+03</pdfrwt>
<totfact> 0.47915163E+03</totfact>
</mgrwt>
</event>
<event>
 4    1  0.5003329E-002  0.5569216E+03  0.7818608E-02  0.9999044E-01
         21   -1    0    0  503  502  0.00000000000E+00  0.00000000000E+00  0.41135780490E+03  0.41135780490E+03  0.00000000000E+00 0.  1.
         21   -1    0    0  501  503 -0.00000000000E+00 -0.00000000000E+00 -0.75403328132E+03  0.75403328132E+03  0.00000000000E+00 0. -1.
    9000007    1    1    2  501    0 -0.38560338880E+03  0.38362630083E+02 -0.16717757387E+03  0.58147227453E+03  0.40000000000E+03 0. -1.
   -9000007    1    1    2    0  502  0.38560338880E+03 -0.38362630083E+02 -0.17549790254E+03  0.58391881169E+03  0.40000000000E+03 0.  1.
<mgrwt>
<rscale>  2 0.55692160E+03</rscale>
<asrwt>0</asrwt>
<pdfrwt beam="1">  1       21 0.63285817E-01 0.55692160E+03</pdfrwt>
<pdfrwt beam="2">  1       21 0.11600512E+00 0.55692160E+03</pdfrwt>
<totfact> 0.10850985E+03</totfact>
</mgrwt>
</event>
<event>
 4    1  0.5003329E-002  0.5170012E+03  0.7818608E-02  0.1009434E+00
         21   -1    0    0  503  502  0.00000000000E+00  0.00000000000E+00  0.77423785453E+03  0.77423785453E+03  0.00000000000E+00 0.  1.
         21   -1    0    0  501  503 -0.00000000000E+00 -0.00000000000E+00 -0.70356286839E+03  0.70356286839E+03  0.00000000000E+00 0.  1.
    9000007    1    1    2  501    0  0.10434182966E+03  0.31048840457E+03 -0.49198663483E+03  0.71368138244E+03  0.40000000000E+03 0.  1.
   -9000007    1    1    2    0  502 -0.10434182966E+03 -0.31048840457E+03  0.56266162097E+03  0.76411934048E+03  0.40000000000E+03 0.  1.
<mgrwt>
<rscale>  2 0.51700123E+03</rscale>
<asrwt>0</asrwt>
<pdfrwt beam="1">  1       21 0.11911352E+00 0.51700123E+03</pdfrwt>
<pdfrwt beam="2">  1       21 0.10824044E+00 0.51700123E+03</pdfrwt>
<totfact> 0.29290000E+02</totfact>
</mgrwt>
</event>
<event>
 4    1  0.5003329E-002  0.4326397E+03  0.7818608E-02  0.1033029E+00
         21   -1    0    0  501  502  0.00000000000E+00  0.00000000000E+00  0.48744393756E+03  0.48744393756E+03  0.00000000000E+00 0. -1.
         21   -1    0    0  502  503 -0.00000000000E+00 -0.00000000000E+00 -0.44543380657E+03  0.44543380657E+03  0.00000000000E+00 0. -1.
    9000007    1    1    2  501    0 -0.64156431241E+02 -0.15185876392E+03  0.19423246262E+03  0.47423979312E+03  0.40000000000E+03 0. -1.
   -9000007    1    1    2    0  503  0.64156431241E+02  0.15185876392E+03 -0.15222233163E+03  0.45863795100E+03  0.40000000000E+03 0. -1.
<mgrwt>
<rscale>  2 0.43263973E+03</rscale>
<asrwt>0</asrwt>
<pdfrwt beam="1">  1       21 0.74991375E-01 0.43263973E+03</pdfrwt>
<pdfrwt beam="2">  1       21 0.68528278E-01 0.43263973E+03</pdfrwt>
<totfact> 0.26999463E+03</totfact>
</mgrwt>
</event>
<event>
 4    1  0.5003329E-002  0.4056266E+03  0.7818608E-02  0.1041849E+00
         21   -1    0    0  503  502  0.00000000000E+00  0.00000000000E+00  0.45877183569E+03  0.45877183569E+03  0.00000000000E+00 0. -1.
         21   -1    0    0  501  503 -0.00000000000E+00 -0.00000000000E+00 -0.64675190592E+03  0.64675190592E+03  0.00000000000E+00 0. -1.
    9000007    1    1    2  501    0 -0.67312913826E+02  0.13719697386E+01 -0.46292642908E+03  0.61549475173E+03  0.40000000000E+03 0. -1.
   -9000007    1    1    2    0  502  0.67312913826E+02 -0.13719697386E+01  0.27494635886E+03  0.49002898988E+03  0.40000000000E+03 0. -1.
<mgrwt>
<rscale>  2 0.40562657E+03</rscale>
<asrwt>0</asrwt>
<pdfrwt beam="1">  1       21 0.70580282E-01 0.40562657E+03</pdfrwt>
<pdfrwt beam="2">  1       21 0.99500294E-01 0.40562657E+03</pdfrwt>
<totfact> 0.13164044E+03</totfact>
</mgrwt>
</event>
<event>
 4    1  0.5003329E-002  0.5349831E+03  0.7818608E-02  0.1005031E+00
         21   -1    0    0  503  502  0.00000000000E+00  0.00000000000E+00  0.20667995152E+04  0.20667995152E+04  0.00000000000E+00 0.  1.
         21   -1    0    0  501  503 -0.00000000000E+00 -0.00000000000E+00 -0.13854160957E+03  0.13854160957E+03  0.00000000000E+00 0.  1.
    9000007    1    1    2  501    0 -0.27921360770E+03  0.21965130258E+03  0.94056180133E+03  0.10820644323E+04  0.40000000000E+03 0.  1.
   -9000007    1    1    2    0  502  0.27921360770E+03 -0.21965130258E+03  0.98769610427E+03  0.11232766925E+04  0.40000000000E+03 0.  1.
<mgrwt>
<rscale>  2 0.53498312E+03</rscale>
<asrwt>0</asrwt>
<pdfrwt beam="1">  1       21 0.31796914E+00 0.53498312E+03</pdfrwt>
<pdfrwt beam="2">  1       21 0.21314095E-01 0.53498312E+03</pdfrwt>
<totfact> 0.41613467E+02</totfact>
</mgrwt>
</event>
<event>
 4    1  0.5003329E-002  0.5259265E+03  0.7818608E-02  0.1007225E+00
         21   -1    0    0  503  502  0.00000000000E+00  0.00000000000E+00  0.18700367258E+03  0.18700367258E+03  0.00000000000E+00 0.  1.
         21   -1    0    0  501  503 -0.00000000000E+00 -0.00000000000E+00 -0.14791145849E+04  0.14791145849E+04  0.00000000000E+00 0. -1.
    9000007    1    1    2  501    0 -0.93025508125E+02  0.32854977396E+03 -0.64434916464E+03  0.83173586258E+03  0.40000000000E+03 0.  1.
   -9000007    1    1    2    0  502  0.93025508125E+02 -0.32854977396E+03 -0.64776174763E+03  0.83438239485E+03  0.40000000000E+03 0. -1.
<mgrwt>
<rscale>  2 0.52592651E+03</rscale>
<asrwt>0</asrwt>
<pdfrwt beam="1">  1       21 0.28769797E-01 0.52592651E+03</pdfrwt>
<pdfrwt beam="2">  1       21 0.22755608E+00 0.52592651E+03</pdfrwt>
<totfact> 0.83427941E+02</totfact>
</mgrwt>
</event>
<event>
 4    1  0.5003329E-002  0.4563110E+03  0.7818608E-02  0.1025857E+00
         21   -1    0    0  501  502  0.00000000000E+00  0.00000000000E+00  0.43387204694E+03  0.43387204694E+03  0.00000000000E+00 0. -1.
         21   -1    0    0  502  503 -0.00000000000E+00 -0.00000000000E+00 -0.49407074426E+03  0.49407074426E+03  0.00000000000E+00 0. -1.
    9000007    1    1    2  501    0 -0.18458704860E+02 -0.21881269975E+03  0.48448276137E+02  0.45887575314E+03  0.40000000000E+03 0. -1.
   -9000007    1    1    2    0  503  0.18458704860E+02  0.21881269975E+03 -0.10864697346E+03  0.46906703807E+03  0.40000000000E+03 0. -1.
<mgrwt>
<rscale>  2 0.45631099E+03</rscale>
<asrwt>0</asrwt>
<pdfrwt beam="1">  1       21 0.66749546E-01 0.45631099E+03</pdfrwt>
<pdfrwt beam="2">  1       21 0.76010884E-01 0.45631099E+03</pdfrwt>
<totfact> 0.27528686E+03</totfact>
</mgrwt>
</event>
<event>
 4    1  0.5003329E-002  0.5138297E+03  0.7818608E-02  0.1010231E+00
         21   -1    0    0  503  502  0.00000000000E+00  0.00000000000E+00  0.49528005352E+03  0.49528005352E+03  0.00000000000E+00 0. -1.
         21   -1    0    0  501  503 -0.00000000000E+00 -0.00000000000E+00 -0.67653280005E+03  0.67653280005E+03  0.00000000000E+00 0. -1.
    9000007    1    1    2  501    0  0.26244070003E+03  0.18747235692E+03  0.17917687010E+03  0.54417401300E+03  0.40000000000E+03 0. -1.
   -9000007    1    1    2    0  502 -0.26244070003E+03 -0.18747235692E+03 -0.36042961663E+03  0.62763884057E+03  0.40000000000E+03 0. -1.
<mgrwt>
<rscale>  2 0.51382974E+03</rscale>
<asrwt>0</asrwt>
<pdfrwt beam="1">  1       21 0.76196931E-01 0.51382974E+03</pdfrwt>
<pdfrwt beam="2">  1       21 0.10408197E+00 0.51382974E+03</pdfrwt>
<totfact> 0.94889798E+02</totfact>
</mgrwt>
</event>
<event>
 4    1  0.5003329E-002  0.4310103E+03  0.7818608E-02  0.1033541E+00
         21   -1    0    0  503  502  0.00000000000E+00  0.00000000000E+00  0.54460431447E+03  0.54460431447E+03  0.00000000000E+00 0.  1.
         21   -1    0    0  501  503 -0.00000000000E+00 -0.00000000000E+00 -0.39396880540E+03  0.39396880540E+03  0.00000000000E+00 0. -1.
    9000007    1    1    2  501    0  0.15241514072E+01 -0.16052287189E+03  0.24721397997E+03  0.49687490109E+03  0.40000000000E+03 0.  1.
   -9000007    1    1    2    0  502 -0.15241514072E+01  0.16052287189E+03 -0.96578470903E+02  0.44169821879E+03  0.40000000000E+03 0.  1.
<mgrwt>
<rscale>  2 0.43101034E+03</rscale>
<asrwt>0</asrwt>
<pdfrwt beam="1">  1       21 0.83785279E-01 0.43101034E+03</pdfrwt>
<pdfrwt beam="2">  1       21 0.60610586E-01 0.43101034E+03</pdfrwt>
<totfact> 0.27471557E+03</totfact>
</mgrwt>
</event>
<event>
 4    1  0.5003329E-002  0.4013158E+03  0.7818608E-02  0.1043325E+00
         21   -1    0    0  501  502  0.00000000000E+00  0.00000000000E+00  0.10960146211E+03  0.10960146211E+03  0.00000000000E+00 0.  1.
         21   -1    0    0  502  503 -0.00000000000E+00 -0.00000000000E+00 -0.14935207465E+04  0.14935207465E+04  0.00000000000E+00 0.  1.
    9000007    1    1    2  501    0 -0.28756558221E+02  0.15082120071E+02 -0.79370889069E+03  0.88939766873E+03  0.40000000000E+03 0.  1.
   -9000007    1    1    2    0  503  0.28756558221E+02 -0.15082120071E+02 -0.59021039365E+03  0.71372453983E+03  0.40000000000E+03 0.  1.
<mgrwt>
<rscale>  2 0.40131585E+03</rscale>
<asrwt>0</asrwt>
<pdfrwt beam="1">  1       21 0.16861764E-01 0.40131585E+03</pdfrwt>
<pdfrwt beam="2">  1       21 0.22977242E+00 0.40131585E+03</pdfrwt>
<totfact> 0.23881217E+03</totfact>
</mgrwt>
</event>
<event>
 4    1  0.5003329E-002  0.4769847E+03  0.7818608E-02  0.1019967E+00
         21   -1    0    0  503  502  0.00000000000E+00  0.00000000000E+00  0.30769116035E+03  0.30769116035E+03  0.00000000000E+00 0. -1.
         21   -1    0    0  501  503 -0.00000000000E+00 -0.00000000000E+00 -0.14689753716E+04  0.14689753716E+04  0.00000000000E+00 0.  1.
    9000007    1    1    2  501    0 -0.19436671505E+03  0.17244117682E+03 -0.12066740028E+04  0.12975270819E+04  0.40000000000E+03 0.  1.
   -9000007    1    1    2    0  502  0.19436671505E+03 -0.17244117682E+03  0.45389791522E+02  0.47913945001E+03  0.40000000000E+03 0. -1.
<mgrwt>
<rscale>  2 0.47698467E+03</rscale>
<asrwt>0</asrwt>
<pdfrwt beam="1">  1       21 0.47337101E-01 0.47698467E+03</pdfrwt>
<pdfrwt beam="2">  1       21 0.22599621E+00 0.47698467E+03</pdfrwt>
<totfact> 0.31526787E+02</totfact>
</mgrwt>
</event>
<event>
 4    1  0.5003329E-002  0.5096990E+03  0.7818608E-02  0.1011278E+00
         21   -1    0    0  503  502  0.00000000000E+00  0.00000000000E+00  0.60351383257E+03  0.60351383257E+03  0.00000000000E+00 0.  1.
         21   -1    0    0  501  503 -0.00000000000E+00 -0.00000000000E+00 -0.45763477932E+03  0.45763477932E+03  0.00000000000E+00 0.  1.
    9000007    1    1    2  501    0 -0.17128019559E+03 -0.26543580749E+03 -0.56334122448E+02  0.51280269759E+03  0.40000000000E+03 0.  1.
   -9000007    1    1    2    0  502  0.17128019559E+03  0.26543580749E+03  0.20221317570E+03  0.54834591430E+03  0.40000000000E+03 0.  1.
<mgrwt>
<rscale>  2 0.50969900E+03</rscale>
<asrwt>0</asrwt>
<pdfrwt beam="1">  1       21 0.92848281E-01 0.50969900E+03</pdfrwt>
<pdfrwt beam="2">  1       21 0.70405351E-01 0.50969900E+03</pdfrwt>
<totfact> 0.15012952E+03</totfact>
</mgrwt>
</event>
<event>
 4    1  0.5003329E-002  0.5406533E+03  0.7818608E-02  0.1003681E+00
         21   -1    0    0  501  502  0.00000000000E+00  0.00000000000E+00  0.39571721712E+03  0.39571721712E+03  0.00000000000E+00 0.  1.
         21   -1    0    0  502  503 -0.00000000000E+00 -0.00000000000E+00 -0.17542779354E+04  0.17542779354E+04  0.00000000000E+00 0. -1.
    9000007    1    1    2  501    0 -0.17247503250E+03 -0.32024734716E+03  0.13865782422E+03  0.55815051054E+03  0.40000000000E+03 0.  1.
   -9000007    1    1    2    0  503  0.17247503250E+03  0.32024734716E+03 -0.14972185425E+04  0.15918446420E+04  0.40000000000E+03 0. -1.
<mgrwt>
<rscale>  2 0.54065331E+03</rscale>
<asrwt>0</asrwt>
<pdfrwt beam="1">  1       21 0.60879572E-01 0.54065331E+03</pdfrwt>
<pdfrwt beam="2">  1       21 0.26988891E+00 0.54065331E+03</pdfrwt>
<totfact> 0.94799721E+01</totfact>
</mgrwt>
</event>
<event>
 4    1  0.5003329E-002  0.4309941E+03  0.7818608E-02  0.1033546E+00
         21   -1    0    0  503  502  0.00000000000E+00  0.00000000000E+00  0.11042045037E+04  0.11042045037E+04  0.00000000000E+00 0. -1.
         21   -1    0    0  501  503 -0.00000000000E+00 -0.00000000000E+00 -0.16881270727E+03  0.16881270727E+03  0.00000000000E+00 0. -1.
    9000007    1    1    2  501    0  0.14863413801E+03 -0.60529480263E+02  0.43017213632E+03  0.60893677162E+03  0.40000000000E+03 0.  1.
   -9000007    1    1    2    0  502 -0.14863413801E+03  0.60529480263E+02  0.50521966007E+03  0.66408043932E+03  0.40000000000E+03 0.  1.
<mgrwt>
<rscale>  2 0.43099411E+03</rscale>
<asrwt>0</asrwt>
<pdfrwt beam="1">  1       21 0.16987761E+00 0.43099411E+03</pdfrwt>
<pdfrwt beam="2">  1       21 0.25971186E-01 0.43099411E+03</pdfrwt>
<totfact> 0.25984846E+03</totfact>
</mgrwt>
</event>
<event>
 4    1  0.5003329E-002  0.4120062E+03  0.7818608E-02  0.1039700E+00
         21   -1    0    0  501  502  0.00000000000E+00  0.00000000000E+00  0.19203415355E+04  0.19203415355E+04  0.00000000000E+00 0.  1.
         21   -1    0    0  502  503 -0.00000000000E+00 -0.00000000000E+00 -0.11037829174E+03  0.11037829174E+03  0.00000000000E+00 0.  1.
    9000007    1    1    2  501    0  0.16867760009E+02  0.97286185467E+02  0.13581105600E+04  0.14192298674E+04  0.40000000000E+03 0.  1.
   -9000007    1    1    2    0  503 -0.16867760009E+02 -0.97286185467E+02  0.45185268373E+03  0.61148995986E+03  0.40000000000E+03 0.  1.
<mgrwt>
<rscale>  2 0.41200622E+03</rscale>
<asrwt>0</asrwt>
<pdfrwt beam="1">  1       21 0.29543713E+00 0.41200622E+03</pdfrwt>
<pdfrwt beam="2">  1       21 0.16981277E-01 0.41200622E+03</pdfrwt>
<totfact> 0.93494902E+02</totfact>
</mgrwt>
</event>
<event>
 4    1  0.5003329E-002  0.4568252E+03  0.7818608E-02  0.1025706E+00
         21   -1    0    0  501  502  0.00000000000E+00  0.00000000000E+00  0.25787331508E+03  0.25787331508E+03  0.00000000000E+00 0. -1.
         21   -1    0    0  502  503 -0.00000000000E+00 -0.00000000000E+00 -0.16297205360E+04  0.16297205360E+04  0.00000000000E+00 0.  1.
    9000007    1    1    2  501    0  0.16226524786E+03  0.14953017181E+03 -0.16273350619E+02  0.45711497994E+03  0.40000000000E+03 0. -1.
   -9000007    1    1    2    0  503 -0.16226524786E+03 -0.14953017181E+03 -0.13555738703E+04  0.14304788712E+04  0.40000000000E+03 0.  1.
<mgrwt>
<rscale>  2 0.45682522E+03</rscale>
<asrwt>0</asrwt>
<pdfrwt beam="1">  1       21 0.39672819E-01 0.45682522E+03</pdfrwt>
<pdfrwt beam="2">  1       21 0.25072623E+00 0.45682522E+03</pdfrwt>
<totfact> 0.32288447E+02</totfact>
</mgrwt>
</event>
<event>
 4    1  0.5003329E-002  0.4306328E+03  0.7818608E-02  0.1033660E+00
         21   -1    0    0  501  502  0.00000000000E+00  0.00000000000E+00  0.87250350306E+03  0.87250350306E+03  0.00000000000E+00 0. -1.
         21   -1    0    0  502  503 -0.00000000000E+00 -0.00000000000E+00 -0.40193670339E+03  0.40193670339E+03  0.00000000000E+00 0. -1.
    9000007    1    1    2  501    0 -0.11293338992E+03 -0.11265278806E+03  0.67269801161E+03  0.79872849958E+03  0.40000000000E+03 0. -1.
   -9000007    1    1    2    0  503  0.11293338992E+03  0.11265278806E+03 -0.20213121194E+03  0.47571170687E+03  0.40000000000E+03 0. -1.
<mgrwt>
<rscale>  2 0.43063279E+03</rscale>
<asrwt>0</asrwt>
<pdfrwt beam="1">  1       21 0.13423131E+00 0.43063279E+03</pdfrwt>
<pdfrwt beam="2">  1       21 0.61836416E-01 0.43063279E+03</pdfrwt>
<totfact> 0.82350632E+02</totfact>
</mgrwt>
</event>
<event>
 4    1  0.5003329E-002  0.4501596E+03  0.7818608E-02  0.1027674E+00
         21   -1    0    0  503  502  0.00000000000E+00  0.00000000000E+00  0.50942816018E+03  0.50942816018E+03  0.00000000000E+00 0. -1.
         21   -1    0    0  501  503 -0.00000000000E+00 -0.00000000000E+00 -0.17059601832E+04  0.17059601832E+04  0.00000000000E+00 0. -1.
    9000007    1    1    2  501    0  0.19132049079E+03 -0.77718310570E+02 -0.15682579446E+04  0.16315871557E+04  0.40000000000E+03 0. -1.
   -9000007    1    1    2    0  502 -0.19132049079E+03  0.77718310570E+02  0.37172592154E+03  0.58380118768E+03  0.40000000000E+03 0. -1.
<mgrwt>
<rscale>  2 0.45015960E+03</rscale>
<asrwt>0</asrwt>
<pdfrwt beam="1">  1       21 0.78373563E-01 0.45015960E+03</pdfrwt>
<pdfrwt beam="2">  1       21 0.26245541E+00 0.45015960E+03</pdfrwt>
<totfact> 0.62733256E+01</totfact>
</mgrwt>
</event>
<event>
 4    1  0.5003329E-002  0.4654171E+03  0.7818608E-02  0.1023222E+00
         21   -1    0    0  503  502  0.00000000000E+00  0.00000000000E+00  0.17544175985E+03  0.17544175985E+03  0.00000000000E+00 0.  1.
         21   -1    0    0  501  503 -0.00000000000E+00 -0.00000000000E+00 -0.17397708793E+04  0.17397708793E+04  0.00000000000E+00 0.  1.
    9000007    1    1    2  501    0 -0.20772850139E+03 -0.11602552080E+03 -0.12981401070E+04  0.13790506840E+04  0.40000000000E+03 0.  1.
   -9000007    1    1    2    0  502  0.20772850139E+03  0.11602552080E+03 -0.26618901248E+03  0.53616195513E+03  0.40000000000E+03 0.  1.
<mgrwt>
<rscale>  2 0.46541707E+03</rscale>
<asrwt>0</asrwt>
<pdfrwt beam="1">  1       21 0.26991040E-01 0.46541707E+03</pdfrwt>
<pdfrwt beam="2">  1       21 0.26765706E+00 0.46541707E+03</pdfrwt>
<totfact> 0.54930838E+02</totfact>
</mgrwt>
</event>
<event>
 4    1  0.5003329E-002  0.5157981E+03  0.7818608E-02  0.1009736E+00
         21   -1    0    0  501  502  0.00000000000E+00  0.00000000000E+00  0.33395917732E+03  0.33395917732E+03  0.00000000000E+00 0.  1.
         21   -1    0    0  502  503 -0.00000000000E+00 -0.00000000000E+00 -0.19535489620E+04  0.19535489620E+04  0.00000000000E+00 0. -1.
    9000007    1    1    2  501    0  0.25586103567E+03 -0.20145172855E+03  0.70379500488E+02  0.52057750873E+03  0.40000000000E+03 0.  1.
   -9000007    1    1    2    0  503 -0.25586103567E+03  0.20145172855E+03 -0.16899692851E+04  0.17669306306E+04  0.40000000000E+03 0. -1.
<mgrwt>
<rscale>  2 0.51579809E+03</rscale>
<asrwt>0</asrwt>
<pdfrwt beam="1">  1       21 0.51378336E-01 0.51579809E+03</pdfrwt>
<pdfrwt beam="2">  1       21 0.30054599E+00 0.51579809E+03</pdfrwt>
<totfact> 0.90497260E+01</totfact>
</mgrwt>
</event>
<event>
 4    1  0.5003329E-002  0.4114006E+03  0.7818608E-02  0.1039902E+00
         21   -1    0    0  501  502  0.00000000000E+00  0.00000000000E+00  0.12645907663E+04  0.12645907663E+04  0.00000000000E+00 0. -1.
         21   -1    0    0  502  503 -0.00000000000E+00 -0.00000000000E+00 -0.56463501012E+03  0.56463501012E+03  0.00000000000E+00 0. -1.
    9000007    1    1    2  501    0  0.92842899644E+02 -0.25112504056E+02  0.11488728700E+04  0.12203111543E+04  0.40000000000E+03 0. -1.
   -9000007    1    1    2    0  503 -0.92842899644E+02  0.25112504056E+02 -0.44891711385E+03  0.60891462208E+03  0.40000000000E+03 0. -1.
<mgrwt>
<rscale>  2 0.41140059E+03</rscale>
<asrwt>0</asrwt>
<pdfrwt beam="1">  1       21 0.19455243E+00 0.41140059E+03</pdfrwt>
<pdfrwt beam="2">  1       21 0.86866925E-01 0.41140059E+03</pdfrwt>
<totfact> 0.13618875E+02</totfact>
</mgrwt>
</event>
<event>
 4    1  0.5003329E-002  0.5838792E+03  0.7818608E-02  0.9939428E-01
         21   -1    0    0  501  502  0.00000000000E+00  0.00000000000E+00  0.50839470767E+03  0.50839470767E+03  0.00000000000E+00 0.  1.
         21   -1    0    0  502  503 -0.00000000000E+00 -0.00000000000E+00 -0.67799859894E+03  0.67799859894E+03  0.00000000000E+00 0. -1.
    9000007    1    1    2  501    0  0.32908021651E+03  0.26948318141E+03 -0.14688820495E+03  0.60207235339E+03  0.40000000000E+03 0. -1.
   -9000007    1    1    2    0  503 -0.32908021651E+03 -0.26948318141E+03 -0.22715686323E+02  0.58432095322E+03  0.40000000000E+03 0.  1.
<mgrwt>
<rscale>  2 0.58387925E+03</rscale>
<asrwt>0</asrwt>
<pdfrwt beam="1">  1       21 0.78214571E-01 0.58387925E+03</pdfrwt>
<pdfrwt beam="2">  1       21 0.10430748E+00 0.58387925E+03</pdfrwt>
<totfact> 0.86785642E+02</totfact>
</mgrwt>
</event>
<event>
 4    1  0.5003329E-002  0.4754282E+03  0.7818608E-02  0.1020399E+00
         21   -1    0    0  503  502  0.00000000000E+00  0.00000000000E+00  0.12013734836E+04  0.12013734836E+04  0.00000000000E+00 0.  1.
         21   -1    0    0  501  503 -0.00000000000E+00 -0.00000000000E+00 -0.18916311451E+03  0.18916311451E+03  0.00000000000E+00 0.  1.
    9000007    1    1    2  501    0  0.58434933708E+02 -0.25023461037E+03  0.55712110314E+03  0.73240420894E+03  0.40000000000E+03 0.  1.
   -9000007    1    1    2    0  502 -0.58434933708E+02  0.25023461037E+03  0.45508926596E+03  0.65813238919E+03  0.40000000000E+03 0.  1.
<mgrwt>
<rscale>  2 0.47542823E+03</rscale>
<asrwt>0</asrwt>
<pdfrwt beam="1">  1       21 0.18482669E+00 0.47542823E+03</pdfrwt>
<pdfrwt beam="2">  1       21 0.29102018E-01 0.47542823E+03</pdfrwt>
<totfact> 0.15968931E+03</totfact>
</mgrwt>
</event>
<event>
 4    1  0.5003329E-002  0.6114649E+03  0.7818608E-02  0.9881901E-01
         21   -1    0    0  501  502  0.00000000000E+00  0.00000000000E+00  0.74163305916E+03  0.74163305916E+03  0.00000000000E+00 0.  1.
         21   -1    0    0  502  503 -0.00000000000E+00 -0.00000000000E+00 -0.50516860715E+03  0.50516860715E+03  0.00000000000E+00 0. -1.
    9000007    1    1    2  501    0  0.29517945572E+03 -0.35603156248E+03  0.90147974793E+02  0.61807446309E+03  0.40000000000E+03 0. -1.
   -9000007    1    1    2    0  503 -0.29517945572E+03  0.35603156248E+03  0.14631647722E+03  0.62872720322E+03  0.40000000000E+03 0.  1.
<mgrwt>
<rscale>  2 0.61146495E+03</rscale>
<asrwt>0</asrwt>
<pdfrwt beam="1">  1       21 0.11409739E+00 0.61146495E+03</pdfrwt>
<pdfrwt beam="2">  1       21 0.77718247E-01 0.61146495E+03</pdfrwt>
<totfact> 0.69792246E+02</totfact>
</mgrwt>
</event>
<event>
 4    1  0.5003329E-002  0.4144950E+03  0.7818608E-02  0.1038873E+00
         21   -1    0    0  503  502  0.00000000000E+00  0.00000000000E+00  0.17073130591E+03  0.17073130591E+03  0.00000000000E+00 0.  1.
         21   -1    0    0  501  503 -0.00000000000E+00 -0.00000000000E+00 -0.20403529314E+04  0.20403529314E+04  0.00000000000E+00 0.  1.
    9000007    1    1    2  501    0 -0.81107856994E+02 -0.72302005825E+02 -0.17218476746E+04  0.17710351434E+04  0.40000000000E+03 0.  1.
   -9000007    1    1    2    0  502  0.81107856994E+02  0.72302005825E+02 -0.14777395088E+03  0.44004909393E+03  0.40000000000E+03 0.  1.
<mgrwt>
<rscale>  2 0.41449495E+03</rscale>
<asrwt>0</asrwt>
<pdfrwt beam="1">  1       21 0.26266355E-01 0.41449495E+03</pdfrwt>
<pdfrwt beam="2">  1       21 0.31390045E+00 0.41449495E+03</pdfrwt>
<totfact> 0.31446092E+02</totfact>
</mgrwt>
</event>
<event>
 4    1  0.5003329E-002  0.4494020E+03  0.7818608E-02  0.1027901E+00
         21   -1    0    0  501  502  0.00000000000E+00  0.00000000000E+00  0.21462200274E+03  0.21462200274E+03  0.00000000000E+00 0. -1.
         21   -1    0    0  502  503 -0.00000000000E+00 -0.00000000000E+00 -0.11106596040E+04  0.11106596040E+04  0.00000000000E+00 0. -1.
    9000007    1    1    2  501    0  0.19774078576E+03  0.53486284745E+02 -0.18904272973E+03  0.48754420792E+03  0.40000000000E+03 0. -1.
   -9000007    1    1    2    0  503 -0.19774078576E+03 -0.53486284745E+02 -0.70699487149E+03  0.83773739879E+03  0.40000000000E+03 0. -1.
<mgrwt>
<rscale>  2 0.44940205E+03</rscale>
<asrwt>0</asrwt>
<pdfrwt beam="1">  1       21 0.33018769E-01 0.44940205E+03</pdfrwt>
<pdfrwt beam="2">  1       21 0.17087071E+00 0.44940205E+03</pdfrwt>
<totfact> 0.15764686E+03</totfact>
</mgrwt>
</event>
<event>
 4    1  0.5003329E-002  0.4417720E+03  0.7818608E-02  0.1030204E+00
         21   -1    0    0  503  502  0.00000000000E+00  0.00000000000E+00  0.13132775017E+04  0.13132775017E+04  0.00000000000E+00 0.  1.
         21   -1    0    0  501  503 -0.00000000000E+00 -0.00000000000E+00 -0.20584405191E+03  0.20584405191E+03  0.00000000000E+00 0.  1.
    9000007    1    1    2  501    0 -0.15723308029E+03 -0.10217774755E+03  0.95424309918E+03  0.10515428788E+04  0.40000000000E+03 0.  1.
   -9000007    1    1    2    0  502  0.15723308029E+03  0.10217774755E+03  0.15319035063E+03  0.46757867483E+03  0.40000000000E+03 0.  1.
<mgrwt>
<rscale>  2 0.44177204E+03</rscale>
<asrwt>0</asrwt>
<pdfrwt beam="1">  1       21 0.20204269E+00 0.44177204E+03</pdfrwt>
<pdfrwt beam="2">  1       21 0.31668316E-01 0.44177204E+03</pdfrwt>
<totfact> 0.10464447E+03</totfact>
</mgrwt>
</event>
<event>
 4    1  0.5003329E-002  0.4416304E+03  0.7818608E-02  0.1030248E+00
         21   -1    0    0  503  502  0.00000000000E+00  0.00000000000E+00  0.84271096972E+03  0.84271096972E+03  0.00000000000E+00 0.  1.
         21   -1    0    0  501  503 -0.00000000000E+00 -0.00000000000E+00 -0.26399307381E+03  0.26399307381E+03  0.00000000000E+00 0. -1.
    9000007    1    1    2  501    0  0.56945258807E+02  0.17831063078E+03  0.95047701544E+02  0.45174274661E+03  0.40000000000E+03 0. -1.
   -9000007    1    1    2    0  502 -0.56945258807E+02 -0.17831063078E+03  0.48367019436E+03  0.65496129692E+03  0.40000000000E+03 0.  1.
<mgrwt>
<rscale>  2 0.44163044E+03</rscale>
<asrwt>0</asrwt>
<pdfrwt beam="1">  1       21 0.12964784E+00 0.44163044E+03</pdfrwt>
<pdfrwt beam="2">  1       21 0.40614319E-01 0.44163044E+03</pdfrwt>
<totfact> 0.21953610E+03</totfact>
</mgrwt>
</event>
<event>
 4    1  0.5003329E-002  0.5546242E+03  0.7818608E-02  0.1000429E+00
         21   -1    0    0  501  502  0.00000000000E+00  0.00000000000E+00  0.11922008403E+04  0.11922008403E+04  0.00000000000E+00 0. -1.
         21   -1    0    0  502  503 -0.00000000000E+00 -0.00000000000E+00 -0.62373915146E+03  0.62373915146E+03  0.00000000000E+00 0.  1.
    9000007    1    1    2  501    0  0.23279734653E+02 -0.38349193022E+03  0.97948831882E+03  0.11256133321E+04  0.40000000000E+03 0. -1.
   -9000007    1    1    2    0  503 -0.23279734653E+02  0.38349193022E+03 -0.41102662996E+03  0.69032665973E+03  0.40000000000E+03 0.  1.
<mgrwt>
<rscale>  2 0.55462420E+03</rscale>
<asrwt>0</asrwt>
<pdfrwt beam="1">  1       21 0.18341551E+00 0.55462420E+03</pdfrwt>
<pdfrwt beam="2">  1       21 0.95959869E-01 0.55462420E+03</pdfrwt>
<totfact> 0.11903523E+02</totfact>
</mgrwt>
</event>
<event>
 4    1  0.5003329E-002  0.5430075E+03  0.7818608E-02  0.1003125E+00
         21   -1    0    0  501  502  0.00000000000E+00  0.00000000000E+00  0.17301896328E+03  0.17301896328E+03  0.00000000000E+00 0. -1.
         21   -1    0    0  502  503 -0.00000000000E+00 -0.00000000000E+00 -0.19008359736E+04  0.19008359736E+04  0.00000000000E+00 0. -1.
    9000007    1    1    2  501    0 -0.33374878240E+03 -0.15319558782E+03 -0.53039079462E+03  0.75905963725E+03  0.40000000000E+03 0. -1.
   -9000007    1    1    2    0  503  0.33374878240E+03  0.15319558782E+03 -0.11974262157E+04  0.13147952996E+04  0.40000000000E+03 0. -1.
<mgrwt>
<rscale>  2 0.54300749E+03</rscale>
<asrwt>0</asrwt>
<pdfrwt beam="1">  1       21 0.26618303E-01 0.54300749E+03</pdfrwt>
<pdfrwt beam="2">  1       21 0.29243629E+00 0.54300749E+03</pdfrwt>
<totfact> 0.38447913E+02</totfact>
</mgrwt>
</event>
<event>
 4    1  0.5003329E-002  0.4109411E+03  0.7818608E-02  0.1040056E+00
         21   -1    0    0  503  502  0.00000000000E+00  0.00000000000E+00  0.34850731069E+03  0.34850731069E+03  0.00000000000E+00 0.  1.
         21   -1    0    0  501  503 -0.00000000000E+00 -0.00000000000E+00 -0.55781778778E+03  0.55781778778E+03  0.00000000000E+00 0.  1.
    9000007    1    1    2  501    0  0.45735415157E+02  0.82346132136E+02 -0.26887880777E+03  0.49108902141E+03  0.40000000000E+03 0.  1.
   -9000007    1    1    2    0  502 -0.45735415157E+02 -0.82346132136E+02  0.59568330681E+02  0.41523607707E+03  0.40000000000E+03 0.  1.
<mgrwt>
<rscale>  2 0.41094113E+03</rscale>
<asrwt>0</asrwt>
<pdfrwt beam="1">  1       21 0.53616511E-01 0.41094113E+03</pdfrwt>
<pdfrwt beam="2">  1       21 0.85818119E-01 0.41094113E+03</pdfrwt>
<totfact> 0.34147920E+03</totfact>
</mgrwt>
</event>
<event>
 4    1  0.5003329E-002  0.4035975E+03  0.7818608E-02  0.1042541E+00
         21   -1    0    0  503  502  0.00000000000E+00  0.00000000000E+00  0.84600114470E+03  0.84600114470E+03  0.00000000000E+00 0. -1.
         21   -1    0    0  501  503 -0.00000000000E+00 -0.00000000000E+00 -0.20387822402E+03  0.20387822402E+03  0.00000000000E+00 0. -1.
    9000007    1    1    2  501    0 -0.53688447344E+02  0.29078536846E+01  0.44484267489E+03  0.60064624397E+03  0.40000000000E+03 0. -1.
   -9000007    1    1    2    0  502  0.53688447344E+02 -0.29078536846E+01  0.19728024580E+03  0.44923312475E+03  0.40000000000E+03 0. -1.
<mgrwt>
<rscale>  2 0.40359745E+03</rscale>
<asrwt>0</asrwt>
<pdfrwt beam="1">  1       21 0.13015402E+00 0.40359745E+03</pdfrwt>
<pdfrwt beam="2">  1       21 0.31365881E-01 0.40359745E+03</pdfrwt>
<totfact> 0.37245594E+03</totfact>
</mgrwt>
</event>
<event>
 4    1  0.5003329E-002  0.5450751E+03  0.7818608E-02  0.1002640E+00
         21   -1    0    0  503  502  0.00000000000E+00  0.00000000000E+00  0.17222812221E+04  0.17222812221E+04  0.00000000000E+00 0. -1.
         21   -1    0    0  501  503 -0.00000000000E+00 -0.00000000000E+00 -0.18754971222E+03  0.18754971222E+03  0.00000000000E+00 0.  1.
    9000007    1    1    2  501    0  0.12886658429E+03 -0.34713147143E+03  0.10377983296E+04  0.11722338623E+04  0.40000000000E+03 0. -1.
   -9000007    1    1    2    0  502 -0.12886658429E+03  0.34713147143E+03  0.49693318034E+03  0.73759707207E+03  0.40000000000E+03 0.  1.
<mgrwt>
<rscale>  2 0.54507509E+03</rscale>
<asrwt>0</asrwt>
<pdfrwt beam="1">  1       21 0.26496633E+00 0.54507509E+03</pdfrwt>
<pdfrwt beam="2">  1       21 0.28853803E-01 0.54507509E+03</pdfrwt>
<totfact> 0.48135307E+02</totfact>
</mgrwt>
</event>
<event>
 4    1  0.5003329E-002  0.4146295E+03  0.7818608E-02  0.1038829E+00
         21   -1    0    0  501  502  0.00000000000E+00  0.00000000000E+00  0.99008282143E+03  0.99008282143E+03  0.00000000000E+00 0. -1.
         21   -1    0    0  502  503 -0.00000000000E+00 -0.00000000000E+00 -0.23498140494E+03  0.23498140494E+03  0.00000000000E+00 0. -1.
    9000007    1    1    2  501    0  0.59198009322E+01  0.10900742632E+03  0.69051162905E+03  0.80543402765E+03  0.40000000000E+03 0. -1.
   -9000007    1    1    2    0  503 -0.59198009322E+01 -0.10900742632E+03  0.64589787446E+02  0.41963019872E+03  0.40000000000E+03 0. -1.
<mgrwt>
<rscale>  2 0.41462955E+03</rscale>
<asrwt>0</asrwt>
<pdfrwt beam="1">  1       21 0.15232043E+00 0.41462955E+03</pdfrwt>
<pdfrwt beam="2">  1       21 0.36150986E-01 0.41462955E+03</pdfrwt>
<totfact> 0.18359165E+03</totfact>
</mgrwt>
</event>
<event>
 4    1  0.5003329E-002  0.4408545E+03  0.7818608E-02  0.1030485E+00
         21   -1    0    0  503  502  0.00000000000E+00  0.00000000000E+00  0.74198430835E+03  0.74198430835E+03  0.00000000000E+00 0. -1.
         21   -1    0    0  501  503 -0.00000000000E+00 -0.00000000000E+00 -0.26246121481E+03  0.26246121481E+03  0.00000000000E+00 0. -1.
    9000007    1    1    2  501    0 -0.18288755234E+03  0.30080759859E+02  0.26221903104E+03  0.51294398247E+03  0.40000000000E+03 0. -1.
   -9000007    1    1    2    0  502  0.18288755234E+03 -0.30080759859E+02  0.21730406250E+03  0.49150154068E+03  0.40000000000E+03 0. -1.
<mgrwt>
<rscale>  2 0.44085452E+03</rscale>
<asrwt>0</asrwt>
<pdfrwt beam="1">  1       21 0.11415143E+00 0.44085452E+03</pdfrwt>
<pdfrwt beam="2">  1       21 0.40378649E-01 0.44085452E+03</pdfrwt>
<totfact> 0.30739335E+03</totfact>
</mgrwt>
</event>
<event>
 4    1  0.5003329E-002  0.4474140E+03  0.7818608E-02  0.1028496E+00
         21   -1    0    0  501  502  0.00000000000E+00  0.00000000000E+00  0.87180864486E+03  0.87180864486E+03  0.00000000000E+00 0. -1.
         21   -1    0    0  502  503 -0.00000000000E+00 -0.00000000000E+00 -0.31059455160E+03  0.31059455160E+03  0.00000000000E+00 0. -1.
    9000007    1    1    2  501    0  0.15748348192E+03 -0.12400921287E+03  0.58248366291E+03  0.73448386606E+03  0.40000000000E+03 0. -1.
   -9000007    1    1    2    0  503 -0.15748348192E+03  0.12400921287E+03 -0.21269569644E+02  0.44791933040E+03  0.40000000000E+03 0. -1.
<mgrwt>
<rscale>  2 0.44741405E+03</rscale>
<asrwt>0</asrwt>
<pdfrwt beam="1">  1       21 0.13412441E+00 0.44741405E+03</pdfrwt>
<pdfrwt beam="2">  1       21 0.47783777E-01 0.44741405E+03</pdfrwt>
<totfact> 0.14279754E+03</totfact>
</mgrwt>
</event>
<event>
 4    1  0.5003329E-002  0.6002303E+03  0.7818608E-02  0.9904928E-01
         21   -1    0    0  501  502  0.00000000000E+00  0.00000000000E+00  0.12905358575E+04  0.12905358575E+04  0.00000000000E+00 0.  1.
         21   -1    0    0  502  503 -0.00000000000E+00 -0.00000000000E+00 -0.52051253214E+03  0.52051253214E+03  0.00000000000E+00 0.  1.
    9000007    1    1    2  501    0 -0.23607670258E+03 -0.38018964970E+03  0.10016111373E+04  0.11676905624E+04  0.40000000000E+03 0.  1.
   -9000007    1    1    2    0  503  0.23607670258E+03  0.38018964970E+03 -0.23158781190E+03  0.64335782724E+03  0.40000000000E+03 0.  1.
<mgrwt>
<rscale>  2 0.60023027E+03</rscale>
<asrwt>0</asrwt>
<pdfrwt beam="1">  1       21 0.19854398E+00 0.60023027E+03</pdfrwt>
<pdfrwt beam="2">  1       21 0.80078851E-01 0.60023027E+03</pdfrwt>
<totfact> 0.14097585E+02</totfact>
</mgrwt>
</event>
<event>
 4    1  0.5003329E-002  0.5420383E+03  0.7818608E-02  0.1003354E+00
         21   -1    0    0  503  502  0.00000000000E+00  0.00000000000E+00  0.15295437336E+04  0.15295437336E+04  0.00000000000E+00 0. -1.
         21   -1    0    0  501  503 -0.00000000000E+00 -0.00000000000E+00 -0.19302926077E+03  0.19302926077E+03  0.00000000000E+00 0. -1.
    9000007    1    1    2  501    0 -0.35242453475E+03  0.97992072037E+02  0.60808213384E+03  0.81459768007E+03  0.40000000000E+03 0. -1.
   -9000007    1    1    2    0  502  0.35242453475E+03 -0.97992072037E+02  0.72843233897E+03  0.90797531428E+03  0.40000000000E+03 0. -1.
<mgrwt>
<rscale>  2 0.54203828E+03</rscale>
<asrwt>0</asrwt>
<pdfrwt beam="1">  1       21 0.23531441E+00 0.54203828E+03</pdfrwt>
<pdfrwt beam="2">  1       21 0.29696810E-01 0.54203828E+03</pdfrwt>
<totfact> 0.69495335E+02</totfact>
</mgrwt>
</event>
<event>
 4    1  0.5003329E-002  0.4778002E+03  0.7818608E-02  0.1019741E+00
         21   -1    0    0  501  502  0.00000000000E+00  0.00000000000E+00  0.40731654499E+03  0.40731654499E+03  0.00000000000E+00 0. -1.
         21   -1    0    0  502  503 -0.00000000000E+00 -0.00000000000E+00 -0.59175264924E+03  0.59175264924E+03  0.00000000000E+00 0.  1.
    9000007    1    1    2  501    0  0.18536065976E+03 -0.18421310444E+03  0.22616686924E+02  0.47833519268E+03  0.40000000000E+03 0.  1.
   -9000007    1    1    2    0  503 -0.18536065976E+03  0.18421310444E+03 -0.20705279118E+03  0.52073400155E+03  0.40000000000E+03 0. -1.
<mgrwt>
<rscale>  2 0.47780021E+03</rscale>
<asrwt>0</asrwt>
<pdfrwt beam="1">  1       21 0.62664084E-01 0.47780021E+03</pdfrwt>
<pdfrwt beam="2">  1       21 0.91038869E-01 0.47780021E+03</pdfrwt>
<totfact> 0.20641581E+03</totfact>
</mgrwt>
</event>
<event>
 4    1  0.5003329E-002  0.4352939E+03  0.7818608E-02  0.1032201E+00
         21   -1    0    0  503  502  0.00000000000E+00  0.00000000000E+00  0.13949752538E+04  0.13949752538E+04  0.00000000000E+00 0. -1.
         21   -1    0    0  501  503 -0.00000000000E+00 -0.00000000000E+00 -0.10782286476E+04  0.10782286476E+04  0.00000000000E+00 0. -1.
    9000007    1    1    2  501    0  0.15723176202E+03  0.68984961015E+02 -0.99771661129E+03  0.10885399342E+04  0.40000000000E+03 0. -1.
   -9000007    1    1    2    0  502 -0.15723176202E+03 -0.68984961015E+02  0.13144632176E+04  0.13846639672E+04  0.40000000000E+03 0. -1.
<mgrwt>
<rscale>  2 0.43529387E+03</rscale>
<asrwt>0</asrwt>
<pdfrwt beam="1">  1       21 0.21461158E+00 0.43529387E+03</pdfrwt>
<pdfrwt beam="2">  1       21 0.16588133E+00 0.43529387E+03</pdfrwt>
<totfact> 0.18995819E+01</totfact>
</mgrwt>
</event>
<event>
 4    1  0.5003329E-002  0.5380659E+03  0.7818608E-02  0.1004295E+00
         21   -1    0    0  503  502  0.00000000000E+00  0.00000000000E+00  0.56615586361E+03  0.56615586361E+03  0.00000000000E+00 0.  1.
         21   -1    0    0  501  503 -0.00000000000E+00 -0.00000000000E+00 -0.51182818717E+03  0.51182818717E+03  0.00000000000E+00 0. -1.
    9000007    1    1    2  501    0 -0.35465936208E+03  0.61087362376E+02  0.43296457761E+02  0.53980506871E+03  0.40000000000E+03 0. -1.
   -9000007    1    1    2    0  502  0.35465936208E+03 -0.61087362376E+02  0.11031218684E+02  0.53817898207E+03  0.40000000000E+03 0. -1.
<mgrwt>
<rscale>  2 0.53806592E+03</rscale>
<asrwt>0</asrwt>
<pdfrwt beam="1">  1       21 0.87100902E-01 0.53806592E+03</pdfrwt>
<pdfrwt beam="2">  1       21 0.78742798E-01 0.53806592E+03</pdfrwt>
<totfact> 0.13403681E+03</totfact>
</mgrwt>
</event>
<event>
 4    1  0.5003329E-002  0.7206449E+03  0.7818608E-02  0.9682564E-01
         21   -1    0    0  501  502  0.00000000000E+00  0.00000000000E+00  0.32662569868E+03  0.32662569868E+03  0.00000000000E+00 0. -1.
         21   -1    0    0  502  503 -0.00000000000E+00 -0.00000000000E+00 -0.15916973829E+04  0.15916973829E+04  0.00000000000E+00 0.  1.
    9000007    1    1    2  501    0  0.15308889592E+03 -0.57956270913E+03 -0.60105262116E+03  0.93839938047E+03  0.40000000000E+03 0. -1.
   -9000007    1    1    2    0  503 -0.15308889592E+03  0.57956270913E+03 -0.66401906304E+03  0.97992370109E+03  0.40000000000E+03 0.  1.
<mgrwt>
<rscale>  2 0.72064495E+03</rscale>
<asrwt>0</asrwt>
<pdfrwt beam="1">  1       21 0.50250106E-01 0.72064495E+03</pdfrwt>
<pdfrwt beam="2">  1       21 0.24487653E+00 0.72064495E+03</pdfrwt>
<totfact> 0.19085464E+02</totfact>
</mgrwt>
</event>
<event>
 4    1  0.5003329E-002  0.4450065E+03  0.7818608E-02  0.1029222E+00
         21   -1    0    0  503  502  0.00000000000E+00  0.00000000000E+00  0.44875449537E+03  0.44875449537E+03  0.00000000000E+00 0.  1.
         21   -1    0    0  501  503 -0.00000000000E+00 -0.00000000000E+00 -0.99905785644E+03  0.99905785644E+03  0.00000000000E+00 0. -1.
    9000007    1    1    2  501    0 -0.18587612344E+03 -0.58999068531E+02 -0.81604764967E+03  0.92949695529E+03  0.40000000000E+03 0. -1.
   -9000007    1    1    2    0  502  0.18587612344E+03  0.58999068531E+02  0.26574428860E+03  0.51831539653E+03  0.40000000000E+03 0.  1.
<mgrwt>
<rscale>  2 0.44500654E+03</rscale>
<asrwt>0</asrwt>
<pdfrwt beam="1">  1       21 0.69039155E-01 0.44500654E+03</pdfrwt>
<pdfrwt beam="2">  1       21 0.15370121E+00 0.44500654E+03</pdfrwt>
<totfact> 0.44557899E+02</totfact>
</mgrwt>
</event>
<event>
 4    1  0.5003329E-002  0.6112412E+03  0.7818608E-02  0.9882355E-01
         21   -1    0    0  503  502  0.00000000000E+00  0.00000000000E+00  0.84278091970E+03  0.84278091970E+03  0.00000000000E+00 0. -1.
         21   -1    0    0  501  503 -0.00000000000E+00 -0.00000000000E+00 -0.59604878816E+03  0.59604878816E+03  0.00000000000E+00 0.  1.
    9000007    1    1    2  501    0 -0.12737699492E+03  0.44428691156E+03 -0.24080787526E+03  0.65696589821E+03  0.40000000000E+03 0. -1.
   -9000007    1    1    2    0  502  0.12737699492E+03 -0.44428691156E+03  0.48754000680E+03  0.78186380966E+03  0.40000000000E+03 0. -1.
<mgrwt>
<rscale>  2 0.61124116E+03</rscale>
<asrwt>0</asrwt>
<pdfrwt beam="1">  1       21 0.12965860E+00 0.61124116E+03</pdfrwt>
<pdfrwt beam="2">  1       21 0.91699814E-01 0.61124116E+03</pdfrwt>
<totfact> 0.34034482E+02</totfact>
</mgrwt>
</event>
<event>
 4    1  0.5003329E-002  0.4606238E+03  0.7818608E-02  0.1024600E+00
         21   -1    0    0  503  502  0.00000000000E+00  0.00000000000E+00  0.32549050922E+03  0.32549050922E+03  0.00000000000E+00 0.  1.
         21   -1    0    0  501  503 -0.00000000000E+00 -0.00000000000E+00 -0.67223096765E+03  0.67223096765E+03  0.00000000000E+00 0. -1.
    9000007    1    1    2  501    0 -0.11425458881E+03  0.19778830250E+03 -0.26021091940E+03  0.52904068487E+03  0.40000000000E+03 0.  1.
   -9000007    1    1    2    0  502  0.11425458881E+03 -0.19778830250E+03 -0.86529539027E+02  0.46868079201E+03  0.40000000000E+03 0. -1.
<mgrwt>
<rscale>  2 0.46062384E+03</rscale>
<asrwt>0</asrwt>
<pdfrwt beam="1">  1       21 0.50075463E-01 0.46062384E+03</pdfrwt>
<pdfrwt beam="2">  1       21 0.10342015E+00 0.46062384E+03</pdfrwt>
<totfact> 0.24826301E+03</totfact>
</mgrwt>
</event>
<event>
 4    1  0.5003329E-002  0.4372875E+03  0.7818608E-02  0.1031582E+00
         21   -1    0    0  501  502  0.00000000000E+00  0.00000000000E+00  0.34004445079E+03  0.34004445079E+03  0.00000000000E+00 0. -1.
         21   -1    0    0  502  503 -0.00000000000E+00 -0.00000000000E+00 -0.89310783895E+03  0.89310783895E+03  0.00000000000E+00 0. -1.
    9000007    1    1    2  501    0 -0.15189151290E+03  0.90273710649E+02  0.98697684187E+02  0.44828741605E+03  0.40000000000E+03 0. -1.
   -9000007    1    1    2    0  503  0.15189151290E+03 -0.90273710649E+02 -0.65176107235E+03  0.78486487369E+03  0.40000000000E+03 0. -1.
<mgrwt>
<rscale>  2 0.43728752E+03</rscale>
<asrwt>0</asrwt>
<pdfrwt beam="1">  1       21 0.52314532E-01 0.43728752E+03</pdfrwt>
<pdfrwt beam="2">  1       21 0.13740120E+00 0.43728752E+03</pdfrwt>
<totfact> 0.11101933E+03</totfact>
</mgrwt>
</event>
<event>
 4    1  0.5003329E-002  0.5621812E+03  0.7818608E-02  0.9987131E-01
         21   -1    0    0  503  502  0.00000000000E+00  0.00000000000E+00  0.86881517800E+03  0.86881517800E+03  0.00000000000E+00 0.  1.
         21   -1    0    0  501  503 -0.00000000000E+00 -0.00000000000E+00 -0.37074059196E+03  0.37074059196E+03  0.00000000000E+00 0. -1.
    9000007    1    1    2  501    0  0.15915870654E+03  0.36154696811E+03  0.16404518164E+03  0.58562660940E+03  0.40000000000E+03 0. -1.
   -9000007    1    1    2    0  502 -0.15915870654E+03 -0.36154696811E+03  0.33402940441E+03  0.65392916056E+03  0.40000000000E+03 0. -1.
<mgrwt>
<rscale>  2 0.56218120E+03</rscale>
<asrwt>0</asrwt>
<pdfrwt beam="1">  1       21 0.13366387E+00 0.56218120E+03</pdfrwt>
<pdfrwt beam="2">  1       21 0.57037014E-01 0.56218120E+03</pdfrwt>
<totfact> 0.94462866E+02</totfact>
</mgrwt>
</event>
<event>
 4    1  0.5003329E-002  0.4326414E+03  0.7818608E-02  0.1033029E+00
         21   -1    0    0  503  502  0.00000000000E+00  0.00000000000E+00  0.19524987427E+03  0.19524987427E+03  0.00000000000E+00 0.  1.
         21   -1    0    0  501  503 -0.00000000000E+00 -0.00000000000E+00 -0.10334336898E+04  0.10334336898E+04  0.00000000000E+00 0. -1.
    9000007    1    1    2  501    0  0.11767549369E+03 -0.11546010716E+03 -0.58434077297E+03  0.72707131501E+03  0.40000000000E+03 0. -1.
   -9000007    1    1    2    0  502 -0.11767549369E+03  0.11546010716E+03 -0.25384304259E+03  0.50161224908E+03  0.40000000000E+03 0.  1.
<mgrwt>
<rscale>  2 0.43264137E+03</rscale>
<asrwt>0</asrwt>
<pdfrwt beam="1">  1       21 0.30038442E-01 0.43264137E+03</pdfrwt>
<pdfrwt beam="2">  1       21 0.15898980E+00 0.43264137E+03</pdfrwt>
<totfact> 0.23486726E+03</totfact>
</mgrwt>
</event>
<event>
 4    1  0.5003329E-002  0.4295764E+03  0.7818608E-02  0.1033994E+00
         21   -1    0    0  501  502  0.00000000000E+00  0.00000000000E+00  0.15314660443E+04  0.15314660443E+04  0.00000000000E+00 0.  1.
         21   -1    0    0  502  503 -0.00000000000E+00 -0.00000000000E+00 -0.15679274717E+03  0.15679274717E+03  0.00000000000E+00 0.  1.
    9000007    1    1    2  501    0 -0.15093382067E+03  0.41890795338E+02  0.10934793237E+04  0.11748331321E+04  0.40000000000E+03 0.  1.
   -9000007    1    1    2    0  503  0.15093382067E+03 -0.41890795338E+02  0.28119397335E+03  0.51342565928E+03  0.40000000000E+03 0.  1.
<mgrwt>
<rscale>  2 0.42957637E+03</rscale>
<asrwt>0</asrwt>
<pdfrwt beam="1">  1       21 0.23561015E+00 0.42957637E+03</pdfrwt>
<pdfrwt beam="2">  1       21 0.24121962E-01 0.42957637E+03</pdfrwt>
<totfact> 0.10955697E+03</totfact>
</mgrwt>
</event>
<event>
 4    1  0.5003329E-002  0.4914757E+03  0.7818608E-02  0.1016028E+00
         21   -1    0    0  501  502  0.00000000000E+00  0.00000000000E+00  0.49348976970E+03  0.49348976970E+03  0.00000000000E+00 0.  1.
         21   -1    0    0  502  503 -0.00000000000E+00 -0.00000000000E+00 -0.11445745849E+04  0.11445745849E+04  0.00000000000E+00 0.  1.
    9000007    1    1    2  501    0  0.26793999955E+03 -0.98775264289E+02  0.29409019761E+03  0.57274552860E+03  0.40000000000E+03 0.  1.
   -9000007    1    1    2    0  503 -0.26793999955E+03  0.98775264289E+02 -0.94517501282E+03  0.10653188260E+04  0.40000000000E+03 0.  1.
<mgrwt>
<rscale>  2 0.49147573E+03</rscale>
<asrwt>0</asrwt>
<pdfrwt beam="1">  1       21 0.75921503E-01 0.49147573E+03</pdfrwt>
<pdfrwt beam="2">  1       21 0.17608840E+00 0.49147573E+03</pdfrwt>
<totfact> 0.23946344E+02</totfact>
</mgrwt>
</event>
<event>
 4    1  0.5003329E-002  0.4267176E+03  0.7818608E-02  0.1034902E+00
         21   -1    0    0  503  502  0.00000000000E+00  0.00000000000E+00  0.22726650163E+03  0.22726650163E+03  0.00000000000E+00 0.  1.
         21   -1    0    0  501  503 -0.00000000000E+00 -0.00000000000E+00 -0.92689288105E+03  0.92689288105E+03  0.00000000000E+00 0.  1.
    9000007    1    1    2  501    0 -0.29469036786E+02 -0.14566904948E+03 -0.13731201058E+03  0.44826608655E+03  0.40000000000E+03 0.  1.
   -9000007    1    1    2    0  502  0.29469036786E+02  0.14566904948E+03 -0.56231436884E+03  0.70589329612E+03  0.40000000000E+03 0.  1.
<mgrwt>
<rscale>  2 0.42671758E+03</rscale>
<asrwt>0</asrwt>
<pdfrwt beam="1">  1       21 0.34964077E-01 0.42671758E+03</pdfrwt>
<pdfrwt beam="2">  1       21 0.14259891E+00 0.42671758E+03</pdfrwt>
<totfact> 0.23345800E+03</totfact>
</mgrwt>
</event>
<event>
 4    1  0.5003329E-002  0.4334243E+03  0.7818608E-02  0.1032784E+00
         21   -1    0    0  501  502  0.00000000000E+00  0.00000000000E+00  0.10041917769E+04  0.10041917769E+04  0.00000000000E+00 0. -1.
         21   -1    0    0  502  503 -0.00000000000E+00 -0.00000000000E+00 -0.42072425518E+03  0.42072425518E+03  0.00000000000E+00 0. -1.
    9000007    1    1    2  501    0 -0.89241112282E+02  0.14104124079E+03 -0.23920579238E+03  0.49505153149E+03  0.40000000000E+03 0. -1.
   -9000007    1    1    2    0  503  0.89241112282E+02 -0.14104124079E+03  0.82267331411E+03  0.92986450060E+03  0.40000000000E+03 0. -1.
<mgrwt>
<rscale>  2 0.43342428E+03</rscale>
<asrwt>0</asrwt>
<pdfrwt beam="1">  1       21 0.15449104E+00 0.43342428E+03</pdfrwt>
<pdfrwt beam="2">  1       21 0.64726809E-01 0.43342428E+03</pdfrwt>
<totfact> 0.51023324E+02</totfact>
</mgrwt>
</event>
<event>
 4    1  0.5003329E-002  0.4228741E+03  0.7818608E-02  0.1036135E+00
         21   -1    0    0  503  502  0.00000000000E+00  0.00000000000E+00  0.28931441058E+03  0.28931441058E+03  0.00000000000E+00 0. -1.
         21   -1    0    0  501  503 -0.00000000000E+00 -0.00000000000E+00 -0.90365626274E+03  0.90365626274E+03  0.00000000000E+00 0. -1.
    9000007    1    1    2  501    0  0.97748827497E+02  0.96268893741E+02 -0.64248446738E+03  0.76916111707E+03  0.40000000000E+03 0. -1.
   -9000007    1    1    2    0  502 -0.97748827497E+02 -0.96268893741E+02  0.28142615218E+02  0.42380955625E+03  0.40000000000E+03 0. -1.
<mgrwt>
<rscale>  2 0.42287413E+03</rscale>
<asrwt>0</asrwt>
<pdfrwt beam="1">  1       21 0.44509910E-01 0.42287413E+03</pdfrwt>
<pdfrwt beam="2">  1       21 0.13902404E+00 0.42287413E+03</pdfrwt>
<totfact> 0.15237758E+03</totfact>
</mgrwt>
</event>
<event>
 4    1  0.5003329E-002  0.5160367E+03  0.7818608E-02  0.1009676E+00
         21   -1    0    0  501  502  0.00000000000E+00  0.00000000000E+00  0.16048081629E+03  0.16048081629E+03  0.00000000000E+00 0. -1.
         21   -1    0    0  502  503 -0.00000000000E+00 -0.00000000000E+00 -0.16917279592E+04  0.16917279592E+04  0.00000000000E+00 0. -1.
    9000007    1    1    2  501    0 -0.11206037581E+03 -0.30616392692E+03 -0.63750327584E+03  0.82018553065E+03  0.40000000000E+03 0. -1.
   -9000007    1    1    2    0  503  0.11206037581E+03  0.30616392692E+03 -0.89374386704E+03  0.10320232448E+04  0.40000000000E+03 0. -1.
<mgrwt>
<rscale>  2 0.51603670E+03</rscale>
<asrwt>0</asrwt>
<pdfrwt beam="1">  1       21 0.24689358E-01 0.51603670E+03</pdfrwt>
<pdfrwt beam="2">  1       21 0.26026582E+00 0.51603670E+03</pdfrwt>
<totfact> 0.70786333E+02</totfact>
</mgrwt>
</event>
<event>
 4    1  0.5003329E-002  0.4066217E+03  0.7818608E-02  0.1041511E+00
         21   -1    0    0  501  502  0.00000000000E+00  0.00000000000E+00  0.40759197088E+03  0.40759197088E+03  0.00000000000E+00 0.  1.
         21   -1    0    0  502  503 -0.00000000000E+00 -0.00000000000E+00 -0.68191626002E+03  0.68191626002E+03  0.00000000000E+00 0.  1.
    9000007    1    1    2  501    0  0.72430154225E+02 -0.97489331626E+01  0.20957155663E+03  0.45745098785E+03  0.40000000000E+03 0.  1.
   -9000007    1    1    2    0  503 -0.72430154225E+02  0.97489331626E+01 -0.48389584577E+03  0.63205724305E+03  0.40000000000E+03 0.  1.
<mgrwt>
<rscale>  2 0.40662165E+03</rscale>
<asrwt>0</asrwt>
<pdfrwt beam="1">  1       21 0.62706457E-01 0.40662165E+03</pdfrwt>
<pdfrwt beam="2">  1       21 0.10491019E+00 0.40662165E+03</pdfrwt>
<totfact> 0.15047368E+03</totfact>
</mgrwt>
</event>
<event>
 4    1  0.5003329E-002  0.4284070E+03  0.7818608E-02  0.1034364E+00
         21   -1    0    0  503  502  0.00000000000E+00  0.00000000000E+00  0.22111209430E+04  0.22111209430E+04  0.00000000000E+00 0. -1.
         21   -1    0    0  501  503 -0.00000000000E+00 -0.00000000000E+00 -0.10668300769E+03  0.10668300769E+03  0.00000000000E+00 0.  1.
    9000007    1    1    2  501    0 -0.15339534725E+03  0.15623244604E+01  0.50623742368E+03  0.66318089731E+03  0.40000000000E+03 0.  1.
   -9000007    1    1    2    0  502  0.15339534725E+03 -0.15623244604E+01  0.15982005116E+04  0.16546230533E+04  0.40000000000E+03 0. -1.
<mgrwt>
<rscale>  2 0.42840702E+03</rscale>
<asrwt>0</asrwt>
<pdfrwt beam="1">  1       21 0.34017242E+00 0.42840702E+03</pdfrwt>
<pdfrwt beam="2">  1       21 0.16412772E-01 0.42840702E+03</pdfrwt>
<totfact> 0.53063885E+02</totfact>
</mgrwt>
</event>
<event>
 4    1  0.5003329E-002  0.4597533E+03  0.7818608E-02  0.1024853E+00
         21   -1    0    0  501  502  0.00000000000E+00  0.00000000000E+00  0.39968685041E+03  0.39968685041E+03  0.00000000000E+00 0.  1.
         21   -1    0    0  502  503 -0.00000000000E+00 -0.00000000000E+00 -0.54789129121E+03  0.54789129121E+03  0.00000000000E+00 0. -1.
    9000007    1    1    2  501    0 -0.32586059261E+02  0.22430176304E+03  0.14230569471E+02  0.45997352236E+03  0.40000000000E+03 0.  1.
   -9000007    1    1    2    0  503  0.32586059261E+02 -0.22430176304E+03 -0.16243501027E+03  0.48760461926E+03  0.40000000000E+03 0. -1.
<mgrwt>
<rscale>  2 0.45975334E+03</rscale>
<asrwt>0</asrwt>
<pdfrwt beam="1">  1       21 0.61490284E-01 0.45975334E+03</pdfrwt>
<pdfrwt beam="2">  1       21 0.84290968E-01 0.45975334E+03</pdfrwt>
<totfact> 0.25970804E+03</totfact>
</mgrwt>
</event>
<event>
 4    1  0.5003329E-002  0.4935371E+03  0.7818608E-02  0.1015480E+00
         21   -1    0    0  503  502  0.00000000000E+00  0.00000000000E+00  0.54006756946E+03  0.54006756946E+03  0.00000000000E+00 0.  1.
         21   -1    0    0  501  503 -0.00000000000E+00 -0.00000000000E+00 -0.56859774819E+03  0.56859774819E+03  0.00000000000E+00 0.  1.
    9000007    1    1    2  501    0  0.26077890042E+03  0.12479289445E+03 -0.26634520237E+03  0.56081963967E+03  0.40000000000E+03 0.  1.
   -9000007    1    1    2    0  502 -0.26077890042E+03 -0.12479289445E+03  0.23781502364E+03  0.54784567798E+03  0.40000000000E+03 0.  1.
<mgrwt>
<rscale>  2 0.49353713E+03</rscale>
<asrwt>0</asrwt>
<pdfrwt beam="1">  1       21 0.83087319E-01 0.49353713E+03</pdfrwt>
<pdfrwt beam="2">  1       21 0.87476576E-01 0.49353713E+03</pdfrwt>
<totfact> 0.11891692E+03</totfact>
</mgrwt>
</event>
<event>
 4    1  0.5003329E-002  0.4037068E+03  0.7818608E-02  0.1042504E+00
         21   -1    0    0  501  502  0.00000000000E+00  0.00000000000E+00  0.18886549298E+03  0.18886549298E+03  0.00000000000E+00 0.  1.
         21   -1    0    0  502  503 -0.00000000000E+00 -0.00000000000E+00 -0.87023027634E+03  0.87023027634E+03  0.00000000000E+00 0.  1.
    9000007    1    1    2  501    0  0.52136466865E+02  0.16153823216E+02 -0.29220623813E+03  0.49836095632E+03  0.40000000000E+03 0.  1.
   -9000007    1    1    2    0  503 -0.52136466865E+02 -0.16153823216E+02 -0.38915854523E+03  0.56073481300E+03  0.40000000000E+03 0.  1.
<mgrwt>
<rscale>  2 0.40370677E+03</rscale>
<asrwt>0</asrwt>
<pdfrwt beam="1">  1       21 0.29056230E-01 0.40370677E+03</pdfrwt>
<pdfrwt beam="2">  1       21 0.13388158E+00 0.40370677E+03</pdfrwt>
<totfact> 0.40284203E+03</totfact>
</mgrwt>
</event>
<event>
 4    1  0.5003329E-002  0.4548572E+03  0.7818608E-02  0.1026283E+00
         21   -1    0    0  503  502  0.00000000000E+00  0.00000000000E+00  0.29202882084E+03  0.29202882084E+03  0.00000000000E+00 0. -1.
         21   -1    0    0  501  503 -0.00000000000E+00 -0.00000000000E+00 -0.20864743551E+04  0.20864743551E+04  0.00000000000E+00 0.  1.
    9000007    1    1    2  501    0  0.12238099511E+03  0.17865606458E+03 -0.18637002342E+04  0.19184039357E+04  0.40000000000E+03 0.  1.
   -9000007    1    1    2    0  502 -0.12238099511E+03 -0.17865606458E+03  0.69254700010E+02  0.46009924022E+03  0.40000000000E+03 0. -1.
<mgrwt>
<rscale>  2 0.45485723E+03</rscale>
<asrwt>0</asrwt>
<pdfrwt beam="1">  1       21 0.44927513E-01 0.45485723E+03</pdfrwt>
<pdfrwt beam="2">  1       21 0.32099604E+00 0.45485723E+03</pdfrwt>
<totfact> 0.93877120E+01</totfact>
</mgrwt>
</event>
<event>
 4    1  0.5003329E-002  0.5984437E+03  0.7818608E-02  0.9908640E-01
         21   -1    0    0  501  502  0.00000000000E+00  0.00000000000E+00  0.18083128228E+03  0.18083128228E+03  0.00000000000E+00 0. -1.
         21   -1    0    0  502  503 -0.00000000000E+00 -0.00000000000E+00 -0.20122881315E+04  0.20122881315E+04  0.00000000000E+00 0.  1.
    9000007    1    1    2  501    0  0.36553812614E+03 -0.25400157121E+03 -0.77788885997E+03  0.98145096582E+03  0.40000000000E+03 0. -1.
   -9000007    1    1    2    0  503 -0.36553812614E+03  0.25400157121E+03 -0.10535679893E+04  0.12116684480E+04  0.40000000000E+03 0. -1.
<mgrwt>
<rscale>  2 0.59844375E+03</rscale>
<asrwt>0</asrwt>
<pdfrwt beam="1">  1       21 0.27820199E-01 0.59844375E+03</pdfrwt>
<pdfrwt beam="2">  1       21 0.30958277E+00 0.59844375E+03</pdfrwt>
<totfact> 0.27023988E+02</totfact>
</mgrwt>
</event>
<event>
 4    1  0.5003329E-002  0.4502686E+03  0.7818608E-02  0.1027642E+00
         21   -1    0    0  501  502  0.00000000000E+00  0.00000000000E+00  0.80660654344E+03  0.80660654344E+03  0.00000000000E+00 0. -1.
         21   -1    0    0  502  503 -0.00000000000E+00 -0.00000000000E+00 -0.25289605961E+03  0.25289605961E+03  0.00000000000E+00 0. -1.
    9000007    1    1    2  501    0  0.13366704131E+03  0.15771793658E+03  0.23545596722E+03  0.50811547699E+03  0.40000000000E+03 0. -1.
   -9000007    1    1    2    0  503 -0.13366704131E+03 -0.15771793658E+03  0.31825451660E+03  0.55138712606E+03  0.40000000000E+03 0. -1.
<mgrwt>
<rscale>  2 0.45026861E+03</rscale>
<asrwt>0</asrwt>
<pdfrwt beam="1">  1       21 0.12409331E+00 0.45026861E+03</pdfrwt>
<pdfrwt beam="2">  1       21 0.38907086E-01 0.45026861E+03</pdfrwt>
<totfact> 0.26761993E+03</totfact>
</mgrwt>
</event>
<event>
 4    1  0.5003329E-002  0.5268536E+03  0.7818608E-02  0.1006998E+00
         21   -1    0    0  501  502  0.00000000000E+00  0.00000000000E+00  0.12112786813E+04  0.12112786813E+04  0.00000000000E+00 0.  1.
         21   -1    0    0  502  503 -0.00000000000E+00 -0.00000000000E+00 -0.34572858356E+03  0.34572858356E+03  0.00000000000E+00 0. -1.
    9000007    1    1    2  501    0  0.89281102911E+02 -0.33106435423E+03 -0.19275168558E+02  0.52720608314E+03  0.40000000000E+03 0. -1.
   -9000007    1    1    2    0  503 -0.89281102911E+02  0.33106435423E+03  0.88482526633E+03  0.10298011817E+04  0.40000000000E+03 0.  1.
<mgrwt>
<rscale>  2 0.52685361E+03</rscale>
<asrwt>0</asrwt>
<pdfrwt beam="1">  1       21 0.18635056E+00 0.52685361E+03</pdfrwt>
<pdfrwt beam="2">  1       21 0.53189013E-01 0.52685361E+03</pdfrwt>
<totfact> 0.43987191E+02</totfact>
</mgrwt>
</event>
<event>
 4    1  0.5003329E-002  0.4608617E+03  0.7818608E-02  0.1024532E+00
         21   -1    0    0  501  502  0.00000000000E+00  0.00000000000E+00  0.35146677070E+03  0.35146677070E+03  0.00000000000E+00 0.  1.
         21   -1    0    0  502  503 -0.00000000000E+00 -0.00000000000E+00 -0.66672027102E+03  0.66672027102E+03  0.00000000000E+00 0.  1.
    9000007    1    1    2  501    0  0.15525086078E+03  0.16819845695E+03 -0.31339070844E+03  0.55732152913E+03  0.40000000000E+03 0.  1.
   -9000007    1    1    2    0  503 -0.15525086078E+03 -0.16819845695E+03 -0.18627918759E+01  0.46086551258E+03  0.40000000000E+03 0.  1.
<mgrwt>
<rscale>  2 0.46086175E+03</rscale>
<asrwt>0</asrwt>
<pdfrwt beam="1">  1       21 0.54071811E-01 0.46086175E+03</pdfrwt>
<pdfrwt beam="2">  1       21 0.10257235E+00 0.46086175E+03</pdfrwt>
<totfact> 0.21490267E+03</totfact>
</mgrwt>
</event>
<event>
 4    1  0.5003329E-002  0.6188597E+03  0.7818608E-02  0.9867033E-01
         21   -1    0    0  501  502  0.00000000000E+00  0.00000000000E+00  0.67488695320E+03  0.67488695320E+03  0.00000000000E+00 0. -1.
         21   -1    0    0  502  503 -0.00000000000E+00 -0.00000000000E+00 -0.10998562855E+04  0.10998562855E+04  0.00000000000E+00 0.  1.
    9000007    1    1    2  501    0 -0.42914828944E+03 -0.19702558860E+03  0.40488517603E+03  0.73953995339E+03  0.40000000000E+03 0. -1.
   -9000007    1    1    2    0  503  0.42914828944E+03  0.19702558860E+03 -0.82985450829E+03  0.10352032853E+04  0.40000000000E+03 0.  1.
<mgrwt>
<rscale>  2 0.61885971E+03</rscale>
<asrwt>0</asrwt>
<pdfrwt beam="1">  1       21 0.10382876E+00 0.61885971E+03</pdfrwt>
<pdfrwt beam="2">  1       21 0.16920866E+00 0.61885971E+03</pdfrwt>
<totfact> 0.12098600E+02</totfact>
</mgrwt>
</event>
<event>
 4    1  0.5003329E-002  0.4197671E+03  0.7818608E-02  0.1037142E+00
         21   -1    0    0  501  502  0.00000000000E+00  0.00000000000E+00  0.28043944083E+03  0.28043944083E+03  0.00000000000E+00 0. -1.
         21   -1    0    0  502  503 -0.00000000000E+00 -0.00000000000E+00 -0.63391856668E+03  0.63391856668E+03  0.00000000000E+00 0. -1.
    9000007    1    1    2  501    0 -0.69250987529E+02  0.10681175739E+03 -0.21972110367E+03  0.47379511837E+03  0.40000000000E+03 0.  1.
   -9000007    1    1    2    0  503  0.69250987529E+02 -0.10681175739E+03 -0.13375802218E+03  0.44056288914E+03  0.40000000000E+03 0.  1.
<mgrwt>
<rscale>  2 0.41976714E+03</rscale>
<asrwt>0</asrwt>
<pdfrwt beam="1">  1       21 0.43144530E-01 0.41976714E+03</pdfrwt>
<pdfrwt beam="2">  1       21 0.97525933E-01 0.41976714E+03</pdfrwt>
<totfact> 0.39760999E+03</totfact>
</mgrwt>
</event>
<event>
 4    1  0.5003329E-002  0.4145884E+03  0.7818608E-02  0.1038842E+00
         21   -1    0    0  501  502  0.00000000000E+00  0.00000000000E+00  0.14535606403E+03  0.14535606403E+03  0.00000000000E+00 0.  1.
         21   -1    0    0  502  503 -0.00000000000E+00 -0.00000000000E+00 -0.13245711494E+04  0.13245711494E+04  0.00000000000E+00 0.  1.
    9000007    1    1    2  501    0  0.58437689755E+02  0.92024987643E+02 -0.34890484076E+03  0.54186543518E+03  0.40000000000E+03 0.  1.
   -9000007    1    1    2    0  503 -0.58437689755E+02 -0.92024987643E+02 -0.83031024459E+03  0.92806177823E+03  0.40000000000E+03 0.  1.
<mgrwt>
<rscale>  2 0.41458842E+03</rscale>
<asrwt>0</asrwt>
<pdfrwt beam="1">  1       21 0.22362471E-01 0.41458842E+03</pdfrwt>
<pdfrwt beam="2">  1       21 0.20378018E+00 0.41458842E+03</pdfrwt>
<totfact> 0.20399054E+03</totfact>
</mgrwt>
</event>
<event>
 4    1  0.5003329E-002  0.4045849E+03  0.7818608E-02  0.1042204E+00
         21   -1    0    0  503  502  0.00000000000E+00  0.00000000000E+00  0.32612253350E+03  0.32612253350E+03  0.00000000000E+00 0. -1.
         21   -1    0    0  501  503 -0.00000000000E+00 -0.00000000000E+00 -0.61315521318E+03  0.61315521318E+03  0.00000000000E+00 0. -1.
    9000007    1    1    2  501    0 -0.59746609098E+02  0.10920929935E+02  0.56511746317E+02  0.40851254752E+03  0.40000000000E+03 0. -1.
   -9000007    1    1    2    0  502  0.59746609098E+02 -0.10920929935E+02 -0.34354442599E+03  0.53076519916E+03  0.40000000000E+03 0. -1.
<mgrwt>
<rscale>  2 0.40458488E+03</rscale>
<asrwt>0</asrwt>
<pdfrwt beam="1">  1       21 0.50172697E-01 0.40458488E+03</pdfrwt>
<pdfrwt beam="2">  1       21 0.94331571E-01 0.40458488E+03</pdfrwt>
<totfact> 0.31545586E+03</totfact>
</mgrwt>
</event>
<event>
 4    1  0.5003329E-002  0.5747439E+03  0.7818608E-02  0.9959236E-01
         21   -1    0    0  501  502  0.00000000000E+00  0.00000000000E+00  0.74537306697E+03  0.74537306697E+03  0.00000000000E+00 0.  1.
         21   -1    0    0  502  503 -0.00000000000E+00 -0.00000000000E+00 -0.46696417748E+03  0.46696417748E+03  0.00000000000E+00 0. -1.
    9000007    1    1    2  501    0 -0.96144143973E+02  0.40135624937E+03  0.27602253006E+03  0.63758840362E+03  0.40000000000E+03 0. -1.
   -9000007    1    1    2    0  503  0.96144143973E+02 -0.40135624937E+03  0.23863594259E+01  0.57474884084E+03  0.40000000000E+03 0.  1.
<mgrwt>
<rscale>  2 0.57474389E+03</rscale>
<asrwt>0</asrwt>
<pdfrwt beam="1">  1       21 0.11467278E+00 0.57474389E+03</pdfrwt>
<pdfrwt beam="2">  1       21 0.71840643E-01 0.57474389E+03</pdfrwt>
<totfact> 0.83511416E+02</totfact>
</mgrwt>
</event>
<event>
 4    1  0.5003329E-002  0.4651211E+03  0.7818608E-02  0.1023306E+00
         21   -1    0    0  503  502  0.00000000000E+00  0.00000000000E+00  0.46218668705E+03  0.46218668705E+03  0.00000000000E+00 0.  1.
         21   -1    0    0  501  503 -0.00000000000E+00 -0.00000000000E+00 -0.46900770718E+03  0.46900770718E+03  0.00000000000E+00 0.  1.
    9000007    1    1    2  501    0  0.23696471666E+03 -0.13614751346E+02 -0.24183163657E+02  0.46574935728E+03  0.40000000000E+03 0. -1.
   -9000007    1    1    2    0  502 -0.23696471666E+03  0.13614751346E+02  0.17362143524E+02  0.46544503695E+03  0.40000000000E+03 0. -1.
<mgrwt>
<rscale>  2 0.46512110E+03</rscale>
<asrwt>0</asrwt>
<pdfrwt beam="1">  1       21 0.71105644E-01 0.46512110E+03</pdfrwt>
<pdfrwt beam="2">  1       21 0.72155032E-01 0.46512110E+03</pdfrwt>
<totfact> 0.26806430E+03</totfact>
</mgrwt>
</event>
<event>
 4    1  0.5003329E-002  0.4441547E+03  0.7818608E-02  0.1029480E+00
         21   -1    0    0  501  502  0.00000000000E+00  0.00000000000E+00  0.22641087374E+03  0.22641087374E+03  0.00000000000E+00 0.  1.
         21   -1    0    0  502  503 -0.00000000000E+00 -0.00000000000E+00 -0.96653216056E+03  0.96653216056E+03  0.00000000000E+00 0.  1.
    9000007    1    1    2  501    0 -0.23889417703E+02  0.19157943352E+03 -0.18283843354E+03  0.48031580903E+03  0.40000000000E+03 0.  1.
   -9000007    1    1    2    0  503  0.23889417703E+02 -0.19157943352E+03 -0.55728285328E+03  0.71262722526E+03  0.40000000000E+03 0.  1.
<mgrwt>
<rscale>  2 0.44415468E+03</rscale>
<asrwt>0</asrwt>
<pdfrwt beam="1">  1       21 0.34832442E-01 0.44415468E+03</pdfrwt>
<pdfrwt beam="2">  1       21 0.14869726E+00 0.44415468E+03</pdfrwt>
<totfact> 0.20872406E+03</totfact>
</mgrwt>
</event>
<event>
 4    1  0.5003329E-002  0.4316390E+03  0.7818608E-02  0.1033343E+00
         21   -1    0    0  501  502  0.00000000000E+00  0.00000000000E+00  0.47846419957E+03  0.47846419957E+03  0.00000000000E+00 0.  1.
         21   -1    0    0  502  503 -0.00000000000E+00 -0.00000000000E+00 -0.48116397206E+03  0.48116397206E+03  0.00000000000E+00 0.  1.
    9000007    1    1    2  501    0 -0.40062470515E+02 -0.15718525423E+03  0.20819217777E+03  0.47922457009E+03  0.40000000000E+03 0. -1.
   -9000007    1    1    2    0  503  0.40062470515E+02  0.15718525423E+03 -0.21089195026E+03  0.48040360154E+03  0.40000000000E+03 0. -1.
<mgrwt>
<rscale>  2 0.43163898E+03</rscale>
<asrwt>0</asrwt>
<pdfrwt beam="1">  1       21 0.73609877E-01 0.43163898E+03</pdfrwt>
<pdfrwt beam="2">  1       21 0.74025226E-01 0.43163898E+03</pdfrwt>
<totfact> 0.23673085E+03</totfact>
</mgrwt>
</event>
<event>
 4    1  0.5003329E-002  0.4013599E+03  0.7818608E-02  0.1043310E+00
         21   -1    0    0  503  502  0.00000000000E+00  0.00000000000E+00  0.87946389305E+03  0.87946389305E+03  0.00000000000E+00 0. -1.
         21   -1    0    0  501  503 -0.00000000000E+00 -0.00000000000E+00 -0.18538788786E+03  0.18538788786E+03  0.00000000000E+00 0. -1.
    9000007    1    1    2  501    0 -0.16416919394E+02  0.28640239553E+02  0.28877822051E+03  0.49445185732E+03  0.40000000000E+03 0.  1.
   -9000007    1    1    2    0  502  0.16416919394E+02 -0.28640239553E+02  0.40529778468E+03  0.57039992359E+03  0.40000000000E+03 0.  1.
<mgrwt>
<rscale>  2 0.40135991E+03</rscale>
<asrwt>0</asrwt>
<pdfrwt beam="1">  1       21 0.13530213E+00 0.40135991E+03</pdfrwt>
<pdfrwt beam="2">  1       21 0.28521214E-01 0.40135991E+03</pdfrwt>
<totfact> 0.40693516E+03</totfact>
</mgrwt>
</event>
<event>
 4    1  0.5003329E-002  0.4202075E+03  0.7818608E-02  0.1036999E+00
         21   -1    0    0  503  502  0.00000000000E+00  0.00000000000E+00  0.12240551332E+04  0.12240551332E+04  0.00000000000E+00 0.  1.
         21   -1    0    0  501  503 -0.00000000000E+00 -0.00000000000E+00 -0.22045915945E+03  0.22045915945E+03  0.00000000000E+00 0.  1.
    9000007    1    1    2  501    0 -0.12397923145E+03  0.34690888966E+02  0.77157672392E+02  0.42723250581E+03  0.40000000000E+03 0.  1.
   -9000007    1    1    2    0  502  0.12397923145E+03 -0.34690888966E+02  0.92643830137E+03  0.10172817868E+04  0.40000000000E+03 0.  1.
<mgrwt>
<rscale>  2 0.42020746E+03</rscale>
<asrwt>0</asrwt>
<pdfrwt beam="1">  1       21 0.18831617E+00 0.42020746E+03</pdfrwt>
<pdfrwt beam="2">  1       21 0.33916795E-01 0.42020746E+03</pdfrwt>
<totfact> 0.11399827E+03</totfact>
</mgrwt>
</event>
<event>
 4    1  0.5003329E-002  0.4113231E+03  0.7818608E-02  0.1039928E+00
         21   -1    0    0  501  502  0.00000000000E+00  0.00000000000E+00  0.39633174613E+03  0.39633174613E+03  0.00000000000E+00 0. -1.
         21   -1    0    0  502  503 -0.00000000000E+00 -0.00000000000E+00 -0.90876841579E+03  0.90876841579E+03  0.00000000000E+00 0. -1.
    9000007    1    1    2  501    0 -0.89962472062E+02 -0.33067563636E+02  0.21896344531E+03  0.46597392687E+03  0.40000000000E+03 0. -1.
   -9000007    1    1    2    0  503  0.89962472062E+02  0.33067563636E+02 -0.73140011497E+03  0.83912623504E+03  0.40000000000E+03 0. -1.
<mgrwt>
<rscale>  2 0.41132312E+03</rscale>
<asrwt>0</asrwt>
<pdfrwt beam="1">  1       21 0.60974115E-01 0.41132312E+03</pdfrwt>
<pdfrwt beam="2">  1       21 0.13981053E+00 0.41132312E+03</pdfrwt>
<totfact> 0.76982564E+02</totfact>
</mgrwt>
</event>
<event>
 4    1  0.5003329E-002  0.4145559E+03  0.7818608E-02  0.1038853E+00
         21   -1    0    0  503  502  0.00000000000E+00  0.00000000000E+00  0.10009060548E+03  0.10009060548E+03  0.00000000000E+00 0.  1.
         21   -1    0    0  501  503 -0.00000000000E+00 -0.00000000000E+00 -0.17202784394E+04  0.17202784394E+04  0.00000000000E+00 0.  1.
    9000007    1    1    2  501    0 -0.66007113191E+02 -0.86600561492E+02 -0.84976583638E+03  0.94549382489E+03  0.40000000000E+03 0.  1.
   -9000007    1    1    2    0  502  0.66007113191E+02  0.86600561492E+02 -0.77042199750E+03  0.87487521994E+03  0.40000000000E+03 0.  1.
<mgrwt>
<rscale>  2 0.41455590E+03</rscale>
<asrwt>0</asrwt>
<pdfrwt beam="1">  1       21 0.15398554E-01 0.41455590E+03</pdfrwt>
<pdfrwt beam="2">  1       21 0.26465824E+00 0.41455590E+03</pdfrwt>
<totfact> 0.17152317E+03</totfact>
</mgrwt>
</event>
<event>
 4    1  0.5003329E-002  0.4954013E+03  0.7818608E-02  0.1014986E+00
         21   -1    0    0  501  502  0.00000000000E+00  0.00000000000E+00  0.51955535973E+03  0.51955535973E+03  0.00000000000E+00 0.  1.
         21   -1    0    0  502  503 -0.00000000000E+00 -0.00000000000E+00 -0.47438840851E+03  0.47438840851E+03  0.00000000000E+00 0.  1.
    9000007    1    1    2  501    0 -0.28532704817E+03  0.63331812988E+02 -0.98320623133E+01  0.49549885207E+03  0.40000000000E+03 0.  1.
   -9000007    1    1    2    0  503  0.28532704817E+03 -0.63331812988E+02  0.54999013532E+02  0.49844491616E+03  0.40000000000E+03 0.  1.
<mgrwt>
<rscale>  2 0.49540129E+03</rscale>
<asrwt>0</asrwt>
<pdfrwt beam="1">  1       21 0.79931595E-01 0.49540129E+03</pdfrwt>
<pdfrwt beam="2">  1       21 0.72982831E-01 0.49540129E+03</pdfrwt>
<totfact> 0.19780060E+03</totfact>
</mgrwt>
</event>
<event>
 4    1  0.5003329E-002  0.4499036E+03  0.7818608E-02  0.1027751E+00
         21   -1    0    0  501  502  0.00000000000E+00  0.00000000000E+00  0.32150305647E+03  0.32150305647E+03  0.00000000000E+00 0.  1.
         21   -1    0    0  502  503 -0.00000000000E+00 -0.00000000000E+00 -0.63637158003E+03  0.63637158003E+03  0.00000000000E+00 0.  1.
    9000007    1    1    2  501    0 -0.95581275711E+02  0.18242104227E+03 -0.10797164058E+03  0.46267817336E+03  0.40000000000E+03 0.  1.
   -9000007    1    1    2    0  503  0.95581275711E+02 -0.18242104227E+03 -0.20689688297E+03  0.49519646315E+03  0.40000000000E+03 0.  1.
<mgrwt>
<rscale>  2 0.44990356E+03</rscale>
<asrwt>0</asrwt>
<pdfrwt beam="1">  1       21 0.49462008E-01 0.44990356E+03</pdfrwt>
<pdfrwt beam="2">  1       21 0.97903321E-01 0.44990356E+03</pdfrwt>
<totfact> 0.29239283E+03</totfact>
</mgrwt>
</event>
<event>
 4    1  0.5003329E-002  0.4017340E+03  0.7818608E-02  0.1043181E+00
         21   -1    0    0  503  502  0.00000000000E+00  0.00000000000E+00  0.19592357557E+03  0.19592357557E+03  0.00000000000E+00 0. -1.
         21   -1    0    0  501  503 -0.00000000000E+00 -0.00000000000E+00 -0.11288970460E+04  0.11288970460E+04  0.00000000000E+00 0. -1.
    9000007    1    1    2  501    0  0.34309702122E+02 -0.14595692264E+02 -0.81088522610E+03  0.90494477169E+03  0.40000000000E+03 0. -1.
   -9000007    1    1    2    0  502 -0.34309702122E+02  0.14595692264E+02 -0.12208824429E+03  0.41987584985E+03  0.40000000000E+03 0. -1.
<mgrwt>
<rscale>  2 0.40173398E+03</rscale>
<asrwt>0</asrwt>
<pdfrwt beam="1">  1       21 0.30142088E-01 0.40173398E+03</pdfrwt>
<pdfrwt beam="2">  1       21 0.17367647E+00 0.40173398E+03</pdfrwt>
<totfact> 0.18435168E+03</totfact>
</mgrwt>
</event>
<event>
 4    1  0.5003329E-002  0.5631022E+03  0.7818608E-02  0.9985060E-01
         21   -1    0    0  503  502  0.00000000000E+00  0.00000000000E+00  0.39411608378E+03  0.39411608378E+03  0.00000000000E+00 0.  1.
         21   -1    0    0  501  503 -0.00000000000E+00 -0.00000000000E+00 -0.80668294838E+03  0.80668294838E+03  0.00000000000E+00 0.  1.
    9000007    1    1    2  501    0  0.39458435488E+03 -0.37246066418E+02 -0.23719338475E+03  0.61101946315E+03  0.40000000000E+03 0.  1.
   -9000007    1    1    2    0  502 -0.39458435488E+03  0.37246066418E+02 -0.17537347985E+03  0.58977956900E+03  0.40000000000E+03 0.  1.
<mgrwt>
<rscale>  2 0.56310220E+03</rscale>
<asrwt>0</asrwt>
<pdfrwt beam="1">  1       21 0.60633244E-01 0.56310220E+03</pdfrwt>
<pdfrwt beam="2">  1       21 0.12410507E+00 0.56310220E+03</pdfrwt>
<totfact> 0.10019160E+03</totfact>
</mgrwt>
</event>
<event>
 4    1  0.5003329E-002  0.7647503E+03  0.7818608E-02  0.9612489E-01
         21   -1    0    0  501  502  0.00000000000E+00  0.00000000000E+00  0.15364889964E+04  0.15364889964E+04  0.00000000000E+00 0. -1.
         21   -1    0    0  502  503 -0.00000000000E+00 -0.00000000000E+00 -0.42338853648E+03  0.42338853648E+03  0.00000000000E+00 0.  1.
    9000007    1    1    2  501    0  0.65106662224E+03 -0.30908434841E+02  0.86794417339E+03  0.11567930524E+04  0.40000000000E+03 0.  1.
   -9000007    1    1    2    0  503 -0.65106662224E+03  0.30908434841E+02  0.24515628649E+03  0.80308448045E+03  0.40000000000E+03 0. -1.
<mgrwt>
<rscale>  2 0.76475034E+03</rscale>
<asrwt>0</asrwt>
<pdfrwt beam="1">  1       21 0.23638292E+00 0.76475034E+03</pdfrwt>
<pdfrwt beam="2">  1       21 0.65136699E-01 0.76475034E+03</pdfrwt>
<totfact> 0.12039333E+02</totfact>
</mgrwt>
</event>
<event>
 4    1  0.5003329E-002  0.4336149E+03  0.7818608E-02  0.1032724E+00
         21   -1    0    0  501  502  0.00000000000E+00  0.00000000000E+00  0.21308408750E+03  0.21308408750E+03  0.00000000000E+00 0.  1.
         21   -1    0    0  502  503 -0.00000000000E+00 -0.00000000000E+00 -0.12264049688E+04  0.12264049688E+04  0.00000000000E+00 0.  1.
    9000007    1    1    2  501    0 -0.14218302450E+03 -0.88351068074E+02 -0.12545940376E+03  0.45140002844E+03  0.40000000000E+03 0.  1.
   -9000007    1    1    2    0  503  0.14218302450E+03  0.88351068074E+02 -0.88786147752E+03  0.98808902785E+03  0.40000000000E+03 0.  1.
<mgrwt>
<rscale>  2 0.43361495E+03</rscale>
<asrwt>0</asrwt>
<pdfrwt beam="1">  1       21 0.32782166E-01 0.43361495E+03</pdfrwt>
<pdfrwt beam="2">  1       21 0.18867769E+00 0.43361495E+03</pdfrwt>
<totfact> 0.12061597E+03</totfact>
</mgrwt>
</event>
<event>
 4    1  0.5003329E-002  0.4469401E+03  0.7818608E-02  0.1028638E+00
         21   -1    0    0  501  502  0.00000000000E+00  0.00000000000E+00  0.35105683905E+04  0.35105683905E+04  0.00000000000E+00 0.  1.
         21   -1    0    0  502  503 -0.00000000000E+00 -0.00000000000E+00 -0.58926574568E+02  0.58926574568E+02  0.00000000000E+00 0.  1.
    9000007    1    1    2  501    0 -0.17411324504E+03 -0.97159746481E+02  0.20567061433E+04  0.21047079604E+04  0.40000000000E+03 0.  1.
   -9000007    1    1    2    0  503  0.17411324504E+03  0.97159746481E+02  0.13949356726E+04  0.14647870047E+04  0.40000000000E+03 0.  1.
<mgrwt>
<rscale>  2 0.44694008E+03</rscale>
<asrwt>0</asrwt>
<pdfrwt beam="1">  1       21 0.54008728E+00 0.44694008E+03</pdfrwt>
<pdfrwt beam="2">  1       21 0.90656296E-02 0.44694008E+03</pdfrwt>
<totfact> 0.70523298E+01</totfact>
</mgrwt>
</event>
<event>
 4    1  0.5003329E-002  0.5641870E+03  0.7818608E-02  0.9982625E-01
         21   -1    0    0  503  502  0.00000000000E+00  0.00000000000E+00  0.78322457693E+03  0.78322457693E+03  0.00000000000E+00 0.  1.
         21   -1    0    0  501  503 -0.00000000000E+00 -0.00000000000E+00 -0.53689349230E+03  0.53689349230E+03  0.00000000000E+00 0. -1.
    9000007    1    1    2  501    0 -0.33506788394E+03 -0.21456123174E+03 -0.20223890860E+03  0.59933929052E+03  0.40000000000E+03 0. -1.
   -9000007    1    1    2    0  502  0.33506788394E+03  0.21456123174E+03  0.44856999323E+03  0.72077877871E+03  0.40000000000E+03 0. -1.
<mgrwt>
<rscale>  2 0.56418703E+03</rscale>
<asrwt>0</asrwt>
<pdfrwt beam="1">  1       21 0.12049609E+00 0.56418703E+03</pdfrwt>
<pdfrwt beam="2">  1       21 0.82598999E-01 0.56418703E+03</pdfrwt>
<totfact> 0.53576444E+02</totfact>
</mgrwt>
</event>
<event>
 4    1  0.5003329E-002  0.4114608E+03  0.7818608E-02  0.1039882E+00
         21   -1    0    0  501  502  0.00000000000E+00  0.00000000000E+00  0.33979275278E+03  0.33979275278E+03  0.00000000000E+00 0.  1.
         21   -1    0    0  502  503 -0.00000000000E+00 -0.00000000000E+00 -0.49969541392E+03  0.49969541392E+03  0.00000000000E+00 0.  1.
    9000007    1    1    2  501    0 -0.94787549814E+02 -0.17756489936E+02 -0.57335754658E+02  0.41543635048E+03  0.40000000000E+03 0. -1.
   -9000007    1    1    2    0  503  0.94787549814E+02  0.17756489936E+02 -0.10256690648E+03  0.42405181622E+03  0.40000000000E+03 0. -1.
<mgrwt>
<rscale>  2 0.41146078E+03</rscale>
<asrwt>0</asrwt>
<pdfrwt beam="1">  1       21 0.52275808E-01 0.41146078E+03</pdfrwt>
<pdfrwt beam="2">  1       21 0.76876217E-01 0.41146078E+03</pdfrwt>
<totfact> 0.46489087E+03</totfact>
</mgrwt>
</event>
<event>
 4    1  0.5003329E-002  0.4642526E+03  0.7818608E-02  0.1023555E+00
         21   -1    0    0  501  502  0.00000000000E+00  0.00000000000E+00  0.16957061289E+03  0.16957061289E+03  0.00000000000E+00 0.  1.
         21   -1    0    0  502  503 -0.00000000000E+00 -0.00000000000E+00 -0.17105694198E+04  0.17105694198E+04  0.00000000000E+00 0.  1.
    9000007    1    1    2  501    0 -0.20593746726E+03  0.11454376844E+03 -0.12470240071E+04  0.13306387149E+04  0.40000000000E+03 0.  1.
   -9000007    1    1    2    0  503  0.20593746726E+03 -0.11454376844E+03 -0.29397479979E+03  0.54950131776E+03  0.40000000000E+03 0.  1.
<mgrwt>
<rscale>  2 0.46425264E+03</rscale>
<asrwt>0</asrwt>
<pdfrwt beam="1">  1       21 0.26087787E-01 0.46425264E+03</pdfrwt>
<pdfrwt beam="2">  1       21 0.26316452E+00 0.46425264E+03</pdfrwt>
<totfact> 0.62567457E+02</totfact>
</mgrwt>
</event>
<event>
 4    1  0.5003329E-002  0.8386964E+03  0.7818608E-02  0.9505635E-01
         21   -1    0    0  503  502  0.00000000000E+00  0.00000000000E+00  0.15057208663E+04  0.15057208663E+04  0.00000000000E+00 0.  1.
         21   -1    0    0  501  503 -0.00000000000E+00 -0.00000000000E+00 -0.10574134724E+04  0.10574134724E+04  0.00000000000E+00 0.  1.
    9000007    1    1    2  501    0 -0.17939963288E+03  0.71500166284E+03 -0.73334559611E+03  0.11140948656E+04  0.40000000000E+03 0.  1.
   -9000007    1    1    2    0  502  0.17939963288E+03 -0.71500166284E+03  0.11816529899E+04  0.14490394732E+04  0.40000000000E+03 0.  1.
<mgrwt>
<rscale>  2 0.83869637E+03</rscale>
<asrwt>0</asrwt>
<pdfrwt beam="1">  1       21 0.23164936E+00 0.83869637E+03</pdfrwt>
<pdfrwt beam="2">  1       21 0.16267900E+00 0.83869637E+03</pdfrwt>
<totfact> 0.12736327E+01</totfact>
</mgrwt>
</event>
<event>
 4    1  0.5003329E-002  0.5133740E+03  0.7818608E-02  0.1010346E+00
         21   -1    0    0  503  502  0.00000000000E+00  0.00000000000E+00  0.24532876416E+03  0.24532876416E+03  0.00000000000E+00 0.  1.
         21   -1    0    0  501  503 -0.00000000000E+00 -0.00000000000E+00 -0.11455985196E+04  0.11455985196E+04  0.00000000000E+00 0. -1.
    9000007    1    1    2  501    0  0.28424772357E+03 -0.15085122845E+03 -0.27661628970E+03  0.58315472493E+03  0.40000000000E+03 0.  1.
   -9000007    1    1    2    0  502 -0.28424772357E+03  0.15085122845E+03 -0.62365346574E+03  0.80777255884E+03  0.40000000000E+03 0. -1.
<mgrwt>
<rscale>  2 0.51337400E+03</rscale>
<asrwt>0</asrwt>
<pdfrwt beam="1">  1       21 0.37742887E-01 0.51337400E+03</pdfrwt>
<pdfrwt beam="2">  1       21 0.17624592E+00 0.51337400E+03</pdfrwt>
<totfact> 0.10714095E+03</totfact>
</mgrwt>
</event>
<event>
 4    1  0.5003329E-002  0.4066894E+03  0.7818608E-02  0.1041488E+00
         21   -1    0    0  503  502  0.00000000000E+00  0.00000000000E+00  0.22671241391E+03  0.22671241391E+03  0.00000000000E+00 0.  1.
         21   -1    0    0  501  503 -0.00000000000E+00 -0.00000000000E+00 -0.12305545447E+04  0.12305545447E+04  0.00000000000E+00 0.  1.
    9000007    1    1    2  501    0  0.50484417519E+02  0.53363108455E+02 -0.96684601695E+03  0.10488982402E+04  0.40000000000E+03 0.  1.
   -9000007    1    1    2    0  502 -0.50484417519E+02 -0.53363108455E+02 -0.36996113838E+02  0.40836871843E+03  0.40000000000E+03 0.  1.
<mgrwt>
<rscale>  2 0.40668944E+03</rscale>
<asrwt>0</asrwt>
<pdfrwt beam="1">  1       21 0.34878833E-01 0.40668944E+03</pdfrwt>
<pdfrwt beam="2">  1       21 0.18931608E+00 0.40668944E+03</pdfrwt>
<totfact> 0.10676634E+03</totfact>
</mgrwt>
</event>
<event>
 4    1  0.5003329E-002  0.4086708E+03  0.7818608E-02  0.1040818E+00
         21   -1    0    0  501  502  0.00000000000E+00  0.00000000000E+00  0.14496000325E+04  0.14496000325E+04  0.00000000000E+00 0.  1.
         21   -1    0    0  502  503 -0.00000000000E+00 -0.00000000000E+00 -0.15442300696E+03  0.15442300696E+03  0.00000000000E+00 0.  1.
    9000007    1    1    2  501    0 -0.75057948213E+02 -0.37122996824E+02  0.10517237473E+04  0.11283326873E+04  0.40000000000E+03 0.  1.
   -9000007    1    1    2    0  503  0.75057948213E+02  0.37122996824E+02  0.24345327819E+03  0.47569035217E+03  0.40000000000E+03 0.  1.
<mgrwt>
<rscale>  2 0.40867079E+03</rscale>
<asrwt>0</asrwt>
<pdfrwt beam="1">  1       21 0.22301538E+00 0.40867079E+03</pdfrwt>
<pdfrwt beam="2">  1       21 0.23757387E-01 0.40867079E+03</pdfrwt>
<totfact> 0.13680235E+03</totfact>
</mgrwt>
</event>
<event>
 4    1  0.5003329E-002  0.4595922E+03  0.7818608E-02  0.1024900E+00
         21   -1    0    0  503  502  0.00000000000E+00  0.00000000000E+00  0.39689278272E+03  0.39689278272E+03  0.00000000000E+00 0.  1.
         21   -1    0    0  501  503 -0.00000000000E+00 -0.00000000000E+00 -0.53566938467E+03  0.53566938467E+03  0.00000000000E+00 0. -1.
    9000007    1    1    2  501    0 -0.11117240752E+03  0.19714387821E+03 -0.10693178981E+03  0.47186801182E+03  0.40000000000E+03 0. -1.
   -9000007    1    1    2    0  502  0.11117240752E+03 -0.19714387821E+03 -0.31844812138E+02  0.46069415556E+03  0.40000000000E+03 0. -1.
<mgrwt>
<rscale>  2 0.45959222E+03</rscale>
<asrwt>0</asrwt>
<pdfrwt beam="1">  1       21 0.61060428E-01 0.45959222E+03</pdfrwt>
<pdfrwt beam="2">  1       21 0.82410674E-01 0.45959222E+03</pdfrwt>
<totfact> 0.27800775E+03</totfact>
</mgrwt>
</event>
<event>
 4    1  0.5003329E-002  0.5320967E+03  0.7818608E-02  0.1005725E+00
         21   -1    0    0  501  502  0.00000000000E+00  0.00000000000E+00  0.19678211650E+03  0.19678211650E+03  0.00000000000E+00 0. -1.
         21   -1    0    0  502  503 -0.00000000000E+00 -0.00000000000E+00 -0.18190428636E+04  0.18190428636E+04  0.00000000000E+00 0.  1.
    9000007    1    1    2  501    0 -0.35084209454E+03 -0.60570019884E+01 -0.35029976397E+03  0.63705320595E+03  0.40000000000E+03 0. -1.
   -9000007    1    1    2    0  503  0.35084209454E+03  0.60570019884E+01 -0.12719609831E+04  0.13787717741E+04  0.40000000000E+03 0.  1.
<mgrwt>
<rscale>  2 0.53209667E+03</rscale>
<asrwt>0</asrwt>
<pdfrwt beam="1">  1       21 0.30274173E-01 0.53209667E+03</pdfrwt>
<pdfrwt beam="2">  1       21 0.27985274E+00 0.53209667E+03</pdfrwt>
<totfact> 0.35703086E+02</totfact>
</mgrwt>
</event>
<event>
 4    1  0.5003329E-002  0.4558547E+03  0.7818608E-02  0.1025990E+00
         21   -1    0    0  501  502  0.00000000000E+00  0.00000000000E+00  0.75687974314E+03  0.75687974314E+03  0.00000000000E+00 0.  1.
         21   -1    0    0  502  503 -0.00000000000E+00 -0.00000000000E+00 -0.27456832441E+03  0.27456832441E+03  0.00000000000E+00 0.  1.
    9000007    1    1    2  501    0 -0.16976565615E+03  0.13777937464E+03  0.24502019023E+03  0.51753108864E+03  0.40000000000E+03 0.  1.
   -9000007    1    1    2    0  503  0.16976565615E+03 -0.13777937464E+03  0.23729122850E+03  0.51391697891E+03  0.40000000000E+03 0.  1.
<mgrwt>
<rscale>  2 0.45585473E+03</rscale>
<asrwt>0</asrwt>
<pdfrwt beam="1">  1       21 0.11644304E+00 0.45585473E+03</pdfrwt>
<pdfrwt beam="2">  1       21 0.42241281E-01 0.45585473E+03</pdfrwt>
<totfact> 0.26495844E+03</totfact>
</mgrwt>
</event>
<event>
 4    1  0.5003329E-002  0.4194673E+03  0.7818608E-02  0.1037240E+00
         21   -1    0    0  501  502  0.00000000000E+00  0.00000000000E+00  0.11463693297E+04  0.11463693297E+04  0.00000000000E+00 0. -1.
         21   -1    0    0  502  503 -0.00000000000E+00 -0.00000000000E+00 -0.17692341979E+03  0.17692341979E+03  0.00000000000E+00 0. -1.
    9000007    1    1    2  501    0 -0.50855909197E+02  0.11561353411E+03  0.72553528461E+03  0.83806578619E+03  0.40000000000E+03 0. -1.
   -9000007    1    1    2    0  503  0.50855909197E+02 -0.11561353411E+03  0.24391062528E+03  0.48522696328E+03  0.40000000000E+03 0. -1.
<mgrwt>
<rscale>  2 0.41946730E+03</rscale>
<asrwt>0</asrwt>
<pdfrwt beam="1">  1       21 0.17636451E+00 0.41946730E+03</pdfrwt>
<pdfrwt beam="2">  1       21 0.27218988E-01 0.41946730E+03</pdfrwt>
<totfact> 0.21396472E+03</totfact>
</mgrwt>
</event>
<event>
 4    1  0.5003329E-002  0.5526875E+03  0.7818608E-02  0.1000874E+00
         21   -1    0    0  501  502  0.00000000000E+00  0.00000000000E+00  0.54834715793E+03  0.54834715793E+03  0.00000000000E+00 0. -1.
         21   -1    0    0  502  503 -0.00000000000E+00 -0.00000000000E+00 -0.77112614864E+03  0.77112614864E+03  0.00000000000E+00 0.  1.
    9000007    1    1    2  501    0 -0.37962990002E+03  0.36668234127E+02  0.23621050126E+03  0.60104810231E+03  0.40000000000E+03 0.  1.
   -9000007    1    1    2    0  503  0.37962990002E+03 -0.36668234127E+02 -0.45898949197E+03  0.71842520427E+03  0.40000000000E+03 0.  1.
<mgrwt>
<rscale>  2 0.55268745E+03</rscale>
<asrwt>0</asrwt>
<pdfrwt beam="1">  1       21 0.84361101E-01 0.55268745E+03</pdfrwt>
<pdfrwt beam="2">  1       21 0.11863479E+00 0.55268745E+03</pdfrwt>
<totfact> 0.53283245E+02</totfact>
</mgrwt>
</event>
<event>
 4    1  0.5003329E-002  0.5365325E+03  0.7818608E-02  0.1004660E+00
         21   -1    0    0  501  502  0.00000000000E+00  0.00000000000E+00  0.11247376171E+04  0.11247376171E+04  0.00000000000E+00 0. -1.
         21   -1    0    0  502  503 -0.00000000000E+00 -0.00000000000E+00 -0.39873602623E+03  0.39873602623E+03  0.00000000000E+00 0. -1.
    9000007    1    1    2  501    0 -0.35752308738E+03  0.66601783186E+01  0.81884651265E+03  0.97896717374E+03  0.40000000000E+03 0. -1.
   -9000007    1    1    2    0  503  0.35752308738E+03 -0.66601783186E+01 -0.92844921741E+02  0.54450646964E+03  0.40000000000E+03 0. -1.
<mgrwt>
<rscale>  2 0.53653249E+03</rscale>
<asrwt>0</asrwt>
<pdfrwt beam="1">  1       21 0.17303656E+00 0.53653249E+03</pdfrwt>
<pdfrwt beam="2">  1       21 0.61344005E-01 0.53653249E+03</pdfrwt>
<totfact> 0.39910796E+02</totfact>
</mgrwt>
</event>
<event>
 4    1  0.5003329E-002  0.5120900E+03  0.7818608E-02  0.1010671E+00
         21   -1    0    0  503  502  0.00000000000E+00  0.00000000000E+00  0.30898234332E+03  0.30898234332E+03  0.00000000000E+00 0.  1.
         21   -1    0    0  501  503 -0.00000000000E+00 -0.00000000000E+00 -0.90760448184E+03  0.90760448184E+03  0.00000000000E+00 0.  1.
    9000007    1    1    2  501    0  0.18877344791E+03 -0.25807123880E+03 -0.14435635524E+03  0.53204787025E+03  0.40000000000E+03 0.  1.
   -9000007    1    1    2    0  502 -0.18877344791E+03  0.25807123880E+03 -0.45426578327E+03  0.68453895491E+03  0.40000000000E+03 0.  1.
<mgrwt>
<rscale>  2 0.51209001E+03</rscale>
<asrwt>0</asrwt>
<pdfrwt beam="1">  1       21 0.47535746E-01 0.51209001E+03</pdfrwt>
<pdfrwt beam="2">  1       21 0.13963146E+00 0.51209001E+03</pdfrwt>
<totfact> 0.12663944E+03</totfact>
</mgrwt>
</event>
<event>
 4    1  0.5003329E-002  0.6279046E+03  0.7818608E-02  0.9849146E-01
         21   -1    0    0  503  502  0.00000000000E+00  0.00000000000E+00  0.62939063777E+03  0.62939063777E+03  0.00000000000E+00 0. -1.
         21   -1    0    0  501  503 -0.00000000000E+00 -0.00000000000E+00 -0.13125146003E+04  0.13125146003E+04  0.00000000000E+00 0.  1.
    9000007    1    1    2  501    0 -0.36723702556E+03 -0.31527957157E+03 -0.10435622588E+04  0.12179024711E+04  0.40000000000E+03 0.  1.
   -9000007    1    1    2    0  502  0.36723702556E+03  0.31527957157E+03  0.36043829623E+03  0.72400276697E+03  0.40000000000E+03 0. -1.
<mgrwt>
<rscale>  2 0.62790464E+03</rscale>
<asrwt>0</asrwt>
<pdfrwt beam="1">  1       21 0.96829330E-01 0.62790464E+03</pdfrwt>
<pdfrwt beam="2">  1       21 0.20192532E+00 0.62790464E+03</pdfrwt>
<totfact> 0.84242005E+01</totfact>
</mgrwt>
</event>
<event>
 4    1  0.5003329E-002  0.4812601E+03  0.7818608E-02  0.1018789E+00
         21   -1    0    0  503  502  0.00000000000E+00  0.00000000000E+00  0.53835408317E+03  0.53835408317E+03  0.00000000000E+00 0.  1.
         21   -1    0    0  501  503 -0.00000000000E+00 -0.00000000000E+00 -0.46151206028E+03  0.46151206028E+03  0.00000000000E+00 0. -1.
    9000007    1    1    2  501    0 -0.35480821919E+02 -0.26524018195E+03 -0.91754813937E+02  0.48992875883E+03  0.40000000000E+03 0. -1.
   -9000007    1    1    2    0  502  0.35480821919E+02  0.26524018195E+03  0.16859683683E+03  0.50993738462E+03  0.40000000000E+03 0.  1.
<mgrwt>
<rscale>  2 0.48126006E+03</rscale>
<asrwt>0</asrwt>
<pdfrwt beam="1">  1       21 0.82823705E-01 0.48126006E+03</pdfrwt>
<pdfrwt beam="2">  1       21 0.71001856E-01 0.48126006E+03</pdfrwt>
<totfact> 0.19481028E+03</totfact>
</mgrwt>
</event>
<event>
 4    1  0.5003329E-002  0.4516852E+03  0.7818608E-02  0.1027221E+00
         21   -1    0    0  501  502  0.00000000000E+00  0.00000000000E+00  0.81258470949E+03  0.81258470949E+03  0.00000000000E+00 0. -1.
         21   -1    0    0  502  503 -0.00000000000E+00 -0.00000000000E+00 -0.26100172101E+03  0.26100172101E+03  0.00000000000E+00 0. -1.
    9000007    1    1    2  501    0  0.19992548356E+03  0.63634284972E+02  0.17110438356E+03  0.48300748573E+03  0.40000000000E+03 0. -1.
   -9000007    1    1    2    0  503 -0.19992548356E+03 -0.63634284972E+02  0.38047860492E+03  0.59057894477E+03  0.40000000000E+03 0. -1.
<mgrwt>
<rscale>  2 0.45168520E+03</rscale>
<asrwt>0</asrwt>
<pdfrwt beam="1">  1       21 0.12501303E+00 0.45168520E+03</pdfrwt>
<pdfrwt beam="2">  1       21 0.40154111E-01 0.45168520E+03</pdfrwt>
<totfact> 0.24596177E+03</totfact>
</mgrwt>
</event>
<event>
 4    1  0.5003329E-002  0.4529504E+03  0.7818608E-02  0.1026846E+00
         21   -1    0    0  501  502  0.00000000000E+00  0.00000000000E+00  0.31928826816E+03  0.31928826816E+03  0.00000000000E+00 0.  1.
         21   -1    0    0  502  503 -0.00000000000E+00 -0.00000000000E+00 -0.64326604293E+03  0.64326604293E+03  0.00000000000E+00 0.  1.
    9000007    1    1    2  501    0  0.19235735412E+03 -0.90347791312E+02 -0.14612240749E+03  0.47593679523E+03  0.40000000000E+03 0.  1.
   -9000007    1    1    2    0  503 -0.19235735412E+03  0.90347791312E+02 -0.17785536728E+03  0.48661751587E+03  0.40000000000E+03 0.  1.
<mgrwt>
<rscale>  2 0.45295041E+03</rscale>
<asrwt>0</asrwt>
<pdfrwt beam="1">  1       21 0.49121272E-01 0.45295041E+03</pdfrwt>
<pdfrwt beam="2">  1       21 0.98964007E-01 0.45295041E+03</pdfrwt>
<totfact> 0.28877320E+03</totfact>
</mgrwt>
</event>
<event>
 4    1  0.5003329E-002  0.4160375E+03  0.7818608E-02  0.1038364E+00
         21   -1    0    0  501  502  0.00000000000E+00  0.00000000000E+00  0.15220230948E+03  0.15220230948E+03  0.00000000000E+00 0.  1.
         21   -1    0    0  502  503 -0.00000000000E+00 -0.00000000000E+00 -0.14953394193E+04  0.14953394193E+04  0.00000000000E+00 0.  1.
    9000007    1    1    2  501    0 -0.80347539076E+01 -0.11411691909E+03 -0.26843254287E+03  0.49511943868E+03  0.40000000000E+03 0.  1.
   -9000007    1    1    2    0  503  0.80347539076E+01  0.11411691909E+03 -0.10747045670E+04  0.11524222901E+04  0.40000000000E+03 0.  1.
<mgrwt>
<rscale>  2 0.41603753E+03</rscale>
<asrwt>0</asrwt>
<pdfrwt beam="1">  1       21 0.23415739E-01 0.41603753E+03</pdfrwt>
<pdfrwt beam="2">  1       21 0.23005222E+00 0.41603753E+03</pdfrwt>
<totfact> 0.12656081E+03</totfact>
</mgrwt>
</event>
<event>
 4    1  0.5003329E-002  0.8318057E+03  0.7818608E-02  0.9515087E-01
         21   -1    0    0  503  502  0.00000000000E+00  0.00000000000E+00  0.85002457939E+03  0.85002457939E+03  0.00000000000E+00 0.  1.
         21   -1    0    0  501  503 -0.00000000000E+00 -0.00000000000E+00 -0.92844218859E+03  0.92844218859E+03  0.00000000000E+00 0.  1.
    9000007    1    1    2  501    0  0.16618824697E+03  0.71012831148E+03 -0.35143862618E+03  0.90300047628E+03  0.40000000000E+03 0.  1.
   -9000007    1    1    2    0  502 -0.16618824697E+03 -0.71012831148E+03  0.27302101697E+03  0.87546629170E+03  0.40000000000E+03 0.  1.
<mgrwt>
<rscale>  2 0.83180572E+03</rscale>
<asrwt>0</asrwt>
<pdfrwt beam="1">  1       21 0.13077301E+00 0.83180572E+03</pdfrwt>
<pdfrwt beam="2">  1       21 0.14283726E+00 0.83180572E+03</pdfrwt>
<totfact> 0.10055552E+02</totfact>
</mgrwt>
</event>
<event>
 4    1  0.5003329E-002  0.4586174E+03  0.7818608E-02  0.1025183E+00
         21   -1    0    0  503  502  0.00000000000E+00  0.00000000000E+00  0.26506555772E+03  0.26506555772E+03  0.00000000000E+00 0.  1.
         21   -1    0    0  501  503 -0.00000000000E+00 -0.00000000000E+00 -0.88809220642E+03  0.88809220642E+03  0.00000000000E+00 0.  1.
    9000007    1    1    2  501    0  0.17841393273E+03 -0.13600875141E+03 -0.12334176366E+03  0.47491378430E+03  0.40000000000E+03 0.  1.
   -9000007    1    1    2    0  502 -0.17841393273E+03  0.13600875141E+03 -0.49968488504E+03  0.67824397984E+03  0.40000000000E+03 0.  1.
<mgrwt>
<rscale>  2 0.45861739E+03</rscale>
<asrwt>0</asrwt>
<pdfrwt beam="1">  1       21 0.40779317E-01 0.45861739E+03</pdfrwt>
<pdfrwt beam="2">  1       21 0.13662957E+00 0.45861739E+03</pdfrwt>
<totfact> 0.18861687E+03</totfact>
</mgrwt>
</event>
<event>
 4    1  0.5003329E-002  0.4139763E+03  0.7818608E-02  0.1039045E+00
         21   -1    0    0  503  502  0.00000000000E+00  0.00000000000E+00  0.36579240397E+03  0.36579240397E+03  0.00000000000E+00 0.  1.
         21   -1    0    0  501  503 -0.00000000000E+00 -0.00000000000E+00 -0.49299987592E+03  0.49299987592E+03  0.00000000000E+00 0.  1.
    9000007    1    1    2  501    0 -0.30769683605E+02 -0.10212536595E+03 -0.15931281114E+03  0.44357292027E+03  0.40000000000E+03 0.  1.
   -9000007    1    1    2    0  502  0.30769683605E+02  0.10212536595E+03  0.32105339188E+02  0.41521935962E+03  0.40000000000E+03 0.  1.
<mgrwt>
<rscale>  2 0.41397628E+03</rscale>
<asrwt>0</asrwt>
<pdfrwt beam="1">  1       21 0.56275754E-01 0.41397628E+03</pdfrwt>
<pdfrwt beam="2">  1       21 0.75846135E-01 0.41397628E+03</pdfrwt>
<totfact> 0.40878526E+03</totfact>
</mgrwt>
</event>
<event>
 4    1  0.5003329E-002  0.4167892E+03  0.7818608E-02  0.1038116E+00
         21   -1    0    0  501  502  0.00000000000E+00  0.00000000000E+00  0.16344945961E+04  0.16344945961E+04  0.00000000000E+00 0.  1.
         21   -1    0    0  502  503 -0.00000000000E+00 -0.00000000000E+00 -0.42976640554E+03  0.42976640554E+03  0.00000000000E+00 0.  1.
    9000007    1    1    2  501    0 -0.11153327763E+03  0.35686875072E+02  0.14978252498E+04  0.15547326793E+04  0.40000000000E+03 0.  1.
   -9000007    1    1    2    0  503  0.11153327763E+03 -0.35686875072E+02 -0.29309705929E+03  0.50952832231E+03  0.40000000000E+03 0.  1.
<mgrwt>
<rscale>  2 0.41678919E+03</rscale>
<asrwt>0</asrwt>
<pdfrwt beam="1">  1       21 0.25146070E+00 0.41678919E+03</pdfrwt>
<pdfrwt beam="2">  1       21 0.66117910E-01 0.41678919E+03</pdfrwt>
<totfact> 0.10987194E+02</totfact>
</mgrwt>
</event>
<event>
 4    1  0.5003329E-002  0.4084515E+03  0.7818608E-02  0.1040892E+00
         21   -1    0    0  501  502  0.00000000000E+00  0.00000000000E+00  0.55677007834E+03  0.55677007834E+03  0.00000000000E+00 0.  1.
         21   -1    0    0  502  503 -0.00000000000E+00 -0.00000000000E+00 -0.50649813375E+03  0.50649813375E+03  0.00000000000E+00 0.  1.
    9000007    1    1    2  501    0  0.30520543225E+02 -0.76818787662E+02  0.36488354153E+03  0.54769757036E+03  0.40000000000E+03 0.  1.
   -9000007    1    1    2    0  503 -0.30520543225E+02  0.76818787662E+02 -0.31461159694E+03  0.51557064174E+03  0.40000000000E+03 0.  1.
<mgrwt>
<rscale>  2 0.40845150E+03</rscale>
<asrwt>0</asrwt>
<pdfrwt beam="1">  1       21 0.85656935E-01 0.40845150E+03</pdfrwt>
<pdfrwt beam="2">  1       21 0.77922790E-01 0.40845150E+03</pdfrwt>
<totfact> 0.14990523E+03</totfact>
</mgrwt>
</event>
<event>
 4    1  0.5003329E-002  0.4239450E+03  0.7818608E-02  0.1035790E+00
         21   -1    0    0  501  502  0.00000000000E+00  0.00000000000E+00  0.54221152441E+03  0.54221152441E+03  0.00000000000E+00 0.  1.
         21   -1    0    0  502  503 -0.00000000000E+00 -0.00000000000E+00 -0.43654985677E+03  0.43654985677E+03  0.00000000000E+00 0. -1.
    9000007    1    1    2  501    0  0.95240986525E+02 -0.10324021882E+03  0.29292410097E+03  0.51529983236E+03  0.40000000000E+03 0.  1.
   -9000007    1    1    2    0  503 -0.95240986525E+02  0.10324021882E+03 -0.18726243334E+03  0.46346154882E+03  0.40000000000E+03 0. -1.
<mgrwt>
<rscale>  2 0.42394503E+03</rscale>
<asrwt>0</asrwt>
<pdfrwt beam="1">  1       21 0.83417157E-01 0.42394503E+03</pdfrwt>
<pdfrwt beam="2">  1       21 0.67161517E-01 0.42394503E+03</pdfrwt>
<totfact> 0.22176481E+03</totfact>
</mgrwt>
</event>
<event>
 4    1  0.5003329E-002  0.4477228E+03  0.7818608E-02  0.1028403E+00
         21   -1    0    0  503  502  0.00000000000E+00  0.00000000000E+00  0.24941663984E+04  0.24941663984E+04  0.00000000000E+00 0.  1.
         21   -1    0    0  501  503 -0.00000000000E+00 -0.00000000000E+00 -0.80683484401E+02  0.80683484401E+02  0.00000000000E+00 0. -1.
    9000007    1    1    2  501    0 -0.20062608658E+03 -0.14314839560E+02  0.12870112254E+04  0.13626641683E+04  0.40000000000E+03 0.  1.
   -9000007    1    1    2    0  502  0.20062608658E+03  0.14314839560E+02  0.11264716887E+04  0.12121857146E+04  0.40000000000E+03 0.  1.
<mgrwt>
<rscale>  2 0.44772284E+03</rscale>
<asrwt>0</asrwt>
<pdfrwt beam="1">  1       21 0.38371785E+00 0.44772284E+03</pdfrwt>
<pdfrwt beam="2">  1       21 0.12412846E-01 0.44772284E+03</pdfrwt>
<totfact> 0.47208609E+02</totfact>
</mgrwt>
</event>
<event>
 4    1  0.5003329E-002  0.5020585E+03  0.7818608E-02  0.1013243E+00
         21   -1    0    0  503  502  0.00000000000E+00  0.00000000000E+00  0.15940370283E+03  0.15940370283E+03  0.00000000000E+00 0.  1.
         21   -1    0    0  501  503 -0.00000000000E+00 -0.00000000000E+00 -0.15835300890E+04  0.15835300890E+04  0.00000000000E+00 0.  1.
    9000007    1    1    2  501    0  0.24014490219E+03  0.18545391859E+03 -0.67925164192E+03  0.84465704462E+03  0.40000000000E+03 0. -1.
   -9000007    1    1    2    0  502 -0.24014490219E+03 -0.18545391859E+03 -0.74487474421E+03  0.89827674718E+03  0.40000000000E+03 0. -1.
<mgrwt>
<rscale>  2 0.50205849E+03</rscale>
<asrwt>0</asrwt>
<pdfrwt beam="1">  1       21 0.24523646E-01 0.50205849E+03</pdfrwt>
<pdfrwt beam="2">  1       21 0.24362002E+00 0.50205849E+03</pdfrwt>
<totfact> 0.91405052E+02</totfact>
</mgrwt>
</event>
<event>
 4    1  0.5003329E-002  0.4465674E+03  0.7818608E-02  0.1028751E+00
         21   -1    0    0  501  502  0.00000000000E+00  0.00000000000E+00  0.12383567019E+03  0.12383567019E+03  0.00000000000E+00 0. -1.
         21   -1    0    0  502  503 -0.00000000000E+00 -0.00000000000E+00 -0.16293515732E+04  0.16293515732E+04  0.00000000000E+00 0. -1.
    9000007    1    1    2  501    0 -0.25204350502E+01 -0.19853487062E+03 -0.65816774108E+03  0.79536609359E+03  0.40000000000E+03 0. -1.
   -9000007    1    1    2    0  503  0.25204350502E+01  0.19853487062E+03 -0.84734816190E+03  0.95782114976E+03  0.40000000000E+03 0. -1.
<mgrwt>
<rscale>  2 0.44656741E+03</rscale>
<asrwt>0</asrwt>
<pdfrwt beam="1">  1       21 0.19051642E-01 0.44656741E+03</pdfrwt>
<pdfrwt beam="2">  1       21 0.25066947E+00 0.44656741E+03</pdfrwt>
<totfact> 0.13779204E+03</totfact>
</mgrwt>
</event>
<event>
 4    1  0.5003329E-002  0.4875829E+03  0.7818608E-02  0.1017072E+00
         21   -1    0    0  503  502  0.00000000000E+00  0.00000000000E+00  0.14138102624E+04  0.14138102624E+04  0.00000000000E+00 0. -1.
         21   -1    0    0  501  503 -0.00000000000E+00 -0.00000000000E+00 -0.27691654459E+03  0.27691654459E+03  0.00000000000E+00 0.  1.
    9000007    1    1    2  501    0  0.17162692690E+03  0.21972996820E+03  0.38649503167E+02  0.48911230311E+03  0.40000000000E+03 0.  1.
   -9000007    1    1    2    0  502 -0.17162692690E+03 -0.21972996820E+03  0.10982442147E+04  0.12016145039E+04  0.40000000000E+03 0. -1.
<mgrwt>
<rscale>  2 0.48758288E+03</rscale>
<asrwt>0</asrwt>
<pdfrwt beam="1">  1       21 0.21750927E+00 0.48758288E+03</pdfrwt>
<pdfrwt beam="2">  1       21 0.42602546E-01 0.48758288E+03</pdfrwt>
<totfact> 0.44327829E+02</totfact>
</mgrwt>
</event>
<event>
 4    1  0.5003329E-002  0.4092485E+03  0.7818608E-02  0.1040623E+00
         21   -1    0    0  501  502  0.00000000000E+00  0.00000000000E+00  0.12221819323E+04  0.12221819323E+04  0.00000000000E+00 0.  1.
         21   -1    0    0  502  503 -0.00000000000E+00 -0.00000000000E+00 -0.16448153418E+03  0.16448153418E+03  0.00000000000E+00 0.  1.
    9000007    1    1    2  501    0  0.79575052610E+02 -0.33942684967E+02  0.81206077591E+03  0.90935526535E+03  0.40000000000E+03 0.  1.
   -9000007    1    1    2    0  503 -0.79575052610E+02  0.33942684967E+02  0.24563962222E+03  0.47730820113E+03  0.40000000000E+03 0.  1.
<mgrwt>
<rscale>  2 0.40924845E+03</rscale>
<asrwt>0</asrwt>
<pdfrwt beam="1">  1       21 0.18802798E+00 0.40924845E+03</pdfrwt>
<pdfrwt beam="2">  1       21 0.25304852E-01 0.40924845E+03</pdfrwt>
<totfact> 0.20546276E+03</totfact>
</mgrwt>
</event>
<event>
 4    1  0.5003329E-002  0.4143187E+03  0.7818608E-02  0.1038931E+00
         21   -1    0    0  503  502  0.00000000000E+00  0.00000000000E+00  0.31787956345E+03  0.31787956345E+03  0.00000000000E+00 0.  1.
         21   -1    0    0  501  503 -0.00000000000E+00 -0.00000000000E+00 -0.59294636201E+03  0.59294636201E+03  0.00000000000E+00 0.  1.
    9000007    1    1    2  501    0  0.25964937423E+02  0.10481304679E+03 -0.27359994989E+03  0.49650466798E+03  0.40000000000E+03 0.  1.
   -9000007    1    1    2    0  502 -0.25964937423E+02 -0.10481304679E+03 -0.14668486771E+01  0.41432125748E+03  0.40000000000E+03 0.  1.
<mgrwt>
<rscale>  2 0.41431866E+03</rscale>
<asrwt>0</asrwt>
<pdfrwt beam="1">  1       21 0.48904549E-01 0.41431866E+03</pdfrwt>
<pdfrwt beam="2">  1       21 0.91222516E-01 0.41431866E+03</pdfrwt>
<totfact> 0.35932233E+03</totfact>
</mgrwt>
</event>
<event>
 4    1  0.5003329E-002  0.4632403E+03  0.7818608E-02  0.1023846E+00
         21   -1    0    0  501  502  0.00000000000E+00  0.00000000000E+00  0.12924234520E+04  0.12924234520E+04  0.00000000000E+00 0. -1.
         21   -1    0    0  502  503 -0.00000000000E+00 -0.00000000000E+00 -0.17620670921E+03  0.17620670921E+03  0.00000000000E+00 0. -1.
    9000007    1    1    2  501    0  0.23112694802E+03  0.34232572606E+02  0.73450975737E+03  0.86838707890E+03  0.40000000000E+03 0. -1.
   -9000007    1    1    2    0  503 -0.23112694802E+03 -0.34232572606E+02  0.38170698539E+03  0.60024308228E+03  0.40000000000E+03 0. -1.
<mgrwt>
<rscale>  2 0.46324026E+03</rscale>
<asrwt>0</asrwt>
<pdfrwt beam="1">  1       21 0.19883437E+00 0.46324026E+03</pdfrwt>
<pdfrwt beam="2">  1       21 0.27108725E-01 0.46324026E+03</pdfrwt>
<totfact> 0.14816139E+03</totfact>
</mgrwt>
</event>
<event>
 4    1  0.5003329E-002  0.4127740E+03  0.7818608E-02  0.1039444E+00
         21   -1    0    0  501  502  0.00000000000E+00  0.00000000000E+00  0.69185715060E+03  0.69185715060E+03  0.00000000000E+00 0. -1.
         21   -1    0    0  502  503 -0.00000000000E+00 -0.00000000000E+00 -0.28075192825E+03  0.28075192825E+03  0.00000000000E+00 0. -1.
    9000007    1    1    2  501    0  0.85444363294E+02 -0.55512245847E+02  0.37598599304E+03  0.55834381488E+03  0.40000000000E+03 0. -1.
   -9000007    1    1    2    0  503 -0.85444363294E+02  0.55512245847E+02  0.35119229313E+02  0.41426526396E+03  0.40000000000E+03 0. -1.
<mgrwt>
<rscale>  2 0.41277397E+03</rscale>
<asrwt>0</asrwt>
<pdfrwt beam="1">  1       21 0.10643956E+00 0.41277397E+03</pdfrwt>
<pdfrwt beam="2">  1       21 0.43192605E-01 0.41277397E+03</pdfrwt>
<totfact> 0.32137248E+03</totfact>
</mgrwt>
</event>
<event>
 4    1  0.5003329E-002  0.4037967E+03  0.7818608E-02  0.1042473E+00
         21   -1    0    0  501  502  0.00000000000E+00  0.00000000000E+00  0.34225255620E+03  0.34225255620E+03  0.00000000000E+00 0. -1.
         21   -1    0    0  502  503 -0.00000000000E+00 -0.00000000000E+00 -0.52220152765E+03  0.52220152765E+03  0.00000000000E+00 0. -1.
    9000007    1    1    2  501    0 -0.48140705162E+02 -0.27096661975E+02  0.38021482618E+02  0.40558277789E+03  0.40000000000E+03 0. -1.
   -9000007    1    1    2    0  503  0.48140705162E+02  0.27096661975E+02 -0.21797045407E+03  0.45887130596E+03  0.40000000000E+03 0. -1.
<mgrwt>
<rscale>  2 0.40379668E+03</rscale>
<asrwt>0</asrwt>
<pdfrwt beam="1">  1       21 0.52654239E-01 0.40379668E+03</pdfrwt>
<pdfrwt beam="2">  1       21 0.80338696E-01 0.40379668E+03</pdfrwt>
<totfact> 0.41491645E+03</totfact>
</mgrwt>
</event>
<event>
 4    1  0.5003329E-002  0.4856178E+03  0.7818608E-02  0.1017603E+00
         21   -1    0    0  501  502  0.00000000000E+00  0.00000000000E+00  0.67101924544E+03  0.67101924544E+03  0.00000000000E+00 0.  1.
         21   -1    0    0  502  503 -0.00000000000E+00 -0.00000000000E+00 -0.36137641703E+03  0.36137641703E+03  0.00000000000E+00 0.  1.
    9000007    1    1    2  501    0 -0.15932620099E+03 -0.22458811618E+03  0.24040632793E+03  0.54186701575E+03  0.40000000000E+03 0.  1.
   -9000007    1    1    2    0  503  0.15932620099E+03  0.22458811618E+03  0.69236500485E+02  0.49052864672E+03  0.40000000000E+03 0.  1.
<mgrwt>
<rscale>  2 0.48561781E+03</rscale>
<asrwt>0</asrwt>
<pdfrwt beam="1">  1       21 0.10323373E+00 0.48561781E+03</pdfrwt>
<pdfrwt beam="2">  1       21 0.55596372E-01 0.48561781E+03</pdfrwt>
<totfact> 0.19744098E+03</totfact>
</mgrwt>
</event>
<event>
 4    1  0.5003329E-002  0.4733878E+03  0.7818608E-02  0.1020968E+00
         21   -1    0    0  503  502  0.00000000000E+00  0.00000000000E+00  0.13048702581E+04  0.13048702581E+04  0.00000000000E+00 0. -1.
         21   -1    0    0  501  503 -0.00000000000E+00 -0.00000000000E+00 -0.67039520800E+03  0.67039520800E+03  0.00000000000E+00 0. -1.
    9000007    1    1    2  501    0 -0.11855603176E+03 -0.22369725691E+03 -0.53454948514E+03  0.71403021468E+03  0.40000000000E+03 0. -1.
   -9000007    1    1    2    0  502  0.11855603176E+03  0.22369725691E+03  0.11690245352E+04  0.12612352514E+04  0.40000000000E+03 0. -1.
<mgrwt>
<rscale>  2 0.47338779E+03</rscale>
<asrwt>0</asrwt>
<pdfrwt beam="1">  1       21 0.20074927E+00 0.47338779E+03</pdfrwt>
<pdfrwt beam="2">  1       21 0.10313772E+00 0.47338779E+03</pdfrwt>
<totfact> 0.79109629E+01</totfact>
</mgrwt>
</event>
<event>
 4    1  0.5003329E-002  0.5475869E+03  0.7818608E-02  0.1002054E+00
         21   -1    0    0  501  502  0.00000000000E+00  0.00000000000E+00  0.58399058901E+03  0.58399058901E+03  0.00000000000E+00 0.  1.
         21   -1    0    0  502  503 -0.00000000000E+00 -0.00000000000E+00 -0.69951387100E+03  0.69951387100E+03  0.00000000000E+00 0. -1.
    9000007    1    1    2  501    0 -0.31877734178E+03  0.19553098604E+03  0.27321509206E+03  0.61196229187E+03  0.40000000000E+03 0.  1.
   -9000007    1    1    2    0  503  0.31877734178E+03 -0.19553098604E+03 -0.38873837405E+03  0.67154216815E+03  0.40000000000E+03 0. -1.
<mgrwt>
<rscale>  2 0.54758685E+03</rscale>
<asrwt>0</asrwt>
<pdfrwt beam="1">  1       21 0.89844706E-01 0.54758685E+03</pdfrwt>
<pdfrwt beam="2">  1       21 0.10761752E+00 0.54758685E+03</pdfrwt>
<totfact> 0.58734398E+02</totfact>
</mgrwt>
</event>
<event>
 4    1  0.5003329E-002  0.5699662E+03  0.7818608E-02  0.9969753E-01
         21   -1    0    0  503  502  0.00000000000E+00  0.00000000000E+00  0.20276728259E+04  0.20276728259E+04  0.00000000000E+00 0.  1.
         21   -1    0    0  501  503 -0.00000000000E+00 -0.00000000000E+00 -0.43440954867E+03  0.43440954867E+03  0.00000000000E+00 0.  1.
    9000007    1    1    2  501    0 -0.29952367196E+03  0.27412969991E+03 -0.18140049136E+03  0.59813682440E+03  0.40000000000E+03 0.  1.
   -9000007    1    1    2    0  502  0.29952367196E+03 -0.27412969991E+03  0.17746637686E+04  0.18639455502E+04  0.40000000000E+03 0.  1.
<mgrwt>
<rscale>  2 0.56996625E+03</rscale>
<asrwt>0</asrwt>
<pdfrwt beam="1">  1       21 0.31194966E+00 0.56996625E+03</pdfrwt>
<pdfrwt beam="2">  1       21 0.66832239E-01 0.56996625E+03</pdfrwt>
<totfact> 0.42096375E+01</totfact>
</mgrwt>
</event>
<event>
 4    1  0.5003329E-002  0.4248028E+03  0.7818608E-02  0.1035514E+00
         21   -1    0    0  503  502  0.00000000000E+00  0.00000000000E+00  0.75669779663E+03  0.75669779663E+03  0.00000000000E+00 0. -1.
         21   -1    0    0  501  503 -0.00000000000E+00 -0.00000000000E+00 -0.24864606277E+03  0.24864606277E+03  0.00000000000E+00 0. -1.
    9000007    1    1    2  501    0  0.19598591825E+01  0.14301587111E+03  0.15238515543E+03  0.45130767336E+03  0.40000000000E+03 0. -1.
   -9000007    1    1    2    0  502 -0.19598591825E+01 -0.14301587111E+03  0.35566657844E+03  0.55403618605E+03  0.40000000000E+03 0. -1.
<mgrwt>
<rscale>  2 0.42480275E+03</rscale>
<asrwt>0</asrwt>
<pdfrwt beam="1">  1       21 0.11641504E+00 0.42480275E+03</pdfrwt>
<pdfrwt beam="2">  1       21 0.38253241E-01 0.42480275E+03</pdfrwt>
<totfact> 0.32900078E+03</totfact>
</mgrwt>
</event>
<event>
 4    1  0.5003329E-002  0.4032323E+03  0.7818608E-02  0.1042666E+00
         21   -1    0    0  501  502  0.00000000000E+00  0.00000000000E+00  0.18280593763E+04  0.18280593763E+04  0.00000000000E+00 0.  1.
         21   -1    0    0  502  503 -0.00000000000E+00 -0.00000000000E+00 -0.98315325272E+02  0.98315325272E+02  0.00000000000E+00 0.  1.
    9000007    1    1    2  501    0 -0.30077532930E+02  0.41128982114E+02  0.11622328184E+04  0.12301956655E+04  0.40000000000E+03 0. -1.
   -9000007    1    1    2    0  503  0.30077532930E+02 -0.41128982114E+02  0.56751123261E+03  0.69617903609E+03  0.40000000000E+03 0. -1.
<mgrwt>
<rscale>  2 0.40323225E+03</rscale>
<asrwt>0</asrwt>
<pdfrwt beam="1">  1       21 0.28123988E+00 0.40323225E+03</pdfrwt>
<pdfrwt beam="2">  1       21 0.15125436E-01 0.40323225E+03</pdfrwt>
<totfact> 0.14179122E+03</totfact>
</mgrwt>
</event>
<event>
 4    1  0.5003329E-002  0.6587720E+03  0.7818608E-02  0.9790457E-01
         21   -1    0    0  501  502  0.00000000000E+00  0.00000000000E+00  0.55637712598E+03  0.55637712598E+03  0.00000000000E+00 0.  1.
         21   -1    0    0  502  503 -0.00000000000E+00 -0.00000000000E+00 -0.16906525456E+04  0.16906525456E+04  0.00000000000E+00 0.  1.
    9000007    1    1    2  501    0  0.36738458275E+03 -0.37283919204E+03  0.25742799442E+03  0.70728330044E+03  0.40000000000E+03 0.  1.
   -9000007    1    1    2    0  503 -0.36738458275E+03  0.37283919204E+03 -0.13917034140E+04  0.15397463711E+04  0.40000000000E+03 0.  1.
<mgrwt>
<rscale>  2 0.65877196E+03</rscale>
<asrwt>0</asrwt>
<pdfrwt beam="1">  1       21 0.85596481E-01 0.65877196E+03</pdfrwt>
<pdfrwt beam="2">  1       21 0.26010039E+00 0.65877196E+03</pdfrwt>
<totfact> 0.47367932E+01</totfact>
</mgrwt>
</event>
<event>
 4    1  0.5003329E-002  0.4254852E+03  0.7818608E-02  0.1035296E+00
         21   -1    0    0  501  502  0.00000000000E+00  0.00000000000E+00  0.13045175041E+04  0.13045175041E+04  0.00000000000E+00 0. -1.
         21   -1    0    0  502  503 -0.00000000000E+00 -0.00000000000E+00 -0.25963379150E+03  0.25963379150E+03  0.00000000000E+00 0. -1.
    9000007    1    1    2  501    0  0.61351253239E+02 -0.13142932409E+03  0.10560259008E+04  0.11385202443E+04  0.40000000000E+03 0. -1.
   -9000007    1    1    2    0  503 -0.61351253239E+02  0.13142932409E+03 -0.11142188173E+02  0.42563105134E+03  0.40000000000E+03 0. -1.
<mgrwt>
<rscale>  2 0.42548519E+03</rscale>
<asrwt>0</asrwt>
<pdfrwt beam="1">  1       21 0.20069500E+00 0.42548519E+03</pdfrwt>
<pdfrwt beam="2">  1       21 0.39943661E-01 0.42548519E+03</pdfrwt>
<totfact> 0.67259748E+02</totfact>
</mgrwt>
</event>
<event>
 4    1  0.5003329E-002  0.4524945E+03  0.7818608E-02  0.1026981E+00
         21   -1    0    0  501  502  0.00000000000E+00  0.00000000000E+00  0.48496111444E+03  0.48496111444E+03  0.00000000000E+00 0.  1.
         21   -1    0    0  502  503 -0.00000000000E+00 -0.00000000000E+00 -0.42220692557E+03  0.42220692557E+03  0.00000000000E+00 0.  1.
    9000007    1    1    2  501    0 -0.19313357949E+03 -0.86317353831E+02  0.33016885528E+02  0.45369745407E+03  0.40000000000E+03 0.  1.
   -9000007    1    1    2    0  503  0.19313357949E+03  0.86317353831E+02  0.29737303340E+02  0.45347058593E+03  0.40000000000E+03 0.  1.
<mgrwt>
<rscale>  2 0.45249449E+03</rscale>
<asrwt>0</asrwt>
<pdfrwt beam="1">  1       21 0.74609402E-01 0.45249449E+03</pdfrwt>
<pdfrwt beam="2">  1       21 0.64954912E-01 0.45249449E+03</pdfrwt>
<totfact> 0.30562866E+03</totfact>
</mgrwt>
</event>
<event>
 4    1  0.5003329E-002  0.6828394E+03  0.7818608E-02  0.9747038E-01
         21   -1    0    0  501  502  0.00000000000E+00  0.00000000000E+00  0.97753464058E+03  0.97753464058E+03  0.00000000000E+00 0.  1.
         21   -1    0    0  502  503 -0.00000000000E+00 -0.00000000000E+00 -0.47799683714E+03  0.47799683714E+03  0.00000000000E+00 0.  1.
    9000007    1    1    2  501    0  0.38326020941E+03 -0.39922587564E+03  0.28324713433E+03  0.73925545449E+03  0.40000000000E+03 0.  1.
   -9000007    1    1    2    0  503 -0.38326020941E+03  0.39922587564E+03  0.21629066911E+03  0.71627602322E+03  0.40000000000E+03 0.  1.
<mgrwt>
<rscale>  2 0.68283943E+03</rscale>
<asrwt>0</asrwt>
<pdfrwt beam="1">  1       21 0.15038994E+00 0.68283943E+03</pdfrwt>
<pdfrwt beam="2">  1       21 0.73537975E-01 0.68283943E+03</pdfrwt>
<totfact> 0.37467129E+02</totfact>
</mgrwt>
</event>
<event>
 4    1  0.5003329E-002  0.4494168E+03  0.7818608E-02  0.1027896E+00
         21   -1    0    0  503  502  0.00000000000E+00  0.00000000000E+00  0.39149993726E+03  0.39149993726E+03  0.00000000000E+00 0. -1.
         21   -1    0    0  501  503 -0.00000000000E+00 -0.00000000000E+00 -0.51642863138E+03  0.51642863138E+03  0.00000000000E+00 0.  1.
    9000007    1    1    2  501    0  0.18826155945E+03 -0.80827344009E+02 -0.47963181682E+02  0.45196896033E+03  0.40000000000E+03 0. -1.
   -9000007    1    1    2    0  502 -0.18826155945E+03  0.80827344009E+02 -0.76965512434E+02  0.45595960831E+03  0.40000000000E+03 0.  1.
<mgrwt>
<rscale>  2 0.44941682E+03</rscale>
<asrwt>0</asrwt>
<pdfrwt beam="1">  1       21 0.60230760E-01 0.44941682E+03</pdfrwt>
<pdfrwt beam="2">  1       21 0.79450559E-01 0.44941682E+03</pdfrwt>
<totfact> 0.31293560E+03</totfact>
</mgrwt>
</event>
<event>
 4    1  0.5003329E-002  0.4529328E+03  0.7818608E-02  0.1026851E+00
         21   -1    0    0  501  502  0.00000000000E+00  0.00000000000E+00  0.68777767038E+03  0.68777767038E+03  0.00000000000E+00 0. -1.
         21   -1    0    0  502  503 -0.00000000000E+00 -0.00000000000E+00 -0.43418816597E+03  0.43418816597E+03  0.00000000000E+00 0. -1.
    9000007    1    1    2  501    0  0.21211819260E+03  0.12408907981E+02  0.44065662896E+03  0.63192275895E+03  0.40000000000E+03 0. -1.
   -9000007    1    1    2    0  503 -0.21211819260E+03 -0.12408907981E+02 -0.18706712455E+03  0.49004307741E+03  0.40000000000E+03 0. -1.
<mgrwt>
<rscale>  2 0.45293279E+03</rscale>
<asrwt>0</asrwt>
<pdfrwt beam="1">  1       21 0.10581195E+00 0.45293279E+03</pdfrwt>
<pdfrwt beam="2">  1       21 0.66798180E-01 0.45293279E+03</pdfrwt>
<totfact> 0.12561653E+03</totfact>
</mgrwt>
</event>
<event>
 4    1  0.5003329E-002  0.4974221E+03  0.7818608E-02  0.1014454E+00
         21   -1    0    0  503  502  0.00000000000E+00  0.00000000000E+00  0.98720666337E+03  0.98720666337E+03  0.00000000000E+00 0. -1.
         21   -1    0    0  501  503 -0.00000000000E+00 -0.00000000000E+00 -0.25506911825E+03  0.25506911825E+03  0.00000000000E+00 0. -1.
    9000007    1    1    2  501    0 -0.85661951622E+02  0.28300310420E+03  0.28417449664E+03  0.57287334680E+03  0.40000000000E+03 0. -1.
   -9000007    1    1    2    0  502  0.85661951622E+02 -0.28300310420E+03  0.44796304848E+03  0.66940243482E+03  0.40000000000E+03 0. -1.
<mgrwt>
<rscale>  2 0.49742208E+03</rscale>
<asrwt>0</asrwt>
<pdfrwt beam="1">  1       21 0.15187795E+00 0.49742208E+03</pdfrwt>
<pdfrwt beam="2">  1       21 0.39241403E-01 0.49742208E+03</pdfrwt>
<totfact> 0.15137970E+03</totfact>
</mgrwt>
</event>
<event>
 4    1  0.5003329E-002  0.4748302E+03  0.7818608E-02  0.1020566E+00
         21   -1    0    0  501  502  0.00000000000E+00  0.00000000000E+00  0.32793437053E+03  0.32793437053E+03  0.00000000000E+00 0. -1.
         21   -1    0    0  502  503 -0.00000000000E+00 -0.00000000000E+00 -0.74543856636E+03  0.74543856636E+03  0.00000000000E+00 0.  1.
    9000007    1    1    2  501    0  0.75243839586E+02 -0.24454457848E+03 -0.35834049821E+03  0.59487107756E+03  0.40000000000E+03 0.  1.
   -9000007    1    1    2    0  503 -0.75243839586E+02  0.24454457848E+03 -0.59163697626E+02  0.47850185933E+03  0.40000000000E+03 0. -1.
<mgrwt>
<rscale>  2 0.47483017E+03</rscale>
<asrwt>0</asrwt>
<pdfrwt beam="1">  1       21 0.50451443E-01 0.47483017E+03</pdfrwt>
<pdfrwt beam="2">  1       21 0.11468285E+00 0.47483017E+03</pdfrwt>
<totfact> 0.18811705E+03</totfact>
</mgrwt>
</event>
<event>
 4    1  0.5003329E-002  0.4459118E+03  0.7818608E-02  0.1028948E+00
         21   -1    0    0  503  502  0.00000000000E+00  0.00000000000E+00  0.24374248248E+04  0.24374248248E+04  0.00000000000E+00 0. -1.
         21   -1    0    0  501  503 -0.00000000000E+00 -0.00000000000E+00 -0.96391779322E+02  0.96391779322E+02  0.00000000000E+00 0. -1.
    9000007    1    1    2  501    0 -0.19071393038E+03 -0.49653657200E+02  0.67383742907E+03  0.80801866917E+03  0.40000000000E+03 0. -1.
   -9000007    1    1    2    0  502  0.19071393038E+03  0.49653657200E+02  0.16671956164E+04  0.17257979350E+04  0.40000000000E+03 0. -1.
<mgrwt>
<rscale>  2 0.44591175E+03</rscale>
<asrwt>0</asrwt>
<pdfrwt beam="1">  1       21 0.37498839E+00 0.44591175E+03</pdfrwt>
<pdfrwt beam="2">  1       21 0.14829506E-01 0.44591175E+03</pdfrwt>
<totfact> 0.38659311E+02</totfact>
</mgrwt>
</event>
<event>
 4    1  0.5003329E-002  0.4399291E+03  0.7818608E-02  0.1030769E+00
         21   -1    0    0  501  502  0.00000000000E+00  0.00000000000E+00  0.31628979330E+03  0.31628979330E+03  0.00000000000E+00 0.  1.
         21   -1    0    0  502  503 -0.00000000000E+00 -0.00000000000E+00 -0.91909057787E+03  0.91909057787E+03  0.00000000000E+00 0.  1.
    9000007    1    1    2  501    0 -0.17345768288E+03  0.58737355458E+02  0.55704391357E+02  0.44344179313E+03  0.40000000000E+03 0.  1.
   -9000007    1    1    2    0  503  0.17345768288E+03 -0.58737355458E+02 -0.65850517593E+03  0.79193857805E+03  0.40000000000E+03 0.  1.
<mgrwt>
<rscale>  2 0.43992914E+03</rscale>
<asrwt>0</asrwt>
<pdfrwt beam="1">  1       21 0.48659969E-01 0.43992914E+03</pdfrwt>
<pdfrwt beam="2">  1       21 0.14139855E+00 0.43992914E+03</pdfrwt>
<totfact> 0.11988868E+03</totfact>
</mgrwt>
</event>
<event>
 4    1  0.5003329E-002  0.4564899E+03  0.7818608E-02  0.1025804E+00
         21   -1    0    0  501  502  0.00000000000E+00  0.00000000000E+00  0.17038665925E+04  0.17038665925E+04  0.00000000000E+00 0. -1.
         21   -1    0    0  502  503 -0.00000000000E+00 -0.00000000000E+00 -0.33653717302E+03  0.33653717302E+03  0.00000000000E+00 0.  1.
    9000007    1    1    2  501    0 -0.19298438228E+03  0.10554641100E+03  0.14976507095E+04  0.15656757852E+04  0.40000000000E+03 0. -1.
   -9000007    1    1    2    0  503  0.19298438228E+03 -0.10554641100E+03 -0.13032129001E+03  0.47472798033E+03  0.40000000000E+03 0.  1.
<mgrwt>
<rscale>  2 0.45648989E+03</rscale>
<asrwt>0</asrwt>
<pdfrwt beam="1">  1       21 0.26213332E+00 0.45648989E+03</pdfrwt>
<pdfrwt beam="2">  1       21 0.51774951E-01 0.45648989E+03</pdfrwt>
<totfact> 0.15732877E+02</totfact>
</mgrwt>
</event>
<event>
 4    1  0.5003329E-002  0.4686806E+03  0.7818608E-02  0.1022293E+00
         21   -1    0    0  503  502  0.00000000000E+00  0.00000000000E+00  0.27984137332E+03  0.27984137332E+03  0.00000000000E+00 0. -1.
         21   -1    0    0  501  503 -0.00000000000E+00 -0.00000000000E+00 -0.13795696922E+04  0.13795696922E+04  0.00000000000E+00 0. -1.
    9000007    1    1    2  501    0 -0.22883826726E+03 -0.85408193633E+02 -0.10945822184E+04  0.11907022066E+04  0.40000000000E+03 0. -1.
   -9000007    1    1    2    0  502  0.22883826726E+03  0.85408193633E+02 -0.51461005618E+01  0.46870885895E+03  0.40000000000E+03 0. -1.
<mgrwt>
<rscale>  2 0.46868061E+03</rscale>
<asrwt>0</asrwt>
<pdfrwt beam="1">  1       21 0.43052520E-01 0.46868061E+03</pdfrwt>
<pdfrwt beam="2">  1       21 0.21224149E+00 0.46868061E+03</pdfrwt>
<totfact> 0.47342022E+02</totfact>
</mgrwt>
</event>
<event>
 4    1  0.5003329E-002  0.4963717E+03  0.7818608E-02  0.1014730E+00
         21   -1    0    0  501  502  0.00000000000E+00  0.00000000000E+00  0.17093487238E+03  0.17093487238E+03  0.00000000000E+00 0.  1.
         21   -1    0    0  502  503 -0.00000000000E+00 -0.00000000000E+00 -0.19168718801E+04  0.19168718801E+04  0.00000000000E+00 0.  1.
    9000007    1    1    2  501    0  0.67585759602E+01 -0.29383526230E+03 -0.35305869788E+03  0.60912665668E+03  0.40000000000E+03 0.  1.
   -9000007    1    1    2    0  503 -0.67585759602E+01  0.29383526230E+03 -0.13928783099E+04  0.14786800958E+04  0.40000000000E+03 0.  1.
<mgrwt>
<rscale>  2 0.49637167E+03</rscale>
<asrwt>0</asrwt>
<pdfrwt beam="1">  1       21 0.26297674E-01 0.49637167E+03</pdfrwt>
<pdfrwt beam="2">  1       21 0.29490335E+00 0.49637167E+03</pdfrwt>
<totfact> 0.38913681E+02</totfact>
</mgrwt>
</event>
<event>
 4    1  0.5003329E-002  0.4226726E+03  0.7818608E-02  0.1036200E+00
         21   -1    0    0  503  502  0.00000000000E+00  0.00000000000E+00  0.48248143880E+03  0.48248143880E+03  0.00000000000E+00 0.  1.
         21   -1    0    0  501  503 -0.00000000000E+00 -0.00000000000E+00 -0.38380506761E+03  0.38380506761E+03  0.00000000000E+00 0. -1.
    9000007    1    1    2  501    0  0.76508128273E+02 -0.11313120101E+03 -0.31978815644E+02  0.42388065182E+03  0.40000000000E+03 0. -1.
   -9000007    1    1    2    0  502 -0.76508128273E+02  0.11313120101E+03  0.13065518684E+03  0.44240585460E+03  0.40000000000E+03 0.  1.
<mgrwt>
<rscale>  2 0.42267264E+03</rscale>
<asrwt>0</asrwt>
<pdfrwt beam="1">  1       21 0.74227914E-01 0.42267264E+03</pdfrwt>
<pdfrwt beam="2">  1       21 0.59046933E-01 0.42267264E+03</pdfrwt>
<totfact> 0.38555621E+03</totfact>
</mgrwt>
</event>
<event>
 4    1  0.5003329E-002  0.4708865E+03  0.7818608E-02  0.1021670E+00
         21   -1    0    0  501  502  0.00000000000E+00  0.00000000000E+00  0.69428808385E+03  0.69428808385E+03  0.00000000000E+00 0. -1.
         21   -1    0    0  502  503 -0.00000000000E+00 -0.00000000000E+00 -0.53258028199E+03  0.53258028199E+03  0.00000000000E+00 0. -1.
    9000007    1    1    2  501    0  0.16595929541E+03  0.18490963912E+03  0.46898689645E+03  0.66459218429E+03  0.40000000000E+03 0. -1.
   -9000007    1    1    2    0  503 -0.16595929541E+03 -0.18490963912E+03 -0.30727909458E+03  0.56227618155E+03  0.40000000000E+03 0. -1.
<mgrwt>
<rscale>  2 0.47088646E+03</rscale>
<asrwt>0</asrwt>
<pdfrwt beam="1">  1       21 0.10681355E+00 0.47088646E+03</pdfrwt>
<pdfrwt beam="2">  1       21 0.81935428E-01 0.47088646E+03</pdfrwt>
<totfact> 0.76519611E+02</totfact>
</mgrwt>
</event>
<event>
 4    1  0.5003329E-002  0.7738599E+03  0.7818608E-02  0.9598644E-01
         21   -1    0    0  503  502  0.00000000000E+00  0.00000000000E+00  0.42307776724E+03  0.42307776724E+03  0.00000000000E+00 0.  1.
         21   -1    0    0  501  503 -0.00000000000E+00 -0.00000000000E+00 -0.15088158099E+04  0.15088158099E+04  0.00000000000E+00 0. -1.
    9000007    1    1    2  501    0  0.51922812329E+03 -0.41141378292E+03 -0.30262444418E+03  0.83092761358E+03  0.40000000000E+03 0.  1.
   -9000007    1    1    2    0  502 -0.51922812329E+03  0.41141378292E+03 -0.78311359847E+03  0.11009659636E+04  0.40000000000E+03 0.  1.
<mgrwt>
<rscale>  2 0.77385990E+03</rscale>
<asrwt>0</asrwt>
<pdfrwt beam="1">  1       21 0.65088887E-01 0.77385990E+03</pdfrwt>
<pdfrwt beam="2">  1       21 0.23212551E+00 0.77385990E+03</pdfrwt>
<totfact> 0.12803065E+02</totfact>
</mgrwt>
</event>
<event>
 4    1  0.5003329E-002  0.4081763E+03  0.7818608E-02  0.1040985E+00
         21   -1    0    0  501  502  0.00000000000E+00  0.00000000000E+00  0.54106706935E+03  0.54106706935E+03  0.00000000000E+00 0. -1.
         21   -1    0    0  502  503 -0.00000000000E+00 -0.00000000000E+00 -0.46394048665E+03  0.46394048665E+03  0.00000000000E+00 0. -1.
    9000007    1    1    2  501    0  0.44215671804E+02  0.68211929490E+02  0.32996528839E+03  0.52486663497E+03  0.40000000000E+03 0. -1.
   -9000007    1    1    2    0  503 -0.44215671804E+02 -0.68211929490E+02 -0.25283870569E+03  0.48014092104E+03  0.40000000000E+03 0. -1.
<mgrwt>
<rscale>  2 0.40817630E+03</rscale>
<asrwt>0</asrwt>
<pdfrwt beam="1">  1       21 0.83241087E-01 0.40817630E+03</pdfrwt>
<pdfrwt beam="2">  1       21 0.71375460E-01 0.40817630E+03</pdfrwt>
<totfact> 0.19565635E+03</totfact>
</mgrwt>
</event>
<event>
 4    1  0.5003329E-002  0.7871264E+03  0.7818608E-02  0.9578840E-01
         21   -1    0    0  501  502  0.00000000000E+00  0.00000000000E+00  0.15250597472E+04  0.15250597472E+04  0.00000000000E+00 0.  1.
         21   -1    0    0  502  503 -0.00000000000E+00 -0.00000000000E+00 -0.41128333724E+03  0.41128333724E+03  0.00000000000E+00 0. -1.
    9000007    1    1    2  501    0 -0.10133752133E+03 -0.67029746445E+03  0.66390623625E+03  0.10297278643E+04  0.40000000000E+03 0.  1.
   -9000007    1    1    2    0  503  0.10133752133E+03  0.67029746445E+03  0.44987017367E+03  0.90661522006E+03  0.40000000000E+03 0. -1.
<mgrwt>
<rscale>  2 0.78712641E+03</rscale>
<asrwt>0</asrwt>
<pdfrwt beam="1">  1       21 0.23462457E+00 0.78712641E+03</pdfrwt>
<pdfrwt beam="2">  1       21 0.63274360E-01 0.78712641E+03</pdfrwt>
<totfact> 0.13092504E+02</totfact>
</mgrwt>
</event>
<event>
 4    1  0.5003329E-002  0.4475368E+03  0.7818608E-02  0.1028459E+00
         21   -1    0    0  503  502  0.00000000000E+00  0.00000000000E+00  0.44815614257E+03  0.44815614257E+03  0.00000000000E+00 0. -1.
         21   -1    0    0  501  503 -0.00000000000E+00 -0.00000000000E+00 -0.47352725150E+03  0.47352725150E+03  0.00000000000E+00 0. -1.
    9000007    1    1    2  501    0  0.11088718170E+03  0.16731172880E+03  0.96557328795E+02  0.45783457646E+03  0.40000000000E+03 0.  1.
   -9000007    1    1    2    0  502 -0.11088718170E+03 -0.16731172880E+03 -0.12192843772E+03  0.46384881760E+03  0.40000000000E+03 0.  1.
<mgrwt>
<rscale>  2 0.44753679E+03</rscale>
<asrwt>0</asrwt>
<pdfrwt beam="1">  1       21 0.68947100E-01 0.44753679E+03</pdfrwt>
<pdfrwt beam="2">  1       21 0.72850346E-01 0.44753679E+03</pdfrwt>
<totfact> 0.28291463E+03</totfact>
</mgrwt>
</event>
<event>
 4    1  0.5003329E-002  0.4065782E+03  0.7818608E-02  0.1041525E+00
         21   -1    0    0  503  502  0.00000000000E+00  0.00000000000E+00  0.37377442602E+03  0.37377442602E+03  0.00000000000E+00 0. -1.
         21   -1    0    0  501  503 -0.00000000000E+00 -0.00000000000E+00 -0.51178642888E+03  0.51178642888E+03  0.00000000000E+00 0.  1.
    9000007    1    1    2  501    0 -0.53841509334E+02 -0.49060204799E+02  0.94192513212E+02  0.41734642848E+03  0.40000000000E+03 0. -1.
   -9000007    1    1    2    0  502  0.53841509334E+02  0.49060204799E+02 -0.23220451608E+03  0.46821442642E+03  0.40000000000E+03 0.  1.
<mgrwt>
<rscale>  2 0.40657817E+03</rscale>
<asrwt>0</asrwt>
<pdfrwt beam="1">  1       21 0.57503758E-01 0.40657817E+03</pdfrwt>
<pdfrwt beam="2">  1       21 0.78736374E-01 0.40657817E+03</pdfrwt>
<totfact> 0.35909646E+03</totfact>
</mgrwt>
</event>
<event>
 4    1  0.5003329E-002  0.4155292E+03  0.7818608E-02  0.1038531E+00
         21   -1    0    0  503  502  0.00000000000E+00  0.00000000000E+00  0.23580959272E+03  0.23580959272E+03  0.00000000000E+00 0. -1.
         21   -1    0    0  501  503 -0.00000000000E+00 -0.00000000000E+00 -0.73225103241E+03  0.73225103241E+03  0.00000000000E+00 0. -1.
    9000007    1    1    2  501    0  0.11066894731E+03  0.20418077704E+02 -0.24507268184E+03  0.48241593379E+03  0.40000000000E+03 0. -1.
   -9000007    1    1    2    0  502 -0.11066894731E+03 -0.20418077704E+02 -0.25136875786E+03  0.48564469134E+03  0.40000000000E+03 0. -1.
<mgrwt>
<rscale>  2 0.41552920E+03</rscale>
<asrwt>0</asrwt>
<pdfrwt beam="1">  1       21 0.36278400E-01 0.41552920E+03</pdfrwt>
<pdfrwt beam="2">  1       21 0.11265400E+00 0.41552920E+03</pdfrwt>
<totfact> 0.39918420E+03</totfact>
</mgrwt>
</event>
<event>
 4    1  0.5003329E-002  0.4723793E+03  0.7818608E-02  0.1021251E+00
         21   -1    0    0  501  502  0.00000000000E+00  0.00000000000E+00  0.14063415926E+04  0.14063415926E+04  0.00000000000E+00 0. -1.
         21   -1    0    0  502  503 -0.00000000000E+00 -0.00000000000E+00 -0.33850922622E+03  0.33850922622E+03  0.00000000000E+00 0.  1.
    9000007    1    1    2  501    0 -0.13494065956E+02  0.25091855101E+03  0.11698134971E+04  0.12615886124E+04  0.40000000000E+03 0. -1.
   -9000007    1    1    2    0  503  0.13494065956E+02 -0.25091855101E+03 -0.10198113073E+03  0.48326220635E+03  0.40000000000E+03 0.  1.
<mgrwt>
<rscale>  2 0.47237931E+03</rscale>
<asrwt>0</asrwt>
<pdfrwt beam="1">  1       21 0.21636024E+00 0.47237931E+03</pdfrwt>
<pdfrwt beam="2">  1       21 0.52078343E-01 0.47237931E+03</pdfrwt>
<totfact> 0.29725869E+02</totfact>
</mgrwt>
</event>
<event>
 4    1  0.5003329E-002  0.4519459E+03  0.7818608E-02  0.1027143E+00
         21   -1    0    0  501  502  0.00000000000E+00  0.00000000000E+00  0.22089753604E+03  0.22089753604E+03  0.00000000000E+00 0. -1.
         21   -1    0    0  502  503 -0.00000000000E+00 -0.00000000000E+00 -0.93378362530E+03  0.93378362530E+03  0.00000000000E+00 0. -1.
    9000007    1    1    2  501    0  0.18722935658E+03  0.95917808576E+02 -0.29937422425E+03  0.54210698586E+03  0.40000000000E+03 0.  1.
   -9000007    1    1    2    0  503 -0.18722935658E+03 -0.95917808576E+02 -0.41351186501E+03  0.61257417548E+03  0.40000000000E+03 0.  1.
<mgrwt>
<rscale>  2 0.45194586E+03</rscale>
<asrwt>0</asrwt>
<pdfrwt beam="1">  1       21 0.33984236E-01 0.45194586E+03</pdfrwt>
<pdfrwt beam="2">  1       21 0.14365902E+00 0.45194586E+03</pdfrwt>
<totfact> 0.23999648E+03</totfact>
</mgrwt>
</event>
<event>
 4    1  0.5003329E-002  0.4197573E+03  0.7818608E-02  0.1037145E+00
         21   -1    0    0  501  502  0.00000000000E+00  0.00000000000E+00  0.15417927784E+03  0.15417927784E+03  0.00000000000E+00 0. -1.
         21   -1    0    0  502  503 -0.00000000000E+00 -0.00000000000E+00 -0.16147220747E+04  0.16147220747E+04  0.00000000000E+00 0. -1.
    9000007    1    1    2  501    0  0.10135786715E+02 -0.12685984182E+03 -0.25212636428E+03  0.48965687701E+03  0.40000000000E+03 0. -1.
   -9000007    1    1    2    0  503 -0.10135786715E+02  0.12685984182E+03 -0.12084164325E+04  0.12792444755E+04  0.40000000000E+03 0. -1.
<mgrwt>
<rscale>  2 0.41975726E+03</rscale>
<asrwt>0</asrwt>
<pdfrwt beam="1">  1       21 0.23719889E-01 0.41975726E+03</pdfrwt>
<pdfrwt beam="2">  1       21 0.24841878E+00 0.41975726E+03</pdfrwt>
<totfact> 0.94807800E+02</totfact>
</mgrwt>
</event>
<event>
 4    1  0.5003329E-002  0.6014096E+03  0.7818608E-02  0.9902486E-01
         21   -1    0    0  503  502  0.00000000000E+00  0.00000000000E+00  0.12401073616E+04  0.12401073616E+04  0.00000000000E+00 0.  1.
         21   -1    0    0  501  503 -0.00000000000E+00 -0.00000000000E+00 -0.30069628364E+03  0.30069628364E+03  0.00000000000E+00 0.  1.
    9000007    1    1    2  501    0  0.73298043337E+02 -0.44308117850E+03  0.60323409319E+03  0.85181271714E+03  0.40000000000E+03 0.  1.
   -9000007    1    1    2    0  502 -0.73298043337E+02  0.44308117850E+03  0.33617698474E+03  0.68899092807E+03  0.40000000000E+03 0.  1.
<mgrwt>
<rscale>  2 0.60140962E+03</rscale>
<asrwt>0</asrwt>
<pdfrwt beam="1">  1       21 0.19078575E+00 0.60140962E+03</pdfrwt>
<pdfrwt beam="2">  1       21 0.46260967E-01 0.60140962E+03</pdfrwt>
<totfact> 0.53660160E+02</totfact>
</mgrwt>
</event>
<event>
 4    1  0.5003329E-002  0.4961835E+03  0.7818608E-02  0.1014780E+00
         21   -1    0    0  503  502  0.00000000000E+00  0.00000000000E+00  0.12021696152E+03  0.12021696152E+03  0.00000000000E+00 0.  1.
         21   -1    0    0  501  503 -0.00000000000E+00 -0.00000000000E+00 -0.23812487735E+04  0.23812487735E+04  0.00000000000E+00 0. -1.
    9000007    1    1    2  501    0 -0.10553192330E+03 -0.27397283142E+03 -0.15984452348E+04  0.16736861318E+04  0.40000000000E+03 0. -1.
   -9000007    1    1    2    0  502  0.10553192330E+03  0.27397283142E+03 -0.66258657716E+03  0.82777960317E+03  0.40000000000E+03 0.  1.
<mgrwt>
<rscale>  2 0.49618353E+03</rscale>
<asrwt>0</asrwt>
<pdfrwt beam="1">  1       21 0.18494918E-01 0.49618353E+03</pdfrwt>
<pdfrwt beam="2">  1       21 0.36634596E+00 0.49618353E+03</pdfrwt>
<totfact> 0.28071269E+02</totfact>
</mgrwt>
</event>
<event>
 4    1  0.5003329E-002  0.4772366E+03  0.7818608E-02  0.1019897E+00
         21   -1    0    0  503  502  0.00000000000E+00  0.00000000000E+00  0.38646101159E+03  0.38646101159E+03  0.00000000000E+00 0. -1.
         21   -1    0    0  501  503 -0.00000000000E+00 -0.00000000000E+00 -0.66833702531E+03  0.66833702531E+03  0.00000000000E+00 0. -1.
    9000007    1    1    2  501    0 -0.25653377242E+03 -0.44104290249E+02  0.40388937736E+02  0.47894261776E+03  0.40000000000E+03 0. -1.
   -9000007    1    1    2    0  502  0.25653377242E+03  0.44104290249E+02 -0.32226495146E+03  0.57585541914E+03  0.40000000000E+03 0. -1.
<mgrwt>
<rscale>  2 0.47723659E+03</rscale>
<asrwt>0</asrwt>
<pdfrwt beam="1">  1       21 0.59455541E-01 0.47723659E+03</pdfrwt>
<pdfrwt beam="2">  1       21 0.10282108E+00 0.47723659E+03</pdfrwt>
<totfact> 0.17278909E+03</totfact>
</mgrwt>
</event>
<event>
 4    1  0.5003329E-002  0.6535406E+03  0.7818608E-02  0.9800158E-01
         21   -1    0    0  501  502  0.00000000000E+00  0.00000000000E+00  0.14337554514E+04  0.14337554514E+04  0.00000000000E+00 0. -1.
         21   -1    0    0  502  503 -0.00000000000E+00 -0.00000000000E+00 -0.44349593216E+03  0.44349593216E+03  0.00000000000E+00 0.  1.
    9000007    1    1    2  501    0 -0.15530765232E+03  0.49294508068E+03  0.10329320959E+04  0.12223191213E+04  0.40000000000E+03 0. -1.
   -9000007    1    1    2    0  503  0.15530765232E+03 -0.49294508068E+03 -0.42672576655E+02  0.65493226232E+03  0.40000000000E+03 0.  1.
<mgrwt>
<rscale>  2 0.65354060E+03</rscale>
<asrwt>0</asrwt>
<pdfrwt beam="1">  1       21 0.22057776E+00 0.65354060E+03</pdfrwt>
<pdfrwt beam="2">  1       21 0.68230144E-01 0.65354060E+03</pdfrwt>
<totfact> 0.14247745E+02</totfact>
</mgrwt>
</event>
<event>
 4    1  0.5003329E-002  0.5620667E+03  0.7818608E-02  0.9987389E-01
         21   -1    0    0  501  502  0.00000000000E+00  0.00000000000E+00  0.65382094844E+03  0.65382094844E+03  0.00000000000E+00 0.  1.
         21   -1    0    0  502  503 -0.00000000000E+00 -0.00000000000E+00 -0.87190450988E+03  0.87190450988E+03  0.00000000000E+00 0.  1.
    9000007    1    1    2  501    0 -0.38281723734E+03  0.96798601457E+02  0.40032186069E+03  0.69005550400E+03  0.40000000000E+03 0.  1.
   -9000007    1    1    2    0  503  0.38281723734E+03 -0.96798601457E+02 -0.61840542212E+03  0.83566995433E+03  0.40000000000E+03 0.  1.
<mgrwt>
<rscale>  2 0.56206673E+03</rscale>
<asrwt>0</asrwt>
<pdfrwt beam="1">  1       21 0.10058784E+00 0.56206673E+03</pdfrwt>
<pdfrwt beam="2">  1       21 0.13413916E+00 0.56206673E+03</pdfrwt>
<totfact> 0.25338166E+02</totfact>
</mgrwt>
</event>
<event>
 4    1  0.5003329E-002  0.4027910E+03  0.7818608E-02  0.1042818E+00
         21   -1    0    0  501  502  0.00000000000E+00  0.00000000000E+00  0.80847218283E+03  0.80847218283E+03  0.00000000000E+00 0. -1.
         21   -1    0    0  502  503 -0.00000000000E+00 -0.00000000000E+00 -0.13466949156E+04  0.13466949156E+04  0.00000000000E+00 0. -1.
    9000007    1    1    2  501    0  0.28392275680E+02  0.37874398979E+02  0.72494800211E+03  0.82933117461E+03  0.40000000000E+03 0. -1.
   -9000007    1    1    2    0  503 -0.28392275680E+02 -0.37874398979E+02 -0.12631707349E+04  0.13258359238E+04  0.40000000000E+03 0. -1.
<mgrwt>
<rscale>  2 0.40279100E+03</rscale>
<asrwt>0</asrwt>
<pdfrwt beam="1">  1       21 0.12438034E+00 0.40279100E+03</pdfrwt>
<pdfrwt beam="2">  1       21 0.20718383E+00 0.40279100E+03</pdfrwt>
<totfact> 0.46951768E+01</totfact>
</mgrwt>
</event>
<event>
 4    1  0.5003329E-002  0.5091540E+03  0.7818608E-02  0.1011417E+00
         21   -1    0    0  501  502  0.00000000000E+00  0.00000000000E+00  0.10647900523E+03  0.10647900523E+03  0.00000000000E+00 0.  1.
         21   -1    0    0  502  503 -0.00000000000E+00 -0.00000000000E+00 -0.24634759896E+04  0.24634759896E+04  0.00000000000E+00 0. -1.
    9000007    1    1    2  501    0  0.12851251757E+03 -0.28761493484E+03 -0.13175273213E+04  0.14124857735E+04  0.40000000000E+03 0. -1.
   -9000007    1    1    2    0  503 -0.12851251757E+03  0.28761493484E+03 -0.10394696631E+04  0.11574692214E+04  0.40000000000E+03 0.  1.
<mgrwt>
<rscale>  2 0.50915402E+03</rscale>
<asrwt>0</asrwt>
<pdfrwt beam="1">  1       21 0.16381387E-01 0.50915402E+03</pdfrwt>
<pdfrwt beam="2">  1       21 0.37899628E+00 0.50915402E+03</pdfrwt>
<totfact> 0.29173113E+02</totfact>
</mgrwt>
</event>
<event>
 4    1  0.5003329E-002  0.5531008E+03  0.7818608E-02  0.1000779E+00
         21   -1    0    0  503  502  0.00000000000E+00  0.00000000000E+00  0.78355064427E+03  0.78355064427E+03  0.00000000000E+00 0.  1.
         21   -1    0    0  501  503 -0.00000000000E+00 -0.00000000000E+00 -0.72638247401E+03  0.72638247401E+03  0.00000000000E+00 0. -1.
    9000007    1    1    2  501    0 -0.11071376546E+03  0.36559950437E+03 -0.48485024165E+03  0.73552722063E+03  0.40000000000E+03 0. -1.
   -9000007    1    1    2    0  502  0.11071376546E+03 -0.36559950437E+03  0.54201841191E+03  0.77440589765E+03  0.40000000000E+03 0.  1.
<mgrwt>
<rscale>  2 0.55310084E+03</rscale>
<asrwt>0</asrwt>
<pdfrwt beam="1">  1       21 0.12054625E+00 0.55310084E+03</pdfrwt>
<pdfrwt beam="2">  1       21 0.11175115E+00 0.55310084E+03</pdfrwt>
<totfact> 0.25855293E+02</totfact>
</mgrwt>
</event>
<event>
 4    1  0.5003329E-002  0.5931797E+03  0.7818608E-02  0.9919658E-01
         21   -1    0    0  503  502  0.00000000000E+00  0.00000000000E+00  0.26136372691E+03  0.26136372691E+03  0.00000000000E+00 0.  1.
         21   -1    0    0  501  503 -0.00000000000E+00 -0.00000000000E+00 -0.20376703028E+04  0.20376703028E+04  0.00000000000E+00 0. -1.
    9000007    1    1    2  501    0  0.28172062916E+03  0.33540369468E+03 -0.15577572693E+04  0.16668742788E+04  0.40000000000E+03 0. -1.
   -9000007    1    1    2    0  502 -0.28172062916E+03 -0.33540369468E+03 -0.21854930665E+03  0.63215975096E+03  0.40000000000E+03 0.  1.
<mgrwt>
<rscale>  2 0.59317970E+03</rscale>
<asrwt>0</asrwt>
<pdfrwt beam="1">  1       21 0.40209804E-01 0.59317970E+03</pdfrwt>
<pdfrwt beam="2">  1       21 0.31348774E+00 0.59317970E+03</pdfrwt>
<totfact> 0.12162195E+02</totfact>
</mgrwt>
</event>
<event>
 4    1  0.5003329E-002  0.4016732E+03  0.7818608E-02  0.1043202E+00
         21   -1    0    0  501  502  0.00000000000E+00  0.00000000000E+00  0.95060751999E+03  0.95060751999E+03  0.00000000000E+00 0. -1.
         21   -1    0    0  502  503 -0.00000000000E+00 -0.00000000000E+00 -0.38258086743E+03  0.38258086743E+03  0.00000000000E+00 0. -1.
    9000007    1    1    2  501    0  0.22178977571E+02  0.29144969913E+02  0.78122724692E+03  0.87844029259E+03  0.40000000000E+03 0. -1.
   -9000007    1    1    2    0  503 -0.22178977571E+02 -0.29144969913E+02 -0.21320059436E+03  0.45474809483E+03  0.40000000000E+03 0. -1.
<mgrwt>
<rscale>  2 0.40167317E+03</rscale>
<asrwt>0</asrwt>
<pdfrwt beam="1">  1       21 0.14624731E+00 0.40167317E+03</pdfrwt>
<pdfrwt beam="2">  1       21 0.58858595E-01 0.40167317E+03</pdfrwt>
<totfact> 0.74100761E+02</totfact>
</mgrwt>
</event>
<event>
 4    1  0.5003329E-002  0.4946886E+03  0.7818608E-02  0.1015175E+00
         21   -1    0    0  503  502  0.00000000000E+00  0.00000000000E+00  0.17485570747E+03  0.17485570747E+03  0.00000000000E+00 0. -1.
         21   -1    0    0  501  503 -0.00000000000E+00 -0.00000000000E+00 -0.14051176715E+04  0.14051176715E+04  0.00000000000E+00 0. -1.
    9000007    1    1    2  501    0  0.22637694275E+03  0.18294893663E+03 -0.56533998126E+03  0.75121643222E+03  0.40000000000E+03 0. -1.
   -9000007    1    1    2    0  502 -0.22637694275E+03 -0.18294893663E+03 -0.66492198274E+03  0.82875694673E+03  0.40000000000E+03 0. -1.
<mgrwt>
<rscale>  2 0.49468862E+03</rscale>
<asrwt>0</asrwt>
<pdfrwt beam="1">  1       21 0.26900878E-01 0.49468862E+03</pdfrwt>
<pdfrwt beam="2">  1       21 0.21617195E+00 0.49468862E+03</pdfrwt>
<totfact> 0.11414122E+03</totfact>
</mgrwt>
</event>
<event>
 4    1  0.5003329E-002  0.5745496E+03  0.7818608E-02  0.9959661E-01
         21   -1    0    0  501  502  0.00000000000E+00  0.00000000000E+00  0.10978574481E+04  0.10978574481E+04  0.00000000000E+00 0. -1.
         21   -1    0    0  502  503 -0.00000000000E+00 -0.00000000000E+00 -0.33193799697E+03  0.33193799697E+03  0.00000000000E+00 0.  1.
    9000007    1    1    2  501    0 -0.14897452405E+03 -0.38459571970E+03  0.60232802075E+03  0.83240994768E+03  0.40000000000E+03 0. -1.
   -9000007    1    1    2    0  503  0.14897452405E+03  0.38459571970E+03  0.16359143041E+03  0.59738549742E+03  0.40000000000E+03 0.  1.
<mgrwt>
<rscale>  2 0.57454963E+03</rscale>
<asrwt>0</asrwt>
<pdfrwt beam="1">  1       21 0.16890114E+00 0.57454963E+03</pdfrwt>
<pdfrwt beam="2">  1       21 0.51067385E-01 0.57454963E+03</pdfrwt>
<totfact> 0.62850356E+02</totfact>
</mgrwt>
</event>
<event>
 4    1  0.5003329E-002  0.4986358E+03  0.7818608E-02  0.1014136E+00
         21   -1    0    0  503  502  0.00000000000E+00  0.00000000000E+00  0.91848974561E+03  0.91848974561E+03  0.00000000000E+00 0.  1.
         21   -1    0    0  501  503 -0.00000000000E+00 -0.00000000000E+00 -0.31958186047E+03  0.31958186047E+03  0.00000000000E+00 0.  1.
    9000007    1    1    2  501    0 -0.86647858792E+02  0.28483291964E+03  0.57358492478E+02  0.50192393866E+03  0.40000000000E+03 0.  1.
   -9000007    1    1    2    0  502  0.86647858792E+02 -0.28483291964E+03  0.54154939266E+03  0.73614766741E+03  0.40000000000E+03 0.  1.
<mgrwt>
<rscale>  2 0.49863578E+03</rscale>
<asrwt>0</asrwt>
<pdfrwt beam="1">  1       21 0.14130611E+00 0.49863578E+03</pdfrwt>
<pdfrwt beam="2">  1       21 0.49166441E-01 0.49863578E+03</pdfrwt>
<totfact> 0.11474996E+03</totfact>
</mgrwt>
</event>
<event>
 4    1  0.5003329E-002  0.5034187E+03  0.7818608E-02  0.1012890E+00
         21   -1    0    0  503  502  0.00000000000E+00  0.00000000000E+00  0.31392485067E+03  0.31392485067E+03  0.00000000000E+00 0.  1.
         21   -1    0    0  501  503 -0.00000000000E+00 -0.00000000000E+00 -0.84058726273E+03  0.84058726273E+03  0.00000000000E+00 0. -1.
    9000007    1    1    2  501    0 -0.24046970319E+03  0.18869212437E+03 -0.37820996698E+03  0.62966115894E+03  0.40000000000E+03 0.  1.
   -9000007    1    1    2    0  502  0.24046970319E+03 -0.18869212437E+03 -0.14845244508E+03  0.52485095446E+03  0.40000000000E+03 0. -1.
<mgrwt>
<rscale>  2 0.50341871E+03</rscale>
<asrwt>0</asrwt>
<pdfrwt beam="1">  1       21 0.48296131E-01 0.50341871E+03</pdfrwt>
<pdfrwt beam="2">  1       21 0.12932112E+00 0.50341871E+03</pdfrwt>
<totfact> 0.15028413E+03</totfact>
</mgrwt>
</event>
<event>
 4    1  0.5003329E-002  0.4284931E+03  0.7818608E-02  0.1034337E+00
         21   -1    0    0  503  502  0.00000000000E+00  0.00000000000E+00  0.40774060669E+03  0.40774060669E+03  0.00000000000E+00 0. -1.
         21   -1    0    0  501  503 -0.00000000000E+00 -0.00000000000E+00 -0.76217758570E+03  0.76217758570E+03  0.00000000000E+00 0. -1.
    9000007    1    1    2  501    0  0.15149036199E+03 -0.25632726256E+02 -0.55140504318E+03  0.69832219503E+03  0.40000000000E+03 0. -1.
   -9000007    1    1    2    0  502 -0.15149036199E+03  0.25632726256E+02  0.19696806416E+03  0.47159599736E+03  0.40000000000E+03 0. -1.
<mgrwt>
<rscale>  2 0.42849313E+03</rscale>
<asrwt>0</asrwt>
<pdfrwt beam="1">  1       21 0.62729325E-01 0.42849313E+03</pdfrwt>
<pdfrwt beam="2">  1       21 0.11725809E+00 0.42849313E+03</pdfrwt>
<totfact> 0.11301997E+03</totfact>
</mgrwt>
</event>
<event>
 4    1  0.5003329E-002  0.6100761E+03  0.7818608E-02  0.9884719E-01
         21   -1    0    0  503  502  0.00000000000E+00  0.00000000000E+00  0.64125681945E+03  0.64125681945E+03  0.00000000000E+00 0.  1.
         21   -1    0    0  501  503 -0.00000000000E+00 -0.00000000000E+00 -0.60685674454E+03  0.60685674454E+03  0.00000000000E+00 0.  1.
    9000007    1    1    2  501    0  0.30643515065E+03 -0.34393366066E+03  0.14747303292E+03  0.62764732129E+03  0.40000000000E+03 0.  1.
   -9000007    1    1    2    0  502 -0.30643515065E+03  0.34393366066E+03 -0.11307295802E+03  0.62046624270E+03  0.40000000000E+03 0.  1.
<mgrwt>
<rscale>  2 0.61007611E+03</rscale>
<asrwt>0</asrwt>
<pdfrwt beam="1">  1       21 0.98654895E-01 0.61007611E+03</pdfrwt>
<pdfrwt beam="2">  1       21 0.93362576E-01 0.61007611E+03</pdfrwt>
<totfact> 0.65014096E+02</totfact>
</mgrwt>
</event>
<event>
 4    1  0.5003329E-002  0.4227435E+03  0.7818608E-02  0.1036177E+00
         21   -1    0    0  501  502  0.00000000000E+00  0.00000000000E+00  0.31093881967E+03  0.31093881967E+03  0.00000000000E+00 0. -1.
         21   -1    0    0  502  503 -0.00000000000E+00 -0.00000000000E+00 -0.76937732314E+03  0.76937732314E+03  0.00000000000E+00 0. -1.
    9000007    1    1    2  501    0 -0.50151334285E+02  0.12726723082E+03  0.42457840417E+02  0.42487030090E+03  0.40000000000E+03 0. -1.
   -9000007    1    1    2    0  503  0.50151334285E+02 -0.12726723082E+03 -0.50089634388E+03  0.65544584192E+03  0.40000000000E+03 0. -1.
<mgrwt>
<rscale>  2 0.42274354E+03</rscale>
<asrwt>0</asrwt>
<pdfrwt beam="1">  1       21 0.47836742E-01 0.42274354E+03</pdfrwt>
<pdfrwt beam="2">  1       21 0.11836574E+00 0.42274354E+03</pdfrwt>
<totfact> 0.19850231E+03</totfact>
</mgrwt>
</event>
<event>
 4    1  0.5003329E-002  0.4329473E+03  0.7818608E-02  0.1032933E+00
         21   -1    0    0  501  502  0.00000000000E+00  0.00000000000E+00  0.13937940138E+04  0.13937940138E+04  0.00000000000E+00 0. -1.
         21   -1    0    0  502  503 -0.00000000000E+00 -0.00000000000E+00 -0.14196864490E+03  0.14196864490E+03  0.00000000000E+00 0. -1.
    9000007    1    1    2  501    0  0.12970087797E+03 -0.10305855247E+03  0.80222205540E+03  0.91159399359E+03  0.40000000000E+03 0. -1.
   -9000007    1    1    2    0  503 -0.12970087797E+03  0.10305855247E+03  0.44960331351E+03  0.62416866511E+03  0.40000000000E+03 0. -1.
<mgrwt>
<rscale>  2 0.43294732E+03</rscale>
<asrwt>0</asrwt>
<pdfrwt beam="1">  1       21 0.21442984E+00 0.43294732E+03</pdfrwt>
<pdfrwt beam="2">  1       21 0.21841331E-01 0.43294732E+03</pdfrwt>
<totfact> 0.18038842E+03</totfact>
</mgrwt>
</event>
<event>
 4    1  0.5003329E-002  0.4140282E+03  0.7818608E-02  0.1039028E+00
         21   -1    0    0  503  502  0.00000000000E+00  0.00000000000E+00  0.93797791443E+03  0.93797791443E+03  0.00000000000E+00 0.  1.
         21   -1    0    0  501  503 -0.00000000000E+00 -0.00000000000E+00 -0.54064919364E+03  0.54064919364E+03  0.00000000000E+00 0.  1.
    9000007    1    1    2  501    0  0.81926072577E+02 -0.68610940303E+02 -0.40285379438E+03  0.57767683193E+03  0.40000000000E+03 0.  1.
   -9000007    1    1    2    0  502 -0.81926072577E+02  0.68610940303E+02  0.80018251517E+03  0.90095027615E+03  0.40000000000E+03 0.  1.
<mgrwt>
<rscale>  2 0.41402819E+03</rscale>
<asrwt>0</asrwt>
<pdfrwt beam="1">  1       21 0.14430429E+00 0.41402819E+03</pdfrwt>
<pdfrwt beam="2">  1       21 0.83176799E-01 0.41402819E+03</pdfrwt>
<totfact> 0.35072033E+02</totfact>
</mgrwt>
</event>
<event>
 4    1  0.5003329E-002  0.4517578E+03  0.7818608E-02  0.1027199E+00
         21   -1    0    0  501  502  0.00000000000E+00  0.00000000000E+00  0.52221454622E+03  0.52221454622E+03  0.00000000000E+00 0. -1.
         21   -1    0    0  502  503 -0.00000000000E+00 -0.00000000000E+00 -0.43410498111E+03  0.43410498111E+03  0.00000000000E+00 0.  1.
    9000007    1    1    2  501    0  0.15094988117E+03 -0.14594255219E+03  0.19506610643E+03  0.49207304442E+03  0.40000000000E+03 0. -1.
   -9000007    1    1    2    0  503 -0.15094988117E+03  0.14594255219E+03 -0.10695654131E+03  0.46424648291E+03  0.40000000000E+03 0.  1.
<mgrwt>
<rscale>  2 0.45175778E+03</rscale>
<asrwt>0</asrwt>
<pdfrwt beam="1">  1       21 0.80340700E-01 0.45175778E+03</pdfrwt>
<pdfrwt beam="2">  1       21 0.66785381E-01 0.45175778E+03</pdfrwt>
<totfact> 0.24245835E+03</totfact>
</mgrwt>
</event>
<event>
 4    1  0.5003329E-002  0.4040039E+03  0.7818608E-02  0.1042402E+00
         21   -1    0    0  503  502  0.00000000000E+00  0.00000000000E+00  0.27812823444E+03  0.27812823444E+03  0.00000000000E+00 0. -1.
         21   -1    0    0  501  503 -0.00000000000E+00 -0.00000000000E+00 -0.87224201984E+03  0.87224201984E+03  0.00000000000E+00 0. -1.
    9000007    1    1    2  501    0 -0.15381959921E+02 -0.54612336606E+02 -0.62606853661E+03  0.74510463999E+03  0.40000000000E+03 0. -1.
   -9000007    1    1    2    0  502  0.15381959921E+02  0.54612336606E+02  0.31954751209E+02  0.40526561429E+03  0.40000000000E+03 0. -1.
<mgrwt>
<rscale>  2 0.40400385E+03</rscale>
<asrwt>0</asrwt>
<pdfrwt beam="1">  1       21 0.42788959E-01 0.40400385E+03</pdfrwt>
<pdfrwt beam="2">  1       21 0.13419108E+00 0.40400385E+03</pdfrwt>
<totfact> 0.18302537E+03</totfact>
</mgrwt>
</event>
<event>
 4    1  0.5003329E-002  0.4150742E+03  0.7818608E-02  0.1038681E+00
         21   -1    0    0  501  502  0.00000000000E+00  0.00000000000E+00  0.62038983266E+03  0.62038983266E+03  0.00000000000E+00 0.  1.
         21   -1    0    0  502  503 -0.00000000000E+00 -0.00000000000E+00 -0.35305627344E+03  0.35305627344E+03  0.00000000000E+00 0.  1.
    9000007    1    1    2  501    0  0.10211545378E+02 -0.11037366353E+03  0.35852014000E+03  0.54847362019E+03  0.40000000000E+03 0.  1.
   -9000007    1    1    2    0  503 -0.10211545378E+02  0.11037366353E+03 -0.91186580783E+02  0.42497248590E+03  0.40000000000E+03 0.  1.
<mgrwt>
<rscale>  2 0.41507424E+03</rscale>
<asrwt>0</asrwt>
<pdfrwt beam="1">  1       21 0.95444590E-01 0.41507424E+03</pdfrwt>
<pdfrwt beam="2">  1       21 0.54316350E-01 0.41507424E+03</pdfrwt>
<totfact> 0.25781508E+03</totfact>
</mgrwt>
</event>
<event>
 4    1  0.5003329E-002  0.4134446E+03  0.7818608E-02  0.1039221E+00
         21   -1    0    0  503  502  0.00000000000E+00  0.00000000000E+00  0.76556913755E+02  0.76556913755E+02  0.00000000000E+00 0.  1.
         21   -1    0    0  501  503 -0.00000000000E+00 -0.00000000000E+00 -0.27969651469E+04  0.27969651469E+04  0.00000000000E+00 0.  1.
    9000007    1    1    2  501    0 -0.69424262592E+02 -0.78209217299E+02 -0.20054770833E+04  0.20476510302E+04  0.40000000000E+03 0.  1.
   -9000007    1    1    2    0  502  0.69424262592E+02  0.78209217299E+02 -0.71493114990E+03  0.82587103049E+03  0.40000000000E+03 0.  1.
<mgrwt>
<rscale>  2 0.41344457E+03</rscale>
<asrwt>0</asrwt>
<pdfrwt beam="1">  1       21 0.11777986E-01 0.41344457E+03</pdfrwt>
<pdfrwt beam="2">  1       21 0.43030236E+00 0.41344457E+03</pdfrwt>
<totfact> 0.26595207E+02</totfact>
</mgrwt>
</event>
<event>
 4    1  0.5003329E-002  0.4755227E+03  0.7818608E-02  0.1020373E+00
         21   -1    0    0  503  502  0.00000000000E+00  0.00000000000E+00  0.31057657161E+03  0.31057657161E+03  0.00000000000E+00 0.  1.
         21   -1    0    0  501  503 -0.00000000000E+00 -0.00000000000E+00 -0.10703978519E+04  0.10703978519E+04  0.00000000000E+00 0.  1.
    9000007    1    1    2  501    0  0.12721381109E+03  0.22346926257E+03 -0.77039474981E+03  0.90533415686E+03  0.40000000000E+03 0.  1.
   -9000007    1    1    2    0  502 -0.12721381109E+03 -0.22346926257E+03  0.10573469463E+02  0.47564026670E+03  0.40000000000E+03 0.  1.
<mgrwt>
<rscale>  2 0.47552273E+03</rscale>
<asrwt>0</asrwt>
<pdfrwt beam="1">  1       21 0.47781011E-01 0.47552273E+03</pdfrwt>
<pdfrwt beam="2">  1       21 0.16467659E+00 0.47552273E+03</pdfrwt>
<totfact> 0.80853447E+02</totfact>
</mgrwt>
</event>
<event>
 4    1  0.5003329E-002  0.4515679E+03  0.7818608E-02  0.1027256E+00
         21   -1    0    0  501  502  0.00000000000E+00  0.00000000000E+00  0.13069128699E+04  0.13069128699E+04  0.00000000000E+00 0.  1.
         21   -1    0    0  502  503 -0.00000000000E+00 -0.00000000000E+00 -0.21740683105E+03  0.21740683105E+03  0.00000000000E+00 0.  1.
    9000007    1    1    2  501    0 -0.15562130785E+03 -0.14034104153E+03  0.94972276157E+03  0.10516115838E+04  0.40000000000E+03 0.  1.
   -9000007    1    1    2    0  503  0.15562130785E+03  0.14034104153E+03  0.13978327727E+03  0.47270811713E+03  0.40000000000E+03 0.  1.
<mgrwt>
<rscale>  2 0.45156793E+03</rscale>
<asrwt>0</asrwt>
<pdfrwt beam="1">  1       21 0.20106351E+00 0.45156793E+03</pdfrwt>
<pdfrwt beam="2">  1       21 0.33447205E-01 0.45156793E+03</pdfrwt>
<totfact> 0.94763553E+02</totfact>
</mgrwt>
</event>
<event>
 4    1  0.5003329E-002  0.5177830E+03  0.7818608E-02  0.1009239E+00
         21   -1    0    0  503  502  0.00000000000E+00  0.00000000000E+00  0.46169523067E+03  0.46169523067E+03  0.00000000000E+00 0. -1.
         21   -1    0    0  501  503 -0.00000000000E+00 -0.00000000000E+00 -0.61888683454E+03  0.61888683454E+03  0.00000000000E+00 0.  1.
    9000007    1    1    2  501    0  0.15563275759E+03  0.28961644573E+03  0.55639695316E+02  0.52076387794E+03  0.40000000000E+03 0. -1.
   -9000007    1    1    2    0  502 -0.15563275759E+03 -0.28961644573E+03 -0.21283129919E+03  0.55981818726E+03  0.40000000000E+03 0.  1.
<mgrwt>
<rscale>  2 0.51778301E+03</rscale>
<asrwt>0</asrwt>
<pdfrwt beam="1">  1       21 0.71030036E-01 0.51778301E+03</pdfrwt>
<pdfrwt beam="2">  1       21 0.95213358E-01 0.51778301E+03</pdfrwt>
<totfact> 0.13816143E+03</totfact>
</mgrwt>
</event>
<event>
 4    1  0.5003329E-002  0.4714090E+03  0.7818608E-02  0.1021523E+00
         21   -1    0    0  503  502  0.00000000000E+00  0.00000000000E+00  0.73245193681E+03  0.73245193681E+03  0.00000000000E+00 0. -1.
         21   -1    0    0  501  503 -0.00000000000E+00 -0.00000000000E+00 -0.31991751492E+03  0.31991751492E+03  0.00000000000E+00 0. -1.
    9000007    1    1    2  501    0  0.19638966547E+03 -0.15380997519E+03  0.86708077230E+02  0.47931690960E+03  0.40000000000E+03 0. -1.
   -9000007    1    1    2    0  502 -0.19638966547E+03  0.15380997519E+03  0.32582634465E+03  0.57305254213E+03  0.40000000000E+03 0. -1.
<mgrwt>
<rscale>  2 0.47140896E+03</rscale>
<asrwt>0</asrwt>
<pdfrwt beam="1">  1       21 0.11268491E+00 0.47140896E+03</pdfrwt>
<pdfrwt beam="2">  1       21 0.49218079E-01 0.47140896E+03</pdfrwt>
<totfact> 0.20745526E+03</totfact>
</mgrwt>
</event>
<event>
 4    1  0.5003329E-002  0.4252772E+03  0.7818608E-02  0.1035362E+00
         21   -1    0    0  501  502  0.00000000000E+00  0.00000000000E+00  0.37613489998E+03  0.37613489998E+03  0.00000000000E+00 0. -1.
         21   -1    0    0  502  503 -0.00000000000E+00 -0.00000000000E+00 -0.72193908564E+03  0.72193908564E+03  0.00000000000E+00 0. -1.
    9000007    1    1    2  501    0 -0.90605451517E+02  0.11247834570E+03  0.14438255700E+03  0.44911807897E+03  0.40000000000E+03 0. -1.
   -9000007    1    1    2    0  503  0.90605451517E+02 -0.11247834570E+03 -0.49018674266E+03  0.64895590665E+03  0.40000000000E+03 0. -1.
<mgrwt>
<rscale>  2 0.42527723E+03</rscale>
<asrwt>0</asrwt>
<pdfrwt beam="1">  1       21 0.57866908E-01 0.42527723E+03</pdfrwt>
<pdfrwt beam="2">  1       21 0.11106755E+00 0.42527723E+03</pdfrwt>
<totfact> 0.15461728E+03</totfact>
</mgrwt>
</event>
<event>
 4    1  0.5003329E-002  0.5798159E+03  0.7818608E-02  0.9948190E-01
         21   -1    0    0  501  502  0.00000000000E+00  0.00000000000E+00  0.12092105921E+04  0.12092105921E+04  0.00000000000E+00 0. -1.
         21   -1    0    0  502  503 -0.00000000000E+00 -0.00000000000E+00 -0.83878698513E+03  0.83878698513E+03  0.00000000000E+00 0.  1.
    9000007    1    1    2  501    0  0.41717347552E+03 -0.46398247378E+02  0.10224793361E+04  0.11754363014E+04  0.40000000000E+03 0. -1.
   -9000007    1    1    2    0  503 -0.41717347552E+03  0.46398247378E+02 -0.65205572914E+03  0.87256127575E+03  0.40000000000E+03 0.  1.
<mgrwt>
<rscale>  2 0.57981592E+03</rscale>
<asrwt>0</asrwt>
<pdfrwt beam="1">  1       21 0.18603240E+00 0.57981592E+03</pdfrwt>
<pdfrwt beam="2">  1       21 0.12904415E+00 0.57981592E+03</pdfrwt>
<totfact> 0.53644410E+01</totfact>
</mgrwt>
</event>
<event>
 4    1  0.5003329E-002  0.5002048E+03  0.7818608E-02  0.1013725E+00
         21   -1    0    0  503  502  0.00000000000E+00  0.00000000000E+00  0.50174479423E+03  0.50174479423E+03  0.00000000000E+00 0.  1.
         21   -1    0    0  501  503 -0.00000000000E+00 -0.00000000000E+00 -0.57512276008E+03  0.57512276008E+03  0.00000000000E+00 0.  1.
    9000007    1    1    2  501    0 -0.13146094679E+03  0.27004241891E+03 -0.23300225761E+03  0.55181060210E+03  0.40000000000E+03 0.  1.
   -9000007    1    1    2    0  502  0.13146094679E+03 -0.27004241891E+03  0.15962429176E+03  0.52505695221E+03  0.40000000000E+03 0.  1.
<mgrwt>
<rscale>  2 0.50020485E+03</rscale>
<asrwt>0</asrwt>
<pdfrwt beam="1">  1       21 0.77191507E-01 0.50020485E+03</pdfrwt>
<pdfrwt beam="2">  1       21 0.88480424E-01 0.50020485E+03</pdfrwt>
<totfact> 0.13694616E+03</totfact>
</mgrwt>
</event>
<event>
 4    1  0.5003329E-002  0.8522088E+03  0.7818608E-02  0.9487377E-01
         21   -1    0    0  503  502  0.00000000000E+00  0.00000000000E+00  0.13847372011E+04  0.13847372011E+04  0.00000000000E+00 0.  1.
         21   -1    0    0  501  503 -0.00000000000E+00 -0.00000000000E+00 -0.73667918507E+03  0.73667918507E+03  0.00000000000E+00 0. -1.
    9000007    1    1    2  501    0  0.56740476368E+03 -0.49427889916E+03 -0.24526141677E+03  0.88679927749E+03  0.40000000000E+03 0. -1.
   -9000007    1    1    2    0  502 -0.56740476368E+03  0.49427889916E+03  0.89331943276E+03  0.12346171086E+04  0.40000000000E+03 0.  1.
<mgrwt>
<rscale>  2 0.85220877E+03</rscale>
<asrwt>0</asrwt>
<pdfrwt beam="1">  1       21 0.21303649E+00 0.85220877E+03</pdfrwt>
<pdfrwt beam="2">  1       21 0.11333526E+00 0.85220877E+03</pdfrwt>
<totfact> 0.44338732E+01</totfact>
</mgrwt>
</event>
<event>
 4    1  0.5003329E-002  0.4748863E+03  0.7818608E-02  0.1020550E+00
         21   -1    0    0  503  502  0.00000000000E+00  0.00000000000E+00  0.16181948264E+04  0.16181948264E+04  0.00000000000E+00 0. -1.
         21   -1    0    0  501  503 -0.00000000000E+00 -0.00000000000E+00 -0.30611459934E+03  0.30611459934E+03  0.00000000000E+00 0.  1.
    9000007    1    1    2  501    0 -0.25177560650E+03  0.46108641930E+02 -0.54089314027E+02  0.47795671015E+03  0.40000000000E+03 0.  1.
   -9000007    1    1    2    0  502  0.25177560650E+03 -0.46108641930E+02  0.13661695411E+04  0.14463527156E+04  0.40000000000E+03 0. -1.
<mgrwt>
<rscale>  2 0.47488626E+03</rscale>
<asrwt>0</asrwt>
<pdfrwt beam="1">  1       21 0.24895304E+00 0.47488626E+03</pdfrwt>
<pdfrwt beam="2">  1       21 0.47094555E-01 0.47488626E+03</pdfrwt>
<totfact> 0.22932044E+02</totfact>
</mgrwt>
</event>
<event>
 4    1  0.5003329E-002  0.4322696E+03  0.7818608E-02  0.1033145E+00
         21   -1    0    0  501  502  0.00000000000E+00  0.00000000000E+00  0.31107191683E+03  0.31107191683E+03  0.00000000000E+00 0.  1.
         21   -1    0    0  502  503 -0.00000000000E+00 -0.00000000000E+00 -0.79323956846E+03  0.79323956846E+03  0.00000000000E+00 0.  1.
    9000007    1    1    2  501    0 -0.73719826169E+02 -0.14636392028E+03  0.30956640345E+02  0.43337665317E+03  0.40000000000E+03 0.  1.
   -9000007    1    1    2    0  503  0.73719826169E+02  0.14636392028E+03 -0.51312429198E+03  0.67093483212E+03  0.40000000000E+03 0.  1.
<mgrwt>
<rscale>  2 0.43226960E+03</rscale>
<asrwt>0</asrwt>
<pdfrwt beam="1">  1       21 0.47857218E-01 0.43226960E+03</pdfrwt>
<pdfrwt beam="2">  1       21 0.12203686E+00 0.43226960E+03</pdfrwt>
<totfact> 0.18278696E+03</totfact>
</mgrwt>
</event>
<event>
 4    1  0.5003329E-002  0.4352613E+03  0.7818608E-02  0.1032211E+00
         21   -1    0    0  503  502  0.00000000000E+00  0.00000000000E+00  0.36898043522E+03  0.36898043522E+03  0.00000000000E+00 0.  1.
         21   -1    0    0  501  503 -0.00000000000E+00 -0.00000000000E+00 -0.89109084381E+03  0.89109084381E+03  0.00000000000E+00 0. -1.
    9000007    1    1    2  501    0  0.17063371751E+03 -0.18343984050E+02 -0.67120698281E+03  0.79998198797E+03  0.40000000000E+03 0. -1.
   -9000007    1    1    2    0  502 -0.17063371751E+03  0.18343984050E+02  0.14909657422E+03  0.46008929106E+03  0.40000000000E+03 0.  1.
<mgrwt>
<rscale>  2 0.43526126E+03</rscale>
<asrwt>0</asrwt>
<pdfrwt beam="1">  1       21 0.56766221E-01 0.43526126E+03</pdfrwt>
<pdfrwt beam="2">  1       21 0.13709090E+00 0.43526126E+03</pdfrwt>
<totfact> 0.93750949E+02</totfact>
</mgrwt>
</event>
<event>
 4    1  0.5003329E-002  0.4289305E+03  0.7818608E-02  0.1034198E+00
         21   -1    0    0  501  502  0.00000000000E+00  0.00000000000E+00  0.14805003171E+03  0.14805003171E+03  0.00000000000E+00 0.  1.
         21   -1    0    0  502  503 -0.00000000000E+00 -0.00000000000E+00 -0.12453197738E+04  0.12453197738E+04  0.00000000000E+00 0.  1.
    9000007    1    1    2  501    0  0.10712983805E+03  0.11182375202E+03 -0.51666335340E+03  0.67150753865E+03  0.40000000000E+03 0.  1.
   -9000007    1    1    2    0  503 -0.10712983805E+03 -0.11182375202E+03 -0.58060638865E+03  0.72186226682E+03  0.40000000000E+03 0.  1.
<mgrwt>
<rscale>  2 0.42893048E+03</rscale>
<asrwt>0</asrwt>
<pdfrwt beam="1">  1       21 0.22776929E-01 0.42893048E+03</pdfrwt>
<pdfrwt beam="2">  1       21 0.19158765E+00 0.42893048E+03</pdfrwt>
<totfact> 0.23610822E+03</totfact>
</mgrwt>
</event>
<event>
 4    1  0.5003329E-002  0.5255649E+03  0.7818608E-02  0.1007313E+00
         21   -1    0    0  503  502  0.00000000000E+00  0.00000000000E+00  0.27975563877E+03  0.27975563877E+03  0.00000000000E+00 0. -1.
         21   -1    0    0  501  503 -0.00000000000E+00 -0.00000000000E+00 -0.14000574222E+04  0.14000574222E+04  0.00000000000E+00 0. -1.
    9000007    1    1    2  501    0  0.28326534723E+03  0.18968184123E+03 -0.10413925663E+03  0.53578301821E+03  0.40000000000E+03 0. -1.
   -9000007    1    1    2    0  502 -0.28326534723E+03 -0.18968184123E+03 -0.10161625268E+04  0.11440300427E+04  0.40000000000E+03 0. -1.
<mgrwt>
<rscale>  2 0.52556489E+03</rscale>
<asrwt>0</asrwt>
<pdfrwt beam="1">  1       21 0.43039329E-01 0.52556489E+03</pdfrwt>
<pdfrwt beam="2">  1       21 0.21539345E+00 0.52556489E+03</pdfrwt>
<totfact> 0.44035611E+02</totfact>
</mgrwt>
</event>
<event>
 4    1  0.5003329E-002  0.4596072E+03  0.7818608E-02  0.1024895E+00
         21   -1    0    0  501  502  0.00000000000E+00  0.00000000000E+00  0.10884618424E+04  0.10884618424E+04  0.00000000000E+00 0.  1.
         21   -1    0    0  502  503 -0.00000000000E+00 -0.00000000000E+00 -0.37276038800E+03  0.37276038800E+03  0.00000000000E+00 0.  1.
    9000007    1    1    2  501    0 -0.22606549741E+03  0.11537968194E+02  0.86369977806E+03  0.97837418223E+03  0.40000000000E+03 0.  1.
   -9000007    1    1    2    0  503  0.22606549741E+03 -0.11537968194E+02 -0.14799832366E+03  0.48284804819E+03  0.40000000000E+03 0.  1.
<mgrwt>
<rscale>  2 0.45960715E+03</rscale>
<asrwt>0</asrwt>
<pdfrwt beam="1">  1       21 0.16745567E+00 0.45960715E+03</pdfrwt>
<pdfrwt beam="2">  1       21 0.57347753E-01 0.45960715E+03</pdfrwt>
<totfact> 0.52512572E+02</totfact>
</mgrwt>
</event>
<event>
 4    1  0.5003329E-002  0.4004361E+03  0.7818608E-02  0.1043629E+00
         21   -1    0    0  503  502  0.00000000000E+00  0.00000000000E+00  0.99436865209E+03  0.99436865209E+03  0.00000000000E+00 0. -1.
         21   -1    0    0  501  503 -0.00000000000E+00 -0.00000000000E+00 -0.26055707781E+03  0.26055707781E+03  0.00000000000E+00 0. -1.
    9000007    1    1    2  501    0 -0.13287548906E+02  0.13134672824E+02 -0.20450852837E+02  0.40095799776E+03  0.40000000000E+03 0.  1.
   -9000007    1    1    2    0  502  0.13287548906E+02 -0.13134672824E+02  0.75426242712E+03  0.85396773214E+03  0.40000000000E+03 0.  1.
<mgrwt>
<rscale>  2 0.40043611E+03</rscale>
<asrwt>0</asrwt>
<pdfrwt beam="1">  1       21 0.15297979E+00 0.40043611E+03</pdfrwt>
<pdfrwt beam="2">  1       21 0.40085705E-01 0.40043611E+03</pdfrwt>
<totfact> 0.14789685E+03</totfact>
</mgrwt>
</event>
<event>
 4    1  0.5003329E-002  0.5070263E+03  0.7818608E-02  0.1011961E+00
         21   -1    0    0  501  502  0.00000000000E+00  0.00000000000E+00  0.18021239909E+04  0.18021239909E+04  0.00000000000E+00 0. -1.
         21   -1    0    0  502  503 -0.00000000000E+00 -0.00000000000E+00 -0.15488101246E+03  0.15488101246E+03  0.00000000000E+00 0. -1.
    9000007    1    1    2  501    0  0.30293700931E+03  0.72834000032E+02  0.10985805820E+04  0.12099400474E+04  0.40000000000E+03 0. -1.
   -9000007    1    1    2    0  503 -0.30293700931E+03 -0.72834000032E+02  0.54866239647E+03  0.74706495599E+03  0.40000000000E+03 0. -1.
<mgrwt>
<rscale>  2 0.50702625E+03</rscale>
<asrwt>0</asrwt>
<pdfrwt beam="1">  1       21 0.27724983E+00 0.50702625E+03</pdfrwt>
<pdfrwt beam="2">  1       21 0.23827849E-01 0.50702625E+03</pdfrwt>
<totfact> 0.60009272E+02</totfact>
</mgrwt>
</event>
<event>
 4    1  0.5003329E-002  0.4498767E+03  0.7818608E-02  0.1027759E+00
         21   -1    0    0  503  502  0.00000000000E+00  0.00000000000E+00  0.16079672423E+03  0.16079672423E+03  0.00000000000E+00 0.  1.
         21   -1    0    0  501  503 -0.00000000000E+00 -0.00000000000E+00 -0.14018587261E+04  0.14018587261E+04  0.00000000000E+00 0.  1.
    9000007    1    1    2  501    0  0.20242855725E+03 -0.37573229278E+02 -0.87024588642E+03  0.97965145393E+03  0.40000000000E+03 0.  1.
   -9000007    1    1    2    0  502 -0.20242855725E+03  0.37573229278E+02 -0.37081611547E+03  0.58300399642E+03  0.40000000000E+03 0.  1.
<mgrwt>
<rscale>  2 0.44987673E+03</rscale>
<asrwt>0</asrwt>
<pdfrwt beam="1">  1       21 0.24737957E-01 0.44987673E+03</pdfrwt>
<pdfrwt beam="2">  1       21 0.21567058E+00 0.44987673E+03</pdfrwt>
<totfact> 0.13817107E+03</totfact>
</mgrwt>
</event>
<event>
 4    1  0.5003329E-002  0.4965314E+03  0.7818608E-02  0.1014688E+00
         21   -1    0    0  501  502  0.00000000000E+00  0.00000000000E+00  0.62530335966E+03  0.62530335966E+03  0.00000000000E+00 0.  1.
         21   -1    0    0  502  503 -0.00000000000E+00 -0.00000000000E+00 -0.40960356648E+03  0.40960356648E+03  0.00000000000E+00 0. -1.
    9000007    1    1    2  501    0  0.98739109170E+02 -0.27711734662E+03  0.20794110822E+03  0.53831490781E+03  0.40000000000E+03 0.  1.
   -9000007    1    1    2    0  503 -0.98739109170E+02  0.27711734662E+03  0.77586849630E+01  0.49659201833E+03  0.40000000000E+03 0. -1.
<mgrwt>
<rscale>  2 0.49653140E+03</rscale>
<asrwt>0</asrwt>
<pdfrwt beam="1">  1       21 0.96200517E-01 0.49653140E+03</pdfrwt>
<pdfrwt beam="2">  1       21 0.63015933E-01 0.49653140E+03</pdfrwt>
<totfact> 0.17749115E+03</totfact>
</mgrwt>
</event>
<event>
 4    1  0.5003329E-002  0.4186645E+03  0.7818608E-02  0.1037502E+00
         21   -1    0    0  503  502  0.00000000000E+00  0.00000000000E+00  0.76902379033E+03  0.76902379033E+03  0.00000000000E+00 0.  1.
         21   -1    0    0  501  503 -0.00000000000E+00 -0.00000000000E+00 -0.22796446118E+03  0.22796446118E+03  0.00000000000E+00 0.  1.
    9000007    1    1    2  501    0  0.10398062212E+03 -0.66843133043E+02  0.26399561392E+03  0.49494813706E+03  0.40000000000E+03 0.  1.
   -9000007    1    1    2    0  502 -0.10398062212E+03  0.66843133043E+02  0.27706371523E+03  0.50204011444E+03  0.40000000000E+03 0.  1.
<mgrwt>
<rscale>  2 0.41866451E+03</rscale>
<asrwt>0</asrwt>
<pdfrwt beam="1">  1       21 0.11831135E+00 0.41866451E+03</pdfrwt>
<pdfrwt beam="2">  1       21 0.35071456E-01 0.41866451E+03</pdfrwt>
<totfact> 0.37780968E+03</totfact>
</mgrwt>
</event>
<event>
 4    1  0.5003329E-002  0.4375078E+03  0.7818608E-02  0.1031514E+00
         21   -1    0    0  501  502  0.00000000000E+00  0.00000000000E+00  0.17090641379E+03  0.17090641379E+03  0.00000000000E+00 0.  1.
         21   -1    0    0  502  503 -0.00000000000E+00 -0.00000000000E+00 -0.13660850156E+04  0.13660850156E+04  0.00000000000E+00 0.  1.
    9000007    1    1    2  501    0 -0.15220175574E+03  0.90816922158E+02 -0.27141030536E+03  0.51485594262E+03  0.40000000000E+03 0.  1.
   -9000007    1    1    2    0  503  0.15220175574E+03 -0.90816922158E+02 -0.92376829649E+03  0.10221354868E+04  0.40000000000E+03 0.  1.
<mgrwt>
<rscale>  2 0.43750781E+03</rscale>
<asrwt>0</asrwt>
<pdfrwt beam="1">  1       21 0.26293295E-01 0.43750781E+03</pdfrwt>
<pdfrwt beam="2">  1       21 0.21016692E+00 0.43750781E+03</pdfrwt>
<totfact> 0.13395240E+03</totfact>
</mgrwt>
</event>
<event>
 4    1  0.5003329E-002  0.5739476E+03  0.7818608E-02  0.9960981E-01
         21   -1    0    0  503  502  0.00000000000E+00  0.00000000000E+00  0.52239942766E+03  0.52239942766E+03  0.00000000000E+00 0.  1.
         21   -1    0    0  501  503 -0.00000000000E+00 -0.00000000000E+00 -0.65314955102E+03  0.65314955102E+03  0.00000000000E+00 0. -1.
    9000007    1    1    2  501    0  0.50921720307E+02 -0.40843943978E+03 -0.17463083414E+03  0.59992643366E+03  0.40000000000E+03 0.  1.
   -9000007    1    1    2    0  502 -0.50921720307E+02  0.40843943978E+03  0.43880710784E+02  0.57562254503E+03  0.40000000000E+03 0.  1.
<mgrwt>
<rscale>  2 0.57394756E+03</rscale>
<asrwt>0</asrwt>
<pdfrwt beam="1">  1       21 0.80369143E-01 0.57394756E+03</pdfrwt>
<pdfrwt beam="2">  1       21 0.10048455E+00 0.57394756E+03</pdfrwt>
<totfact> 0.89627131E+02</totfact>
</mgrwt>
</event>
<event>
 4    1  0.5003329E-002  0.4229501E+03  0.7818608E-02  0.1036110E+00
         21   -1    0    0  501  502  0.00000000000E+00  0.00000000000E+00  0.50195142441E+03  0.50195142441E+03  0.00000000000E+00 0. -1.
         21   -1    0    0  502  503 -0.00000000000E+00 -0.00000000000E+00 -0.66697627197E+03  0.66697627197E+03  0.00000000000E+00 0. -1.
    9000007    1    1    2  501    0 -0.40118888615E+02  0.13144310339E+03  0.31632754898E+03  0.52815711005E+03  0.40000000000E+03 0. -1.
   -9000007    1    1    2    0  503  0.40118888615E+02 -0.13144310339E+03 -0.48135239654E+03  0.64077058633E+03  0.40000000000E+03 0. -1.
<mgrwt>
<rscale>  2 0.42295013E+03</rscale>
<asrwt>0</asrwt>
<pdfrwt beam="1">  1       21 0.77223296E-01 0.42295013E+03</pdfrwt>
<pdfrwt beam="2">  1       21 0.10261173E+00 0.42295013E+03</pdfrwt>
<totfact> 0.98814538E+02</totfact>
</mgrwt>
</event>
<event>
 4    1  0.5003329E-002  0.4115656E+03  0.7818608E-02  0.1039847E+00
         21   -1    0    0  501  502  0.00000000000E+00  0.00000000000E+00  0.19389745551E+04  0.19389745551E+04  0.00000000000E+00 0. -1.
         21   -1    0    0  502  503 -0.00000000000E+00 -0.00000000000E+00 -0.12695964730E+03  0.12695964730E+03  0.00000000000E+00 0. -1.
    9000007    1    1    2  501    0  0.94598759005E+02 -0.20911978449E+02  0.14829154981E+04  0.15389686840E+04  0.40000000000E+03 0. -1.
   -9000007    1    1    2    0  503 -0.94598759005E+02  0.20911978449E+02  0.32909940970E+03  0.52696551833E+03  0.40000000000E+03 0. -1.
<mgrwt>
<rscale>  2 0.41156559E+03</rscale>
<asrwt>0</asrwt>
<pdfrwt beam="1">  1       21 0.29830376E+00 0.41156559E+03</pdfrwt>
<pdfrwt beam="2">  1       21 0.19532255E-01 0.41156559E+03</pdfrwt>
<totfact> 0.69070236E+02</totfact>
</mgrwt>
</event>
<event>
 4    1  0.5003329E-002  0.5788567E+03  0.7818608E-02  0.9950269E-01
         21   -1    0    0  503  502  0.00000000000E+00  0.00000000000E+00  0.50455256750E+03  0.50455256750E+03  0.00000000000E+00 0.  1.
         21   -1    0    0  501  503 -0.00000000000E+00 -0.00000000000E+00 -0.66710400663E+03  0.66710400663E+03  0.00000000000E+00 0. -1.
    9000007    1    1    2  501    0  0.51638769684E+02  0.41522111322E+03 -0.41986851963E+02  0.58037749021E+03  0.40000000000E+03 0.  1.
   -9000007    1    1    2    0  502 -0.51638769684E+02 -0.41522111322E+03 -0.12056458716E+03  0.59127908392E+03  0.40000000000E+03 0. -1.
<mgrwt>
<rscale>  2 0.57885675E+03</rscale>
<asrwt>0</asrwt>
<pdfrwt beam="1">  1       21 0.77623472E-01 0.57885675E+03</pdfrwt>
<pdfrwt beam="2">  1       21 0.10263139E+00 0.57885675E+03</pdfrwt>
<totfact> 0.92076405E+02</totfact>
</mgrwt>
</event>
<event>
 4    1  0.5003329E-002  0.4527284E+03  0.7818608E-02  0.1026912E+00
         21   -1    0    0  501  502  0.00000000000E+00  0.00000000000E+00  0.22422613317E+04  0.22422613317E+04  0.00000000000E+00 0.  1.
         21   -1    0    0  502  503 -0.00000000000E+00 -0.00000000000E+00 -0.12774042222E+03  0.12774042222E+03  0.00000000000E+00 0.  1.
    9000007    1    1    2  501    0  0.50622439992E+02  0.20591355605E+03  0.16892287290E+04  0.17488443964E+04  0.40000000000E+03 0.  1.
   -9000007    1    1    2    0  503 -0.50622439992E+02 -0.20591355605E+03  0.42529218048E+03  0.62115735750E+03  0.40000000000E+03 0.  1.
<mgrwt>
<rscale>  2 0.45272842E+03</rscale>
<asrwt>0</asrwt>
<pdfrwt beam="1">  1       21 0.34496325E+00 0.45272842E+03</pdfrwt>
<pdfrwt beam="2">  1       21 0.19652374E-01 0.45272842E+03</pdfrwt>
<totfact> 0.34810465E+02</totfact>
</mgrwt>
</event>
<event>
 4    1  0.5003329E-002  0.5068193E+03  0.7818608E-02  0.1012014E+00
         21   -1    0    0  503  502  0.00000000000E+00  0.00000000000E+00  0.21687169733E+03  0.21687169733E+03  0.00000000000E+00 0.  1.
         21   -1    0    0  501  503 -0.00000000000E+00 -0.00000000000E+00 -0.11919425506E+04  0.11919425506E+04  0.00000000000E+00 0. -1.
    9000007    1    1    2  501    0  0.30866996668E+03  0.39858259913E+02 -0.54351863585E+03  0.74315431556E+03  0.40000000000E+03 0. -1.
   -9000007    1    1    2    0  502 -0.30866996668E+03 -0.39858259913E+02 -0.43155221745E+03  0.66565993240E+03  0.40000000000E+03 0.  1.
<mgrwt>
<rscale>  2 0.50681933E+03</rscale>
<asrwt>0</asrwt>
<pdfrwt beam="1">  1       21 0.33364876E-01 0.50681933E+03</pdfrwt>
<pdfrwt beam="2">  1       21 0.18337578E+00 0.50681933E+03</pdfrwt>
<totfact> 0.12283428E+03</totfact>
</mgrwt>
</event>
<event>
 4    1  0.5003329E-002  0.5001362E+03  0.7818608E-02  0.1013743E+00
         21   -1    0    0  503  502  0.00000000000E+00  0.00000000000E+00  0.20278271485E+04  0.20278271485E+04  0.00000000000E+00 0.  1.
         21   -1    0    0  501  503 -0.00000000000E+00 -0.00000000000E+00 -0.21375015186E+03  0.21375015186E+03  0.00000000000E+00 0.  1.
    9000007    1    1    2  501    0  0.15233908700E+03 -0.25870647814E+03  0.17816756077E+03  0.53092364702E+03  0.40000000000E+03 0.  1.
   -9000007    1    1    2    0  502 -0.15233908700E+03  0.25870647814E+03  0.16359094359E+04  0.17106536533E+04  0.40000000000E+03 0.  1.
<mgrwt>
<rscale>  2 0.50013622E+03</rscale>
<asrwt>0</asrwt>
<pdfrwt beam="1">  1       21 0.31197339E+00 0.50013622E+03</pdfrwt>
<pdfrwt beam="2">  1       21 0.32884640E-01 0.50013622E+03</pdfrwt>
<totfact> 0.19644097E+02</totfact>
</mgrwt>
</event>
<event>
 4    1  0.5003329E-002  0.5377166E+03  0.7818608E-02  0.1004378E+00
         21   -1    0    0  501  502  0.00000000000E+00  0.00000000000E+00  0.69881701295E+03  0.69881701295E+03  0.00000000000E+00 0. -1.
         21   -1    0    0  502  503 -0.00000000000E+00 -0.00000000000E+00 -0.11720154867E+04  0.11720154867E+04  0.00000000000E+00 0. -1.
    9000007    1    1    2  501    0  0.25585654363E+03 -0.25234214045E+03  0.51579837637E+03  0.74510877852E+03  0.40000000000E+03 0. -1.
   -9000007    1    1    2    0  503 -0.25585654363E+03  0.25234214045E+03 -0.98899685017E+03  0.11257237212E+04  0.40000000000E+03 0. -1.
<mgrwt>
<rscale>  2 0.53771659E+03</rscale>
<asrwt>0</asrwt>
<pdfrwt beam="1">  1       21 0.10751031E+00 0.53771659E+03</pdfrwt>
<pdfrwt beam="2">  1       21 0.18031007E+00 0.53771659E+03</pdfrwt>
<totfact> 0.95474900E+01</totfact>
</mgrwt>
</event>
<event>
 4    1  0.5003329E-002  0.5115203E+03  0.7818608E-02  0.1010815E+00
         21   -1    0    0  503  502  0.00000000000E+00  0.00000000000E+00  0.63248813552E+03  0.63248813552E+03  0.00000000000E+00 0. -1.
         21   -1    0    0  501  503 -0.00000000000E+00 -0.00000000000E+00 -0.93159074557E+03  0.93159074557E+03  0.00000000000E+00 0. -1.
    9000007    1    1    2  501    0 -0.12620776166E+03 -0.29278771923E+03 -0.73264720021E+03  0.89354628734E+03  0.40000000000E+03 0. -1.
   -9000007    1    1    2    0  502  0.12620776166E+03  0.29278771923E+03  0.43354459017E+03  0.67053259376E+03  0.40000000000E+03 0. -1.
<mgrwt>
<rscale>  2 0.51152033E+03</rscale>
<asrwt>0</asrwt>
<pdfrwt beam="1">  1       21 0.97305867E-01 0.51152033E+03</pdfrwt>
<pdfrwt beam="2">  1       21 0.14332165E+00 0.51152033E+03</pdfrwt>
<totfact> 0.23507026E+02</totfact>
</mgrwt>
</event>
<event>
 4    1  0.5003329E-002  0.5173596E+03  0.7818608E-02  0.1009345E+00
         21   -1    0    0  503  502  0.00000000000E+00  0.00000000000E+00  0.95993298232E+03  0.95993298232E+03  0.00000000000E+00 0. -1.
         21   -1    0    0  501  503 -0.00000000000E+00 -0.00000000000E+00 -0.43611129454E+03  0.43611129454E+03  0.00000000000E+00 0. -1.
    9000007    1    1    2  501    0 -0.15747801082E+03 -0.28785702753E+03 -0.15727337749E+03  0.54073644917E+03  0.40000000000E+03 0. -1.
   -9000007    1    1    2    0  502  0.15747801082E+03  0.28785702753E+03  0.68109506526E+03  0.85530782769E+03  0.40000000000E+03 0. -1.
<mgrwt>
<rscale>  2 0.51735964E+03</rscale>
<asrwt>0</asrwt>
<pdfrwt beam="1">  1       21 0.14768200E+00 0.51735964E+03</pdfrwt>
<pdfrwt beam="2">  1       21 0.67094046E-01 0.51735964E+03</pdfrwt>
<totfact> 0.51329469E+02</totfact>
</mgrwt>
</event>
<event>
 4    1  0.5003329E-002  0.4168479E+03  0.7818608E-02  0.1038097E+00
         21   -1    0    0  503  502  0.00000000000E+00  0.00000000000E+00  0.30938784914E+03  0.30938784914E+03  0.00000000000E+00 0. -1.
         21   -1    0    0  501  503 -0.00000000000E+00 -0.00000000000E+00 -0.10529172264E+04  0.10529172264E+04  0.00000000000E+00 0. -1.
    9000007    1    1    2  501    0 -0.11512832625E+03 -0.22530288794E+02 -0.83704435605E+03  0.93509646530E+03  0.40000000000E+03 0. -1.
   -9000007    1    1    2    0  502  0.11512832625E+03  0.22530288794E+02  0.93514978773E+02  0.42720861025E+03  0.40000000000E+03 0. -1.
<mgrwt>
<rscale>  2 0.41684787E+03</rscale>
<asrwt>0</asrwt>
<pdfrwt beam="1">  1       21 0.47598132E-01 0.41684787E+03</pdfrwt>
<pdfrwt beam="2">  1       21 0.16198726E+00 0.41684787E+03</pdfrwt>
<totfact> 0.87643655E+02</totfact>
</mgrwt>
</event>
<event>
 4    1  0.5003329E-002  0.4045613E+03  0.7818608E-02  0.1042212E+00
         21   -1    0    0  501  502  0.00000000000E+00  0.00000000000E+00  0.43950631469E+03  0.43950631469E+03  0.00000000000E+00 0. -1.
         21   -1    0    0  502  503 -0.00000000000E+00 -0.00000000000E+00 -0.92114808562E+03  0.92114808562E+03  0.00000000000E+00 0. -1.
    9000007    1    1    2  501    0 -0.60112767882E+02  0.75026143230E+01  0.28427873401E+03  0.49445346868E+03  0.40000000000E+03 0. -1.
   -9000007    1    1    2    0  503  0.60112767882E+02 -0.75026143230E+01 -0.76592050493E+03  0.86620093163E+03  0.40000000000E+03 0. -1.
<mgrwt>
<rscale>  2 0.40456129E+03</rscale>
<asrwt>0</asrwt>
<pdfrwt beam="1">  1       21 0.67616357E-01 0.40456129E+03</pdfrwt>
<pdfrwt beam="2">  1       21 0.14171509E+00 0.40456129E+03</pdfrwt>
<totfact> 0.59275895E+02</totfact>
</mgrwt>
</event>
<event>
 4    1  0.5003329E-002  0.4472782E+03  0.7818608E-02  0.1028537E+00
         21   -1    0    0  503  502  0.00000000000E+00  0.00000000000E+00  0.11813794055E+04  0.11813794055E+04  0.00000000000E+00 0. -1.
         21   -1    0    0  501  503 -0.00000000000E+00 -0.00000000000E+00 -0.35589267960E+03  0.35589267960E+03  0.00000000000E+00 0. -1.
    9000007    1    1    2  501    0 -0.55408177103E+02 -0.19232198760E+03 -0.14374871162E+03  0.46981007343E+03  0.40000000000E+03 0. -1.
   -9000007    1    1    2    0  502  0.55408177103E+02  0.19232198760E+03  0.96923543753E+03  0.10674620117E+04  0.40000000000E+03 0. -1.
<mgrwt>
<rscale>  2 0.44727823E+03</rscale>
<asrwt>0</asrwt>
<pdfrwt beam="1">  1       21 0.18175068E+00 0.44727823E+03</pdfrwt>
<pdfrwt beam="2">  1       21 0.54752720E-01 0.44727823E+03</pdfrwt>
<totfact> 0.46110380E+02</totfact>
</mgrwt>
</event>
<event>
 4    1  0.5003329E-002  0.4850283E+03  0.7818608E-02  0.1017762E+00
         21   -1    0    0  503  502  0.00000000000E+00  0.00000000000E+00  0.36558376312E+03  0.36558376312E+03  0.00000000000E+00 0. -1.
         21   -1    0    0  501  503 -0.00000000000E+00 -0.00000000000E+00 -0.96323204724E+03  0.96323204724E+03  0.00000000000E+00 0. -1.
    9000007    1    1    2  501    0  0.13937958592E+03 -0.23627471959E+03 -0.68161696577E+03  0.83657283013E+03  0.40000000000E+03 0. -1.
   -9000007    1    1    2    0  502 -0.13937958592E+03  0.23627471959E+03  0.83968681650E+02  0.49224298023E+03  0.40000000000E+03 0. -1.
<mgrwt>
<rscale>  2 0.48502826E+03</rscale>
<asrwt>0</asrwt>
<pdfrwt beam="1">  1       21 0.56243656E-01 0.48502826E+03</pdfrwt>
<pdfrwt beam="2">  1       21 0.14818955E+00 0.48502826E+03</pdfrwt>
<totfact> 0.76023305E+02</totfact>
</mgrwt>
</event>
<event>
 4    1  0.5003329E-002  0.5045815E+03  0.7818608E-02  0.1012590E+00
         21   -1    0    0  503  502  0.00000000000E+00  0.00000000000E+00  0.14077354977E+04  0.14077354977E+04  0.00000000000E+00 0. -1.
         21   -1    0    0  501  503 -0.00000000000E+00 -0.00000000000E+00 -0.23097621505E+03  0.23097621505E+03  0.00000000000E+00 0. -1.
    9000007    1    1    2  501    0 -0.30397856329E+03  0.46898674996E+02  0.20671680067E+03  0.54528367694E+03  0.40000000000E+03 0. -1.
   -9000007    1    1    2    0  502  0.30397856329E+03 -0.46898674996E+02  0.97004248201E+03  0.10934280358E+04  0.40000000000E+03 0. -1.
<mgrwt>
<rscale>  2 0.50458146E+03</rscale>
<asrwt>0</asrwt>
<pdfrwt beam="1">  1       21 0.21657469E+00 0.50458146E+03</pdfrwt>
<pdfrwt beam="2">  1       21 0.35534803E-01 0.50458146E+03</pdfrwt>
<totfact> 0.64777963E+02</totfact>
</mgrwt>
</event>
<event>
 4    1  0.5003329E-002  0.4217413E+03  0.7818608E-02  0.1036501E+00
         21   -1    0    0  503  502  0.00000000000E+00  0.00000000000E+00  0.62965313555E+03  0.62965313555E+03  0.00000000000E+00 0. -1.
         21   -1    0    0  501  503 -0.00000000000E+00 -0.00000000000E+00 -0.38141390521E+03  0.38141390521E+03  0.00000000000E+00 0. -1.
    9000007    1    1    2  501    0 -0.71132069835E+02  0.11316338251E+03 -0.13334628915E+03  0.44231996940E+03  0.40000000000E+03 0. -1.
   -9000007    1    1    2    0  502  0.71132069835E+02 -0.11316338251E+03  0.38158551949E+03  0.56874707136E+03  0.40000000000E+03 0. -1.
<mgrwt>
<rscale>  2 0.42174130E+03</rscale>
<asrwt>0</asrwt>
<pdfrwt beam="1">  1       21 0.96869713E-01 0.42174130E+03</pdfrwt>
<pdfrwt beam="2">  1       21 0.58679062E-01 0.42174130E+03</pdfrwt>
<totfact> 0.20993271E+03</totfact>
</mgrwt>
</event>
<event>
 4    1  0.5003329E-002  0.4939558E+03  0.7818608E-02  0.1015369E+00
         21   -1    0    0  503  502  0.00000000000E+00  0.00000000000E+00  0.81184103113E+03  0.81184103113E+03  0.00000000000E+00 0. -1.
         21   -1    0    0  501  503 -0.00000000000E+00 -0.00000000000E+00 -0.30915523222E+03  0.30915523222E+03  0.00000000000E+00 0.  1.
    9000007    1    1    2  501    0 -0.22320165556E+03  0.18486035758E+03  0.34489829359E+03  0.60245096379E+03  0.40000000000E+03 0. -1.
   -9000007    1    1    2    0  502  0.22320165556E+03 -0.18486035758E+03  0.15778750532E+03  0.51854529955E+03  0.40000000000E+03 0.  1.
<mgrwt>
<rscale>  2 0.49395580E+03</rscale>
<asrwt>0</asrwt>
<pdfrwt beam="1">  1       21 0.12489862E+00 0.49395580E+03</pdfrwt>
<pdfrwt beam="2">  1       21 0.47562344E-01 0.49395580E+03</pdfrwt>
<totfact> 0.17043997E+03</totfact>
</mgrwt>
</event>
<event>
 4    1  0.5003329E-002  0.6040469E+03  0.7818608E-02  0.9897045E-01
         21   -1    0    0  503  502  0.00000000000E+00  0.00000000000E+00  0.20699889444E+04  0.20699889444E+04  0.00000000000E+00 0. -1.
         21   -1    0    0  501  503 -0.00000000000E+00 -0.00000000000E+00 -0.19509097504E+03  0.19509097504E+03  0.00000000000E+00 0. -1.
    9000007    1    1    2  501    0  0.40762589144E+03  0.19675830084E+03  0.12892359296E+04  0.14237281968E+04  0.40000000000E+03 0. -1.
   -9000007    1    1    2    0  502 -0.40762589144E+03 -0.19675830084E+03  0.58566203980E+03  0.84135172263E+03  0.40000000000E+03 0. -1.
<mgrwt>
<rscale>  2 0.60404693E+03</rscale>
<asrwt>0</asrwt>
<pdfrwt beam="1">  1       21 0.31845982E+00 0.60404693E+03</pdfrwt>
<pdfrwt beam="2">  1       21 0.30013998E-01 0.60404693E+03</pdfrwt>
<totfact> 0.20460897E+02</totfact>
</mgrwt>
</event>
<event>
 4    1  0.5003329E-002  0.5119759E+03  0.7818608E-02  0.1010699E+00
         21   -1    0    0  501  502  0.00000000000E+00  0.00000000000E+00  0.47577782068E+03  0.47577782068E+03  0.00000000000E+00 0. -1.
         21   -1    0    0  502  503 -0.00000000000E+00 -0.00000000000E+00 -0.59095003769E+03  0.59095003769E+03  0.00000000000E+00 0. -1.
    9000007    1    1    2  501    0 -0.24707468355E+03 -0.20266566657E+03  0.81216761207E+02  0.51837769431E+03  0.40000000000E+03 0. -1.
   -9000007    1    1    2    0  503  0.24707468355E+03  0.20266566657E+03 -0.19638897822E+03  0.54835016406E+03  0.40000000000E+03 0. -1.
<mgrwt>
<rscale>  2 0.51197585E+03</rscale>
<asrwt>0</asrwt>
<pdfrwt beam="1">  1       21 0.73196588E-01 0.51197585E+03</pdfrwt>
<pdfrwt beam="2">  1       21 0.90915391E-01 0.51197585E+03</pdfrwt>
<totfact> 0.14441919E+03</totfact>
</mgrwt>
</event>
<event>
 4    1  0.5003329E-002  0.4399008E+03  0.7818608E-02  0.1030777E+00
         21   -1    0    0  501  502  0.00000000000E+00  0.00000000000E+00  0.29398358699E+03  0.29398358699E+03  0.00000000000E+00 0. -1.
         21   -1    0    0  502  503 -0.00000000000E+00 -0.00000000000E+00 -0.84745199647E+03  0.84745199647E+03  0.00000000000E+00 0.  1.
    9000007    1    1    2  501    0  0.14450825631E+03  0.11238347896E+03 -0.70629993016E+01  0.43995746209E+03  0.40000000000E+03 0. -1.
   -9000007    1    1    2    0  503 -0.14450825631E+03 -0.11238347896E+03 -0.54640541018E+03  0.70147812137E+03  0.40000000000E+03 0. -1.
<mgrwt>
<rscale>  2 0.43990076E+03</rscale>
<asrwt>0</asrwt>
<pdfrwt beam="1">  1       21 0.45228245E-01 0.43990076E+03</pdfrwt>
<pdfrwt beam="2">  1       21 0.13037723E+00 0.43990076E+03</pdfrwt>
<totfact> 0.17310294E+03</totfact>
</mgrwt>
</event>
<event>
 4    1  0.5003329E-002  0.4052294E+03  0.7818608E-02  0.1041984E+00
         21   -1    0    0  503  502  0.00000000000E+00  0.00000000000E+00  0.71484786629E+03  0.71484786629E+03  0.00000000000E+00 0.  1.
         21   -1    0    0  501  503 -0.00000000000E+00 -0.00000000000E+00 -0.37852206078E+03  0.37852206078E+03  0.00000000000E+00 0.  1.
    9000007    1    1    2  501    0 -0.64875904280E+02 -0.14151899631E+01 -0.17460811993E+03  0.44124696176E+03  0.40000000000E+03 0.  1.
   -9000007    1    1    2    0  502  0.64875904280E+02  0.14151899631E+01  0.51093392544E+03  0.65212296531E+03  0.40000000000E+03 0.  1.
<mgrwt>
<rscale>  2 0.40522942E+03</rscale>
<asrwt>0</asrwt>
<pdfrwt beam="1">  1       21 0.10997659E+00 0.40522942E+03</pdfrwt>
<pdfrwt beam="2">  1       21 0.58234163E-01 0.40522942E+03</pdfrwt>
<totfact> 0.15762057E+03</totfact>
</mgrwt>
</event>
<event>
 4    1  0.5003329E-002  0.4063465E+03  0.7818608E-02  0.1041604E+00
         21   -1    0    0  501  502  0.00000000000E+00  0.00000000000E+00  0.25484611911E+03  0.25484611911E+03  0.00000000000E+00 0. -1.
         21   -1    0    0  502  503 -0.00000000000E+00 -0.00000000000E+00 -0.14977066619E+04  0.14977066619E+04  0.00000000000E+00 0. -1.
    9000007    1    1    2  501    0 -0.36837656718E+02 -0.61322583843E+02  0.38632314888E+02  0.40817879415E+03  0.40000000000E+03 0. -1.
   -9000007    1    1    2    0  503  0.36837656718E+02  0.61322583843E+02 -0.12814928577E+04  0.13443739869E+04  0.40000000000E+03 0. -1.
<mgrwt>
<rscale>  2 0.40634649E+03</rscale>
<asrwt>0</asrwt>
<pdfrwt beam="1">  1       21 0.39207095E-01 0.40634649E+03</pdfrwt>
<pdfrwt beam="2">  1       21 0.23041641E+00 0.40634649E+03</pdfrwt>
<totfact> 0.45459299E+02</totfact>
</mgrwt>
</event>
<event>
 4    1  0.5003329E-002  0.4344751E+03  0.7818608E-02  0.1032456E+00
         21   -1    0    0  503  502  0.00000000000E+00  0.00000000000E+00  0.26886416798E+03  0.26886416798E+03  0.00000000000E+00 0. -1.
         21   -1    0    0  501  503 -0.00000000000E+00 -0.00000000000E+00 -0.20780935985E+04  0.20780935985E+04  0.00000000000E+00 0. -1.
    9000007    1    1    2  501    0  0.14372136701E+03 -0.90070842450E+02 -0.18595006308E+04  0.19095840343E+04  0.40000000000E+03 0. -1.
   -9000007    1    1    2    0  502 -0.14372136701E+03  0.90070842450E+02  0.50271200336E+02  0.43737373215E+03  0.40000000000E+03 0. -1.
<mgrwt>
<rscale>  2 0.43447507E+03</rscale>
<asrwt>0</asrwt>
<pdfrwt beam="1">  1       21 0.41363717E-01 0.43447507E+03</pdfrwt>
<pdfrwt beam="2">  1       21 0.31970671E+00 0.43447507E+03</pdfrwt>
<totfact> 0.11506539E+02</totfact>
</mgrwt>
</event>
<event>
 4    1  0.5003329E-002  0.4136718E+03  0.7818608E-02  0.1039146E+00
         21   -1    0    0  503  502  0.00000000000E+00  0.00000000000E+00  0.40552918763E+03  0.40552918763E+03  0.00000000000E+00 0.  1.
         21   -1    0    0  501  503 -0.00000000000E+00 -0.00000000000E+00 -0.54565574556E+03  0.54565574556E+03  0.00000000000E+00 0.  1.
    9000007    1    1    2  501    0 -0.82201062451E+02 -0.66086131538E+02 -0.29648672629E+03  0.50894869124E+03  0.40000000000E+03 0.  1.
   -9000007    1    1    2    0  502  0.82201062451E+02  0.66086131538E+02  0.15636016836E+03  0.44223624196E+03  0.40000000000E+03 0.  1.
<mgrwt>
<rscale>  2 0.41367184E+03</rscale>
<asrwt>0</asrwt>
<pdfrwt beam="1">  1       21 0.62389106E-01 0.41367184E+03</pdfrwt>
<pdfrwt beam="2">  1       21 0.83947037E-01 0.41367184E+03</pdfrwt>
<totfact> 0.25835001E+03</totfact>
</mgrwt>
</event>
<event>
 4    1  0.5003329E-002  0.4869361E+03  0.7818608E-02  0.1017246E+00
         21   -1    0    0  503  502  0.00000000000E+00  0.00000000000E+00  0.29528760070E+03  0.29528760070E+03  0.00000000000E+00 0. -1.
         21   -1    0    0  501  503 -0.00000000000E+00 -0.00000000000E+00 -0.93166233242E+03  0.93166233242E+03  0.00000000000E+00 0. -1.
    9000007    1    1    2  501    0  0.22245144845E+03  0.16619914797E+03 -0.54619296861E+03  0.73173325923E+03  0.40000000000E+03 0. -1.
   -9000007    1    1    2    0  502 -0.22245144845E+03 -0.16619914797E+03 -0.90181763108E+02  0.49521667389E+03  0.40000000000E+03 0. -1.
<mgrwt>
<rscale>  2 0.48693614E+03</rscale>
<asrwt>0</asrwt>
<pdfrwt beam="1">  1       21 0.45428862E-01 0.48693614E+03</pdfrwt>
<pdfrwt beam="2">  1       21 0.14333267E+00 0.48693614E+03</pdfrwt>
<totfact> 0.13111949E+03</totfact>
</mgrwt>
</event>
<event>
 4    1  0.5003329E-002  0.4634239E+03  0.7818608E-02  0.1023793E+00
         21   -1    0    0  503  502  0.00000000000E+00  0.00000000000E+00  0.25560093438E+04  0.25560093438E+04  0.00000000000E+00 0. -1.
         21   -1    0    0  501  503 -0.00000000000E+00 -0.00000000000E+00 -0.11774161120E+03  0.11774161120E+03  0.00000000000E+00 0. -1.
    9000007    1    1    2  501    0 -0.22658892604E+03  0.58473533374E+02  0.50370651466E+03  0.68445741169E+03  0.40000000000E+03 0. -1.
   -9000007    1    1    2    0  502  0.22658892604E+03 -0.58473533374E+02  0.19345612180E+04  0.19892935433E+04  0.40000000000E+03 0. -1.
<mgrwt>
<rscale>  2 0.46342388E+03</rscale>
<asrwt>0</asrwt>
<pdfrwt beam="1">  1       21 0.39323217E+00 0.46342388E+03</pdfrwt>
<pdfrwt beam="2">  1       21 0.18114096E-01 0.46342388E+03</pdfrwt>
<totfact> 0.20167588E+02</totfact>
</mgrwt>
</event>
<event>
 4    1  0.5003329E-002  0.4305485E+03  0.7818608E-02  0.1033687E+00
         21   -1    0    0  503  502  0.00000000000E+00  0.00000000000E+00  0.32143963731E+03  0.32143963731E+03  0.00000000000E+00 0. -1.
         21   -1    0    0  501  503 -0.00000000000E+00 -0.00000000000E+00 -0.57856603851E+03  0.57856603851E+03  0.00000000000E+00 0. -1.
    9000007    1    1    2  501    0  0.13369239544E+03  0.86593041074E+02 -0.10295942655E+03  0.44268798818E+03  0.40000000000E+03 0.  1.
   -9000007    1    1    2    0  502 -0.13369239544E+03 -0.86593041074E+02 -0.15416697465E+03  0.45731768765E+03  0.40000000000E+03 0.  1.
<mgrwt>
<rscale>  2 0.43054850E+03</rscale>
<asrwt>0</asrwt>
<pdfrwt beam="1">  1       21 0.49452252E-01 0.43054850E+03</pdfrwt>
<pdfrwt beam="2">  1       21 0.89010160E-01 0.43054850E+03</pdfrwt>
<totfact> 0.36971270E+03</totfact>
</mgrwt>
</event>
<event>
 4    1  0.5003329E-002  0.4051171E+03  0.7818608E-02  0.1042022E+00
         21   -1    0    0  501  502  0.00000000000E+00  0.00000000000E+00  0.73837989084E+03  0.73837989084E+03  0.00000000000E+00 0. -1.
         21   -1    0    0  502  503 -0.00000000000E+00 -0.00000000000E+00 -0.22800313592E+03  0.22800313592E+03  0.00000000000E+00 0. -1.
    9000007    1    1    2  501    0 -0.28342654645E+02  0.57589256220E+02  0.33180770384E+03  0.52365654854E+03  0.40000000000E+03 0. -1.
   -9000007    1    1    2    0  503  0.28342654645E+02 -0.57589256220E+02  0.17856905108E+03  0.44272647821E+03  0.40000000000E+03 0. -1.
<mgrwt>
<rscale>  2 0.40511706E+03</rscale>
<asrwt>0</asrwt>
<pdfrwt beam="1">  1       21 0.11359691E+00 0.40511706E+03</pdfrwt>
<pdfrwt beam="2">  1       21 0.35077406E-01 0.40511706E+03</pdfrwt>
<totfact> 0.42024392E+03</totfact>
</mgrwt>
</event>
<event>
 4    1  0.5003329E-002  0.5500071E+03  0.7818608E-02  0.1001492E+00
         21   -1    0    0  503  502  0.00000000000E+00  0.00000000000E+00  0.41250804072E+03  0.41250804072E+03  0.00000000000E+00 0.  1.
         21   -1    0    0  501  503 -0.00000000000E+00 -0.00000000000E+00 -0.93116790044E+03  0.93116790044E+03  0.00000000000E+00 0. -1.
    9000007    1    1    2  501    0  0.24257971841E+03  0.28924534379E+03 -0.56899812359E+03  0.79137011148E+03  0.40000000000E+03 0. -1.
   -9000007    1    1    2    0  502 -0.24257971841E+03 -0.28924534379E+03  0.50338263875E+02  0.55230582968E+03  0.40000000000E+03 0.  1.
<mgrwt>
<rscale>  2 0.55000708E+03</rscale>
<asrwt>0</asrwt>
<pdfrwt beam="1">  1       21 0.63462776E-01 0.55000708E+03</pdfrwt>
<pdfrwt beam="2">  1       21 0.14325660E+00 0.55000708E+03</pdfrwt>
<totfact> 0.62333730E+02</totfact>
</mgrwt>
</event>
<event>
 4    1  0.5003329E-002  0.4130182E+03  0.7818608E-02  0.1039363E+00
         21   -1    0    0  503  502  0.00000000000E+00  0.00000000000E+00  0.56567448139E+03  0.56567448139E+03  0.00000000000E+00 0. -1.
         21   -1    0    0  501  503 -0.00000000000E+00 -0.00000000000E+00 -0.40548329298E+03  0.40548329298E+03  0.00000000000E+00 0. -1.
    9000007    1    1    2  501    0 -0.93944113475E+02 -0.41935300536E+02 -0.16573303646E+03  0.44502978020E+03  0.40000000000E+03 0. -1.
   -9000007    1    1    2    0  502  0.93944113475E+02  0.41935300536E+02  0.32592422488E+03  0.52612799417E+03  0.40000000000E+03 0. -1.
<mgrwt>
<rscale>  2 0.41301824E+03</rscale>
<asrwt>0</asrwt>
<pdfrwt beam="1">  1       21 0.87026844E-01 0.41301824E+03</pdfrwt>
<pdfrwt beam="2">  1       21 0.62382045E-01 0.41301824E+03</pdfrwt>
<totfact> 0.23760069E+03</totfact>
</mgrwt>
</event>
<event>
 4    1  0.5003329E-002  0.4094907E+03  0.7818608E-02  0.1040542E+00
         21   -1    0    0  503  502  0.00000000000E+00  0.00000000000E+00  0.47304407669E+03  0.47304407669E+03  0.00000000000E+00 0. -1.
         21   -1    0    0  501  503 -0.00000000000E+00 -0.00000000000E+00 -0.49827270481E+03  0.49827270481E+03  0.00000000000E+00 0. -1.
    9000007    1    1    2  501    0 -0.71643433197E+02  0.50496331192E+02 -0.27351316695E+03  0.49243488248E+03  0.40000000000E+03 0. -1.
   -9000007    1    1    2    0  502  0.71643433197E+02 -0.50496331192E+02  0.24828453883E+03  0.47888189902E+03  0.40000000000E+03 0. -1.
<mgrwt>
<rscale>  2 0.40949073E+03</rscale>
<asrwt>0</asrwt>
<pdfrwt beam="1">  1       21 0.72776012E-01 0.40949073E+03</pdfrwt>
<pdfrwt beam="2">  1       21 0.76657339E-01 0.40949073E+03</pdfrwt>
<totfact> 0.22628103E+03</totfact>
</mgrwt>
</event>
<event>
 4    1  0.5003329E-002  0.7139759E+03  0.7818608E-02  0.9693626E-01
         21   -1    0    0  503  502  0.00000000000E+00  0.00000000000E+00  0.11178539941E+04  0.11178539941E+04  0.00000000000E+00 0. -1.
         21   -1    0    0  501  503 -0.00000000000E+00 -0.00000000000E+00 -0.48734601363E+03  0.48734601363E+03  0.00000000000E+00 0. -1.
    9000007    1    1    2  501    0 -0.20461379415E+03 -0.55488263183E+03  0.11176219867E+03  0.72267027676E+03  0.40000000000E+03 0. -1.
   -9000007    1    1    2    0  502  0.20461379415E+03  0.55488263183E+03  0.51874578176E+03  0.88252973092E+03  0.40000000000E+03 0. -1.
<mgrwt>
<rscale>  2 0.71397587E+03</rscale>
<asrwt>0</asrwt>
<pdfrwt beam="1">  1       21 0.17197754E+00 0.71397587E+03</pdfrwt>
<pdfrwt beam="2">  1       21 0.74976310E-01 0.71397587E+03</pdfrwt>
<totfact> 0.24275401E+02</totfact>
</mgrwt>
</event>
<event>
 4    1  0.5003329E-002  0.5949494E+03  0.7818608E-02  0.9915940E-01
         21   -1    0    0  503  502  0.00000000000E+00  0.00000000000E+00  0.30134339195E+03  0.30134339195E+03  0.00000000000E+00 0. -1.
         21   -1    0    0  501  503 -0.00000000000E+00 -0.00000000000E+00 -0.12302662693E+04  0.12302662693E+04  0.00000000000E+00 0. -1.
    9000007    1    1    2  501    0 -0.14899840040E+00  0.44041434643E+03 -0.62732564374E+03  0.86458214302E+03  0.40000000000E+03 0. -1.
   -9000007    1    1    2    0  502  0.14899840040E+00 -0.44041434643E+03 -0.30159723359E+03  0.66702751821E+03  0.40000000000E+03 0. -1.
<mgrwt>
<rscale>  2 0.59494943E+03</rscale>
<asrwt>0</asrwt>
<pdfrwt beam="1">  1       21 0.46360523E-01 0.59494943E+03</pdfrwt>
<pdfrwt beam="2">  1       21 0.18927173E+00 0.59494943E+03</pdfrwt>
<totfact> 0.54842691E+02</totfact>
</mgrwt>
</event>
<event>
 4    1  0.5003329E-002  0.4553861E+03  0.7818608E-02  0.1026128E+00
         21   -1    0    0  501  502  0.00000000000E+00  0.00000000000E+00  0.58649416733E+03  0.58649416733E+03  0.00000000000E+00 0.  1.
         21   -1    0    0  502  503 -0.00000000000E+00 -0.00000000000E+00 -0.44842504011E+03  0.44842504011E+03  0.00000000000E+00 0.  1.
    9000007    1    1    2  501    0  0.13466923353E+02  0.21724435900E+03  0.30700541258E+03  0.54920742247E+03  0.40000000000E+03 0.  1.
   -9000007    1    1    2    0  503 -0.13466923353E+02 -0.21724435900E+03 -0.16893628536E+03  0.48571178496E+03  0.40000000000E+03 0.  1.
<mgrwt>
<rscale>  2 0.45538607E+03</rscale>
<asrwt>0</asrwt>
<pdfrwt beam="1">  1       21 0.90229872E-01 0.45538607E+03</pdfrwt>
<pdfrwt beam="2">  1       21 0.68988468E-01 0.45538607E+03</pdfrwt>
<totfact> 0.17157378E+03</totfact>
</mgrwt>
</event>
<event>
 4    1  0.5003329E-002  0.4815111E+03  0.7818608E-02  0.1018721E+00
         21   -1    0    0  501  502  0.00000000000E+00  0.00000000000E+00  0.88847691114E+03  0.88847691114E+03  0.00000000000E+00 0. -1.
         21   -1    0    0  502  503 -0.00000000000E+00 -0.00000000000E+00 -0.35124681270E+03  0.35124681270E+03  0.00000000000E+00 0. -1.
    9000007    1    1    2  501    0 -0.26496951511E+03  0.40546964062E+02  0.58289147285E+03  0.75605249114E+03  0.40000000000E+03 0. -1.
   -9000007    1    1    2    0  503  0.26496951511E+03 -0.40546964062E+02 -0.45661374405E+02  0.48367123270E+03  0.40000000000E+03 0. -1.
<mgrwt>
<rscale>  2 0.48151106E+03</rscale>
<asrwt>0</asrwt>
<pdfrwt beam="1">  1       21 0.13668875E+00 0.48151106E+03</pdfrwt>
<pdfrwt beam="2">  1       21 0.54037972E-01 0.48151106E+03</pdfrwt>
<totfact> 0.10308706E+03</totfact>
</mgrwt>
</event>
<event>
 4    1  0.5003329E-002  0.4014916E+03  0.7818608E-02  0.1043264E+00
         21   -1    0    0  501  502  0.00000000000E+00  0.00000000000E+00  0.30643679882E+03  0.30643679882E+03  0.00000000000E+00 0. -1.
         21   -1    0    0  502  503 -0.00000000000E+00 -0.00000000000E+00 -0.52655718601E+03  0.52655718601E+03  0.00000000000E+00 0. -1.
    9000007    1    1    2  501    0 -0.15736027853E+02 -0.30788210668E+02 -0.12321487406E+03  0.41997314400E+03  0.40000000000E+03 0. -1.
   -9000007    1    1    2    0  503  0.15736027853E+02  0.30788210668E+02 -0.96905513129E+02  0.41302084083E+03  0.40000000000E+03 0. -1.
<mgrwt>
<rscale>  2 0.40149164E+03</rscale>
<asrwt>0</asrwt>
<pdfrwt beam="1">  1       21 0.47144123E-01 0.40149164E+03</pdfrwt>
<pdfrwt beam="2">  1       21 0.81008797E-01 0.40149164E+03</pdfrwt>
<totfact> 0.51503526E+03</totfact>
</mgrwt>
</event>
<event>
 4    1  0.5003329E-002  0.5563369E+03  0.7818608E-02  0.1000038E+00
         21   -1    0    0  501  502  0.00000000000E+00  0.00000000000E+00  0.14501016911E+03  0.14501016911E+03  0.00000000000E+00 0.  1.
         21   -1    0    0  502  503 -0.00000000000E+00 -0.00000000000E+00 -0.21593719197E+04  0.21593719197E+04  0.00000000000E+00 0. -1.
    9000007    1    1    2  501    0 -0.20400727000E+03 -0.32846880036E+03 -0.88329382384E+03  0.10438959231E+04  0.40000000000E+03 0.  1.
   -9000007    1    1    2    0  503  0.20400727000E+03  0.32846880036E+03 -0.11310679268E+04  0.12604861657E+04  0.40000000000E+03 0. -1.
<mgrwt>
<rscale>  2 0.55633688E+03</rscale>
<asrwt>0</asrwt>
<pdfrwt beam="1">  1       21 0.22309257E-01 0.55633688E+03</pdfrwt>
<pdfrwt beam="2">  1       21 0.33221106E+00 0.55633688E+03</pdfrwt>
<totfact> 0.30878792E+02</totfact>
</mgrwt>
</event>
<event>
 4    1  0.5003329E-002  0.5434744E+03  0.7818608E-02  0.1003016E+00
         21   -1    0    0  503  502  0.00000000000E+00  0.00000000000E+00  0.90279954361E+03  0.90279954361E+03  0.00000000000E+00 0. -1.
         21   -1    0    0  501  503 -0.00000000000E+00 -0.00000000000E+00 -0.42327536165E+03  0.42327536165E+03  0.00000000000E+00 0. -1.
    9000007    1    1    2  501    0 -0.24802016697E+03  0.27175428929E+03 -0.76183072246E+02  0.54878798954E+03  0.40000000000E+03 0. -1.
   -9000007    1    1    2    0  502  0.24802016697E+03 -0.27175428929E+03  0.55570725420E+03  0.77728691572E+03  0.40000000000E+03 0. -1.
<mgrwt>
<rscale>  2 0.54347438E+03</rscale>
<asrwt>0</asrwt>
<pdfrwt beam="1">  1       21 0.13889224E+00 0.54347438E+03</pdfrwt>
<pdfrwt beam="2">  1       21 0.65119287E-01 0.54347438E+03</pdfrwt>
<totfact> 0.64105717E+02</totfact>
</mgrwt>
</event>
<event>
 4    1  0.5003329E-002  0.4497024E+03  0.7818608E-02  0.1027811E+00
         21   -1    0    0  501  502  0.00000000000E+00  0.00000000000E+00  0.32888329225E+03  0.32888329225E+03  0.00000000000E+00 0.  1.
         21   -1    0    0  502  503 -0.00000000000E+00 -0.00000000000E+00 -0.62202858547E+03  0.62202858547E+03  0.00000000000E+00 0.  1.
    9000007    1    1    2  501    0  0.18526968780E+03  0.88923537601E+02 -0.19745055140E+03  0.49114048194E+03  0.40000000000E+03 0.  1.
   -9000007    1    1    2    0  503 -0.18526968780E+03 -0.88923537601E+02 -0.95694741818E+02  0.45977139577E+03  0.40000000000E+03 0.  1.
<mgrwt>
<rscale>  2 0.44970240E+03</rscale>
<asrwt>0</asrwt>
<pdfrwt beam="1">  1       21 0.50597430E-01 0.44970240E+03</pdfrwt>
<pdfrwt beam="2">  1       21 0.95696705E-01 0.44970240E+03</pdfrwt>
<totfact> 0.29434707E+03</totfact>
</mgrwt>
</event>
<event>
 4    1  0.5003329E-002  0.5312782E+03  0.7818608E-02  0.1005923E+00
         21   -1    0    0  501  502  0.00000000000E+00  0.00000000000E+00  0.38267544043E+03  0.38267544043E+03  0.00000000000E+00 0.  1.
         21   -1    0    0  502  503 -0.00000000000E+00 -0.00000000000E+00 -0.76341927989E+03  0.76341927989E+03  0.00000000000E+00 0.  1.
    9000007    1    1    2  501    0  0.12555476127E+03 -0.32633189322E+03 -0.84960240953E+02  0.53802857280E+03  0.40000000000E+03 0.  1.
   -9000007    1    1    2    0  503 -0.12555476127E+03  0.32633189322E+03 -0.29578359850E+03  0.60806614751E+03  0.40000000000E+03 0.  1.
<mgrwt>
<rscale>  2 0.53127818E+03</rscale>
<asrwt>0</asrwt>
<pdfrwt beam="1">  1       21 0.58873145E-01 0.53127818E+03</pdfrwt>
<pdfrwt beam="2">  1       21 0.11744912E+00 0.53127818E+03</pdfrwt>
<totfact> 0.12442986E+03</totfact>
</mgrwt>
</event>
<event>
 4    1  0.5003329E-002  0.4608601E+03  0.7818608E-02  0.1024532E+00
         21   -1    0    0  503  502  0.00000000000E+00  0.00000000000E+00  0.70373396338E+03  0.70373396338E+03  0.00000000000E+00 0. -1.
         21   -1    0    0  501  503 -0.00000000000E+00 -0.00000000000E+00 -0.55307930090E+03  0.55307930090E+03  0.00000000000E+00 0. -1.
    9000007    1    1    2  501    0  0.22639267223E+03  0.33739586421E+02 -0.34823678719E+03  0.57763384742E+03  0.40000000000E+03 0. -1.
   -9000007    1    1    2    0  502 -0.22639267223E+03 -0.33739586421E+02  0.49889144967E+03  0.67917941686E+03  0.40000000000E+03 0. -1.
<mgrwt>
<rscale>  2 0.46086007E+03</rscale>
<asrwt>0</asrwt>
<pdfrwt beam="1">  1       21 0.10826676E+00 0.46086007E+03</pdfrwt>
<pdfrwt beam="2">  1       21 0.85089123E-01 0.46086007E+03</pdfrwt>
<totfact> 0.68046817E+02</totfact>
</mgrwt>
</event>
<event>
 4    1  0.5003329E-002  0.4832120E+03  0.7818608E-02  0.1018256E+00
         21   -1    0    0  501  502  0.00000000000E+00  0.00000000000E+00  0.16015542254E+04  0.16015542254E+04  0.00000000000E+00 0.  1.
         21   -1    0    0  502  503 -0.00000000000E+00 -0.00000000000E+00 -0.14616051221E+03  0.14616051221E+03  0.00000000000E+00 0. -1.
    9000007    1    1    2  501    0  0.18660370465E+03 -0.19665416680E+03  0.68381876959E+03  0.83731828689E+03  0.40000000000E+03 0. -1.
   -9000007    1    1    2    0  503 -0.18660370465E+03  0.19665416680E+03  0.77157494362E+03  0.91039645075E+03  0.40000000000E+03 0.  1.
<mgrwt>
<rscale>  2 0.48321197E+03</rscale>
<asrwt>0</asrwt>
<pdfrwt beam="1">  1       21 0.24639294E+00 0.48321197E+03</pdfrwt>
<pdfrwt beam="2">  1       21 0.22486234E-01 0.48321197E+03</pdfrwt>
<totfact> 0.10481930E+03</totfact>
</mgrwt>
</event>
<event>
 4    1  0.5003329E-002  0.4918373E+03  0.7818608E-02  0.1015932E+00
         21   -1    0    0  503  502  0.00000000000E+00  0.00000000000E+00  0.19546594961E+03  0.19546594961E+03  0.00000000000E+00 0. -1.
         21   -1    0    0  501  503 -0.00000000000E+00 -0.00000000000E+00 -0.15073311279E+04  0.15073311279E+04  0.00000000000E+00 0. -1.
    9000007    1    1    2  501    0  0.95029220553E+02 -0.26995074942E+03 -0.10161074979E+04  0.11288836996E+04  0.40000000000E+03 0. -1.
   -9000007    1    1    2    0  502 -0.95029220553E+02  0.26995074942E+03 -0.29575768039E+03  0.57391337794E+03  0.40000000000E+03 0. -1.
<mgrwt>
<rscale>  2 0.49183733E+03</rscale>
<asrwt>0</asrwt>
<pdfrwt beam="1">  1       21 0.30071685E-01 0.49183733E+03</pdfrwt>
<pdfrwt beam="2">  1       21 0.23189709E+00 0.49183733E+03</pdfrwt>
<totfact> 0.72766063E+02</totfact>
</mgrwt>
</event>
<event>
 4    1  0.5003329E-002  0.4204809E+03  0.7818608E-02  0.1036910E+00
         21   -1    0    0  503  502  0.00000000000E+00  0.00000000000E+00  0.41919276766E+03  0.41919276766E+03  0.00000000000E+00 0. -1.
         21   -1    0    0  501  503 -0.00000000000E+00 -0.00000000000E+00 -0.42262857552E+03  0.42262857552E+03  0.00000000000E+00 0.  1.
    9000007    1    1    2  501    0  0.11972919906E+03  0.49690126843E+02  0.17220375383E+02  0.42083337693E+03  0.40000000000E+03 0.  1.
   -9000007    1    1    2    0  502 -0.11972919906E+03 -0.49690126843E+02 -0.20656183244E+02  0.42098796624E+03  0.40000000000E+03 0.  1.
<mgrwt>
<rscale>  2 0.42048090E+03</rscale>
<asrwt>0</asrwt>
<pdfrwt beam="1">  1       21 0.64491195E-01 0.42048090E+03</pdfrwt>
<pdfrwt beam="2">  1       21 0.65019781E-01 0.42048090E+03</pdfrwt>
<totfact> 0.42792713E+03</totfact>
</mgrwt>
</event>
<event>
 4    1  0.5003329E-002  0.4109231E+03  0.7818608E-02  0.1040062E+00
         21   -1    0    0  501  502  0.00000000000E+00  0.00000000000E+00  0.53090044653E+03  0.53090044653E+03  0.00000000000E+00 0. -1.
         21   -1    0    0  502  503 -0.00000000000E+00 -0.00000000000E+00 -0.57953700087E+03  0.57953700087E+03  0.00000000000E+00 0. -1.
    9000007    1    1    2  501    0  0.92841714787E+02  0.15433641283E+02  0.34862339626E+03  0.53888408189E+03  0.40000000000E+03 0. -1.
   -9000007    1    1    2    0  503 -0.92841714787E+02 -0.15433641283E+02 -0.39725995060E+03  0.57155336552E+03  0.40000000000E+03 0. -1.
<mgrwt>
<rscale>  2 0.41092308E+03</rscale>
<asrwt>0</asrwt>
<pdfrwt beam="1">  1       21 0.81676992E-01 0.41092308E+03</pdfrwt>
<pdfrwt beam="2">  1       21 0.89159538E-01 0.41092308E+03</pdfrwt>
<totfact> 0.12229235E+03</totfact>
</mgrwt>
</event>
<event>
 4    1  0.5003329E-002  0.5219187E+03  0.7818608E-02  0.1008211E+00
         21   -1    0    0  501  502  0.00000000000E+00  0.00000000000E+00  0.17563639553E+03  0.17563639553E+03  0.00000000000E+00 0.  1.
         21   -1    0    0  502  503 -0.00000000000E+00 -0.00000000000E+00 -0.15573896456E+04  0.15573896456E+04  0.00000000000E+00 0.  1.
    9000007    1    1    2  501    0  0.19480492958E+03  0.27285557696E+03 -0.74669806623E+03  0.91101982886E+03  0.40000000000E+03 0.  1.
   -9000007    1    1    2    0  503 -0.19480492958E+03 -0.27285557696E+03 -0.63505518382E+03  0.82200621224E+03  0.40000000000E+03 0.  1.
<mgrwt>
<rscale>  2 0.52191870E+03</rscale>
<asrwt>0</asrwt>
<pdfrwt beam="1">  1       21 0.27020983E-01 0.52191870E+03</pdfrwt>
<pdfrwt beam="2">  1       21 0.23959841E+00 0.52191870E+03</pdfrwt>
<totfact> 0.79419723E+02</totfact>
</mgrwt>
</event>
<event>
 4    1  0.5003329E-002  0.4019461E+03  0.7818608E-02  0.1043108E+00
         21   -1    0    0  503  502  0.00000000000E+00  0.00000000000E+00  0.37119524595E+03  0.37119524595E+03  0.00000000000E+00 0.  1.
         21   -1    0    0  501  503 -0.00000000000E+00 -0.00000000000E+00 -0.43656587177E+03  0.43656587177E+03  0.00000000000E+00 0.  1.
    9000007    1    1    2  501    0  0.37994203538E+02 -0.10821462058E+02 -0.10464909449E+02  0.40208230236E+03  0.40000000000E+03 0. -1.
   -9000007    1    1    2    0  502 -0.37994203538E+02  0.10821462058E+02 -0.54905716366E+02  0.40567881536E+03  0.40000000000E+03 0. -1.
<mgrwt>
<rscale>  2 0.40194610E+03</rscale>
<asrwt>0</asrwt>
<pdfrwt beam="1">  1       21 0.57106961E-01 0.40194610E+03</pdfrwt>
<pdfrwt beam="2">  1       21 0.67163980E-01 0.40194610E+03</pdfrwt>
<totfact> 0.52324491E+03</totfact>
</mgrwt>
</event>
<event>
 4    1  0.5003329E-002  0.4609815E+03  0.7818608E-02  0.1024497E+00
         21   -1    0    0  503  502  0.00000000000E+00  0.00000000000E+00  0.36959569643E+03  0.36959569643E+03  0.00000000000E+00 0.  1.
         21   -1    0    0  501  503 -0.00000000000E+00 -0.00000000000E+00 -0.13841131873E+04  0.13841131873E+04  0.00000000000E+00 0. -1.
    9000007    1    1    2  501    0 -0.15597126781E+03 -0.16785976389E+03 -0.11776930221E+04  0.12646994864E+04  0.40000000000E+03 0. -1.
   -9000007    1    1    2    0  502  0.15597126781E+03  0.16785976389E+03  0.16317553117E+03  0.48900939734E+03  0.40000000000E+03 0.  1.
<mgrwt>
<rscale>  2 0.46098149E+03</rscale>
<asrwt>0</asrwt>
<pdfrwt beam="1">  1       21 0.56860876E-01 0.46098149E+03</pdfrwt>
<pdfrwt beam="2">  1       21 0.21294049E+00 0.46098149E+03</pdfrwt>
<totfact> 0.26032973E+02</totfact>
</mgrwt>
</event>
<event>
 4    1  0.5003329E-002  0.5228227E+03  0.7818608E-02  0.1007988E+00
         21   -1    0    0  501  502  0.00000000000E+00  0.00000000000E+00  0.15973634110E+03  0.15973634110E+03  0.00000000000E+00 0.  1.
         21   -1    0    0  502  503 -0.00000000000E+00 -0.00000000000E+00 -0.19183756789E+04  0.19183756789E+04  0.00000000000E+00 0.  1.
    9000007    1    1    2  501    0  0.27044151014E+03 -0.20051166771E+03 -0.12207669946E+04  0.13280118955E+04  0.40000000000E+03 0.  1.
   -9000007    1    1    2    0  503 -0.27044151014E+03  0.20051166771E+03 -0.53787234319E+03  0.75010012456E+03  0.40000000000E+03 0.  1.
<mgrwt>
<rscale>  2 0.52282267E+03</rscale>
<asrwt>0</asrwt>
<pdfrwt beam="1">  1       21 0.24574822E-01 0.52282267E+03</pdfrwt>
<pdfrwt beam="2">  1       21 0.29513472E+00 0.52282267E+03</pdfrwt>
<totfact> 0.43708423E+02</totfact>
</mgrwt>
</event>
<event>
 4    1  0.5003329E-002  0.4005761E+03  0.7818608E-02  0.1043580E+00
         21   -1    0    0  503  502  0.00000000000E+00  0.00000000000E+00  0.60628210338E+03  0.60628210338E+03  0.00000000000E+00 0. -1.
         21   -1    0    0  501  503 -0.00000000000E+00 -0.00000000000E+00 -0.26467353357E+03  0.26467353357E+03  0.00000000000E+00 0. -1.
    9000007    1    1    2  501    0 -0.13609625251E+02  0.16613704647E+02  0.16823411326E+03  0.43446973881E+03  0.40000000000E+03 0. -1.
   -9000007    1    1    2    0  502  0.13609625251E+02 -0.16613704647E+02  0.17337445656E+03  0.43648589813E+03  0.40000000000E+03 0. -1.
<mgrwt>
<rscale>  2 0.40057613E+03</rscale>
<asrwt>0</asrwt>
<pdfrwt beam="1">  1       21 0.93274169E-01 0.40057613E+03</pdfrwt>
<pdfrwt beam="2">  1       21 0.40719005E-01 0.40057613E+03</pdfrwt>
<totfact> 0.50223875E+03</totfact>
</mgrwt>
</event>
<event>
 4    1  0.5003329E-002  0.4661004E+03  0.7818608E-02  0.1023027E+00
         21   -1    0    0  503  502  0.00000000000E+00  0.00000000000E+00  0.60616883149E+03  0.60616883149E+03  0.00000000000E+00 0. -1.
         21   -1    0    0  501  503 -0.00000000000E+00 -0.00000000000E+00 -0.36310815956E+03  0.36310815956E+03  0.00000000000E+00 0. -1.
    9000007    1    1    2  501    0 -0.74154568341E+02  0.22748767824E+03  0.17672910053E+03  0.49848040958E+03  0.40000000000E+03 0. -1.
   -9000007    1    1    2    0  502  0.74154568341E+02 -0.22748767824E+03  0.66331571398E+02  0.47079658147E+03  0.40000000000E+03 0. -1.
<mgrwt>
<rscale>  2 0.46610036E+03</rscale>
<asrwt>0</asrwt>
<pdfrwt beam="1">  1       21 0.93256743E-01 0.46610036E+03</pdfrwt>
<pdfrwt beam="2">  1       21 0.55862794E-01 0.46610036E+03</pdfrwt>
<totfact> 0.25167081E+03</totfact>
</mgrwt>
</event>
<event>
 4    1  0.5003329E-002  0.4074903E+03  0.7818608E-02  0.1041216E+00
         21   -1    0    0  503  502  0.00000000000E+00  0.00000000000E+00  0.13050463887E+04  0.13050463887E+04  0.00000000000E+00 0. -1.
         21   -1    0    0  501  503 -0.00000000000E+00 -0.00000000000E+00 -0.30576699011E+03  0.30576699011E+03  0.00000000000E+00 0. -1.
    9000007    1    1    2  501    0  0.77548967855E+02 -0.58769690730E+01 -0.11578823797E+03  0.42362164396E+03  0.40000000000E+03 0. -1.
   -9000007    1    1    2    0  502 -0.77548967855E+02  0.58769690730E+01  0.11150676366E+04  0.11871917348E+04  0.40000000000E+03 0. -1.
<mgrwt>
<rscale>  2 0.40749034E+03</rscale>
<asrwt>0</asrwt>
<pdfrwt beam="1">  1       21 0.20077636E+00 0.40749034E+03</pdfrwt>
<pdfrwt beam="2">  1       21 0.47041076E-01 0.40749034E+03</pdfrwt>
<totfact> 0.48254436E+02</totfact>
</mgrwt>
</event>
<event>
 4    1  0.5003329E-002  0.4304992E+03  0.7818608E-02  0.1033702E+00
         21   -1    0    0  503  502  0.00000000000E+00  0.00000000000E+00  0.16711500784E+04  0.16711500784E+04  0.00000000000E+00 0. -1.
         21   -1    0    0  501  503 -0.00000000000E+00 -0.00000000000E+00 -0.11584200620E+03  0.11584200620E+03  0.00000000000E+00 0. -1.
    9000007    1    1    2  501    0 -0.34499989645E+01  0.15911522946E+03  0.59309422528E+03  0.73286446141E+03  0.40000000000E+03 0.  1.
   -9000007    1    1    2    0  502  0.34499989645E+01 -0.15911522946E+03  0.96221384690E+03  0.10541276232E+04  0.40000000000E+03 0.  1.
<mgrwt>
<rscale>  2 0.43049920E+03</rscale>
<asrwt>0</asrwt>
<pdfrwt beam="1">  1       21 0.25709999E+00 0.43049920E+03</pdfrwt>
<pdfrwt beam="2">  1       21 0.17821848E-01 0.43049920E+03</pdfrwt>
<totfact> 0.14389865E+03</totfact>
</mgrwt>
</event>
<event>
 4    1  0.5003329E-002  0.4116980E+03  0.7818608E-02  0.1039803E+00
         21   -1    0    0  503  502  0.00000000000E+00  0.00000000000E+00  0.79502073726E+03  0.79502073726E+03  0.00000000000E+00 0. -1.
         21   -1    0    0  501  503 -0.00000000000E+00 -0.00000000000E+00 -0.22697419125E+03  0.22697419125E+03  0.00000000000E+00 0. -1.
    9000007    1    1    2  501    0 -0.21284693166E+02  0.95090405022E+02  0.15812291535E+03  0.44101936426E+03  0.40000000000E+03 0.  1.
   -9000007    1    1    2    0  502  0.21284693166E+02 -0.95090405022E+02  0.40992363066E+03  0.58097556426E+03  0.40000000000E+03 0.  1.
<mgrwt>
<rscale>  2 0.41169798E+03</rscale>
<asrwt>0</asrwt>
<pdfrwt beam="1">  1       21 0.12231088E+00 0.41169798E+03</pdfrwt>
<pdfrwt beam="2">  1       21 0.34919107E-01 0.41169798E+03</pdfrwt>
<totfact> 0.35118726E+03</totfact>
</mgrwt>
</event>
<event>
 4    1  0.5003329E-002  0.4004456E+03  0.7818608E-02  0.1043625E+00
         21   -1    0    0  503  502  0.00000000000E+00  0.00000000000E+00  0.90215311819E+03  0.90215311819E+03  0.00000000000E+00 0.  1.
         21   -1    0    0  501  503 -0.00000000000E+00 -0.00000000000E+00 -0.72126160881E+03  0.72126160881E+03  0.00000000000E+00 0.  1.
    9000007    1    1    2  501    0 -0.16102324766E+02  0.98683747154E+01 -0.61417909244E+03  0.73319344465E+03  0.40000000000E+03 0.  1.
   -9000007    1    1    2    0  502  0.16102324766E+02 -0.98683747154E+01  0.79507060182E+03  0.89022128236E+03  0.40000000000E+03 0.  1.
<mgrwt>
<rscale>  2 0.40044559E+03</rscale>
<asrwt>0</asrwt>
<pdfrwt beam="1">  1       21 0.13879279E+00 0.40044559E+03</pdfrwt>
<pdfrwt beam="2">  1       21 0.11096332E+00 0.40044559E+03</pdfrwt>
<totfact> 0.19622106E+02</totfact>
</mgrwt>
</event>
<event>
 4    1  0.5003329E-002  0.4108531E+03  0.7818608E-02  0.1040085E+00
         21   -1    0    0  503  502  0.00000000000E+00  0.00000000000E+00  0.11367233822E+04  0.11367233822E+04  0.00000000000E+00 0. -1.
         21   -1    0    0  501  503 -0.00000000000E+00 -0.00000000000E+00 -0.15905642794E+03  0.15905642794E+03  0.00000000000E+00 0. -1.
    9000007    1    1    2  501    0 -0.45209480506E+02 -0.82196962217E+02  0.65576629099E+03  0.77384085323E+03  0.40000000000E+03 0. -1.
   -9000007    1    1    2    0  502  0.45209480506E+02  0.82196962217E+02  0.32190066328E+03  0.52193895691E+03  0.40000000000E+03 0. -1.
<mgrwt>
<rscale>  2 0.41085306E+03</rscale>
<asrwt>0</asrwt>
<pdfrwt beam="1">  1       21 0.17488051E+00 0.41085306E+03</pdfrwt>
<pdfrwt beam="2">  1       21 0.24470220E-01 0.41085306E+03</pdfrwt>
<totfact> 0.27080920E+03</totfact>
</mgrwt>
</event>
<event>
 4    1  0.5003329E-002  0.4029522E+03  0.7818608E-02  0.1042762E+00
         21   -1    0    0  501  502  0.00000000000E+00  0.00000000000E+00  0.48111788678E+03  0.48111788678E+03  0.00000000000E+00 0.  1.
         21   -1    0    0  502  503 -0.00000000000E+00 -0.00000000000E+00 -0.34428000352E+03  0.34428000352E+03  0.00000000000E+00 0.  1.
    9000007    1    1    2  501    0  0.14964106194E+02  0.46330959985E+02  0.12639449656E+03  0.42231037293E+03  0.40000000000E+03 0.  1.
   -9000007    1    1    2    0  503 -0.14964106194E+02 -0.46330959985E+02  0.10443386699E+02  0.40308751736E+03  0.40000000000E+03 0.  1.
<mgrwt>
<rscale>  2 0.40295221E+03</rscale>
<asrwt>0</asrwt>
<pdfrwt beam="1">  1       21 0.74018136E-01 0.40295221E+03</pdfrwt>
<pdfrwt beam="2">  1       21 0.52966154E-01 0.40295221E+03</pdfrwt>
<totfact> 0.49433191E+03</totfact>
</mgrwt>
</event>
<event>
 4    1  0.5003329E-002  0.4099842E+03  0.7818608E-02  0.1040376E+00
         21   -1    0    0  501  502  0.00000000000E+00  0.00000000000E+00  0.38927923040E+03  0.38927923040E+03  0.00000000000E+00 0. -1.
         21   -1    0    0  502  503 -0.00000000000E+00 -0.00000000000E+00 -0.45579524996E+03  0.45579524996E+03  0.00000000000E+00 0. -1.
    9000007    1    1    2  501    0 -0.85573892050E+02 -0.27643225730E+02  0.63710225367E+02  0.41490484662E+03  0.40000000000E+03 0. -1.
   -9000007    1    1    2    0  503  0.85573892050E+02  0.27643225730E+02 -0.13022624493E+03  0.43016963375E+03  0.40000000000E+03 0. -1.
<mgrwt>
<rscale>  2 0.40998419E+03</rscale>
<asrwt>0</asrwt>
<pdfrwt beam="1">  1       21 0.59889113E-01 0.40998419E+03</pdfrwt>
<pdfrwt beam="2">  1       21 0.70122346E-01 0.40998419E+03</pdfrwt>
<totfact> 0.42708687E+03</totfact>
</mgrwt>
</event>
<event>
 4    1  0.5003329E-002  0.5890463E+03  0.7818608E-02  0.9928396E-01
         21   -1    0    0  503  502  0.00000000000E+00  0.00000000000E+00  0.43827094044E+03  0.43827094044E+03  0.00000000000E+00 0. -1.
         21   -1    0    0  501  503 -0.00000000000E+00 -0.00000000000E+00 -0.86881584820E+03  0.86881584820E+03  0.00000000000E+00 0. -1.
    9000007    1    1    2  501    0  0.24747663722E+03  0.35458543861E+03 -0.40999014433E+03  0.71768198925E+03  0.40000000000E+03 0. -1.
   -9000007    1    1    2    0  502 -0.24747663722E+03 -0.35458543861E+03 -0.20554763425E+02  0.58940479939E+03  0.40000000000E+03 0. -1.
<mgrwt>
<rscale>  2 0.58904628E+03</rscale>
<asrwt>0</asrwt>
<pdfrwt beam="1">  1       21 0.67426299E-01 0.58904628E+03</pdfrwt>
<pdfrwt beam="2">  1       21 0.13366398E+00 0.58904628E+03</pdfrwt>
<totfact> 0.64604393E+02</totfact>
</mgrwt>
</event>
<event>
 4    1  0.5003329E-002  0.4146701E+03  0.7818608E-02  0.1038815E+00
         21   -1    0    0  501  502  0.00000000000E+00  0.00000000000E+00  0.19122253633E+03  0.19122253633E+03  0.00000000000E+00 0.  1.
         21   -1    0    0  502  503 -0.00000000000E+00 -0.00000000000E+00 -0.90990691336E+03  0.90990691336E+03  0.00000000000E+00 0. -1.
    9000007    1    1    2  501    0 -0.69796824306E+02 -0.84140964984E+02 -0.41900696625E+03  0.58950668905E+03  0.40000000000E+03 0. -1.
   -9000007    1    1    2    0  503  0.69796824306E+02  0.84140964984E+02 -0.29967741077E+03  0.51162276063E+03  0.40000000000E+03 0.  1.
<mgrwt>
<rscale>  2 0.41467011E+03</rscale>
<asrwt>0</asrwt>
<pdfrwt beam="1">  1       21 0.29418852E-01 0.41467011E+03</pdfrwt>
<pdfrwt beam="2">  1       21 0.13998568E+00 0.41467011E+03</pdfrwt>
<totfact> 0.34807437E+03</totfact>
</mgrwt>
</event>
<event>
 4    1  0.5003329E-002  0.4118042E+03  0.7818608E-02  0.1039767E+00
         21   -1    0    0  503  502  0.00000000000E+00  0.00000000000E+00  0.17951928222E+04  0.17951928222E+04  0.00000000000E+00 0.  1.
         21   -1    0    0  501  503 -0.00000000000E+00 -0.00000000000E+00 -0.32110074978E+03  0.32110074978E+03  0.00000000000E+00 0.  1.
    9000007    1    1    2  501    0 -0.97890992609E+02  0.29877700349E+00 -0.15192896456E+03  0.43893638033E+03  0.40000000000E+03 0.  1.
   -9000007    1    1    2    0  502  0.97890992609E+02 -0.29877700349E+00  0.16260210369E+04  0.16773571916E+04  0.40000000000E+03 0.  1.
<mgrwt>
<rscale>  2 0.41180424E+03</rscale>
<asrwt>0</asrwt>
<pdfrwt beam="1">  1       21 0.27618351E+00 0.41180424E+03</pdfrwt>
<pdfrwt beam="2">  1       21 0.49400116E-01 0.41180424E+03</pdfrwt>
<totfact> 0.14700237E+02</totfact>
</mgrwt>
</event>
<event>
 4    1  0.5003329E-002  0.4531891E+03  0.7818608E-02  0.1026775E+00
         21   -1    0    0  503  502  0.00000000000E+00  0.00000000000E+00  0.19920835845E+04  0.19920835845E+04  0.00000000000E+00 0.  1.
         21   -1    0    0  501  503 -0.00000000000E+00 -0.00000000000E+00 -0.10855214222E+03  0.10855214222E+03  0.00000000000E+00 0.  1.
    9000007    1    1    2  501    0 -0.68324655466E+01 -0.21291707459E+03  0.70633984672E+03  0.83922365451E+03  0.40000000000E+03 0.  1.
   -9000007    1    1    2    0  502  0.68324655466E+01  0.21291707459E+03  0.11771915955E+04  0.12614120722E+04  0.40000000000E+03 0.  1.
<mgrwt>
<rscale>  2 0.45318910E+03</rscale>
<asrwt>0</asrwt>
<pdfrwt beam="1">  1       21 0.30647437E+00 0.45318910E+03</pdfrwt>
<pdfrwt beam="2">  1       21 0.16700331E-01 0.45318910E+03</pdfrwt>
<totfact> 0.80913715E+02</totfact>
</mgrwt>
</event>
<event>
 4    1  0.5003329E-002  0.5817457E+03  0.7818608E-02  0.9944019E-01
         21   -1    0    0  501  502  0.00000000000E+00  0.00000000000E+00  0.11912016703E+04  0.11912016703E+04  0.00000000000E+00 0.  1.
         21   -1    0    0  502  503 -0.00000000000E+00 -0.00000000000E+00 -0.59175732033E+03  0.59175732033E+03  0.00000000000E+00 0.  1.
    9000007    1    1    2  501    0 -0.41496903711E+03  0.78922256714E+02  0.94251148368E+03  0.11075901414E+04  0.40000000000E+03 0.  1.
   -9000007    1    1    2    0  503  0.41496903711E+03 -0.78922256714E+02 -0.34306713369E+03  0.67536884928E+03  0.40000000000E+03 0.  1.
<mgrwt>
<rscale>  2 0.58174567E+03</rscale>
<asrwt>0</asrwt>
<pdfrwt beam="1">  1       21 0.18326179E+00 0.58174567E+03</pdfrwt>
<pdfrwt beam="2">  1       21 0.91039588E-01 0.58174567E+03</pdfrwt>
<totfact> 0.13384094E+02</totfact>
</mgrwt>
</event>
<event>
 4    1  0.5003329E-002  0.4518792E+03  0.7818608E-02  0.1027163E+00
         21   -1    0    0  503  502  0.00000000000E+00  0.00000000000E+00  0.24723311497E+03  0.24723311497E+03  0.00000000000E+00 0.  1.
         21   -1    0    0  501  503 -0.00000000000E+00 -0.00000000000E+00 -0.16089922148E+04  0.16089922148E+04  0.00000000000E+00 0.  1.
    9000007    1    1    2  501    0 -0.19853548554E+03  0.69126497366E+02 -0.13283569185E+04  0.14031132935E+04  0.40000000000E+03 0.  1.
   -9000007    1    1    2    0  502  0.19853548554E+03 -0.69126497366E+02 -0.33402181353E+02  0.45311203623E+03  0.40000000000E+03 0.  1.
<mgrwt>
<rscale>  2 0.45187920E+03</rscale>
<asrwt>0</asrwt>
<pdfrwt beam="1">  1       21 0.38035864E-01 0.45187920E+03</pdfrwt>
<pdfrwt beam="2">  1       21 0.24753726E+00 0.45187920E+03</pdfrwt>
<totfact> 0.36929855E+02</totfact>
</mgrwt>
</event>
<event>
 4    1  0.5003329E-002  0.4182192E+03  0.7818608E-02  0.1037647E+00
         21   -1    0    0  501  502  0.00000000000E+00  0.00000000000E+00  0.80291086340E+03  0.80291086340E+03  0.00000000000E+00 0. -1.
         21   -1    0    0  502  503 -0.00000000000E+00 -0.00000000000E+00 -0.22060705930E+03  0.22060705930E+03  0.00000000000E+00 0. -1.
    9000007    1    1    2  501    0  0.10580959339E+03 -0.60922957605E+02  0.23385248834E+03  0.47915995567E+03  0.40000000000E+03 0. -1.
   -9000007    1    1    2    0  503 -0.10580959339E+03  0.60922957605E+02  0.34845131576E+03  0.54435796703E+03  0.40000000000E+03 0. -1.
<mgrwt>
<rscale>  2 0.41821917E+03</rscale>
<asrwt>0</asrwt>
<pdfrwt beam="1">  1       21 0.12352475E+00 0.41821917E+03</pdfrwt>
<pdfrwt beam="2">  1       21 0.33939548E-01 0.41821917E+03</pdfrwt>
<totfact> 0.36174342E+03</totfact>
</mgrwt>
</event>
<event>
 4    1  0.5003329E-002  0.4455462E+03  0.7818608E-02  0.1029059E+00
         21   -1    0    0  503  502  0.00000000000E+00  0.00000000000E+00  0.17448141037E+04  0.17448141037E+04  0.00000000000E+00 0.  1.
         21   -1    0    0  501  503 -0.00000000000E+00 -0.00000000000E+00 -0.11377773564E+03  0.11377773564E+03  0.00000000000E+00 0.  1.
    9000007    1    1    2  501    0  0.69753101947E+01 -0.19611927335E+03  0.82197155211E+03  0.93495917388E+03  0.40000000000E+03 0.  1.
   -9000007    1    1    2    0  502 -0.69753101947E+01  0.19611927335E+03  0.80906481598E+03  0.92363266550E+03  0.40000000000E+03 0.  1.
<mgrwt>
<rscale>  2 0.44554621E+03</rscale>
<asrwt>0</asrwt>
<pdfrwt beam="1">  1       21 0.26843292E+00 0.44554621E+03</pdfrwt>
<pdfrwt beam="2">  1       21 0.17504268E-01 0.44554621E+03</pdfrwt>
<totfact> 0.12607393E+03</totfact>
</mgrwt>
</event>
<event>
 4    1  0.5003329E-002  0.4464653E+03  0.7818608E-02  0.1028781E+00
         21   -1    0    0  501  502  0.00000000000E+00  0.00000000000E+00  0.92277490661E+02  0.92277490661E+02  0.00000000000E+00 0.  1.
         21   -1    0    0  502  503 -0.00000000000E+00 -0.00000000000E+00 -0.26686454886E+04  0.26686454886E+04  0.00000000000E+00 0.  1.
    9000007    1    1    2  501    0  0.15445670101E+03  0.12439620833E+03 -0.68558091812E+03  0.81813964849E+03  0.40000000000E+03 0.  1.
   -9000007    1    1    2    0  503 -0.15445670101E+03 -0.12439620833E+03 -0.18907870798E+04  0.19427833308E+04  0.40000000000E+03 0.  1.
<mgrwt>
<rscale>  2 0.44646533E+03</rscale>
<asrwt>0</asrwt>
<pdfrwt beam="1">  1       21 0.14196539E-01 0.44646533E+03</pdfrwt>
<pdfrwt beam="2">  1       21 0.41056078E+00 0.44646533E+03</pdfrwt>
<totfact> 0.24864942E+02</totfact>
</mgrwt>
</event>
<event>
 4    1  0.5003329E-002  0.5192098E+03  0.7818608E-02  0.1008883E+00
         21   -1    0    0  503  502  0.00000000000E+00  0.00000000000E+00  0.15291204043E+04  0.15291204043E+04  0.00000000000E+00 0.  1.
         21   -1    0    0  501  503 -0.00000000000E+00 -0.00000000000E+00 -0.20620638029E+03  0.20620638029E+03  0.00000000000E+00 0.  1.
    9000007    1    1    2  501    0  0.30090559492E+03 -0.13796616249E+03  0.33100659023E+03  0.61574686505E+03  0.40000000000E+03 0.  1.
   -9000007    1    1    2    0  502 -0.30090559492E+03  0.13796616249E+03  0.99190743382E+03  0.11195799196E+04  0.40000000000E+03 0.  1.
<mgrwt>
<rscale>  2 0.51920982E+03</rscale>
<asrwt>0</asrwt>
<pdfrwt beam="1">  1       21 0.23524929E+00 0.51920982E+03</pdfrwt>
<pdfrwt beam="2">  1       21 0.31724060E-01 0.51920982E+03</pdfrwt>
<totfact> 0.61545279E+02</totfact>
</mgrwt>
</event>
<event>
 4    1  0.5003329E-002  0.6054827E+03  0.7818608E-02  0.9894096E-01
         21   -1    0    0  503  502  0.00000000000E+00  0.00000000000E+00  0.24462469495E+03  0.24462469495E+03  0.00000000000E+00 0.  1.
         21   -1    0    0  501  503 -0.00000000000E+00 -0.00000000000E+00 -0.30778380918E+04  0.30778380918E+04  0.00000000000E+00 0.  1.
    9000007    1    1    2  501    0 -0.31406042063E+03  0.32859602884E+03 -0.26065404143E+04  0.26759413725E+04  0.40000000000E+03 0.  1.
   -9000007    1    1    2    0  502  0.31406042063E+03 -0.32859602884E+03 -0.22667298253E+03  0.64652141417E+03  0.40000000000E+03 0.  1.
<mgrwt>
<rscale>  2 0.60548270E+03</rscale>
<asrwt>0</asrwt>
<pdfrwt beam="1">  1       21 0.37634570E-01 0.60548270E+03</pdfrwt>
<pdfrwt beam="2">  1       21 0.47351353E+00 0.60548270E+03</pdfrwt>
<totfact> 0.12789619E+01</totfact>
</mgrwt>
</event>
<event>
 4    1  0.5003329E-002  0.6360993E+03  0.7818608E-02  0.9833218E-01
         21   -1    0    0  503  502  0.00000000000E+00  0.00000000000E+00  0.33148038146E+03  0.33148038146E+03  0.00000000000E+00 0. -1.
         21   -1    0    0  501  503 -0.00000000000E+00 -0.00000000000E+00 -0.18587641539E+04  0.18587641539E+04  0.00000000000E+00 0.  1.
    9000007    1    1    2  501    0  0.37530023349E+03  0.32213667251E+03 -0.14052928640E+04  0.15425531870E+04  0.40000000000E+03 0.  1.
   -9000007    1    1    2    0  502 -0.37530023349E+03 -0.32213667251E+03 -0.12199090844E+03  0.64769134839E+03  0.40000000000E+03 0.  1.
<mgrwt>
<rscale>  2 0.63609929E+03</rscale>
<asrwt>0</asrwt>
<pdfrwt beam="1">  1       21 0.50996982E-01 0.63609929E+03</pdfrwt>
<pdfrwt beam="2">  1       21 0.28596371E+00 0.63609929E+03</pdfrwt>
<totfact> 0.10634896E+02</totfact>
</mgrwt>
</event>
<event>
 4    1  0.5003329E-002  0.4844743E+03  0.7818608E-02  0.1017913E+00
         21   -1    0    0  503  502  0.00000000000E+00  0.00000000000E+00  0.11912421496E+04  0.11912421496E+04  0.00000000000E+00 0. -1.
         21   -1    0    0  501  503 -0.00000000000E+00 -0.00000000000E+00 -0.57180367916E+03  0.57180367916E+03  0.00000000000E+00 0. -1.
    9000007    1    1    2  501    0  0.75605643211E+02 -0.26267687231E+03 -0.40394229234E+03  0.63078104606E+03  0.40000000000E+03 0. -1.
   -9000007    1    1    2    0  502 -0.75605643211E+02  0.26267687231E+03  0.10233807628E+04  0.11322647827E+04  0.40000000000E+03 0. -1.
<mgrwt>
<rscale>  2 0.48447431E+03</rscale>
<asrwt>0</asrwt>
<pdfrwt beam="1">  1       21 0.18326802E+00 0.48447431E+03</pdfrwt>
<pdfrwt beam="2">  1       21 0.87969797E-01 0.48447431E+03</pdfrwt>
<totfact> 0.15175081E+02</totfact>
</mgrwt>
</event>
<event>
 4    1  0.5003329E-002  0.4400393E+03  0.7818608E-02  0.1030735E+00
         21   -1    0    0  503  502  0.00000000000E+00  0.00000000000E+00  0.53607894524E+03  0.53607894524E+03  0.00000000000E+00 0. -1.
         21   -1    0    0  501  503 -0.00000000000E+00 -0.00000000000E+00 -0.60281506165E+03  0.60281506165E+03  0.00000000000E+00 0.  1.
    9000007    1    1    2  501    0  0.15649116525E+03 -0.95630051713E+02 -0.39387899440E+03  0.59057197175E+03  0.40000000000E+03 0.  1.
   -9000007    1    1    2    0  502 -0.15649116525E+03  0.95630051713E+02  0.32714287800E+03  0.54832203514E+03  0.40000000000E+03 0. -1.
<mgrwt>
<rscale>  2 0.44003931E+03</rscale>
<asrwt>0</asrwt>
<pdfrwt beam="1">  1       21 0.82473685E-01 0.44003931E+03</pdfrwt>
<pdfrwt beam="2">  1       21 0.92740778E-01 0.44003931E+03</pdfrwt>
<totfact> 0.10756809E+03</totfact>
</mgrwt>
</event>
<event>
 4    1  0.5003329E-002  0.4117978E+03  0.7818608E-02  0.1039769E+00
         21   -1    0    0  503  502  0.00000000000E+00  0.00000000000E+00  0.17718312500E+03  0.17718312500E+03  0.00000000000E+00 0. -1.
         21   -1    0    0  501  503 -0.00000000000E+00 -0.00000000000E+00 -0.10026925786E+04  0.10026925786E+04  0.00000000000E+00 0. -1.
    9000007    1    1    2  501    0  0.96670404121E+02  0.15240134286E+02 -0.53858682796E+03  0.67797728574E+03  0.40000000000E+03 0.  1.
   -9000007    1    1    2    0  502 -0.96670404121E+02 -0.15240134286E+02 -0.28692262561E+03  0.50189841782E+03  0.40000000000E+03 0.  1.
<mgrwt>
<rscale>  2 0.41179780E+03</rscale>
<asrwt>0</asrwt>
<pdfrwt beam="1">  1       21 0.27258943E-01 0.41179780E+03</pdfrwt>
<pdfrwt beam="2">  1       21 0.15426039E+00 0.41179780E+03</pdfrwt>
<totfact> 0.31182953E+03</totfact>
</mgrwt>
</event>
<event>
 4    1  0.5003329E-002  0.4706055E+03  0.7818608E-02  0.1021749E+00
         21   -1    0    0  503  502  0.00000000000E+00  0.00000000000E+00  0.77789859579E+03  0.77789859579E+03  0.00000000000E+00 0. -1.
         21   -1    0    0  501  503 -0.00000000000E+00 -0.00000000000E+00 -0.52879195721E+03  0.52879195721E+03  0.00000000000E+00 0. -1.
    9000007    1    1    2  501    0 -0.23550606277E+03  0.77501331009E+02 -0.31933628610E+03  0.56872245035E+03  0.40000000000E+03 0. -1.
   -9000007    1    1    2    0  502  0.23550606277E+03 -0.77501331009E+02  0.56844292468E+03  0.73796810265E+03  0.40000000000E+03 0. -1.
<mgrwt>
<rscale>  2 0.47060553E+03</rscale>
<asrwt>0</asrwt>
<pdfrwt beam="1">  1       21 0.11967671E+00 0.47060553E+03</pdfrwt>
<pdfrwt beam="2">  1       21 0.81352609E-01 0.47060553E+03</pdfrwt>
<totfact> 0.58559721E+02</totfact>
</mgrwt>
</event>
<event>
 4    1  0.5003329E-002  0.4235274E+03  0.7818608E-02  0.1035924E+00
         21   -1    0    0  503  502  0.00000000000E+00  0.00000000000E+00  0.60028949147E+03  0.60028949147E+03  0.00000000000E+00 0. -1.
         21   -1    0    0  501  503 -0.00000000000E+00 -0.00000000000E+00 -0.41128731921E+03  0.41128731921E+03  0.00000000000E+00 0.  1.
    9000007    1    1    2  501    0 -0.47972643343E+01 -0.13911298869E+03 -0.16999500028E+03  0.45637017594E+03  0.40000000000E+03 0.  1.
   -9000007    1    1    2    0  502  0.47972643343E+01  0.13911298869E+03  0.35899717254E+03  0.55520663474E+03  0.40000000000E+03 0. -1.
<mgrwt>
<rscale>  2 0.42352737E+03</rscale>
<asrwt>0</asrwt>
<pdfrwt beam="1">  1       21 0.92352229E-01 0.42352737E+03</pdfrwt>
<pdfrwt beam="2">  1       21 0.63274973E-01 0.42352737E+03</pdfrwt>
<totfact> 0.19929070E+03</totfact>
</mgrwt>
</event>
<event>
 4    1  0.5003329E-002  0.4151913E+03  0.7818608E-02  0.1038643E+00
         21   -1    0    0  501  502  0.00000000000E+00  0.00000000000E+00  0.43507236356E+03  0.43507236356E+03  0.00000000000E+00 0. -1.
         21   -1    0    0  502  503 -0.00000000000E+00 -0.00000000000E+00 -0.39829064172E+03  0.39829064172E+03  0.00000000000E+00 0.  1.
    9000007    1    1    2  501    0  0.11031316921E+03 -0.14655396620E+02 -0.11662998292E+02  0.41535503064E+03  0.40000000000E+03 0.  1.
   -9000007    1    1    2    0  503 -0.11031316921E+03  0.14655396620E+02  0.48444720126E+02  0.41800797464E+03  0.40000000000E+03 0.  1.
<mgrwt>
<rscale>  2 0.41519125E+03</rscale>
<asrwt>0</asrwt>
<pdfrwt beam="1">  1       21 0.66934210E-01 0.41519125E+03</pdfrwt>
<pdfrwt beam="2">  1       21 0.61275483E-01 0.41519125E+03</pdfrwt>
<totfact> 0.44994340E+03</totfact>
</mgrwt>
</event>
<event>
 4    1  0.5003329E-002  0.4852749E+03  0.7818608E-02  0.1017695E+00
         21   -1    0    0  501  502  0.00000000000E+00  0.00000000000E+00  0.53357927006E+03  0.53357927006E+03  0.00000000000E+00 0.  1.
         21   -1    0    0  502  503 -0.00000000000E+00 -0.00000000000E+00 -0.46650336173E+03  0.46650336173E+03  0.00000000000E+00 0. -1.
    9000007    1    1    2  501    0 -0.26035102379E+03  0.87801577791E+02  0.14966466869E+03  0.50782997716E+03  0.40000000000E+03 0. -1.
   -9000007    1    1    2    0  503  0.26035102379E+03 -0.87801577791E+02 -0.82588760363E+02  0.49225265463E+03  0.40000000000E+03 0. -1.
<mgrwt>
<rscale>  2 0.48527495E+03</rscale>
<asrwt>0</asrwt>
<pdfrwt beam="1">  1       21 0.82089118E-01 0.48527495E+03</pdfrwt>
<pdfrwt beam="2">  1       21 0.71769748E-01 0.48527495E+03</pdfrwt>
<totfact> 0.19383426E+03</totfact>
</mgrwt>
</event>
<event>
 4    1  0.5003329E-002  0.4019082E+03  0.7818608E-02  0.1043121E+00
         21   -1    0    0  501  502  0.00000000000E+00  0.00000000000E+00  0.12094858875E+04  0.12094858875E+04  0.00000000000E+00 0. -1.
         21   -1    0    0  502  503 -0.00000000000E+00 -0.00000000000E+00 -0.16727128112E+03  0.16727128112E+03  0.00000000000E+00 0. -1.
    9000007    1    1    2  501    0 -0.34574482305E+02  0.18297810712E+02  0.83017298101E+03  0.92234341929E+03  0.40000000000E+03 0. -1.
   -9000007    1    1    2    0  503  0.34574482305E+02 -0.18297810712E+02  0.21204162540E+03  0.45441374936E+03  0.40000000000E+03 0. -1.
<mgrwt>
<rscale>  2 0.40190820E+03</rscale>
<asrwt>0</asrwt>
<pdfrwt beam="1">  1       21 0.18607475E+00 0.40190820E+03</pdfrwt>
<pdfrwt beam="2">  1       21 0.25734044E-01 0.40190820E+03</pdfrwt>
<totfact> 0.20580165E+03</totfact>
</mgrwt>
</event>
<event>
 4    1  0.5003329E-002  0.4249149E+03  0.7818608E-02  0.1035478E+00
         21   -1    0    0  503  502  0.00000000000E+00  0.00000000000E+00  0.70560527874E+03  0.70560527874E+03  0.00000000000E+00 0. -1.
         21   -1    0    0  501  503 -0.00000000000E+00 -0.00000000000E+00 -0.25593934464E+03  0.25593934464E+03  0.00000000000E+00 0.  1.
    9000007    1    1    2  501    0  0.54330648029E+02  0.13266827154E+03  0.23193994937E+03  0.48409588895E+03  0.40000000000E+03 0. -1.
   -9000007    1    1    2    0  502 -0.54330648029E+02 -0.13266827154E+03  0.21772598473E+03  0.47744873444E+03  0.40000000000E+03 0. -1.
<mgrwt>
<rscale>  2 0.42491492E+03</rscale>
<asrwt>0</asrwt>
<pdfrwt beam="1">  1       21 0.10855466E+00 0.42491492E+03</pdfrwt>
<pdfrwt beam="2">  1       21 0.39375284E-01 0.42491492E+03</pdfrwt>
<totfact> 0.36895222E+03</totfact>
</mgrwt>
</event>
<event>
 4    1  0.5003329E-002  0.1063963E+04  0.7818608E-02  0.9241046E-01
         21   -1    0    0  501  502  0.00000000000E+00  0.00000000000E+00  0.14243989545E+04  0.14243989545E+04  0.00000000000E+00 0. -1.
         21   -1    0    0  502  503 -0.00000000000E+00 -0.00000000000E+00 -0.12513429423E+04  0.12513429423E+04  0.00000000000E+00 0. -1.
    9000007    1    1    2  501    0 -0.92820259222E+03 -0.33235126333E+03  0.89469022538E+03  0.13901395663E+04  0.40000000000E+03 0. -1.
   -9000007    1    1    2    0  503  0.92820259222E+03  0.33235126333E+03 -0.72163421324E+03  0.12856023305E+04  0.40000000000E+03 0. -1.
<mgrwt>
<rscale>  2 0.10639631E+04</rscale>
<asrwt>0</asrwt>
<pdfrwt beam="1">  1       21 0.21913830E+00 0.10639631E+04</pdfrwt>
<pdfrwt beam="2">  1       21 0.19251430E+00 0.10639631E+04</pdfrwt>
<totfact> 0.86588763E+00</totfact>
</mgrwt>
</event>
<event>
 4    1  0.5003329E-002  0.4543102E+03  0.7818608E-02  0.1026444E+00
         21   -1    0    0  501  502  0.00000000000E+00  0.00000000000E+00  0.10838531003E+04  0.10838531003E+04  0.00000000000E+00 0. -1.
         21   -1    0    0  502  503 -0.00000000000E+00 -0.00000000000E+00 -0.19528897400E+03  0.19528897400E+03  0.00000000000E+00 0. -1.
    9000007    1    1    2  501    0  0.10144080670E+03 -0.19001969286E+03  0.54517011497E+03  0.70965355998E+03  0.40000000000E+03 0.  1.
   -9000007    1    1    2    0  503 -0.10144080670E+03  0.19001969286E+03  0.34339401138E+03  0.56948851436E+03  0.40000000000E+03 0.  1.
<mgrwt>
<rscale>  2 0.45431016E+03</rscale>
<asrwt>0</asrwt>
<pdfrwt beam="1">  1       21 0.16674663E+00 0.45431016E+03</pdfrwt>
<pdfrwt beam="2">  1       21 0.30044458E-01 0.45431016E+03</pdfrwt>
<totfact> 0.20364322E+03</totfact>
</mgrwt>
</event>
<event>
 4    1  0.5003329E-002  0.4549792E+03  0.7818608E-02  0.1026248E+00
         21   -1    0    0  501  502  0.00000000000E+00  0.00000000000E+00  0.45227742552E+03  0.45227742552E+03  0.00000000000E+00 0. -1.
         21   -1    0    0  502  503 -0.00000000000E+00 -0.00000000000E+00 -0.56652183779E+03  0.56652183779E+03  0.00000000000E+00 0.  1.
    9000007    1    1    2  501    0  0.21664441312E+03 -0.84423049562E+01  0.16613941685E+03  0.48436389221E+03  0.40000000000E+03 0. -1.
   -9000007    1    1    2    0  503 -0.21664441312E+03  0.84423049562E+01 -0.28038382912E+03  0.53443537110E+03  0.40000000000E+03 0.  1.
<mgrwt>
<rscale>  2 0.45497920E+03</rscale>
<asrwt>0</asrwt>
<pdfrwt beam="1">  1       21 0.69581142E-01 0.45497920E+03</pdfrwt>
<pdfrwt beam="2">  1       21 0.87157206E-01 0.45497920E+03</pdfrwt>
<totfact> 0.18268444E+03</totfact>
</mgrwt>
</event>
<event>
 4    1  0.5003329E-002  0.4354082E+03  0.7818608E-02  0.1032165E+00
         21   -1    0    0  501  502  0.00000000000E+00  0.00000000000E+00  0.44382143582E+03  0.44382143582E+03  0.00000000000E+00 0. -1.
         21   -1    0    0  502  503 -0.00000000000E+00 -0.00000000000E+00 -0.69432117636E+03  0.69432117636E+03  0.00000000000E+00 0. -1.
    9000007    1    1    2  501    0  0.93448007584E+02 -0.14438756121E+03 -0.47825228246E+03  0.64676544716E+03  0.40000000000E+03 0. -1.
   -9000007    1    1    2    0  503 -0.93448007584E+02  0.14438756121E+03  0.22775254193E+03  0.49137716503E+03  0.40000000000E+03 0. -1.
<mgrwt>
<rscale>  2 0.43540820E+03</rscale>
<asrwt>0</asrwt>
<pdfrwt beam="1">  1       21 0.68280221E-01 0.43540820E+03</pdfrwt>
<pdfrwt beam="2">  1       21 0.10681864E+00 0.43540820E+03</pdfrwt>
<totfact> 0.11768088E+03</totfact>
</mgrwt>
</event>
<event>
 4    1  0.5003329E-002  0.4613311E+03  0.7818608E-02  0.1024396E+00
         21   -1    0    0  501  502  0.00000000000E+00  0.00000000000E+00  0.34061376197E+03  0.34061376197E+03  0.00000000000E+00 0.  1.
         21   -1    0    0  502  503 -0.00000000000E+00 -0.00000000000E+00 -0.67596942469E+03  0.67596942469E+03  0.00000000000E+00 0.  1.
    9000007    1    1    2  501    0  0.14168847427E+03 -0.18097166394E+03 -0.27874034235E+02  0.46217240146E+03  0.40000000000E+03 0.  1.
   -9000007    1    1    2    0  503 -0.14168847427E+03  0.18097166394E+03 -0.30748162849E+03  0.55441078520E+03  0.40000000000E+03 0.  1.
<mgrwt>
<rscale>  2 0.46133108E+03</rscale>
<asrwt>0</asrwt>
<pdfrwt beam="1">  1       21 0.52402118E-01 0.46133108E+03</pdfrwt>
<pdfrwt beam="2">  1       21 0.10399529E+00 0.46133108E+03</pdfrwt>
<totfact> 0.22220293E+03</totfact>
</mgrwt>
</event>
<event>
 4    1  0.5003329E-002  0.4956527E+03  0.7818608E-02  0.1014920E+00
         21   -1    0    0  501  502  0.00000000000E+00  0.00000000000E+00  0.47166332619E+03  0.47166332619E+03  0.00000000000E+00 0. -1.
         21   -1    0    0  502  503 -0.00000000000E+00 -0.00000000000E+00 -0.90430399969E+03  0.90430399969E+03  0.00000000000E+00 0.  1.
    9000007    1    1    2  501    0  0.26428034777E+03 -0.12580743979E+03  0.23167202271E+03  0.54712296628E+03  0.40000000000E+03 0. -1.
   -9000007    1    1    2    0  503 -0.26428034777E+03  0.12580743979E+03 -0.66431269621E+03  0.82884435961E+03  0.40000000000E+03 0.  1.
<mgrwt>
<rscale>  2 0.49565272E+03</rscale>
<asrwt>0</asrwt>
<pdfrwt beam="1">  1       21 0.72563589E-01 0.49565272E+03</pdfrwt>
<pdfrwt beam="2">  1       21 0.13912369E+00 0.49565272E+03</pdfrwt>
<totfact> 0.50941844E+02</totfact>
</mgrwt>
</event>
<event>
 4    1  0.5003329E-002  0.4375384E+03  0.7818608E-02  0.1031505E+00
         21   -1    0    0  501  502  0.00000000000E+00  0.00000000000E+00  0.46502876481E+03  0.46502876481E+03  0.00000000000E+00 0.  1.
         21   -1    0    0  502  503 -0.00000000000E+00 -0.00000000000E+00 -0.56342116168E+03  0.56342116168E+03  0.00000000000E+00 0.  1.
    9000007    1    1    2  501    0 -0.14268391826E+03  0.10526706695E+03  0.21767277483E+03  0.48869345485E+03  0.40000000000E+03 0.  1.
   -9000007    1    1    2    0  503  0.14268391826E+03 -0.10526706695E+03 -0.31606517170E+03  0.53975647164E+03  0.40000000000E+03 0.  1.
<mgrwt>
<rscale>  2 0.43753841E+03</rscale>
<asrwt>0</asrwt>
<pdfrwt beam="1">  1       21 0.71542887E-01 0.43753841E+03</pdfrwt>
<pdfrwt beam="2">  1       21 0.86680179E-01 0.43753841E+03</pdfrwt>
<totfact> 0.17498016E+03</totfact>
</mgrwt>
</event>
<event>
 4    1  0.5003329E-002  0.5078664E+03  0.7818608E-02  0.1011746E+00
         21   -1    0    0  503  502  0.00000000000E+00  0.00000000000E+00  0.11559228783E+04  0.11559228783E+04  0.00000000000E+00 0.  1.
         21   -1    0    0  501  503 -0.00000000000E+00 -0.00000000000E+00 -0.32448864064E+03  0.32448864064E+03  0.00000000000E+00 0.  1.
    9000007    1    1    2  501    0 -0.55670095346E+02  0.30794344580E+03  0.82940200631E+03  0.97254100859E+03  0.40000000000E+03 0.  1.
   -9000007    1    1    2    0  502  0.55670095346E+02 -0.30794344580E+03  0.20322313741E+01  0.50787051036E+03  0.40000000000E+03 0.  1.
<mgrwt>
<rscale>  2 0.50786644E+03</rscale>
<asrwt>0</asrwt>
<pdfrwt beam="1">  1       21 0.17783429E+00 0.50786644E+03</pdfrwt>
<pdfrwt beam="2">  1       21 0.49921330E-01 0.50786644E+03</pdfrwt>
<totfact> 0.58302557E+02</totfact>
</mgrwt>
</event>
<event>
 4    1  0.5003329E-002  0.4241815E+03  0.7818608E-02  0.1035714E+00
         21   -1    0    0  501  502  0.00000000000E+00  0.00000000000E+00  0.61858851155E+03  0.61858851155E+03  0.00000000000E+00 0. -1.
         21   -1    0    0  502  503 -0.00000000000E+00 -0.00000000000E+00 -0.30208038867E+03  0.30208038867E+03  0.00000000000E+00 0. -1.
    9000007    1    1    2  501    0 -0.14069654579E+03 -0.11593592274E+02  0.69581665548E+02  0.42985059911E+03  0.40000000000E+03 0.  1.
   -9000007    1    1    2    0  503  0.14069654579E+03  0.11593592274E+02  0.24692645733E+03  0.49081830111E+03  0.40000000000E+03 0.  1.
<mgrwt>
<rscale>  2 0.42418148E+03</rscale>
<asrwt>0</asrwt>
<pdfrwt beam="1">  1       21 0.95167463E-01 0.42418148E+03</pdfrwt>
<pdfrwt beam="2">  1       21 0.46473906E-01 0.42418148E+03</pdfrwt>
<totfact> 0.36040184E+03</totfact>
</mgrwt>
</event>
<event>
 4    1  0.5003329E-002  0.7003120E+03  0.7818608E-02  0.9716699E-01
         21   -1    0    0  503  502  0.00000000000E+00  0.00000000000E+00  0.34258000794E+03  0.34258000794E+03  0.00000000000E+00 0. -1.
         21   -1    0    0  501  503 -0.00000000000E+00 -0.00000000000E+00 -0.15758075157E+04  0.15758075157E+04  0.00000000000E+00 0.  1.
    9000007    1    1    2  501    0  0.50083466415E+02 -0.57265046282E+03 -0.90678307435E+03  0.11457279128E+04  0.40000000000E+03 0.  1.
   -9000007    1    1    2    0  502 -0.50083466415E+02  0.57265046282E+03 -0.32644443341E+03  0.77265961088E+03  0.40000000000E+03 0. -1.
<mgrwt>
<rscale>  2 0.70031201E+03</rscale>
<asrwt>0</asrwt>
<pdfrwt beam="1">  1       21 0.52704617E-01 0.70031201E+03</pdfrwt>
<pdfrwt beam="2">  1       21 0.24243192E+00 0.70031201E+03</pdfrwt>
<totfact> 0.17969263E+02</totfact>
</mgrwt>
</event>
<event>
 4    1  0.5003329E-002  0.4729894E+03  0.7818608E-02  0.1021080E+00
         21   -1    0    0  501  502  0.00000000000E+00  0.00000000000E+00  0.11912055356E+04  0.11912055356E+04  0.00000000000E+00 0. -1.
         21   -1    0    0  502  503 -0.00000000000E+00 -0.00000000000E+00 -0.21059113738E+03  0.21059113738E+03  0.00000000000E+00 0.  1.
    9000007    1    1    2  501    0 -0.24650403198E+03 -0.54357455448E+02  0.72084036537E+03  0.86216576312E+03  0.40000000000E+03 0. -1.
   -9000007    1    1    2    0  503  0.24650403198E+03  0.54357455448E+02  0.25977403285E+03  0.53963090987E+03  0.40000000000E+03 0.  1.
<mgrwt>
<rscale>  2 0.47298940E+03</rscale>
<asrwt>0</asrwt>
<pdfrwt beam="1">  1       21 0.18326239E+00 0.47298940E+03</pdfrwt>
<pdfrwt beam="2">  1       21 0.32398637E-01 0.47298940E+03</pdfrwt>
<totfact> 0.13233289E+03</totfact>
</mgrwt>
</event>
<event>
 4    1  0.5003329E-002  0.4271370E+03  0.7818608E-02  0.1034768E+00
         21   -1    0    0  501  502  0.00000000000E+00  0.00000000000E+00  0.29901303401E+03  0.29901303401E+03  0.00000000000E+00 0. -1.
         21   -1    0    0  502  503 -0.00000000000E+00 -0.00000000000E+00 -0.70343348098E+03  0.70343348098E+03  0.00000000000E+00 0. -1.
    9000007    1    1    2  501    0 -0.63950899349E+02  0.13548556752E+03 -0.19695991054E+02  0.42759091267E+03  0.40000000000E+03 0. -1.
   -9000007    1    1    2    0  503  0.63950899349E+02 -0.13548556752E+03 -0.38472445592E+03  0.57485560232E+03  0.40000000000E+03 0. -1.
<mgrwt>
<rscale>  2 0.42713705E+03</rscale>
<asrwt>0</asrwt>
<pdfrwt beam="1">  1       21 0.46002006E-01 0.42713705E+03</pdfrwt>
<pdfrwt beam="2">  1       21 0.10822053E+00 0.42713705E+03</pdfrwt>
<totfact> 0.26894657E+03</totfact>
</mgrwt>
</event>
<event>
 4    1  0.5003329E-002  0.5162753E+03  0.7818608E-02  0.1009616E+00
         21   -1    0    0  503  502  0.00000000000E+00  0.00000000000E+00  0.10800256074E+04  0.10800256074E+04  0.00000000000E+00 0.  1.
         21   -1    0    0  501  503 -0.00000000000E+00 -0.00000000000E+00 -0.24990347048E+03  0.24990347048E+03  0.00000000000E+00 0.  1.
    9000007    1    1    2  501    0  0.25676470865E+03 -0.20152435054E+03  0.34084599782E+03  0.61864058523E+03  0.40000000000E+03 0.  1.
   -9000007    1    1    2    0  502 -0.25676470865E+03  0.20152435054E+03  0.48927613911E+03  0.71128849265E+03  0.40000000000E+03 0.  1.
<mgrwt>
<rscale>  2 0.51627529E+03</rscale>
<asrwt>0</asrwt>
<pdfrwt beam="1">  1       21 0.16615778E+00 0.51627529E+03</pdfrwt>
<pdfrwt beam="2">  1       21 0.38446688E-01 0.51627529E+03</pdfrwt>
<totfact> 0.12204682E+03</totfact>
</mgrwt>
</event>
<event>
 4    1  0.5003329E-002  0.4594386E+03  0.7818608E-02  0.1024944E+00
         21   -1    0    0  503  502  0.00000000000E+00  0.00000000000E+00  0.66612109111E+03  0.66612109111E+03  0.00000000000E+00 0. -1.
         21   -1    0    0  501  503 -0.00000000000E+00 -0.00000000000E+00 -0.59314122361E+03  0.59314122361E+03  0.00000000000E+00 0. -1.
    9000007    1    1    2  501    0  0.35555719181E+02  0.22320312467E+03 -0.39320785496E+03  0.60472825404E+03  0.40000000000E+03 0. -1.
   -9000007    1    1    2    0  502 -0.35555719181E+02 -0.22320312467E+03  0.46618772246E+03  0.65453406069E+03  0.40000000000E+03 0. -1.
<mgrwt>
<rscale>  2 0.45943862E+03</rscale>
<asrwt>0</asrwt>
<pdfrwt beam="1">  1       21 0.10248017E+00 0.45943862E+03</pdfrwt>
<pdfrwt beam="2">  1       21 0.91252496E-01 0.45943862E+03</pdfrwt>
<totfact> 0.66099425E+02</totfact>
</mgrwt>
</event>
<event>
 4    1  0.5003329E-002  0.4929011E+03  0.7818608E-02  0.1015649E+00
         21   -1    0    0  503  502  0.00000000000E+00  0.00000000000E+00  0.62076763314E+03  0.62076763314E+03  0.00000000000E+00 0. -1.
         21   -1    0    0  501  503 -0.00000000000E+00 -0.00000000000E+00 -0.39529045642E+03  0.39529045642E+03  0.00000000000E+00 0.  1.
    9000007    1    1    2  501    0  0.18989568017E+03 -0.21654368923E+03  0.62162404870E+02  0.49680549843E+03  0.40000000000E+03 0.  1.
   -9000007    1    1    2    0  502 -0.18989568017E+03  0.21654368923E+03  0.16331477185E+03  0.51925259113E+03  0.40000000000E+03 0. -1.
<mgrwt>
<rscale>  2 0.49290114E+03</rscale>
<asrwt>0</asrwt>
<pdfrwt beam="1">  1       21 0.95502713E-01 0.49290114E+03</pdfrwt>
<pdfrwt beam="2">  1       21 0.60813916E-01 0.49290114E+03</pdfrwt>
<totfact> 0.19563228E+03</totfact>
</mgrwt>
</event>
<event>
 4    1  0.5003329E-002  0.4156929E+03  0.7818608E-02  0.1038477E+00
         21   -1    0    0  501  502  0.00000000000E+00  0.00000000000E+00  0.12365051899E+04  0.12365051899E+04  0.00000000000E+00 0.  1.
         21   -1    0    0  502  503 -0.00000000000E+00 -0.00000000000E+00 -0.14309157474E+03  0.14309157474E+03  0.00000000000E+00 0.  1.
    9000007    1    1    2  501    0  0.24952294413E+02 -0.11035374765E+03  0.65213215640E+03  0.77335432761E+03  0.40000000000E+03 0.  1.
   -9000007    1    1    2    0  503 -0.24952294413E+02  0.11035374765E+03  0.44128145874E+03  0.60624243702E+03  0.40000000000E+03 0.  1.
<mgrwt>
<rscale>  2 0.41569288E+03</rscale>
<asrwt>0</asrwt>
<pdfrwt beam="1">  1       21 0.19023156E+00 0.41569288E+03</pdfrwt>
<pdfrwt beam="2">  1       21 0.22014089E-01 0.41569288E+03</pdfrwt>
<totfact> 0.25897997E+03</totfact>
</mgrwt>
</event>
<event>
 4    1  0.5003329E-002  0.4458877E+03  0.7818608E-02  0.1028956E+00
         21   -1    0    0  503  502  0.00000000000E+00  0.00000000000E+00  0.15371806081E+03  0.15371806081E+03  0.00000000000E+00 0.  1.
         21   -1    0    0  501  503 -0.00000000000E+00 -0.00000000000E+00 -0.13005023174E+04  0.13005023174E+04  0.00000000000E+00 0.  1.
    9000007    1    1    2  501    0 -0.68365672581E+02  0.18477550564E+03 -0.62720149368E+03  0.76954373908E+03  0.40000000000E+03 0.  1.
   -9000007    1    1    2    0  502  0.68365672581E+02 -0.18477550564E+03 -0.51958276289E+03  0.68467663913E+03  0.40000000000E+03 0.  1.
<mgrwt>
<rscale>  2 0.44588771E+03</rscale>
<asrwt>0</asrwt>
<pdfrwt beam="1">  1       21 0.23648932E-01 0.44588771E+03</pdfrwt>
<pdfrwt beam="2">  1       21 0.20007729E+00 0.44588771E+03</pdfrwt>
<totfact> 0.19109253E+03</totfact>
</mgrwt>
</event>
<event>
 4    1  0.5003329E-002  0.4848658E+03  0.7818608E-02  0.1017806E+00
         21   -1    0    0  503  502  0.00000000000E+00  0.00000000000E+00  0.41230099924E+03  0.41230099924E+03  0.00000000000E+00 0.  1.
         21   -1    0    0  501  503 -0.00000000000E+00 -0.00000000000E+00 -0.61691277764E+03  0.61691277764E+03  0.00000000000E+00 0.  1.
    9000007    1    1    2  501    0  0.12334525296E+03 -0.24470555407E+03  0.39297028530E+02  0.48645566712E+03  0.40000000000E+03 0.  1.
   -9000007    1    1    2    0  502 -0.12334525296E+03  0.24470555407E+03 -0.24390880693E+03  0.54275810977E+03  0.40000000000E+03 0.  1.
<mgrwt>
<rscale>  2 0.48486582E+03</rscale>
<asrwt>0</asrwt>
<pdfrwt beam="1">  1       21 0.63430923E-01 0.48486582E+03</pdfrwt>
<pdfrwt beam="2">  1       21 0.94909658E-01 0.48486582E+03</pdfrwt>
<totfact> 0.18144677E+03</totfact>
</mgrwt>
</event>
<event>
 4    1  0.5003329E-002  0.4767541E+03  0.7818608E-02  0.1020031E+00
         21   -1    0    0  501  502  0.00000000000E+00  0.00000000000E+00  0.60036476154E+03  0.60036476154E+03  0.00000000000E+00 0. -1.
         21   -1    0    0  502  503 -0.00000000000E+00 -0.00000000000E+00 -0.59652174217E+03  0.59652174217E+03  0.00000000000E+00 0. -1.
    9000007    1    1    2  501    0  0.16518485995E+02 -0.25888530043E+03  0.36363620832E+03  0.59960466239E+03  0.40000000000E+03 0. -1.
   -9000007    1    1    2    0  503 -0.16518485995E+02  0.25888530043E+03 -0.35979318894E+03  0.59728184132E+03  0.40000000000E+03 0. -1.
<mgrwt>
<rscale>  2 0.47675409E+03</rscale>
<asrwt>0</asrwt>
<pdfrwt beam="1">  1       21 0.92363810E-01 0.47675409E+03</pdfrwt>
<pdfrwt beam="2">  1       21 0.91772576E-01 0.47675409E+03</pdfrwt>
<totfact> 0.83219752E+02</totfact>
</mgrwt>
</event>
<event>
 4    1  0.5003329E-002  0.6944427E+03  0.7818608E-02  0.9726783E-01
         21   -1    0    0  503  502  0.00000000000E+00  0.00000000000E+00  0.25113452601E+03  0.25113452601E+03  0.00000000000E+00 0. -1.
         21   -1    0    0  501  503 -0.00000000000E+00 -0.00000000000E+00 -0.22102954068E+04  0.22102954068E+04  0.00000000000E+00 0.  1.
    9000007    1    1    2  501    0 -0.41938878132E+03  0.38257510578E+03 -0.14253770209E+04  0.15855441694E+04  0.40000000000E+03 0.  1.
   -9000007    1    1    2    0  502  0.41938878132E+03 -0.38257510578E+03 -0.53378385992E+03  0.87588576342E+03  0.40000000000E+03 0. -1.
<mgrwt>
<rscale>  2 0.69444270E+03</rscale>
<asrwt>0</asrwt>
<pdfrwt beam="1">  1       21 0.38636080E-01 0.69444270E+03</pdfrwt>
<pdfrwt beam="2">  1       21 0.34004546E+00 0.69444270E+03</pdfrwt>
<totfact> 0.86752973E+01</totfact>
</mgrwt>
</event>
<event>
 4    1  0.5003329E-002  0.4197175E+03  0.7818608E-02  0.1037158E+00
         21   -1    0    0  501  502  0.00000000000E+00  0.00000000000E+00  0.23975856772E+03  0.23975856772E+03  0.00000000000E+00 0.  1.
         21   -1    0    0  502  503 -0.00000000000E+00 -0.00000000000E+00 -0.10473460108E+04  0.10473460108E+04  0.00000000000E+00 0. -1.
    9000007    1    1    2  501    0 -0.70563657219E+02 -0.10575236197E+03 -0.52209051684E+02  0.42295221581E+03  0.40000000000E+03 0.  1.
   -9000007    1    1    2    0  503  0.70563657219E+02  0.10575236197E+03 -0.75537839140E+03  0.86415236271E+03  0.40000000000E+03 0. -1.
<mgrwt>
<rscale>  2 0.41971751E+03</rscale>
<asrwt>0</asrwt>
<pdfrwt beam="1">  1       21 0.36885934E-01 0.41971751E+03</pdfrwt>
<pdfrwt beam="2">  1       21 0.16113015E+00 0.41971751E+03</pdfrwt>
<totfact> 0.15061070E+03</totfact>
</mgrwt>
</event>
<event>
 4    1  0.5003329E-002  0.4179219E+03  0.7818608E-02  0.1037745E+00
         21   -1    0    0  503  502  0.00000000000E+00  0.00000000000E+00  0.11278421973E+04  0.11278421973E+04  0.00000000000E+00 0.  1.
         21   -1    0    0  501  503 -0.00000000000E+00 -0.00000000000E+00 -0.15574903022E+03  0.15574903022E+03  0.00000000000E+00 0.  1.
    9000007    1    1    2  501    0  0.11409065221E+03 -0.40521908842E+02  0.53450986212E+03  0.67849796958E+03  0.40000000000E+03 0.  1.
   -9000007    1    1    2    0  502 -0.11409065221E+03  0.40521908842E+02  0.43758330491E+03  0.60509325790E+03  0.40000000000E+03 0.  1.
<mgrwt>
<rscale>  2 0.41792189E+03</rscale>
<asrwt>0</asrwt>
<pdfrwt beam="1">  1       21 0.17351418E+00 0.41792189E+03</pdfrwt>
<pdfrwt beam="2">  1       21 0.23961390E-01 0.41792189E+03</pdfrwt>
<totfact> 0.28762071E+03</totfact>
</mgrwt>
</event>
<event>
 4    1  0.5003329E-002  0.9674429E+03  0.7818608E-02  0.9344992E-01
         21   -1    0    0  501  502  0.00000000000E+00  0.00000000000E+00  0.14591975030E+04  0.14591975030E+04  0.00000000000E+00 0. -1.
         21   -1    0    0  502  503 -0.00000000000E+00 -0.00000000000E+00 -0.93262527751E+03  0.93262527751E+03  0.00000000000E+00 0.  1.
    9000007    1    1    2  501    0 -0.61168113579E+03 -0.63387066391E+03  0.93155537692E+03  0.13430343446E+04  0.40000000000E+03 0. -1.
   -9000007    1    1    2    0  503  0.61168113579E+03  0.63387066391E+03 -0.40498315141E+03  0.10487884359E+04  0.40000000000E+03 0.  1.
<mgrwt>
<rscale>  2 0.96744293E+03</rscale>
<asrwt>0</asrwt>
<pdfrwt beam="1">  1       21 0.22449192E+00 0.96744293E+03</pdfrwt>
<pdfrwt beam="2">  1       21 0.14348081E+00 0.96744293E+03</pdfrwt>
<totfact> 0.19323310E+01</totfact>
</mgrwt>
</event>
<event>
 4    1  0.5003329E-002  0.4579843E+03  0.7818608E-02  0.1025367E+00
         21   -1    0    0  503  502  0.00000000000E+00  0.00000000000E+00  0.22280266865E+03  0.22280266865E+03  0.00000000000E+00 0.  1.
         21   -1    0    0  501  503 -0.00000000000E+00 -0.00000000000E+00 -0.95724038155E+03  0.95724038155E+03  0.00000000000E+00 0.  1.
    9000007    1    1    2  501    0  0.18833516279E+03  0.11949671033E+03 -0.44308453461E+03  0.63723896784E+03  0.40000000000E+03 0.  1.
   -9000007    1    1    2    0  502 -0.18833516279E+03 -0.11949671033E+03 -0.29135317829E+03  0.54280408235E+03  0.40000000000E+03 0.  1.
<mgrwt>
<rscale>  2 0.45798428E+03</rscale>
<asrwt>0</asrwt>
<pdfrwt beam="1">  1       21 0.34277333E-01 0.45798428E+03</pdfrwt>
<pdfrwt beam="2">  1       21 0.14726775E+00 0.45798428E+03</pdfrwt>
<totfact> 0.22012278E+03</totfact>
</mgrwt>
</event>
<event>
 4    1  0.5003329E-002  0.5365782E+03  0.7818608E-02  0.1004649E+00
         21   -1    0    0  501  502  0.00000000000E+00  0.00000000000E+00  0.18240214277E+03  0.18240214277E+03  0.00000000000E+00 0. -1.
         21   -1    0    0  502  503 -0.00000000000E+00 -0.00000000000E+00 -0.15909496748E+04  0.15909496748E+04  0.00000000000E+00 0.  1.
    9000007    1    1    2  501    0  0.24512714417E+03 -0.26043971712E+03 -0.78280679830E+03  0.94905355303E+03  0.40000000000E+03 0. -1.
   -9000007    1    1    2    0  503 -0.24512714417E+03  0.26043971712E+03 -0.62574073371E+03  0.82429826452E+03  0.40000000000E+03 0. -1.
<mgrwt>
<rscale>  2 0.53657820E+03</rscale>
<asrwt>0</asrwt>
<pdfrwt beam="1">  1       21 0.28061869E-01 0.53657820E+03</pdfrwt>
<pdfrwt beam="2">  1       21 0.24476148E+00 0.53657820E+03</pdfrwt>
<totfact> 0.68022375E+02</totfact>
</mgrwt>
</event>
<event>
 4    1  0.5003329E-002  0.6500135E+03  0.7818608E-02  0.9806754E-01
         21   -1    0    0  501  502  0.00000000000E+00  0.00000000000E+00  0.88468397397E+03  0.88468397397E+03  0.00000000000E+00 0. -1.
         21   -1    0    0  502  503 -0.00000000000E+00 -0.00000000000E+00 -0.84574759048E+03  0.84574759048E+03  0.00000000000E+00 0.  1.
    9000007    1    1    2  501    0 -0.41248597224E+03 -0.30392903856E+03  0.59031561952E+03  0.87806040135E+03  0.40000000000E+03 0. -1.
   -9000007    1    1    2    0  503  0.41248597224E+03  0.30392903856E+03 -0.55137923603E+03  0.85237116311E+03  0.40000000000E+03 0.  1.
<mgrwt>
<rscale>  2 0.65001349E+03</rscale>
<asrwt>0</asrwt>
<pdfrwt beam="1">  1       21 0.13610523E+00 0.65001349E+03</pdfrwt>
<pdfrwt beam="2">  1       21 0.13011501E+00 0.65001349E+03</pdfrwt>
<totfact> 0.12298215E+02</totfact>
</mgrwt>
</event>
<event>
 4    1  0.5003329E-002  0.4062196E+03  0.7818608E-02  0.1041647E+00
         21   -1    0    0  501  502  0.00000000000E+00  0.00000000000E+00  0.29364330813E+03  0.29364330813E+03  0.00000000000E+00 0.  1.
         21   -1    0    0  502  503 -0.00000000000E+00 -0.00000000000E+00 -0.10540718320E+04  0.10540718320E+04  0.00000000000E+00 0.  1.
    9000007    1    1    2  501    0 -0.30671193274E+02  0.63824918540E+02  0.80219426181E+02  0.41406460687E+03  0.40000000000E+03 0.  1.
   -9000007    1    1    2    0  503  0.30671193274E+02 -0.63824918540E+02 -0.84064795002E+03  0.93365053322E+03  0.40000000000E+03 0.  1.
<mgrwt>
<rscale>  2 0.40621957E+03</rscale>
<asrwt>0</asrwt>
<pdfrwt beam="1">  1       21 0.45175893E-01 0.40621957E+03</pdfrwt>
<pdfrwt beam="2">  1       21 0.16216490E+00 0.40621957E+03</pdfrwt>
<totfact> 0.98004730E+02</totfact>
</mgrwt>
</event>
<event>
 4    1  0.5003329E-002  0.4658279E+03  0.7818608E-02  0.1023104E+00
         21   -1    0    0  503  502  0.00000000000E+00  0.00000000000E+00  0.25603513745E+03  0.25603513745E+03  0.00000000000E+00 0.  1.
         21   -1    0    0  501  503 -0.00000000000E+00 -0.00000000000E+00 -0.85716348153E+03  0.85716348153E+03  0.00000000000E+00 0. -1.
    9000007    1    1    2  501    0 -0.22753710370E+03  0.72266718217E+02 -0.35959312702E+03  0.58847500297E+03  0.40000000000E+03 0.  1.
   -9000007    1    1    2    0  502  0.22753710370E+03 -0.72266718217E+02 -0.24153521706E+03  0.52472361601E+03  0.40000000000E+03 0. -1.
<mgrwt>
<rscale>  2 0.46582788E+03</rscale>
<asrwt>0</asrwt>
<pdfrwt beam="1">  1       21 0.39390022E-01 0.46582788E+03</pdfrwt>
<pdfrwt beam="2">  1       21 0.13187130E+00 0.46582788E+03</pdfrwt>
<totfact> 0.22167636E+03</totfact>
</mgrwt>
</event>
<event>
 4    1  0.5003329E-002  0.4839026E+03  0.7818608E-02  0.1018068E+00
         21   -1    0    0  501  502  0.00000000000E+00  0.00000000000E+00  0.39461603871E+03  0.39461603871E+03  0.00000000000E+00 0. -1.
         21   -1    0    0  502  503 -0.00000000000E+00 -0.00000000000E+00 -0.10251985875E+04  0.10251985875E+04  0.00000000000E+00 0. -1.
    9000007    1    1    2  501    0 -0.26437350193E+03 -0.65332568279E+02  0.14543467543E+03  0.50528500652E+03  0.40000000000E+03 0. -1.
   -9000007    1    1    2    0  503  0.26437350193E+03  0.65332568279E+02 -0.77601722419E+03  0.91452961966E+03  0.40000000000E+03 0. -1.
<mgrwt>
<rscale>  2 0.48390257E+03</rscale>
<asrwt>0</asrwt>
<pdfrwt beam="1">  1       21 0.60710160E-01 0.48390257E+03</pdfrwt>
<pdfrwt beam="2">  1       21 0.15772286E+00 0.48390257E+03</pdfrwt>
<totfact> 0.54248070E+02</totfact>
</mgrwt>
</event>
<event>
 4    1  0.5003329E-002  0.4046006E+03  0.7818608E-02  0.1042198E+00
         21   -1    0    0  503  502  0.00000000000E+00  0.00000000000E+00  0.17289022852E+04  0.17289022852E+04  0.00000000000E+00 0. -1.
         21   -1    0    0  501  503 -0.00000000000E+00 -0.00000000000E+00 -0.15145419283E+03  0.15145419283E+03  0.00000000000E+00 0. -1.
    9000007    1    1    2  501    0 -0.49895355238E+02  0.34815742117E+02  0.21311893160E+03  0.45729789129E+03  0.40000000000E+03 0. -1.
   -9000007    1    1    2    0  502  0.49895355238E+02 -0.34815742117E+02  0.13643291607E+04  0.14230585867E+04  0.40000000000E+03 0. -1.
<mgrwt>
<rscale>  2 0.40460065E+03</rscale>
<asrwt>0</asrwt>
<pdfrwt beam="1">  1       21 0.26598495E+00 0.40460065E+03</pdfrwt>
<pdfrwt beam="2">  1       21 0.23300646E-01 0.40460065E+03</pdfrwt>
<totfact> 0.77386754E+02</totfact>
</mgrwt>
</event>
<event>
 4    1  0.5003329E-002  0.4416128E+03  0.7818608E-02  0.1030253E+00
         21   -1    0    0  501  502  0.00000000000E+00  0.00000000000E+00  0.79267258806E+03  0.79267258806E+03  0.00000000000E+00 0. -1.
         21   -1    0    0  502  503 -0.00000000000E+00 -0.00000000000E+00 -0.39392523756E+03  0.39392523756E+03  0.00000000000E+00 0. -1.
    9000007    1    1    2  501    0 -0.18641393064E+03 -0.16482929563E+02  0.56290565889E+03  0.71546112495E+03  0.40000000000E+03 0. -1.
   -9000007    1    1    2    0  503  0.18641393064E+03  0.16482929563E+02 -0.16415830839E+03  0.47113670067E+03  0.40000000000E+03 0. -1.
<mgrwt>
<rscale>  2 0.44161277E+03</rscale>
<asrwt>0</asrwt>
<pdfrwt beam="1">  1       21 0.12194963E+00 0.44161277E+03</pdfrwt>
<pdfrwt beam="2">  1       21 0.60603883E-01 0.44161277E+03</pdfrwt>
<totfact> 0.10975998E+03</totfact>
</mgrwt>
</event>
<event>
 4    1  0.5003329E-002  0.6147682E+03  0.7818608E-02  0.9875232E-01
         21   -1    0    0  501  502  0.00000000000E+00  0.00000000000E+00  0.52910195583E+03  0.52910195583E+03  0.00000000000E+00 0.  1.
         21   -1    0    0  502  503 -0.00000000000E+00 -0.00000000000E+00 -0.12936467153E+04  0.12936467153E+04  0.00000000000E+00 0. -1.
    9000007    1    1    2  501    0 -0.37453544898E+03  0.27868100868E+03  0.22762467768E+03  0.65555541415E+03  0.40000000000E+03 0.  1.
   -9000007    1    1    2    0  503  0.37453544898E+03 -0.27868100868E+03 -0.99216943720E+03  0.11671932570E+04  0.40000000000E+03 0. -1.
<mgrwt>
<rscale>  2 0.61476817E+03</rscale>
<asrwt>0</asrwt>
<pdfrwt beam="1">  1       21 0.81400302E-01 0.61476817E+03</pdfrwt>
<pdfrwt beam="2">  1       21 0.19902257E+00 0.61476817E+03</pdfrwt>
<totfact> 0.13392269E+02</totfact>
</mgrwt>
</event>
<event>
 4    1  0.5003329E-002  0.5464988E+03  0.7818608E-02  0.1002308E+00
         21   -1    0    0  503  502  0.00000000000E+00  0.00000000000E+00  0.36961552348E+03  0.36961552348E+03  0.00000000000E+00 0.  1.
         21   -1    0    0  501  503 -0.00000000000E+00 -0.00000000000E+00 -0.87013289610E+03  0.87013289610E+03  0.00000000000E+00 0. -1.
    9000007    1    1    2  501    0 -0.14501997259E+03 -0.34297250491E+03 -0.41585931040E+03  0.68673131400E+03  0.40000000000E+03 0. -1.
   -9000007    1    1    2    0  502  0.14501997259E+03  0.34297250491E+03 -0.84658062209E+02  0.55301710559E+03  0.40000000000E+03 0.  1.
<mgrwt>
<rscale>  2 0.54649879E+03</rscale>
<asrwt>0</asrwt>
<pdfrwt beam="1">  1       21 0.56863927E-01 0.54649879E+03</pdfrwt>
<pdfrwt beam="2">  1       21 0.13386660E+00 0.54649879E+03</pdfrwt>
<totfact> 0.95218889E+02</totfact>
</mgrwt>
</event>
<event>
 4    1  0.5003329E-002  0.4209151E+03  0.7818608E-02  0.1036769E+00
         21   -1    0    0  503  502  0.00000000000E+00  0.00000000000E+00  0.22055340386E+03  0.22055340386E+03  0.00000000000E+00 0. -1.
         21   -1    0    0  501  503 -0.00000000000E+00 -0.00000000000E+00 -0.80352710107E+03  0.80352710107E+03  0.00000000000E+00 0. -1.
    9000007    1    1    2  501    0 -0.12799021048E+03 -0.28071659444E+02 -0.30018374801E+03  0.51699109723E+03  0.40000000000E+03 0. -1.
   -9000007    1    1    2    0  502  0.12799021048E+03  0.28071659444E+02 -0.28278994919E+03  0.50708940771E+03  0.40000000000E+03 0. -1.
<mgrwt>
<rscale>  2 0.42091509E+03</rscale>
<asrwt>0</asrwt>
<pdfrwt beam="1">  1       21 0.33931293E-01 0.42091509E+03</pdfrwt>
<pdfrwt beam="2">  1       21 0.12361955E+00 0.42091509E+03</pdfrwt>
<totfact> 0.36084001E+03</totfact>
</mgrwt>
</event>
<event>
 4    1  0.5003329E-002  0.4239715E+03  0.7818608E-02  0.1035781E+00
         21   -1    0    0  503  502  0.00000000000E+00  0.00000000000E+00  0.46252931252E+03  0.46252931252E+03  0.00000000000E+00 0. -1.
         21   -1    0    0  501  503 -0.00000000000E+00 -0.00000000000E+00 -0.46537852353E+03  0.46537852353E+03  0.00000000000E+00 0. -1.
    9000007    1    1    2  501    0 -0.12289055182E+03  0.68188833234E+02 -0.18983834850E+03  0.46453245663E+03  0.40000000000E+03 0. -1.
   -9000007    1    1    2    0  502  0.12289055182E+03 -0.68188833234E+02  0.18698913749E+03  0.46337537941E+03  0.40000000000E+03 0. -1.
<mgrwt>
<rscale>  2 0.42397147E+03</rscale>
<asrwt>0</asrwt>
<pdfrwt beam="1">  1       21 0.71158356E-01 0.42397147E+03</pdfrwt>
<pdfrwt beam="2">  1       21 0.71596696E-01 0.42397147E+03</pdfrwt>
<totfact> 0.27646090E+03</totfact>
</mgrwt>
</event>
<event>
 4    1  0.5003329E-002  0.4143711E+03  0.7818608E-02  0.1038914E+00
         21   -1    0    0  503  502  0.00000000000E+00  0.00000000000E+00  0.60371797596E+03  0.60371797596E+03  0.00000000000E+00 0. -1.
         21   -1    0    0  501  503 -0.00000000000E+00 -0.00000000000E+00 -0.31798561686E+03  0.31798561686E+03  0.00000000000E+00 0. -1.
    9000007    1    1    2  501    0  0.59019790163E+02  0.90664393181E+02 -0.68849848399E+01  0.41442824570E+03  0.40000000000E+03 0. -1.
   -9000007    1    1    2    0  502 -0.59019790163E+02 -0.90664393181E+02  0.29261734394E+03  0.50727534712E+03  0.40000000000E+03 0. -1.
<mgrwt>
<rscale>  2 0.41437105E+03</rscale>
<asrwt>0</asrwt>
<pdfrwt beam="1">  1       21 0.92879688E-01 0.41437105E+03</pdfrwt>
<pdfrwt beam="2">  1       21 0.48920864E-01 0.41437105E+03</pdfrwt>
<totfact> 0.34403180E+03</totfact>
</mgrwt>
</event>
<event>
 4    1  0.5003329E-002  0.4761776E+03  0.7818608E-02  0.1020191E+00
         21   -1    0    0  503  502  0.00000000000E+00  0.00000000000E+00  0.55209658202E+03  0.55209658202E+03  0.00000000000E+00 0. -1.
         21   -1    0    0  501  503 -0.00000000000E+00 -0.00000000000E+00 -0.41143164271E+03  0.41143164271E+03  0.00000000000E+00 0. -1.
    9000007    1    1    2  501    0 -0.22446248321E+02 -0.25737388371E+03  0.90671351470E+02  0.48473337419E+03  0.40000000000E+03 0. -1.
   -9000007    1    1    2    0  502  0.22446248321E+02  0.25737388371E+03  0.49993587837E+02  0.47879485054E+03  0.40000000000E+03 0. -1.
<mgrwt>
<rscale>  2 0.47617765E+03</rscale>
<asrwt>0</asrwt>
<pdfrwt beam="1">  1       21 0.84937936E-01 0.47617765E+03</pdfrwt>
<pdfrwt beam="2">  1       21 0.63297176E-01 0.47617765E+03</pdfrwt>
<totfact> 0.23792149E+03</totfact>
</mgrwt>
</event>
<event>
 4    1  0.5003329E-002  0.4352608E+03  0.7818608E-02  0.1032211E+00
         21   -1    0    0  501  502  0.00000000000E+00  0.00000000000E+00  0.90048700171E+03  0.90048700171E+03  0.00000000000E+00 0.  1.
         21   -1    0    0  502  503 -0.00000000000E+00 -0.00000000000E+00 -0.27989144181E+03  0.27989144181E+03  0.00000000000E+00 0.  1.
    9000007    1    1    2  501    0 -0.16392153405E+03  0.50810429614E+02  0.60440016420E+03  0.74481643884E+03  0.40000000000E+03 0.  1.
   -9000007    1    1    2    0  503  0.16392153405E+03 -0.50810429614E+02  0.16195395701E+02  0.43556200468E+03  0.40000000000E+03 0.  1.
<mgrwt>
<rscale>  2 0.43526081E+03</rscale>
<asrwt>0</asrwt>
<pdfrwt beam="1">  1       21 0.13853646E+00 0.43526081E+03</pdfrwt>
<pdfrwt beam="2">  1       21 0.43060222E-01 0.43526081E+03</pdfrwt>
<totfact> 0.16393874E+03</totfact>
</mgrwt>
</event>
<event>
 4    1  0.5003329E-002  0.4295628E+03  0.7818608E-02  0.1033998E+00
         21   -1    0    0  503  502  0.00000000000E+00  0.00000000000E+00  0.42078967104E+03  0.42078967104E+03  0.00000000000E+00 0.  1.
         21   -1    0    0  501  503 -0.00000000000E+00 -0.00000000000E+00 -0.49083314286E+03  0.49083314286E+03  0.00000000000E+00 0.  1.
    9000007    1    1    2  501    0 -0.21676859071E-01 -0.15660203371E+03 -0.18383048992E+03  0.46724495338E+03  0.40000000000E+03 0.  1.
   -9000007    1    1    2    0  502  0.21676859071E-01  0.15660203371E+03  0.11378701810E+03  0.44437786052E+03  0.40000000000E+03 0.  1.
<mgrwt>
<rscale>  2 0.42956280E+03</rscale>
<asrwt>0</asrwt>
<pdfrwt beam="1">  1       21 0.64736873E-01 0.42956280E+03</pdfrwt>
<pdfrwt beam="2">  1       21 0.75512791E-01 0.42956280E+03</pdfrwt>
<totfact> 0.30206635E+03</totfact>
</mgrwt>
</event>
<event>
 4    1  0.5003329E-002  0.5596438E+03  0.7818608E-02  0.9992861E-01
         21   -1    0    0  503  502  0.00000000000E+00  0.00000000000E+00  0.34134106958E+03  0.34134106958E+03  0.00000000000E+00 0.  1.
         21   -1    0    0  501  503 -0.00000000000E+00 -0.00000000000E+00 -0.10461511556E+04  0.10461511556E+04  0.00000000000E+00 0. -1.
    9000007    1    1    2  501    0 -0.37285183378E+03  0.11909106004E+03 -0.59562970730E+03  0.81729793757E+03  0.40000000000E+03 0. -1.
   -9000007    1    1    2    0  502  0.37285183378E+03 -0.11909106004E+03 -0.10918037871E+03  0.57019428761E+03  0.40000000000E+03 0.  1.
<mgrwt>
<rscale>  2 0.55964379E+03</rscale>
<asrwt>0</asrwt>
<pdfrwt beam="1">  1       21 0.52514012E-01 0.55964379E+03</pdfrwt>
<pdfrwt beam="2">  1       21 0.16094633E+00 0.55964379E+03</pdfrwt>
<totfact> 0.68240063E+02</totfact>
</mgrwt>
</event>
<event>
 4    1  0.5003329E-002  0.5681821E+03  0.7818608E-02  0.9973709E-01
         21   -1    0    0  501  502  0.00000000000E+00  0.00000000000E+00  0.31207933820E+03  0.31207933820E+03  0.00000000000E+00 0.  1.
         21   -1    0    0  502  503 -0.00000000000E+00 -0.00000000000E+00 -0.13191560919E+04  0.13191560919E+04  0.00000000000E+00 0. -1.
    9000007    1    1    2  501    0  0.11568525164E+03  0.38658479750E+03 -0.12462849642E+03  0.58168990470E+03  0.40000000000E+03 0.  1.
   -9000007    1    1    2    0  503 -0.11568525164E+03 -0.38658479750E+03 -0.88244825724E+03  0.10495455254E+04  0.40000000000E+03 0. -1.
<mgrwt>
<rscale>  2 0.56818209E+03</rscale>
<asrwt>0</asrwt>
<pdfrwt beam="1">  1       21 0.48012207E-01 0.56818209E+03</pdfrwt>
<pdfrwt beam="2">  1       21 0.20294709E+00 0.56818209E+03</pdfrwt>
<totfact> 0.41511140E+02</totfact>
</mgrwt>
</event>
<event>
 4    1  0.5003329E-002  0.4060085E+03  0.7818608E-02  0.1041719E+00
         21   -1    0    0  501  502  0.00000000000E+00  0.00000000000E+00  0.11350385778E+04  0.11350385778E+04  0.00000000000E+00 0. -1.
         21   -1    0    0  502  503 -0.00000000000E+00 -0.00000000000E+00 -0.34049679706E+03  0.34049679706E+03  0.00000000000E+00 0. -1.
    9000007    1    1    2  501    0  0.63022976637E+02 -0.29513278951E+02  0.95596753780E+03  0.10386129513E+04  0.40000000000E+03 0. -1.
   -9000007    1    1    2    0  503 -0.63022976637E+02  0.29513278951E+02 -0.16142575703E+03  0.43692242361E+03  0.40000000000E+03 0. -1.
<mgrwt>
<rscale>  2 0.40600853E+03</rscale>
<asrwt>0</asrwt>
<pdfrwt beam="1">  1       21 0.17462132E+00 0.40600853E+03</pdfrwt>
<pdfrwt beam="2">  1       21 0.52384123E-01 0.40600853E+03</pdfrwt>
<totfact> 0.58145749E+02</totfact>
</mgrwt>
</event>
<event>
 4    1  0.5003329E-002  0.4191018E+03  0.7818608E-02  0.1037359E+00
         21   -1    0    0  503  502  0.00000000000E+00  0.00000000000E+00  0.15407260564E+03  0.15407260564E+03  0.00000000000E+00 0.  1.
         21   -1    0    0  501  503 -0.00000000000E+00 -0.00000000000E+00 -0.12180499839E+04  0.12180499839E+04  0.00000000000E+00 0.  1.
    9000007    1    1    2  501    0 -0.44963547382E+02 -0.11672431711E+03 -0.70563008430E+03  0.82070707483E+03  0.40000000000E+03 0. -1.
   -9000007    1    1    2    0  502  0.44963547382E+02  0.11672431711E+03 -0.35834729399E+03  0.55141551475E+03  0.40000000000E+03 0. -1.
<mgrwt>
<rscale>  2 0.41910176E+03</rscale>
<asrwt>0</asrwt>
<pdfrwt beam="1">  1       21 0.23703478E-01 0.41910176E+03</pdfrwt>
<pdfrwt beam="2">  1       21 0.18739230E+00 0.41910176E+03</pdfrwt>
<totfact> 0.23453862E+03</totfact>
</mgrwt>
</event>
<event>
 4    1  0.5003329E-002  0.4313646E+03  0.7818608E-02  0.1033430E+00
         21   -1    0    0  503  502  0.00000000000E+00  0.00000000000E+00  0.66566813002E+03  0.66566813002E+03  0.00000000000E+00 0.  1.
         21   -1    0    0  501  503 -0.00000000000E+00 -0.00000000000E+00 -0.31266613374E+03  0.31266613374E+03  0.00000000000E+00 0.  1.
    9000007    1    1    2  501    0 -0.98460884459E+02 -0.12798775620E+03  0.33574238770E+03  0.54662451683E+03  0.40000000000E+03 0.  1.
   -9000007    1    1    2    0  502  0.98460884459E+02  0.12798775620E+03  0.17259608584E+02  0.43170974693E+03  0.40000000000E+03 0.  1.
<mgrwt>
<rscale>  2 0.43136459E+03</rscale>
<asrwt>0</asrwt>
<pdfrwt beam="1">  1       21 0.10241048E+00 0.43136459E+03</pdfrwt>
<pdfrwt beam="2">  1       21 0.48102482E-01 0.43136459E+03</pdfrwt>
<totfact> 0.27993695E+03</totfact>
</mgrwt>
</event>
<event>
 4    1  0.5003329E-002  0.4234563E+03  0.7818608E-02  0.1035947E+00
         21   -1    0    0  501  502  0.00000000000E+00  0.00000000000E+00  0.10760236245E+04  0.10760236245E+04  0.00000000000E+00 0.  1.
         21   -1    0    0  502  503 -0.00000000000E+00 -0.00000000000E+00 -0.21294701858E+03  0.21294701858E+03  0.00000000000E+00 0.  1.
    9000007    1    1    2  501    0 -0.12779294926E+03 -0.54628080887E+02  0.73205700829E+03  0.84570841812E+03  0.40000000000E+03 0.  1.
   -9000007    1    1    2    0  503  0.12779294926E+03  0.54628080887E+02  0.13101959763E+03  0.44326222495E+03  0.40000000000E+03 0.  1.
<mgrwt>
<rscale>  2 0.42345633E+03</rscale>
<asrwt>0</asrwt>
<pdfrwt beam="1">  1       21 0.16554209E+00 0.42345633E+03</pdfrwt>
<pdfrwt beam="2">  1       21 0.32761080E-01 0.42345633E+03</pdfrwt>
<totfact> 0.17713200E+03</totfact>
</mgrwt>
</event>
<event>
 4    1  0.5003329E-002  0.4675892E+03  0.7818608E-02  0.1022603E+00
         21   -1    0    0  503  502  0.00000000000E+00  0.00000000000E+00  0.10951195692E+03  0.10951195692E+03  0.00000000000E+00 0. -1.
         21   -1    0    0  501  503 -0.00000000000E+00 -0.00000000000E+00 -0.19992320586E+04  0.19992320586E+04  0.00000000000E+00 0.  1.
    9000007    1    1    2  501    0  0.18442028668E+03 -0.15693582731E+03 -0.98389721613E+03  0.10893545924E+04  0.40000000000E+03 0. -1.
   -9000007    1    1    2    0  502 -0.18442028668E+03  0.15693582731E+03 -0.90582288557E+03  0.10193894232E+04  0.40000000000E+03 0. -1.
<mgrwt>
<rscale>  2 0.46758924E+03</rscale>
<asrwt>0</asrwt>
<pdfrwt beam="1">  1       21 0.16847994E-01 0.46758924E+03</pdfrwt>
<pdfrwt beam="2">  1       21 0.30757416E+00 0.46758924E+03</pdfrwt>
<totfact> 0.77773219E+02</totfact>
</mgrwt>
</event>
<event>
 4    1  0.5003329E-002  0.4953051E+03  0.7818608E-02  0.1015012E+00
         21   -1    0    0  501  502  0.00000000000E+00  0.00000000000E+00  0.82377763519E+03  0.82377763519E+03  0.00000000000E+00 0. -1.
         21   -1    0    0  502  503 -0.00000000000E+00 -0.00000000000E+00 -0.91854641950E+03  0.91854641950E+03  0.00000000000E+00 0.  1.
    9000007    1    1    2  501    0 -0.29153321007E+03 -0.18318455567E+02  0.66876373736E+03  0.83220917731E+03  0.40000000000E+03 0. -1.
   -9000007    1    1    2    0  503  0.29153321007E+03  0.18318455567E+02 -0.76353252167E+03  0.91011487739E+03  0.40000000000E+03 0.  1.
<mgrwt>
<rscale>  2 0.49530514E+03</rscale>
<asrwt>0</asrwt>
<pdfrwt beam="1">  1       21 0.12673502E+00 0.49530514E+03</pdfrwt>
<pdfrwt beam="2">  1       21 0.14131483E+00 0.49530514E+03</pdfrwt>
<totfact> 0.12705100E+02</totfact>
</mgrwt>
</event>
<event>
 4    1  0.5003329E-002  0.4432609E+03  0.7818608E-02  0.1029751E+00
         21   -1    0    0  503  502  0.00000000000E+00  0.00000000000E+00  0.30772667308E+03  0.30772667308E+03  0.00000000000E+00 0. -1.
         21   -1    0    0  501  503 -0.00000000000E+00 -0.00000000000E+00 -0.65542849328E+03  0.65542849328E+03  0.00000000000E+00 0.  1.
    9000007    1    1    2  501    0  0.17586348525E+03  0.74513540816E+02 -0.25127000435E+03  0.50952610168E+03  0.40000000000E+03 0. -1.
   -9000007    1    1    2    0  502 -0.17586348525E+03 -0.74513540816E+02 -0.96431815859E+02  0.45362906468E+03  0.40000000000E+03 0.  1.
<mgrwt>
<rscale>  2 0.44326091E+03</rscale>
<asrwt>0</asrwt>
<pdfrwt beam="1">  1       21 0.47342566E-01 0.44326091E+03</pdfrwt>
<pdfrwt beam="2">  1       21 0.10083515E+00 0.44326091E+03</pdfrwt>
<totfact> 0.29936368E+03</totfact>
</mgrwt>
</event>
<event>
 4    1  0.5003329E-002  0.4346510E+03  0.7818608E-02  0.1032401E+00
         21   -1    0    0  501  502  0.00000000000E+00  0.00000000000E+00  0.10084454835E+04  0.10084454835E+04  0.00000000000E+00 0. -1.
         21   -1    0    0  502  503 -0.00000000000E+00 -0.00000000000E+00 -0.18898426860E+03  0.18898426860E+03  0.00000000000E+00 0. -1.
    9000007    1    1    2  501    0  0.75187229571E+02  0.15253981641E+03  0.46558794791E+03  0.63694085465E+03  0.40000000000E+03 0. -1.
   -9000007    1    1    2    0  503 -0.75187229571E+02 -0.15253981641E+03  0.35387326699E+03  0.56048889746E+03  0.40000000000E+03 0. -1.
<mgrwt>
<rscale>  2 0.43465103E+03</rscale>
<asrwt>0</asrwt>
<pdfrwt beam="1">  1       21 0.15514546E+00 0.43465103E+03</pdfrwt>
<pdfrwt beam="2">  1       21 0.29074504E-01 0.43465103E+03</pdfrwt>
<totfact> 0.26788082E+03</totfact>
</mgrwt>
</event>
<event>
 4    1  0.5003329E-002  0.5059928E+03  0.7818608E-02  0.1012226E+00
         21   -1    0    0  501  502  0.00000000000E+00  0.00000000000E+00  0.80555611865E+03  0.80555611865E+03  0.00000000000E+00 0.  1.
         21   -1    0    0  502  503 -0.00000000000E+00 -0.00000000000E+00 -0.34883309587E+03  0.34883309587E+03  0.00000000000E+00 0.  1.
    9000007    1    1    2  501    0 -0.39563836131E+02  0.30734895203E+03  0.40044001173E+03  0.64527581578E+03  0.40000000000E+03 0.  1.
   -9000007    1    1    2    0  503  0.39563836131E+02 -0.30734895203E+03  0.56283011053E+02  0.50911339874E+03  0.40000000000E+03 0.  1.
<mgrwt>
<rscale>  2 0.50599276E+03</rscale>
<asrwt>0</asrwt>
<pdfrwt beam="1">  1       21 0.12393171E+00 0.50599276E+03</pdfrwt>
<pdfrwt beam="2">  1       21 0.53666630E-01 0.50599276E+03</pdfrwt>
<totfact> 0.13379537E+03</totfact>
</mgrwt>
</event>
<event>
 4    1  0.5003329E-002  0.4065639E+03  0.7818608E-02  0.1041530E+00
         21   -1    0    0  501  502  0.00000000000E+00  0.00000000000E+00  0.12718376135E+03  0.12718376135E+03  0.00000000000E+00 0.  1.
         21   -1    0    0  502  503 -0.00000000000E+00 -0.00000000000E+00 -0.13117731916E+04  0.13117731916E+04  0.00000000000E+00 0. -1.
    9000007    1    1    2  501    0 -0.50813345691E+02 -0.52078942376E+02 -0.52312437930E+03  0.66253553004E+03  0.40000000000E+03 0.  1.
   -9000007    1    1    2    0  503  0.50813345691E+02  0.52078942376E+02 -0.66146505092E+03  0.77642142289E+03  0.40000000000E+03 0. -1.
<mgrwt>
<rscale>  2 0.40656391E+03</rscale>
<asrwt>0</asrwt>
<pdfrwt beam="1">  1       21 0.19566731E-01 0.40656391E+03</pdfrwt>
<pdfrwt beam="2">  1       21 0.20181127E+00 0.40656391E+03</pdfrwt>
<totfact> 0.27220388E+03</totfact>
</mgrwt>
</event>
<event>
 4    1  0.5003329E-002  0.4307393E+03  0.7818608E-02  0.1033627E+00
         21   -1    0    0  503  502  0.00000000000E+00  0.00000000000E+00  0.14013305156E+04  0.14013305156E+04  0.00000000000E+00 0. -1.
         21   -1    0    0  501  503 -0.00000000000E+00 -0.00000000000E+00 -0.19481706712E+03  0.19481706712E+03  0.00000000000E+00 0. -1.
    9000007    1    1    2  501    0  0.88588323212E+02 -0.13299787928E+03  0.15152476867E+03  0.45661371248E+03  0.40000000000E+03 0. -1.
   -9000007    1    1    2    0  502 -0.88588323212E+02  0.13299787928E+03  0.10549886798E+04  0.11395338703E+04  0.40000000000E+03 0. -1.
<mgrwt>
<rscale>  2 0.43073928E+03</rscale>
<asrwt>0</asrwt>
<pdfrwt beam="1">  1       21 0.21558930E+00 0.43073928E+03</pdfrwt>
<pdfrwt beam="2">  1       21 0.29971857E-01 0.43073928E+03</pdfrwt>
<totfact> 0.95761384E+02</totfact>
</mgrwt>
</event>
<event>
 4    1  0.5003329E-002  0.5491501E+03  0.7818608E-02  0.1001691E+00
         21   -1    0    0  501  502  0.00000000000E+00  0.00000000000E+00  0.91833368149E+03  0.91833368149E+03  0.00000000000E+00 0. -1.
         21   -1    0    0  502  503 -0.00000000000E+00 -0.00000000000E+00 -0.38632015618E+03  0.38632015618E+03  0.00000000000E+00 0.  1.
    9000007    1    1    2  501    0 -0.64138265323E+02  0.37074531093E+03  0.13386827827E+02  0.54931321650E+03  0.40000000000E+03 0.  1.
   -9000007    1    1    2    0  503  0.64138265323E+02 -0.37074531093E+03  0.51862669748E+03  0.75534062117E+03  0.40000000000E+03 0. -1.
<mgrwt>
<rscale>  2 0.54915007E+03</rscale>
<asrwt>0</asrwt>
<pdfrwt beam="1">  1       21 0.14128210E+00 0.54915007E+03</pdfrwt>
<pdfrwt beam="2">  1       21 0.59433870E-01 0.54915007E+03</pdfrwt>
<totfact> 0.74824607E+02</totfact>
</mgrwt>
</event>
<event>
 4    1  0.5003329E-002  0.4477257E+03  0.7818608E-02  0.1028402E+00
         21   -1    0    0  503  502  0.00000000000E+00  0.00000000000E+00  0.23553879234E+03  0.23553879234E+03  0.00000000000E+00 0. -1.
         21   -1    0    0  501  503 -0.00000000000E+00 -0.00000000000E+00 -0.99568623217E+03  0.99568623217E+03  0.00000000000E+00 0. -1.
    9000007    1    1    2  501    0  0.18118096712E+03 -0.87359859170E+02 -0.61469404001E+03  0.76046502265E+03  0.40000000000E+03 0. -1.
   -9000007    1    1    2    0  502 -0.18118096712E+03  0.87359859170E+02 -0.14545339981E+03  0.47076000186E+03  0.40000000000E+03 0. -1.
<mgrwt>
<rscale>  2 0.44772568E+03</rscale>
<asrwt>0</asrwt>
<pdfrwt beam="1">  1       21 0.36236736E-01 0.44772568E+03</pdfrwt>
<pdfrwt beam="2">  1       21 0.15318250E+00 0.44772568E+03</pdfrwt>
<totfact> 0.17744330E+03</totfact>
</mgrwt>
</event>
<event>
 4    1  0.5003329E-002  0.5691094E+03  0.7818608E-02  0.9971651E-01
         21   -1    0    0  501  502  0.00000000000E+00  0.00000000000E+00  0.32532652535E+03  0.32532652535E+03  0.00000000000E+00 0.  1.
         21   -1    0    0  502  503 -0.00000000000E+00 -0.00000000000E+00 -0.99671216187E+03  0.99671216187E+03  0.00000000000E+00 0.  1.
    9000007    1    1    2  501    0  0.22315989764E+03  0.33776494465E+03 -0.31332135527E+03  0.64965819430E+03  0.40000000000E+03 0.  1.
   -9000007    1    1    2    0  503 -0.22315989764E+03 -0.33776494465E+03 -0.35806428125E+03  0.67238049292E+03  0.40000000000E+03 0.  1.
<mgrwt>
<rscale>  2 0.56910939E+03</rscale>
<asrwt>0</asrwt>
<pdfrwt beam="1">  1       21 0.50050235E-01 0.56910939E+03</pdfrwt>
<pdfrwt beam="2">  1       21 0.15334033E+00 0.56910939E+03</pdfrwt>
<totfact> 0.86295571E+02</totfact>
</mgrwt>
</event>
<event>
 4    1  0.5003329E-002  0.4356390E+03  0.7818608E-02  0.1032093E+00
         21   -1    0    0  501  502  0.00000000000E+00  0.00000000000E+00  0.98038629002E+03  0.98038629002E+03  0.00000000000E+00 0.  1.
         21   -1    0    0  502  503 -0.00000000000E+00 -0.00000000000E+00 -0.26756179682E+03  0.26756179682E+03  0.00000000000E+00 0.  1.
    9000007    1    1    2  501    0 -0.58029906501E+01  0.17247517812E+03  0.68452442262E+03  0.81139081023E+03  0.40000000000E+03 0.  1.
   -9000007    1    1    2    0  503  0.58029906501E+01 -0.17247517812E+03  0.28300070579E+02  0.43655727661E+03  0.40000000000E+03 0.  1.
<mgrwt>
<rscale>  2 0.43563903E+03</rscale>
<asrwt>0</asrwt>
<pdfrwt beam="1">  1       21 0.15082866E+00 0.43563903E+03</pdfrwt>
<pdfrwt beam="2">  1       21 0.41163354E-01 0.43563903E+03</pdfrwt>
<totfact> 0.14325524E+03</totfact>
</mgrwt>
</event>
<event>
 4    1  0.5003329E-002  0.6287412E+03  0.7818608E-02  0.9847508E-01
         21   -1    0    0  503  502  0.00000000000E+00  0.00000000000E+00  0.88918532112E+03  0.88918532112E+03  0.00000000000E+00 0. -1.
         21   -1    0    0  501  503 -0.00000000000E+00 -0.00000000000E+00 -0.57590065971E+03  0.57590065971E+03  0.00000000000E+00 0.  1.
    9000007    1    1    2  501    0  0.25796164843E+03  0.41081788330E+03 -0.19316024412E+03  0.65774343418E+03  0.40000000000E+03 0.  1.
   -9000007    1    1    2    0  502 -0.25796164843E+03 -0.41081788330E+03  0.50644490552E+03  0.80734254665E+03  0.40000000000E+03 0. -1.
<mgrwt>
<rscale>  2 0.62874124E+03</rscale>
<asrwt>0</asrwt>
<pdfrwt beam="1">  1       21 0.13679774E+00 0.62874124E+03</pdfrwt>
<pdfrwt beam="2">  1       21 0.88600102E-01 0.62874124E+03</pdfrwt>
<totfact> 0.31894286E+02</totfact>
</mgrwt>
</event>
<event>
 4    1  0.5003329E-002  0.4606097E+03  0.7818608E-02  0.1024605E+00
         21   -1    0    0  503  502  0.00000000000E+00  0.00000000000E+00  0.95161513703E+03  0.95161513703E+03  0.00000000000E+00 0.  1.
         21   -1    0    0  501  503 -0.00000000000E+00 -0.00000000000E+00 -0.69116042499E+03  0.69116042499E+03  0.00000000000E+00 0. -1.
    9000007    1    1    2  501    0 -0.17939832036E+03  0.14134179114E+03 -0.54582448068E+03  0.71420278841E+03  0.40000000000E+03 0. -1.
   -9000007    1    1    2    0  502  0.17939832036E+03 -0.14134179114E+03  0.80627919272E+03  0.92857277361E+03  0.40000000000E+03 0.  1.
<mgrwt>
<rscale>  2 0.46060966E+03</rscale>
<asrwt>0</asrwt>
<pdfrwt beam="1">  1       21 0.14640233E+00 0.46060966E+03</pdfrwt>
<pdfrwt beam="2">  1       21 0.10633237E+00 0.46060966E+03</pdfrwt>
<totfact> 0.18300445E+02</totfact>
</mgrwt>
</event>
<event>
 4    1  0.5003329E-002  0.4088089E+03  0.7818608E-02  0.1040771E+00
         21   -1    0    0  503  502  0.00000000000E+00  0.00000000000E+00  0.20714437197E+04  0.20714437197E+04  0.00000000000E+00 0.  1.
         21   -1    0    0  501  503 -0.00000000000E+00 -0.00000000000E+00 -0.10189860899E+03  0.10189860899E+03  0.00000000000E+00 0.  1.
    9000007    1    1    2  501    0 -0.60766058411E+02  0.58584989674E+02  0.48890084761E+03  0.63729801009E+03  0.40000000000E+03 0.  1.
   -9000007    1    1    2    0  502  0.60766058411E+02 -0.58584989674E+02  0.14806442631E+04  0.15360443186E+04  0.40000000000E+03 0.  1.
<mgrwt>
<rscale>  2 0.40880890E+03</rscale>
<asrwt>0</asrwt>
<pdfrwt beam="1">  1       21 0.31868362E+00 0.40880890E+03</pdfrwt>
<pdfrwt beam="2">  1       21 0.15676711E-01 0.40880890E+03</pdfrwt>
<totfact> 0.78888863E+02</totfact>
</mgrwt>
</event>
<event>
 4    1  0.5003329E-002  0.4091137E+03  0.7818608E-02  0.1040669E+00
         21   -1    0    0  503  502  0.00000000000E+00  0.00000000000E+00  0.12254861386E+04  0.12254861386E+04  0.00000000000E+00 0. -1.
         21   -1    0    0  501  503 -0.00000000000E+00 -0.00000000000E+00 -0.17094836546E+03  0.17094836546E+03  0.00000000000E+00 0. -1.
    9000007    1    1    2  501    0 -0.85415674564E+02 -0.88423933252E+01  0.21419103728E+03  0.46179197246E+03  0.40000000000E+03 0. -1.
   -9000007    1    1    2    0  502  0.85415674564E+02  0.88423933252E+01  0.84034673583E+03  0.93464253156E+03  0.40000000000E+03 0. -1.
<mgrwt>
<rscale>  2 0.40911371E+03</rscale>
<asrwt>0</asrwt>
<pdfrwt beam="1">  1       21 0.18853632E+00 0.40911371E+03</pdfrwt>
<pdfrwt beam="2">  1       21 0.26299749E-01 0.40911371E+03</pdfrwt>
<totfact> 0.18908229E+03</totfact>
</mgrwt>
</event>
<event>
 4    1  0.5003329E-002  0.4166950E+03  0.7818608E-02  0.1038147E+00
         21   -1    0    0  503  502  0.00000000000E+00  0.00000000000E+00  0.45830552597E+03  0.45830552597E+03  0.00000000000E+00 0. -1.
         21   -1    0    0  501  503 -0.00000000000E+00 -0.00000000000E+00 -0.99404812438E+03  0.99404812438E+03  0.00000000000E+00 0. -1.
    9000007    1    1    2  501    0  0.87204167053E+02  0.77654301017E+02 -0.83914178150E+03  0.93690644499E+03  0.40000000000E+03 0. -1.
   -9000007    1    1    2    0  502 -0.87204167053E+02 -0.77654301017E+02  0.30339918308E+03  0.51544720536E+03  0.40000000000E+03 0. -1.
<mgrwt>
<rscale>  2 0.41669504E+03</rscale>
<asrwt>0</asrwt>
<pdfrwt beam="1">  1       21 0.70508543E-01 0.41669504E+03</pdfrwt>
<pdfrwt beam="2">  1       21 0.15293048E+00 0.41669504E+03</pdfrwt>
<totfact> 0.43687761E+02</totfact>
</mgrwt>
</event>
<event>
 4    1  0.5003329E-002  0.7007390E+03  0.7818608E-02  0.9715969E-01
         21   -1    0    0  501  502  0.00000000000E+00  0.00000000000E+00  0.72235891026E+03  0.72235891026E+03  0.00000000000E+00 0.  1.
         21   -1    0    0  502  503 -0.00000000000E+00 -0.00000000000E+00 -0.89943057391E+03  0.89943057391E+03  0.00000000000E+00 0. -1.
    9000007    1    1    2  501    0 -0.44999950051E+03 -0.35851869044E+03  0.31220208218E+03  0.76714101831E+03  0.40000000000E+03 0.  1.
   -9000007    1    1    2    0  503  0.44999950051E+03  0.35851869044E+03 -0.48927374583E+03  0.85464846587E+03  0.40000000000E+03 0.  1.
<mgrwt>
<rscale>  2 0.70073904E+03</rscale>
<asrwt>0</asrwt>
<pdfrwt beam="1">  1       21 0.11113214E+00 0.70073904E+03</pdfrwt>
<pdfrwt beam="2">  1       21 0.13837393E+00 0.70073904E+03</pdfrwt>
<totfact> 0.17342803E+02</totfact>
</mgrwt>
</event>
<event>
 4    1  0.5003329E-002  0.4586089E+03  0.7818608E-02  0.1025185E+00
         21   -1    0    0  503  502  0.00000000000E+00  0.00000000000E+00  0.35070217757E+03  0.35070217757E+03  0.00000000000E+00 0. -1.
         21   -1    0    0  501  503 -0.00000000000E+00 -0.00000000000E+00 -0.60060761866E+03  0.60060761866E+03  0.00000000000E+00 0. -1.
    9000007    1    1    2  501    0 -0.55898370029E+01  0.22425625093E+03 -0.10663782142E+03  0.47084364424E+03  0.40000000000E+03 0.  1.
   -9000007    1    1    2    0  502  0.55898370029E+01 -0.22425625093E+03 -0.14326761967E+03  0.48046615199E+03  0.40000000000E+03 0.  1.
<mgrwt>
<rscale>  2 0.45860889E+03</rscale>
<asrwt>0</asrwt>
<pdfrwt beam="1">  1       21 0.53954181E-01 0.45860889E+03</pdfrwt>
<pdfrwt beam="2">  1       21 0.92401172E-01 0.45860889E+03</pdfrwt>
<totfact> 0.27805786E+03</totfact>
</mgrwt>
</event>
<event>
 4    1  0.5003329E-002  0.4721936E+03  0.7818608E-02  0.1021303E+00
         21   -1    0    0  501  502  0.00000000000E+00  0.00000000000E+00  0.51167767138E+03  0.51167767138E+03  0.00000000000E+00 0.  1.
         21   -1    0    0  502  503 -0.00000000000E+00 -0.00000000000E+00 -0.55405705080E+03  0.55405705080E+03  0.00000000000E+00 0.  1.
    9000007    1    1    2  501    0  0.21958113590E+03 -0.12145320187E+03  0.22503731121E+03  0.52307604316E+03  0.40000000000E+03 0.  1.
   -9000007    1    1    2    0  503 -0.21958113590E+03  0.12145320187E+03 -0.26741669064E+03  0.54265867902E+03  0.40000000000E+03 0.  1.
<mgrwt>
<rscale>  2 0.47219356E+03</rscale>
<asrwt>0</asrwt>
<pdfrwt beam="1">  1       21 0.78719642E-01 0.47219356E+03</pdfrwt>
<pdfrwt beam="2">  1       21 0.85239546E-01 0.47219356E+03</pdfrwt>
<totfact> 0.14439254E+03</totfact>
</mgrwt>
</event>
<event>
 4    1  0.5003329E-002  0.4713482E+03  0.7818608E-02  0.1021540E+00
         21   -1    0    0  503  502  0.00000000000E+00  0.00000000000E+00  0.12445515992E+03  0.12445515992E+03  0.00000000000E+00 0.  1.
         21   -1    0    0  501  503 -0.00000000000E+00 -0.00000000000E+00 -0.27903785044E+04  0.27903785044E+04  0.00000000000E+00 0. -1.
    9000007    1    1    2  501    0  0.17133579603E+03  0.18114402183E+03 -0.22077200706E+04  0.22574758076E+04  0.40000000000E+03 0. -1.
   -9000007    1    1    2    0  502 -0.17133579603E+03 -0.18114402183E+03 -0.45820327394E+03  0.65735785680E+03  0.40000000000E+03 0.  1.
<mgrwt>
<rscale>  2 0.47134819E+03</rscale>
<asrwt>0</asrwt>
<pdfrwt beam="1">  1       21 0.19146948E-01 0.47134819E+03</pdfrwt>
<pdfrwt beam="2">  1       21 0.42928900E+00 0.47134819E+03</pdfrwt>
<totfact> 0.10530769E+02</totfact>
</mgrwt>
</event>
<event>
 4    1  0.5003329E-002  0.4739333E+03  0.7818608E-02  0.1020816E+00
         21   -1    0    0  503  502  0.00000000000E+00  0.00000000000E+00  0.10900022880E+03  0.10900022880E+03  0.00000000000E+00 0. -1.
         21   -1    0    0  501  503 -0.00000000000E+00 -0.00000000000E+00 -0.20949934862E+04  0.20949934862E+04  0.00000000000E+00 0.  1.
    9000007    1    1    2  501    0 -0.10326965809E+03  0.23226745745E+03 -0.85192951873E+03  0.97488291551E+03  0.40000000000E+03 0.  1.
   -9000007    1    1    2    0  502  0.10326965809E+03 -0.23226745745E+03 -0.11340637387E+04  0.12291107995E+04  0.40000000000E+03 0.  1.
<mgrwt>
<rscale>  2 0.47393332E+03</rscale>
<asrwt>0</asrwt>
<pdfrwt beam="1">  1       21 0.16769266E-01 0.47393332E+03</pdfrwt>
<pdfrwt beam="2">  1       21 0.32230670E+00 0.47393332E+03</pdfrwt>
<totfact> 0.63703057E+02</totfact>
</mgrwt>
</event>
<event>
 4    1  0.5003329E-002  0.4637759E+03  0.7818608E-02  0.1023692E+00
         21   -1    0    0  503  502  0.00000000000E+00  0.00000000000E+00  0.45012566089E+03  0.45012566089E+03  0.00000000000E+00 0. -1.
         21   -1    0    0  501  503 -0.00000000000E+00 -0.00000000000E+00 -0.48313847990E+03  0.48313847990E+03  0.00000000000E+00 0. -1.
    9000007    1    1    2  501    0 -0.20638099903E+03 -0.11178072428E+03 -0.65373254219E+02  0.46836066172E+03  0.40000000000E+03 0. -1.
   -9000007    1    1    2    0  502  0.20638099903E+03  0.11178072428E+03  0.32360435204E+02  0.46490347907E+03  0.40000000000E+03 0. -1.
<mgrwt>
<rscale>  2 0.46377586E+03</rscale>
<asrwt>0</asrwt>
<pdfrwt beam="1">  1       21 0.69250102E-01 0.46377586E+03</pdfrwt>
<pdfrwt beam="2">  1       21 0.74328997E-01 0.46377586E+03</pdfrwt>
<totfact> 0.26609503E+03</totfact>
</mgrwt>
</event>
<event>
 4    1  0.5003329E-002  0.5096923E+03  0.7818608E-02  0.1011280E+00
         21   -1    0    0  501  502  0.00000000000E+00  0.00000000000E+00  0.45273345848E+03  0.45273345848E+03  0.00000000000E+00 0. -1.
         21   -1    0    0  502  503 -0.00000000000E+00 -0.00000000000E+00 -0.99181073538E+03  0.99181073538E+03  0.00000000000E+00 0. -1.
    9000007    1    1    2  501    0  0.31102416442E+03  0.55229049754E+02  0.19935158682E+03  0.54729090433E+03  0.40000000000E+03 0. -1.
   -9000007    1    1    2    0  503 -0.31102416442E+03 -0.55229049754E+02 -0.73842886372E+03  0.89725328953E+03  0.40000000000E+03 0. -1.
<mgrwt>
<rscale>  2 0.50969234E+03</rscale>
<asrwt>0</asrwt>
<pdfrwt beam="1">  1       21 0.69651301E-01 0.50969234E+03</pdfrwt>
<pdfrwt beam="2">  1       21 0.15258627E+00 0.50969234E+03</pdfrwt>
<totfact> 0.43297306E+02</totfact>
</mgrwt>
</event>
<event>
 4    1  0.5003329E-002  0.6207473E+03  0.7818608E-02  0.9863273E-01
         21   -1    0    0  501  502  0.00000000000E+00  0.00000000000E+00  0.51207404195E+03  0.51207404195E+03  0.00000000000E+00 0.  1.
         21   -1    0    0  502  503 -0.00000000000E+00 -0.00000000000E+00 -0.79065282242E+03  0.79065282242E+03  0.00000000000E+00 0. -1.
    9000007    1    1    2  501    0 -0.41543616571E+03  0.22965196392E+03  0.38265720577E+01  0.62075911187E+03  0.40000000000E+03 0.  1.
   -9000007    1    1    2    0  503  0.41543616571E+03 -0.22965196392E+03 -0.28240535252E+03  0.68196775250E+03  0.40000000000E+03 0. -1.
<mgrwt>
<rscale>  2 0.62074732E+03</rscale>
<asrwt>0</asrwt>
<pdfrwt beam="1">  1       21 0.78780622E-01 0.62074732E+03</pdfrwt>
<pdfrwt beam="2">  1       21 0.12163889E+00 0.62074732E+03</pdfrwt>
<totfact> 0.57296907E+02</totfact>
</mgrwt>
</event>
<event>
 4    1  0.5003329E-002  0.4607173E+03  0.7818608E-02  0.1024573E+00
         21   -1    0    0  501  502  0.00000000000E+00  0.00000000000E+00  0.88103676024E+03  0.88103676024E+03  0.00000000000E+00 0. -1.
         21   -1    0    0  502  503 -0.00000000000E+00 -0.00000000000E+00 -0.12661987166E+04  0.12661987166E+04  0.00000000000E+00 0. -1.
    9000007    1    1    2  501    0  0.70036599720E+02 -0.21761275713E+03  0.77351318848E+03  0.90032388068E+03  0.40000000000E+03 0. -1.
   -9000007    1    1    2    0  503 -0.70036599720E+02  0.21761275713E+03 -0.11586751449E+04  0.12469115962E+04  0.40000000000E+03 0. -1.
<mgrwt>
<rscale>  2 0.46071731E+03</rscale>
<asrwt>0</asrwt>
<pdfrwt beam="1">  1       21 0.13554412E+00 0.46071731E+03</pdfrwt>
<pdfrwt beam="2">  1       21 0.19479980E+00 0.46071731E+03</pdfrwt>
<totfact> 0.43730082E+01</totfact>
</mgrwt>
</event>
<event>
 4    1  0.5003329E-002  0.5056253E+03  0.7818608E-02  0.1012321E+00
         21   -1    0    0  501  502  0.00000000000E+00  0.00000000000E+00  0.33496947881E+03  0.33496947881E+03  0.00000000000E+00 0.  1.
         21   -1    0    0  502  503 -0.00000000000E+00 -0.00000000000E+00 -0.77196864029E+03  0.77196864029E+03  0.00000000000E+00 0.  1.
    9000007    1    1    2  501    0 -0.30926218681E+03  0.37236277435E+01 -0.27740404034E+03  0.57672347550E+03  0.40000000000E+03 0. -1.
   -9000007    1    1    2    0  503  0.30926218681E+03 -0.37236277435E+01 -0.15959512114E+03  0.53021464360E+03  0.40000000000E+03 0. -1.
<mgrwt>
<rscale>  2 0.50562532E+03</rscale>
<asrwt>0</asrwt>
<pdfrwt beam="1">  1       21 0.51533766E-01 0.50562532E+03</pdfrwt>
<pdfrwt beam="2">  1       21 0.11876441E+00 0.50562532E+03</pdfrwt>
<totfact> 0.16283642E+03</totfact>
</mgrwt>
</event>
<event>
 4    1  0.5003329E-002  0.5565726E+03  0.7818608E-02  0.9999840E-01
         21   -1    0    0  501  502  0.00000000000E+00  0.00000000000E+00  0.42479271648E+03  0.42479271648E+03  0.00000000000E+00 0. -1.
         21   -1    0    0  502  503 -0.00000000000E+00 -0.00000000000E+00 -0.80734919981E+03  0.80734919981E+03  0.00000000000E+00 0. -1.
    9000007    1    1    2  501    0 -0.38443357741E+03 -0.44541236658E+02  0.35421817087E+00  0.55657274697E+03  0.40000000000E+03 0. -1.
   -9000007    1    1    2    0  503  0.38443357741E+03  0.44541236658E+02 -0.38291070151E+03  0.67556916932E+03  0.40000000000E+03 0. -1.
<mgrwt>
<rscale>  2 0.55657263E+03</rscale>
<asrwt>0</asrwt>
<pdfrwt beam="1">  1       21 0.65352726E-01 0.55657263E+03</pdfrwt>
<pdfrwt beam="2">  1       21 0.12420757E+00 0.55657263E+03</pdfrwt>
<totfact> 0.84832693E+02</totfact>
</mgrwt>
</event>
<event>
 4    1  0.5003329E-002  0.5077788E+03  0.7818608E-02  0.1011768E+00
         21   -1    0    0  503  502  0.00000000000E+00  0.00000000000E+00  0.35869246308E+03  0.35869246308E+03  0.00000000000E+00 0. -1.
         21   -1    0    0  501  503 -0.00000000000E+00 -0.00000000000E+00 -0.72025553274E+03  0.72025553274E+03  0.00000000000E+00 0.  1.
    9000007    1    1    2  501    0 -0.29283180135E+03  0.10994945575E+03 -0.20477137775E+03  0.54751316317E+03  0.40000000000E+03 0. -1.
   -9000007    1    1    2    0  502  0.29283180135E+03 -0.10994945575E+03 -0.15679169191E+03  0.53143483265E+03  0.40000000000E+03 0. -1.
<mgrwt>
<rscale>  2 0.50777884E+03</rscale>
<asrwt>0</asrwt>
<pdfrwt beam="1">  1       21 0.55183456E-01 0.50777884E+03</pdfrwt>
<pdfrwt beam="2">  1       21 0.11080854E+00 0.50777884E+03</pdfrwt>
<totfact> 0.16710759E+03</totfact>
</mgrwt>
</event>
<event>
 4    1  0.5003329E-002  0.4805965E+03  0.7818608E-02  0.1018971E+00
         21   -1    0    0  501  502  0.00000000000E+00  0.00000000000E+00  0.61446626662E+03  0.61446626662E+03  0.00000000000E+00 0.  1.
         21   -1    0    0  502  503 -0.00000000000E+00 -0.00000000000E+00 -0.39218025813E+03  0.39218025813E+03  0.00000000000E+00 0.  1.
    9000007    1    1    2  501    0  0.21310235466E+03 -0.15987620486E+03  0.21371767857E+03  0.52597363107E+03  0.40000000000E+03 0.  1.
   -9000007    1    1    2    0  503 -0.21310235466E+03  0.15987620486E+03  0.85683299115E+01  0.48067289368E+03  0.40000000000E+03 0.  1.
<mgrwt>
<rscale>  2 0.48059652E+03</rscale>
<asrwt>0</asrwt>
<pdfrwt beam="1">  1       21 0.94533272E-01 0.48059652E+03</pdfrwt>
<pdfrwt beam="2">  1       21 0.60335424E-01 0.48059652E+03</pdfrwt>
<totfact> 0.20487974E+03</totfact>
</mgrwt>
</event>
<event>
 4    1  0.5003329E-002  0.4246655E+03  0.7818608E-02  0.1035558E+00
         21   -1    0    0  501  502  0.00000000000E+00  0.00000000000E+00  0.11040709539E+04  0.11040709539E+04  0.00000000000E+00 0. -1.
         21   -1    0    0  502  503 -0.00000000000E+00 -0.00000000000E+00 -0.33393054577E+03  0.33393054577E+03  0.00000000000E+00 0. -1.
    9000007    1    1    2  501    0  0.74111170965E+01  0.14242857859E+03  0.89896780143E+03  0.99422529271E+03  0.40000000000E+03 0. -1.
   -9000007    1    1    2    0  503 -0.74111170965E+01 -0.14242857859E+03 -0.12882739325E+03  0.44377620701E+03  0.40000000000E+03 0. -1.
<mgrwt>
<rscale>  2 0.42466554E+03</rscale>
<asrwt>0</asrwt>
<pdfrwt beam="1">  1       21 0.16985707E+00 0.42466554E+03</pdfrwt>
<pdfrwt beam="2">  1       21 0.51373930E-01 0.42466554E+03</pdfrwt>
<totfact> 0.64981258E+02</totfact>
</mgrwt>
</event>
<event>
 4    1  0.5003329E-002  0.4818503E+03  0.7818608E-02  0.1018628E+00
         21   -1    0    0  503  502  0.00000000000E+00  0.00000000000E+00  0.50108849132E+03  0.50108849132E+03  0.00000000000E+00 0. -1.
         21   -1    0    0  501  503 -0.00000000000E+00 -0.00000000000E+00 -0.46355596818E+03  0.46355596818E+03  0.00000000000E+00 0.  1.
    9000007    1    1    2  501    0  0.19388532080E+03 -0.18597904100E+03  0.28914923807E+02  0.48271709534E+03  0.40000000000E+03 0. -1.
   -9000007    1    1    2    0  502 -0.19388532080E+03  0.18597904100E+03  0.86175993312E+01  0.48192736416E+03  0.40000000000E+03 0. -1.
<mgrwt>
<rscale>  2 0.48185031E+03</rscale>
<asrwt>0</asrwt>
<pdfrwt beam="1">  1       21 0.77090538E-01 0.48185031E+03</pdfrwt>
<pdfrwt beam="2">  1       21 0.71316302E-01 0.48185031E+03</pdfrwt>
<totfact> 0.22764306E+03</totfact>
</mgrwt>
</event>
<event>
 4    1  0.5003329E-002  0.5570615E+03  0.7818608E-02  0.9998726E-01
         21   -1    0    0  501  502  0.00000000000E+00  0.00000000000E+00  0.77386689501E+03  0.77386689501E+03  0.00000000000E+00 0.  1.
         21   -1    0    0  502  503 -0.00000000000E+00 -0.00000000000E+00 -0.15416515636E+04  0.15416515636E+04  0.00000000000E+00 0. -1.
    9000007    1    1    2  501    0 -0.18700404172E+03  0.33962774027E+03  0.61197710076E+03  0.82754666662E+03  0.40000000000E+03 0.  1.
   -9000007    1    1    2    0  503  0.18700404172E+03 -0.33962774027E+03 -0.13797617693E+04  0.14879717920E+04  0.40000000000E+03 0. -1.
<mgrwt>
<rscale>  2 0.55706150E+03</rscale>
<asrwt>0</asrwt>
<pdfrwt beam="1">  1       21 0.11905645E+00 0.55706150E+03</pdfrwt>
<pdfrwt beam="2">  1       21 0.23717716E+00 0.55706150E+03</pdfrwt>
<totfact> 0.30752035E+01</totfact>
</mgrwt>
</event>
<event>
 4    1  0.5003329E-002  0.4715445E+03  0.7818608E-02  0.1021485E+00
         21   -1    0    0  503  502  0.00000000000E+00  0.00000000000E+00  0.47208768474E+03  0.47208768474E+03  0.00000000000E+00 0.  1.
         21   -1    0    0  501  503 -0.00000000000E+00 -0.00000000000E+00 -0.87180782626E+03  0.87180782626E+03  0.00000000000E+00 0.  1.
    9000007    1    1    2  501    0  0.18189338915E+03  0.17108177110E+03 -0.65546898736E+03  0.80746131227E+03  0.40000000000E+03 0.  1.
   -9000007    1    1    2    0  502 -0.18189338915E+03 -0.17108177110E+03  0.25574884584E+03  0.53643419873E+03  0.40000000000E+03 0.  1.
<mgrwt>
<rscale>  2 0.47154446E+03</rscale>
<asrwt>0</asrwt>
<pdfrwt beam="1">  1       21 0.72628874E-01 0.47154446E+03</pdfrwt>
<pdfrwt beam="2">  1       21 0.13412428E+00 0.47154446E+03</pdfrwt>
<totfact> 0.56572819E+02</totfact>
</mgrwt>
</event>
<event>
 4    1  0.5003329E-002  0.4528059E+03  0.7818608E-02  0.1026889E+00
         21   -1    0    0  501  502  0.00000000000E+00  0.00000000000E+00  0.13562663395E+03  0.13562663395E+03  0.00000000000E+00 0.  1.
         21   -1    0    0  502  503 -0.00000000000E+00 -0.00000000000E+00 -0.25616697122E+04  0.25616697122E+04  0.00000000000E+00 0.  1.
    9000007    1    1    2  501    0 -0.99157679284E+02 -0.18761923048E+03 -0.34961433232E+03  0.57206940345E+03  0.40000000000E+03 0.  1.
   -9000007    1    1    2    0  503  0.99157679284E+02  0.18761923048E+03 -0.20764287459E+04  0.21252269427E+04  0.40000000000E+03 0.  1.
<mgrwt>
<rscale>  2 0.45280594E+03</rscale>
<asrwt>0</asrwt>
<pdfrwt beam="1">  1       21 0.20865637E-01 0.45280594E+03</pdfrwt>
<pdfrwt beam="2">  1       21 0.39410301E+00 0.45280594E+03</pdfrwt>
<totfact> 0.15330320E+02</totfact>
</mgrwt>
</event>
<event>
 4    1  0.5003329E-002  0.6646436E+03  0.7818608E-02  0.9779683E-01
         21   -1    0    0  501  502  0.00000000000E+00  0.00000000000E+00  0.82562982223E+03  0.82562982223E+03  0.00000000000E+00 0. -1.
         21   -1    0    0  502  503 -0.00000000000E+00 -0.00000000000E+00 -0.12228966877E+04  0.12228966877E+04  0.00000000000E+00 0. -1.
    9000007    1    1    2  501    0 -0.16114595141E+03 -0.50574999820E+03  0.56954720924E+03  0.87529143826E+03  0.40000000000E+03 0. -1.
   -9000007    1    1    2    0  503  0.16114595141E+03  0.50574999820E+03 -0.96681407472E+03  0.11732350717E+04  0.40000000000E+03 0. -1.
<mgrwt>
<rscale>  2 0.66464357E+03</rscale>
<asrwt>0</asrwt>
<pdfrwt beam="1">  1       21 0.12701997E+00 0.66464357E+03</pdfrwt>
<pdfrwt beam="2">  1       21 0.18813795E+00 0.66464357E+03</pdfrwt>
<totfact> 0.52135712E+01</totfact>
</mgrwt>
</event>
<event>
 4    1  0.5003329E-002  0.4107307E+03  0.7818608E-02  0.1040126E+00
         21   -1    0    0  501  502  0.00000000000E+00  0.00000000000E+00  0.29872960802E+03  0.29872960802E+03  0.00000000000E+00 0. -1.
         21   -1    0    0  502  503 -0.00000000000E+00 -0.00000000000E+00 -0.56634934211E+03  0.56634934211E+03  0.00000000000E+00 0. -1.
    9000007    1    1    2  501    0  0.64412209369E+02  0.67459661080E+02 -0.15698243077E+03  0.43970811018E+03  0.40000000000E+03 0.  1.
   -9000007    1    1    2    0  503 -0.64412209369E+02 -0.67459661080E+02 -0.11063730332E+03  0.42537083994E+03  0.40000000000E+03 0.  1.
<mgrwt>
<rscale>  2 0.41073074E+03</rscale>
<asrwt>0</asrwt>
<pdfrwt beam="1">  1       21 0.45958402E-01 0.41073074E+03</pdfrwt>
<pdfrwt beam="2">  1       21 0.87130667E-01 0.41073074E+03</pdfrwt>
<totfact> 0.45699868E+03</totfact>
</mgrwt>
</event>
<event>
 4    1  0.5003329E-002  0.6561450E+03  0.7818608E-02  0.9795316E-01
         21   -1    0    0  503  502  0.00000000000E+00  0.00000000000E+00  0.99896312698E+03  0.99896312698E+03  0.00000000000E+00 0.  1.
         21   -1    0    0  501  503 -0.00000000000E+00 -0.00000000000E+00 -0.43100776893E+03  0.43100776893E+03  0.00000000000E+00 0. -1.
    9000007    1    1    2  501    0 -0.35812249722E+03 -0.37719300714E+03  0.29038532388E+03  0.71753043418E+03  0.40000000000E+03 0. -1.
   -9000007    1    1    2    0  502  0.35812249722E+03  0.37719300714E+03  0.27757003417E+03  0.71244046173E+03  0.40000000000E+03 0.  1.
<mgrwt>
<rscale>  2 0.65614502E+03</rscale>
<asrwt>0</asrwt>
<pdfrwt beam="1">  1       21 0.15368663E+00 0.65614502E+03</pdfrwt>
<pdfrwt beam="2">  1       21 0.66308888E-01 0.65614502E+03</pdfrwt>
<totfact> 0.45007434E+02</totfact>
</mgrwt>
</event>
<event>
 4    1  0.5003329E-002  0.4244404E+03  0.7818608E-02  0.1035631E+00
         21   -1    0    0  503  502  0.00000000000E+00  0.00000000000E+00  0.57808079465E+03  0.57808079465E+03  0.00000000000E+00 0.  1.
         21   -1    0    0  501  503 -0.00000000000E+00 -0.00000000000E+00 -0.34003652949E+03  0.34003652949E+03  0.00000000000E+00 0.  1.
    9000007    1    1    2  501    0  0.13876038495E+03 -0.29920410195E+02 -0.13651100796E+02  0.42465989678E+03  0.40000000000E+03 0.  1.
   -9000007    1    1    2    0  502 -0.13876038495E+03  0.29920410195E+02  0.25169536595E+03  0.49345742736E+03  0.40000000000E+03 0.  1.
<mgrwt>
<rscale>  2 0.42444043E+03</rscale>
<asrwt>0</asrwt>
<pdfrwt beam="1">  1       21 0.88935507E-01 0.42444043E+03</pdfrwt>
<pdfrwt beam="2">  1       21 0.52313312E-01 0.42444043E+03</pdfrwt>
<totfact> 0.32934956E+03</totfact>
</mgrwt>
</event>
<event>
 4    1  0.5003329E-002  0.4238927E+03  0.7818608E-02  0.1035807E+00
         21   -1    0    0  501  502  0.00000000000E+00  0.00000000000E+00  0.69641587955E+03  0.69641587955E+03  0.00000000000E+00 0. -1.
         21   -1    0    0  502  503 -0.00000000000E+00 -0.00000000000E+00 -0.36700479038E+03  0.36700479038E+03  0.00000000000E+00 0. -1.
    9000007    1    1    2  501    0 -0.48131688709E+02 -0.13178896991E+03  0.45446278234E+03  0.62146714521E+03  0.40000000000E+03 0. -1.
   -9000007    1    1    2    0  503  0.48131688709E+02  0.13178896991E+03 -0.12505169317E+03  0.44195352472E+03  0.40000000000E+03 0. -1.
<mgrwt>
<rscale>  2 0.42389267E+03</rscale>
<asrwt>0</asrwt>
<pdfrwt beam="1">  1       21 0.10714090E+00 0.42389267E+03</pdfrwt>
<pdfrwt beam="2">  1       21 0.56462275E-01 0.42389267E+03</pdfrwt>
<totfact> 0.17837692E+03</totfact>
</mgrwt>
</event>
<event>
 4    1  0.5003329E-002  0.4510832E+03  0.7818608E-02  0.1027400E+00
         21   -1    0    0  503  502  0.00000000000E+00  0.00000000000E+00  0.90496775287E+03  0.90496775287E+03  0.00000000000E+00 0.  1.
         21   -1    0    0  501  503 -0.00000000000E+00 -0.00000000000E+00 -0.26168396560E+03  0.26168396560E+03  0.00000000000E+00 0. -1.
    9000007    1    1    2  501    0  0.23154559702E+02 -0.20721948943E+03  0.54051160314E+03  0.70400912179E+03  0.40000000000E+03 0.  1.
   -9000007    1    1    2    0  502 -0.23154559702E+02  0.20721948943E+03  0.10277218414E+03  0.46264259669E+03  0.40000000000E+03 0. -1.
<mgrwt>
<rscale>  2 0.45108320E+03</rscale>
<asrwt>0</asrwt>
<pdfrwt beam="1">  1       21 0.13922581E+00 0.45108320E+03</pdfrwt>
<pdfrwt beam="2">  1       21 0.40259072E-01 0.45108320E+03</pdfrwt>
<totfact> 0.18479919E+03</totfact>
</mgrwt>
</event>
<event>
 4    1  0.5003329E-002  0.6318921E+03  0.7818608E-02  0.9841363E-01
         21   -1    0    0  503  502  0.00000000000E+00  0.00000000000E+00  0.68686796769E+03  0.68686796769E+03  0.00000000000E+00 0. -1.
         21   -1    0    0  501  503 -0.00000000000E+00 -0.00000000000E+00 -0.77790517914E+03  0.77790517914E+03  0.00000000000E+00 0.  1.
    9000007    1    1    2  501    0 -0.48912826389E+03  0.64153945825E+01 -0.41369539215E+03  0.75526915289E+03  0.40000000000E+03 0.  1.
   -9000007    1    1    2    0  502  0.48912826389E+03 -0.64153945825E+01  0.32265818071E+03  0.70950399393E+03  0.40000000000E+03 0. -1.
<mgrwt>
<rscale>  2 0.63189209E+03</rscale>
<asrwt>0</asrwt>
<pdfrwt beam="1">  1       21 0.10567200E+00 0.63189209E+03</pdfrwt>
<pdfrwt beam="2">  1       21 0.11967772E+00 0.63189209E+03</pdfrwt>
<totfact> 0.29432670E+02</totfact>
</mgrwt>
</event>
<event>
 4    1  0.5003329E-002  0.4119046E+03  0.7818608E-02  0.1039734E+00
         21   -1    0    0  501  502  0.00000000000E+00  0.00000000000E+00  0.13922870146E+04  0.13922870146E+04  0.00000000000E+00 0. -1.
         21   -1    0    0  502  503 -0.00000000000E+00 -0.00000000000E+00 -0.38677602059E+03  0.38677602059E+03  0.00000000000E+00 0. -1.
    9000007    1    1    2  501    0  0.74193305882E+02 -0.64504184272E+02  0.12389369843E+04  0.13056149078E+04  0.40000000000E+03 0. -1.
   -9000007    1    1    2    0  503 -0.74193305882E+02  0.64504184272E+02 -0.23342599025E+03  0.47344812741E+03  0.40000000000E+03 0. -1.
<mgrwt>
<rscale>  2 0.41190464E+03</rscale>
<asrwt>0</asrwt>
<pdfrwt beam="1">  1       21 0.21419800E+00 0.41190464E+03</pdfrwt>
<pdfrwt beam="2">  1       21 0.59504004E-01 0.41190464E+03</pdfrwt>
<totfact> 0.23776508E+02</totfact>
</mgrwt>
</event>
<event>
 4    1  0.5003329E-002  0.4651593E+03  0.7818608E-02  0.1023295E+00
         21   -1    0    0  503  502  0.00000000000E+00  0.00000000000E+00  0.16714500580E+04  0.16714500580E+04  0.00000000000E+00 0. -1.
         21   -1    0    0  501  503 -0.00000000000E+00 -0.00000000000E+00 -0.22055232895E+03  0.22055232895E+03  0.00000000000E+00 0. -1.
    9000007    1    1    2  501    0 -0.68359265709E+02 -0.22737674962E+03  0.11746095217E+03  0.47976061818E+03  0.40000000000E+03 0. -1.
   -9000007    1    1    2    0  502  0.68359265709E+02  0.22737674962E+03  0.13334367769E+04  0.14122417687E+04  0.40000000000E+03 0. -1.
<mgrwt>
<rscale>  2 0.46515930E+03</rscale>
<asrwt>0</asrwt>
<pdfrwt beam="1">  1       21 0.25714615E+00 0.46515930E+03</pdfrwt>
<pdfrwt beam="2">  1       21 0.33931129E-01 0.46515930E+03</pdfrwt>
<totfact> 0.40369987E+02</totfact>
</mgrwt>
</event>
<event>
 4    1  0.5003329E-002  0.4290595E+03  0.7818608E-02  0.1034157E+00
         21   -1    0    0  503  502  0.00000000000E+00  0.00000000000E+00  0.49659926329E+03  0.49659926329E+03  0.00000000000E+00 0. -1.
         21   -1    0    0  501  503 -0.00000000000E+00 -0.00000000000E+00 -0.37567234863E+03  0.37567234863E+03  0.00000000000E+00 0. -1.
    9000007    1    1    2  501    0  0.84347877475E+02  0.13029780129E+03  0.10315031688E+02  0.42918350543E+03  0.40000000000E+03 0. -1.
   -9000007    1    1    2    0  502 -0.84347877475E+02 -0.13029780129E+03  0.11061188296E+03  0.44308810649E+03  0.40000000000E+03 0. -1.
<mgrwt>
<rscale>  2 0.42905953E+03</rscale>
<asrwt>0</asrwt>
<pdfrwt beam="1">  1       21 0.76399886E-01 0.42905953E+03</pdfrwt>
<pdfrwt beam="2">  1       21 0.57795746E-01 0.42905953E+03</pdfrwt>
<totfact> 0.37740038E+03</totfact>
</mgrwt>
</event>
<event>
 4    1  0.5003329E-002  0.4413344E+03  0.7818608E-02  0.1030338E+00
         21   -1    0    0  501  502  0.00000000000E+00  0.00000000000E+00  0.78654107385E+03  0.78654107385E+03  0.00000000000E+00 0.  1.
         21   -1    0    0  502  503 -0.00000000000E+00 -0.00000000000E+00 -0.32956597981E+03  0.32956597981E+03  0.00000000000E+00 0.  1.
    9000007    1    1    2  501    0  0.13320958668E+03 -0.13050391092E+03  0.50673134290E+03  0.67197672476E+03  0.40000000000E+03 0.  1.
   -9000007    1    1    2    0  503 -0.13320958668E+03  0.13050391092E+03 -0.49756248850E+02  0.44413032890E+03  0.40000000000E+03 0.  1.
<mgrwt>
<rscale>  2 0.44133441E+03</rscale>
<asrwt>0</asrwt>
<pdfrwt beam="1">  1       21 0.12100632E+00 0.44133441E+03</pdfrwt>
<pdfrwt beam="2">  1       21 0.50702459E-01 0.44133441E+03</pdfrwt>
<totfact> 0.16465063E+03</totfact>
</mgrwt>
</event>
<event>
 4    1  0.5003329E-002  0.4632607E+03  0.7818608E-02  0.1023840E+00
         21   -1    0    0  501  502  0.00000000000E+00  0.00000000000E+00  0.27270777046E+03  0.27270777046E+03  0.00000000000E+00 0. -1.
         21   -1    0    0  502  503 -0.00000000000E+00 -0.00000000000E+00 -0.12369995798E+04  0.12369995798E+04  0.00000000000E+00 0.  1.
    9000007    1    1    2  501    0 -0.16266659594E+03  0.16777966902E+03 -0.26840541412E+02  0.46403755606E+03  0.40000000000E+03 0. -1.
   -9000007    1    1    2    0  503  0.16266659594E+03 -0.16777966902E+03 -0.93745126798E+03  0.10456697942E+04  0.40000000000E+03 0.  1.
<mgrwt>
<rscale>  2 0.46326066E+03</rscale>
<asrwt>0</asrwt>
<pdfrwt beam="1">  1       21 0.41955040E-01 0.46326066E+03</pdfrwt>
<pdfrwt beam="2">  1       21 0.19030763E+00 0.46326066E+03</pdfrwt>
<totfact> 0.70120243E+02</totfact>
</mgrwt>
</event>
<event>
 4    1  0.5003329E-002  0.4040815E+03  0.7818608E-02  0.1042375E+00
         21   -1    0    0  501  502  0.00000000000E+00  0.00000000000E+00  0.11039296647E+04  0.11039296647E+04  0.00000000000E+00 0. -1.
         21   -1    0    0  502  503 -0.00000000000E+00 -0.00000000000E+00 -0.24937904480E+03  0.24937904480E+03  0.00000000000E+00 0. -1.
    9000007    1    1    2  501    0  0.47182763369E+02 -0.32490554633E+02  0.85889817145E+03  0.94920383386E+03  0.40000000000E+03 0. -1.
   -9000007    1    1    2    0  503 -0.47182763369E+02  0.32490554633E+02 -0.43475515611E+01  0.40410487563E+03  0.40000000000E+03 0. -1.
<mgrwt>
<rscale>  2 0.40408149E+03</rscale>
<asrwt>0</asrwt>
<pdfrwt beam="1">  1       21 0.16983533E+00 0.40408149E+03</pdfrwt>
<pdfrwt beam="2">  1       21 0.38366008E-01 0.40408149E+03</pdfrwt>
<totfact> 0.12077293E+03</totfact>
</mgrwt>
</event>
<event>
 4    1  0.5003329E-002  0.5234556E+03  0.7818608E-02  0.1007832E+00
         21   -1    0    0  503  502  0.00000000000E+00  0.00000000000E+00  0.13602523750E+04  0.13602523750E+04  0.00000000000E+00 0. -1.
         21   -1    0    0  501  503 -0.00000000000E+00 -0.00000000000E+00 -0.56615058462E+03  0.56615058462E+03  0.00000000000E+00 0.  1.
    9000007    1    1    2  501    0  0.22916831559E+03  0.24796707634E+03 -0.37603340773E+03  0.64452068357E+03  0.40000000000E+03 0.  1.
   -9000007    1    1    2    0  502 -0.22916831559E+03 -0.24796707634E+03  0.11701351981E+04  0.12818822761E+04  0.40000000000E+03 0. -1.
<mgrwt>
<rscale>  2 0.52345562E+03</rscale>
<asrwt>0</asrwt>
<pdfrwt beam="1">  1       21 0.20926960E+00 0.52345562E+03</pdfrwt>
<pdfrwt beam="2">  1       21 0.87100090E-01 0.52345562E+03</pdfrwt>
<totfact> 0.10162274E+02</totfact>
</mgrwt>
</event>
<event>
 4    1  0.5003329E-002  0.4272693E+03  0.7818608E-02  0.1034726E+00
         21   -1    0    0  501  502  0.00000000000E+00  0.00000000000E+00  0.17910548291E+04  0.17910548291E+04  0.00000000000E+00 0. -1.
         21   -1    0    0  502  503 -0.00000000000E+00 -0.00000000000E+00 -0.10498245836E+03  0.10498245836E+03  0.00000000000E+00 0. -1.
    9000007    1    1    2  501    0  0.29468801620E+01  0.15016782842E+03  0.10047357224E+04  0.10918117661E+04  0.40000000000E+03 0. -1.
   -9000007    1    1    2    0  503 -0.29468801620E+01 -0.15016782842E+03  0.68133664837E+03  0.80422552136E+03  0.40000000000E+03 0. -1.
<mgrwt>
<rscale>  2 0.42726931E+03</rscale>
<asrwt>0</asrwt>
<pdfrwt beam="1">  1       21 0.27554687E+00 0.42726931E+03</pdfrwt>
<pdfrwt beam="2">  1       21 0.16151149E-01 0.42726931E+03</pdfrwt>
<totfact> 0.13401640E+03</totfact>
</mgrwt>
</event>
<event>
 4    1  0.5003329E-002  0.4606707E+03  0.7818608E-02  0.1024587E+00
         21   -1    0    0  501  502  0.00000000000E+00  0.00000000000E+00  0.28108853729E+03  0.28108853729E+03  0.00000000000E+00 0. -1.
         21   -1    0    0  502  503 -0.00000000000E+00 -0.00000000000E+00 -0.78019039365E+03  0.78019039365E+03  0.00000000000E+00 0. -1.
    9000007    1    1    2  501    0 -0.95738517536E+02 -0.20748883460E+03 -0.15417241247E+03  0.48578453350E+03  0.40000000000E+03 0. -1.
   -9000007    1    1    2    0  503  0.95738517536E+02  0.20748883460E+03 -0.34492944389E+03  0.57549439744E+03  0.40000000000E+03 0. -1.
<mgrwt>
<rscale>  2 0.46067069E+03</rscale>
<asrwt>0</asrwt>
<pdfrwt beam="1">  1       21 0.43244390E-01 0.46067069E+03</pdfrwt>
<pdfrwt beam="2">  1       21 0.12002929E+00 0.46067069E+03</pdfrwt>
<totfact> 0.23329998E+03</totfact>
</mgrwt>
</event>
<event>
 4    1  0.5003329E-002  0.4228944E+03  0.7818608E-02  0.1036128E+00
         21   -1    0    0  501  502  0.00000000000E+00  0.00000000000E+00  0.22675841668E+03  0.22675841668E+03  0.00000000000E+00 0.  1.
         21   -1    0    0  502  503 -0.00000000000E+00 -0.00000000000E+00 -0.10305239233E+04  0.10305239233E+04  0.00000000000E+00 0.  1.
    9000007    1    1    2  501    0 -0.61889878771E+02  0.12251264081E+03 -0.70642101235E+03  0.82332882310E+03  0.40000000000E+03 0. -1.
   -9000007    1    1    2    0  503  0.61889878771E+02 -0.12251264081E+03 -0.97344494274E+02  0.43395351689E+03  0.40000000000E+03 0. -1.
<mgrwt>
<rscale>  2 0.42289444E+03</rscale>
<asrwt>0</asrwt>
<pdfrwt beam="1">  1       21 0.34885910E-01 0.42289444E+03</pdfrwt>
<pdfrwt beam="2">  1       21 0.15854214E+00 0.42289444E+03</pdfrwt>
<totfact> 0.17614701E+03</totfact>
</mgrwt>
</event>
<event>
 4    1  0.5003329E-002  0.5076765E+03  0.7818608E-02  0.1011794E+00
         21   -1    0    0  503  502  0.00000000000E+00  0.00000000000E+00  0.11190496331E+03  0.11190496331E+03  0.00000000000E+00 0.  1.
         21   -1    0    0  501  503 -0.00000000000E+00 -0.00000000000E+00 -0.23949770274E+04  0.23949770274E+04  0.00000000000E+00 0. -1.
    9000007    1    1    2  501    0  0.24614107262E+03  0.19274348047E+03 -0.13869535164E+04  0.14769480470E+04  0.40000000000E+03 0.  1.
   -9000007    1    1    2    0  502 -0.24614107262E+03 -0.19274348047E+03 -0.89611854770E+03  0.10299339437E+04  0.40000000000E+03 0.  1.
<mgrwt>
<rscale>  2 0.50767655E+03</rscale>
<asrwt>0</asrwt>
<pdfrwt beam="1">  1       21 0.17216148E-01 0.50767655E+03</pdfrwt>
<pdfrwt beam="2">  1       21 0.36845801E+00 0.50767655E+03</pdfrwt>
<totfact> 0.30976163E+02</totfact>
</mgrwt>
</event>
<event>
 4    1  0.5003329E-002  0.4204391E+03  0.7818608E-02  0.1036923E+00
         21   -1    0    0  501  502  0.00000000000E+00  0.00000000000E+00  0.10113776424E+04  0.10113776424E+04  0.00000000000E+00 0. -1.
         21   -1    0    0  502  503 -0.00000000000E+00 -0.00000000000E+00 -0.37133121006E+03  0.37133121006E+03  0.00000000000E+00 0. -1.
    9000007    1    1    2  501    0  0.55108968567E+02  0.11718388818E+03  0.82301091072E+03  0.92418397586E+03  0.40000000000E+03 0. -1.
   -9000007    1    1    2    0  503 -0.55108968567E+02 -0.11718388818E+03 -0.18296447841E+03  0.45852487656E+03  0.40000000000E+03 0. -1.
<mgrwt>
<rscale>  2 0.42043913E+03</rscale>
<asrwt>0</asrwt>
<pdfrwt beam="1">  1       21 0.15559656E+00 0.42043913E+03</pdfrwt>
<pdfrwt beam="2">  1       21 0.57127879E-01 0.42043913E+03</pdfrwt>
<totfact> 0.66221557E+02</totfact>
</mgrwt>
</event>
<event>
 4    1  0.5003329E-002  0.4746377E+03  0.7818608E-02  0.1020619E+00
         21   -1    0    0  501  502  0.00000000000E+00  0.00000000000E+00  0.53246138189E+03  0.53246138189E+03  0.00000000000E+00 0.  1.
         21   -1    0    0  502  503 -0.00000000000E+00 -0.00000000000E+00 -0.95485950929E+03  0.95485950929E+03  0.00000000000E+00 0.  1.
    9000007    1    1    2  501    0 -0.24712819042E+03 -0.64873535046E+02  0.34376550244E+03  0.58605088407E+03  0.40000000000E+03 0.  1.
   -9000007    1    1    2    0  503  0.24712819042E+03  0.64873535046E+02 -0.76616362984E+03  0.90127000712E+03  0.40000000000E+03 0.  1.
<mgrwt>
<rscale>  2 0.47463767E+03</rscale>
<asrwt>0</asrwt>
<pdfrwt beam="1">  1       21 0.81917136E-01 0.47463767E+03</pdfrwt>
<pdfrwt beam="2">  1       21 0.14690146E+00 0.47463767E+03</pdfrwt>
<totfact> 0.33625201E+02</totfact>
</mgrwt>
</event>
<event>
 4    1  0.5003329E-002  0.4289114E+03  0.7818608E-02  0.1034204E+00
         21   -1    0    0  503  502  0.00000000000E+00  0.00000000000E+00  0.41058385622E+03  0.41058385622E+03  0.00000000000E+00 0. -1.
         21   -1    0    0  501  503 -0.00000000000E+00 -0.00000000000E+00 -0.68159964195E+03  0.68159964195E+03  0.00000000000E+00 0. -1.
    9000007    1    1    2  501    0 -0.14381844524E+03 -0.57282062754E+02 -0.45516474029E+03  0.62541180090E+03  0.40000000000E+03 0. -1.
   -9000007    1    1    2    0  502  0.14381844524E+03  0.57282062754E+02  0.18414895456E+03  0.46677169727E+03  0.40000000000E+03 0. -1.
<mgrwt>
<rscale>  2 0.42891139E+03</rscale>
<asrwt>0</asrwt>
<pdfrwt beam="1">  1       21 0.63166748E-01 0.42891139E+03</pdfrwt>
<pdfrwt beam="2">  1       21 0.10486148E+00 0.42891139E+03</pdfrwt>
<totfact> 0.14684047E+03</totfact>
</mgrwt>
</event>
<event>
 4    1  0.5003329E-002  0.5980919E+03  0.7818608E-02  0.9909373E-01
         21   -1    0    0  501  502  0.00000000000E+00  0.00000000000E+00  0.52460082535E+03  0.52460082535E+03  0.00000000000E+00 0.  1.
         21   -1    0    0  502  503 -0.00000000000E+00 -0.00000000000E+00 -0.14697070437E+04  0.14697070437E+04  0.00000000000E+00 0. -1.
    9000007    1    1    2  501    0  0.14736520817E+03  0.41952041671E+03  0.25751394161E+03  0.65117379764E+03  0.40000000000E+03 0.  1.
   -9000007    1    1    2    0  503 -0.14736520817E+03 -0.41952041671E+03 -0.12026201599E+04  0.13431340714E+04  0.40000000000E+03 0. -1.
<mgrwt>
<rscale>  2 0.59809187E+03</rscale>
<asrwt>0</asrwt>
<pdfrwt beam="1">  1       21 0.80707819E-01 0.59809187E+03</pdfrwt>
<pdfrwt beam="2">  1       21 0.22610878E+00 0.59809187E+03</pdfrwt>
<totfact> 0.91279349E+01</totfact>
</mgrwt>
</event>
<event>
 4    1  0.5003329E-002  0.5297641E+03  0.7818608E-02  0.1006289E+00
         21   -1    0    0  503  502  0.00000000000E+00  0.00000000000E+00  0.66806737509E+03  0.66806737509E+03  0.00000000000E+00 0. -1.
         21   -1    0    0  501  503 -0.00000000000E+00 -0.00000000000E+00 -0.77608201549E+03  0.77608201549E+03  0.00000000000E+00 0.  1.
    9000007    1    1    2  501    0 -0.59471387252E+02 -0.34221798434E+03 -0.54305027871E+03  0.75865248956E+03  0.40000000000E+03 0.  1.
   -9000007    1    1    2    0  502  0.59471387252E+02  0.34221798434E+03  0.43503563831E+03  0.68549690102E+03  0.40000000000E+03 0. -1.
<mgrwt>
<rscale>  2 0.52976409E+03</rscale>
<asrwt>0</asrwt>
<pdfrwt beam="1">  1       21 0.10277960E+00 0.52976409E+03</pdfrwt>
<pdfrwt beam="2">  1       21 0.11939723E+00 0.52976409E+03</pdfrwt>
<totfact> 0.32918177E+02</totfact>
</mgrwt>
</event>
<event>
 4    1  0.5003329E-002  0.4166971E+03  0.7818608E-02  0.1038147E+00
         21   -1    0    0  503  502  0.00000000000E+00  0.00000000000E+00  0.99663091806E+02  0.99663091806E+02  0.00000000000E+00 0. -1.
         21   -1    0    0  501  503 -0.00000000000E+00 -0.00000000000E+00 -0.19001171905E+04  0.19001171905E+04  0.00000000000E+00 0. -1.
    9000007    1    1    2  501    0  0.86324297517E+02 -0.78642282665E+02 -0.11884503787E+04  0.12593850863E+04  0.40000000000E+03 0. -1.
   -9000007    1    1    2    0  502 -0.86324297517E+02  0.78642282665E+02 -0.61200371992E+03  0.74039519593E+03  0.40000000000E+03 0. -1.
<mgrwt>
<rscale>  2 0.41669712E+03</rscale>
<asrwt>0</asrwt>
<pdfrwt beam="1">  1       21 0.15332783E-01 0.41669712E+03</pdfrwt>
<pdfrwt beam="2">  1       21 0.29232574E+00 0.41669712E+03</pdfrwt>
<totfact> 0.11773299E+03</totfact>
</mgrwt>
</event>
<event>
 4    1  0.5003329E-002  0.4352190E+03  0.7818608E-02  0.1032224E+00
         21   -1    0    0  501  502  0.00000000000E+00  0.00000000000E+00  0.36486507161E+03  0.36486507161E+03  0.00000000000E+00 0.  1.
         21   -1    0    0  502  503 -0.00000000000E+00 -0.00000000000E+00 -0.52676857125E+03  0.52676857125E+03  0.00000000000E+00 0.  1.
    9000007    1    1    2  501    0  0.16741320066E+03 -0.37261430261E+02 -0.27297520790E+02  0.43607424664E+03  0.40000000000E+03 0. -1.
   -9000007    1    1    2    0  503 -0.16741320066E+03  0.37261430261E+02 -0.13460597885E+03  0.45555939622E+03  0.40000000000E+03 0. -1.
<mgrwt>
<rscale>  2 0.43521902E+03</rscale>
<asrwt>0</asrwt>
<pdfrwt beam="1">  1       21 0.56133088E-01 0.43521902E+03</pdfrwt>
<pdfrwt beam="2">  1       21 0.81041319E-01 0.43521902E+03</pdfrwt>
<totfact> 0.35028962E+03</totfact>
</mgrwt>
</event>
<event>
 4    1  0.5003329E-002  0.5136110E+03  0.7818608E-02  0.1010286E+00
         21   -1    0    0  501  502  0.00000000000E+00  0.00000000000E+00  0.17515412947E+03  0.17515412947E+03  0.00000000000E+00 0. -1.
         21   -1    0    0  502  503 -0.00000000000E+00 -0.00000000000E+00 -0.21362621805E+04  0.21362621805E+04  0.00000000000E+00 0. -1.
    9000007    1    1    2  501    0 -0.14823705033E+03  0.28604549741E+03 -0.35285171358E+03  0.62313769061E+03  0.40000000000E+03 0. -1.
   -9000007    1    1    2    0  503  0.14823705033E+03 -0.28604549741E+03 -0.16082563375E+04  0.16882786194E+04  0.40000000000E+03 0. -1.
<mgrwt>
<rscale>  2 0.51361099E+03</rscale>
<asrwt>0</asrwt>
<pdfrwt beam="1">  1       21 0.26946791E-01 0.51361099E+03</pdfrwt>
<pdfrwt beam="2">  1       21 0.32865570E+00 0.51361099E+03</pdfrwt>
<totfact> 0.22959840E+02</totfact>
</mgrwt>
</event>
<event>
 4    1  0.5003329E-002  0.4814112E+03  0.7818608E-02  0.1018748E+00
         21   -1    0    0  501  502  0.00000000000E+00  0.00000000000E+00  0.31796621425E+03  0.31796621425E+03  0.00000000000E+00 0.  1.
         21   -1    0    0  502  503 -0.00000000000E+00 -0.00000000000E+00 -0.72888760915E+03  0.72888760915E+03  0.00000000000E+00 0.  1.
    9000007    1    1    2  501    0 -0.26318831435E+03 -0.49886109886E+02 -0.20787259434E+03  0.52437365327E+03  0.40000000000E+03 0.  1.
   -9000007    1    1    2    0  503  0.26318831435E+03  0.49886109886E+02 -0.20304880056E+03  0.52248017013E+03  0.40000000000E+03 0.  1.
<mgrwt>
<rscale>  2 0.48141117E+03</rscale>
<asrwt>0</asrwt>
<pdfrwt beam="1">  1       21 0.48917879E-01 0.48141117E+03</pdfrwt>
<pdfrwt beam="2">  1       21 0.11213655E+00 0.48141117E+03</pdfrwt>
<totfact> 0.21197862E+03</totfact>
</mgrwt>
</event>
<event>
 4    1  0.5003329E-002  0.5113899E+03  0.7818608E-02  0.1010848E+00
         21   -1    0    0  503  502  0.00000000000E+00  0.00000000000E+00  0.74253476820E+03  0.74253476820E+03  0.00000000000E+00 0.  1.
         21   -1    0    0  501  503 -0.00000000000E+00 -0.00000000000E+00 -0.35693800805E+03  0.35693800805E+03  0.00000000000E+00 0.  1.
    9000007    1    1    2  501    0 -0.28524202101E+03 -0.14197385573E+03  0.12945116682E+03  0.52751984877E+03  0.40000000000E+03 0.  1.
   -9000007    1    1    2    0  502  0.28524202101E+03  0.14197385573E+03  0.25614559333E+03  0.57195292747E+03  0.40000000000E+03 0.  1.
<mgrwt>
<rscale>  2 0.51138986E+03</rscale>
<asrwt>0</asrwt>
<pdfrwt beam="1">  1       21 0.11423612E+00 0.51138986E+03</pdfrwt>
<pdfrwt beam="2">  1       21 0.54913540E-01 0.51138986E+03</pdfrwt>
<totfact> 0.15631594E+03</totfact>
</mgrwt>
</event>
<event>
 4    1  0.5003329E-002  0.5696026E+03  0.7818608E-02  0.9970558E-01
         21   -1    0    0  501  502  0.00000000000E+00  0.00000000000E+00  0.22336540861E+03  0.22336540861E+03  0.00000000000E+00 0.  1.
         21   -1    0    0  502  503 -0.00000000000E+00 -0.00000000000E+00 -0.15527425251E+04  0.15527425251E+04  0.00000000000E+00 0.  1.
    9000007    1    1    2  501    0  0.39055991965E+03  0.10913349699E+03 -0.43909372014E+03  0.71920126951E+03  0.40000000000E+03 0.  1.
   -9000007    1    1    2    0  503 -0.39055991965E+03 -0.10913349699E+03 -0.89028339632E+03  0.10569066642E+04  0.40000000000E+03 0.  1.
<mgrwt>
<rscale>  2 0.56960264E+03</rscale>
<asrwt>0</asrwt>
<pdfrwt beam="1">  1       21 0.34363908E-01 0.56960264E+03</pdfrwt>
<pdfrwt beam="2">  1       21 0.23888347E+00 0.56960264E+03</pdfrwt>
<totfact> 0.48659186E+02</totfact>
</mgrwt>
</event>
<event>
 4    1  0.5003329E-002  0.4615183E+03  0.7818608E-02  0.1024342E+00
         21   -1    0    0  503  502  0.00000000000E+00  0.00000000000E+00  0.16762926077E+03  0.16762926077E+03  0.00000000000E+00 0. -1.
         21   -1    0    0  501  503 -0.00000000000E+00 -0.00000000000E+00 -0.13277849680E+04  0.13277849680E+04  0.00000000000E+00 0.  1.
    9000007    1    1    2  501    0 -0.21788284224E+03  0.74338236507E+02 -0.42498339771E+03  0.62738345107E+03  0.40000000000E+03 0. -1.
   -9000007    1    1    2    0  502  0.21788284224E+03 -0.74338236507E+02 -0.73517230951E+03  0.86803077769E+03  0.40000000000E+03 0.  1.
<mgrwt>
<rscale>  2 0.46151826E+03</rscale>
<asrwt>0</asrwt>
<pdfrwt beam="1">  1       21 0.25789116E-01 0.46151826E+03</pdfrwt>
<pdfrwt beam="2">  1       21 0.20427462E+00 0.46151826E+03</pdfrwt>
<totfact> 0.15042249E+03</totfact>
</mgrwt>
</event>
<event>
 4    1  0.5003329E-002  0.4657960E+03  0.7818608E-02  0.1023114E+00
         21   -1    0    0  503  502  0.00000000000E+00  0.00000000000E+00  0.14153598476E+04  0.14153598476E+04  0.00000000000E+00 0.  1.
         21   -1    0    0  501  503 -0.00000000000E+00 -0.00000000000E+00 -0.17126908686E+03  0.17126908686E+03  0.00000000000E+00 0.  1.
    9000007    1    1    2  501    0  0.11653347101E+03  0.20829263354E+03  0.36503897061E+03  0.59179330945E+03  0.40000000000E+03 0.  1.
   -9000007    1    1    2    0  502 -0.11653347101E+03 -0.20829263354E+03  0.87905179018E+03  0.99483562505E+03  0.40000000000E+03 0.  1.
<mgrwt>
<rscale>  2 0.46579595E+03</rscale>
<asrwt>0</asrwt>
<pdfrwt beam="1">  1       21 0.21774766E+00 0.46579595E+03</pdfrwt>
<pdfrwt beam="2">  1       21 0.26349091E-01 0.46579595E+03</pdfrwt>
<totfact> 0.11761012E+03</totfact>
</mgrwt>
</event>
<event>
 4    1  0.5003329E-002  0.4289617E+03  0.7818608E-02  0.1034188E+00
         21   -1    0    0  501  502  0.00000000000E+00  0.00000000000E+00  0.84502493499E+02  0.84502493499E+02  0.00000000000E+00 0. -1.
         21   -1    0    0  502  503 -0.00000000000E+00 -0.00000000000E+00 -0.27311090105E+04  0.27311090105E+04  0.00000000000E+00 0. -1.
    9000007    1    1    2  501    0 -0.53009945289E+02  0.14559572502E+03 -0.68949736658E+03  0.81204358748E+03  0.40000000000E+03 0. -1.
   -9000007    1    1    2    0  503  0.53009945289E+02 -0.14559572502E+03 -0.19571091504E+04  0.20035679165E+04  0.40000000000E+03 0. -1.
<mgrwt>
<rscale>  2 0.42896173E+03</rscale>
<asrwt>0</asrwt>
<pdfrwt beam="1">  1       21 0.13000383E-01 0.42896173E+03</pdfrwt>
<pdfrwt beam="2">  1       21 0.42017063E+00 0.42896173E+03</pdfrwt>
<totfact> 0.25614327E+02</totfact>
</mgrwt>
</event>
<event>
 4    1  0.5003329E-002  0.5159322E+03  0.7818608E-02  0.1009702E+00
         21   -1    0    0  503  502  0.00000000000E+00  0.00000000000E+00  0.97330408392E+03  0.97330408392E+03  0.00000000000E+00 0. -1.
         21   -1    0    0  501  503 -0.00000000000E+00 -0.00000000000E+00 -0.28983303420E+03  0.28983303420E+03  0.00000000000E+00 0. -1.
    9000007    1    1    2  501    0 -0.51145750503E+02 -0.32182314520E+03  0.19174887068E+03  0.55041225821E+03  0.40000000000E+03 0. -1.
   -9000007    1    1    2    0  502  0.51145750503E+02  0.32182314520E+03  0.49172217904E+03  0.71272485992E+03  0.40000000000E+03 0. -1.
<mgrwt>
<rscale>  2 0.51593219E+03</rscale>
<asrwt>0</asrwt>
<pdfrwt beam="1">  1       21 0.14973909E+00 0.51593219E+03</pdfrwt>
<pdfrwt beam="2">  1       21 0.44589698E-01 0.51593219E+03</pdfrwt>
<totfact> 0.11984796E+03</totfact>
</mgrwt>
</event>
<event>
 4    1  0.5003329E-002  0.4381335E+03  0.7818608E-02  0.1031321E+00
         21   -1    0    0  501  502  0.00000000000E+00  0.00000000000E+00  0.91798514239E+03  0.91798514239E+03  0.00000000000E+00 0. -1.
         21   -1    0    0  502  503 -0.00000000000E+00 -0.00000000000E+00 -0.25781051867E+03  0.25781051867E+03  0.00000000000E+00 0.  1.
    9000007    1    1    2  501    0  0.12802807491E+03  0.12477877920E+03  0.58560042463E+03  0.73136091571E+03  0.40000000000E+03 0. -1.
   -9000007    1    1    2    0  503 -0.12802807491E+03 -0.12477877920E+03  0.74574199092E+02  0.44443474535E+03  0.40000000000E+03 0.  1.
<mgrwt>
<rscale>  2 0.43813346E+03</rscale>
<asrwt>0</asrwt>
<pdfrwt beam="1">  1       21 0.14122848E+00 0.43813346E+03</pdfrwt>
<pdfrwt beam="2">  1       21 0.39663157E-01 0.43813346E+03</pdfrwt>
<totfact> 0.18440713E+03</totfact>
</mgrwt>
</event>
<event>
 4    1  0.5003329E-002  0.4018172E+03  0.7818608E-02  0.1043152E+00
         21   -1    0    0  501  502  0.00000000000E+00  0.00000000000E+00  0.35180317092E+03  0.35180317092E+03  0.00000000000E+00 0.  1.
         21   -1    0    0  502  503 -0.00000000000E+00 -0.00000000000E+00 -0.13638605465E+04  0.13638605465E+04  0.00000000000E+00 0.  1.
    9000007    1    1    2  501    0  0.28166900790E+02  0.25762847181E+02  0.19272165930E+03  0.44564418156E+03  0.40000000000E+03 0.  1.
   -9000007    1    1    2    0  503 -0.28166900790E+02 -0.25762847181E+02 -0.12047790349E+04  0.12700195358E+04  0.40000000000E+03 0.  1.
<mgrwt>
<rscale>  2 0.40181725E+03</rscale>
<asrwt>0</asrwt>
<pdfrwt beam="1">  1       21 0.54123565E-01 0.40181725E+03</pdfrwt>
<pdfrwt beam="2">  1       21 0.20982470E+00 0.40181725E+03</pdfrwt>
<totfact> 0.31347843E+02</totfact>
</mgrwt>
</event>
<event>
 4    1  0.5003329E-002  0.4961745E+03  0.7818608E-02  0.1014782E+00
         21   -1    0    0  501  502  0.00000000000E+00  0.00000000000E+00  0.11980933588E+04  0.11980933588E+04  0.00000000000E+00 0.  1.
         21   -1    0    0  502  503 -0.00000000000E+00 -0.00000000000E+00 -0.22191685879E+03  0.22191685879E+03  0.00000000000E+00 0. -1.
    9000007    1    1    2  501    0  0.11670746504E+03  0.26938534681E+03  0.29488163774E+03  0.57718651903E+03  0.40000000000E+03 0.  1.
   -9000007    1    1    2    0  503 -0.11670746504E+03 -0.26938534681E+03  0.68129486223E+03  0.84282369851E+03  0.40000000000E+03 0.  1.
<mgrwt>
<rscale>  2 0.49617446E+03</rscale>
<asrwt>0</asrwt>
<pdfrwt beam="1">  1       21 0.18432205E+00 0.49617446E+03</pdfrwt>
<pdfrwt beam="2">  1       21 0.34141056E-01 0.49617446E+03</pdfrwt>
<totfact> 0.11596169E+03</totfact>
</mgrwt>
</event>
<event>
 4    1  0.5003329E-002  0.5583018E+03  0.7818608E-02  0.9995905E-01
         21   -1    0    0  501  502  0.00000000000E+00  0.00000000000E+00  0.23528537960E+04  0.23528537960E+04  0.00000000000E+00 0. -1.
         21   -1    0    0  502  503 -0.00000000000E+00 -0.00000000000E+00 -0.14805179405E+03  0.14805179405E+03  0.00000000000E+00 0. -1.
    9000007    1    1    2  501    0  0.12867520758E+03  0.36761875882E+03  0.15079661859E+04  0.16079996513E+04  0.40000000000E+03 0. -1.
   -9000007    1    1    2    0  503 -0.12867520758E+03 -0.36761875882E+03  0.69683581609E+03  0.89290593876E+03  0.40000000000E+03 0. -1.
<mgrwt>
<rscale>  2 0.55830177E+03</rscale>
<asrwt>0</asrwt>
<pdfrwt beam="1">  1       21 0.36197748E+00 0.55830177E+03</pdfrwt>
<pdfrwt beam="2">  1       21 0.22777201E-01 0.55830177E+03</pdfrwt>
<totfact> 0.19403830E+02</totfact>
</mgrwt>
</event>
<event>
 4    1  0.5003329E-002  0.5401100E+03  0.7818608E-02  0.1003809E+00
         21   -1    0    0  501  502  0.00000000000E+00  0.00000000000E+00  0.57280145193E+03  0.57280145193E+03  0.00000000000E+00 0. -1.
         21   -1    0    0  502  503 -0.00000000000E+00 -0.00000000000E+00 -0.50929071430E+03  0.50929071430E+03  0.00000000000E+00 0. -1.
    9000007    1    1    2  501    0 -0.18789664084E+02 -0.36244419498E+03  0.33659875523E+02  0.54115786345E+03  0.40000000000E+03 0. -1.
   -9000007    1    1    2    0  503  0.18789664084E+02  0.36244419498E+03  0.29850862099E+02  0.54093430278E+03  0.40000000000E+03 0. -1.
<mgrwt>
<rscale>  2 0.54011003E+03</rscale>
<asrwt>0</asrwt>
<pdfrwt beam="1">  1       21 0.88123300E-01 0.54011003E+03</pdfrwt>
<pdfrwt beam="2">  1       21 0.78352418E-01 0.54011003E+03</pdfrwt>
<totfact> 0.13180627E+03</totfact>
</mgrwt>
</event>
<event>
 4    1  0.5003329E-002  0.4256454E+03  0.7818608E-02  0.1035244E+00
         21   -1    0    0  503  502  0.00000000000E+00  0.00000000000E+00  0.25564878243E+03  0.25564878243E+03  0.00000000000E+00 0.  1.
         21   -1    0    0  501  503 -0.00000000000E+00 -0.00000000000E+00 -0.75951193501E+03  0.75951193501E+03  0.00000000000E+00 0.  1.
    9000007    1    1    2  501    0 -0.56492750618E+02 -0.13409926707E+03 -0.38323963200E+03  0.57275357689E+03  0.40000000000E+03 0. -1.
   -9000007    1    1    2    0  502  0.56492750618E+02  0.13409926707E+03 -0.12062352058E+03  0.44240714056E+03  0.40000000000E+03 0. -1.
<mgrwt>
<rscale>  2 0.42564544E+03</rscale>
<asrwt>0</asrwt>
<pdfrwt beam="1">  1       21 0.39330582E-01 0.42564544E+03</pdfrwt>
<pdfrwt beam="2">  1       21 0.11684799E+00 0.42564544E+03</pdfrwt>
<totfact> 0.30783622E+03</totfact>
</mgrwt>
</event>
<event>
 4    1  0.5003329E-002  0.4643425E+03  0.7818608E-02  0.1023529E+00
         21   -1    0    0  503  502  0.00000000000E+00  0.00000000000E+00  0.75560217899E+03  0.75560217899E+03  0.00000000000E+00 0. -1.
         21   -1    0    0  501  503 -0.00000000000E+00 -0.00000000000E+00 -0.32687742080E+03  0.32687742080E+03  0.00000000000E+00 0. -1.
    9000007    1    1    2  501    0  0.22967190998E+03  0.53523737854E+02  0.21456835727E+02  0.46483800678E+03  0.40000000000E+03 0. -1.
   -9000007    1    1    2    0  502 -0.22967190998E+03 -0.53523737854E+02  0.40726792247E+03  0.61764159301E+03  0.40000000000E+03 0. -1.
<mgrwt>
<rscale>  2 0.46434252E+03</rscale>
<asrwt>0</asrwt>
<pdfrwt beam="1">  1       21 0.11624649E+00 0.46434252E+03</pdfrwt>
<pdfrwt beam="2">  1       21 0.50288834E-01 0.46434252E+03</pdfrwt>
<totfact> 0.18380953E+03</totfact>
</mgrwt>
</event>
<event>
 4    1  0.5003329E-002  0.4337918E+03  0.7818608E-02  0.1032669E+00
         21   -1    0    0  503  502  0.00000000000E+00  0.00000000000E+00  0.10342073082E+04  0.10342073082E+04  0.00000000000E+00 0. -1.
         21   -1    0    0  501  503 -0.00000000000E+00 -0.00000000000E+00 -0.18976977263E+03  0.18976977263E+03  0.00000000000E+00 0. -1.
    9000007    1    1    2  501    0 -0.16758549750E+03  0.95076008655E+01  0.29799845123E+03  0.52628734583E+03  0.40000000000E+03 0. -1.
   -9000007    1    1    2    0  502  0.16758549750E+03 -0.95076008655E+01  0.54643908437E+03  0.69768973504E+03  0.40000000000E+03 0. -1.
<mgrwt>
<rscale>  2 0.43379176E+03</rscale>
<asrwt>0</asrwt>
<pdfrwt beam="1">  1       21 0.15910881E+00 0.43379176E+03</pdfrwt>
<pdfrwt beam="2">  1       21 0.29195350E-01 0.43379176E+03</pdfrwt>
<totfact> 0.24787177E+03</totfact>
</mgrwt>
</event>
<event>
 4    1  0.5003329E-002  0.6269255E+03  0.7818608E-02  0.9851067E-01
         21   -1    0    0  501  502  0.00000000000E+00  0.00000000000E+00  0.13092462695E+04  0.13092462695E+04  0.00000000000E+00 0. -1.
         21   -1    0    0  502  503 -0.00000000000E+00 -0.00000000000E+00 -0.39081052053E+03  0.39081052053E+03  0.00000000000E+00 0. -1.
    9000007    1    1    2  501    0 -0.47262674258E+03 -0.98282866148E+02  0.86851616911E+03  0.10711470000E+04  0.40000000000E+03 0. -1.
   -9000007    1    1    2    0  503  0.47262674258E+03  0.98282866148E+02  0.49919579873E+02  0.62890979006E+03  0.40000000000E+03 0. -1.
<mgrwt>
<rscale>  2 0.62692548E+03</rscale>
<asrwt>0</asrwt>
<pdfrwt beam="1">  1       21 0.20142250E+00 0.62692548E+03</pdfrwt>
<pdfrwt beam="2">  1       21 0.60124696E-01 0.62692548E+03</pdfrwt>
<totfact> 0.25542350E+02</totfact>
</mgrwt>
</event>
<event>
 4    1  0.5003329E-002  0.4749608E+03  0.7818608E-02  0.1020529E+00
         21   -1    0    0  501  502  0.00000000000E+00  0.00000000000E+00  0.29125132974E+03  0.29125132974E+03  0.00000000000E+00 0.  1.
         21   -1    0    0  502  503 -0.00000000000E+00 -0.00000000000E+00 -0.10648375142E+04  0.10648375142E+04  0.00000000000E+00 0. -1.
    9000007    1    1    2  501    0  0.17561276013E+03  0.18640794202E+03 -0.32768764073E+02  0.47608985945E+03  0.40000000000E+03 0.  1.
   -9000007    1    1    2    0  503 -0.17561276013E+03 -0.18640794202E+03 -0.74081742041E+03  0.87999898452E+03  0.40000000000E+03 0. -1.
<mgrwt>
<rscale>  2 0.47496080E+03</rscale>
<asrwt>0</asrwt>
<pdfrwt beam="1">  1       21 0.44807897E-01 0.47496080E+03</pdfrwt>
<pdfrwt beam="2">  1       21 0.16382115E+00 0.47496080E+03</pdfrwt>
<totfact> 0.93956129E+02</totfact>
</mgrwt>
</event>
<event>
 4    1  0.5003329E-002  0.4668175E+03  0.7818608E-02  0.1022822E+00
         21   -1    0    0  503  502  0.00000000000E+00  0.00000000000E+00  0.58401557599E+02  0.58401557599E+02  0.00000000000E+00 0. -1.
         21   -1    0    0  501  503 -0.00000000000E+00 -0.00000000000E+00 -0.38234815668E+04  0.38234815668E+04  0.00000000000E+00 0. -1.
    9000007    1    1    2  501    0  0.36848119949E+02 -0.23782519101E+03 -0.15813029887E+04  0.16487685548E+04  0.40000000000E+03 0. -1.
   -9000007    1    1    2    0  502 -0.36848119949E+02  0.23782519101E+03 -0.21837770206E+04  0.22331145696E+04  0.40000000000E+03 0. -1.
<mgrwt>
<rscale>  2 0.46681753E+03</rscale>
<asrwt>0</asrwt>
<pdfrwt beam="1">  1       21 0.89848528E-02 0.46681753E+03</pdfrwt>
<pdfrwt beam="2">  1       21 0.58822808E+00 0.46681753E+03</pdfrwt>
<totfact> 0.30458729E+01</totfact>
</mgrwt>
</event>
<event>
 4    1  0.5003329E-002  0.4124162E+03  0.7818608E-02  0.1039563E+00
         21   -1    0    0  503  502  0.00000000000E+00  0.00000000000E+00  0.84586849043E+03  0.84586849043E+03  0.00000000000E+00 0. -1.
         21   -1    0    0  501  503 -0.00000000000E+00 -0.00000000000E+00 -0.20860375643E+03  0.20860375643E+03  0.00000000000E+00 0. -1.
    9000007    1    1    2  501    0 -0.12662321305E+02  0.99633137478E+02  0.21850190440E+03  0.46672280713E+03  0.40000000000E+03 0. -1.
   -9000007    1    1    2    0  502  0.12662321305E+02 -0.99633137478E+02  0.41876282960E+03  0.58774943974E+03  0.40000000000E+03 0. -1.
<mgrwt>
<rscale>  2 0.41241617E+03</rscale>
<asrwt>0</asrwt>
<pdfrwt beam="1">  1       21 0.13013361E+00 0.41241617E+03</pdfrwt>
<pdfrwt beam="2">  1       21 0.32092886E-01 0.41241617E+03</pdfrwt>
<totfact> 0.35469441E+03</totfact>
</mgrwt>
</event>
<event>
 4    1  0.5003329E-002  0.4181660E+03  0.7818608E-02  0.1037665E+00
         21   -1    0    0  501  502  0.00000000000E+00  0.00000000000E+00  0.26329755267E+03  0.26329755267E+03  0.00000000000E+00 0. -1.
         21   -1    0    0  502  503 -0.00000000000E+00 -0.00000000000E+00 -0.14808104909E+04  0.14808104909E+04  0.00000000000E+00 0. -1.
    9000007    1    1    2  501    0 -0.12162973490E+03 -0.83071184720E+01  0.38864275350E+02  0.41996813275E+03  0.40000000000E+03 0. -1.
   -9000007    1    1    2    0  503  0.12162973490E+03  0.83071184720E+01 -0.12563772136E+04  0.13241399109E+04  0.40000000000E+03 0. -1.
<mgrwt>
<rscale>  2 0.41816600E+03</rscale>
<asrwt>0</asrwt>
<pdfrwt beam="1">  1       21 0.40507316E-01 0.41816600E+03</pdfrwt>
<pdfrwt beam="2">  1       21 0.22781699E+00 0.41816600E+03</pdfrwt>
<totfact> 0.43843287E+02</totfact>
</mgrwt>
</event>
<event>
 4    1  0.5003329E-002  0.5315283E+03  0.7818608E-02  0.1005862E+00
         21   -1    0    0  501  502  0.00000000000E+00  0.00000000000E+00  0.66937315546E+03  0.66937315546E+03  0.00000000000E+00 0. -1.
         21   -1    0    0  502  503 -0.00000000000E+00 -0.00000000000E+00 -0.49903656746E+03  0.49903656746E+03  0.00000000000E+00 0.  1.
    9000007    1    1    2  501    0  0.23739460340E+03  0.25722781880E+03  0.31459816093E+03  0.61765229001E+03  0.40000000000E+03 0. -1.
   -9000007    1    1    2    0  503 -0.23739460340E+03 -0.25722781880E+03 -0.14426157294E+03  0.55075743292E+03  0.40000000000E+03 0.  1.
<mgrwt>
<rscale>  2 0.53152831E+03</rscale>
<asrwt>0</asrwt>
<pdfrwt beam="1">  1       21 0.10298049E+00 0.53152831E+03</pdfrwt>
<pdfrwt beam="2">  1       21 0.76774856E-01 0.53152831E+03</pdfrwt>
<totfact> 0.95140096E+02</totfact>
</mgrwt>
</event>
<event>
 4    1  0.5003329E-002  0.5221716E+03  0.7818608E-02  0.1008149E+00
         21   -1    0    0  501  502  0.00000000000E+00  0.00000000000E+00  0.64457157076E+03  0.64457157076E+03  0.00000000000E+00 0. -1.
         21   -1    0    0  502  503 -0.00000000000E+00 -0.00000000000E+00 -0.46899112170E+03  0.46899112170E+03  0.00000000000E+00 0. -1.
    9000007    1    1    2  501    0  0.18822663897E+03  0.27790991606E+03  0.26211952749E+03  0.58426863321E+03  0.40000000000E+03 0. -1.
   -9000007    1    1    2    0  503 -0.18822663897E+03 -0.27790991606E+03 -0.86539078441E+02  0.52929405925E+03  0.40000000000E+03 0. -1.
<mgrwt>
<rscale>  2 0.52217161E+03</rscale>
<asrwt>0</asrwt>
<pdfrwt beam="1">  1       21 0.99164857E-01 0.52217161E+03</pdfrwt>
<pdfrwt beam="2">  1       21 0.72152480E-01 0.52217161E+03</pdfrwt>
<totfact> 0.12066614E+03</totfact>
</mgrwt>
</event>
<event>
 4    1  0.5003329E-002  0.4227123E+03  0.7818608E-02  0.1036187E+00
         21   -1    0    0  503  502  0.00000000000E+00  0.00000000000E+00  0.25506173922E+04  0.25506173922E+04  0.00000000000E+00 0. -1.
         21   -1    0    0  501  503 -0.00000000000E+00 -0.00000000000E+00 -0.78925577089E+02  0.78925577089E+02  0.00000000000E+00 0. -1.
    9000007    1    1    2  501    0  0.57077020324E+02 -0.12420898545E+03  0.16766002794E+04  0.17290674235E+04  0.40000000000E+03 0. -1.
   -9000007    1    1    2    0  502 -0.57077020324E+02  0.12420898545E+03  0.79509153576E+03  0.90047554578E+03  0.40000000000E+03 0. -1.
<mgrwt>
<rscale>  2 0.42271226E+03</rscale>
<asrwt>0</asrwt>
<pdfrwt beam="1">  1       21 0.39240261E+00 0.42271226E+03</pdfrwt>
<pdfrwt beam="2">  1       21 0.12142398E-01 0.42271226E+03</pdfrwt>
<totfact> 0.44005339E+02</totfact>
</mgrwt>
</event>
<event>
 4    1  0.5003329E-002  0.4883101E+03  0.7818608E-02  0.1016876E+00
         21   -1    0    0  503  502  0.00000000000E+00  0.00000000000E+00  0.18878393732E+03  0.18878393732E+03  0.00000000000E+00 0.  1.
         21   -1    0    0  501  503 -0.00000000000E+00 -0.00000000000E+00 -0.13440452322E+04  0.13440452322E+04  0.00000000000E+00 0. -1.
    9000007    1    1    2  501    0  0.26352312123E+03  0.94880675590E+02 -0.76575314135E+03  0.90819857493E+03  0.40000000000E+03 0. -1.
   -9000007    1    1    2    0  502 -0.26352312123E+03 -0.94880675590E+02 -0.38950815353E+03  0.62463059458E+03  0.40000000000E+03 0.  1.
<mgrwt>
<rscale>  2 0.48831012E+03</rscale>
<asrwt>0</asrwt>
<pdfrwt beam="1">  1       21 0.29043683E-01 0.48831012E+03</pdfrwt>
<pdfrwt beam="2">  1       21 0.20677619E+00 0.48831012E+03</pdfrwt>
<totfact> 0.11329963E+03</totfact>
</mgrwt>
</event>
<event>
 4    1  0.5003329E-002  0.5063189E+03  0.7818608E-02  0.1012143E+00
         21   -1    0    0  503  502  0.00000000000E+00  0.00000000000E+00  0.25343991990E+03  0.25343991990E+03  0.00000000000E+00 0.  1.
         21   -1    0    0  501  503 -0.00000000000E+00 -0.00000000000E+00 -0.10396844029E+04  0.10396844029E+04  0.00000000000E+00 0.  1.
    9000007    1    1    2  501    0 -0.29895125946E+03  0.83588163734E+02 -0.49954424414E+03  0.71126878780E+03  0.40000000000E+03 0.  1.
   -9000007    1    1    2    0  502  0.29895125946E+03 -0.83588163734E+02 -0.28670023888E+03  0.58185553501E+03  0.40000000000E+03 0.  1.
<mgrwt>
<rscale>  2 0.50631891E+03</rscale>
<asrwt>0</asrwt>
<pdfrwt beam="1">  1       21 0.38990757E-01 0.50631891E+03</pdfrwt>
<pdfrwt beam="2">  1       21 0.15995145E+00 0.50631891E+03</pdfrwt>
<totfact> 0.13247924E+03</totfact>
</mgrwt>
</event>
<event>
 4    1  0.5003329E-002  0.6658934E+03  0.7818608E-02  0.9777405E-01
         21   -1    0    0  501  502  0.00000000000E+00  0.00000000000E+00  0.24396282932E+04  0.24396282932E+04  0.00000000000E+00 0. -1.
         21   -1    0    0  502  503 -0.00000000000E+00 -0.00000000000E+00 -0.32160845689E+03  0.32160845689E+03  0.00000000000E+00 0. -1.
    9000007    1    1    2  501    0  0.32916154213E+03 -0.41840975134E+03  0.14857919776E+03  0.68226814291E+03  0.40000000000E+03 0. -1.
   -9000007    1    1    2    0  503 -0.32916154213E+03  0.41840975134E+03  0.19694406386E+04  0.20789686072E+04  0.40000000000E+03 0. -1.
<mgrwt>
<rscale>  2 0.66589342E+03</rscale>
<asrwt>0</asrwt>
<pdfrwt beam="1">  1       21 0.37532742E+00 0.66589342E+03</pdfrwt>
<pdfrwt beam="2">  1       21 0.49478226E-01 0.66589342E+03</pdfrwt>
<totfact> 0.31376548E+01</totfact>
</mgrwt>
</event>
<event>
 4    1  0.5003329E-002  0.4198838E+03  0.7818608E-02  0.1037104E+00
         21   -1    0    0  501  502  0.00000000000E+00  0.00000000000E+00  0.19918596818E+04  0.19918596818E+04  0.00000000000E+00 0. -1.
         21   -1    0    0  502  503 -0.00000000000E+00 -0.00000000000E+00 -0.13276699156E+03  0.13276699156E+03  0.00000000000E+00 0. -1.
    9000007    1    1    2  501    0 -0.49618666009E+02 -0.11764533716E+03  0.15428722190E+04  0.15989862794E+04  0.40000000000E+03 0. -1.
   -9000007    1    1    2    0  503  0.49618666009E+02  0.11764533716E+03  0.31622047120E+03  0.52564039398E+03  0.40000000000E+03 0. -1.
<mgrwt>
<rscale>  2 0.41988384E+03</rscale>
<asrwt>0</asrwt>
<pdfrwt beam="1">  1       21 0.30643993E+00 0.41988384E+03</pdfrwt>
<pdfrwt beam="2">  1       21 0.20425692E-01 0.41988384E+03</pdfrwt>
<totfact> 0.56423728E+02</totfact>
</mgrwt>
</event>
<event>
 4    1  0.5003329E-002  0.4086400E+03  0.7818608E-02  0.1040828E+00
         21   -1    0    0  501  502  0.00000000000E+00  0.00000000000E+00  0.30420045519E+03  0.30420045519E+03  0.00000000000E+00 0.  1.
         21   -1    0    0  502  503 -0.00000000000E+00 -0.00000000000E+00 -0.57223381339E+03  0.57223381339E+03  0.00000000000E+00 0.  1.
    9000007    1    1    2  501    0  0.78969609011E+02 -0.27395010707E+02 -0.45595364064E+02  0.41117590273E+03  0.40000000000E+03 0.  1.
   -9000007    1    1    2    0  503 -0.78969609011E+02  0.27395010707E+02 -0.22243799413E+03  0.46525836585E+03  0.40000000000E+03 0.  1.
<mgrwt>
<rscale>  2 0.40864004E+03</rscale>
<asrwt>0</asrwt>
<pdfrwt beam="1">  1       21 0.46800070E-01 0.40864004E+03</pdfrwt>
<pdfrwt beam="2">  1       21 0.88035971E-01 0.40864004E+03</pdfrwt>
<totfact> 0.42969283E+03</totfact>
</mgrwt>
</event>
<event>
 4    1  0.5003329E-002  0.4288987E+03  0.7818608E-02  0.1034208E+00
         21   -1    0    0  503  502  0.00000000000E+00  0.00000000000E+00  0.85773258511E+03  0.85773258511E+03  0.00000000000E+00 0.  1.
         21   -1    0    0  501  503 -0.00000000000E+00 -0.00000000000E+00 -0.46597303981E+03  0.46597303981E+03  0.00000000000E+00 0.  1.
    9000007    1    1    2  501    0 -0.64591024374E+02  0.14064875851E+03 -0.29036674273E+03  0.51794489956E+03  0.40000000000E+03 0.  1.
   -9000007    1    1    2    0  502  0.64591024374E+02 -0.14064875851E+03  0.68212628803E+03  0.80576072536E+03  0.40000000000E+03 0.  1.
<mgrwt>
<rscale>  2 0.42889868E+03</rscale>
<asrwt>0</asrwt>
<pdfrwt beam="1">  1       21 0.13195886E+00 0.42889868E+03</pdfrwt>
<pdfrwt beam="2">  1       21 0.71688160E-01 0.42889868E+03</pdfrwt>
<totfact> 0.61969936E+02</totfact>
</mgrwt>
</event>
<event>
 4    1  0.5003329E-002  0.5096596E+03  0.7818608E-02  0.1011288E+00
         21   -1    0    0  503  502  0.00000000000E+00  0.00000000000E+00  0.27418374867E+03  0.27418374867E+03  0.00000000000E+00 0. -1.
         21   -1    0    0  501  503 -0.00000000000E+00 -0.00000000000E+00 -0.10064115066E+04  0.10064115066E+04  0.00000000000E+00 0. -1.
    9000007    1    1    2  501    0 -0.13787543723E+03 -0.28415353566E+03 -0.52120278231E+03  0.72897545110E+03  0.40000000000E+03 0. -1.
   -9000007    1    1    2    0  502  0.13787543723E+03  0.28415353566E+03 -0.21102497564E+03  0.55161980418E+03  0.40000000000E+03 0. -1.
<mgrwt>
<rscale>  2 0.50965956E+03</rscale>
<asrwt>0</asrwt>
<pdfrwt beam="1">  1       21 0.42182115E-01 0.50965956E+03</pdfrwt>
<pdfrwt beam="2">  1       21 0.15483254E+00 0.50965956E+03</pdfrwt>
<totfact> 0.12308269E+03</totfact>
</mgrwt>
</event>
<event>
 4    1  0.5003329E-002  0.5970585E+03  0.7818608E-02  0.9911528E-01
         21   -1    0    0  503  502  0.00000000000E+00  0.00000000000E+00  0.90242159696E+03  0.90242159696E+03  0.00000000000E+00 0.  1.
         21   -1    0    0  501  503 -0.00000000000E+00 -0.00000000000E+00 -0.40560243497E+03  0.40560243497E+03  0.00000000000E+00 0.  1.
    9000007    1    1    2  501    0  0.44033782868E+03  0.50807730990E+02  0.35402604004E+03  0.69412770145E+03  0.40000000000E+03 0.  1.
   -9000007    1    1    2    0  502 -0.44033782868E+03 -0.50807730990E+02  0.14279312195E+03  0.61389633048E+03  0.40000000000E+03 0.  1.
<mgrwt>
<rscale>  2 0.59705848E+03</rscale>
<asrwt>0</asrwt>
<pdfrwt beam="1">  1       21 0.13883409E+00 0.59705848E+03</pdfrwt>
<pdfrwt beam="2">  1       21 0.62400375E-01 0.59705848E+03</pdfrwt>
<totfact> 0.69273199E+02</totfact>
</mgrwt>
</event>
<event>
 4    1  0.5003329E-002  0.4116653E+03  0.7818608E-02  0.1039814E+00
         21   -1    0    0  503  502  0.00000000000E+00  0.00000000000E+00  0.57065259851E+03  0.57065259851E+03  0.00000000000E+00 0. -1.
         21   -1    0    0  501  503 -0.00000000000E+00 -0.00000000000E+00 -0.58936989616E+03  0.58936989616E+03  0.00000000000E+00 0. -1.
    9000007    1    1    2  501    0  0.83024003898E+02  0.50747651575E+02 -0.41789335424E+03  0.58660307268E+03  0.40000000000E+03 0. -1.
   -9000007    1    1    2    0  502 -0.83024003898E+02 -0.50747651575E+02  0.39917605659E+03  0.57341942199E+03  0.40000000000E+03 0. -1.
<mgrwt>
<rscale>  2 0.41166529E+03</rscale>
<asrwt>0</asrwt>
<pdfrwt beam="1">  1       21 0.87792708E-01 0.41166529E+03</pdfrwt>
<pdfrwt beam="2">  1       21 0.90672291E-01 0.41166529E+03</pdfrwt>
<totfact> 0.99274809E+02</totfact>
</mgrwt>
</event>
<event>
 4    1  0.5003329E-002  0.4340670E+03  0.7818608E-02  0.1032583E+00
         21   -1    0    0  501  502  0.00000000000E+00  0.00000000000E+00  0.20956470621E+03  0.20956470621E+03  0.00000000000E+00 0.  1.
         21   -1    0    0  502  503 -0.00000000000E+00 -0.00000000000E+00 -0.90417258419E+03  0.90417258419E+03  0.00000000000E+00 0.  1.
    9000007    1    1    2  501    0 -0.13886850498E+03 -0.95549404858E+02 -0.30548648066E+03  0.53078822548E+03  0.40000000000E+03 0.  1.
   -9000007    1    1    2    0  503  0.13886850498E+03  0.95549404858E+02 -0.38912139731E+03  0.58294906492E+03  0.40000000000E+03 0.  1.
<mgrwt>
<rscale>  2 0.43406699E+03</rscale>
<asrwt>0</asrwt>
<pdfrwt beam="1">  1       21 0.32240724E-01 0.43406699E+03</pdfrwt>
<pdfrwt beam="2">  1       21 0.13910348E+00 0.43406699E+03</pdfrwt>
<totfact> 0.29274720E+03</totfact>
</mgrwt>
</event>
<event>
 4    1  0.5003329E-002  0.4062883E+03  0.7818608E-02  0.1041624E+00
         21   -1    0    0  503  502  0.00000000000E+00  0.00000000000E+00  0.10660381981E+04  0.10660381981E+04  0.00000000000E+00 0. -1.
         21   -1    0    0  501  503 -0.00000000000E+00 -0.00000000000E+00 -0.16903895597E+03  0.16903895597E+03  0.00000000000E+00 0. -1.
    9000007    1    1    2  501    0  0.54962153974E+02  0.45269931085E+02  0.26955060961E+03  0.48757331364E+03  0.40000000000E+03 0. -1.
   -9000007    1    1    2    0  502 -0.54962153974E+02 -0.45269931085E+02  0.62744863255E+03  0.74750384047E+03  0.40000000000E+03 0. -1.
<mgrwt>
<rscale>  2 0.40628833E+03</rscale>
<asrwt>0</asrwt>
<pdfrwt beam="1">  1       21 0.16400587E+00 0.40628833E+03</pdfrwt>
<pdfrwt beam="2">  1       21 0.26005994E-01 0.40628833E+03</pdfrwt>
<totfact> 0.28918579E+03</totfact>
</mgrwt>
</event>
<event>
 4    1  0.5003329E-002  0.4752969E+03  0.7818608E-02  0.1020436E+00
         21   -1    0    0  503  502  0.00000000000E+00  0.00000000000E+00  0.32813203624E+03  0.32813203624E+03  0.00000000000E+00 0.  1.
         21   -1    0    0  501  503 -0.00000000000E+00 -0.00000000000E+00 -0.88572652838E+03  0.88572652838E+03  0.00000000000E+00 0.  1.
    9000007    1    1    2  501    0  0.21320743686E+03  0.14300271579E+03 -0.56522180205E+03  0.73850042205E+03  0.40000000000E+03 0.  1.
   -9000007    1    1    2    0  502 -0.21320743686E+03 -0.14300271579E+03  0.76273099084E+01  0.47535814258E+03  0.40000000000E+03 0.  1.
<mgrwt>
<rscale>  2 0.47529695E+03</rscale>
<asrwt>0</asrwt>
<pdfrwt beam="1">  1       21 0.50481852E-01 0.47529695E+03</pdfrwt>
<pdfrwt beam="2">  1       21 0.13626562E+00 0.47529695E+03</pdfrwt>
<totfact> 0.12056073E+03</totfact>
</mgrwt>
</event>
<event>
 4    1  0.5003329E-002  0.4243667E+03  0.7818608E-02  0.1035654E+00
         21   -1    0    0  501  502  0.00000000000E+00  0.00000000000E+00  0.50387000980E+03  0.50387000980E+03  0.00000000000E+00 0. -1.
         21   -1    0    0  502  503 -0.00000000000E+00 -0.00000000000E+00 -0.35766481883E+03  0.35766481883E+03  0.00000000000E+00 0. -1.
    9000007    1    1    2  501    0 -0.45819882132E+02  0.13411790463E+03  0.61555216383E+02  0.42880778748E+03  0.40000000000E+03 0. -1.
   -9000007    1    1    2    0  503  0.45819882132E+02 -0.13411790463E+03  0.84649974587E+02  0.43272704115E+03  0.40000000000E+03 0. -1.
<mgrwt>
<rscale>  2 0.42436667E+03</rscale>
<asrwt>0</asrwt>
<pdfrwt beam="1">  1       21 0.77518463E-01 0.42436667E+03</pdfrwt>
<pdfrwt beam="2">  1       21 0.55025357E-01 0.42436667E+03</pdfrwt>
<totfact> 0.40669636E+03</totfact>
</mgrwt>
</event>
<event>
 4    1  0.5003329E-002  0.4080744E+03  0.7818608E-02  0.1041019E+00
         21   -1    0    0  501  502  0.00000000000E+00  0.00000000000E+00  0.47218600610E+03  0.47218600610E+03  0.00000000000E+00 0.  1.
         21   -1    0    0  502  503 -0.00000000000E+00 -0.00000000000E+00 -0.54426167575E+03  0.54426167575E+03  0.00000000000E+00 0.  1.
    9000007    1    1    2  501    0 -0.29136818141E+02 -0.75337456453E+02  0.26550029750E+03  0.48684196048E+03  0.40000000000E+03 0.  1.
   -9000007    1    1    2    0  503  0.29136818141E+02  0.75337456453E+02 -0.33757596715E+03  0.52960572137E+03  0.40000000000E+03 0.  1.
<mgrwt>
<rscale>  2 0.40807436E+03</rscale>
<asrwt>0</asrwt>
<pdfrwt beam="1">  1       21 0.72644001E-01 0.40807436E+03</pdfrwt>
<pdfrwt beam="2">  1       21 0.83732565E-01 0.40807436E+03</pdfrwt>
<totfact> 0.18547560E+03</totfact>
</mgrwt>
</event>
<event>
 4    1  0.5003329E-002  0.5680858E+03  0.7818608E-02  0.9973923E-01
         21   -1    0    0  503  502  0.00000000000E+00  0.00000000000E+00  0.84089240879E+03  0.84089240879E+03  0.00000000000E+00 0. -1.
         21   -1    0    0  501  503 -0.00000000000E+00 -0.00000000000E+00 -0.43369400009E+03  0.43369400009E+03  0.00000000000E+00 0. -1.
    9000007    1    1    2  501    0  0.40219535675E+03  0.30990481921E+02 -0.12592473291E+02  0.56822538252E+03  0.40000000000E+03 0. -1.
   -9000007    1    1    2    0  502 -0.40219535675E+03 -0.30990481921E+02  0.41979088199E+03  0.70636102636E+03  0.40000000000E+03 0. -1.
<mgrwt>
<rscale>  2 0.56808583E+03</rscale>
<asrwt>0</asrwt>
<pdfrwt beam="1">  1       21 0.12936806E+00 0.56808583E+03</pdfrwt>
<pdfrwt beam="2">  1       21 0.66722154E-01 0.56808583E+03</pdfrwt>
<totfact> 0.72573140E+02</totfact>
</mgrwt>
</event>
<event>
 4    1  0.5003329E-002  0.5972640E+03  0.7818608E-02  0.9911099E-01
         21   -1    0    0  501  502  0.00000000000E+00  0.00000000000E+00  0.99443768643E+03  0.99443768643E+03  0.00000000000E+00 0. -1.
         21   -1    0    0  502  503 -0.00000000000E+00 -0.00000000000E+00 -0.36814764183E+03  0.36814764183E+03  0.00000000000E+00 0.  1.
    9000007    1    1    2  501    0  0.26522837246E+03  0.35549712183E+03  0.42217184527E+03  0.73140505886E+03  0.40000000000E+03 0. -1.
   -9000007    1    1    2    0  503 -0.26522837246E+03 -0.35549712183E+03  0.20411819933E+03  0.63118026940E+03  0.40000000000E+03 0.  1.
<mgrwt>
<rscale>  2 0.59726401E+03</rscale>
<asrwt>0</asrwt>
<pdfrwt beam="1">  1       21 0.15299041E+00 0.59726401E+03</pdfrwt>
<pdfrwt beam="2">  1       21 0.56638099E-01 0.59726401E+03</pdfrwt>
<totfact> 0.65854118E+02</totfact>
</mgrwt>
</event>
<event>
 4    1  0.5003329E-002  0.4171467E+03  0.7818608E-02  0.1037999E+00
         21   -1    0    0  501  502  0.00000000000E+00  0.00000000000E+00  0.13150057294E+04  0.13150057294E+04  0.00000000000E+00 0. -1.
         21   -1    0    0  502  503 -0.00000000000E+00 -0.00000000000E+00 -0.54611206254E+03  0.54611206254E+03  0.00000000000E+00 0.  1.
    9000007    1    1    2  501    0  0.11798145482E+03 -0.95795310555E+01  0.11944563744E+04  0.12652025219E+04  0.40000000000E+03 0. -1.
   -9000007    1    1    2    0  503 -0.11798145482E+03  0.95795310555E+01 -0.42556270749E+03  0.59591527007E+03  0.40000000000E+03 0.  1.
<mgrwt>
<rscale>  2 0.41714673E+03</rscale>
<asrwt>0</asrwt>
<pdfrwt beam="1">  1       21 0.20230857E+00 0.41714673E+03</pdfrwt>
<pdfrwt beam="2">  1       21 0.84017241E-01 0.41714673E+03</pdfrwt>
<totfact> 0.13023367E+02</totfact>
</mgrwt>
</event>
<event>
 4    1  0.5003329E-002  0.5097343E+03  0.7818608E-02  0.1011269E+00
         21   -1    0    0  501  502  0.00000000000E+00  0.00000000000E+00  0.97573180335E+03  0.97573180335E+03  0.00000000000E+00 0.  1.
         21   -1    0    0  502  503 -0.00000000000E+00 -0.00000000000E+00 -0.33500316562E+03  0.33500316562E+03  0.00000000000E+00 0.  1.
    9000007    1    1    2  501    0 -0.31585609149E+03  0.79971569366E+01  0.23556136788E+02  0.51027827372E+03  0.40000000000E+03 0.  1.
   -9000007    1    1    2    0  503  0.31585609149E+03 -0.79971569366E+01  0.61717250095E+03  0.80045669525E+03  0.40000000000E+03 0.  1.
<mgrwt>
<rscale>  2 0.50973427E+03</rscale>
<asrwt>0</asrwt>
<pdfrwt beam="1">  1       21 0.15011258E+00 0.50973427E+03</pdfrwt>
<pdfrwt beam="2">  1       21 0.51538949E-01 0.50973427E+03</pdfrwt>
<totfact> 0.87762707E+02</totfact>
</mgrwt>
</event>
<event>
 4    1  0.5003329E-002  0.4049941E+03  0.7818608E-02  0.1042064E+00
         21   -1    0    0  501  502  0.00000000000E+00  0.00000000000E+00  0.26946314462E+03  0.26946314462E+03  0.00000000000E+00 0. -1.
         21   -1    0    0  502  503 -0.00000000000E+00 -0.00000000000E+00 -0.65156112889E+03  0.65156112889E+03  0.00000000000E+00 0. -1.
    9000007    1    1    2  501    0 -0.54577129214E+02  0.32273574455E+02 -0.72926574873E+02  0.41150763294E+03  0.40000000000E+03 0. -1.
   -9000007    1    1    2    0  503  0.54577129214E+02 -0.32273574455E+02 -0.30917140939E+03  0.50951664058E+03  0.40000000000E+03 0. -1.
<mgrwt>
<rscale>  2 0.40499413E+03</rscale>
<asrwt>0</asrwt>
<pdfrwt beam="1">  1       21 0.41455869E-01 0.40499413E+03</pdfrwt>
<pdfrwt beam="2">  1       21 0.10024017E+00 0.40499413E+03</pdfrwt>
<totfact> 0.40646907E+03</totfact>
</mgrwt>
</event>
<event>
 4    1  0.5003329E-002  0.4914448E+03  0.7818608E-02  0.1016036E+00
         21   -1    0    0  503  502  0.00000000000E+00  0.00000000000E+00  0.40309451000E+03  0.40309451000E+03  0.00000000000E+00 0.  1.
         21   -1    0    0  501  503 -0.00000000000E+00 -0.00000000000E+00 -0.63587095165E+03  0.63587095165E+03  0.00000000000E+00 0.  1.
    9000007    1    1    2  501    0 -0.27644358135E+03 -0.71393122719E+02 -0.24120861321E+03  0.54744828681E+03  0.40000000000E+03 0.  1.
   -9000007    1    1    2    0  502  0.27644358135E+03  0.71393122719E+02  0.84321715684E+01  0.49151717484E+03  0.40000000000E+03 0.  1.
<mgrwt>
<rscale>  2 0.49144484E+03</rscale>
<asrwt>0</asrwt>
<pdfrwt beam="1">  1       21 0.62014540E-01 0.49144484E+03</pdfrwt>
<pdfrwt beam="2">  1       21 0.97826300E-01 0.49144484E+03</pdfrwt>
<totfact> 0.17691288E+03</totfact>
</mgrwt>
</event>
<event>
 4    1  0.5003329E-002  0.5174657E+03  0.7818608E-02  0.1009318E+00
         21   -1    0    0  503  502  0.00000000000E+00  0.00000000000E+00  0.48702426870E+03  0.48702426870E+03  0.00000000000E+00 0. -1.
         21   -1    0    0  501  503 -0.00000000000E+00 -0.00000000000E+00 -0.89319382279E+03  0.89319382279E+03  0.00000000000E+00 0.  1.
    9000007    1    1    2  501    0 -0.20858109188E+03 -0.25350479175E+03 -0.63097746046E+03  0.81602898658E+03  0.40000000000E+03 0.  1.
   -9000007    1    1    2    0  502  0.20858109188E+03  0.25350479175E+03  0.22480790637E+03  0.56418910491E+03  0.40000000000E+03 0. -1.
<mgrwt>
<rscale>  2 0.51746570E+03</rscale>
<asrwt>0</asrwt>
<pdfrwt beam="1">  1       21 0.74926810E-01 0.51746570E+03</pdfrwt>
<pdfrwt beam="2">  1       21 0.13741443E+00 0.51746570E+03</pdfrwt>
<totfact> 0.48513008E+02</totfact>
</mgrwt>
</event>
<event>
 4    1  0.5003329E-002  0.4246088E+03  0.7818608E-02  0.1035577E+00
         21   -1    0    0  503  502  0.00000000000E+00  0.00000000000E+00  0.37664222731E+03  0.37664222731E+03  0.00000000000E+00 0.  1.
         21   -1    0    0  501  503 -0.00000000000E+00 -0.00000000000E+00 -0.49228075791E+03  0.49228075791E+03  0.00000000000E+00 0.  1.
    9000007    1    1    2  501    0  0.37974988977E+02  0.13729719018E+03 -0.13002340641E+03  0.44407060749E+03  0.40000000000E+03 0.  1.
   -9000007    1    1    2    0  502 -0.37974988977E+02 -0.13729719018E+03  0.14384875811E+02  0.42485237774E+03  0.40000000000E+03 0.  1.
<mgrwt>
<rscale>  2 0.42460878E+03</rscale>
<asrwt>0</asrwt>
<pdfrwt beam="1">  1       21 0.57944959E-01 0.42460878E+03</pdfrwt>
<pdfrwt beam="2">  1       21 0.75735500E-01 0.42460878E+03</pdfrwt>
<totfact> 0.38346535E+03</totfact>
</mgrwt>
</event>
<event>
 4    1  0.5003329E-002  0.4592275E+03  0.7818608E-02  0.1025006E+00
         21   -1    0    0  503  502  0.00000000000E+00  0.00000000000E+00  0.20738782149E+04  0.20738782149E+04  0.00000000000E+00 0. -1.
         21   -1    0    0  501  503 -0.00000000000E+00 -0.00000000000E+00 -0.62594086037E+03  0.62594086037E+03  0.00000000000E+00 0. -1.
    9000007    1    1    2  501    0 -0.16939767730E+02 -0.22495096135E+03 -0.51143288648E+03  0.68735252099E+03  0.40000000000E+03 0. -1.
   -9000007    1    1    2    0  502  0.16939767730E+02  0.22495096135E+03  0.19593702410E+04  0.20124665542E+04  0.40000000000E+03 0. -1.
<mgrwt>
<rscale>  2 0.45922749E+03</rscale>
<asrwt>0</asrwt>
<pdfrwt beam="1">  1       21 0.31905818E+00 0.45922749E+03</pdfrwt>
<pdfrwt beam="2">  1       21 0.96298595E-01 0.45922749E+03</pdfrwt>
<totfact> 0.17499229E+01</totfact>
</mgrwt>
</event>
<event>
 4    1  0.5003329E-002  0.6035396E+03  0.7818608E-02  0.9898090E-01
         21   -1    0    0  503  502  0.00000000000E+00  0.00000000000E+00  0.37322276366E+03  0.37322276366E+03  0.00000000000E+00 0. -1.
         21   -1    0    0  501  503 -0.00000000000E+00 -0.00000000000E+00 -0.12920597760E+04  0.12920597760E+04  0.00000000000E+00 0. -1.
    9000007    1    1    2  501    0 -0.40670101328E+03  0.19711491088E+03 -0.87124208817E+03  0.10598692271E+04  0.40000000000E+03 0. -1.
   -9000007    1    1    2    0  502  0.40670101328E+03 -0.19711491088E+03 -0.47594924209E+02  0.60541331263E+03  0.40000000000E+03 0. -1.
<mgrwt>
<rscale>  2 0.60353956E+03</rscale>
<asrwt>0</asrwt>
<pdfrwt beam="1">  1       21 0.57418886E-01 0.60353956E+03</pdfrwt>
<pdfrwt beam="2">  1       21 0.19877843E+00 0.60353956E+03</pdfrwt>
<totfact> 0.29703120E+02</totfact>
</mgrwt>
</event>
<event>
 4    1  0.5003329E-002  0.4179751E+03  0.7818608E-02  0.1037727E+00
         21   -1    0    0  501  502  0.00000000000E+00  0.00000000000E+00  0.18263084351E+03  0.18263084351E+03  0.00000000000E+00 0. -1.
         21   -1    0    0  502  503 -0.00000000000E+00 -0.00000000000E+00 -0.10628965333E+04  0.10628965333E+04  0.00000000000E+00 0. -1.
    9000007    1    1    2  501    0  0.11940631728E+03  0.21103295635E+02 -0.24318396075E+03  0.48357176971E+03  0.40000000000E+03 0.  1.
   -9000007    1    1    2    0  503 -0.11940631728E+03 -0.21103295635E+02 -0.63708172900E+03  0.76195560705E+03  0.40000000000E+03 0.  1.
<mgrwt>
<rscale>  2 0.41797514E+03</rscale>
<asrwt>0</asrwt>
<pdfrwt beam="1">  1       21 0.28097053E-01 0.41797514E+03</pdfrwt>
<pdfrwt beam="2">  1       21 0.16352254E+00 0.41797514E+03</pdfrwt>
<totfact> 0.24934181E+03</totfact>
</mgrwt>
</event>
<event>
 4    1  0.5003329E-002  0.6184903E+03  0.7818608E-02  0.9867770E-01
         21   -1    0    0  501  502  0.00000000000E+00  0.00000000000E+00  0.53155213025E+03  0.53155213025E+03  0.00000000000E+00 0. -1.
         21   -1    0    0  502  503 -0.00000000000E+00 -0.00000000000E+00 -0.75362583160E+03  0.75362583160E+03  0.00000000000E+00 0. -1.
    9000007    1    1    2  501    0 -0.29230354994E+03 -0.37025524223E+03  0.25407208539E+02  0.61901198369E+03  0.40000000000E+03 0. -1.
   -9000007    1    1    2    0  503  0.29230354994E+03  0.37025524223E+03 -0.24748090989E+03  0.66616597816E+03  0.40000000000E+03 0. -1.
<mgrwt>
<rscale>  2 0.61849035E+03</rscale>
<asrwt>0</asrwt>
<pdfrwt beam="1">  1       21 0.81777251E-01 0.61849035E+03</pdfrwt>
<pdfrwt beam="2">  1       21 0.11594243E+00 0.61849035E+03</pdfrwt>
<totfact> 0.59412047E+02</totfact>
</mgrwt>
</event>
<event>
 4    1  0.5003329E-002  0.4233893E+03  0.7818608E-02  0.1035969E+00
         21   -1    0    0  503  502  0.00000000000E+00  0.00000000000E+00  0.58920555825E+03  0.58920555825E+03  0.00000000000E+00 0. -1.
         21   -1    0    0  501  503 -0.00000000000E+00 -0.00000000000E+00 -0.32004742419E+03  0.32004742419E+03  0.00000000000E+00 0. -1.
    9000007    1    1    2  501    0  0.10541437269E+03  0.90256989086E+02  0.23562303961E+03  0.48453764647E+03  0.40000000000E+03 0.  1.
   -9000007    1    1    2    0  502 -0.10541437269E+03 -0.90256989086E+02  0.33535094444E+02  0.42471533597E+03  0.40000000000E+03 0.  1.
<mgrwt>
<rscale>  2 0.42338932E+03</rscale>
<asrwt>0</asrwt>
<pdfrwt beam="1">  1       21 0.90647009E-01 0.42338932E+03</pdfrwt>
<pdfrwt beam="2">  1       21 0.49238065E-01 0.42338932E+03</pdfrwt>
<totfact> 0.35832897E+03</totfact>
</mgrwt>
</event>
<event>
 4    1  0.5003329E-002  0.4958129E+03  0.7818608E-02  0.1014878E+00
         21   -1    0    0  503  502  0.00000000000E+00  0.00000000000E+00  0.42385181996E+03  0.42385181996E+03  0.00000000000E+00 0. -1.
         21   -1    0    0  501  503 -0.00000000000E+00 -0.00000000000E+00 -0.60960698282E+03  0.60960698282E+03  0.00000000000E+00 0.  1.
    9000007    1    1    2  501    0 -0.27954391884E+03 -0.87667644563E+02  0.21015727293E+02  0.49625807727E+03  0.40000000000E+03 0. -1.
   -9000007    1    1    2    0  502  0.27954391884E+03  0.87667644563E+02 -0.20677089016E+03  0.53720072551E+03  0.40000000000E+03 0.  1.
<mgrwt>
<rscale>  2 0.49581289E+03</rscale>
<asrwt>0</asrwt>
<pdfrwt beam="1">  1       21 0.65207973E-01 0.49581289E+03</pdfrwt>
<pdfrwt beam="2">  1       21 0.93785689E-01 0.49581289E+03</pdfrwt>
<totfact> 0.17491154E+03</totfact>
</mgrwt>
</event>
<event>
 4    1  0.5003329E-002  0.5108286E+03  0.7818608E-02  0.1010991E+00
         21   -1    0    0  501  502  0.00000000000E+00  0.00000000000E+00  0.73633349184E+03  0.73633349184E+03  0.00000000000E+00 0. -1.
         21   -1    0    0  502  503 -0.00000000000E+00 -0.00000000000E+00 -0.35652181792E+03  0.35652181792E+03  0.00000000000E+00 0. -1.
    9000007    1    1    2  501    0  0.12966437752E+03  0.29005687630E+03  0.14760662533E+03  0.53172695825E+03  0.40000000000E+03 0. -1.
   -9000007    1    1    2    0  503 -0.12966437752E+03 -0.29005687630E+03  0.23220504858E+03  0.56112835152E+03  0.40000000000E+03 0. -1.
<mgrwt>
<rscale>  2 0.51082858E+03</rscale>
<asrwt>0</asrwt>
<pdfrwt beam="1">  1       21 0.11328208E+00 0.51082858E+03</pdfrwt>
<pdfrwt beam="2">  1       21 0.54849510E-01 0.51082858E+03</pdfrwt>
<totfact> 0.16006829E+03</totfact>
</mgrwt>
</event>
<event>
 4    1  0.5003329E-002  0.5065361E+03  0.7818608E-02  0.1012087E+00
         21   -1    0    0  501  502  0.00000000000E+00  0.00000000000E+00  0.28319255805E+03  0.28319255805E+03  0.00000000000E+00 0.  1.
         21   -1    0    0  502  503 -0.00000000000E+00 -0.00000000000E+00 -0.90603311553E+03  0.90603311553E+03  0.00000000000E+00 0.  1.
    9000007    1    1    2  501    0 -0.41666337446E+02  0.30796551001E+03 -0.31345234789E+03  0.59567710501E+03  0.40000000000E+03 0.  1.
   -9000007    1    1    2    0  503  0.41666337446E+02 -0.30796551001E+03 -0.30938820959E+03  0.59354856858E+03  0.40000000000E+03 0.  1.
<mgrwt>
<rscale>  2 0.50653612E+03</rscale>
<asrwt>0</asrwt>
<pdfrwt beam="1">  1       21 0.43568085E-01 0.50653612E+03</pdfrwt>
<pdfrwt beam="2">  1       21 0.13938971E+00 0.50653612E+03</pdfrwt>
<totfact> 0.15313141E+03</totfact>
</mgrwt>
</event>
<event>
 4    1  0.5003329E-002  0.4177816E+03  0.7818608E-02  0.1037791E+00
         21   -1    0    0  503  502  0.00000000000E+00  0.00000000000E+00  0.43417990934E+03  0.43417990934E+03  0.00000000000E+00 0.  1.
         21   -1    0    0  501  503 -0.00000000000E+00 -0.00000000000E+00 -0.55091868719E+03  0.55091868719E+03  0.00000000000E+00 0.  1.
    9000007    1    1    2  501    0 -0.10954521782E+03 -0.50411059410E+02 -0.31445008251E+03  0.52289605473E+03  0.40000000000E+03 0.  1.
   -9000007    1    1    2    0  502  0.10954521782E+03  0.50411059410E+02  0.19771130466E+03  0.46220254180E+03  0.40000000000E+03 0.  1.
<mgrwt>
<rscale>  2 0.41778156E+03</rscale>
<asrwt>0</asrwt>
<pdfrwt beam="1">  1       21 0.66796909E-01 0.41778156E+03</pdfrwt>
<pdfrwt beam="2">  1       21 0.84756721E-01 0.41778156E+03</pdfrwt>
<totfact> 0.21681806E+03</totfact>
</mgrwt>
</event>
<event>
 4    1  0.5003329E-002  0.4163048E+03  0.7818608E-02  0.1038276E+00
         21   -1    0    0  503  502  0.00000000000E+00  0.00000000000E+00  0.33892569667E+03  0.33892569667E+03  0.00000000000E+00 0.  1.
         21   -1    0    0  501  503 -0.00000000000E+00 -0.00000000000E+00 -0.76491207944E+03  0.76491207944E+03  0.00000000000E+00 0.  1.
    9000007    1    1    2  501    0 -0.99177599141E+02 -0.58936200988E+02 -0.53076224957E+03  0.67455039658E+03  0.40000000000E+03 0.  1.
   -9000007    1    1    2    0  502  0.99177599141E+02  0.58936200988E+02  0.10477586680E+03  0.42928737953E+03  0.40000000000E+03 0.  1.
<mgrwt>
<rscale>  2 0.41630478E+03</rscale>
<asrwt>0</asrwt>
<pdfrwt beam="1">  1       21 0.52142415E-01 0.41630478E+03</pdfrwt>
<pdfrwt beam="2">  1       21 0.11767878E+00 0.41630478E+03</pdfrwt>
<totfact> 0.16817998E+03</totfact>
</mgrwt>
</event>
<event>
 4    1  0.5003329E-002  0.4109363E+03  0.7818608E-02  0.1040057E+00
         21   -1    0    0  503  502  0.00000000000E+00  0.00000000000E+00  0.62004567149E+03  0.62004567149E+03  0.00000000000E+00 0.  1.
         21   -1    0    0  501  503 -0.00000000000E+00 -0.00000000000E+00 -0.72347148683E+03  0.72347148683E+03  0.00000000000E+00 0.  1.
    9000007    1    1    2  501    0  0.33722821738E+02  0.87928670010E+02 -0.58216950783E+03  0.71259386439E+03  0.40000000000E+03 0.  1.
   -9000007    1    1    2    0  502 -0.33722821738E+02 -0.87928670010E+02  0.47874369249E+03  0.63092329392E+03  0.40000000000E+03 0.  1.
<mgrwt>
<rscale>  2 0.41093635E+03</rscale>
<asrwt>0</asrwt>
<pdfrwt beam="1">  1       21 0.95391642E-01 0.41093635E+03</pdfrwt>
<pdfrwt beam="2">  1       21 0.11130331E+00 0.41093635E+03</pdfrwt>
<totfact> 0.49598513E+02</totfact>
</mgrwt>
</event>
<event>
 4    1  0.5003329E-002  0.5983507E+03  0.7818608E-02  0.9908834E-01
         21   -1    0    0  501  502  0.00000000000E+00  0.00000000000E+00  0.55534092611E+03  0.55534092611E+03  0.00000000000E+00 0.  1.
         21   -1    0    0  502  503 -0.00000000000E+00 -0.00000000000E+00 -0.65459431788E+03  0.65459431788E+03  0.00000000000E+00 0. -1.
    9000007    1    1    2  501    0  0.72650149424E+02 -0.43902797308E+03  0.24782086897E+02  0.59886372172E+03  0.40000000000E+03 0.  1.
   -9000007    1    1    2    0  503 -0.72650149424E+02  0.43902797308E+03 -0.12403547867E+03  0.61107152227E+03  0.40000000000E+03 0. -1.
<mgrwt>
<rscale>  2 0.59835074E+03</rscale>
<asrwt>0</asrwt>
<pdfrwt beam="1">  1       21 0.85437066E-01 0.59835074E+03</pdfrwt>
<pdfrwt beam="2">  1       21 0.10070682E+00 0.59835074E+03</pdfrwt>
<totfact> 0.76645616E+02</totfact>
</mgrwt>
</event>
<event>
 4    1  0.5003329E-002  0.5854431E+03  0.7818608E-02  0.9936076E-01
         21   -1    0    0  503  502  0.00000000000E+00  0.00000000000E+00  0.57091197666E+03  0.57091197666E+03  0.00000000000E+00 0.  1.
         21   -1    0    0  501  503 -0.00000000000E+00 -0.00000000000E+00 -0.61468421020E+03  0.61468421020E+03  0.00000000000E+00 0. -1.
    9000007    1    1    2  501    0 -0.33061798506E+03 -0.27098966575E+03 -0.11242948323E+03  0.59614095622E+03  0.40000000000E+03 0.  1.
   -9000007    1    1    2    0  502  0.33061798506E+03  0.27098966575E+03  0.68657249682E+02  0.58945523063E+03  0.40000000000E+03 0.  1.
<mgrwt>
<rscale>  2 0.58544312E+03</rscale>
<asrwt>0</asrwt>
<pdfrwt beam="1">  1       21 0.87832612E-01 0.58544312E+03</pdfrwt>
<pdfrwt beam="2">  1       21 0.94566802E-01 0.58544312E+03</pdfrwt>
<totfact> 0.83995131E+02</totfact>
</mgrwt>
</event>
<event>
 4    1  0.5003329E-002  0.4968036E+03  0.7818608E-02  0.1014617E+00
         21   -1    0    0  503  502  0.00000000000E+00  0.00000000000E+00  0.91496933374E+03  0.91496933374E+03  0.00000000000E+00 0. -1.
         21   -1    0    0  501  503 -0.00000000000E+00 -0.00000000000E+00 -0.30251304252E+03  0.30251304252E+03  0.00000000000E+00 0.  1.
    9000007    1    1    2  501    0  0.10972021091E+03 -0.27345064136E+03  0.10589770220E+03  0.50796466538E+03  0.40000000000E+03 0.  1.
   -9000007    1    1    2    0  502 -0.10972021091E+03  0.27345064136E+03  0.50655858901E+03  0.70951771088E+03  0.40000000000E+03 0. -1.
<mgrwt>
<rscale>  2 0.49680356E+03</rscale>
<asrwt>0</asrwt>
<pdfrwt beam="1">  1       21 0.14076451E+00 0.49680356E+03</pdfrwt>
<pdfrwt beam="2">  1       21 0.46540468E-01 0.49680356E+03</pdfrwt>
<totfact> 0.13031607E+03</totfact>
</mgrwt>
</event>
<event>
 4    1  0.5003329E-002  0.4598928E+03  0.7818608E-02  0.1024812E+00
         21   -1    0    0  501  502  0.00000000000E+00  0.00000000000E+00  0.30950380330E+03  0.30950380330E+03  0.00000000000E+00 0.  1.
         21   -1    0    0  502  503 -0.00000000000E+00 -0.00000000000E+00 -0.71516956836E+03  0.71516956836E+03  0.00000000000E+00 0.  1.
    9000007    1    1    2  501    0  0.20718607246E+03  0.92603074159E+02 -0.94775472419E+02  0.46955701266E+03  0.40000000000E+03 0. -1.
   -9000007    1    1    2    0  503 -0.20718607246E+03 -0.92603074159E+02 -0.31089029265E+03  0.55511635900E+03  0.40000000000E+03 0. -1.
<mgrwt>
<rscale>  2 0.45989281E+03</rscale>
<asrwt>0</asrwt>
<pdfrwt beam="1">  1       21 0.47615970E-01 0.45989281E+03</pdfrwt>
<pdfrwt beam="2">  1       21 0.11002609E+00 0.45989281E+03</pdfrwt>
<totfact> 0.23714062E+03</totfact>
</mgrwt>
</event>
<event>
 4    1  0.5003329E-002  0.5486373E+03  0.7818608E-02  0.1001810E+00
         21   -1    0    0  503  502  0.00000000000E+00  0.00000000000E+00  0.73036786559E+03  0.73036786559E+03  0.00000000000E+00 0.  1.
         21   -1    0    0  501  503 -0.00000000000E+00 -0.00000000000E+00 -0.59455516816E+03  0.59455516816E+03  0.00000000000E+00 0. -1.
    9000007    1    1    2  501    0 -0.19194517133E+03  0.32273814760E+03 -0.29904872591E+03  0.62484638207E+03  0.40000000000E+03 0. -1.
   -9000007    1    1    2    0  502  0.19194517133E+03 -0.32273814760E+03  0.43486142334E+03  0.70007665168E+03  0.40000000000E+03 0. -1.
<mgrwt>
<rscale>  2 0.54863728E+03</rscale>
<asrwt>0</asrwt>
<pdfrwt beam="1">  1       21 0.11236429E+00 0.54863728E+03</pdfrwt>
<pdfrwt beam="2">  1       21 0.91470025E-01 0.54863728E+03</pdfrwt>
<totfact> 0.50512817E+02</totfact>
</mgrwt>
</event>
<event>
 4    1  0.5003329E-002  0.4598084E+03  0.7818608E-02  0.1024837E+00
         21   -1    0    0  501  502  0.00000000000E+00  0.00000000000E+00  0.13191417567E+04  0.13191417567E+04  0.00000000000E+00 0.  1.
         21   -1    0    0  502  503 -0.00000000000E+00 -0.00000000000E+00 -0.16090056867E+03  0.16090056867E+03  0.00000000000E+00 0.  1.
    9000007    1    1    2  501    0 -0.91752607743E+02  0.20737692001E+03  0.62531125828E+03  0.77616873018E+03  0.40000000000E+03 0.  1.
   -9000007    1    1    2    0  503  0.91752607743E+02 -0.20737692001E+03  0.53292992973E+03  0.70387359517E+03  0.40000000000E+03 0.  1.
<mgrwt>
<rscale>  2 0.45980836E+03</rscale>
<asrwt>0</asrwt>
<pdfrwt beam="1">  1       21 0.20294488E+00 0.45980836E+03</pdfrwt>
<pdfrwt beam="2">  1       21 0.24753934E-01 0.45980836E+03</pdfrwt>
<totfact> 0.16638250E+03</totfact>
</mgrwt>
</event>
<event>
 4    1  0.5003329E-002  0.4034460E+03  0.7818608E-02  0.1042593E+00
         21   -1    0    0  501  502  0.00000000000E+00  0.00000000000E+00  0.40966164001E+03  0.40966164001E+03  0.00000000000E+00 0. -1.
         21   -1    0    0  502  503 -0.00000000000E+00 -0.00000000000E+00 -0.46758027280E+03  0.46758027280E+03  0.00000000000E+00 0. -1.
    9000007    1    1    2  501    0  0.45955081334E+02 -0.25628784160E+02  0.14106128866E+03  0.42739559104E+03  0.40000000000E+03 0. -1.
   -9000007    1    1    2    0  503 -0.45955081334E+02  0.25628784160E+02 -0.19897992145E+03  0.44984632178E+03  0.40000000000E+03 0. -1.
<mgrwt>
<rscale>  2 0.40344604E+03</rscale>
<asrwt>0</asrwt>
<pdfrwt beam="1">  1       21 0.63024868E-01 0.40344604E+03</pdfrwt>
<pdfrwt beam="2">  1       21 0.71935426E-01 0.40344604E+03</pdfrwt>
<totfact> 0.36138059E+03</totfact>
</mgrwt>
</event>
<event>
 4    1  0.5003329E-002  0.4442236E+03  0.7818608E-02  0.1029459E+00
         21   -1    0    0  503  502  0.00000000000E+00  0.00000000000E+00  0.84199217108E+03  0.84199217108E+03  0.00000000000E+00 0.  1.
         21   -1    0    0  501  503 -0.00000000000E+00 -0.00000000000E+00 -0.57916278839E+03  0.57916278839E+03  0.00000000000E+00 0.  1.
    9000007    1    1    2  501    0 -0.15071360144E+03  0.12091332070E+03 -0.41685281531E+03  0.60918050725E+03  0.40000000000E+03 0.  1.
   -9000007    1    1    2    0  502  0.15071360144E+03 -0.12091332070E+03  0.67968219800E+03  0.81197445222E+03  0.40000000000E+03 0.  1.
<mgrwt>
<rscale>  2 0.44422362E+03</rscale>
<asrwt>0</asrwt>
<pdfrwt beam="1">  1       21 0.12953726E+00 0.44422362E+03</pdfrwt>
<pdfrwt beam="2">  1       21 0.89101967E-01 0.44422362E+03</pdfrwt>
<totfact> 0.39070294E+02</totfact>
</mgrwt>
</event>
<event>
 4    1  0.5003329E-002  0.4668746E+03  0.7818608E-02  0.1022806E+00
         21   -1    0    0  503  502  0.00000000000E+00  0.00000000000E+00  0.67250760171E+03  0.67250760171E+03  0.00000000000E+00 0.  1.
         21   -1    0    0  501  503 -0.00000000000E+00 -0.00000000000E+00 -0.39910802484E+03  0.39910802484E+03  0.00000000000E+00 0. -1.
    9000007    1    1    2  501    0 -0.23663473484E+03  0.44451114590E+02 -0.95555287585E+02  0.47655294806E+03  0.40000000000E+03 0. -1.
   -9000007    1    1    2    0  502  0.23663473484E+03 -0.44451114590E+02  0.36895486446E+03  0.59506267849E+03  0.40000000000E+03 0.  1.
<mgrwt>
<rscale>  2 0.46687461E+03</rscale>
<asrwt>0</asrwt>
<pdfrwt beam="1">  1       21 0.10346271E+00 0.46687461E+03</pdfrwt>
<pdfrwt beam="2">  1       21 0.61401234E-01 0.46687461E+03</pdfrwt>
<totfact> 0.15915819E+03</totfact>
</mgrwt>
</event>
<event>
 4    1  0.5003329E-002  0.4089474E+03  0.7818608E-02  0.1040725E+00
         21   -1    0    0  501  502  0.00000000000E+00  0.00000000000E+00  0.79543060679E+03  0.79543060679E+03  0.00000000000E+00 0.  1.
         21   -1    0    0  502  503 -0.00000000000E+00 -0.00000000000E+00 -0.30292852624E+03  0.30292852624E+03  0.00000000000E+00 0.  1.
    9000007    1    1    2  501    0 -0.78745740056E+02  0.32203899807E+02  0.55001600313E+03  0.68538717995E+03  0.40000000000E+03 0.  1.
   -9000007    1    1    2    0  503  0.78745740056E+02 -0.32203899807E+02 -0.57513922574E+02  0.41297195308E+03  0.40000000000E+03 0.  1.
<mgrwt>
<rscale>  2 0.40894741E+03</rscale>
<asrwt>0</asrwt>
<pdfrwt beam="1">  1       21 0.12237394E+00 0.40894741E+03</pdfrwt>
<pdfrwt beam="2">  1       21 0.46604389E-01 0.40894741E+03</pdfrwt>
<totfact> 0.19379040E+03</totfact>
</mgrwt>
</event>
<event>
 4    1  0.5003329E-002  0.5279036E+03  0.7818608E-02  0.1006742E+00
         21   -1    0    0  503  502  0.00000000000E+00  0.00000000000E+00  0.40669872810E+03  0.40669872810E+03  0.00000000000E+00 0. -1.
         21   -1    0    0  501  503 -0.00000000000E+00 -0.00000000000E+00 -0.78242416246E+03  0.78242416246E+03  0.00000000000E+00 0.  1.
    9000007    1    1    2  501    0 -0.33101229346E+03  0.95462401603E+02 -0.39741649419E+03  0.66077384815E+03  0.40000000000E+03 0.  1.
   -9000007    1    1    2    0  502  0.33101229346E+03 -0.95462401603E+02  0.21691059833E+02  0.52834904241E+03  0.40000000000E+03 0. -1.
<mgrwt>
<rscale>  2 0.52790360E+03</rscale>
<asrwt>0</asrwt>
<pdfrwt beam="1">  1       21 0.62569035E-01 0.52790360E+03</pdfrwt>
<pdfrwt beam="2">  1       21 0.12037295E+00 0.52790360E+03</pdfrwt>
<totfact> 0.10231843E+03</totfact>
</mgrwt>
</event>
<event>
 4    1  0.5003329E-002  0.5576388E+03  0.7818608E-02  0.9997412E-01
         21   -1    0    0  501  502  0.00000000000E+00  0.00000000000E+00  0.80251317335E+03  0.80251317335E+03  0.00000000000E+00 0.  1.
         21   -1    0    0  502  503 -0.00000000000E+00 -0.00000000000E+00 -0.39237646303E+03  0.39237646303E+03  0.00000000000E+00 0.  1.
    9000007    1    1    2  501    0  0.25181968428E+03  0.29588482434E+03  0.13835514179E+03  0.57454601898E+03  0.40000000000E+03 0.  1.
   -9000007    1    1    2    0  503 -0.25181968428E+03 -0.29588482434E+03  0.27178156852E+03  0.62034361740E+03  0.40000000000E+03 0.  1.
<mgrwt>
<rscale>  2 0.55763876E+03</rscale>
<asrwt>0</asrwt>
<pdfrwt beam="1">  1       21 0.12346356E+00 0.55763876E+03</pdfrwt>
<pdfrwt beam="2">  1       21 0.60365610E-01 0.55763876E+03</pdfrwt>
<totfact> 0.10272278E+03</totfact>
</mgrwt>
</event>
<event>
 4    1  0.5003329E-002  0.4453896E+03  0.7818608E-02  0.1029106E+00
         21   -1    0    0  503  502  0.00000000000E+00  0.00000000000E+00  0.10457293453E+04  0.10457293453E+04  0.00000000000E+00 0. -1.
         21   -1    0    0  501  503 -0.00000000000E+00 -0.00000000000E+00 -0.36066477956E+03  0.36066477956E+03  0.00000000000E+00 0. -1.
    9000007    1    1    2  501    0  0.46155347459E+02  0.19037222458E+03 -0.14162012663E+03  0.46736298555E+03  0.40000000000E+03 0. -1.
   -9000007    1    1    2    0  502 -0.46155347459E+02 -0.19037222458E+03  0.82668469235E+03  0.93903113929E+03  0.40000000000E+03 0. -1.
<mgrwt>
<rscale>  2 0.44538960E+03</rscale>
<asrwt>0</asrwt>
<pdfrwt beam="1">  1       21 0.16088144E+00 0.44538960E+03</pdfrwt>
<pdfrwt beam="2">  1       21 0.55486889E-01 0.44538960E+03</pdfrwt>
<totfact> 0.63544932E+02</totfact>
</mgrwt>
</event>
<event>
 4    1  0.5003329E-002  0.4621085E+03  0.7818608E-02  0.1024171E+00
         21   -1    0    0  503  502  0.00000000000E+00  0.00000000000E+00  0.14701470415E+04  0.14701470415E+04  0.00000000000E+00 0.  1.
         21   -1    0    0  501  503 -0.00000000000E+00 -0.00000000000E+00 -0.19188385161E+03  0.19188385161E+03  0.00000000000E+00 0. -1.
    9000007    1    1    2  501    0  0.16089254401E+03 -0.16630658621E+03  0.22947182633E+03  0.51594729422E+03  0.40000000000E+03 0. -1.
   -9000007    1    1    2    0  502 -0.16089254401E+03  0.16630658621E+03  0.10487913635E+04  0.11460835988E+04  0.40000000000E+03 0.  1.
<mgrwt>
<rscale>  2 0.46210853E+03</rscale>
<asrwt>0</asrwt>
<pdfrwt beam="1">  1       21 0.22617646E+00 0.46210853E+03</pdfrwt>
<pdfrwt beam="2">  1       21 0.29520594E-01 0.46210853E+03</pdfrwt>
<totfact> 0.83194808E+02</totfact>
</mgrwt>
</event>
<event>
 4    1  0.5003329E-002  0.4165056E+03  0.7818608E-02  0.1038210E+00
         21   -1    0    0  501  502  0.00000000000E+00  0.00000000000E+00  0.68869871108E+03  0.68869871108E+03  0.00000000000E+00 0.  1.
         21   -1    0    0  502  503 -0.00000000000E+00 -0.00000000000E+00 -0.30312488480E+03  0.30312488480E+03  0.00000000000E+00 0.  1.
    9000007    1    1    2  501    0  0.78072663966E+02 -0.85916297856E+02  0.39666597802E+03  0.57517027845E+03  0.40000000000E+03 0.  1.
   -9000007    1    1    2    0  503 -0.78072663966E+02  0.85916297856E+02 -0.11092151746E+02  0.41665331743E+03  0.40000000000E+03 0.  1.
<mgrwt>
<rscale>  2 0.41650564E+03</rscale>
<asrwt>0</asrwt>
<pdfrwt beam="1">  1       21 0.10595365E+00 0.41650564E+03</pdfrwt>
<pdfrwt beam="2">  1       21 0.46634598E-01 0.41650564E+03</pdfrwt>
<totfact> 0.27647940E+03</totfact>
</mgrwt>
</event>
<event>
 4    1  0.5003329E-002  0.8195212E+03  0.7818608E-02  0.9532183E-01
         21   -1    0    0  501  502  0.00000000000E+00  0.00000000000E+00  0.83391159412E+03  0.83391159412E+03  0.00000000000E+00 0.  1.
         21   -1    0    0  502  503 -0.00000000000E+00 -0.00000000000E+00 -0.84247266301E+03  0.84247266301E+03  0.00000000000E+00 0.  1.
    9000007    1    1    2  501    0  0.58186651544E+03  0.41598849930E+03 -0.18015962592E+03  0.83909031942E+03  0.40000000000E+03 0.  1.
   -9000007    1    1    2    0  503 -0.58186651544E+03 -0.41598849930E+03  0.17159855703E+03  0.83729393770E+03  0.40000000000E+03 0.  1.
<mgrwt>
<rscale>  2 0.81952125E+03</rscale>
<asrwt>0</asrwt>
<pdfrwt beam="1">  1       21 0.12829409E+00 0.81952125E+03</pdfrwt>
<pdfrwt beam="2">  1       21 0.12961118E+00 0.81952125E+03</pdfrwt>
<totfact> 0.13771052E+02</totfact>
</mgrwt>
</event>
<event>
 4    1  0.5003329E-002  0.4330880E+03  0.7818608E-02  0.1032889E+00
         21   -1    0    0  503  502  0.00000000000E+00  0.00000000000E+00  0.12135034694E+04  0.12135034694E+04  0.00000000000E+00 0.  1.
         21   -1    0    0  501  503 -0.00000000000E+00 -0.00000000000E+00 -0.15703594008E+03  0.15703594008E+03  0.00000000000E+00 0. -1.
    9000007    1    1    2  501    0  0.12551956122E+03 -0.10867394862E+03  0.61419277367E+03  0.75153040563E+03  0.40000000000E+03 0. -1.
   -9000007    1    1    2    0  502 -0.12551956122E+03  0.10867394862E+03  0.44227475565E+03  0.61900900385E+03  0.40000000000E+03 0.  1.
<mgrwt>
<rscale>  2 0.43308797E+03</rscale>
<asrwt>0</asrwt>
<pdfrwt beam="1">  1       21 0.18669284E+00 0.43308797E+03</pdfrwt>
<pdfrwt beam="2">  1       21 0.24159376E-01 0.43308797E+03</pdfrwt>
<totfact> 0.22719100E+03</totfact>
</mgrwt>
</event>
<event>
 4    1  0.5003329E-002  0.4666926E+03  0.7818608E-02  0.1022858E+00
         21   -1    0    0  503  502  0.00000000000E+00  0.00000000000E+00  0.66758783235E+03  0.66758783235E+03  0.00000000000E+00 0.  1.
         21   -1    0    0  501  503 -0.00000000000E+00 -0.00000000000E+00 -0.61255455794E+03  0.61255455794E+03  0.00000000000E+00 0.  1.
    9000007    1    1    2  501    0  0.19424270567E+01 -0.24041249579E+03 -0.41007440542E+03  0.62125917227E+03  0.40000000000E+03 0.  1.
   -9000007    1    1    2    0  502 -0.19424270567E+01  0.24041249579E+03  0.46510767983E+03  0.65888321802E+03  0.40000000000E+03 0.  1.
<mgrwt>
<rscale>  2 0.46669256E+03</rscale>
<asrwt>0</asrwt>
<pdfrwt beam="1">  1       21 0.10270582E+00 0.46669256E+03</pdfrwt>
<pdfrwt beam="2">  1       21 0.94239162E-01 0.46669256E+03</pdfrwt>
<totfact> 0.60693154E+02</totfact>
</mgrwt>
</event>
<event>
 4    1  0.5003329E-002  0.6413684E+03  0.7818608E-02  0.9823112E-01
         21   -1    0    0  501  502  0.00000000000E+00  0.00000000000E+00  0.11641148759E+04  0.11641148759E+04  0.00000000000E+00 0. -1.
         21   -1    0    0  502  503 -0.00000000000E+00 -0.00000000000E+00 -0.42518835049E+03  0.42518835049E+03  0.00000000000E+00 0. -1.
    9000007    1    1    2  501    0  0.27600411633E+03 -0.41853931479E+03  0.69607318089E+03  0.94650478256E+03  0.40000000000E+03 0. -1.
   -9000007    1    1    2    0  503 -0.27600411633E+03  0.41853931479E+03  0.42853344530E+02  0.64279844383E+03  0.40000000000E+03 0. -1.
<mgrwt>
<rscale>  2 0.64136840E+03</rscale>
<asrwt>0</asrwt>
<pdfrwt beam="1">  1       21 0.17909460E+00 0.64136840E+03</pdfrwt>
<pdfrwt beam="2">  1       21 0.65413593E-01 0.64136840E+03</pdfrwt>
<totfact> 0.30093505E+02</totfact>
</mgrwt>
</event>
<event>
 4    1  0.5003329E-002  0.4098198E+03  0.7818608E-02  0.1040431E+00
         21   -1    0    0  503  502  0.00000000000E+00  0.00000000000E+00  0.13643278515E+03  0.13643278515E+03  0.00000000000E+00 0.  1.
         21   -1    0    0  501  503 -0.00000000000E+00 -0.00000000000E+00 -0.12737655465E+04  0.12737655465E+04  0.00000000000E+00 0.  1.
    9000007    1    1    2  501    0 -0.71047924515E+02 -0.53893402936E+02 -0.43950865729E+03  0.60093274689E+03  0.40000000000E+03 0.  1.
   -9000007    1    1    2    0  502  0.71047924515E+02  0.53893402936E+02 -0.69782410402E+03  0.80926558472E+03  0.40000000000E+03 0.  1.
<mgrwt>
<rscale>  2 0.40981985E+03</rscale>
<asrwt>0</asrwt>
<pdfrwt beam="1">  1       21 0.20989659E-01 0.40981985E+03</pdfrwt>
<pdfrwt beam="2">  1       21 0.19596393E+00 0.40981985E+03</pdfrwt>
<totfact> 0.26014069E+03</totfact>
</mgrwt>
</event>
<event>
 4    1  0.5003329E-002  0.4253568E+03  0.7818608E-02  0.1035337E+00
         21   -1    0    0  501  502  0.00000000000E+00  0.00000000000E+00  0.16548298958E+03  0.16548298958E+03  0.00000000000E+00 0.  1.
         21   -1    0    0  502  503 -0.00000000000E+00 -0.00000000000E+00 -0.16279741530E+04  0.16279741530E+04  0.00000000000E+00 0.  1.
    9000007    1    1    2  501    0 -0.10111254161E+03  0.10346322550E+03 -0.21735869588E+03  0.47767477197E+03  0.40000000000E+03 0.  1.
   -9000007    1    1    2    0  503  0.10111254161E+03 -0.10346322550E+03 -0.12451324675E+04  0.13157823706E+04  0.40000000000E+03 0.  1.
<mgrwt>
<rscale>  2 0.42535677E+03</rscale>
<asrwt>0</asrwt>
<pdfrwt beam="1">  1       21 0.25458922E-01 0.42535677E+03</pdfrwt>
<pdfrwt beam="2">  1       21 0.25045756E+00 0.42535677E+03</pdfrwt>
<totfact> 0.80065320E+02</totfact>
</mgrwt>
</event>
<event>
 4    1  0.5003329E-002  0.4845384E+03  0.7818608E-02  0.1017895E+00
         21   -1    0    0  503  502  0.00000000000E+00  0.00000000000E+00  0.10640875336E+04  0.10640875336E+04  0.00000000000E+00 0. -1.
         21   -1    0    0  501  503 -0.00000000000E+00 -0.00000000000E+00 -0.23561592125E+03  0.23561592125E+03  0.00000000000E+00 0. -1.
    9000007    1    1    2  501    0 -0.25260493912E+03  0.10472899400E+03  0.25038535261E+03  0.54540832617E+03  0.40000000000E+03 0. -1.
   -9000007    1    1    2    0  502  0.25260493912E+03 -0.10472899400E+03  0.57808625979E+03  0.75429512872E+03  0.40000000000E+03 0. -1.
<mgrwt>
<rscale>  2 0.48453835E+03</rscale>
<asrwt>0</asrwt>
<pdfrwt beam="1">  1       21 0.16370577E+00 0.48453835E+03</pdfrwt>
<pdfrwt beam="2">  1       21 0.36248604E-01 0.48453835E+03</pdfrwt>
<totfact> 0.14529261E+03</totfact>
</mgrwt>
</event>
<event>
 4    1  0.5003329E-002  0.4557083E+03  0.7818608E-02  0.1026033E+00
         21   -1    0    0  501  502  0.00000000000E+00  0.00000000000E+00  0.11183485741E+04  0.11183485741E+04  0.00000000000E+00 0.  1.
         21   -1    0    0  502  503 -0.00000000000E+00 -0.00000000000E+00 -0.19835969900E+03  0.19835969900E+03  0.00000000000E+00 0.  1.
    9000007    1    1    2  501    0 -0.16229602213E+03  0.14604800613E+03  0.62635740041E+03  0.77459254576E+03  0.40000000000E+03 0.  1.
   -9000007    1    1    2    0  503  0.16229602213E+03 -0.14604800613E+03  0.29363147468E+03  0.54211572733E+03  0.40000000000E+03 0.  1.
<mgrwt>
<rscale>  2 0.45570826E+03</rscale>
<asrwt>0</asrwt>
<pdfrwt beam="1">  1       21 0.17205362E+00 0.45570826E+03</pdfrwt>
<pdfrwt beam="2">  1       21 0.30516877E-01 0.45570826E+03</pdfrwt>
<totfact> 0.18048657E+03</totfact>
</mgrwt>
</event>
<event>
 4    1  0.5003329E-002  0.4102902E+03  0.7818608E-02  0.1040274E+00
         21   -1    0    0  503  502  0.00000000000E+00  0.00000000000E+00  0.17054628101E+03  0.17054628101E+03  0.00000000000E+00 0. -1.
         21   -1    0    0  501  503 -0.00000000000E+00 -0.00000000000E+00 -0.10562458699E+04  0.10562458699E+04  0.00000000000E+00 0. -1.
    9000007    1    1    2  501    0 -0.25696708701E+02 -0.87622860379E+02 -0.59984687573E+03  0.72674229326E+03  0.40000000000E+03 0. -1.
   -9000007    1    1    2    0  502  0.25696708701E+02  0.87622860379E+02 -0.28585271313E+03  0.50004985761E+03  0.40000000000E+03 0. -1.
<mgrwt>
<rscale>  2 0.41029025E+03</rscale>
<asrwt>0</asrwt>
<pdfrwt beam="1">  1       21 0.26237890E-01 0.41029025E+03</pdfrwt>
<pdfrwt beam="2">  1       21 0.16249936E+00 0.41029025E+03</pdfrwt>
<totfact> 0.29114462E+03</totfact>
</mgrwt>
</event>
<event>
 4    1  0.5003329E-002  0.4140913E+03  0.7818608E-02  0.1039007E+00
         21   -1    0    0  501  502  0.00000000000E+00  0.00000000000E+00  0.98741169644E+03  0.98741169644E+03  0.00000000000E+00 0.  1.
         21   -1    0    0  502  503 -0.00000000000E+00 -0.00000000000E+00 -0.21554864405E+03  0.21554864405E+03  0.00000000000E+00 0.  1.
    9000007    1    1    2  501    0 -0.10632781159E+03  0.12882983243E+02  0.65109219422E+03  0.77161688690E+03  0.40000000000E+03 0. -1.
   -9000007    1    1    2    0  503  0.10632781159E+03 -0.12882983243E+02  0.12077085817E+03  0.43134345359E+03  0.40000000000E+03 0. -1.
<mgrwt>
<rscale>  2 0.41409126E+03</rscale>
<asrwt>0</asrwt>
<pdfrwt beam="1">  1       21 0.15190949E+00 0.41409126E+03</pdfrwt>
<pdfrwt beam="2">  1       21 0.33161330E-01 0.41409126E+03</pdfrwt>
<totfact> 0.22018021E+03</totfact>
</mgrwt>
</event>
<event>
 4    1  0.5003329E-002  0.4118564E+03  0.7818608E-02  0.1039750E+00
         21   -1    0    0  503  502  0.00000000000E+00  0.00000000000E+00  0.14599990973E+04  0.14599990973E+04  0.00000000000E+00 0. -1.
         21   -1    0    0  501  503 -0.00000000000E+00 -0.00000000000E+00 -0.12792677558E+03  0.12792677558E+03  0.00000000000E+00 0. -1.
    9000007    1    1    2  501    0  0.97955256508E+02 -0.55197965089E+01  0.42546654015E+03  0.59215494359E+03  0.40000000000E+03 0. -1.
   -9000007    1    1    2    0  502 -0.97955256508E+02  0.55197965089E+01  0.90660578156E+03  0.99577092928E+03  0.40000000000E+03 0. -1.
<mgrwt>
<rscale>  2 0.41185641E+03</rscale>
<asrwt>0</asrwt>
<pdfrwt beam="1">  1       21 0.22461523E+00 0.41185641E+03</pdfrwt>
<pdfrwt beam="2">  1       21 0.19681043E-01 0.41185641E+03</pdfrwt>
<totfact> 0.19132784E+03</totfact>
</mgrwt>
</event>
<event>
 4    1  0.5003329E-002  0.4355584E+03  0.7818608E-02  0.1032118E+00
         21   -1    0    0  501  502  0.00000000000E+00  0.00000000000E+00  0.41250317972E+03  0.41250317972E+03  0.00000000000E+00 0.  1.
         21   -1    0    0  502  503 -0.00000000000E+00 -0.00000000000E+00 -0.46304707471E+03  0.46304707471E+03  0.00000000000E+00 0.  1.
    9000007    1    1    2  501    0 -0.12083131029E+03 -0.12292651944E+03  0.10805657215E+02  0.43569243390E+03  0.40000000000E+03 0.  1.
   -9000007    1    1    2    0  503  0.12083131029E+03  0.12292651944E+03 -0.61349552207E+02  0.43985782054E+03  0.40000000000E+03 0.  1.
<mgrwt>
<rscale>  2 0.43555842E+03</rscale>
<asrwt>0</asrwt>
<pdfrwt beam="1">  1       21 0.63462028E-01 0.43555842E+03</pdfrwt>
<pdfrwt beam="2">  1       21 0.71238011E-01 0.43555842E+03</pdfrwt>
<totfact> 0.35952373E+03</totfact>
</mgrwt>
</event>
<event>
 4    1  0.5003329E-002  0.4965782E+03  0.7818608E-02  0.1014676E+00
         21   -1    0    0  503  502  0.00000000000E+00  0.00000000000E+00  0.54221796129E+03  0.54221796129E+03  0.00000000000E+00 0. -1.
         21   -1    0    0  501  503 -0.00000000000E+00 -0.00000000000E+00 -0.47548157426E+03  0.47548157426E+03  0.00000000000E+00 0.  1.
    9000007    1    1    2  501    0 -0.72553557403E+02 -0.28517698710E+03  0.13954349139E+03  0.51581229013E+03  0.40000000000E+03 0. -1.
   -9000007    1    1    2    0  502  0.72553557403E+02  0.28517698710E+03 -0.72807104360E+02  0.50188724541E+03  0.40000000000E+03 0.  1.
<mgrwt>
<rscale>  2 0.49657822E+03</rscale>
<asrwt>0</asrwt>
<pdfrwt beam="1">  1       21 0.83418148E-01 0.49657822E+03</pdfrwt>
<pdfrwt beam="2">  1       21 0.73151011E-01 0.49657822E+03</pdfrwt>
<totfact> 0.17810005E+03</totfact>
</mgrwt>
</event>
<event>
 4    1  0.5003329E-002  0.5797580E+03  0.7818608E-02  0.9948315E-01
         21   -1    0    0  501  502  0.00000000000E+00  0.00000000000E+00  0.35933097985E+03  0.35933097985E+03  0.00000000000E+00 0. -1.
         21   -1    0    0  502  503 -0.00000000000E+00 -0.00000000000E+00 -0.93643054043E+03  0.93643054043E+03  0.00000000000E+00 0. -1.
    9000007    1    1    2  501    0 -0.40182031515E+03  0.12107749313E+03 -0.26708985277E+03  0.63832304867E+03  0.40000000000E+03 0. -1.
   -9000007    1    1    2    0  503  0.40182031515E+03 -0.12107749313E+03 -0.31000970781E+03  0.65743847161E+03  0.40000000000E+03 0. -1.
<mgrwt>
<rscale>  2 0.57975799E+03</rscale>
<asrwt>0</asrwt>
<pdfrwt beam="1">  1       21 0.55281689E-01 0.57975799E+03</pdfrwt>
<pdfrwt beam="2">  1       21 0.14406624E+00 0.57975799E+03</pdfrwt>
<totfact> 0.82289211E+02</totfact>
</mgrwt>
</event>
<event>
 4    1  0.5003329E-002  0.4472327E+03  0.7818608E-02  0.1028551E+00
         21   -1    0    0  503  502  0.00000000000E+00  0.00000000000E+00  0.77039141214E+03  0.77039141214E+03  0.00000000000E+00 0. -1.
         21   -1    0    0  501  503 -0.00000000000E+00 -0.00000000000E+00 -0.39610557952E+03  0.39610557952E+03  0.00000000000E+00 0.  1.
    9000007    1    1    2  501    0 -0.13426613149E+03 -0.14828910388E+03 -0.15521071549E+03  0.47339985066E+03  0.40000000000E+03 0.  1.
   -9000007    1    1    2    0  502  0.13426613149E+03  0.14828910388E+03  0.52949654812E+03  0.69309714100E+03  0.40000000000E+03 0. -1.
<mgrwt>
<rscale>  2 0.44723266E+03</rscale>
<asrwt>0</asrwt>
<pdfrwt beam="1">  1       21 0.11852176E+00 0.44723266E+03</pdfrwt>
<pdfrwt beam="2">  1       21 0.60939320E-01 0.44723266E+03</pdfrwt>
<totfact> 0.11633473E+03</totfact>
</mgrwt>
</event>
<event>
 4    1  0.5003329E-002  0.6856955E+03  0.7818608E-02  0.9742012E-01
         21   -1    0    0  503  502  0.00000000000E+00  0.00000000000E+00  0.39411745290E+03  0.39411745290E+03  0.00000000000E+00 0. -1.
         21   -1    0    0  501  503 -0.00000000000E+00 -0.00000000000E+00 -0.11942692326E+04  0.11942692326E+04  0.00000000000E+00 0. -1.
    9000007    1    1    2  501    0 -0.52872662404E+03 -0.17500426439E+03 -0.37408728650E+03  0.78110155130E+03  0.40000000000E+03 0. -1.
   -9000007    1    1    2    0  502  0.52872662404E+03  0.17500426439E+03 -0.42606449317E+03  0.80728513417E+03  0.40000000000E+03 0. -1.
<mgrwt>
<rscale>  2 0.68569551E+03</rscale>
<asrwt>0</asrwt>
<pdfrwt beam="1">  1       21 0.60633456E-01 0.68569551E+03</pdfrwt>
<pdfrwt beam="2">  1       21 0.18373372E+00 0.68569551E+03</pdfrwt>
<totfact> 0.32550095E+02</totfact>
</mgrwt>
</event>
<event>
 4    1  0.5003329E-002  0.4230597E+03  0.7818608E-02  0.1036075E+00
         21   -1    0    0  503  502  0.00000000000E+00  0.00000000000E+00  0.77610674536E+03  0.77610674536E+03  0.00000000000E+00 0.  1.
         21   -1    0    0  501  503 -0.00000000000E+00 -0.00000000000E+00 -0.25855377246E+03  0.25855377246E+03  0.00000000000E+00 0.  1.
    9000007    1    1    2  501    0  0.13221664141E+03  0.38707009339E+02  0.88709515052E+02  0.43226016576E+03  0.40000000000E+03 0.  1.
   -9000007    1    1    2    0  502 -0.13221664141E+03 -0.38707009339E+02  0.42884345784E+03  0.60240035207E+03  0.40000000000E+03 0.  1.
<mgrwt>
<rscale>  2 0.42305966E+03</rscale>
<asrwt>0</asrwt>
<pdfrwt beam="1">  1       21 0.11940104E+00 0.42305966E+03</pdfrwt>
<pdfrwt beam="2">  1       21 0.39777504E-01 0.42305966E+03</pdfrwt>
<totfact> 0.28511374E+03</totfact>
</mgrwt>
</event>
<event>
 4    1  0.5003329E-002  0.4643371E+03  0.7818608E-02  0.1023531E+00
         21   -1    0    0  501  502  0.00000000000E+00  0.00000000000E+00  0.38130729117E+03  0.38130729117E+03  0.00000000000E+00 0. -1.
         21   -1    0    0  502  503 -0.00000000000E+00 -0.00000000000E+00 -0.75784652152E+03  0.75784652152E+03  0.00000000000E+00 0.  1.
    9000007    1    1    2  501    0 -0.15745483793E+03 -0.17554760662E+03  0.98718531383E+02  0.47471500568E+03  0.40000000000E+03 0. -1.
   -9000007    1    1    2    0  503  0.15745483793E+03  0.17554760662E+03 -0.47525776174E+03  0.66443880702E+03  0.40000000000E+03 0.  1.
<mgrwt>
<rscale>  2 0.46433715E+03</rscale>
<asrwt>0</asrwt>
<pdfrwt beam="1">  1       21 0.58662661E-01 0.46433715E+03</pdfrwt>
<pdfrwt beam="2">  1       21 0.11659177E+00 0.46433715E+03</pdfrwt>
<totfact> 0.13088409E+03</totfact>
</mgrwt>
</event>
<event>
 4    1  0.5003329E-002  0.6188948E+03  0.7818608E-02  0.9866963E-01
         21   -1    0    0  503  502  0.00000000000E+00  0.00000000000E+00  0.73623797345E+03  0.73623797345E+03  0.00000000000E+00 0.  1.
         21   -1    0    0  501  503 -0.00000000000E+00 -0.00000000000E+00 -0.11171883801E+04  0.11171883801E+04  0.00000000000E+00 0. -1.
    9000007    1    1    2  501    0  0.22109895496E+03  0.41730804851E+03 -0.86787556982E+03  0.10659450079E+04  0.40000000000E+03 0. -1.
   -9000007    1    1    2    0  502 -0.22109895496E+03 -0.41730804851E+03  0.48692516315E+03  0.78748134565E+03  0.40000000000E+03 0.  1.
<mgrwt>
<rscale>  2 0.61889479E+03</rscale>
<asrwt>0</asrwt>
<pdfrwt beam="1">  1       21 0.11326738E+00 0.61889479E+03</pdfrwt>
<pdfrwt beam="2">  1       21 0.17187514E+00 0.61889479E+03</pdfrwt>
<totfact> 0.93071320E+01</totfact>
</mgrwt>
</event>
<event>
 4    1  0.5003329E-002  0.4500772E+03  0.7818608E-02  0.1027699E+00
         21   -1    0    0  501  502  0.00000000000E+00  0.00000000000E+00  0.36282957186E+03  0.36282957186E+03  0.00000000000E+00 0.  1.
         21   -1    0    0  502  503 -0.00000000000E+00 -0.00000000000E+00 -0.57315858857E+03  0.57315858857E+03  0.00000000000E+00 0. -1.
    9000007    1    1    2  501    0 -0.12992116376E+03 -0.16028079865E+03 -0.29824871242E+02  0.45106425945E+03  0.40000000000E+03 0.  1.
   -9000007    1    1    2    0  503  0.12992116376E+03  0.16028079865E+03 -0.18050414546E+03  0.48492390098E+03  0.40000000000E+03 0. -1.
<mgrwt>
<rscale>  2 0.45007715E+03</rscale>
<asrwt>0</asrwt>
<pdfrwt beam="1">  1       21 0.55819935E-01 0.45007715E+03</pdfrwt>
<pdfrwt beam="2">  1       21 0.88178243E-01 0.45007715E+03</pdfrwt>
<totfact> 0.28956517E+03</totfact>
</mgrwt>
</event>
<event>
 4    1  0.5003329E-002  0.4285591E+03  0.7818608E-02  0.1034316E+00
         21   -1    0    0  503  502  0.00000000000E+00  0.00000000000E+00  0.10497042371E+04  0.10497042371E+04  0.00000000000E+00 0. -1.
         21   -1    0    0  501  503 -0.00000000000E+00 -0.00000000000E+00 -0.19287673196E+03  0.19287673196E+03  0.00000000000E+00 0. -1.
    9000007    1    1    2  501    0  0.15377252917E+03  0.41143980810E+01  0.23908908370E+03  0.49074077571E+03  0.40000000000E+03 0. -1.
   -9000007    1    1    2    0  502 -0.15377252917E+03 -0.41143980810E+01  0.61773842141E+03  0.75184019332E+03  0.40000000000E+03 0. -1.
<mgrwt>
<rscale>  2 0.42855912E+03</rscale>
<asrwt>0</asrwt>
<pdfrwt beam="1">  1       21 0.16149296E+00 0.42855912E+03</pdfrwt>
<pdfrwt beam="2">  1       21 0.29673344E-01 0.42855912E+03</pdfrwt>
<totfact> 0.23078211E+03</totfact>
</mgrwt>
</event>
<event>
 4    1  0.5003329E-002  0.4472017E+03  0.7818608E-02  0.1028560E+00
         21   -1    0    0  501  502  0.00000000000E+00  0.00000000000E+00  0.51110205309E+03  0.51110205309E+03  0.00000000000E+00 0. -1.
         21   -1    0    0  502  503 -0.00000000000E+00 -0.00000000000E+00 -0.45382208787E+03  0.45382208787E+03  0.00000000000E+00 0. -1.
    9000007    1    1    2  501    0 -0.19185089645E+03 -0.56414556805E+02  0.20772949441E+03  0.49309320776E+03  0.40000000000E+03 0. -1.
   -9000007    1    1    2    0  503  0.19185089645E+03  0.56414556805E+02 -0.15044952920E+03  0.47183093320E+03  0.40000000000E+03 0. -1.
<mgrwt>
<rscale>  2 0.44720171E+03</rscale>
<asrwt>0</asrwt>
<pdfrwt beam="1">  1       21 0.78631085E-01 0.44720171E+03</pdfrwt>
<pdfrwt beam="2">  1       21 0.69818783E-01 0.44720171E+03</pdfrwt>
<totfact> 0.23102996E+03</totfact>
</mgrwt>
</event>
<event>
 4    1  0.5003329E-002  0.4398719E+03  0.7818608E-02  0.1030786E+00
         21   -1    0    0  501  502  0.00000000000E+00  0.00000000000E+00  0.48402521766E+03  0.48402521766E+03  0.00000000000E+00 0. -1.
         21   -1    0    0  502  503 -0.00000000000E+00 -0.00000000000E+00 -0.88759959604E+03  0.88759959604E+03  0.00000000000E+00 0. -1.
    9000007    1    1    2  501    0  0.55825439682E+01 -0.18291026102E+03 -0.71022913950E+03  0.83541173022E+03  0.40000000000E+03 0. -1.
   -9000007    1    1    2    0  503 -0.55825439682E+01  0.18291026102E+03  0.30665476113E+03  0.53621308349E+03  0.40000000000E+03 0. -1.
<mgrwt>
<rscale>  2 0.43987195E+03</rscale>
<asrwt>0</asrwt>
<pdfrwt beam="1">  1       21 0.74465419E-01 0.43987195E+03</pdfrwt>
<pdfrwt beam="2">  1       21 0.13655378E+00 0.43987195E+03</pdfrwt>
<totfact> 0.51725265E+02</totfact>
</mgrwt>
</event>
<event>
 4    1  0.5003329E-002  0.4059131E+03  0.7818608E-02  0.1041751E+00
         21   -1    0    0  503  502  0.00000000000E+00  0.00000000000E+00  0.90935851141E+03  0.90935851141E+03  0.00000000000E+00 0.  1.
         21   -1    0    0  501  503 -0.00000000000E+00 -0.00000000000E+00 -0.19004514631E+03  0.19004514631E+03  0.00000000000E+00 0.  1.
    9000007    1    1    2  501    0 -0.62604780785E+02 -0.29087476331E+02  0.24098972825E+03  0.47206089541E+03  0.40000000000E+03 0.  1.
   -9000007    1    1    2    0  502  0.62604780785E+02  0.29087476331E+02  0.47832363685E+03  0.62734276231E+03  0.40000000000E+03 0.  1.
<mgrwt>
<rscale>  2 0.40591309E+03</rscale>
<asrwt>0</asrwt>
<pdfrwt beam="1">  1       21 0.13990131E+00 0.40591309E+03</pdfrwt>
<pdfrwt beam="2">  1       21 0.29237715E-01 0.40591309E+03</pdfrwt>
<totfact> 0.35416324E+03</totfact>
</mgrwt>
</event>
<event>
 4    1  0.5003329E-002  0.8795735E+03  0.7818608E-02  0.9451482E-01
         21   -1    0    0  503  502  0.00000000000E+00  0.00000000000E+00  0.55375855524E+03  0.55375855524E+03  0.00000000000E+00 0. -1.
         21   -1    0    0  501  503 -0.00000000000E+00 -0.00000000000E+00 -0.18205248869E+04  0.18205248869E+04  0.00000000000E+00 0.  1.
    9000007    1    1    2  501    0 -0.21009427927E+03  0.75465885587E+03 -0.12059134340E+04  0.14926073849E+04  0.40000000000E+03 0.  1.
   -9000007    1    1    2    0  502  0.21009427927E+03 -0.75465885587E+03 -0.60852897664E+02  0.88167605733E+03  0.40000000000E+03 0. -1.
<mgrwt>
<rscale>  2 0.87957353E+03</rscale>
<asrwt>0</asrwt>
<pdfrwt beam="1">  1       21 0.85193625E-01 0.87957353E+03</pdfrwt>
<pdfrwt beam="2">  1       21 0.28008075E+00 0.87957353E+03</pdfrwt>
<totfact> 0.33179175E+01</totfact>
</mgrwt>
</event>
<event>
 4    1  0.5003329E-002  0.4279829E+03  0.7818608E-02  0.1034499E+00
         21   -1    0    0  503  502  0.00000000000E+00  0.00000000000E+00  0.82588333172E+03  0.82588333172E+03  0.00000000000E+00 0. -1.
         21   -1    0    0  501  503 -0.00000000000E+00 -0.00000000000E+00 -0.22210890989E+03  0.22210890989E+03  0.00000000000E+00 0. -1.
    9000007    1    1    2  501    0  0.13586887273E+03 -0.68621969975E+02  0.28190633736E+03  0.51248464209E+03  0.40000000000E+03 0. -1.
   -9000007    1    1    2    0  502 -0.13586887273E+03  0.68621969975E+02  0.32186808447E+03  0.53550759952E+03  0.40000000000E+03 0. -1.
<mgrwt>
<rscale>  2 0.42798286E+03</rscale>
<asrwt>0</asrwt>
<pdfrwt beam="1">  1       21 0.12705897E+00 0.42798286E+03</pdfrwt>
<pdfrwt beam="2">  1       21 0.34170602E-01 0.42798286E+03</pdfrwt>
<totfact> 0.33066290E+03</totfact>
</mgrwt>
</event>
<event>
 4    1  0.5003329E-002  0.6197854E+03  0.7818608E-02  0.9865187E-01
         21   -1    0    0  501  502  0.00000000000E+00  0.00000000000E+00  0.65037125201E+03  0.65037125201E+03  0.00000000000E+00 0. -1.
         21   -1    0    0  502  503 -0.00000000000E+00 -0.00000000000E+00 -0.15766624866E+04  0.15766624866E+04  0.00000000000E+00 0.  1.
    9000007    1    1    2  501    0  0.32751170471E+03 -0.34186253593E+03  0.41743942805E+03  0.74725469974E+03  0.40000000000E+03 0. -1.
   -9000007    1    1    2    0  503 -0.32751170471E+03  0.34186253593E+03 -0.13437306626E+04  0.14797790389E+04  0.40000000000E+03 0.  1.
<mgrwt>
<rscale>  2 0.61978537E+03</rscale>
<asrwt>0</asrwt>
<pdfrwt beam="1">  1       21 0.10005712E+00 0.61978537E+03</pdfrwt>
<pdfrwt beam="2">  1       21 0.24256346E+00 0.61978537E+03</pdfrwt>
<totfact> 0.42579265E+01</totfact>
</mgrwt>
</event>
<event>
 4    1  0.5003329E-002  0.4877127E+03  0.7818608E-02  0.1017037E+00
         21   -1    0    0  503  502  0.00000000000E+00  0.00000000000E+00  0.16411270315E+04  0.16411270315E+04  0.00000000000E+00 0.  1.
         21   -1    0    0  501  503 -0.00000000000E+00 -0.00000000000E+00 -0.15029179172E+03  0.15029179172E+03  0.00000000000E+00 0.  1.
    9000007    1    1    2  501    0 -0.18657091530E+02  0.27841613632E+03  0.57638063450E+03  0.75503527590E+03  0.40000000000E+03 0.  1.
   -9000007    1    1    2    0  502  0.18657091530E+02 -0.27841613632E+03  0.91445460529E+03  0.10363835473E+04  0.40000000000E+03 0.  1.
<mgrwt>
<rscale>  2 0.48771265E+03</rscale>
<asrwt>0</asrwt>
<pdfrwt beam="1">  1       21 0.25248107E+00 0.48771265E+03</pdfrwt>
<pdfrwt beam="2">  1       21 0.23121815E-01 0.48771265E+03</pdfrwt>
<totfact> 0.90905507E+02</totfact>
</mgrwt>
</event>
<event>
 4    1  0.5003329E-002  0.4090008E+03  0.7818608E-02  0.1040707E+00
         21   -1    0    0  501  502  0.00000000000E+00  0.00000000000E+00  0.23398541443E+03  0.23398541443E+03  0.00000000000E+00 0. -1.
         21   -1    0    0  502  503 -0.00000000000E+00 -0.00000000000E+00 -0.36522834259E+04  0.36522834259E+04  0.00000000000E+00 0. -1.
    9000007    1    1    2  501    0  0.70027024525E+02  0.48763699604E+02  0.33456925310E+02  0.41036696799E+03  0.40000000000E+03 0. -1.
   -9000007    1    1    2    0  503 -0.70027024525E+02 -0.48763699604E+02 -0.34517549368E+04  0.34759018724E+04  0.40000000000E+03 0. -1.
<mgrwt>
<rscale>  2 0.40900083E+03</rscale>
<asrwt>0</asrwt>
<pdfrwt beam="1">  1       21 0.35997756E-01 0.40900083E+03</pdfrwt>
<pdfrwt beam="2">  1       21 0.56188975E+00 0.40900083E+03</pdfrwt>
<totfact> 0.36765552E+00</totfact>
</mgrwt>
</event>
<event>
 4    1  0.5003329E-002  0.4125181E+03  0.7818608E-02  0.1039529E+00
         21   -1    0    0  503  502  0.00000000000E+00  0.00000000000E+00  0.17309883500E+03  0.17309883500E+03  0.00000000000E+00 0.  1.
         21   -1    0    0  501  503 -0.00000000000E+00 -0.00000000000E+00 -0.11064151601E+04  0.11064151601E+04  0.00000000000E+00 0.  1.
    9000007    1    1    2  501    0  0.45196246378E+02 -0.90157914368E+02 -0.68025153114E+03  0.79555848046E+03  0.40000000000E+03 0. -1.
   -9000007    1    1    2    0  502 -0.45196246378E+02  0.90157914368E+02 -0.25306479397E+03  0.48395551465E+03  0.40000000000E+03 0. -1.
<mgrwt>
<rscale>  2 0.41251806E+03</rscale>
<asrwt>0</asrwt>
<pdfrwt beam="1">  1       21 0.26630590E-01 0.41251806E+03</pdfrwt>
<pdfrwt beam="2">  1       21 0.17021772E+00 0.41251806E+03</pdfrwt>
<totfact> 0.24794527E+03</totfact>
</mgrwt>
</event>
<event>
 4    1  0.5003329E-002  0.4262096E+03  0.7818608E-02  0.1035064E+00
         21   -1    0    0  501  502  0.00000000000E+00  0.00000000000E+00  0.18832997538E+03  0.18832997538E+03  0.00000000000E+00 0. -1.
         21   -1    0    0  502  503 -0.00000000000E+00 -0.00000000000E+00 -0.10373220865E+04  0.10373220865E+04  0.00000000000E+00 0. -1.
    9000007    1    1    2  501    0  0.78639267694E+02  0.12438047587E+03 -0.26218518638E+03  0.50039555269E+03  0.40000000000E+03 0. -1.
   -9000007    1    1    2    0  503 -0.78639267694E+02 -0.12438047587E+03 -0.58680692476E+03  0.72525650921E+03  0.40000000000E+03 0. -1.
<mgrwt>
<rscale>  2 0.42620962E+03</rscale>
<asrwt>0</asrwt>
<pdfrwt beam="1">  1       21 0.28973842E-01 0.42620962E+03</pdfrwt>
<pdfrwt beam="2">  1       21 0.15958802E+00 0.42620962E+03</pdfrwt>
<totfact> 0.25031334E+03</totfact>
</mgrwt>
</event>
<event>
 4    1  0.5003329E-002  0.5547941E+03  0.7818608E-02  0.1000390E+00
         21   -1    0    0  503  502  0.00000000000E+00  0.00000000000E+00  0.49714299352E+03  0.49714299352E+03  0.00000000000E+00 0.  1.
         21   -1    0    0  501  503 -0.00000000000E+00 -0.00000000000E+00 -0.65621085613E+03  0.65621085613E+03  0.00000000000E+00 0. -1.
    9000007    1    1    2  501    0 -0.10675657685E+03 -0.36932303952E+03 -0.21661637141E+03  0.59558301402E+03  0.40000000000E+03 0.  1.
   -9000007    1    1    2    0  502  0.10675657685E+03  0.36932303952E+03  0.57548508792E+02  0.55777083563E+03  0.40000000000E+03 0.  1.
<mgrwt>
<rscale>  2 0.55479408E+03</rscale>
<asrwt>0</asrwt>
<pdfrwt beam="1">  1       21 0.76483538E-01 0.55479408E+03</pdfrwt>
<pdfrwt beam="2">  1       21 0.10095552E+00 0.55479408E+03</pdfrwt>
<totfact> 0.99990394E+02</totfact>
</mgrwt>
</event>
<event>
 4    1  0.5003329E-002  0.4095869E+03  0.7818608E-02  0.1040510E+00
         21   -1    0    0  501  502  0.00000000000E+00  0.00000000000E+00  0.10817037825E+04  0.10817037825E+04  0.00000000000E+00 0.  1.
         21   -1    0    0  502  503 -0.00000000000E+00 -0.00000000000E+00 -0.17512175789E+03  0.17512175789E+03  0.00000000000E+00 0.  1.
    9000007    1    1    2  501    0 -0.45739425871E+02 -0.75294739198E+02  0.66582820908E+03  0.78172155966E+03  0.40000000000E+03 0.  1.
   -9000007    1    1    2    0  503  0.45739425871E+02  0.75294739198E+02  0.24075381558E+03  0.47510398077E+03  0.40000000000E+03 0.  1.
<mgrwt>
<rscale>  2 0.40958686E+03</rscale>
<asrwt>0</asrwt>
<pdfrwt beam="1">  1       21 0.16641596E+00 0.40958686E+03</pdfrwt>
<pdfrwt beam="2">  1       21 0.26941810E-01 0.40958686E+03</pdfrwt>
<totfact> 0.25867976E+03</totfact>
</mgrwt>
</event>
<event>
 4    1  0.5003329E-002  0.4111434E+03  0.7818608E-02  0.1039988E+00
         21   -1    0    0  501  502  0.00000000000E+00  0.00000000000E+00  0.47440259049E+03  0.47440259049E+03  0.00000000000E+00 0.  1.
         21   -1    0    0  502  503 -0.00000000000E+00 -0.00000000000E+00 -0.72251865857E+03  0.72251865857E+03  0.00000000000E+00 0.  1.
    9000007    1    1    2  501    0 -0.86569183765E+02  0.39302828343E+02  0.30200089017E+03  0.51014064096E+03  0.40000000000E+03 0.  1.
   -9000007    1    1    2    0  503  0.86569183765E+02 -0.39302828343E+02 -0.55011695826E+03  0.68678060809E+03  0.40000000000E+03 0.  1.
<mgrwt>
<rscale>  2 0.41114345E+03</rscale>
<asrwt>0</asrwt>
<pdfrwt beam="1">  1       21 0.72985014E-01 0.41114345E+03</pdfrwt>
<pdfrwt beam="2">  1       21 0.11115672E+00 0.41114345E+03</pdfrwt>
<totfact> 0.92762937E+02</totfact>
</mgrwt>
</event>
<event>
 4    1  0.5003329E-002  0.4378716E+03  0.7818608E-02  0.1031402E+00
         21   -1    0    0  503  502  0.00000000000E+00  0.00000000000E+00  0.87451947028E+03  0.87451947028E+03  0.00000000000E+00 0. -1.
         21   -1    0    0  501  503 -0.00000000000E+00 -0.00000000000E+00 -0.27961842314E+03  0.27961842314E+03  0.00000000000E+00 0. -1.
    9000007    1    1    2  501    0  0.12394339876E+02  0.17770176084E+03  0.29300439613E+02  0.43885083027E+03  0.40000000000E+03 0. -1.
   -9000007    1    1    2    0  502 -0.12394339876E+02 -0.17770176084E+03  0.56560060753E+03  0.71528706315E+03  0.40000000000E+03 0. -1.
<mgrwt>
<rscale>  2 0.43787160E+03</rscale>
<asrwt>0</asrwt>
<pdfrwt beam="1">  1       21 0.13454146E+00 0.43787160E+03</pdfrwt>
<pdfrwt beam="2">  1       21 0.43018219E-01 0.43787160E+03</pdfrwt>
<totfact> 0.17722859E+03</totfact>
</mgrwt>
</event>
<event>
 4    1  0.5003329E-002  0.4272672E+03  0.7818608E-02  0.1034727E+00
         21   -1    0    0  503  502  0.00000000000E+00  0.00000000000E+00  0.19230898805E+03  0.19230898805E+03  0.00000000000E+00 0.  1.
         21   -1    0    0  501  503 -0.00000000000E+00 -0.00000000000E+00 -0.98640582214E+03  0.98640582214E+03  0.00000000000E+00 0.  1.
    9000007    1    1    2  501    0  0.14936679242E+03  0.15710226199E+02 -0.28272825039E+03  0.51234023212E+03  0.40000000000E+03 0.  1.
   -9000007    1    1    2    0  502 -0.14936679242E+03 -0.15710226199E+02 -0.51136858371E+03  0.66637457806E+03  0.40000000000E+03 0.  1.
<mgrwt>
<rscale>  2 0.42726719E+03</rscale>
<asrwt>0</asrwt>
<pdfrwt beam="1">  1       21 0.29585998E-01 0.42726719E+03</pdfrwt>
<pdfrwt beam="2">  1       21 0.15175474E+00 0.42726719E+03</pdfrwt>
<totfact> 0.27569205E+03</totfact>
</mgrwt>
</event>
<event>
 4    1  0.5003329E-002  0.4261826E+03  0.7818608E-02  0.1035073E+00
         21   -1    0    0  501  502  0.00000000000E+00  0.00000000000E+00  0.28191551001E+03  0.28191551001E+03  0.00000000000E+00 0. -1.
         21   -1    0    0  502  503 -0.00000000000E+00 -0.00000000000E+00 -0.64841478586E+03  0.64841478586E+03  0.00000000000E+00 0. -1.
    9000007    1    1    2  501    0  0.13408086404E+03  0.60447811248E+02 -0.22040970224E+03  0.47980418175E+03  0.40000000000E+03 0.  1.
   -9000007    1    1    2    0  503 -0.13408086404E+03 -0.60447811248E+02 -0.14608957361E+03  0.45052611412E+03  0.40000000000E+03 0.  1.
<mgrwt>
<rscale>  2 0.42618261E+03</rscale>
<asrwt>0</asrwt>
<pdfrwt beam="1">  1       21 0.43371617E-01 0.42618261E+03</pdfrwt>
<pdfrwt beam="2">  1       21 0.99756120E-01 0.42618261E+03</pdfrwt>
<totfact> 0.37152956E+03</totfact>
</mgrwt>
</event>
<event>
 4    1  0.5003329E-002  0.4991290E+03  0.7818608E-02  0.1014007E+00
         21   -1    0    0  503  502  0.00000000000E+00  0.00000000000E+00  0.81287650153E+03  0.81287650153E+03  0.00000000000E+00 0. -1.
         21   -1    0    0  501  503 -0.00000000000E+00 -0.00000000000E+00 -0.43368790700E+03  0.43368790700E+03  0.00000000000E+00 0.  1.
    9000007    1    1    2  501    0  0.29817226133E+03 -0.14934493825E+02 -0.14796843794E+03  0.52060003377E+03  0.40000000000E+03 0.  1.
   -9000007    1    1    2    0  502 -0.29817226133E+03  0.14934493825E+02  0.52715703247E+03  0.72596437475E+03  0.40000000000E+03 0.  1.
<mgrwt>
<rscale>  2 0.49912898E+03</rscale>
<asrwt>0</asrwt>
<pdfrwt beam="1">  1       21 0.12505792E+00 0.49912898E+03</pdfrwt>
<pdfrwt beam="2">  1       21 0.66721217E-01 0.49912898E+03</pdfrwt>
<totfact> 0.81232236E+02</totfact>
</mgrwt>
</event>
<event>
 4    1  0.5003329E-002  0.5456794E+03  0.7818608E-02  0.1002499E+00
         21   -1    0    0  501  502  0.00000000000E+00  0.00000000000E+00  0.76984280204E+03  0.76984280204E+03  0.00000000000E+00 0.  1.
         21   -1    0    0  502  503 -0.00000000000E+00 -0.00000000000E+00 -0.38750579092E+03  0.38750579092E+03  0.00000000000E+00 0.  1.
    9000007    1    1    2  501    0 -0.48757465546E+01  0.37113646517E+03  0.16626512391E+03  0.57044731581E+03  0.40000000000E+03 0.  1.
   -9000007    1    1    2    0  503  0.48757465546E+01 -0.37113646517E+03  0.21607188721E+03  0.58690127716E+03  0.40000000000E+03 0.  1.
<mgrwt>
<rscale>  2 0.54567944E+03</rscale>
<asrwt>0</asrwt>
<pdfrwt beam="1">  1       21 0.11843735E+00 0.54567944E+03</pdfrwt>
<pdfrwt beam="2">  1       21 0.59616276E-01 0.54567944E+03</pdfrwt>
<totfact> 0.11794296E+03</totfact>
</mgrwt>
</event>
<event>
 4    1  0.5003329E-002  0.5200186E+03  0.7818608E-02  0.1008682E+00
         21   -1    0    0  501  502  0.00000000000E+00  0.00000000000E+00  0.16493759790E+04  0.16493759790E+04  0.00000000000E+00 0.  1.
         21   -1    0    0  502  503 -0.00000000000E+00 -0.00000000000E+00 -0.16607704549E+03  0.16607704549E+03  0.00000000000E+00 0.  1.
    9000007    1    1    2  501    0 -0.32489617621E+03 -0.69726538277E+02  0.63898191245E+03  0.82384294614E+03  0.40000000000E+03 0.  1.
   -9000007    1    1    2    0  503  0.32489617621E+03  0.69726538277E+02  0.84431702106E+03  0.99161007836E+03  0.40000000000E+03 0.  1.
<mgrwt>
<rscale>  2 0.52001857E+03</rscale>
<asrwt>0</asrwt>
<pdfrwt beam="1">  1       21 0.25375014E+00 0.52001857E+03</pdfrwt>
<pdfrwt beam="2">  1       21 0.25550316E-01 0.52001857E+03</pdfrwt>
<totfact> 0.72470307E+02</totfact>
</mgrwt>
</event>
<event>
 4    1  0.5003329E-002  0.5272426E+03  0.7818608E-02  0.1006903E+00
         21   -1    0    0  501  502  0.00000000000E+00  0.00000000000E+00  0.66956658175E+03  0.66956658175E+03  0.00000000000E+00 0.  1.
         21   -1    0    0  502  503 -0.00000000000E+00 -0.00000000000E+00 -0.60102587763E+03  0.60102587763E+03  0.00000000000E+00 0.  1.
    9000007    1    1    2  501    0 -0.29879191154E+03 -0.16943479529E+03  0.38754823483E+03  0.65435341412E+03  0.40000000000E+03 0.  1.
   -9000007    1    1    2    0  503  0.29879191154E+03  0.16943479529E+03 -0.31900753070E+03  0.61623904526E+03  0.40000000000E+03 0.  1.
<mgrwt>
<rscale>  2 0.52724260E+03</rscale>
<asrwt>0</asrwt>
<pdfrwt beam="1">  1       21 0.10301024E+00 0.52724260E+03</pdfrwt>
<pdfrwt beam="2">  1       21 0.92465520E-01 0.52724260E+03</pdfrwt>
<totfact> 0.61563399E+02</totfact>
</mgrwt>
</event>
<event>
 4    1  0.5003329E-002  0.4522083E+03  0.7818608E-02  0.1027066E+00
         21   -1    0    0  503  502  0.00000000000E+00  0.00000000000E+00  0.59306084328E+03  0.59306084328E+03  0.00000000000E+00 0. -1.
         21   -1    0    0  501  503 -0.00000000000E+00 -0.00000000000E+00 -0.73594391850E+03  0.73594391850E+03  0.00000000000E+00 0. -1.
    9000007    1    1    2  501    0 -0.19249924057E+03  0.86234735946E+02 -0.55587907029E+03  0.71658490641E+03  0.40000000000E+03 0. -1.
   -9000007    1    1    2    0  502  0.19249924057E+03 -0.86234735946E+02  0.41299599507E+03  0.61241985537E+03  0.40000000000E+03 0. -1.
<mgrwt>
<rscale>  2 0.45220835E+03</rscale>
<asrwt>0</asrwt>
<pdfrwt beam="1">  1       21 0.91240130E-01 0.45220835E+03</pdfrwt>
<pdfrwt beam="2">  1       21 0.11322214E+00 0.45220835E+03</pdfrwt>
<totfact> 0.51838448E+02</totfact>
</mgrwt>
</event>
<event>
 4    1  0.5003329E-002  0.5426763E+03  0.7818608E-02  0.1003203E+00
         21   -1    0    0  501  502  0.00000000000E+00  0.00000000000E+00  0.39384092271E+03  0.39384092271E+03  0.00000000000E+00 0. -1.
         21   -1    0    0  502  503 -0.00000000000E+00 -0.00000000000E+00 -0.14059800878E+04  0.14059800878E+04  0.00000000000E+00 0. -1.
    9000007    1    1    2  501    0 -0.28569101548E+03 -0.22995267382E+03  0.10966855885E+03  0.55364680197E+03  0.40000000000E+03 0. -1.
   -9000007    1    1    2    0  503  0.28569101548E+03  0.22995267382E+03 -0.11218077239E+04  0.12461742085E+04  0.40000000000E+03 0. -1.
<mgrwt>
<rscale>  2 0.54267632E+03</rscale>
<asrwt>0</asrwt>
<pdfrwt beam="1">  1       21 0.60590912E-01 0.54267632E+03</pdfrwt>
<pdfrwt beam="2">  1       21 0.21630463E+00 0.54267632E+03</pdfrwt>
<totfact> 0.20713567E+02</totfact>
</mgrwt>
</event>
<event>
 4    1  0.5003329E-002  0.4739963E+03  0.7818608E-02  0.1020798E+00
         21   -1    0    0  501  502  0.00000000000E+00  0.00000000000E+00  0.81134377734E+03  0.81134377734E+03  0.00000000000E+00 0. -1.
         21   -1    0    0  502  503 -0.00000000000E+00 -0.00000000000E+00 -0.30224452652E+03  0.30224452652E+03  0.00000000000E+00 0.  1.
    9000007    1    1    2  501    0  0.10578122385E+03 -0.23126350168E+03  0.93359920519E+02  0.48310304210E+03  0.40000000000E+03 0.  1.
   -9000007    1    1    2    0  503 -0.10578122385E+03  0.23126350168E+03  0.41573933031E+03  0.63048526176E+03  0.40000000000E+03 0. -1.
<mgrwt>
<rscale>  2 0.47399628E+03</rscale>
<asrwt>0</asrwt>
<pdfrwt beam="1">  1       21 0.12482212E+00 0.47399628E+03</pdfrwt>
<pdfrwt beam="2">  1       21 0.46499158E-01 0.47399628E+03</pdfrwt>
<totfact> 0.18036922E+03</totfact>
</mgrwt>
</event>
<event>
 4    1  0.5003329E-002  0.5906478E+03  0.7818608E-02  0.9925001E-01
         21   -1    0    0  503  502  0.00000000000E+00  0.00000000000E+00  0.21473975556E+03  0.21473975556E+03  0.00000000000E+00 0.  1.
         21   -1    0    0  501  503 -0.00000000000E+00 -0.00000000000E+00 -0.16564224923E+04  0.16564224923E+04  0.00000000000E+00 0. -1.
    9000007    1    1    2  501    0  0.24844871448E+03 -0.35656427427E+03 -0.59115144165E+03  0.83565834668E+03  0.40000000000E+03 0.  1.
   -9000007    1    1    2    0  502 -0.24844871448E+03  0.35656427427E+03 -0.85053129505E+03  0.10355039011E+04  0.40000000000E+03 0. -1.
<mgrwt>
<rscale>  2 0.59064782E+03</rscale>
<asrwt>0</asrwt>
<pdfrwt beam="1">  1       21 0.33036886E-01 0.59064782E+03</pdfrwt>
<pdfrwt beam="2">  1       21 0.25483423E+00 0.59064782E+03</pdfrwt>
<totfact> 0.41555765E+02</totfact>
</mgrwt>
</event>
<event>
 4    1  0.5003329E-002  0.5191166E+03  0.7818608E-02  0.1008906E+00
         21   -1    0    0  501  502  0.00000000000E+00  0.00000000000E+00  0.35949583784E+03  0.35949583784E+03  0.00000000000E+00 0.  1.
         21   -1    0    0  502  503 -0.00000000000E+00 -0.00000000000E+00 -0.12132304987E+04  0.12132304987E+04  0.00000000000E+00 0.  1.
    9000007    1    1    2  501    0 -0.25657876359E+03  0.20892439463E+03  0.59240158101E+02  0.52248584759E+03  0.40000000000E+03 0.  1.
   -9000007    1    1    2    0  503  0.25657876359E+03 -0.20892439463E+03 -0.91297481898E+03  0.10502404890E+04  0.40000000000E+03 0.  1.
<mgrwt>
<rscale>  2 0.51911662E+03</rscale>
<asrwt>0</asrwt>
<pdfrwt beam="1">  1       21 0.55307052E-01 0.51911662E+03</pdfrwt>
<pdfrwt beam="2">  1       21 0.18665085E+00 0.51911662E+03</pdfrwt>
<totfact> 0.40362976E+02</totfact>
</mgrwt>
</event>
<event>
 4    1  0.5003329E-002  0.5045907E+03  0.7818608E-02  0.1012588E+00
         21   -1    0    0  503  502  0.00000000000E+00  0.00000000000E+00  0.43809209976E+03  0.43809209976E+03  0.00000000000E+00 0. -1.
         21   -1    0    0  501  503 -0.00000000000E+00 -0.00000000000E+00 -0.58317905673E+03  0.58317905673E+03  0.00000000000E+00 0. -1.
    9000007    1    1    2  501    0 -0.30756193220E+03 -0.41795689099E+01 -0.42671482852E+02  0.50639181113E+03  0.40000000000E+03 0.  1.
   -9000007    1    1    2    0  502  0.30756193220E+03  0.41795689099E+01 -0.10241547411E+03  0.51487934535E+03  0.40000000000E+03 0.  1.
<mgrwt>
<rscale>  2 0.50459074E+03</rscale>
<asrwt>0</asrwt>
<pdfrwt beam="1">  1       21 0.67398785E-01 0.50459074E+03</pdfrwt>
<pdfrwt beam="2">  1       21 0.89719854E-01 0.50459074E+03</pdfrwt>
<totfact> 0.18003519E+03</totfact>
</mgrwt>
</event>
<event>
 4    1  0.5003329E-002  0.8519128E+03  0.7818608E-02  0.9487773E-01
         21   -1    0    0  501  502  0.00000000000E+00  0.00000000000E+00  0.70936293420E+03  0.70936293420E+03  0.00000000000E+00 0.  1.
         21   -1    0    0  502  503 -0.00000000000E+00 -0.00000000000E+00 -0.13650875080E+04  0.13650875080E+04  0.00000000000E+00 0. -1.
    9000007    1    1    2  501    0  0.21092093884E+03 -0.72198879780E+03  0.19128710583E+03  0.87312440319E+03  0.40000000000E+03 0.  1.
   -9000007    1    1    2    0  503 -0.21092093884E+03  0.72198879780E+03 -0.84701167966E+03  0.12013260390E+04  0.40000000000E+03 0. -1.
<mgrwt>
<rscale>  2 0.85191283E+03</rscale>
<asrwt>0</asrwt>
<pdfrwt beam="1">  1       21 0.10913276E+00 0.85191283E+03</pdfrwt>
<pdfrwt beam="2">  1       21 0.21001346E+00 0.85191283E+03</pdfrwt>
<totfact> 0.51109032E+01</totfact>
</mgrwt>
</event>
<event>
 4    1  0.5003329E-002  0.4088905E+03  0.7818608E-02  0.1040744E+00
         21   -1    0    0  503  502  0.00000000000E+00  0.00000000000E+00  0.22806198031E+04  0.22806198031E+04  0.00000000000E+00 0.  1.
         21   -1    0    0  501  503 -0.00000000000E+00 -0.00000000000E+00 -0.92475406015E+02  0.92475406015E+02  0.00000000000E+00 0.  1.
    9000007    1    1    2  501    0  0.84577636262E+02 -0.61719816967E+01  0.55389671391E+03  0.68847152417E+03  0.40000000000E+03 0.  1.
   -9000007    1    1    2    0  502 -0.84577636262E+02  0.61719816967E+01  0.16342476832E+04  0.16846236849E+04  0.40000000000E+03 0.  1.
<mgrwt>
<rscale>  2 0.40889054E+03</rscale>
<asrwt>0</asrwt>
<pdfrwt beam="1">  1       21 0.35086454E+00 0.40889054E+03</pdfrwt>
<pdfrwt beam="2">  1       21 0.14226987E-01 0.40889054E+03</pdfrwt>
<totfact> 0.60269172E+02</totfact>
</mgrwt>
</event>
<event>
 4    1  0.5003329E-002  0.6303482E+03  0.7818608E-02  0.9844370E-01
         21   -1    0    0  503  502  0.00000000000E+00  0.00000000000E+00  0.29355950531E+03  0.29355950531E+03  0.00000000000E+00 0.  1.
         21   -1    0    0  501  503 -0.00000000000E+00 -0.00000000000E+00 -0.13544145804E+04  0.13544145804E+04  0.00000000000E+00 0. -1.
    9000007    1    1    2  501    0 -0.25114192877E+02  0.48652662506E+03 -0.50925982280E+03  0.81036068925E+03  0.40000000000E+03 0.  1.
   -9000007    1    1    2    0  502  0.25114192877E+02 -0.48652662506E+03 -0.55159525229E+03  0.83761339646E+03  0.40000000000E+03 0.  1.
<mgrwt>
<rscale>  2 0.63034822E+03</rscale>
<asrwt>0</asrwt>
<pdfrwt beam="1">  1       21 0.45163001E-01 0.63034822E+03</pdfrwt>
<pdfrwt beam="2">  1       21 0.20837148E+00 0.63034822E+03</pdfrwt>
<totfact> 0.42499715E+02</totfact>
</mgrwt>
</event>
<event>
 4    1  0.5003329E-002  0.4556535E+03  0.7818608E-02  0.1026049E+00
         21   -1    0    0  503  502  0.00000000000E+00  0.00000000000E+00  0.69599484486E+03  0.69599484486E+03  0.00000000000E+00 0.  1.
         21   -1    0    0  501  503 -0.00000000000E+00 -0.00000000000E+00 -0.34802922711E+03  0.34802922711E+03  0.00000000000E+00 0. -1.
    9000007    1    1    2  501    0 -0.13195416690E+03 -0.17380505190E+03 -0.23326770225E+02  0.45625019061E+03  0.40000000000E+03 0.  1.
   -9000007    1    1    2    0  502  0.13195416690E+03  0.17380505190E+03  0.37129238798E+03  0.58777388135E+03  0.40000000000E+03 0.  1.
<mgrwt>
<rscale>  2 0.45565348E+03</rscale>
<asrwt>0</asrwt>
<pdfrwt beam="1">  1       21 0.10707613E+00 0.45565348E+03</pdfrwt>
<pdfrwt beam="2">  1       21 0.53542958E-01 0.45565348E+03</pdfrwt>
<totfact> 0.19784905E+03</totfact>
</mgrwt>
</event>
<event>
 4    1  0.5003329E-002  0.6536205E+03  0.7818608E-02  0.9800009E-01
         21   -1    0    0  501  502  0.00000000000E+00  0.00000000000E+00  0.85791670985E+03  0.85791670985E+03  0.00000000000E+00 0. -1.
         21   -1    0    0  502  503 -0.00000000000E+00 -0.00000000000E+00 -0.83746052743E+03  0.83746052743E+03  0.00000000000E+00 0. -1.
    9000007    1    1    2  501    0 -0.45485262649E+03 -0.24561924692E+03  0.54994474101E+03  0.85420076355E+03  0.40000000000E+03 0. -1.
   -9000007    1    1    2    0  503  0.45485262649E+03  0.24561924692E+03 -0.52948855859E+03  0.84117647373E+03  0.40000000000E+03 0. -1.
<mgrwt>
<rscale>  2 0.65362048E+03</rscale>
<asrwt>0</asrwt>
<pdfrwt beam="1">  1       21 0.13198719E+00 0.65362048E+03</pdfrwt>
<pdfrwt beam="2">  1       21 0.12884008E+00 0.65362048E+03</pdfrwt>
<totfact> 0.13669421E+02</totfact>
</mgrwt>
</event>
<event>
 4    1  0.5003329E-002  0.4736279E+03  0.7818608E-02  0.1020901E+00
         21   -1    0    0  503  502  0.00000000000E+00  0.00000000000E+00  0.40479274207E+03  0.40479274207E+03  0.00000000000E+00 0.  1.
         21   -1    0    0  501  503 -0.00000000000E+00 -0.00000000000E+00 -0.12533158853E+04  0.12533158853E+04  0.00000000000E+00 0. -1.
    9000007    1    1    2  501    0  0.25359257246E+03 -0.37639622800E+01 -0.10434703441E+04  0.11459291947E+04  0.40000000000E+03 0. -1.
   -9000007    1    1    2    0  502 -0.25359257246E+03  0.37639622800E+01  0.19494720081E+03  0.51217943274E+03  0.40000000000E+03 0.  1.
<mgrwt>
<rscale>  2 0.47362787E+03</rscale>
<asrwt>0</asrwt>
<pdfrwt beam="1">  1       21 0.62275807E-01 0.47362787E+03</pdfrwt>
<pdfrwt beam="2">  1       21 0.19281783E+00 0.47362787E+03</pdfrwt>
<totfact> 0.28826911E+02</totfact>
</mgrwt>
</event>
<event>
 4    1  0.5003329E-002  0.4211833E+03  0.7818608E-02  0.1036682E+00
         21   -1    0    0  503  502  0.00000000000E+00  0.00000000000E+00  0.14287059507E+04  0.14287059507E+04  0.00000000000E+00 0.  1.
         21   -1    0    0  501  503 -0.00000000000E+00 -0.00000000000E+00 -0.47088208458E+03  0.47088208458E+03  0.00000000000E+00 0.  1.
    9000007    1    1    2  501    0  0.22716813866E+02  0.12992057768E+03 -0.33609425781E+03  0.53884576668E+03  0.40000000000E+03 0.  1.
   -9000007    1    1    2    0  502 -0.22716813866E+02 -0.12992057768E+03  0.12939181239E+04  0.13607422686E+04  0.40000000000E+03 0.  1.
<mgrwt>
<rscale>  2 0.42118335E+03</rscale>
<asrwt>0</asrwt>
<pdfrwt beam="1">  1       21 0.21980091E+00 0.42118335E+03</pdfrwt>
<pdfrwt beam="2">  1       21 0.72443398E-01 0.42118335E+03</pdfrwt>
<totfact> 0.14057225E+02</totfact>
</mgrwt>
</event>
<event>
 4    1  0.5003329E-002  0.4110108E+03  0.7818608E-02  0.1040032E+00
         21   -1    0    0  503  502  0.00000000000E+00  0.00000000000E+00  0.13200992817E+03  0.13200992817E+03  0.00000000000E+00 0.  1.
         21   -1    0    0  501  503 -0.00000000000E+00 -0.00000000000E+00 -0.17206470731E+04  0.17206470731E+04  0.00000000000E+00 0.  1.
    9000007    1    1    2  501    0  0.91976325851E+02  0.21685781668E+02 -0.12632660980E+04  0.13284468947E+04  0.40000000000E+03 0.  1.
   -9000007    1    1    2    0  502 -0.91976325851E+02 -0.21685781668E+02 -0.32537104685E+03  0.52421010652E+03  0.40000000000E+03 0.  1.
<mgrwt>
<rscale>  2 0.41101085E+03</rscale>
<asrwt>0</asrwt>
<pdfrwt beam="1">  1       21 0.20309220E-01 0.41101085E+03</pdfrwt>
<pdfrwt beam="2">  1       21 0.26471493E+00 0.41101085E+03</pdfrwt>
<totfact> 0.10209313E+03</totfact>
</mgrwt>
</event>
<event>
 4    1  0.5003329E-002  0.5090476E+03  0.7818608E-02  0.1011444E+00
         21   -1    0    0  501  502  0.00000000000E+00  0.00000000000E+00  0.34916762399E+03  0.34916762399E+03  0.00000000000E+00 0. -1.
         21   -1    0    0  502  503 -0.00000000000E+00 -0.00000000000E+00 -0.74544978109E+03  0.74544978109E+03  0.00000000000E+00 0. -1.
    9000007    1    1    2  501    0  0.25680840821E+03  0.18215076082E+03 -0.23463841511E+03  0.56052176054E+03  0.40000000000E+03 0. -1.
   -9000007    1    1    2    0  503 -0.25680840821E+03 -0.18215076082E+03 -0.16164374199E+03  0.53409564454E+03  0.40000000000E+03 0. -1.
<mgrwt>
<rscale>  2 0.50904760E+03</rscale>
<asrwt>0</asrwt>
<pdfrwt beam="1">  1       21 0.53718097E-01 0.50904760E+03</pdfrwt>
<pdfrwt beam="2">  1       21 0.11468458E+00 0.50904760E+03</pdfrwt>
<totfact> 0.16245464E+03</totfact>
</mgrwt>
</event>
<event>
 4    1  0.5003329E-002  0.4948244E+03  0.7818608E-02  0.1015139E+00
         21   -1    0    0  503  502  0.00000000000E+00  0.00000000000E+00  0.97973765015E+03  0.97973765015E+03  0.00000000000E+00 0.  1.
         21   -1    0    0  501  503 -0.00000000000E+00 -0.00000000000E+00 -0.31381903549E+03  0.31381903549E+03  0.00000000000E+00 0. -1.
    9000007    1    1    2  501    0  0.18036167785E+03  0.22873749085E+03  0.62482283816E+03  0.79702870314E+03  0.40000000000E+03 0.  1.
   -9000007    1    1    2    0  502 -0.18036167785E+03 -0.22873749085E+03  0.41095776508E+02  0.49652798250E+03  0.40000000000E+03 0. -1.
<mgrwt>
<rscale>  2 0.49482439E+03</rscale>
<asrwt>0</asrwt>
<pdfrwt beam="1">  1       21 0.15072887E+00 0.49482439E+03</pdfrwt>
<pdfrwt beam="2">  1       21 0.48279852E-01 0.49482439E+03</pdfrwt>
<totfact> 0.10031896E+03</totfact>
</mgrwt>
</event>
<event>
 4    1  0.5003329E-002  0.4760825E+03  0.7818608E-02  0.1020217E+00
         21   -1    0    0  503  502  0.00000000000E+00  0.00000000000E+00  0.23235514347E+03  0.23235514347E+03  0.00000000000E+00 0.  1.
         21   -1    0    0  501  503 -0.00000000000E+00 -0.00000000000E+00 -0.12856608329E+04  0.12856608329E+04  0.00000000000E+00 0.  1.
    9000007    1    1    2  501    0 -0.25800937537E+03 -0.92586976359E+01 -0.89947384094E+03  0.10176972791E+04  0.40000000000E+03 0.  1.
   -9000007    1    1    2    0  502  0.25800937537E+03  0.92586976359E+01 -0.15383184847E+03  0.50031869730E+03  0.40000000000E+03 0.  1.
<mgrwt>
<rscale>  2 0.47608252E+03</rscale>
<asrwt>0</asrwt>
<pdfrwt beam="1">  1       21 0.35746944E-01 0.47608252E+03</pdfrwt>
<pdfrwt beam="2">  1       21 0.19779398E+00 0.47608252E+03</pdfrwt>
<totfact> 0.86160016E+02</totfact>
</mgrwt>
</event>
<event>
 4    1  0.5003329E-002  0.4052519E+03  0.7818608E-02  0.1041976E+00
         21   -1    0    0  503  502  0.00000000000E+00  0.00000000000E+00  0.58948001605E+03  0.58948001605E+03  0.00000000000E+00 0. -1.
         21   -1    0    0  501  503 -0.00000000000E+00 -0.00000000000E+00 -0.28412047479E+03  0.28412047479E+03  0.00000000000E+00 0. -1.
    9000007    1    1    2  501    0  0.64191741205E+02 -0.10417146589E+02  0.91793101211E+02  0.41551783357E+03  0.40000000000E+03 0. -1.
   -9000007    1    1    2    0  502 -0.64191741205E+02  0.10417146589E+02  0.21356644005E+03  0.45808265727E+03  0.40000000000E+03 0. -1.
<mgrwt>
<rscale>  2 0.40525189E+03</rscale>
<asrwt>0</asrwt>
<pdfrwt beam="1">  1       21 0.90689233E-01 0.40525189E+03</pdfrwt>
<pdfrwt beam="2">  1       21 0.43710843E-01 0.40525189E+03</pdfrwt>
<totfact> 0.46273686E+03</totfact>
</mgrwt>
</event>
<event>
 4    1  0.5003329E-002  0.4150618E+03  0.7818608E-02  0.1038686E+00
         21   -1    0    0  503  502  0.00000000000E+00  0.00000000000E+00  0.46190239063E+03  0.46190239063E+03  0.00000000000E+00 0. -1.
         21   -1    0    0  501  503 -0.00000000000E+00 -0.00000000000E+00 -0.10597647860E+04  0.10597647860E+04  0.00000000000E+00 0. -1.
    9000007    1    1    2  501    0  0.10946190281E+03 -0.17156829280E+02 -0.91141987757E+03  0.10014801337E+04  0.40000000000E+03 0. -1.
   -9000007    1    1    2    0  502 -0.10946190281E+03  0.17156829280E+02  0.31355748223E+03  0.52018704292E+03  0.40000000000E+03 0. -1.
<mgrwt>
<rscale>  2 0.41506176E+03</rscale>
<asrwt>0</asrwt>
<pdfrwt beam="1">  1       21 0.71061906E-01 0.41506176E+03</pdfrwt>
<pdfrwt beam="2">  1       21 0.16304074E+00 0.41506176E+03</pdfrwt>
<totfact> 0.35995295E+02</totfact>
</mgrwt>
</event>
<event>
 4    1  0.5003329E-002  0.4568638E+03  0.7818608E-02  0.1025695E+00
         21   -1    0    0  501  502  0.00000000000E+00  0.00000000000E+00  0.36909876235E+03  0.36909876235E+03  0.00000000000E+00 0. -1.
         21   -1    0    0  502  503 -0.00000000000E+00 -0.00000000000E+00 -0.56631494153E+03  0.56631494153E+03  0.00000000000E+00 0. -1.
    9000007    1    1    2  501    0  0.16355441758E+03 -0.14823787382E+03 -0.80841250285E+02  0.46396101398E+03  0.40000000000E+03 0. -1.
   -9000007    1    1    2    0  503 -0.16355441758E+03  0.14823787382E+03 -0.11637492889E+03  0.47145268990E+03  0.40000000000E+03 0. -1.
<mgrwt>
<rscale>  2 0.45686378E+03</rscale>
<asrwt>0</asrwt>
<pdfrwt beam="1">  1       21 0.56784425E-01 0.45686378E+03</pdfrwt>
<pdfrwt beam="2">  1       21 0.87125375E-01 0.45686378E+03</pdfrwt>
<totfact> 0.28632950E+03</totfact>
</mgrwt>
</event>
<event>
 4    1  0.5003329E-002  0.4485998E+03  0.7818608E-02  0.1028140E+00
         21   -1    0    0  503  502  0.00000000000E+00  0.00000000000E+00  0.80926632759E+03  0.80926632759E+03  0.00000000000E+00 0. -1.
         21   -1    0    0  501  503 -0.00000000000E+00 -0.00000000000E+00 -0.40766194216E+03  0.40766194216E+03  0.00000000000E+00 0.  1.
    9000007    1    1    2  501    0 -0.19280008072E+03 -0.63795726155E+02 -0.17918583353E+03  0.48306244807E+03  0.40000000000E+03 0. -1.
   -9000007    1    1    2    0  502  0.19280008072E+03  0.63795726155E+02  0.58079021896E+03  0.73386582169E+03  0.40000000000E+03 0. -1.
<mgrwt>
<rscale>  2 0.44859978E+03</rscale>
<asrwt>0</asrwt>
<pdfrwt beam="1">  1       21 0.12450251E+00 0.44859978E+03</pdfrwt>
<pdfrwt beam="2">  1       21 0.62717222E-01 0.44859978E+03</pdfrwt>
<totfact> 0.96235641E+02</totfact>
</mgrwt>
</event>
<event>
 4    1  0.5003329E-002  0.4433031E+03  0.7818608E-02  0.1029738E+00
         21   -1    0    0  501  502  0.00000000000E+00  0.00000000000E+00  0.26397700657E+03  0.26397700657E+03  0.00000000000E+00 0. -1.
         21   -1    0    0  502  503 -0.00000000000E+00 -0.00000000000E+00 -0.92484978032E+03  0.92484978032E+03  0.00000000000E+00 0. -1.
    9000007    1    1    2  501    0  0.17323136228E+03 -0.80675546221E+02 -0.67911098398E+02  0.44847471046E+03  0.40000000000E+03 0. -1.
   -9000007    1    1    2    0  503 -0.17323136228E+03  0.80675546221E+02 -0.59296167536E+03  0.74035207643E+03  0.40000000000E+03 0. -1.
<mgrwt>
<rscale>  2 0.44330311E+03</rscale>
<asrwt>0</asrwt>
<pdfrwt beam="1">  1       21 0.40611847E-01 0.44330311E+03</pdfrwt>
<pdfrwt beam="2">  1       21 0.14228458E+00 0.44330311E+03</pdfrwt>
<totfact> 0.17181954E+03</totfact>
</mgrwt>
</event>
<event>
 4    1  0.5003329E-002  0.4616806E+03  0.7818608E-02  0.1024295E+00
         21   -1    0    0  501  502  0.00000000000E+00  0.00000000000E+00  0.11444550043E+04  0.11444550043E+04  0.00000000000E+00 0. -1.
         21   -1    0    0  502  503 -0.00000000000E+00 -0.00000000000E+00 -0.19258680908E+03  0.19258680908E+03  0.00000000000E+00 0.  1.
    9000007    1    1    2  501    0  0.16926495219E+00  0.23054057816E+03  0.59724766297E+03  0.75488658602E+03  0.40000000000E+03 0. -1.
   -9000007    1    1    2    0  503 -0.16926495219E+00 -0.23054057816E+03  0.35462053222E+03  0.58215522733E+03  0.40000000000E+03 0.  1.
<mgrwt>
<rscale>  2 0.46168061E+03</rscale>
<asrwt>0</asrwt>
<pdfrwt beam="1">  1       21 0.17607000E+00 0.46168061E+03</pdfrwt>
<pdfrwt beam="2">  1       21 0.29628741E-01 0.46168061E+03</pdfrwt>
<totfact> 0.17865469E+03</totfact>
</mgrwt>
</event>
<event>
 4    1  0.5003329E-002  0.4714455E+03  0.7818608E-02  0.1021513E+00
         21   -1    0    0  501  502  0.00000000000E+00  0.00000000000E+00  0.83890196637E+03  0.83890196637E+03  0.00000000000E+00 0. -1.
         21   -1    0    0  502  503 -0.00000000000E+00 -0.00000000000E+00 -0.52876325405E+03  0.52876325405E+03  0.00000000000E+00 0.  1.
    9000007    1    1    2  501    0 -0.19039212548E+03  0.16128149565E+03  0.63809874639E+03  0.79336680825E+03  0.40000000000E+03 0. -1.
   -9000007    1    1    2    0  503  0.19039212548E+03 -0.16128149565E+03 -0.32796003407E+03  0.57429841218E+03  0.40000000000E+03 0.  1.
<mgrwt>
<rscale>  2 0.47144552E+03</rscale>
<asrwt>0</asrwt>
<pdfrwt beam="1">  1       21 0.12906184E+00 0.47144552E+03</pdfrwt>
<pdfrwt beam="2">  1       21 0.81348193E-01 0.47144552E+03</pdfrwt>
<totfact> 0.48213632E+02</totfact>
</mgrwt>
</event>
<event>
 4    1  0.5003329E-002  0.4724364E+03  0.7818608E-02  0.1021235E+00
         21   -1    0    0  503  502  0.00000000000E+00  0.00000000000E+00  0.13928024410E+04  0.13928024410E+04  0.00000000000E+00 0. -1.
         21   -1    0    0  501  503 -0.00000000000E+00 -0.00000000000E+00 -0.17030865673E+03  0.17030865673E+03  0.00000000000E+00 0. -1.
    9000007    1    1    2  501    0 -0.48189004249E+02 -0.24672647447E+03  0.80118783033E+03  0.93010648466E+03  0.40000000000E+03 0.  1.
   -9000007    1    1    2    0  502  0.48189004249E+02  0.24672647447E+03  0.42130595393E+03  0.63300461306E+03  0.40000000000E+03 0.  1.
<mgrwt>
<rscale>  2 0.47243638E+03</rscale>
<asrwt>0</asrwt>
<pdfrwt beam="1">  1       21 0.21427729E+00 0.47243638E+03</pdfrwt>
<pdfrwt beam="2">  1       21 0.26201333E-01 0.47243638E+03</pdfrwt>
<totfact> 0.12483890E+03</totfact>
</mgrwt>
</event>
<event>
 4    1  0.5003329E-002  0.9590877E+03  0.7818608E-02  0.9354591E-01
         21   -1    0    0  503  502  0.00000000000E+00  0.00000000000E+00  0.41750894742E+03  0.41750894742E+03  0.00000000000E+00 0. -1.
         21   -1    0    0  501  503 -0.00000000000E+00 -0.00000000000E+00 -0.23304851618E+04  0.23304851618E+04  0.00000000000E+00 0. -1.
    9000007    1    1    2  501    0  0.82048138565E+03 -0.29437981878E+03 -0.63536008447E+03  0.11504484425E+04  0.40000000000E+03 0. -1.
   -9000007    1    1    2    0  502 -0.82048138565E+03  0.29437981878E+03 -0.12776161300E+04  0.15975456668E+04  0.40000000000E+03 0. -1.
<mgrwt>
<rscale>  2 0.95908768E+03</rscale>
<asrwt>0</asrwt>
<pdfrwt beam="1">  1       21 0.64232148E-01 0.95908768E+03</pdfrwt>
<pdfrwt beam="2">  1       21 0.35853617E+00 0.95908768E+03</pdfrwt>
<totfact> 0.20160909E+01</totfact>
</mgrwt>
</event>
<event>
 4    1  0.5003329E-002  0.4207891E+03  0.7818608E-02  0.1036810E+00
         21   -1    0    0  503  502  0.00000000000E+00  0.00000000000E+00  0.91896723243E+03  0.91896723243E+03  0.00000000000E+00 0. -1.
         21   -1    0    0  501  503 -0.00000000000E+00 -0.00000000000E+00 -0.19752263050E+03  0.19752263050E+03  0.00000000000E+00 0. -1.
    9000007    1    1    2  501    0  0.49300650882E+02 -0.12096672819E+03  0.27328265833E+03  0.50174387376E+03  0.40000000000E+03 0. -1.
   -9000007    1    1    2    0  502 -0.49300650882E+02  0.12096672819E+03  0.44816194361E+03  0.61474598917E+03  0.40000000000E+03 0. -1.
<mgrwt>
<rscale>  2 0.42078914E+03</rscale>
<asrwt>0</asrwt>
<pdfrwt beam="1">  1       21 0.14137957E+00 0.42078914E+03</pdfrwt>
<pdfrwt beam="2">  1       21 0.30388098E-01 0.42078914E+03</pdfrwt>
<totfact> 0.31714865E+03</totfact>
</mgrwt>
</event>
<event>
 4    1  0.5003329E-002  0.8377189E+03  0.7818608E-02  0.9506970E-01
         21   -1    0    0  501  502  0.00000000000E+00  0.00000000000E+00  0.87693327318E+03  0.87693327318E+03  0.00000000000E+00 0. -1.
         21   -1    0    0  502  503 -0.00000000000E+00 -0.00000000000E+00 -0.80302224055E+03  0.80302224055E+03  0.00000000000E+00 0.  1.
    9000007    1    1    2  501    0  0.38290494141E+03  0.62861494894E+03  0.86237101881E+02  0.84214594099E+03  0.40000000000E+03 0.  1.
   -9000007    1    1    2    0  503 -0.38290494141E+03 -0.62861494894E+03 -0.12326069249E+02  0.83780957274E+03  0.40000000000E+03 0. -1.
<mgrwt>
<rscale>  2 0.83771890E+03</rscale>
<asrwt>0</asrwt>
<pdfrwt beam="1">  1       21 0.13491281E+00 0.83771890E+03</pdfrwt>
<pdfrwt beam="2">  1       21 0.12354188E+00 0.83771890E+03</pdfrwt>
<totfact> 0.13601948E+02</totfact>
</mgrwt>
</event>
<event>
 4    1  0.5003329E-002  0.4390675E+03  0.7818608E-02  0.1031033E+00
         21   -1    0    0  503  502  0.00000000000E+00  0.00000000000E+00  0.36157297962E+03  0.36157297962E+03  0.00000000000E+00 0.  1.
         21   -1    0    0  501  503 -0.00000000000E+00 -0.00000000000E+00 -0.78423705608E+03  0.78423705608E+03  0.00000000000E+00 0.  1.
    9000007    1    1    2  501    0  0.11420454540E+03  0.14049065303E+03 -0.53548707045E+03  0.69247866711E+03  0.40000000000E+03 0.  1.
   -9000007    1    1    2    0  502 -0.11420454540E+03 -0.14049065303E+03  0.11282299399E+03  0.45333136859E+03  0.40000000000E+03 0.  1.
<mgrwt>
<rscale>  2 0.43906754E+03</rscale>
<asrwt>0</asrwt>
<pdfrwt beam="1">  1       21 0.55626612E-01 0.43906754E+03</pdfrwt>
<pdfrwt beam="2">  1       21 0.12065186E+00 0.43906754E+03</pdfrwt>
<totfact> 0.13609158E+03</totfact>
</mgrwt>
</event>
<event>
 4    1  0.5003329E-002  0.4295785E+03  0.7818608E-02  0.1033993E+00
         21   -1    0    0  501  502  0.00000000000E+00  0.00000000000E+00  0.95766640425E+03  0.95766640425E+03  0.00000000000E+00 0. -1.
         21   -1    0    0  502  503 -0.00000000000E+00 -0.00000000000E+00 -0.19880280216E+03  0.19880280216E+03  0.00000000000E+00 0. -1.
    9000007    1    1    2  501    0  0.12328403499E+03 -0.96637061528E+02  0.48078322234E+03  0.64474039879E+03  0.40000000000E+03 0. -1.
   -9000007    1    1    2    0  503 -0.12328403499E+03  0.96637061528E+02  0.27808037975E+03  0.51172880762E+03  0.40000000000E+03 0. -1.
<mgrwt>
<rscale>  2 0.42957849E+03</rscale>
<asrwt>0</asrwt>
<pdfrwt beam="1">  1       21 0.14733329E+00 0.42957849E+03</pdfrwt>
<pdfrwt beam="2">  1       21 0.30585047E-01 0.42957849E+03</pdfrwt>
<totfact> 0.27935828E+03</totfact>
</mgrwt>
</event>
<event>
 4    1  0.5003329E-002  0.4457583E+03  0.7818608E-02  0.1028995E+00
         21   -1    0    0  503  502  0.00000000000E+00  0.00000000000E+00  0.40018834859E+03  0.40018834859E+03  0.00000000000E+00 0.  1.
         21   -1    0    0  501  503 -0.00000000000E+00 -0.00000000000E+00 -0.12908163763E+04  0.12908163763E+04  0.00000000000E+00 0.  1.
    9000007    1    1    2  501    0  0.15719561855E+02  0.19609519383E+03 -0.11085599945E+04  0.11948245441E+04  0.40000000000E+03 0.  1.
   -9000007    1    1    2    0  502 -0.15719561855E+02 -0.19609519383E+03  0.21793196681E+03  0.49618018081E+03  0.40000000000E+03 0.  1.
<mgrwt>
<rscale>  2 0.44575826E+03</rscale>
<asrwt>0</asrwt>
<pdfrwt beam="1">  1       21 0.61567439E-01 0.44575826E+03</pdfrwt>
<pdfrwt beam="2">  1       21 0.19858713E+00 0.44575826E+03</pdfrwt>
<totfact> 0.27412449E+02</totfact>
</mgrwt>
</event>
<event>
 4    1  0.5003329E-002  0.5405446E+03  0.7818608E-02  0.1003706E+00
         21   -1    0    0  501  502  0.00000000000E+00  0.00000000000E+00  0.77233408741E+03  0.77233408741E+03  0.00000000000E+00 0.  1.
         21   -1    0    0  502  503 -0.00000000000E+00 -0.00000000000E+00 -0.42403406218E+03  0.42403406218E+03  0.00000000000E+00 0. -1.
    9000007    1    1    2  501    0  0.36357174581E+03  0.20061946131E+01  0.37056086836E+03  0.65536539146E+03  0.40000000000E+03 0. -1.
   -9000007    1    1    2    0  503 -0.36357174581E+03 -0.20061946131E+01 -0.22260843131E+02  0.54100275813E+03  0.40000000000E+03 0.  1.
<mgrwt>
<rscale>  2 0.54054458E+03</rscale>
<asrwt>0</asrwt>
<pdfrwt beam="1">  1       21 0.11882063E+00 0.54054458E+03</pdfrwt>
<pdfrwt beam="2">  1       21 0.65236010E-01 0.54054458E+03</pdfrwt>
<totfact> 0.95974762E+02</totfact>
</mgrwt>
</event>
<event>
 4    1  0.5003329E-002  0.6195072E+03  0.7818608E-02  0.9865741E-01
         21   -1    0    0  501  502  0.00000000000E+00  0.00000000000E+00  0.66820198927E+03  0.66820198927E+03  0.00000000000E+00 0. -1.
         21   -1    0    0  502  503 -0.00000000000E+00 -0.00000000000E+00 -0.15938111791E+04  0.15938111791E+04  0.00000000000E+00 0. -1.
    9000007    1    1    2  501    0  0.41372815877E+03  0.22938651243E+03  0.44173941613E+03  0.76086981357E+03  0.40000000000E+03 0. -1.
   -9000007    1    1    2    0  503 -0.41372815877E+03 -0.22938651243E+03 -0.13673486060E+04  0.15011433548E+04  0.40000000000E+03 0. -1.
<mgrwt>
<rscale>  2 0.61950719E+03</rscale>
<asrwt>0</asrwt>
<pdfrwt beam="1">  1       21 0.10280031E+00 0.61950719E+03</pdfrwt>
<pdfrwt beam="2">  1       21 0.24520172E+00 0.61950719E+03</pdfrwt>
<totfact> 0.38350401E+01</totfact>
</mgrwt>
</event>
<event>
 4    1  0.5003329E-002  0.4203500E+03  0.7818608E-02  0.1036952E+00
         21   -1    0    0  503  502  0.00000000000E+00  0.00000000000E+00  0.26022055236E+03  0.26022055236E+03  0.00000000000E+00 0. -1.
         21   -1    0    0  501  503 -0.00000000000E+00 -0.00000000000E+00 -0.12355071393E+04  0.12355071393E+04  0.00000000000E+00 0. -1.
    9000007    1    1    2  501    0  0.65821617099E+02  0.11118276270E+03 -0.98955667625E+03  0.10751355763E+04  0.40000000000E+03 0. -1.
   -9000007    1    1    2    0  502 -0.65821617099E+02 -0.11118276270E+03  0.14270089331E+02  0.42059211529E+03  0.40000000000E+03 0. -1.
<mgrwt>
<rscale>  2 0.42034996E+03</rscale>
<asrwt>0</asrwt>
<pdfrwt beam="1">  1       21 0.40033932E-01 0.42034996E+03</pdfrwt>
<pdfrwt beam="2">  1       21 0.19007802E+00 0.42034996E+03</pdfrwt>
<totfact> 0.79128926E+02</totfact>
</mgrwt>
</event>
<event>
 4    1  0.5003329E-002  0.5036868E+03  0.7818608E-02  0.1012821E+00
         21   -1    0    0  501  502  0.00000000000E+00  0.00000000000E+00  0.87257105388E+03  0.87257105388E+03  0.00000000000E+00 0.  1.
         21   -1    0    0  502  503 -0.00000000000E+00 -0.00000000000E+00 -0.29633084154E+03  0.29633084154E+03  0.00000000000E+00 0. -1.
    9000007    1    1    2  501    0  0.27015573518E+03  0.14393138706E+03  0.20791635109E+03  0.54491244662E+03  0.40000000000E+03 0. -1.
   -9000007    1    1    2    0  503 -0.27015573518E+03 -0.14393138706E+03  0.36832386125E+03  0.62398944879E+03  0.40000000000E+03 0.  1.
<mgrwt>
<rscale>  2 0.50368677E+03</rscale>
<asrwt>0</asrwt>
<pdfrwt beam="1">  1       21 0.13424170E+00 0.50368677E+03</pdfrwt>
<pdfrwt beam="2">  1       21 0.45589361E-01 0.50368677E+03</pdfrwt>
<totfact> 0.15397015E+03</totfact>
</mgrwt>
</event>
<event>
 4    1  0.5003329E-002  0.5587840E+03  0.7818608E-02  0.9994810E-01
         21   -1    0    0  503  502  0.00000000000E+00  0.00000000000E+00  0.48562948600E+03  0.48562948600E+03  0.00000000000E+00 0. -1.
         21   -1    0    0  501  503 -0.00000000000E+00 -0.00000000000E+00 -0.14303297296E+04  0.14303297296E+04  0.00000000000E+00 0. -1.
    9000007    1    1    2  501    0 -0.28310695242E+03  0.26849582355E+03 -0.11831183104E+04  0.13084374231E+04  0.40000000000E+03 0. -1.
   -9000007    1    1    2    0  502  0.28310695242E+03 -0.26849582355E+03  0.23841806681E+03  0.60752179249E+03  0.40000000000E+03 0. -1.
<mgrwt>
<rscale>  2 0.55878400E+03</rscale>
<asrwt>0</asrwt>
<pdfrwt beam="1">  1       21 0.74712230E-01 0.55878400E+03</pdfrwt>
<pdfrwt beam="2">  1       21 0.22005072E+00 0.55878400E+03</pdfrwt>
<totfact> 0.12146154E+02</totfact>
</mgrwt>
</event>
<event>
 4    1  0.5003329E-002  0.5150628E+03  0.7818608E-02  0.1009920E+00
         21   -1    0    0  503  502  0.00000000000E+00  0.00000000000E+00  0.38093801101E+03  0.38093801101E+03  0.00000000000E+00 0.  1.
         21   -1    0    0  501  503 -0.00000000000E+00 -0.00000000000E+00 -0.70074076702E+03  0.70074076702E+03  0.00000000000E+00 0.  1.
    9000007    1    1    2  501    0 -0.32028219602E+03 -0.52048409895E+02 -0.11739224280E+03  0.52827138928E+03  0.40000000000E+03 0.  1.
   -9000007    1    1    2    0  502  0.32028219602E+03  0.52048409895E+02 -0.20241051321E+03  0.55340738875E+03  0.40000000000E+03 0.  1.
<mgrwt>
<rscale>  2 0.51506283E+03</rscale>
<asrwt>0</asrwt>
<pdfrwt beam="1">  1       21 0.58605849E-01 0.51506283E+03</pdfrwt>
<pdfrwt beam="2">  1       21 0.10780627E+00 0.51506283E+03</pdfrwt>
<totfact> 0.15656902E+03</totfact>
</mgrwt>
</event>
<event>
 4    1  0.5003329E-002  0.5401174E+03  0.7818608E-02  0.1003808E+00
         21   -1    0    0  501  502  0.00000000000E+00  0.00000000000E+00  0.23410741905E+03  0.23410741905E+03  0.00000000000E+00 0. -1.
         21   -1    0    0  502  503 -0.00000000000E+00 -0.00000000000E+00 -0.12926826599E+04  0.12926826599E+04  0.00000000000E+00 0.  1.
    9000007    1    1    2  501    0  0.24171279162E+03  0.27074301784E+03 -0.38440911118E+03  0.66294586514E+03  0.40000000000E+03 0. -1.
   -9000007    1    1    2    0  503 -0.24171279162E+03 -0.27074301784E+03 -0.67416612962E+03  0.86384421377E+03  0.40000000000E+03 0.  1.
<mgrwt>
<rscale>  2 0.54011745E+03</rscale>
<asrwt>0</asrwt>
<pdfrwt beam="1">  1       21 0.36016526E-01 0.54011745E+03</pdfrwt>
<pdfrwt beam="2">  1       21 0.19887425E+00 0.54011745E+03</pdfrwt>
<totfact> 0.81290014E+02</totfact>
</mgrwt>
</event>
<event>
 4    1  0.5003329E-002  0.4759882E+03  0.7818608E-02  0.1020244E+00
         21   -1    0    0  501  502  0.00000000000E+00  0.00000000000E+00  0.27827521159E+03  0.27827521159E+03  0.00000000000E+00 0.  1.
         21   -1    0    0  502  503 -0.00000000000E+00 -0.00000000000E+00 -0.90428784068E+03  0.90428784068E+03  0.00000000000E+00 0. -1.
    9000007    1    1    2  501    0  0.17429401892E+03 -0.19022714362E+03 -0.12635379148E+03  0.49247340215E+03  0.40000000000E+03 0.  1.
   -9000007    1    1    2    0  503 -0.17429401892E+03  0.19022714362E+03 -0.49965883761E+03  0.69008965012E+03  0.40000000000E+03 0. -1.
<mgrwt>
<rscale>  2 0.47598820E+03</rscale>
<asrwt>0</asrwt>
<pdfrwt beam="1">  1       21 0.42811571E-01 0.47598820E+03</pdfrwt>
<pdfrwt beam="2">  1       21 0.13912121E+00 0.47598820E+03</pdfrwt>
<totfact> 0.16145098E+03</totfact>
</mgrwt>
</event>
<event>
 4    1  0.5003329E-002  0.4731114E+03  0.7818608E-02  0.1021046E+00
         21   -1    0    0  503  502  0.00000000000E+00  0.00000000000E+00  0.43662844264E+03  0.43662844264E+03  0.00000000000E+00 0. -1.
         21   -1    0    0  501  503 -0.00000000000E+00 -0.00000000000E+00 -0.52416837097E+03  0.52416837097E+03  0.00000000000E+00 0. -1.
    9000007    1    1    2  501    0  0.18343696421E+03 -0.17373902889E+03 -0.11500601809E+03  0.48688885199E+03  0.40000000000E+03 0. -1.
   -9000007    1    1    2    0  502 -0.18343696421E+03  0.17373902889E+03  0.27466089759E+02  0.47390796162E+03  0.40000000000E+03 0. -1.
<mgrwt>
<rscale>  2 0.47311137E+03</rscale>
<asrwt>0</asrwt>
<pdfrwt beam="1">  1       21 0.67173607E-01 0.47311137E+03</pdfrwt>
<pdfrwt beam="2">  1       21 0.80641288E-01 0.47311137E+03</pdfrwt>
<totfact> 0.23547750E+03</totfact>
</mgrwt>
</event>
<event>
 4    1  0.5003329E-002  0.4247692E+03  0.7818608E-02  0.1035525E+00
         21   -1    0    0  503  502  0.00000000000E+00  0.00000000000E+00  0.93816872826E+03  0.93816872826E+03  0.00000000000E+00 0. -1.
         21   -1    0    0  501  503 -0.00000000000E+00 -0.00000000000E+00 -0.23165383108E+03  0.23165383108E+03  0.00000000000E+00 0. -1.
    9000007    1    1    2  501    0  0.70697798088E+02 -0.12422042221E+03  0.11223820613E+03  0.43934759230E+03  0.40000000000E+03 0. -1.
   -9000007    1    1    2    0  502 -0.70697798088E+02  0.12422042221E+03  0.59427669104E+03  0.73047496704E+03  0.40000000000E+03 0. -1.
<mgrwt>
<rscale>  2 0.42476922E+03</rscale>
<asrwt>0</asrwt>
<pdfrwt beam="1">  1       21 0.14433365E+00 0.42476922E+03</pdfrwt>
<pdfrwt beam="2">  1       21 0.35639052E-01 0.42476922E+03</pdfrwt>
<totfact> 0.21761987E+03</totfact>
</mgrwt>
</event>
<event>
 4    1  0.5003329E-002  0.4275262E+03  0.7818608E-02  0.1034644E+00
         21   -1    0    0  501  502  0.00000000000E+00  0.00000000000E+00  0.75187562252E+03  0.75187562252E+03  0.00000000000E+00 0.  1.
         21   -1    0    0  502  503 -0.00000000000E+00 -0.00000000000E+00 -0.32298498078E+03  0.32298498078E+03  0.00000000000E+00 0.  1.
    9000007    1    1    2  501    0  0.34871770641E+02  0.14684206422E+03 -0.52838076241E+02  0.43077893926E+03  0.40000000000E+03 0.  1.
   -9000007    1    1    2    0  503 -0.34871770641E+02 -0.14684206422E+03  0.48172871798E+03  0.64408166403E+03  0.40000000000E+03 0.  1.
<mgrwt>
<rscale>  2 0.42752618E+03</rscale>
<asrwt>0</asrwt>
<pdfrwt beam="1">  1       21 0.11567317E+00 0.42752618E+03</pdfrwt>
<pdfrwt beam="2">  1       21 0.49689997E-01 0.42752618E+03</pdfrwt>
<totfact> 0.19365174E+03</totfact>
</mgrwt>
</event>
<event>
 4    1  0.5003329E-002  0.4538073E+03  0.7818608E-02  0.1026593E+00
         21   -1    0    0  503  502  0.00000000000E+00  0.00000000000E+00  0.52943679358E+03  0.52943679358E+03  0.00000000000E+00 0.  1.
         21   -1    0    0  501  503 -0.00000000000E+00 -0.00000000000E+00 -0.10888147641E+04  0.10888147641E+04  0.00000000000E+00 0.  1.
    9000007    1    1    2  501    0 -0.14335829256E+03  0.15934062789E+03 -0.92837775056E+03  0.10333568036E+04  0.40000000000E+03 0.  1.
   -9000007    1    1    2    0  502  0.14335829256E+03 -0.15934062789E+03  0.36899978003E+03  0.58489475412E+03  0.40000000000E+03 0.  1.
<mgrwt>
<rscale>  2 0.45380727E+03</rscale>
<asrwt>0</asrwt>
<pdfrwt beam="1">  1       21 0.81451815E-01 0.45380727E+03</pdfrwt>
<pdfrwt beam="2">  1       21 0.16750996E+00 0.45380727E+03</pdfrwt>
<totfact> 0.23936122E+02</totfact>
</mgrwt>
</event>
<event>
 4    1  0.5003329E-002  0.4588958E+03  0.7818608E-02  0.1025102E+00
         21   -1    0    0  503  502  0.00000000000E+00  0.00000000000E+00  0.17155661581E+03  0.17155661581E+03  0.00000000000E+00 0. -1.
         21   -1    0    0  501  503 -0.00000000000E+00 -0.00000000000E+00 -0.30493418145E+04  0.30493418145E+04  0.00000000000E+00 0. -1.
    9000007    1    1    2  501    0 -0.10898402353E+02  0.22464764378E+03 -0.26836926435E+04  0.27226442191E+04  0.40000000000E+03 0. -1.
   -9000007    1    1    2    0  502  0.10898402353E+02 -0.22464764378E+03 -0.19409255522E+03  0.49825421125E+03  0.40000000000E+03 0. -1.
<mgrwt>
<rscale>  2 0.45889578E+03</rscale>
<asrwt>0</asrwt>
<pdfrwt beam="1">  1       21 0.26393328E-01 0.45889578E+03</pdfrwt>
<pdfrwt beam="2">  1       21 0.46912947E+00 0.45889578E+03</pdfrwt>
<totfact> 0.30768743E+01</totfact>
</mgrwt>
</event>
<event>
 4    1  0.5003329E-002  0.4537842E+03  0.7818608E-02  0.1026600E+00
         21   -1    0    0  501  502  0.00000000000E+00  0.00000000000E+00  0.59341859378E+03  0.59341859378E+03  0.00000000000E+00 0.  1.
         21   -1    0    0  502  503 -0.00000000000E+00 -0.00000000000E+00 -0.41440796248E+03  0.41440796248E+03  0.00000000000E+00 0.  1.
    9000007    1    1    2  501    0  0.16374060091E+03 -0.13823561432E+03  0.29273008185E+03  0.54001015756E+03  0.40000000000E+03 0.  1.
   -9000007    1    1    2    0  503 -0.16374060091E+03  0.13823561432E+03 -0.11371945054E+03  0.46781639869E+03  0.40000000000E+03 0.  1.
<mgrwt>
<rscale>  2 0.45378417E+03</rscale>
<asrwt>0</asrwt>
<pdfrwt beam="1">  1       21 0.91295169E-01 0.45378417E+03</pdfrwt>
<pdfrwt beam="2">  1       21 0.63755071E-01 0.45378417E+03</pdfrwt>
<totfact> 0.19908695E+03</totfact>
</mgrwt>
</event>
<event>
 4    1  0.5003329E-002  0.5027519E+03  0.7818608E-02  0.1013063E+00
         21   -1    0    0  501  502  0.00000000000E+00  0.00000000000E+00  0.40825430076E+03  0.40825430076E+03  0.00000000000E+00 0. -1.
         21   -1    0    0  502  503 -0.00000000000E+00 -0.00000000000E+00 -0.72746683349E+03  0.72746683349E+03  0.00000000000E+00 0. -1.
    9000007    1    1    2  501    0  0.21802491089E+01  0.30455652981E+03 -0.37875459605E+03  0.62945569928E+03  0.40000000000E+03 0. -1.
   -9000007    1    1    2    0  503 -0.21802491089E+01 -0.30455652981E+03  0.59542063318E+02  0.50626543496E+03  0.40000000000E+03 0. -1.
<mgrwt>
<rscale>  2 0.50275186E+03</rscale>
<asrwt>0</asrwt>
<pdfrwt beam="1">  1       21 0.62808354E-01 0.50275186E+03</pdfrwt>
<pdfrwt beam="2">  1       21 0.11191797E+00 0.50275186E+03</pdfrwt>
<totfact> 0.12298547E+03</totfact>
</mgrwt>
</event>
<event>
 4    1  0.5003329E-002  0.4277617E+03  0.7818608E-02  0.1034569E+00
         21   -1    0    0  503  502  0.00000000000E+00  0.00000000000E+00  0.12920421328E+04  0.12920421328E+04  0.00000000000E+00 0.  1.
         21   -1    0    0  501  503 -0.00000000000E+00 -0.00000000000E+00 -0.19899492089E+03  0.19899492089E+03  0.00000000000E+00 0.  1.
    9000007    1    1    2  501    0 -0.15052836313E+03  0.17924647649E+02  0.94683260001E+03  0.10389764451E+04  0.40000000000E+03 0.  1.
   -9000007    1    1    2    0  502  0.15052836313E+03 -0.17924647649E+02  0.14621461193E+03  0.45206060859E+03  0.40000000000E+03 0.  1.
<mgrwt>
<rscale>  2 0.42776171E+03</rscale>
<asrwt>0</asrwt>
<pdfrwt beam="1">  1       21 0.19877571E+00 0.42776171E+03</pdfrwt>
<pdfrwt beam="2">  1       21 0.30614604E-01 0.42776171E+03</pdfrwt>
<totfact> 0.11847220E+03</totfact>
</mgrwt>
</event>
<event>
 4    1  0.5003329E-002  0.4685712E+03  0.7818608E-02  0.1022324E+00
         21   -1    0    0  501  502  0.00000000000E+00  0.00000000000E+00  0.22590511905E+03  0.22590511905E+03  0.00000000000E+00 0. -1.
         21   -1    0    0  502  503 -0.00000000000E+00 -0.00000000000E+00 -0.10480506479E+04  0.10480506479E+04  0.00000000000E+00 0. -1.
    9000007    1    1    2  501    0 -0.61858649274E+02  0.23607721415E+03 -0.58276388028E+03  0.74777849908E+03  0.40000000000E+03 0. -1.
   -9000007    1    1    2    0  503  0.61858649274E+02 -0.23607721415E+03 -0.23938164856E+03  0.52617726785E+03  0.40000000000E+03 0. -1.
<mgrwt>
<rscale>  2 0.46857117E+03</rscale>
<asrwt>0</asrwt>
<pdfrwt beam="1">  1       21 0.34754633E-01 0.46857117E+03</pdfrwt>
<pdfrwt beam="2">  1       21 0.16123856E+00 0.46857117E+03</pdfrwt>
<totfact> 0.16618521E+03</totfact>
</mgrwt>
</event>
<event>
 4    1  0.5003329E-002  0.6746763E+03  0.7818608E-02  0.9761547E-01
         21   -1    0    0  503  502  0.00000000000E+00  0.00000000000E+00  0.77299045693E+03  0.77299045693E+03  0.00000000000E+00 0. -1.
         21   -1    0    0  501  503 -0.00000000000E+00 -0.00000000000E+00 -0.59791552144E+03  0.59791552144E+03  0.00000000000E+00 0.  1.
    9000007    1    1    2  501    0  0.41504541286E+03 -0.35060718123E+03  0.32114663200E+01  0.67468392880E+03  0.40000000000E+03 0.  1.
   -9000007    1    1    2    0  502 -0.41504541286E+03  0.35060718123E+03  0.17186346917E+03  0.69622204957E+03  0.40000000000E+03 0. -1.
<mgrwt>
<rscale>  2 0.67467629E+03</rscale>
<asrwt>0</asrwt>
<pdfrwt beam="1">  1       21 0.11892161E+00 0.67467629E+03</pdfrwt>
<pdfrwt beam="2">  1       21 0.91987003E-01 0.67467629E+03</pdfrwt>
<totfact> 0.41430258E+02</totfact>
</mgrwt>
</event>
<event>
 4    1  0.5003329E-002  0.6836439E+03  0.7818608E-02  0.9745620E-01
         21   -1    0    0  503  502  0.00000000000E+00  0.00000000000E+00  0.60717866878E+03  0.60717866878E+03  0.00000000000E+00 0.  1.
         21   -1    0    0  501  503 -0.00000000000E+00 -0.00000000000E+00 -0.11330326042E+04  0.11330326042E+04  0.00000000000E+00 0. -1.
    9000007    1    1    2  501    0  0.54428531855E+03  0.10546282585E+03 -0.75562387619E+03  0.10189879086E+04  0.40000000000E+03 0. -1.
   -9000007    1    1    2    0  502 -0.54428531855E+03 -0.10546282585E+03  0.22976994076E+03  0.72122336437E+03  0.40000000000E+03 0.  1.
<mgrwt>
<rscale>  2 0.68364385E+03</rscale>
<asrwt>0</asrwt>
<pdfrwt beam="1">  1       21 0.93412103E-01 0.68364385E+03</pdfrwt>
<pdfrwt beam="2">  1       21 0.17431271E+00 0.68364385E+03</pdfrwt>
<totfact> 0.14038775E+02</totfact>
</mgrwt>
</event>
<event>
 4    1  0.5003329E-002  0.4873760E+03  0.7818608E-02  0.1017127E+00
         21   -1    0    0  503  502  0.00000000000E+00  0.00000000000E+00  0.26327872750E+04  0.26327872750E+04  0.00000000000E+00 0.  1.
         21   -1    0    0  501  503 -0.00000000000E+00 -0.00000000000E+00 -0.14560169824E+03  0.14560169824E+03  0.00000000000E+00 0. -1.
    9000007    1    1    2  501    0 -0.22605328747E+03  0.16258939755E+03  0.38684099366E+03  0.62223898572E+03  0.40000000000E+03 0. -1.
   -9000007    1    1    2    0  502  0.22605328747E+03 -0.16258939755E+03  0.21003445831E+04  0.21561499875E+04  0.40000000000E+03 0.  1.
<mgrwt>
<rscale>  2 0.48737604E+03</rscale>
<asrwt>0</asrwt>
<pdfrwt beam="1">  1       21 0.40504416E+00 0.48737604E+03</pdfrwt>
<pdfrwt beam="2">  1       21 0.22400263E-01 0.48737604E+03</pdfrwt>
<totfact> 0.11119218E+02</totfact>
</mgrwt>
</event>
<event>
 4    1  0.5003329E-002  0.5606021E+03  0.7818608E-02  0.9990693E-01
         21   -1    0    0  501  502  0.00000000000E+00  0.00000000000E+00  0.35490861670E+03  0.35490861670E+03  0.00000000000E+00 0.  1.
         21   -1    0    0  502  503 -0.00000000000E+00 -0.00000000000E+00 -0.15407247220E+04  0.15407247220E+04  0.00000000000E+00 0. -1.
    9000007    1    1    2  501    0  0.37106202218E+03  0.12879302668E+03  0.25185297146E+02  0.56116750371E+03  0.40000000000E+03 0.  1.
   -9000007    1    1    2    0  503 -0.37106202218E+03 -0.12879302668E+03 -0.12110014025E+04  0.13344658350E+04  0.40000000000E+03 0. -1.
<mgrwt>
<rscale>  2 0.56060206E+03</rscale>
<asrwt>0</asrwt>
<pdfrwt beam="1">  1       21 0.54601325E-01 0.56060206E+03</pdfrwt>
<pdfrwt beam="2">  1       21 0.23703457E+00 0.56060206E+03</pdfrwt>
<totfact> 0.19020308E+02</totfact>
</mgrwt>
</event>
<event>
 4    1  0.5003329E-002  0.4897257E+03  0.7818608E-02  0.1016496E+00
         21   -1    0    0  503  502  0.00000000000E+00  0.00000000000E+00  0.16128193635E+04  0.16128193635E+04  0.00000000000E+00 0. -1.
         21   -1    0    0  501  503 -0.00000000000E+00 -0.00000000000E+00 -0.64045267383E+03  0.64045267383E+03  0.00000000000E+00 0. -1.
    9000007    1    1    2  501    0  0.17063155518E+03 -0.22520236512E+03 -0.50103247868E+03  0.70061742597E+03  0.40000000000E+03 0. -1.
   -9000007    1    1    2    0  502 -0.17063155518E+03  0.22520236512E+03  0.14733991683E+04  0.15526546113E+04  0.40000000000E+03 0. -1.
<mgrwt>
<rscale>  2 0.48972567E+03</rscale>
<asrwt>0</asrwt>
<pdfrwt beam="1">  1       21 0.24812605E+00 0.48972567E+03</pdfrwt>
<pdfrwt beam="2">  1       21 0.98531181E-01 0.48972567E+03</pdfrwt>
<totfact> 0.43653107E+01</totfact>
</mgrwt>
</event>
<event>
 4    1  0.5003329E-002  0.4976880E+03  0.7818608E-02  0.1014384E+00
         21   -1    0    0  503  502  0.00000000000E+00  0.00000000000E+00  0.21905325956E+03  0.21905325956E+03  0.00000000000E+00 0. -1.
         21   -1    0    0  501  503 -0.00000000000E+00 -0.00000000000E+00 -0.11916417430E+04  0.11916417430E+04  0.00000000000E+00 0. -1.
    9000007    1    1    2  501    0  0.19421778707E+03 -0.22354591352E+03 -0.64574558607E+03  0.81527951415E+03  0.40000000000E+03 0. -1.
   -9000007    1    1    2    0  502 -0.19421778707E+03  0.22354591352E+03 -0.32684289734E+03  0.59541548839E+03  0.40000000000E+03 0. -1.
<mgrwt>
<rscale>  2 0.49768798E+03</rscale>
<asrwt>0</asrwt>
<pdfrwt beam="1">  1       21 0.33700501E-01 0.49768798E+03</pdfrwt>
<pdfrwt beam="2">  1       21 0.18332950E+00 0.49768798E+03</pdfrwt>
<totfact> 0.12089107E+03</totfact>
</mgrwt>
</event>
<event>
 4    1  0.5003329E-002  0.5558467E+03  0.7818608E-02  0.1000150E+00
         21   -1    0    0  503  502  0.00000000000E+00  0.00000000000E+00  0.77192929376E+03  0.77192929376E+03  0.00000000000E+00 0. -1.
         21   -1    0    0  501  503 -0.00000000000E+00 -0.00000000000E+00 -0.40048443771E+03  0.40048443771E+03  0.00000000000E+00 0.  1.
    9000007    1    1    2  501    0  0.17649755704E+03  0.34324064504E+03  0.17157179894E+03  0.58172365453E+03  0.40000000000E+03 0. -1.
   -9000007    1    1    2    0  502 -0.17649755704E+03 -0.34324064504E+03  0.19987305711E+03  0.59069007695E+03  0.40000000000E+03 0. -1.
<mgrwt>
<rscale>  2 0.55584668E+03</rscale>
<asrwt>0</asrwt>
<pdfrwt beam="1">  1       21 0.11875835E+00 0.55584668E+03</pdfrwt>
<pdfrwt beam="2">  1       21 0.61612991E-01 0.55584668E+03</pdfrwt>
<totfact> 0.10855626E+03</totfact>
</mgrwt>
</event>
<event>
 4    1  0.5003329E-002  0.4508532E+03  0.7818608E-02  0.1027468E+00
         21   -1    0    0  503  502  0.00000000000E+00  0.00000000000E+00  0.10130107332E+03  0.10130107332E+03  0.00000000000E+00 0.  1.
         21   -1    0    0  501  503 -0.00000000000E+00 -0.00000000000E+00 -0.20400186313E+04  0.20400186313E+04  0.00000000000E+00 0. -1.
    9000007    1    1    2  501    0  0.45597563606E+02  0.20295192568E+03 -0.83228190392E+03  0.94655258150E+03  0.40000000000E+03 0.  1.
   -9000007    1    1    2    0  502 -0.45597563606E+02 -0.20295192568E+03 -0.11064356541E+04  0.11947671232E+04  0.40000000000E+03 0. -1.
<mgrwt>
<rscale>  2 0.45085322E+03</rscale>
<asrwt>0</asrwt>
<pdfrwt beam="1">  1       21 0.15584782E-01 0.45085322E+03</pdfrwt>
<pdfrwt beam="2">  1       21 0.31384900E+00 0.45085322E+03</pdfrwt>
<totfact> 0.83217084E+02</totfact>
</mgrwt>
</event>
<event>
 4    1  0.5003329E-002  0.4336750E+03  0.7818608E-02  0.1032705E+00
         21   -1    0    0  501  502  0.00000000000E+00  0.00000000000E+00  0.73751024218E+03  0.73751024218E+03  0.00000000000E+00 0.  1.
         21   -1    0    0  502  503 -0.00000000000E+00 -0.00000000000E+00 -0.29417796979E+03  0.29417796979E+03  0.00000000000E+00 0.  1.
    9000007    1    1    2  501    0  0.16736508440E+03 -0.79347764503E+01  0.40988680551E+03  0.59672541884E+03  0.40000000000E+03 0.  1.
   -9000007    1    1    2    0  503 -0.16736508440E+03  0.79347764503E+01  0.33445466870E+02  0.43496279313E+03  0.40000000000E+03 0.  1.
<mgrwt>
<rscale>  2 0.43367503E+03</rscale>
<asrwt>0</asrwt>
<pdfrwt beam="1">  1       21 0.11346311E+00 0.43367503E+03</pdfrwt>
<pdfrwt beam="2">  1       21 0.45258149E-01 0.43367503E+03</pdfrwt>
<totfact> 0.24685268E+03</totfact>
</mgrwt>
</event>
<event>
 4    1  0.5003329E-002  0.6711100E+03  0.7818608E-02  0.9767955E-01
         21   -1    0    0  503  502  0.00000000000E+00  0.00000000000E+00  0.24133604993E+03  0.24133604993E+03  0.00000000000E+00 0.  1.
         21   -1    0    0  501  503 -0.00000000000E+00 -0.00000000000E+00 -0.20403455358E+04  0.20403455358E+04  0.00000000000E+00 0.  1.
    9000007    1    1    2  501    0  0.28103669411E+03 -0.45979018330E+03 -0.56623826302E+03  0.87807426030E+03  0.40000000000E+03 0.  1.
   -9000007    1    1    2    0  502 -0.28103669411E+03  0.45979018330E+03 -0.12327712228E+04  0.14036073254E+04  0.40000000000E+03 0.  1.
<mgrwt>
<rscale>  2 0.67111000E+03</rscale>
<asrwt>0</asrwt>
<pdfrwt beam="1">  1       21 0.37128625E-01 0.67111000E+03</pdfrwt>
<pdfrwt beam="2">  1       21 0.31389930E+00 0.67111000E+03</pdfrwt>
<totfact> 0.13779150E+02</totfact>
</mgrwt>
</event>
<event>
 4    1  0.5003329E-002  0.4001452E+03  0.7818608E-02  0.1043729E+00
         21   -1    0    0  501  502  0.00000000000E+00  0.00000000000E+00  0.12179205761E+04  0.12179205761E+04  0.00000000000E+00 0.  1.
         21   -1    0    0  502  503 -0.00000000000E+00 -0.00000000000E+00 -0.13659554810E+03  0.13659554810E+03  0.00000000000E+00 0.  1.
    9000007    1    1    2  501    0 -0.97803412402E+00 -0.10735491024E+02  0.67189416344E+03  0.78202172232E+03  0.40000000000E+03 0.  1.
   -9000007    1    1    2    0  503  0.97803412402E+00  0.10735491024E+02  0.40943086455E+03  0.57249440187E+03  0.40000000000E+03 0.  1.
<mgrwt>
<rscale>  2 0.40014523E+03</rscale>
<asrwt>0</asrwt>
<pdfrwt beam="1">  1       21 0.18737239E+00 0.40014523E+03</pdfrwt>
<pdfrwt beam="2">  1       21 0.21014700E-01 0.40014523E+03</pdfrwt>
<totfact> 0.29815951E+03</totfact>
</mgrwt>
</event>
<event>
 4    1  0.5003329E-002  0.4350463E+03  0.7818608E-02  0.1032278E+00
         21   -1    0    0  503  502  0.00000000000E+00  0.00000000000E+00  0.32975059044E+03  0.32975059044E+03  0.00000000000E+00 0. -1.
         21   -1    0    0  501  503 -0.00000000000E+00 -0.00000000000E+00 -0.10937650858E+04  0.10937650858E+04  0.00000000000E+00 0. -1.
    9000007    1    1    2  501    0 -0.59192144860E+02  0.16050419173E+03 -0.87267599151E+03  0.97510445170E+03  0.40000000000E+03 0. -1.
   -9000007    1    1    2    0  502  0.59192144860E+02 -0.16050419173E+03  0.10866149612E+03  0.44841122456E+03  0.40000000000E+03 0. -1.
<mgrwt>
<rscale>  2 0.43504633E+03</rscale>
<asrwt>0</asrwt>
<pdfrwt beam="1">  1       21 0.50730860E-01 0.43504633E+03</pdfrwt>
<pdfrwt beam="2">  1       21 0.16827155E+00 0.43504633E+03</pdfrwt>
<totfact> 0.68208987E+02</totfact>
</mgrwt>
</event>
<event>
 4    1  0.5003329E-002  0.4269245E+03  0.7818608E-02  0.1034836E+00
         21   -1    0    0  501  502  0.00000000000E+00  0.00000000000E+00  0.38272610054E+03  0.38272610054E+03  0.00000000000E+00 0.  1.
         21   -1    0    0  502  503 -0.00000000000E+00 -0.00000000000E+00 -0.61233276075E+03  0.61233276075E+03  0.00000000000E+00 0. -1.
    9000007    1    1    2  501    0 -0.14617266453E+03 -0.29968084605E+02  0.11976163802E+03  0.44340431199E+03  0.40000000000E+03 0.  1.
   -9000007    1    1    2    0  503  0.14617266453E+03  0.29968084605E+02 -0.34936829824E+03  0.55165454930E+03  0.40000000000E+03 0. -1.
<mgrwt>
<rscale>  2 0.42692451E+03</rscale>
<asrwt>0</asrwt>
<pdfrwt beam="1">  1       21 0.58880939E-01 0.42692451E+03</pdfrwt>
<pdfrwt beam="2">  1       21 0.94205040E-01 0.42692451E+03</pdfrwt>
<totfact> 0.22231406E+03</totfact>
</mgrwt>
</event>
<event>
 4    1  0.5003329E-002  0.5336358E+03  0.7818608E-02  0.1005354E+00
         21   -1    0    0  501  502  0.00000000000E+00  0.00000000000E+00  0.23770328301E+03  0.23770328301E+03  0.00000000000E+00 0. -1.
         21   -1    0    0  502  503 -0.00000000000E+00 -0.00000000000E+00 -0.13607201604E+04  0.13607201604E+04  0.00000000000E+00 0.  1.
    9000007    1    1    2  501    0  0.34060408778E+03 -0.93573375966E+02 -0.28512880140E+03  0.60503351534E+03  0.40000000000E+03 0. -1.
   -9000007    1    1    2    0  503 -0.34060408778E+03  0.93573375966E+02 -0.83788807600E+03  0.99338992808E+03  0.40000000000E+03 0.  1.
<mgrwt>
<rscale>  2 0.53363576E+03</rscale>
<asrwt>0</asrwt>
<pdfrwt beam="1">  1       21 0.36569735E-01 0.53363576E+03</pdfrwt>
<pdfrwt beam="2">  1       21 0.20934157E+00 0.53363576E+03</pdfrwt>
<totfact> 0.67298335E+02</totfact>
</mgrwt>
</event>
<event>
 4    1  0.5003329E-002  0.4049706E+03  0.7818608E-02  0.1042072E+00
         21   -1    0    0  501  502  0.00000000000E+00  0.00000000000E+00  0.30404315050E+03  0.30404315050E+03  0.00000000000E+00 0. -1.
         21   -1    0    0  502  503 -0.00000000000E+00 -0.00000000000E+00 -0.56066332890E+03  0.56066332890E+03  0.00000000000E+00 0. -1.
    9000007    1    1    2  501    0 -0.63734321680E+01  0.62933198360E+02 -0.44113966034E+02  0.40736623583E+03  0.40000000000E+03 0. -1.
   -9000007    1    1    2    0  503  0.63734321680E+01 -0.62933198360E+02 -0.21250621237E+03  0.45734024357E+03  0.40000000000E+03 0. -1.
<mgrwt>
<rscale>  2 0.40497063E+03</rscale>
<asrwt>0</asrwt>
<pdfrwt beam="1">  1       21 0.46775870E-01 0.40497063E+03</pdfrwt>
<pdfrwt beam="2">  1       21 0.86255895E-01 0.40497063E+03</pdfrwt>
<totfact> 0.45190770E+03</totfact>
</mgrwt>
</event>
<event>
 4    1  0.5003329E-002  0.5699680E+03  0.7818608E-02  0.9969749E-01
         21   -1    0    0  503  502  0.00000000000E+00  0.00000000000E+00  0.75611388614E+03  0.75611388614E+03  0.00000000000E+00 0.  1.
         21   -1    0    0  501  503 -0.00000000000E+00 -0.00000000000E+00 -0.55944636296E+03  0.55944636296E+03  0.00000000000E+00 0.  1.
    9000007    1    1    2  501    0  0.35316078734E+03  0.20035207753E+03 -0.21850231542E+03  0.61041523452E+03  0.40000000000E+03 0.  1.
   -9000007    1    1    2    0  502 -0.35316078734E+03 -0.20035207753E+03  0.41516983860E+03  0.70514501457E+03  0.40000000000E+03 0.  1.
<mgrwt>
<rscale>  2 0.56996798E+03</rscale>
<asrwt>0</asrwt>
<pdfrwt beam="1">  1       21 0.11632521E+00 0.56996798E+03</pdfrwt>
<pdfrwt beam="2">  1       21 0.86068671E-01 0.56996798E+03</pdfrwt>
<totfact> 0.53092844E+02</totfact>
</mgrwt>
</event>
<event>
 4    1  0.5003329E-002  0.4074271E+03  0.7818608E-02  0.1041238E+00
         21   -1    0    0  503  502  0.00000000000E+00  0.00000000000E+00  0.19408637511E+03  0.19408637511E+03  0.00000000000E+00 0.  1.
         21   -1    0    0  501  503 -0.00000000000E+00 -0.00000000000E+00 -0.14942975602E+04  0.14942975602E+04  0.00000000000E+00 0.  1.
    9000007    1    1    2  501    0  0.77202844675E+02 -0.60471430017E+01 -0.12021594235E+04  0.12693242795E+04  0.40000000000E+03 0.  1.
   -9000007    1    1    2    0  502 -0.77202844675E+02  0.60471430017E+01 -0.98051761659E+02  0.41905965581E+03  0.40000000000E+03 0.  1.
<mgrwt>
<rscale>  2 0.40742711E+03</rscale>
<asrwt>0</asrwt>
<pdfrwt beam="1">  1       21 0.29859441E-01 0.40742711E+03</pdfrwt>
<pdfrwt beam="2">  1       21 0.22989194E+00 0.40742711E+03</pdfrwt>
<totfact> 0.79231266E+02</totfact>
</mgrwt>
</event>
<event>
 4    1  0.5003329E-002  0.4088246E+03  0.7818608E-02  0.1040766E+00
         21   -1    0    0  501  502  0.00000000000E+00  0.00000000000E+00  0.48662760304E+03  0.48662760304E+03  0.00000000000E+00 0. -1.
         21   -1    0    0  502  503 -0.00000000000E+00 -0.00000000000E+00 -0.86711298992E+03  0.86711298992E+03  0.00000000000E+00 0. -1.
    9000007    1    1    2  501    0  0.42669140967E+02 -0.72917134148E+02  0.33576127707E+03  0.52903043317E+03  0.40000000000E+03 0. -1.
   -9000007    1    1    2    0  503 -0.42669140967E+02  0.72917134148E+02 -0.71624666395E+03  0.82471015979E+03  0.40000000000E+03 0. -1.
<mgrwt>
<rscale>  2 0.40882461E+03</rscale>
<asrwt>0</asrwt>
<pdfrwt beam="1">  1       21 0.74865786E-01 0.40882461E+03</pdfrwt>
<pdfrwt beam="2">  1       21 0.13340200E+00 0.40882461E+03</pdfrwt>
<totfact> 0.55128901E+02</totfact>
</mgrwt>
</event>
<event>
 4    1  0.5003329E-002  0.5273607E+03  0.7818608E-02  0.1006874E+00
         21   -1    0    0  503  502  0.00000000000E+00  0.00000000000E+00  0.42691133982E+03  0.42691133982E+03  0.00000000000E+00 0. -1.
         21   -1    0    0  501  503 -0.00000000000E+00 -0.00000000000E+00 -0.65575264993E+03  0.65575264993E+03  0.00000000000E+00 0. -1.
    9000007    1    1    2  501    0 -0.12012383899E+03  0.32199313956E+03 -0.15829459995E+03  0.55060557479E+03  0.40000000000E+03 0. -1.
   -9000007    1    1    2    0  502  0.12012383899E+03 -0.32199313956E+03 -0.70546710166E+02  0.53205841496E+03  0.40000000000E+03 0. -1.
<mgrwt>
<rscale>  2 0.52736071E+03</rscale>
<asrwt>0</asrwt>
<pdfrwt beam="1">  1       21 0.65678668E-01 0.52736071E+03</pdfrwt>
<pdfrwt beam="2">  1       21 0.10088502E+00 0.52736071E+03</pdfrwt>
<totfact> 0.14275262E+03</totfact>
</mgrwt>
</event>
<event>
 4    1  0.5003329E-002  0.5083391E+03  0.7818608E-02  0.1011625E+00
         21   -1    0    0  501  502  0.00000000000E+00  0.00000000000E+00  0.24207546539E+03  0.24207546539E+03  0.00000000000E+00 0.  1.
         21   -1    0    0  502  503 -0.00000000000E+00 -0.00000000000E+00 -0.11764817995E+04  0.11764817995E+04  0.00000000000E+00 0. -1.
    9000007    1    1    2  501    0  0.26458421958E+03  0.16853422846E+03 -0.25130022059E+03  0.56706295619E+03  0.40000000000E+03 0.  1.
   -9000007    1    1    2    0  503 -0.26458421958E+03 -0.16853422846E+03 -0.68310611348E+03  0.85149430866E+03  0.40000000000E+03 0. -1.
<mgrwt>
<rscale>  2 0.50833906E+03</rscale>
<asrwt>0</asrwt>
<pdfrwt beam="1">  1       21 0.37242378E-01 0.50833906E+03</pdfrwt>
<pdfrwt beam="2">  1       21 0.18099721E+00 0.50833906E+03</pdfrwt>
<totfact> 0.10205516E+03</totfact>
</mgrwt>
</event>
<event>
 4    1  0.5003329E-002  0.4571612E+03  0.7818608E-02  0.1025608E+00
         21   -1    0    0  503  502  0.00000000000E+00  0.00000000000E+00  0.21307463580E+03  0.21307463580E+03  0.00000000000E+00 0.  1.
         21   -1    0    0  501  503 -0.00000000000E+00 -0.00000000000E+00 -0.12115910978E+04  0.12115910978E+04  0.00000000000E+00 0.  1.
    9000007    1    1    2  501    0  0.18772142872E+03 -0.11729044703E+03 -0.81011335310E+03  0.93020429403E+03  0.40000000000E+03 0.  1.
   -9000007    1    1    2    0  502 -0.18772142872E+03  0.11729044703E+03 -0.18840310890E+03  0.49446143956E+03  0.40000000000E+03 0.  1.
<mgrwt>
<rscale>  2 0.45716122E+03</rscale>
<asrwt>0</asrwt>
<pdfrwt beam="1">  1       21 0.32780713E-01 0.45716122E+03</pdfrwt>
<pdfrwt beam="2">  1       21 0.18639863E+00 0.45716122E+03</pdfrwt>
<totfact> 0.12375606E+03</totfact>
</mgrwt>
</event>
<event>
 4    1  0.5003329E-002  0.4790922E+03  0.7818608E-02  0.1019385E+00
         21   -1    0    0  503  502  0.00000000000E+00  0.00000000000E+00  0.65007778852E+03  0.65007778852E+03  0.00000000000E+00 0. -1.
         21   -1    0    0  501  503 -0.00000000000E+00 -0.00000000000E+00 -0.42663431605E+03  0.42663431605E+03  0.00000000000E+00 0.  1.
    9000007    1    1    2  501    0  0.24340660629E+03 -0.10140280168E+03 -0.11181377267E+03  0.49196709639E+03  0.40000000000E+03 0.  1.
   -9000007    1    1    2    0  502 -0.24340660629E+03  0.10140280168E+03  0.33525724513E+03  0.58474500818E+03  0.40000000000E+03 0. -1.
<mgrwt>
<rscale>  2 0.47909217E+03</rscale>
<asrwt>0</asrwt>
<pdfrwt beam="1">  1       21 0.10001197E+00 0.47909217E+03</pdfrwt>
<pdfrwt beam="2">  1       21 0.65636049E-01 0.47909217E+03</pdfrwt>
<totfact> 0.14850672E+03</totfact>
</mgrwt>
</event>
<event>
 4    1  0.5003329E-002  0.5673839E+03  0.7818608E-02  0.9975484E-01
         21   -1    0    0  503  502  0.00000000000E+00  0.00000000000E+00  0.18050322035E+04  0.18050322035E+04  0.00000000000E+00 0. -1.
         21   -1    0    0  501  503 -0.00000000000E+00 -0.00000000000E+00 -0.21760180166E+03  0.21760180166E+03  0.00000000000E+00 0. -1.
    9000007    1    1    2  501    0  0.31965643431E+03  0.24442645198E+03  0.36418376224E+03  0.67420645140E+03  0.40000000000E+03 0. -1.
   -9000007    1    1    2    0  502 -0.31965643431E+03 -0.24442645198E+03  0.12232466396E+04  0.13484275537E+04  0.40000000000E+03 0. -1.
<mgrwt>
<rscale>  2 0.56738393E+03</rscale>
<asrwt>0</asrwt>
<pdfrwt beam="1">  1       21 0.27769725E+00 0.56738393E+03</pdfrwt>
<pdfrwt beam="2">  1       21 0.33477201E-01 0.56738393E+03</pdfrwt>
<totfact> 0.29581065E+02</totfact>
</mgrwt>
</event>
<event>
 4    1  0.5003329E-002  0.4528913E+03  0.7818608E-02  0.1026863E+00
         21   -1    0    0  503  502  0.00000000000E+00  0.00000000000E+00  0.52462159987E+03  0.52462159987E+03  0.00000000000E+00 0. -1.
         21   -1    0    0  501  503 -0.00000000000E+00 -0.00000000000E+00 -0.42341885942E+03  0.42341885942E+03  0.00000000000E+00 0. -1.
    9000007    1    1    2  501    0 -0.20887851067E+03 -0.38474271012E+02 -0.80625196158E+02  0.46001187377E+03  0.40000000000E+03 0. -1.
   -9000007    1    1    2    0  502  0.20887851067E+03  0.38474271012E+02  0.18182793661E+03  0.48802858552E+03  0.40000000000E+03 0. -1.
<mgrwt>
<rscale>  2 0.45289127E+03</rscale>
<asrwt>0</asrwt>
<pdfrwt beam="1">  1       21 0.80711015E-01 0.45289127E+03</pdfrwt>
<pdfrwt beam="2">  1       21 0.65141363E-01 0.45289127E+03</pdfrwt>
<totfact> 0.25348839E+03</totfact>
</mgrwt>
</event>
<event>
 4    1  0.5003329E-002  0.5040451E+03  0.7818608E-02  0.1012728E+00
         21   -1    0    0  503  502  0.00000000000E+00  0.00000000000E+00  0.25870580452E+03  0.25870580452E+03  0.00000000000E+00 0. -1.
         21   -1    0    0  501  503 -0.00000000000E+00 -0.00000000000E+00 -0.11302564866E+04  0.11302564866E+04  0.00000000000E+00 0. -1.
    9000007    1    1    2  501    0 -0.16297128516E+03 -0.25981120013E+03 -0.68725831990E+03  0.85228252228E+03  0.40000000000E+03 0. -1.
   -9000007    1    1    2    0  502  0.16297128516E+03  0.25981120013E+03 -0.18429236215E+03  0.53667976881E+03  0.40000000000E+03 0. -1.
<mgrwt>
<rscale>  2 0.50404514E+03</rscale>
<asrwt>0</asrwt>
<pdfrwt beam="1">  1       21 0.39800894E-01 0.50404514E+03</pdfrwt>
<pdfrwt beam="2">  1       21 0.17388561E+00 0.50404514E+03</pdfrwt>
<totfact> 0.10025288E+03</totfact>
</mgrwt>
</event>
<event>
 4    1  0.5003329E-002  0.4206759E+03  0.7818608E-02  0.1036847E+00
         21   -1    0    0  503  502  0.00000000000E+00  0.00000000000E+00  0.14573820751E+03  0.14573820751E+03  0.00000000000E+00 0.  1.
         21   -1    0    0  501  503 -0.00000000000E+00 -0.00000000000E+00 -0.12334016941E+04  0.12334016941E+04  0.00000000000E+00 0.  1.
    9000007    1    1    2  501    0 -0.24225319019E+02  0.12798951323E+03 -0.45799041681E+03  0.62187088971E+03  0.40000000000E+03 0. -1.
   -9000007    1    1    2    0  502  0.24225319019E+02 -0.12798951323E+03 -0.62967306979E+03  0.75726901191E+03  0.40000000000E+03 0. -1.
<mgrwt>
<rscale>  2 0.42067586E+03</rscale>
<asrwt>0</asrwt>
<pdfrwt beam="1">  1       21 0.22421262E-01 0.42067586E+03</pdfrwt>
<pdfrwt beam="2">  1       21 0.18975411E+00 0.42067586E+03</pdfrwt>
<totfact> 0.25135833E+03</totfact>
</mgrwt>
</event>
<event>
 4    1  0.5003329E-002  0.4318264E+03  0.7818608E-02  0.1033285E+00
         21   -1    0    0  503  502  0.00000000000E+00  0.00000000000E+00  0.58088976682E+03  0.58088976682E+03  0.00000000000E+00 0.  1.
         21   -1    0    0  501  503 -0.00000000000E+00 -0.00000000000E+00 -0.47228414996E+03  0.47228414996E+03  0.00000000000E+00 0.  1.
    9000007    1    1    2  501    0 -0.16095436647E+03 -0.23827059632E+02 -0.24371644167E+03  0.49585455610E+03  0.40000000000E+03 0.  1.
   -9000007    1    1    2    0  502  0.16095436647E+03  0.23827059632E+02  0.35232205854E+03  0.55731936068E+03  0.40000000000E+03 0.  1.
<mgrwt>
<rscale>  2 0.43182640E+03</rscale>
<asrwt>0</asrwt>
<pdfrwt beam="1">  1       21 0.89367656E-01 0.43182640E+03</pdfrwt>
<pdfrwt beam="2">  1       21 0.72659100E-01 0.43182640E+03</pdfrwt>
<totfact> 0.15759188E+03</totfact>
</mgrwt>
</event>
<event>
 4    1  0.5003329E-002  0.4760052E+03  0.7818608E-02  0.1020239E+00
         21   -1    0    0  503  502  0.00000000000E+00  0.00000000000E+00  0.44479801078E+03  0.44479801078E+03  0.00000000000E+00 0.  1.
         21   -1    0    0  501  503 -0.00000000000E+00 -0.00000000000E+00 -0.51231253277E+03  0.51231253277E+03  0.00000000000E+00 0.  1.
    9000007    1    1    2  501    0 -0.23579112582E+02  0.25695332887E+03 -0.69827771641E+02  0.48109968350E+03  0.40000000000E+03 0.  1.
   -9000007    1    1    2    0  502  0.23579112582E+02 -0.25695332887E+03  0.23132496522E+01  0.47601086006E+03  0.40000000000E+03 0.  1.
<mgrwt>
<rscale>  2 0.47600524E+03</rscale>
<asrwt>0</asrwt>
<pdfrwt beam="1">  1       21 0.68430463E-01 0.47600524E+03</pdfrwt>
<pdfrwt beam="2">  1       21 0.78817313E-01 0.47600524E+03</pdfrwt>
<totfact> 0.23792018E+03</totfact>
</mgrwt>
</event>
<event>
 4    1  0.5003329E-002  0.4063583E+03  0.7818608E-02  0.1041600E+00
         21   -1    0    0  501  502  0.00000000000E+00  0.00000000000E+00  0.47201319509E+03  0.47201319509E+03  0.00000000000E+00 0.  1.
         21   -1    0    0  502  503 -0.00000000000E+00 -0.00000000000E+00 -0.53885354138E+03  0.53885354138E+03  0.00000000000E+00 0.  1.
    9000007    1    1    2  501    0  0.14023026972E+02  0.70216749295E+02  0.26593034247E+03  0.48563976795E+03  0.40000000000E+03 0.  1.
   -9000007    1    1    2    0  503 -0.14023026972E+02 -0.70216749295E+02 -0.33277068876E+03  0.52522696853E+03  0.40000000000E+03 0.  1.
<mgrwt>
<rscale>  2 0.40635826E+03</rscale>
<asrwt>0</asrwt>
<pdfrwt beam="1">  1       21 0.72617415E-01 0.40635826E+03</pdfrwt>
<pdfrwt beam="2">  1       21 0.82900545E-01 0.40635826E+03</pdfrwt>
<totfact> 0.19012803E+03</totfact>
</mgrwt>
</event>
<event>
 4    1  0.5003329E-002  0.4554828E+03  0.7818608E-02  0.1026100E+00
         21   -1    0    0  501  502  0.00000000000E+00  0.00000000000E+00  0.64353190574E+03  0.64353190574E+03  0.00000000000E+00 0. -1.
         21   -1    0    0  502  503 -0.00000000000E+00 -0.00000000000E+00 -0.56034475940E+03  0.56034475940E+03  0.00000000000E+00 0. -1.
    9000007    1    1    2  501    0  0.19513757305E+03  0.96880944055E+02 -0.35066887395E+03  0.57483323573E+03  0.40000000000E+03 0. -1.
   -9000007    1    1    2    0  503 -0.19513757305E+03 -0.96880944055E+02  0.43385602030E+03  0.62904342941E+03  0.40000000000E+03 0. -1.
<mgrwt>
<rscale>  2 0.45548281E+03</rscale>
<asrwt>0</asrwt>
<pdfrwt beam="1">  1       21 0.99004908E-01 0.45548281E+03</pdfrwt>
<pdfrwt beam="2">  1       21 0.86206886E-01 0.45548281E+03</pdfrwt>
<totfact> 0.82377452E+02</totfact>
</mgrwt>
</event>
<event>
 4    1  0.5003329E-002  0.4627455E+03  0.7818608E-02  0.1023988E+00
         21   -1    0    0  503  502  0.00000000000E+00  0.00000000000E+00  0.12921251836E+04  0.12921251836E+04  0.00000000000E+00 0. -1.
         21   -1    0    0  501  503 -0.00000000000E+00 -0.00000000000E+00 -0.17709901817E+03  0.17709901817E+03  0.00000000000E+00 0.  1.
    9000007    1    1    2  501    0  0.13458214447E+03  0.18979222525E+03  0.74370726521E+03  0.87591891103E+03  0.40000000000E+03 0.  1.
   -9000007    1    1    2    0  502 -0.13458214447E+03 -0.18979222525E+03  0.37131890026E+03  0.59330529078E+03  0.40000000000E+03 0.  1.
<mgrwt>
<rscale>  2 0.46274555E+03</rscale>
<asrwt>0</asrwt>
<pdfrwt beam="1">  1       21 0.19878848E+00 0.46274555E+03</pdfrwt>
<pdfrwt beam="2">  1       21 0.27246004E-01 0.46274555E+03</pdfrwt>
<totfact> 0.14683309E+03</totfact>
</mgrwt>
</event>
<event>
 4    1  0.5003329E-002  0.4291383E+03  0.7818608E-02  0.1034133E+00
         21   -1    0    0  503  502  0.00000000000E+00  0.00000000000E+00  0.31192255049E+03  0.31192255049E+03  0.00000000000E+00 0. -1.
         21   -1    0    0  501  503 -0.00000000000E+00 -0.00000000000E+00 -0.60867154071E+03  0.60867154071E+03  0.00000000000E+00 0. -1.
    9000007    1    1    2  501    0 -0.15543124040E+03 -0.92136461757E+00 -0.68628354280E+02  0.43459126822E+03  0.40000000000E+03 0. -1.
   -9000007    1    1    2    0  502  0.15543124040E+03  0.92136461757E+00 -0.22812063594E+03  0.48600282298E+03  0.40000000000E+03 0. -1.
<mgrwt>
<rscale>  2 0.42913835E+03</rscale>
<asrwt>0</asrwt>
<pdfrwt beam="1">  1       21 0.47988085E-01 0.42913835E+03</pdfrwt>
<pdfrwt beam="2">  1       21 0.93641775E-01 0.42913835E+03</pdfrwt>
<totfact> 0.34949188E+03</totfact>
</mgrwt>
</event>
<event>
 4    1  0.5003329E-002  0.4897140E+03  0.7818608E-02  0.1016499E+00
         21   -1    0    0  501  502  0.00000000000E+00  0.00000000000E+00  0.21590798789E+04  0.21590798789E+04  0.00000000000E+00 0. -1.
         21   -1    0    0  502  503 -0.00000000000E+00 -0.00000000000E+00 -0.11290328553E+03  0.11290328553E+03  0.00000000000E+00 0.  1.
    9000007    1    1    2  501    0 -0.27589181427E+03  0.60856341552E+02  0.87852954553E+03  0.10058001540E+04  0.40000000000E+03 0.  1.
   -9000007    1    1    2    0  503  0.27589181427E+03 -0.60856341552E+02  0.11676470478E+04  0.12661830104E+04  0.40000000000E+03 0. -1.
<mgrwt>
<rscale>  2 0.48971399E+03</rscale>
<asrwt>0</asrwt>
<pdfrwt beam="1">  1       21 0.33216610E+00 0.48971399E+03</pdfrwt>
<pdfrwt beam="2">  1       21 0.17369738E-01 0.48971399E+03</pdfrwt>
<totfact> 0.51498471E+02</totfact>
</mgrwt>
</event>
<event>
 4    1  0.5003329E-002  0.4081020E+03  0.7818608E-02  0.1041010E+00
         21   -1    0    0  501  502  0.00000000000E+00  0.00000000000E+00  0.62813994200E+03  0.62813994200E+03  0.00000000000E+00 0.  1.
         21   -1    0    0  502  503 -0.00000000000E+00 -0.00000000000E+00 -0.27497019374E+03  0.27497019374E+03  0.00000000000E+00 0.  1.
    9000007    1    1    2  501    0  0.61508304919E+02 -0.52573401847E+02  0.26194817866E+03  0.48493719435E+03  0.40000000000E+03 0.  1.
   -9000007    1    1    2    0  503 -0.61508304919E+02  0.52573401847E+02  0.91221569599E+02  0.41817294140E+03  0.40000000000E+03 0.  1.
<mgrwt>
<rscale>  2 0.40810199E+03</rscale>
<asrwt>0</asrwt>
<pdfrwt beam="1">  1       21 0.96636914E-01 0.40810199E+03</pdfrwt>
<pdfrwt beam="2">  1       21 0.42303107E-01 0.40810199E+03</pdfrwt>
<totfact> 0.42525715E+03</totfact>
</mgrwt>
</event>
<event>
 4    1  0.5003329E-002  0.7678820E+03  0.7818608E-02  0.9607707E-01
         21   -1    0    0  501  502  0.00000000000E+00  0.00000000000E+00  0.70434438214E+03  0.70434438214E+03  0.00000000000E+00 0. -1.
         21   -1    0    0  502  503 -0.00000000000E+00 -0.00000000000E+00 -0.11373400216E+04  0.11373400216E+04  0.00000000000E+00 0.  1.
    9000007    1    1    2  501    0 -0.64262515675E+03 -0.12913443205E+03  0.25658509244E+03  0.80961639268E+03  0.40000000000E+03 0. -1.
   -9000007    1    1    2    0  503  0.64262515675E+03  0.12913443205E+03 -0.68958073189E+03  0.10320680110E+04  0.40000000000E+03 0.  1.
<mgrwt>
<rscale>  2 0.76788202E+03</rscale>
<asrwt>0</asrwt>
<pdfrwt beam="1">  1       21 0.10836067E+00 0.76788202E+03</pdfrwt>
<pdfrwt beam="2">  1       21 0.17497539E+00 0.76788202E+03</pdfrwt>
<totfact> 0.93690540E+01</totfact>
</mgrwt>
</event>
<event>
 4    1  0.5003329E-002  0.5314025E+03  0.7818608E-02  0.1005893E+00
         21   -1    0    0  503  502  0.00000000000E+00  0.00000000000E+00  0.16552041636E+03  0.16552041636E+03  0.00000000000E+00 0.  1.
         21   -1    0    0  501  503 -0.00000000000E+00 -0.00000000000E+00 -0.18858924943E+04  0.18858924943E+04  0.00000000000E+00 0. -1.
    9000007    1    1    2  501    0  0.34791283357E+03  0.36677467338E+02 -0.11769186364E+04  0.12913272448E+04  0.40000000000E+03 0. -1.
   -9000007    1    1    2    0  502 -0.34791283357E+03 -0.36677467338E+02 -0.54345344156E+03  0.76008566591E+03  0.40000000000E+03 0.  1.
<mgrwt>
<rscale>  2 0.53140246E+03</rscale>
<asrwt>0</asrwt>
<pdfrwt beam="1">  1       21 0.25464680E-01 0.53140246E+03</pdfrwt>
<pdfrwt beam="2">  1       21 0.29013730E+00 0.53140246E+03</pdfrwt>
<totfact> 0.43542223E+02</totfact>
</mgrwt>
</event>
<event>
 4    1  0.5003329E-002  0.4703936E+03  0.7818608E-02  0.1021809E+00
         21   -1    0    0  501  502  0.00000000000E+00  0.00000000000E+00  0.70972093260E+02  0.70972093260E+02  0.00000000000E+00 0.  1.
         21   -1    0    0  502  503 -0.00000000000E+00 -0.00000000000E+00 -0.35491951808E+04  0.35491951808E+04  0.00000000000E+00 0.  1.
    9000007    1    1    2  501    0  0.17533809360E+03  0.17471884222E+03 -0.11079817871E+04  0.12037000297E+04  0.40000000000E+03 0. -1.
   -9000007    1    1    2    0  503 -0.17533809360E+03 -0.17471884222E+03 -0.23702413004E+04  0.24164672443E+04  0.40000000000E+03 0. -1.
<mgrwt>
<rscale>  2 0.47039358E+03</rscale>
<asrwt>0</asrwt>
<pdfrwt beam="1">  1       21 0.10918784E-01 0.47039358E+03</pdfrwt>
<pdfrwt beam="2">  1       21 0.54603001E+00 0.47039358E+03</pdfrwt>
<totfact> 0.44828131E+01</totfact>
</mgrwt>
</event>
<event>
 4    1  0.5003329E-002  0.4570493E+03  0.7818608E-02  0.1025640E+00
         21   -1    0    0  503  502  0.00000000000E+00  0.00000000000E+00  0.11550778278E+04  0.11550778278E+04  0.00000000000E+00 0.  1.
         21   -1    0    0  501  503 -0.00000000000E+00 -0.00000000000E+00 -0.73941986274E+03  0.73941986274E+03  0.00000000000E+00 0.  1.
    9000007    1    1    2  501    0 -0.21958797180E+03 -0.25984104242E+02 -0.61547056221E+03  0.76661467764E+03  0.40000000000E+03 0.  1.
   -9000007    1    1    2    0  502  0.21958797180E+03  0.25984104242E+02  0.10311285273E+04  0.11278830129E+04  0.40000000000E+03 0.  1.
<mgrwt>
<rscale>  2 0.45704929E+03</rscale>
<asrwt>0</asrwt>
<pdfrwt beam="1">  1       21 0.17770428E+00 0.45704929E+03</pdfrwt>
<pdfrwt beam="2">  1       21 0.11375690E+00 0.45704929E+03</pdfrwt>
<totfact> 0.90206713E+01</totfact>
</mgrwt>
</event>
<event>
 4    1  0.5003329E-002  0.4633239E+03  0.7818608E-02  0.1023822E+00
         21   -1    0    0  503  502  0.00000000000E+00  0.00000000000E+00  0.17875417099E+03  0.17875417099E+03  0.00000000000E+00 0.  1.
         21   -1    0    0  501  503 -0.00000000000E+00 -0.00000000000E+00 -0.12194073746E+04  0.12194073746E+04  0.00000000000E+00 0.  1.
    9000007    1    1    2  501    0 -0.37953742293E+01  0.23378324406E+03 -0.43424307161E+03  0.63500870491E+03  0.40000000000E+03 0.  1.
   -9000007    1    1    2    0  502  0.37953742293E+01 -0.23378324406E+03 -0.60641013204E+03  0.76315284073E+03  0.40000000000E+03 0.  1.
<mgrwt>
<rscale>  2 0.46332387E+03</rscale>
<asrwt>0</asrwt>
<pdfrwt beam="1">  1       21 0.27500642E-01 0.46332387E+03</pdfrwt>
<pdfrwt beam="2">  1       21 0.18760113E+00 0.46332387E+03</pdfrwt>
<totfact> 0.17170542E+03</totfact>
</mgrwt>
</event>
<event>
 4    1  0.5003329E-002  0.4754242E+03  0.7818608E-02  0.1020400E+00
         21   -1    0    0  503  502  0.00000000000E+00  0.00000000000E+00  0.25321055384E+03  0.25321055384E+03  0.00000000000E+00 0.  1.
         21   -1    0    0  501  503 -0.00000000000E+00 -0.00000000000E+00 -0.11923077353E+04  0.11923077353E+04  0.00000000000E+00 0.  1.
    9000007    1    1    2  501    0  0.19184677013E+03  0.17094732384E+03 -0.83188570365E+03  0.95815551696E+03  0.40000000000E+03 0.  1.
   -9000007    1    1    2    0  502 -0.19184677013E+03 -0.17094732384E+03 -0.10721147782E+03  0.48736277219E+03  0.40000000000E+03 0.  1.
<mgrwt>
<rscale>  2 0.47542420E+03</rscale>
<asrwt>0</asrwt>
<pdfrwt beam="1">  1       21 0.38955470E-01 0.47542420E+03</pdfrwt>
<pdfrwt beam="2">  1       21 0.18343196E+00 0.47542420E+03</pdfrwt>
<totfact> 0.90688315E+02</totfact>
</mgrwt>
</event>
<event>
 4    1  0.5003329E-002  0.5613650E+03  0.7818608E-02  0.9988971E-01
         21   -1    0    0  503  502  0.00000000000E+00  0.00000000000E+00  0.43332257353E+03  0.43332257353E+03  0.00000000000E+00 0. -1.
         21   -1    0    0  501  503 -0.00000000000E+00 -0.00000000000E+00 -0.21558623178E+04  0.21558623178E+04  0.00000000000E+00 0. -1.
    9000007    1    1    2  501    0 -0.39316305585E+03  0.23525901107E+02 -0.19151248957E+04  0.19957038916E+04  0.40000000000E+03 0. -1.
   -9000007    1    1    2    0  502  0.39316305585E+03 -0.23525901107E+02  0.19258515148E+03  0.59348099977E+03  0.40000000000E+03 0. -1.
<mgrwt>
<rscale>  2 0.56136499E+03</rscale>
<asrwt>0</asrwt>
<pdfrwt beam="1">  1       21 0.66665011E-01 0.56136499E+03</pdfrwt>
<pdfrwt beam="2">  1       21 0.33167113E+00 0.56136499E+03</pdfrwt>
<totfact> 0.32242751E+01</totfact>
</mgrwt>
</event>
<event>
 4    1  0.5003329E-002  0.4640376E+03  0.7818608E-02  0.1023617E+00
         21   -1    0    0  501  502  0.00000000000E+00  0.00000000000E+00  0.27920944796E+04  0.27920944796E+04  0.00000000000E+00 0. -1.
         21   -1    0    0  502  503 -0.00000000000E+00 -0.00000000000E+00 -0.81403182978E+02  0.81403182978E+02  0.00000000000E+00 0.  1.
    9000007    1    1    2  501    0 -0.17805301585E+03 -0.15371400296E+03  0.16848498321E+04  0.17475839973E+04  0.40000000000E+03 0. -1.
   -9000007    1    1    2    0  503  0.17805301585E+03  0.15371400296E+03  0.10258414645E+04  0.11259136652E+04  0.40000000000E+03 0.  1.
<mgrwt>
<rscale>  2 0.46403758E+03</rscale>
<asrwt>0</asrwt>
<pdfrwt beam="1">  1       21 0.42955292E+00 0.46403758E+03</pdfrwt>
<pdfrwt beam="2">  1       21 0.12523569E-01 0.46403758E+03</pdfrwt>
<totfact> 0.23234857E+02</totfact>
</mgrwt>
</event>
<event>
 4    1  0.5003329E-002  0.4791641E+03  0.7818608E-02  0.1019365E+00
         21   -1    0    0  501  502  0.00000000000E+00  0.00000000000E+00  0.30853771427E+03  0.30853771427E+03  0.00000000000E+00 0. -1.
         21   -1    0    0  502  503 -0.00000000000E+00 -0.00000000000E+00 -0.11836033262E+04  0.11836033262E+04  0.00000000000E+00 0. -1.
    9000007    1    1    2  501    0  0.25724093011E+03  0.58526046773E+02  0.17071351242E+02  0.47946806495E+03  0.40000000000E+03 0. -1.
   -9000007    1    1    2    0  503 -0.25724093011E+03 -0.58526046773E+02 -0.89213696315E+03  0.10126729755E+04  0.40000000000E+03 0. -1.
<mgrwt>
<rscale>  2 0.47916406E+03</rscale>
<asrwt>0</asrwt>
<pdfrwt beam="1">  1       21 0.47467340E-01 0.47916406E+03</pdfrwt>
<pdfrwt beam="2">  1       21 0.18209282E+00 0.47916406E+03</pdfrwt>
<totfact> 0.61282616E+02</totfact>
</mgrwt>
</event>
<event>
 4    1  0.5003329E-002  0.7908148E+03  0.7818608E-02  0.9573408E-01
         21   -1    0    0  503  502  0.00000000000E+00  0.00000000000E+00  0.25987484511E+03  0.25987484511E+03  0.00000000000E+00 0. -1.
         21   -1    0    0  501  503 -0.00000000000E+00 -0.00000000000E+00 -0.24390400766E+04  0.24390400766E+04  0.00000000000E+00 0.  1.
    9000007    1    1    2  501    0 -0.59396347411E+03  0.33555239966E+03 -0.93370656827E+03  0.12235995984E+04  0.40000000000E+03 0. -1.
   -9000007    1    1    2    0  502  0.59396347411E+03 -0.33555239966E+03 -0.12454586633E+04  0.14753153234E+04  0.40000000000E+03 0.  1.
<mgrwt>
<rscale>  2 0.79081478E+03</rscale>
<asrwt>0</asrwt>
<pdfrwt beam="1">  1       21 0.39980748E-01 0.79081478E+03</pdfrwt>
<pdfrwt beam="2">  1       21 0.37523691E+00 0.79081478E+03</pdfrwt>
<totfact> 0.46718857E+01</totfact>
</mgrwt>
</event>
<event>
 4    1  0.5003329E-002  0.4222958E+03  0.7818608E-02  0.1036322E+00
         21   -1    0    0  501  502  0.00000000000E+00  0.00000000000E+00  0.20322016280E+04  0.20322016280E+04  0.00000000000E+00 0.  1.
         21   -1    0    0  502  503 -0.00000000000E+00 -0.00000000000E+00 -0.22172138724E+03  0.22172138724E+03  0.00000000000E+00 0.  1.
    9000007    1    1    2  501    0 -0.13399158532E+03  0.19494468532E+02  0.17812416541E+04  0.18306161830E+04  0.40000000000E+03 0.  1.
   -9000007    1    1    2    0  503  0.13399158532E+03 -0.19494468532E+02  0.29238586652E+02  0.42330683220E+03  0.40000000000E+03 0.  1.
<mgrwt>
<rscale>  2 0.42229584E+03</rscale>
<asrwt>0</asrwt>
<pdfrwt beam="1">  1       21 0.31264639E+00 0.42229584E+03</pdfrwt>
<pdfrwt beam="2">  1       21 0.34110984E-01 0.42229584E+03</pdfrwt>
<totfact> 0.18957095E+02</totfact>
</mgrwt>
</event>
<event>
 4    1  0.5003329E-002  0.4071096E+03  0.7818608E-02  0.1041345E+00
         21   -1    0    0  501  502  0.00000000000E+00  0.00000000000E+00  0.92234947011E+03  0.92234947011E+03  0.00000000000E+00 0.  1.
         21   -1    0    0  502  503 -0.00000000000E+00 -0.00000000000E+00 -0.23476758068E+03  0.23476758068E+03  0.00000000000E+00 0.  1.
    9000007    1    1    2  501    0  0.56978034629E+01  0.75536503930E+02  0.62401815981E+03  0.74507509163E+03  0.40000000000E+03 0.  1.
   -9000007    1    1    2    0  503 -0.56978034629E+01 -0.75536503930E+02  0.63563729616E+02  0.41204195917E+03  0.40000000000E+03 0.  1.
<mgrwt>
<rscale>  2 0.40710960E+03</rscale>
<asrwt>0</asrwt>
<pdfrwt beam="1">  1       21 0.14189992E+00 0.40710960E+03</pdfrwt>
<pdfrwt beam="2">  1       21 0.36118090E-01 0.40710960E+03</pdfrwt>
<totfact> 0.22330506E+03</totfact>
</mgrwt>
</event>
<event>
 4    1  0.5003329E-002  0.4405475E+03  0.7818608E-02  0.1030579E+00
         21   -1    0    0  501  502  0.00000000000E+00  0.00000000000E+00  0.59308923196E+03  0.59308923196E+03  0.00000000000E+00 0. -1.
         21   -1    0    0  502  503 -0.00000000000E+00 -0.00000000000E+00 -0.33056136675E+03  0.33056136675E+03  0.00000000000E+00 0.  1.
    9000007    1    1    2  501    0 -0.16269133404E+03  0.87255972415E+02  0.17756160730E+03  0.47498442004E+03  0.40000000000E+03 0.  1.
   -9000007    1    1    2    0  503  0.16269133404E+03 -0.87255972415E+02  0.84966257909E+02  0.44866617866E+03  0.40000000000E+03 0.  1.
<mgrwt>
<rscale>  2 0.44054747E+03</rscale>
<asrwt>0</asrwt>
<pdfrwt beam="1">  1       21 0.91244497E-01 0.44054747E+03</pdfrwt>
<pdfrwt beam="2">  1       21 0.50855595E-01 0.44054747E+03</pdfrwt>
<totfact> 0.32731862E+03</totfact>
</mgrwt>
</event>
<event>
 4    1  0.5003329E-002  0.5077428E+03  0.7818608E-02  0.1011777E+00
         21   -1    0    0  503  502  0.00000000000E+00  0.00000000000E+00  0.73500022552E+03  0.73500022552E+03  0.00000000000E+00 0.  1.
         21   -1    0    0  501  503 -0.00000000000E+00 -0.00000000000E+00 -0.39438614415E+03  0.39438614415E+03  0.00000000000E+00 0.  1.
    9000007    1    1    2  501    0  0.30798023696E+03  0.54321978354E+02  0.35813731772E+03  0.62134132491E+03  0.40000000000E+03 0.  1.
   -9000007    1    1    2    0  502 -0.30798023696E+03 -0.54321978354E+02 -0.17523236347E+02  0.50804504476E+03  0.40000000000E+03 0.  1.
<mgrwt>
<rscale>  2 0.50774275E+03</rscale>
<asrwt>0</asrwt>
<pdfrwt beam="1">  1       21 0.11307696E+00 0.50774275E+03</pdfrwt>
<pdfrwt beam="2">  1       21 0.60674791E-01 0.50774275E+03</pdfrwt>
<totfact> 0.12913776E+03</totfact>
</mgrwt>
</event>
<event>
 4    1  0.5003329E-002  0.7065825E+03  0.7818608E-02  0.9706041E-01
         21   -1    0    0  503  502  0.00000000000E+00  0.00000000000E+00  0.13475481608E+04  0.13475481608E+04  0.00000000000E+00 0. -1.
         21   -1    0    0  501  503 -0.00000000000E+00 -0.00000000000E+00 -0.74406573245E+03  0.74406573245E+03  0.00000000000E+00 0. -1.
    9000007    1    1    2  501    0 -0.44278199668E+03  0.37842169012E+03 -0.43928354113E+03  0.83200294569E+03  0.40000000000E+03 0. -1.
   -9000007    1    1    2    0  502  0.44278199668E+03 -0.37842169012E+03  0.10427659695E+04  0.12596109476E+04  0.40000000000E+03 0. -1.
<mgrwt>
<rscale>  2 0.70658253E+03</rscale>
<asrwt>0</asrwt>
<pdfrwt beam="1">  1       21 0.20731510E+00 0.70658253E+03</pdfrwt>
<pdfrwt beam="2">  1       21 0.11447165E+00 0.70658253E+03</pdfrwt>
<totfact> 0.49597096E+01</totfact>
</mgrwt>
</event>
<event>
 4    1  0.5003329E-002  0.4612940E+03  0.7818608E-02  0.1024407E+00
         21   -1    0    0  503  502  0.00000000000E+00  0.00000000000E+00  0.16493206343E+04  0.16493206343E+04  0.00000000000E+00 0.  1.
         21   -1    0    0  501  503 -0.00000000000E+00 -0.00000000000E+00 -0.13081047996E+03  0.13081047996E+03  0.00000000000E+00 0.  1.
    9000007    1    1    2  501    0  0.80670346288E+02  0.21513828469E+03  0.86344311007E+03  0.97894136220E+03  0.40000000000E+03 0.  1.
   -9000007    1    1    2    0  502 -0.80670346288E+02 -0.21513828469E+03  0.65506704422E+03  0.80118975201E+03  0.40000000000E+03 0.  1.
<mgrwt>
<rscale>  2 0.46129403E+03</rscale>
<asrwt>0</asrwt>
<pdfrwt beam="1">  1       21 0.25374162E+00 0.46129403E+03</pdfrwt>
<pdfrwt beam="2">  1       21 0.20124690E-01 0.46129403E+03</pdfrwt>
<totfact> 0.11804766E+03</totfact>
</mgrwt>
</event>
<event>
 4    1  0.5003329E-002  0.4900711E+03  0.7818608E-02  0.1016403E+00
         21   -1    0    0  501  502  0.00000000000E+00  0.00000000000E+00  0.18936276925E+04  0.18936276925E+04  0.00000000000E+00 0. -1.
         21   -1    0    0  502  503 -0.00000000000E+00 -0.00000000000E+00 -0.13166098767E+03  0.13166098767E+03  0.00000000000E+00 0. -1.
    9000007    1    1    2  501    0 -0.28210266819E+03 -0.24243711804E+02  0.10749493629E+04  0.11813914701E+04  0.40000000000E+03 0. -1.
   -9000007    1    1    2    0  503  0.28210266819E+03  0.24243711804E+02  0.68701734200E+03  0.84389721008E+03  0.40000000000E+03 0. -1.
<mgrwt>
<rscale>  2 0.49007109E+03</rscale>
<asrwt>0</asrwt>
<pdfrwt beam="1">  1       21 0.29132732E+00 0.49007109E+03</pdfrwt>
<pdfrwt beam="2">  1       21 0.20255538E-01 0.49007109E+03</pdfrwt>
<totfact> 0.67978863E+02</totfact>
</mgrwt>
</event>
<event>
 4    1  0.5003329E-002  0.7692022E+03  0.7818608E-02  0.9605698E-01
         21   -1    0    0  503  502  0.00000000000E+00  0.00000000000E+00  0.10143663208E+04  0.10143663208E+04  0.00000000000E+00 0.  1.
         21   -1    0    0  501  503 -0.00000000000E+00 -0.00000000000E+00 -0.73558465501E+03  0.73558465501E+03  0.00000000000E+00 0. -1.
    9000007    1    1    2  501    0  0.56748756950E+03 -0.33110396768E+03 -0.25873350499E+03  0.81155098765E+03  0.40000000000E+03 0. -1.
   -9000007    1    1    2    0  502 -0.56748756950E+03  0.33110396768E+03  0.53751517076E+03  0.93839998815E+03  0.40000000000E+03 0.  1.
<mgrwt>
<rscale>  2 0.76920217E+03</rscale>
<asrwt>0</asrwt>
<pdfrwt beam="1">  1       21 0.15605636E+00 0.76920217E+03</pdfrwt>
<pdfrwt beam="2">  1       21 0.11316687E+00 0.76920217E+03</pdfrwt>
<totfact> 0.11662136E+02</totfact>
</mgrwt>
</event>
<event>
 4    1  0.5003329E-002  0.4237764E+03  0.7818608E-02  0.1035844E+00
         21   -1    0    0  501  502  0.00000000000E+00  0.00000000000E+00  0.11423612771E+04  0.11423612771E+04  0.00000000000E+00 0.  1.
         21   -1    0    0  502  503 -0.00000000000E+00 -0.00000000000E+00 -0.72480481662E+03  0.72480481662E+03  0.00000000000E+00 0.  1.
    9000007    1    1    2  501    0 -0.13648019152E+03 -0.30977229411E+02  0.10349360791E+04  0.11183376589E+04  0.40000000000E+03 0.  1.
   -9000007    1    1    2    0  503  0.13648019152E+03  0.30977229411E+02 -0.61737961860E+03  0.74882843488E+03  0.40000000000E+03 0.  1.
<mgrwt>
<rscale>  2 0.42377639E+03</rscale>
<asrwt>0</asrwt>
<pdfrwt beam="1">  1       21 0.17574789E+00 0.42377639E+03</pdfrwt>
<pdfrwt beam="2">  1       21 0.11150843E+00 0.42377639E+03</pdfrwt>
<totfact> 0.99802088E+01</totfact>
</mgrwt>
</event>
<event>
 4    1  0.5003329E-002  0.4006616E+03  0.7818608E-02  0.1043551E+00
         21   -1    0    0  501  502  0.00000000000E+00  0.00000000000E+00  0.27533373402E+03  0.27533373402E+03  0.00000000000E+00 0.  1.
         21   -1    0    0  502  503 -0.00000000000E+00 -0.00000000000E+00 -0.58795641376E+03  0.58795641376E+03  0.00000000000E+00 0.  1.
    9000007    1    1    2  501    0 -0.23880288203E+01  0.22892072742E+02 -0.11682820415E+03  0.41734707254E+03  0.40000000000E+03 0. -1.
   -9000007    1    1    2    0  503  0.23880288203E+01 -0.22892072742E+02 -0.19579447559E+03  0.44594307523E+03  0.40000000000E+03 0. -1.
<mgrwt>
<rscale>  2 0.40066164E+03</rscale>
<asrwt>0</asrwt>
<pdfrwt beam="1">  1       21 0.42359036E-01 0.40066164E+03</pdfrwt>
<pdfrwt beam="2">  1       21 0.90454832E-01 0.40066164E+03</pdfrwt>
<totfact> 0.49782852E+03</totfact>
</mgrwt>
</event>
<event>
 4    1  0.5003329E-002  0.4995388E+03  0.7818608E-02  0.1013899E+00
         21   -1    0    0  503  502  0.00000000000E+00  0.00000000000E+00  0.19213295605E+03  0.19213295605E+03  0.00000000000E+00 0. -1.
         21   -1    0    0  501  503 -0.00000000000E+00 -0.00000000000E+00 -0.14873093523E+04  0.14873093523E+04  0.00000000000E+00 0. -1.
    9000007    1    1    2  501    0 -0.13670290997E+03 -0.26617904395E+03 -0.94655348144E+03  0.10702814874E+04  0.40000000000E+03 0. -1.
   -9000007    1    1    2    0  502  0.13670290997E+03  0.26617904395E+03 -0.34862291477E+03  0.60916082092E+03  0.40000000000E+03 0. -1.
<mgrwt>
<rscale>  2 0.49953876E+03</rscale>
<asrwt>0</asrwt>
<pdfrwt beam="1">  1       21 0.29558917E-01 0.49953876E+03</pdfrwt>
<pdfrwt beam="2">  1       21 0.22881682E+00 0.49953876E+03</pdfrwt>
<totfact> 0.78484456E+02</totfact>
</mgrwt>
</event>
<event>
 4    1  0.5003329E-002  0.4146710E+03  0.7818608E-02  0.1038815E+00
         21   -1    0    0  501  502  0.00000000000E+00  0.00000000000E+00  0.76798629883E+03  0.76798629883E+03  0.00000000000E+00 0.  1.
         21   -1    0    0  502  503 -0.00000000000E+00 -0.00000000000E+00 -0.54892609996E+03  0.54892609996E+03  0.00000000000E+00 0.  1.
    9000007    1    1    2  501    0  0.13039653847E+02 -0.10854477547E+03  0.61620475768E+03  0.74273838210E+03  0.40000000000E+03 0.  1.
   -9000007    1    1    2    0  503 -0.13039653847E+02  0.10854477547E+03 -0.39714455881E+03  0.57417401670E+03  0.40000000000E+03 0.  1.
<mgrwt>
<rscale>  2 0.41467095E+03</rscale>
<asrwt>0</asrwt>
<pdfrwt beam="1">  1       21 0.11815174E+00 0.41467095E+03</pdfrwt>
<pdfrwt beam="2">  1       21 0.84450169E-01 0.41467095E+03</pdfrwt>
<totfact> 0.56884368E+02</totfact>
</mgrwt>
</event>
<event>
 4    1  0.5003329E-002  0.4693342E+03  0.7818608E-02  0.1022108E+00
         21   -1    0    0  501  502  0.00000000000E+00  0.00000000000E+00  0.73403475107E+03  0.73403475107E+03  0.00000000000E+00 0. -1.
         21   -1    0    0  502  503 -0.00000000000E+00 -0.00000000000E+00 -0.32559330078E+03  0.32559330078E+03  0.00000000000E+00 0. -1.
    9000007    1    1    2  501    0  0.79783036839E+02  0.23218370742E+03  0.35250863402E+03  0.58697269444E+03  0.40000000000E+03 0. -1.
   -9000007    1    1    2    0  503 -0.79783036839E+02 -0.23218370742E+03  0.55932816272E+02  0.47265535742E+03  0.40000000000E+03 0. -1.
<mgrwt>
<rscale>  2 0.46933422E+03</rscale>
<asrwt>0</asrwt>
<pdfrwt beam="1">  1       21 0.11292842E+00 0.46933422E+03</pdfrwt>
<pdfrwt beam="2">  1       21 0.50091277E-01 0.46933422E+03</pdfrwt>
<totfact> 0.19891554E+03</totfact>
</mgrwt>
</event>
<event>
 4    1  0.5003329E-002  0.4339571E+03  0.7818608E-02  0.1032617E+00
         21   -1    0    0  503  502  0.00000000000E+00  0.00000000000E+00  0.18135746325E+03  0.18135746325E+03  0.00000000000E+00 0. -1.
         21   -1    0    0  501  503 -0.00000000000E+00 -0.00000000000E+00 -0.10686053177E+04  0.10686053177E+04  0.00000000000E+00 0. -1.
    9000007    1    1    2  501    0 -0.15426262555E+03 -0.67244525430E+02 -0.33852184351E+03  0.55037789053E+03  0.40000000000E+03 0. -1.
   -9000007    1    1    2    0  502  0.15426262555E+03  0.67244525430E+02 -0.54872601095E+03  0.69958489044E+03  0.40000000000E+03 0. -1.
<mgrwt>
<rscale>  2 0.43395712E+03</rscale>
<asrwt>0</asrwt>
<pdfrwt beam="1">  1       21 0.27901148E-01 0.43395712E+03</pdfrwt>
<pdfrwt beam="2">  1       21 0.16440082E+00 0.43395712E+03</pdfrwt>
<totfact> 0.24738820E+03</totfact>
</mgrwt>
</event>
<event>
 4    1  0.5003329E-002  0.9089653E+03  0.7818608E-02  0.9414443E-01
         21   -1    0    0  501  502  0.00000000000E+00  0.00000000000E+00  0.33298500527E+04  0.33298500527E+04  0.00000000000E+00 0. -1.
         21   -1    0    0  502  503 -0.00000000000E+00 -0.00000000000E+00 -0.30865481464E+03  0.30865481464E+03  0.00000000000E+00 0.  1.
    9000007    1    1    2  501    0  0.77853679607E+03 -0.24514959023E+03  0.70495509795E+03  0.11502954206E+04  0.40000000000E+03 0.  1.
   -9000007    1    1    2    0  503 -0.77853679607E+03  0.24514959023E+03  0.23162401401E+04  0.24882094468E+04  0.40000000000E+03 0. -1.
<mgrwt>
<rscale>  2 0.90896527E+03</rscale>
<asrwt>0</asrwt>
<pdfrwt beam="1">  1       21 0.51228460E+00 0.90896527E+03</pdfrwt>
<pdfrwt beam="2">  1       21 0.47485359E-01 0.90896527E+03</pdfrwt>
<totfact> 0.36139723E+00</totfact>
</mgrwt>
</event>
<event>
 4    1  0.5003329E-002  0.7147936E+03  0.7818608E-02  0.9692262E-01
         21   -1    0    0  503  502  0.00000000000E+00  0.00000000000E+00  0.56905924778E+03  0.56905924778E+03  0.00000000000E+00 0. -1.
         21   -1    0    0  501  503 -0.00000000000E+00 -0.00000000000E+00 -0.12285789946E+04  0.12285789946E+04  0.00000000000E+00 0. -1.
    9000007    1    1    2  501    0 -0.88641377766E+02 -0.58572400632E+03 -0.79610433820E+03  0.10699121566E+04  0.40000000000E+03 0. -1.
   -9000007    1    1    2    0  502  0.88641377766E+02  0.58572400632E+03  0.13658459136E+03  0.72772608585E+03  0.40000000000E+03 0. -1.
<mgrwt>
<rscale>  2 0.71479361E+03</rscale>
<asrwt>0</asrwt>
<pdfrwt beam="1">  1       21 0.87547577E-01 0.71479361E+03</pdfrwt>
<pdfrwt beam="2">  1       21 0.18901215E+00 0.71479361E+03</pdfrwt>
<totfact> 0.12745505E+02</totfact>
</mgrwt>
</event>
<event>
 4    1  0.5003329E-002  0.4481282E+03  0.7818608E-02  0.1028282E+00
         21   -1    0    0  501  502  0.00000000000E+00  0.00000000000E+00  0.21837074541E+04  0.21837074541E+04  0.00000000000E+00 0. -1.
         21   -1    0    0  502  503 -0.00000000000E+00 -0.00000000000E+00 -0.10985699716E+03  0.10985699716E+03  0.00000000000E+00 0. -1.
    9000007    1    1    2  501    0  0.18716018908E+03  0.76091825121E+02  0.14997626627E+04  0.15652817467E+04  0.40000000000E+03 0. -1.
   -9000007    1    1    2    0  503 -0.18716018908E+03 -0.76091825121E+02  0.57408779429E+03  0.72828270458E+03  0.40000000000E+03 0. -1.
<mgrwt>
<rscale>  2 0.44812822E+03</rscale>
<asrwt>0</asrwt>
<pdfrwt beam="1">  1       21 0.33595496E+00 0.44812822E+03</pdfrwt>
<pdfrwt beam="2">  1       21 0.16901078E-01 0.44812822E+03</pdfrwt>
<totfact> 0.52653152E+02</totfact>
</mgrwt>
</event>
<event>
 4    1  0.5003329E-002  0.6837152E+03  0.7818608E-02  0.9745494E-01
         21   -1    0    0  501  502  0.00000000000E+00  0.00000000000E+00  0.15625349535E+04  0.15625349535E+04  0.00000000000E+00 0.  1.
         21   -1    0    0  502  503 -0.00000000000E+00 -0.00000000000E+00 -0.31108789601E+03  0.31108789601E+03  0.00000000000E+00 0.  1.
    9000007    1    1    2  501    0  0.53122234540E+03 -0.15896308895E+03  0.44237516295E+03  0.81434773205E+03  0.40000000000E+03 0.  1.
   -9000007    1    1    2    0  503 -0.53122234540E+03  0.15896308895E+03  0.80907189449E+03  0.10592751174E+04  0.40000000000E+03 0.  1.
<mgrwt>
<rscale>  2 0.68371518E+03</rscale>
<asrwt>0</asrwt>
<pdfrwt beam="1">  1       21 0.24038999E+00 0.68371518E+03</pdfrwt>
<pdfrwt beam="2">  1       21 0.47859677E-01 0.68371518E+03</pdfrwt>
<totfact> 0.22906156E+02</totfact>
</mgrwt>
</event>
<event>
 4    1  0.5003329E-002  0.6090724E+03  0.7818608E-02  0.9886761E-01
         21   -1    0    0  501  502  0.00000000000E+00  0.00000000000E+00  0.24241363620E+04  0.24241363620E+04  0.00000000000E+00 0.  1.
         21   -1    0    0  502  503 -0.00000000000E+00 -0.00000000000E+00 -0.15565398036E+03  0.15565398036E+03  0.00000000000E+00 0. -1.
    9000007    1    1    2  501    0  0.42220547133E+03 -0.18086371608E+03  0.13016711424E+04  0.14371210480E+04  0.40000000000E+03 0. -1.
   -9000007    1    1    2    0  503 -0.42220547133E+03  0.18086371608E+03  0.96681123922E+03  0.11426692943E+04  0.40000000000E+03 0.  1.
<mgrwt>
<rscale>  2 0.60907236E+03</rscale>
<asrwt>0</asrwt>
<pdfrwt beam="1">  1       21 0.37294403E+00 0.60907236E+03</pdfrwt>
<pdfrwt beam="2">  1       21 0.23946768E-01 0.60907236E+03</pdfrwt>
<totfact> 0.14646557E+02</totfact>
</mgrwt>
</event>
<event>
 4    1  0.5003329E-002  0.4725111E+03  0.7818608E-02  0.1021214E+00
         21   -1    0    0  503  502  0.00000000000E+00  0.00000000000E+00  0.32400907677E+03  0.32400907677E+03  0.00000000000E+00 0.  1.
         21   -1    0    0  501  503 -0.00000000000E+00 -0.00000000000E+00 -0.14024407859E+04  0.14024407859E+04  0.00000000000E+00 0.  1.
    9000007    1    1    2  501    0 -0.13735136982E+03  0.21071626813E+03 -0.11548712189E+04  0.12477957672E+04  0.40000000000E+03 0.  1.
   -9000007    1    1    2    0  502  0.13735136982E+03 -0.21071626813E+03  0.76439509758E+02  0.47865409546E+03  0.40000000000E+03 0.  1.
<mgrwt>
<rscale>  2 0.47251111E+03</rscale>
<asrwt>0</asrwt>
<pdfrwt beam="1">  1       21 0.49847550E-01 0.47251111E+03</pdfrwt>
<pdfrwt beam="2">  1       21 0.21576012E+00 0.47251111E+03</pdfrwt>
<totfact> 0.32929581E+02</totfact>
</mgrwt>
</event>
<event>
 4    1  0.5003329E-002  0.4731516E+03  0.7818608E-02  0.1021034E+00
         21   -1    0    0  501  502  0.00000000000E+00  0.00000000000E+00  0.24084733462E+03  0.24084733462E+03  0.00000000000E+00 0.  1.
         21   -1    0    0  502  503 -0.00000000000E+00 -0.00000000000E+00 -0.17040961322E+04  0.17040961322E+04  0.00000000000E+00 0. -1.
    9000007    1    1    2  501    0 -0.48831562536E+02  0.24796752601E+03 -0.75989601416E+02  0.47921481089E+03  0.40000000000E+03 0.  1.
   -9000007    1    1    2    0  503  0.48831562536E+02 -0.24796752601E+03 -0.13872591962E+04  0.14657286559E+04  0.40000000000E+03 0. -1.
<mgrwt>
<rscale>  2 0.47315158E+03</rscale>
<asrwt>0</asrwt>
<pdfrwt beam="1">  1       21 0.37053434E-01 0.47315158E+03</pdfrwt>
<pdfrwt beam="2">  1       21 0.26216865E+00 0.47315158E+03</pdfrwt>
<totfact> 0.31332142E+02</totfact>
</mgrwt>
</event>
<event>
 4    1  0.5003329E-002  0.4889666E+03  0.7818608E-02  0.1016700E+00
         21   -1    0    0  503  502  0.00000000000E+00  0.00000000000E+00  0.75071078103E+03  0.75071078103E+03  0.00000000000E+00 0. -1.
         21   -1    0    0  501  503 -0.00000000000E+00 -0.00000000000E+00 -0.61500242630E+03  0.61500242630E+03  0.00000000000E+00 0. -1.
    9000007    1    1    2  501    0  0.26480528168E+03  0.94691678019E+02 -0.40629820680E+03  0.63574097236E+03  0.40000000000E+03 0. -1.
   -9000007    1    1    2    0  502 -0.26480528168E+03 -0.94691678019E+02  0.54200656153E+03  0.72997223497E+03  0.40000000000E+03 0. -1.
<mgrwt>
<rscale>  2 0.48896662E+03</rscale>
<asrwt>0</asrwt>
<pdfrwt beam="1">  1       21 0.11549397E+00 0.48896662E+03</pdfrwt>
<pdfrwt beam="2">  1       21 0.94615758E-01 0.48896662E+03</pdfrwt>
<totfact> 0.44505357E+02</totfact>
</mgrwt>
</event>
<event>
 4    1  0.5003329E-002  0.4364195E+03  0.7818608E-02  0.1031851E+00
         21   -1    0    0  501  502  0.00000000000E+00  0.00000000000E+00  0.56265303306E+03  0.56265303306E+03  0.00000000000E+00 0. -1.
         21   -1    0    0  502  503 -0.00000000000E+00 -0.00000000000E+00 -0.39644507910E+03  0.39644507910E+03  0.00000000000E+00 0. -1.
    9000007    1    1    2  501    0 -0.16057644524E+03  0.68389877005E+02  0.26642982626E+03  0.51131870918E+03  0.40000000000E+03 0. -1.
   -9000007    1    1    2    0  503  0.16057644524E+03 -0.68389877005E+02 -0.10022187230E+03  0.44777940297E+03  0.40000000000E+03 0. -1.
<mgrwt>
<rscale>  2 0.43641949E+03</rscale>
<asrwt>0</asrwt>
<pdfrwt beam="1">  1       21 0.86562005E-01 0.43641949E+03</pdfrwt>
<pdfrwt beam="2">  1       21 0.60991551E-01 0.43641949E+03</pdfrwt>
<totfact> 0.25056190E+03</totfact>
</mgrwt>
</event>
<event>
 4    1  0.5003329E-002  0.4009083E+03  0.7818608E-02  0.1043466E+00
         21   -1    0    0  501  502  0.00000000000E+00  0.00000000000E+00  0.16638671942E+03  0.16638671942E+03  0.00000000000E+00 0.  1.
         21   -1    0    0  502  503 -0.00000000000E+00 -0.00000000000E+00 -0.12014274296E+04  0.12014274296E+04  0.00000000000E+00 0.  1.
    9000007    1    1    2  501    0 -0.75156494058E+01 -0.25902644777E+02 -0.82027353407E+03  0.91300388974E+03  0.40000000000E+03 0.  1.
   -9000007    1    1    2    0  503  0.75156494058E+01  0.25902644777E+02 -0.21476717607E+03  0.45481025924E+03  0.40000000000E+03 0.  1.
<mgrwt>
<rscale>  2 0.40090826E+03</rscale>
<asrwt>0</asrwt>
<pdfrwt beam="1">  1       21 0.25597957E-01 0.40090826E+03</pdfrwt>
<pdfrwt beam="2">  1       21 0.18483499E+00 0.40090826E+03</pdfrwt>
<totfact> 0.21217314E+03</totfact>
</mgrwt>
</event>
<event>
 4    1  0.5003329E-002  0.4566385E+03  0.7818608E-02  0.1025761E+00
         21   -1    0    0  501  502  0.00000000000E+00  0.00000000000E+00  0.12827440709E+04  0.12827440709E+04  0.00000000000E+00 0.  1.
         21   -1    0    0  502  503 -0.00000000000E+00 -0.00000000000E+00 -0.35478614230E+03  0.35478614230E+03  0.00000000000E+00 0. -1.
    9000007    1    1    2  501    0 -0.95793384407E+02 -0.19834906844E+03  0.10666577191E+04  0.11602919526E+04  0.40000000000E+03 0. -1.
   -9000007    1    1    2    0  503  0.95793384407E+02  0.19834906844E+03 -0.13869979058E+03  0.47723826057E+03  0.40000000000E+03 0.  1.
<mgrwt>
<rscale>  2 0.45663851E+03</rscale>
<asrwt>0</asrwt>
<pdfrwt beam="1">  1       21 0.19734524E+00 0.45663851E+03</pdfrwt>
<pdfrwt beam="2">  1       21 0.54582484E-01 0.45663851E+03</pdfrwt>
<totfact> 0.36124196E+02</totfact>
</mgrwt>
</event>
<event>
 4    1  0.5003329E-002  0.6222255E+03  0.7818608E-02  0.9860339E-01
         21   -1    0    0  501  502  0.00000000000E+00  0.00000000000E+00  0.11821761635E+04  0.11821761635E+04  0.00000000000E+00 0.  1.
         21   -1    0    0  502  503 -0.00000000000E+00 -0.00000000000E+00 -0.33404847224E+03  0.33404847224E+03  0.00000000000E+00 0. -1.
    9000007    1    1    2  501    0 -0.44738019324E+03  0.16436421073E+03  0.31793230965E+03  0.69874572241E+03  0.40000000000E+03 0.  1.
   -9000007    1    1    2    0  503  0.44738019324E+03 -0.16436421073E+03  0.53019538164E+03  0.81747891336E+03  0.40000000000E+03 0. -1.
<mgrwt>
<rscale>  2 0.62222555E+03</rscale>
<asrwt>0</asrwt>
<pdfrwt beam="1">  1       21 0.18187325E+00 0.62222555E+03</pdfrwt>
<pdfrwt beam="2">  1       21 0.51392073E-01 0.62222555E+03</pdfrwt>
<totfact> 0.49143150E+02</totfact>
</mgrwt>
</event>
<event>
 4    1  0.5003329E-002  0.6298230E+03  0.7818608E-02  0.9845394E-01
         21   -1    0    0  503  502  0.00000000000E+00  0.00000000000E+00  0.35496643610E+03  0.35496643610E+03  0.00000000000E+00 0. -1.
         21   -1    0    0  501  503 -0.00000000000E+00 -0.00000000000E+00 -0.12835182568E+04  0.12835182568E+04  0.00000000000E+00 0.  1.
    9000007    1    1    2  501    0  0.44537473207E+03  0.19575086065E+03 -0.75890912543E+03  0.98621504353E+03  0.40000000000E+03 0.  1.
   -9000007    1    1    2    0  502 -0.44537473207E+03 -0.19575086065E+03 -0.16964269525E+03  0.65226964935E+03  0.40000000000E+03 0. -1.
<mgrwt>
<rscale>  2 0.62982303E+03</rscale>
<asrwt>0</asrwt>
<pdfrwt beam="1">  1       21 0.54610222E-01 0.62982303E+03</pdfrwt>
<pdfrwt beam="2">  1       21 0.19746434E+00 0.62982303E+03</pdfrwt>
<totfact> 0.33505192E+02</totfact>
</mgrwt>
</event>
<event>
 4    1  0.5003329E-002  0.5364514E+03  0.7818608E-02  0.1004679E+00
         21   -1    0    0  503  502  0.00000000000E+00  0.00000000000E+00  0.46045112966E+03  0.46045112966E+03  0.00000000000E+00 0.  1.
         21   -1    0    0  501  503 -0.00000000000E+00 -0.00000000000E+00 -0.19216486316E+04  0.19216486316E+04  0.00000000000E+00 0.  1.
    9000007    1    1    2  501    0  0.88070685343E+02 -0.34644427152E+03 -0.17089725082E+04  0.17911915343E+04  0.40000000000E+03 0.  1.
   -9000007    1    1    2    0  502 -0.88070685343E+02  0.34644427152E+03  0.24777500628E+03  0.59090822690E+03  0.40000000000E+03 0.  1.
<mgrwt>
<rscale>  2 0.53645138E+03</rscale>
<asrwt>0</asrwt>
<pdfrwt beam="1">  1       21 0.70838635E-01 0.53645138E+03</pdfrwt>
<pdfrwt beam="2">  1       21 0.29563825E+00 0.53645138E+03</pdfrwt>
<totfact> 0.47230719E+01</totfact>
</mgrwt>
</event>
<event>
 4    1  0.5003329E-002  0.4546490E+03  0.7818608E-02  0.1026345E+00
         21   -1    0    0  503  502  0.00000000000E+00  0.00000000000E+00  0.19687899007E+03  0.19687899007E+03  0.00000000000E+00 0.  1.
         21   -1    0    0  501  503 -0.00000000000E+00 -0.00000000000E+00 -0.16622725642E+04  0.16622725642E+04  0.00000000000E+00 0.  1.
    9000007    1    1    2  501    0 -0.21225946170E+03  0.40640741181E+02 -0.12969019351E+04  0.13742854064E+04  0.40000000000E+03 0.  1.
   -9000007    1    1    2    0  502  0.21225946170E+03 -0.40640741181E+02 -0.16849163901E+03  0.48486614786E+03  0.40000000000E+03 0.  1.
<mgrwt>
<rscale>  2 0.45464904E+03</rscale>
<asrwt>0</asrwt>
<pdfrwt beam="1">  1       21 0.30289076E-01 0.45464904E+03</pdfrwt>
<pdfrwt beam="2">  1       21 0.25573424E+00 0.45464904E+03</pdfrwt>
<totfact> 0.51987586E+02</totfact>
</mgrwt>
</event>
<event>
 4    1  0.5003329E-002  0.4297904E+03  0.7818608E-02  0.1033926E+00
         21   -1    0    0  501  502  0.00000000000E+00  0.00000000000E+00  0.10824222951E+03  0.10824222951E+03  0.00000000000E+00 0. -1.
         21   -1    0    0  502  503 -0.00000000000E+00 -0.00000000000E+00 -0.19463956213E+04  0.19463956213E+04  0.00000000000E+00 0. -1.
    9000007    1    1    2  501    0  0.15417303887E+03 -0.30830191746E+02 -0.55844526629E+03  0.70468499493E+03  0.40000000000E+03 0. -1.
   -9000007    1    1    2    0  503 -0.15417303887E+03  0.30830191746E+02 -0.12797081255E+04  0.13499528559E+04  0.40000000000E+03 0. -1.
<mgrwt>
<rscale>  2 0.42979045E+03</rscale>
<asrwt>0</asrwt>
<pdfrwt beam="1">  1       21 0.16652650E-01 0.42979045E+03</pdfrwt>
<pdfrwt beam="2">  1       21 0.29944549E+00 0.42979045E+03</pdfrwt>
<totfact> 0.90831198E+02</totfact>
</mgrwt>
</event>
<event>
 4    1  0.5003329E-002  0.4600796E+03  0.7818608E-02  0.1024758E+00
         21   -1    0    0  501  502  0.00000000000E+00  0.00000000000E+00  0.18923570593E+03  0.18923570593E+03  0.00000000000E+00 0. -1.
         21   -1    0    0  502  503 -0.00000000000E+00 -0.00000000000E+00 -0.11310460274E+04  0.11310460274E+04  0.00000000000E+00 0. -1.
    9000007    1    1    2  501    0  0.20833424583E+03  0.90939942840E+02 -0.54023954398E+03  0.70959988449E+03  0.40000000000E+03 0. -1.
   -9000007    1    1    2    0  503 -0.20833424583E+03 -0.90939942840E+02 -0.40157077752E+03  0.61068184888E+03  0.40000000000E+03 0. -1.
<mgrwt>
<rscale>  2 0.46007959E+03</rscale>
<asrwt>0</asrwt>
<pdfrwt beam="1">  1       21 0.29113186E-01 0.46007959E+03</pdfrwt>
<pdfrwt beam="2">  1       21 0.17400708E+00 0.46007959E+03</pdfrwt>
<totfact> 0.19152171E+03</totfact>
</mgrwt>
</event>
<event>
 4    1  0.5003329E-002  0.4717451E+03  0.7818608E-02  0.1021429E+00
         21   -1    0    0  503  502  0.00000000000E+00  0.00000000000E+00  0.10691408148E+04  0.10691408148E+04  0.00000000000E+00 0. -1.
         21   -1    0    0  501  503 -0.00000000000E+00 -0.00000000000E+00 -0.31642475799E+03  0.31642475799E+03  0.00000000000E+00 0.  1.
    9000007    1    1    2  501    0  0.23327051824E+03 -0.90156953354E+02 -0.28891191442E+02  0.47262893676E+03  0.40000000000E+03 0.  1.
   -9000007    1    1    2    0  502 -0.23327051824E+03  0.90156953354E+02  0.78160724829E+03  0.91293663608E+03  0.40000000000E+03 0. -1.
<mgrwt>
<rscale>  2 0.47174507E+03</rscale>
<asrwt>0</asrwt>
<pdfrwt beam="1">  1       21 0.16448320E+00 0.47174507E+03</pdfrwt>
<pdfrwt beam="2">  1       21 0.48680732E-01 0.47174507E+03</pdfrwt>
<totfact> 0.78104886E+02</totfact>
</mgrwt>
</event>
<event>
 4    1  0.5003329E-002  0.4502467E+03  0.7818608E-02  0.1027649E+00
         21   -1    0    0  501  502  0.00000000000E+00  0.00000000000E+00  0.13820374077E+03  0.13820374077E+03  0.00000000000E+00 0. -1.
         21   -1    0    0  502  503 -0.00000000000E+00 -0.00000000000E+00 -0.14852260792E+04  0.14852260792E+04  0.00000000000E+00 0.  1.
    9000007    1    1    2  501    0 -0.19596426163E+03  0.65727149585E+02 -0.58318496559E+03  0.73676777489E+03  0.40000000000E+03 0. -1.
   -9000007    1    1    2    0  503  0.19596426163E+03 -0.65727149585E+02 -0.76383737284E+03  0.88666204507E+03  0.40000000000E+03 0.  1.
<mgrwt>
<rscale>  2 0.45024665E+03</rscale>
<asrwt>0</asrwt>
<pdfrwt beam="1">  1       21 0.21262115E-01 0.45024665E+03</pdfrwt>
<pdfrwt beam="2">  1       21 0.22849631E+00 0.45024665E+03</pdfrwt>
<totfact> 0.15327373E+03</totfact>
</mgrwt>
</event>
<event>
 4    1  0.5003329E-002  0.4940350E+03  0.7818608E-02  0.1015348E+00
         21   -1    0    0  501  502  0.00000000000E+00  0.00000000000E+00  0.31566649090E+03  0.31566649090E+03  0.00000000000E+00 0. -1.
         21   -1    0    0  502  503 -0.00000000000E+00 -0.00000000000E+00 -0.14936208112E+04  0.14936208112E+04  0.00000000000E+00 0.  1.
    9000007    1    1    2  501    0 -0.21094876646E+03 -0.19892519978E+03  0.39302612026E+02  0.49559591654E+03  0.40000000000E+03 0. -1.
   -9000007    1    1    2    0  503  0.21094876646E+03  0.19892519978E+03 -0.12172569323E+04  0.13136913855E+04  0.40000000000E+03 0.  1.
<mgrwt>
<rscale>  2 0.49403504E+03</rscale>
<asrwt>0</asrwt>
<pdfrwt beam="1">  1       21 0.48564075E-01 0.49403504E+03</pdfrwt>
<pdfrwt beam="2">  1       21 0.22978782E+00 0.49403504E+03</pdfrwt>
<totfact> 0.28016303E+02</totfact>
</mgrwt>
</event>
<event>
 4    1  0.5003329E-002  0.4693052E+03  0.7818608E-02  0.1022116E+00
         21   -1    0    0  501  502  0.00000000000E+00  0.00000000000E+00  0.31380217335E+04  0.31380217335E+04  0.00000000000E+00 0.  1.
         21   -1    0    0  502  503 -0.00000000000E+00 -0.00000000000E+00 -0.87646316772E+02  0.87646316772E+02  0.00000000000E+00 0. -1.
    9000007    1    1    2  501    0 -0.13922498914E+03  0.20214790889E+03  0.22450348030E+04  0.22935624346E+04  0.40000000000E+03 0.  1.
   -9000007    1    1    2    0  503  0.13922498914E+03 -0.20214790889E+03  0.80534061371E+03  0.93210561567E+03  0.40000000000E+03 0. -1.
<mgrwt>
<rscale>  2 0.46930520E+03</rscale>
<asrwt>0</asrwt>
<pdfrwt beam="1">  1       21 0.48277249E+00 0.46930520E+03</pdfrwt>
<pdfrwt beam="2">  1       21 0.13484051E-01 0.46930520E+03</pdfrwt>
<totfact> 0.87649232E+01</totfact>
</mgrwt>
</event>
<event>
 4    1  0.5003329E-002  0.5079326E+03  0.7818608E-02  0.1011729E+00
         21   -1    0    0  501  502  0.00000000000E+00  0.00000000000E+00  0.24253344275E+04  0.24253344275E+04  0.00000000000E+00 0.  1.
         21   -1    0    0  502  503 -0.00000000000E+00 -0.00000000000E+00 -0.32903265343E+03  0.32903265343E+03  0.00000000000E+00 0.  1.
    9000007    1    1    2  501    0 -0.27075279547E+03 -0.15712568021E+03  0.21810491057E+04  0.22394130385E+04  0.40000000000E+03 0.  1.
   -9000007    1    1    2    0  503  0.27075279547E+03  0.15712568021E+03 -0.84747331581E+02  0.51495404246E+03  0.40000000000E+03 0.  1.
<mgrwt>
<rscale>  2 0.50793263E+03</rscale>
<asrwt>0</asrwt>
<pdfrwt beam="1">  1       21 0.37312836E+00 0.50793263E+03</pdfrwt>
<pdfrwt beam="2">  1       21 0.50620410E-01 0.50793263E+03</pdfrwt>
<totfact> 0.33674733E+01</totfact>
</mgrwt>
</event>
<event>
 4    1  0.5003329E-002  0.4310200E+03  0.7818608E-02  0.1033538E+00
         21   -1    0    0  503  502  0.00000000000E+00  0.00000000000E+00  0.73863864443E+02  0.73863864443E+02  0.00000000000E+00 0.  1.
         21   -1    0    0  501  503 -0.00000000000E+00 -0.00000000000E+00 -0.25793494851E+04  0.25793494851E+04  0.00000000000E+00 0.  1.
    9000007    1    1    2  501    0 -0.27649443131E+01  0.16053234224E+03 -0.14620442064E+04  0.15242544208E+04  0.40000000000E+03 0.  1.
   -9000007    1    1    2    0  502  0.27649443131E+01 -0.16053234224E+03 -0.10434414142E+04  0.11289589287E+04  0.40000000000E+03 0.  1.
<mgrwt>
<rscale>  2 0.43102004E+03</rscale>
<asrwt>0</asrwt>
<pdfrwt beam="1">  1       21 0.11363671E-01 0.43102004E+03</pdfrwt>
<pdfrwt beam="2">  1       21 0.39682302E+00 0.43102004E+03</pdfrwt>
<totfact> 0.46268575E+02</totfact>
</mgrwt>
</event>
<event>
 4    1  0.5003329E-002  0.4257094E+03  0.7818608E-02  0.1035224E+00
         21   -1    0    0  501  502  0.00000000000E+00  0.00000000000E+00  0.53658723393E+03  0.53658723393E+03  0.00000000000E+00 0. -1.
         21   -1    0    0  502  503 -0.00000000000E+00 -0.00000000000E+00 -0.33869176548E+03  0.33869176548E+03  0.00000000000E+00 0. -1.
    9000007    1    1    2  501    0  0.13805155655E+03  0.46585831180E+02  0.12211317873E+03  0.44287707138E+03  0.40000000000E+03 0.  1.
   -9000007    1    1    2    0  503 -0.13805155655E+03 -0.46585831180E+02  0.75782289725E+02  0.43240192803E+03  0.40000000000E+03 0.  1.
<mgrwt>
<rscale>  2 0.42570937E+03</rscale>
<asrwt>0</asrwt>
<pdfrwt beam="1">  1       21 0.82551882E-01 0.42570937E+03</pdfrwt>
<pdfrwt beam="2">  1       21 0.52106425E-01 0.42570937E+03</pdfrwt>
<totfact> 0.39523022E+03</totfact>
</mgrwt>
</event>
<event>
 4    1  0.5003329E-002  0.4083163E+03  0.7818608E-02  0.1040937E+00
         21   -1    0    0  501  502  0.00000000000E+00  0.00000000000E+00  0.18657543913E+03  0.18657543913E+03  0.00000000000E+00 0. -1.
         21   -1    0    0  502  503 -0.00000000000E+00 -0.00000000000E+00 -0.10490226488E+04  0.10490226488E+04  0.00000000000E+00 0. -1.
    9000007    1    1    2  501    0 -0.78348829329E+02  0.24158970237E+02 -0.19341691669E+03  0.45181002486E+03  0.40000000000E+03 0.  1.
   -9000007    1    1    2    0  503  0.78348829329E+02 -0.24158970237E+02 -0.66903029298E+03  0.78378806308E+03  0.40000000000E+03 0.  1.
<mgrwt>
<rscale>  2 0.40831629E+03</rscale>
<asrwt>0</asrwt>
<pdfrwt beam="1">  1       21 0.28703913E-01 0.40831629E+03</pdfrwt>
<pdfrwt beam="2">  1       21 0.16138810E+00 0.40831629E+03</pdfrwt>
<totfact> 0.24901662E+03</totfact>
</mgrwt>
</event>
<event>
 4    1  0.5003329E-002  0.5489313E+03  0.7818608E-02  0.1001742E+00
         21   -1    0    0  501  502  0.00000000000E+00  0.00000000000E+00  0.44963911219E+03  0.44963911219E+03  0.00000000000E+00 0.  1.
         21   -1    0    0  502  503 -0.00000000000E+00 -0.00000000000E+00 -0.11710751610E+04  0.11710751610E+04  0.00000000000E+00 0. -1.
    9000007    1    1    2  501    0 -0.25447439050E+03 -0.27670985659E+03  0.16927552924E+03  0.57443865204E+03  0.40000000000E+03 0. -1.
   -9000007    1    1    2    0  503  0.25447439050E+03  0.27670985659E+03 -0.89071157806E+03  0.10462756212E+04  0.40000000000E+03 0. -1.
<mgrwt>
<rscale>  2 0.54893129E+03</rscale>
<asrwt>0</asrwt>
<pdfrwt beam="1">  1       21 0.69175248E-01 0.54893129E+03</pdfrwt>
<pdfrwt beam="2">  1       21 0.18016541E+00 0.54893129E+03</pdfrwt>
<totfact> 0.26990909E+02</totfact>
</mgrwt>
</event>
<event>
 4    1  0.5003329E-002  0.4668899E+03  0.7818608E-02  0.1022802E+00
         21   -1    0    0  503  502  0.00000000000E+00  0.00000000000E+00  0.74853984432E+03  0.74853984432E+03  0.00000000000E+00 0. -1.
         21   -1    0    0  501  503 -0.00000000000E+00 -0.00000000000E+00 -0.33809924181E+03  0.33809924181E+03  0.00000000000E+00 0. -1.
    9000007    1    1    2  501    0  0.23314694905E+03  0.60238635420E+02  0.28971070770E+01  0.46689890370E+03  0.40000000000E+03 0. -1.
   -9000007    1    1    2    0  502 -0.23314694905E+03 -0.60238635420E+02  0.40754349544E+03  0.61974018243E+03  0.40000000000E+03 0. -1.
<mgrwt>
<rscale>  2 0.46688992E+03</rscale>
<asrwt>0</asrwt>
<pdfrwt beam="1">  1       21 0.11515998E+00 0.46688992E+03</pdfrwt>
<pdfrwt beam="2">  1       21 0.52015268E-01 0.46688992E+03</pdfrwt>
<totfact> 0.17492804E+03</totfact>
</mgrwt>
</event>
<event>
 4    1  0.5003329E-002  0.4803535E+03  0.7818608E-02  0.1019038E+00
         21   -1    0    0  501  502  0.00000000000E+00  0.00000000000E+00  0.14676852184E+04  0.14676852184E+04  0.00000000000E+00 0. -1.
         21   -1    0    0  502  503 -0.00000000000E+00 -0.00000000000E+00 -0.16955603610E+03  0.16955603610E+03  0.00000000000E+00 0. -1.
    9000007    1    1    2  501    0 -0.40467504425E+02  0.26287242670E+03  0.86993271157E+03  0.99374164363E+03  0.40000000000E+03 0. -1.
   -9000007    1    1    2    0  503  0.40467504425E+02 -0.26287242670E+03  0.42819647069E+03  0.64349961083E+03  0.40000000000E+03 0. -1.
<mgrwt>
<rscale>  2 0.48035355E+03</rscale>
<asrwt>0</asrwt>
<pdfrwt beam="1">  1       21 0.22579772E+00 0.48035355E+03</pdfrwt>
<pdfrwt beam="2">  1       21 0.26085545E-01 0.48035355E+03</pdfrwt>
<totfact> 0.10585547E+03</totfact>
</mgrwt>
</event>
<event>
 4    1  0.5003329E-002  0.4527836E+03  0.7818608E-02  0.1026895E+00
         21   -1    0    0  501  502  0.00000000000E+00  0.00000000000E+00  0.20743450863E+03  0.20743450863E+03  0.00000000000E+00 0. -1.
         21   -1    0    0  502  503 -0.00000000000E+00 -0.00000000000E+00 -0.12121694368E+04  0.12121694368E+04  0.00000000000E+00 0. -1.
    9000007    1    1    2  501    0 -0.13459266939E+03 -0.16400542184E+03 -0.80738689081E+03  0.92568167126E+03  0.40000000000E+03 0. -1.
   -9000007    1    1    2    0  503  0.13459266939E+03  0.16400542184E+03 -0.19734803731E+03  0.49392227412E+03  0.40000000000E+03 0. -1.
<mgrwt>
<rscale>  2 0.45278357E+03</rscale>
<asrwt>0</asrwt>
<pdfrwt beam="1">  1       21 0.31913001E-01 0.45278357E+03</pdfrwt>
<pdfrwt beam="2">  1       21 0.18648760E+00 0.45278357E+03</pdfrwt>
<totfact> 0.13065860E+03</totfact>
</mgrwt>
</event>
<event>
 4    1  0.5003329E-002  0.4245944E+03  0.7818608E-02  0.1035581E+00
         21   -1    0    0  503  502  0.00000000000E+00  0.00000000000E+00  0.13109333652E+04  0.13109333652E+04  0.00000000000E+00 0. -1.
         21   -1    0    0  501  503 -0.00000000000E+00 -0.00000000000E+00 -0.23935483767E+03  0.23935483767E+03  0.00000000000E+00 0. -1.
    9000007    1    1    2  501    0 -0.81676970474E+02 -0.11665889968E+03  0.30188042431E+02  0.42566623578E+03  0.40000000000E+03 0. -1.
   -9000007    1    1    2    0  502  0.81676970474E+02  0.11665889968E+03  0.10413904851E+04  0.11246219671E+04  0.40000000000E+03 0. -1.
<mgrwt>
<rscale>  2 0.42459443E+03</rscale>
<asrwt>0</asrwt>
<pdfrwt beam="1">  1       21 0.20168205E+00 0.42459443E+03</pdfrwt>
<pdfrwt beam="2">  1       21 0.36823822E-01 0.42459443E+03</pdfrwt>
<totfact> 0.78277215E+02</totfact>
</mgrwt>
</event>
<event>
 4    1  0.5003329E-002  0.4274709E+03  0.7818608E-02  0.1034662E+00
         21   -1    0    0  501  502  0.00000000000E+00  0.00000000000E+00  0.51394798979E+03  0.51394798979E+03  0.00000000000E+00 0.  1.
         21   -1    0    0  502  503 -0.00000000000E+00 -0.00000000000E+00 -0.91671910592E+03  0.91671910592E+03  0.00000000000E+00 0.  1.
    9000007    1    1    2  501    0  0.14968067681E+03 -0.18085465695E+02  0.35829400767E+03  0.55776875585E+03  0.40000000000E+03 0.  1.
   -9000007    1    1    2    0  503 -0.14968067681E+03  0.18085465695E+02 -0.76106512379E+03  0.87289833986E+03  0.40000000000E+03 0.  1.
<mgrwt>
<rscale>  2 0.42747092E+03</rscale>
<asrwt>0</asrwt>
<pdfrwt beam="1">  1       21 0.79068923E-01 0.42747092E+03</pdfrwt>
<pdfrwt beam="2">  1       21 0.14103371E+00 0.42747092E+03</pdfrwt>
<totfact> 0.41636447E+02</totfact>
</mgrwt>
</event>
<event>
 4    1  0.5003329E-002  0.4652263E+03  0.7818608E-02  0.1023276E+00
         21   -1    0    0  501  502  0.00000000000E+00  0.00000000000E+00  0.33566422512E+03  0.33566422512E+03  0.00000000000E+00 0. -1.
         21   -1    0    0  502  503 -0.00000000000E+00 -0.00000000000E+00 -0.65421924477E+03  0.65421924477E+03  0.00000000000E+00 0. -1.
    9000007    1    1    2  501    0 -0.20023783812E+03  0.12782920859E+03 -0.21867320687E+03  0.51405590142E+03  0.40000000000E+03 0. -1.
   -9000007    1    1    2    0  503  0.20023783812E+03 -0.12782920859E+03 -0.99881812774E+02  0.47582756846E+03  0.40000000000E+03 0. -1.
<mgrwt>
<rscale>  2 0.46522629E+03</rscale>
<asrwt>0</asrwt>
<pdfrwt beam="1">  1       21 0.51640651E-01 0.46522629E+03</pdfrwt>
<pdfrwt beam="2">  1       21 0.10064911E+00 0.46522629E+03</pdfrwt>
<totfact> 0.24806113E+03</totfact>
</mgrwt>
</event>
<event>
 4    1  0.5003329E-002  0.4464860E+03  0.7818608E-02  0.1028775E+00
         21   -1    0    0  503  502  0.00000000000E+00  0.00000000000E+00  0.13680435026E+04  0.13680435026E+04  0.00000000000E+00 0. -1.
         21   -1    0    0  501  503 -0.00000000000E+00 -0.00000000000E+00 -0.19922173591E+03  0.19922173591E+03  0.00000000000E+00 0. -1.
    9000007    1    1    2  501    0 -0.38629116946E+02  0.19457007804E+03  0.17831110207E+03  0.48077497134E+03  0.40000000000E+03 0. -1.
   -9000007    1    1    2    0  502  0.38629116946E+02 -0.19457007804E+03  0.99051066464E+03  0.10864902672E+04  0.40000000000E+03 0. -1.
<mgrwt>
<rscale>  2 0.44648597E+03</rscale>
<asrwt>0</asrwt>
<pdfrwt beam="1">  1       21 0.21046823E+00 0.44648597E+03</pdfrwt>
<pdfrwt beam="2">  1       21 0.30649499E-01 0.44648597E+03</pdfrwt>
<totfact> 0.98122633E+02</totfact>
</mgrwt>
</event>
<event>
 4    1  0.5003329E-002  0.5099961E+03  0.7818608E-02  0.1011202E+00
         21   -1    0    0  501  502  0.00000000000E+00  0.00000000000E+00  0.60624728105E+03  0.60624728105E+03  0.00000000000E+00 0. -1.
         21   -1    0    0  502  503 -0.00000000000E+00 -0.00000000000E+00 -0.52622159037E+03  0.52622159037E+03  0.00000000000E+00 0.  1.
    9000007    1    1    2  501    0  0.17146497238E+03 -0.26588670580E+03  0.28336474688E+03  0.58343085010E+03  0.40000000000E+03 0.  1.
   -9000007    1    1    2    0  503 -0.17146497238E+03  0.26588670580E+03 -0.20333905619E+03  0.54903802131E+03  0.40000000000E+03 0. -1.
<mgrwt>
<rscale>  2 0.50999606E+03</rscale>
<asrwt>0</asrwt>
<pdfrwt beam="1">  1       21 0.93268812E-01 0.50999606E+03</pdfrwt>
<pdfrwt beam="2">  1       21 0.80957168E-01 0.50999606E+03</pdfrwt>
<totfact> 0.10783743E+03</totfact>
</mgrwt>
</event>
<event>
 4    1  0.5003329E-002  0.5991618E+03  0.7818608E-02  0.9907147E-01
         21   -1    0    0  503  502  0.00000000000E+00  0.00000000000E+00  0.88000145748E+03  0.88000145748E+03  0.00000000000E+00 0.  1.
         21   -1    0    0  501  503 -0.00000000000E+00 -0.00000000000E+00 -0.62433646762E+03  0.62433646762E+03  0.00000000000E+00 0.  1.
    9000007    1    1    2  501    0  0.44589344180E+03  0.13186198514E+02 -0.31498330659E+03  0.67691160479E+03  0.40000000000E+03 0.  1.
   -9000007    1    1    2    0  502 -0.44589344180E+03 -0.13186198514E+02  0.57064829645E+03  0.82742632030E+03  0.40000000000E+03 0.  1.
<mgrwt>
<rscale>  2 0.59916178E+03</rscale>
<asrwt>0</asrwt>
<pdfrwt beam="1">  1       21 0.13538484E+00 0.59916178E+03</pdfrwt>
<pdfrwt beam="2">  1       21 0.96051764E-01 0.59916178E+03</pdfrwt>
<totfact> 0.27282117E+02</totfact>
</mgrwt>
</event>
<event>
 4    1  0.5003329E-002  0.4413654E+03  0.7818608E-02  0.1030329E+00
         21   -1    0    0  503  502  0.00000000000E+00  0.00000000000E+00  0.25727886686E+03  0.25727886686E+03  0.00000000000E+00 0.  1.
         21   -1    0    0  501  503 -0.00000000000E+00 -0.00000000000E+00 -0.78405679215E+03  0.78405679215E+03  0.00000000000E+00 0. -1.
    9000007    1    1    2  501    0 -0.13834108694E+03 -0.12516060899E+03 -0.16696850249E+03  0.47189184693E+03  0.40000000000E+03 0.  1.
   -9000007    1    1    2    0  502  0.13834108694E+03  0.12516060899E+03 -0.35980942279E+03  0.56944381207E+03  0.40000000000E+03 0. -1.
<mgrwt>
<rscale>  2 0.44136542E+03</rscale>
<asrwt>0</asrwt>
<pdfrwt beam="1">  1       21 0.39581365E-01 0.44136542E+03</pdfrwt>
<pdfrwt beam="2">  1       21 0.12062412E+00 0.44136542E+03</pdfrwt>
<totfact> 0.27870302E+03</totfact>
</mgrwt>
</event>
<event>
 4    1  0.5003329E-002  0.4147892E+03  0.7818608E-02  0.1038776E+00
         21   -1    0    0  501  502  0.00000000000E+00  0.00000000000E+00  0.43635976103E+03  0.43635976103E+03  0.00000000000E+00 0. -1.
         21   -1    0    0  502  503 -0.00000000000E+00 -0.00000000000E+00 -0.40158039069E+03  0.40158039069E+03  0.00000000000E+00 0. -1.
    9000007    1    1    2  501    0  0.99651597028E+02  0.46039961184E+02  0.73860014663E+02  0.42131392166E+03  0.40000000000E+03 0. -1.
   -9000007    1    1    2    0  503 -0.99651597028E+02 -0.46039961184E+02 -0.39080644323E+02  0.41662623006E+03  0.40000000000E+03 0. -1.
<mgrwt>
<rscale>  2 0.41478925E+03</rscale>
<asrwt>0</asrwt>
<pdfrwt beam="1">  1       21 0.67132271E-01 0.41478925E+03</pdfrwt>
<pdfrwt beam="2">  1       21 0.61781599E-01 0.41478925E+03</pdfrwt>
<totfact> 0.43904562E+03</totfact>
</mgrwt>
</event>
<event>
 4    1  0.5003329E-002  0.4070691E+03  0.7818608E-02  0.1041359E+00
         21   -1    0    0  501  502  0.00000000000E+00  0.00000000000E+00  0.10285205318E+04  0.10285205318E+04  0.00000000000E+00 0.  1.
         21   -1    0    0  502  503 -0.00000000000E+00 -0.00000000000E+00 -0.28000777694E+03  0.28000777694E+03  0.00000000000E+00 0.  1.
    9000007    1    1    2  501    0  0.47748925945E+02  0.58526070802E+02  0.80059471045E+03  0.89814094178E+03  0.40000000000E+03 0.  1.
   -9000007    1    1    2    0  503 -0.47748925945E+02 -0.58526070802E+02 -0.52081955557E+02  0.41038736699E+03  0.40000000000E+03 0.  1.
<mgrwt>
<rscale>  2 0.40706911E+03</rscale>
<asrwt>0</asrwt>
<pdfrwt beam="1">  1       21 0.15823393E+00 0.40706911E+03</pdfrwt>
<pdfrwt beam="2">  1       21 0.43078120E-01 0.40706911E+03</pdfrwt>
<totfact> 0.11580098E+03</totfact>
</mgrwt>
</event>
<event>
 4    1  0.5003329E-002  0.6336039E+03  0.7818608E-02  0.9838041E-01
         21   -1    0    0  501  502  0.00000000000E+00  0.00000000000E+00  0.39657293429E+03  0.39657293429E+03  0.00000000000E+00 0.  1.
         21   -1    0    0  502  503 -0.00000000000E+00 -0.00000000000E+00 -0.10945125887E+04  0.10945125887E+04  0.00000000000E+00 0. -1.
    9000007    1    1    2  501    0  0.38778494402E+03  0.30178920581E+03 -0.14464993529E+03  0.64990575573E+03  0.40000000000E+03 0. -1.
   -9000007    1    1    2    0  503 -0.38778494402E+03 -0.30178920581E+03 -0.55328971909E+03  0.84117976723E+03  0.40000000000E+03 0.  1.
<mgrwt>
<rscale>  2 0.63360389E+03</rscale>
<asrwt>0</asrwt>
<pdfrwt beam="1">  1       21 0.61011222E-01 0.63360389E+03</pdfrwt>
<pdfrwt beam="2">  1       21 0.16838655E+00 0.63360389E+03</pdfrwt>
<totfact> 0.42171002E+02</totfact>
</mgrwt>
</event>
<event>
 4    1  0.5003329E-002  0.5423462E+03  0.7818608E-02  0.1003281E+00
         21   -1    0    0  501  502  0.00000000000E+00  0.00000000000E+00  0.53781512573E+03  0.53781512573E+03  0.00000000000E+00 0.  1.
         21   -1    0    0  502  503 -0.00000000000E+00 -0.00000000000E+00 -0.69209153043E+03  0.69209153043E+03  0.00000000000E+00 0. -1.
    9000007    1    1    2  501    0 -0.16975752534E+02 -0.36585678094E+03  0.20451068303E+03  0.57962399865E+03  0.40000000000E+03 0.  1.
   -9000007    1    1    2    0  503  0.16975752534E+02  0.36585678094E+03 -0.35878708773E+03  0.65028265751E+03  0.40000000000E+03 0. -1.
<mgrwt>
<rscale>  2 0.54234616E+03</rscale>
<asrwt>0</asrwt>
<pdfrwt beam="1">  1       21 0.82740789E-01 0.54234616E+03</pdfrwt>
<pdfrwt beam="2">  1       21 0.10647562E+00 0.54234616E+03</pdfrwt>
<totfact> 0.73376657E+02</totfact>
</mgrwt>
</event>
<event>
 4    1  0.5003329E-002  0.5263663E+03  0.7818608E-02  0.1007117E+00
         21   -1    0    0  501  502  0.00000000000E+00  0.00000000000E+00  0.60311639413E+03  0.60311639413E+03  0.00000000000E+00 0.  1.
         21   -1    0    0  502  503 -0.00000000000E+00 -0.00000000000E+00 -0.48344879498E+03  0.48344879498E+03  0.00000000000E+00 0. -1.
    9000007    1    1    2  501    0  0.32013631080E+03  0.12072380406E+03  0.18104688933E+03  0.55663225786E+03  0.40000000000E+03 0.  1.
   -9000007    1    1    2    0  503 -0.32013631080E+03 -0.12072380406E+03 -0.61379290174E+02  0.52993293125E+03  0.40000000000E+03 0.  1.
<mgrwt>
<rscale>  2 0.52636631E+03</rscale>
<asrwt>0</asrwt>
<pdfrwt beam="1">  1       21 0.92787137E-01 0.52636631E+03</pdfrwt>
<pdfrwt beam="2">  1       21 0.74376738E-01 0.52636631E+03</pdfrwt>
<totfact> 0.13199122E+03</totfact>
</mgrwt>
</event>
<event>
 4    1  0.5003329E-002  0.4946780E+03  0.7818608E-02  0.1015177E+00
         21   -1    0    0  503  502  0.00000000000E+00  0.00000000000E+00  0.23923740498E+04  0.23923740498E+04  0.00000000000E+00 0. -1.
         21   -1    0    0  501  503 -0.00000000000E+00 -0.00000000000E+00 -0.23202404685E+03  0.23202404685E+03  0.00000000000E+00 0.  1.
    9000007    1    1    2  501    0  0.16800630999E+02 -0.29055823847E+03  0.98953825587E+02  0.50447815685E+03  0.40000000000E+03 0.  1.
   -9000007    1    1    2    0  502 -0.16800630999E+02  0.29055823847E+03  0.20613961774E+04  0.21199199398E+04  0.40000000000E+03 0. -1.
<mgrwt>
<rscale>  2 0.49467803E+03</rscale>
<asrwt>0</asrwt>
<pdfrwt beam="1">  1       21 0.36805753E+00 0.49467803E+03</pdfrwt>
<pdfrwt beam="2">  1       21 0.35696009E-01 0.49467803E+03</pdfrwt>
<totfact> 0.75628971E+01</totfact>
</mgrwt>
</event>
<event>
 4    1  0.5003329E-002  0.4438303E+03  0.7818608E-02  0.1029578E+00
         21   -1    0    0  503  502  0.00000000000E+00  0.00000000000E+00  0.37518929183E+03  0.37518929183E+03  0.00000000000E+00 0. -1.
         21   -1    0    0  501  503 -0.00000000000E+00 -0.00000000000E+00 -0.72557607479E+03  0.72557607479E+03  0.00000000000E+00 0.  1.
    9000007    1    1    2  501    0 -0.12658034174E+03  0.14478530028E+03 -0.46454849071E+03  0.64248787251E+03  0.40000000000E+03 0.  1.
   -9000007    1    1    2    0  502  0.12658034174E+03 -0.14478530028E+03  0.11416170775E+03  0.45827749411E+03  0.40000000000E+03 0. -1.
<mgrwt>
<rscale>  2 0.44383033E+03</rscale>
<asrwt>0</asrwt>
<pdfrwt beam="1">  1       21 0.57721430E-01 0.44383033E+03</pdfrwt>
<pdfrwt beam="2">  1       21 0.11162709E+00 0.44383033E+03</pdfrwt>
<totfact> 0.15238318E+03</totfact>
</mgrwt>
</event>
<event>
 4    1  0.5003329E-002  0.4337220E+03  0.7818608E-02  0.1032691E+00
         21   -1    0    0  501  502  0.00000000000E+00  0.00000000000E+00  0.10230232799E+04  0.10230232799E+04  0.00000000000E+00 0.  1.
         21   -1    0    0  502  503 -0.00000000000E+00 -0.00000000000E+00 -0.28266297886E+03  0.28266297886E+03  0.00000000000E+00 0.  1.
    9000007    1    1    2  501    0 -0.10549281647E+03  0.13033053439E+03  0.75611386557E+03  0.87167824352E+03  0.40000000000E+03 0.  1.
   -9000007    1    1    2    0  503  0.10549281647E+03 -0.13033053439E+03 -0.15753564508E+02  0.43400801527E+03  0.40000000000E+03 0.  1.
<mgrwt>
<rscale>  2 0.43372201E+03</rscale>
<asrwt>0</asrwt>
<pdfrwt beam="1">  1       21 0.15738819E+00 0.43372201E+03</pdfrwt>
<pdfrwt beam="2">  1       21 0.43486613E-01 0.43372201E+03</pdfrwt>
<totfact> 0.11385385E+03</totfact>
</mgrwt>
</event>
<event>
 4    1  0.5003329E-002  0.5735506E+03  0.7818608E-02  0.9961852E-01
         21   -1    0    0  503  502  0.00000000000E+00  0.00000000000E+00  0.12546319246E+04  0.12546319246E+04  0.00000000000E+00 0.  1.
         21   -1    0    0  501  503 -0.00000000000E+00 -0.00000000000E+00 -0.31634453639E+03  0.31634453639E+03  0.00000000000E+00 0.  1.
    9000007    1    1    2  501    0  0.34001290063E+03  0.23097958818E+03  0.14416859021E+03  0.59139236143E+03  0.40000000000E+03 0.  1.
   -9000007    1    1    2    0  502 -0.34001290063E+03 -0.23097958818E+03  0.79411879796E+03  0.97958409951E+03  0.40000000000E+03 0.  1.
<mgrwt>
<rscale>  2 0.57355065E+03</rscale>
<asrwt>0</asrwt>
<pdfrwt beam="1">  1       21 0.19302029E+00 0.57355065E+03</pdfrwt>
<pdfrwt beam="2">  1       21 0.48668391E-01 0.57355065E+03</pdfrwt>
<totfact> 0.46983332E+02</totfact>
</mgrwt>
</event>
<event>
 4    1  0.5003329E-002  0.4821924E+03  0.7818608E-02  0.1018534E+00
         21   -1    0    0  503  502  0.00000000000E+00  0.00000000000E+00  0.52156894886E+03  0.52156894886E+03  0.00000000000E+00 0.  1.
         21   -1    0    0  501  503 -0.00000000000E+00 -0.00000000000E+00 -0.53980055432E+03  0.53980055432E+03  0.00000000000E+00 0.  1.
    9000007    1    1    2  501    0  0.68050388483E+02 -0.26053526477E+03 -0.23058408605E+03  0.53448900859E+03  0.40000000000E+03 0.  1.
   -9000007    1    1    2    0  502 -0.68050388483E+02  0.26053526477E+03  0.21235248059E+03  0.52688049459E+03  0.40000000000E+03 0.  1.
<mgrwt>
<rscale>  2 0.48219237E+03</rscale>
<asrwt>0</asrwt>
<pdfrwt beam="1">  1       21 0.80241377E-01 0.48219237E+03</pdfrwt>
<pdfrwt beam="2">  1       21 0.83046239E-01 0.48219237E+03</pdfrwt>
<totfact> 0.14628371E+03</totfact>
</mgrwt>
</event>
<event>
 4    1  0.5003329E-002  0.4002023E+03  0.7818608E-02  0.1043710E+00
         21   -1    0    0  503  502  0.00000000000E+00  0.00000000000E+00  0.72106273008E+03  0.72106273008E+03  0.00000000000E+00 0.  1.
         21   -1    0    0  501  503 -0.00000000000E+00 -0.00000000000E+00 -0.36208709229E+03  0.36208709229E+03  0.00000000000E+00 0.  1.
    9000007    1    1    2  501    0 -0.74258467459E+01  0.10330593787E+02 -0.15723011937E+03  0.42998043538E+03  0.40000000000E+03 0.  1.
   -9000007    1    1    2    0  502  0.74258467459E+01 -0.10330593787E+02  0.51620575717E+03  0.65316938699E+03  0.40000000000E+03 0.  1.
<mgrwt>
<rscale>  2 0.40020228E+03</rscale>
<asrwt>0</asrwt>
<pdfrwt beam="1">  1       21 0.11093273E+00 0.40020228E+03</pdfrwt>
<pdfrwt beam="2">  1       21 0.55705707E-01 0.40020228E+03</pdfrwt>
<totfact> 0.17023250E+03</totfact>
</mgrwt>
</event>
<event>
 4    1  0.5003329E-002  0.4344600E+03  0.7818608E-02  0.1032460E+00
         21   -1    0    0  503  502  0.00000000000E+00  0.00000000000E+00  0.52861984760E+03  0.52861984760E+03  0.00000000000E+00 0.  1.
         21   -1    0    0  501  503 -0.00000000000E+00 -0.00000000000E+00 -0.10355776840E+04  0.10355776840E+04  0.00000000000E+00 0.  1.
    9000007    1    1    2  501    0  0.12438943389E+03 -0.11525074524E+03 -0.88654191877E+03  0.98727505756E+03  0.40000000000E+03 0.  1.
   -9000007    1    1    2    0  502 -0.12438943389E+03  0.11525074524E+03  0.37958408233E+03  0.57692247408E+03  0.40000000000E+03 0.  1.
<mgrwt>
<rscale>  2 0.43445997E+03</rscale>
<asrwt>0</asrwt>
<pdfrwt beam="1">  1       21 0.81326131E-01 0.43445997E+03</pdfrwt>
<pdfrwt beam="2">  1       21 0.15931964E+00 0.43445997E+03</pdfrwt>
<totfact> 0.27924172E+02</totfact>
</mgrwt>
</event>
<event>
 4    1  0.5003329E-002  0.4437346E+03  0.7818608E-02  0.1029607E+00
         21   -1    0    0  501  502  0.00000000000E+00  0.00000000000E+00  0.77130238652E+03  0.77130238652E+03  0.00000000000E+00 0.  1.
         21   -1    0    0  502  503 -0.00000000000E+00 -0.00000000000E+00 -0.54667922809E+03  0.54667922809E+03  0.00000000000E+00 0.  1.
    9000007    1    1    2  501    0  0.16992403093E+03  0.89588930433E+02  0.59343341323E+03  0.74098823788E+03  0.40000000000E+03 0.  1.
   -9000007    1    1    2    0  503 -0.16992403093E+03 -0.89588930433E+02 -0.36881025479E+03  0.57699337673E+03  0.40000000000E+03 0.  1.
<mgrwt>
<rscale>  2 0.44373455E+03</rscale>
<asrwt>0</asrwt>
<pdfrwt beam="1">  1       21 0.11866191E+00 0.44373455E+03</pdfrwt>
<pdfrwt beam="2">  1       21 0.84104497E-01 0.44373455E+03</pdfrwt>
<totfact> 0.56043343E+02</totfact>
</mgrwt>
</event>
<event>
 4    1  0.5003329E-002  0.4087985E+03  0.7818608E-02  0.1040775E+00
         21   -1    0    0  503  502  0.00000000000E+00  0.00000000000E+00  0.36852609560E+03  0.36852609560E+03  0.00000000000E+00 0. -1.
         21   -1    0    0  501  503 -0.00000000000E+00 -0.00000000000E+00 -0.93260750919E+03  0.93260750919E+03  0.00000000000E+00 0. -1.
    9000007    1    1    2  501    0  0.84144703890E+02 -0.59933998989E+01 -0.74834738983E+03  0.85272508342E+03  0.40000000000E+03 0. -1.
   -9000007    1    1    2    0  502 -0.84144703890E+02  0.59933998989E+01  0.18426597624E+03  0.44840852137E+03  0.40000000000E+03 0. -1.
<mgrwt>
<rscale>  2 0.40879855E+03</rscale>
<asrwt>0</asrwt>
<pdfrwt beam="1">  1       21 0.56696323E-01 0.40879855E+03</pdfrwt>
<pdfrwt beam="2">  1       21 0.14347808E+00 0.40879855E+03</pdfrwt>
<totfact> 0.84300142E+02</totfact>
</mgrwt>
</event>
<event>
 4    1  0.5003329E-002  0.4663035E+03  0.7818608E-02  0.1022969E+00
         21   -1    0    0  501  502  0.00000000000E+00  0.00000000000E+00  0.10912947404E+03  0.10912947404E+03  0.00000000000E+00 0. -1.
         21   -1    0    0  502  503 -0.00000000000E+00 -0.00000000000E+00 -0.36615293012E+04  0.36615293012E+04  0.00000000000E+00 0. -1.
    9000007    1    1    2  501    0  0.16935460213E+03  0.16958168178E+03 -0.50331304138E+03  0.68612166974E+03  0.40000000000E+03 0. -1.
   -9000007    1    1    2    0  503 -0.16935460213E+03 -0.16958168178E+03 -0.30490867858E+04  0.30845371055E+04  0.40000000000E+03 0. -1.
<mgrwt>
<rscale>  2 0.46630347E+03</rscale>
<asrwt>0</asrwt>
<pdfrwt beam="1">  1       21 0.16789149E-01 0.46630347E+03</pdfrwt>
<pdfrwt beam="2">  1       21 0.56331224E+00 0.46630347E+03</pdfrwt>
<totfact> 0.15088282E+01</totfact>
</mgrwt>
</event>
<event>
 4    1  0.5003329E-002  0.4024065E+03  0.7818608E-02  0.1042950E+00
         21   -1    0    0  501  502  0.00000000000E+00  0.00000000000E+00  0.26735904968E+03  0.26735904968E+03  0.00000000000E+00 0.  1.
         21   -1    0    0  502  503 -0.00000000000E+00 -0.00000000000E+00 -0.10658175487E+04  0.10658175487E+04  0.00000000000E+00 0.  1.
    9000007    1    1    2  501    0  0.43932237422E+02 -0.98785120711E+00  0.38761972080E+02  0.40426910322E+03  0.40000000000E+03 0.  1.
   -9000007    1    1    2    0  503 -0.43932237422E+02  0.98785120711E+00 -0.83722047107E+03  0.92890749513E+03  0.40000000000E+03 0.  1.
<mgrwt>
<rscale>  2 0.40240653E+03</rscale>
<asrwt>0</asrwt>
<pdfrwt beam="1">  1       21 0.41132161E-01 0.40240653E+03</pdfrwt>
<pdfrwt beam="2">  1       21 0.16397193E+00 0.40240653E+03</pdfrwt>
<totfact> 0.11566999E+03</totfact>
</mgrwt>
</event>
<event>
 4    1  0.5003329E-002  0.4892693E+03  0.7818608E-02  0.1016618E+00
         21   -1    0    0  503  502  0.00000000000E+00  0.00000000000E+00  0.47225957295E+03  0.47225957295E+03  0.00000000000E+00 0. -1.
         21   -1    0    0  501  503 -0.00000000000E+00 -0.00000000000E+00 -0.57979247770E+03  0.57979247770E+03  0.00000000000E+00 0. -1.
    9000007    1    1    2  501    0 -0.14423398791E+03  0.24203512274E+03 -0.24029147934E+03  0.54509122076E+03  0.40000000000E+03 0. -1.
   -9000007    1    1    2    0  502  0.14423398791E+03 -0.24203512274E+03  0.13275857459E+03  0.50696082988E+03  0.40000000000E+03 0. -1.
<mgrwt>
<rscale>  2 0.48926930E+03</rscale>
<asrwt>0</asrwt>
<pdfrwt beam="1">  1       21 0.72655319E-01 0.48926930E+03</pdfrwt>
<pdfrwt beam="2">  1       21 0.89198843E-01 0.48926930E+03</pdfrwt>
<totfact> 0.15489290E+03</totfact>
</mgrwt>
</event>
<event>
 4    1  0.5003329E-002  0.6678855E+03  0.7818608E-02  0.9773785E-01
         21   -1    0    0  503  502  0.00000000000E+00  0.00000000000E+00  0.45599510778E+03  0.45599510778E+03  0.00000000000E+00 0.  1.
         21   -1    0    0  501  503 -0.00000000000E+00 -0.00000000000E+00 -0.10259857837E+04  0.10259857837E+04  0.00000000000E+00 0. -1.
    9000007    1    1    2  501    0  0.40186223102E+03  0.35295574956E+03 -0.44485018518E+03  0.80247286628E+03  0.40000000000E+03 0. -1.
   -9000007    1    1    2    0  502 -0.40186223102E+03 -0.35295574956E+03 -0.12514049073E+03  0.67950802518E+03  0.40000000000E+03 0.  1.
<mgrwt>
<rscale>  2 0.66788548E+03</rscale>
<asrwt>0</asrwt>
<pdfrwt beam="1">  1       21 0.70153094E-01 0.66788548E+03</pdfrwt>
<pdfrwt beam="2">  1       21 0.15784397E+00 0.66788548E+03</pdfrwt>
<totfact> 0.36642501E+02</totfact>
</mgrwt>
</event>
<event>
 4    1  0.5003329E-002  0.4086499E+03  0.7818608E-02  0.1040825E+00
         21   -1    0    0  501  502  0.00000000000E+00  0.00000000000E+00  0.12196277913E+04  0.12196277913E+04  0.00000000000E+00 0. -1.
         21   -1    0    0  502  503 -0.00000000000E+00 -0.00000000000E+00 -0.24813078263E+03  0.24813078263E+03  0.00000000000E+00 0. -1.
    9000007    1    1    2  501    0  0.78736461318E+02  0.28201592905E+02  0.97705492091E+03  0.10590708563E+04  0.40000000000E+03 0. -1.
   -9000007    1    1    2    0  503 -0.78736461318E+02 -0.28201592905E+02 -0.55579122025E+01  0.40868771767E+03  0.40000000000E+03 0. -1.
<mgrwt>
<rscale>  2 0.40864992E+03</rscale>
<asrwt>0</asrwt>
<pdfrwt beam="1">  1       21 0.18763504E+00 0.40864992E+03</pdfrwt>
<pdfrwt beam="2">  1       21 0.38173967E-01 0.40864992E+03</pdfrwt>
<totfact> 0.91180548E+02</totfact>
</mgrwt>
</event>
<event>
 4    1  0.5003329E-002  0.4317660E+03  0.7818608E-02  0.1033304E+00
         21   -1    0    0  501  502  0.00000000000E+00  0.00000000000E+00  0.40737461597E+03  0.40737461597E+03  0.00000000000E+00 0.  1.
         21   -1    0    0  502  503 -0.00000000000E+00 -0.00000000000E+00 -0.79096623136E+03  0.79096623136E+03  0.00000000000E+00 0.  1.
    9000007    1    1    2  501    0  0.10757450303E+03  0.12185882587E+03  0.19717826087E+03  0.47465894462E+03  0.40000000000E+03 0.  1.
   -9000007    1    1    2    0  503 -0.10757450303E+03 -0.12185882587E+03 -0.58076987626E+03  0.72368190272E+03  0.40000000000E+03 0.  1.
<mgrwt>
<rscale>  2 0.43176596E+03</rscale>
<asrwt>0</asrwt>
<pdfrwt beam="1">  1       21 0.62673018E-01 0.43176596E+03</pdfrwt>
<pdfrwt beam="2">  1       21 0.12168711E+00 0.43176596E+03</pdfrwt>
<totfact> 0.10293873E+03</totfact>
</mgrwt>
</event>
<event>
 4    1  0.5003329E-002  0.5023573E+03  0.7818608E-02  0.1013165E+00
         21   -1    0    0  501  502  0.00000000000E+00  0.00000000000E+00  0.16972877714E+03  0.16972877714E+03  0.00000000000E+00 0. -1.
         21   -1    0    0  502  503 -0.00000000000E+00 -0.00000000000E+00 -0.15079820831E+04  0.15079820831E+04  0.00000000000E+00 0. -1.
    9000007    1    1    2  501    0  0.89863199253E+02  0.29032311682E+03 -0.56984733485E+03  0.75966367017E+03  0.40000000000E+03 0. -1.
   -9000007    1    1    2    0  503 -0.89863199253E+02 -0.29032311682E+03 -0.76840597108E+03  0.91804719004E+03  0.40000000000E+03 0. -1.
<mgrwt>
<rscale>  2 0.50235735E+03</rscale>
<asrwt>0</asrwt>
<pdfrwt beam="1">  1       21 0.26112120E-01 0.50235735E+03</pdfrwt>
<pdfrwt beam="2">  1       21 0.23199724E+00 0.50235735E+03</pdfrwt>
<totfact> 0.95592509E+02</totfact>
</mgrwt>
</event>
<event>
 4    1  0.5003329E-002  0.6785924E+03  0.7818608E-02  0.9754559E-01
         21   -1    0    0  501  502  0.00000000000E+00  0.00000000000E+00  0.58793462909E+03  0.58793462909E+03  0.00000000000E+00 0. -1.
         21   -1    0    0  502  503 -0.00000000000E+00 -0.00000000000E+00 -0.13193506703E+04  0.13193506703E+04  0.00000000000E+00 0.  1.
    9000007    1    1    2  501    0 -0.38887020133E+03  0.38635159526E+03  0.24219896126E+03  0.72051920549E+03  0.40000000000E+03 0. -1.
   -9000007    1    1    2    0  503  0.38887020133E+03 -0.38635159526E+03 -0.97361500251E+03  0.11867660940E+04  0.40000000000E+03 0.  1.
<mgrwt>
<rscale>  2 0.67859236E+03</rscale>
<asrwt>0</asrwt>
<pdfrwt beam="1">  1       21 0.90451483E-01 0.67859236E+03</pdfrwt>
<pdfrwt beam="2">  1       21 0.20297702E+00 0.67859236E+03</pdfrwt>
<totfact> 0.95792260E+01</totfact>
</mgrwt>
</event>
<event>
 4    1  0.5003329E-002  0.5632518E+03  0.7818608E-02  0.9984724E-01
         21   -1    0    0  501  502  0.00000000000E+00  0.00000000000E+00  0.11846646566E+04  0.11846646566E+04  0.00000000000E+00 0.  1.
         21   -1    0    0  502  503 -0.00000000000E+00 -0.00000000000E+00 -0.27039103496E+03  0.27039103496E+03  0.00000000000E+00 0.  1.
    9000007    1    1    2  501    0  0.39628985445E+03 -0.14385969842E+02  0.52836171267E+03  0.77228149291E+03  0.40000000000E+03 0.  1.
   -9000007    1    1    2    0  503 -0.39628985445E+03  0.14385969842E+02  0.38591190899E+03  0.68277419867E+03  0.40000000000E+03 0.  1.
<mgrwt>
<rscale>  2 0.56325181E+03</rscale>
<asrwt>0</asrwt>
<pdfrwt beam="1">  1       21 0.18225610E+00 0.56325181E+03</pdfrwt>
<pdfrwt beam="2">  1       21 0.41598621E-01 0.56325181E+03</pdfrwt>
<totfact> 0.77970732E+02</totfact>
</mgrwt>
</event>
<event>
 4    1  0.5003329E-002  0.4077425E+03  0.7818608E-02  0.1041131E+00
         21   -1    0    0  503  502  0.00000000000E+00  0.00000000000E+00  0.28482437612E+03  0.28482437612E+03  0.00000000000E+00 0.  1.
         21   -1    0    0  501  503 -0.00000000000E+00 -0.00000000000E+00 -0.93737792042E+03  0.93737792042E+03  0.00000000000E+00 0.  1.
    9000007    1    1    2  501    0  0.74472500004E+02 -0.26604953023E+02 -0.70164320027E+03  0.81151534630E+03  0.40000000000E+03 0.  1.
   -9000007    1    1    2    0  502 -0.74472500004E+02  0.26604953023E+02  0.49089655974E+02  0.41068695025E+03  0.40000000000E+03 0.  1.
<mgrwt>
<rscale>  2 0.40774254E+03</rscale>
<asrwt>0</asrwt>
<pdfrwt beam="1">  1       21 0.43819135E-01 0.40774254E+03</pdfrwt>
<pdfrwt beam="2">  1       21 0.14421199E+00 0.40774254E+03</pdfrwt>
<totfact> 0.14374470E+03</totfact>
</mgrwt>
</event>
<event>
 4    1  0.5003329E-002  0.5411800E+03  0.7818608E-02  0.1003556E+00
         21   -1    0    0  503  502  0.00000000000E+00  0.00000000000E+00  0.54402111441E+03  0.54402111441E+03  0.00000000000E+00 0.  1.
         21   -1    0    0  501  503 -0.00000000000E+00 -0.00000000000E+00 -0.58562442368E+03  0.58562442368E+03  0.00000000000E+00 0. -1.
    9000007    1    1    2  501    0 -0.16921737890E+03  0.32286422626E+03 -0.18127330078E+03  0.57073272159E+03  0.40000000000E+03 0. -1.
   -9000007    1    1    2    0  502  0.16921737890E+03 -0.32286422626E+03  0.13966999152E+03  0.55891281650E+03  0.40000000000E+03 0. -1.
<mgrwt>
<rscale>  2 0.54118003E+03</rscale>
<asrwt>0</asrwt>
<pdfrwt beam="1">  1       21 0.83695556E-01 0.54118003E+03</pdfrwt>
<pdfrwt beam="2">  1       21 0.90096065E-01 0.54118003E+03</pdfrwt>
<totfact> 0.10722810E+03</totfact>
</mgrwt>
</event>
<event>
 4    1  0.5003329E-002  0.5413834E+03  0.7818608E-02  0.1003508E+00
         21   -1    0    0  501  502  0.00000000000E+00  0.00000000000E+00  0.11433865950E+04  0.11433865950E+04  0.00000000000E+00 0.  1.
         21   -1    0    0  502  503 -0.00000000000E+00 -0.00000000000E+00 -0.25721331382E+03  0.25721331382E+03  0.00000000000E+00 0.  1.
    9000007    1    1    2  501    0 -0.29385283300E+03  0.21620936354E+03  0.48388725830E+03  0.72611490488E+03  0.40000000000E+03 0.  1.
   -9000007    1    1    2    0  503  0.29385283300E+03 -0.21620936354E+03  0.40228602289E+03  0.67448500395E+03  0.40000000000E+03 0.  1.
<mgrwt>
<rscale>  2 0.54138339E+03</rscale>
<asrwt>0</asrwt>
<pdfrwt beam="1">  1       21 0.17590563E+00 0.54138339E+03</pdfrwt>
<pdfrwt beam="2">  1       21 0.39571280E-01 0.54138339E+03</pdfrwt>
<totfact> 0.96748820E+02</totfact>
</mgrwt>
</event>
<event>
 4    1  0.5003329E-002  0.6900512E+03  0.7818608E-02  0.9734399E-01
         21   -1    0    0  501  502  0.00000000000E+00  0.00000000000E+00  0.51397434163E+03  0.51397434163E+03  0.00000000000E+00 0. -1.
         21   -1    0    0  502  503 -0.00000000000E+00 -0.00000000000E+00 -0.12079137456E+04  0.12079137456E+04  0.00000000000E+00 0. -1.
    9000007    1    1    2  501    0 -0.11018215538E+03  0.55138971154E+03  0.68624430522E+02  0.69345514190E+03  0.40000000000E+03 0. -1.
   -9000007    1    1    2    0  503  0.11018215538E+03 -0.55138971154E+03 -0.76256383448E+03  0.10284329453E+04  0.40000000000E+03 0. -1.
<mgrwt>
<rscale>  2 0.69005125E+03</rscale>
<asrwt>0</asrwt>
<pdfrwt beam="1">  1       21 0.79072976E-01 0.69005125E+03</pdfrwt>
<pdfrwt beam="2">  1       21 0.18583288E+00 0.69005125E+03</pdfrwt>
<totfact> 0.17193342E+02</totfact>
</mgrwt>
</event>
<event>
 4    1  0.5003329E-002  0.5054588E+03  0.7818608E-02  0.1012364E+00
         21   -1    0    0  503  502  0.00000000000E+00  0.00000000000E+00  0.18490926314E+03  0.18490926314E+03  0.00000000000E+00 0.  1.
         21   -1    0    0  501  503 -0.00000000000E+00 -0.00000000000E+00 -0.14956384897E+04  0.14956384897E+04  0.00000000000E+00 0. -1.
    9000007    1    1    2  501    0  0.21210128628E+03  0.22472561278E+03 -0.88729020423E+03  0.10211623099E+04  0.40000000000E+03 0. -1.
   -9000007    1    1    2    0  502 -0.21210128628E+03 -0.22472561278E+03 -0.42343902228E+03  0.65938544287E+03  0.40000000000E+03 0.  1.
<mgrwt>
<rscale>  2 0.50545876E+03</rscale>
<asrwt>0</asrwt>
<pdfrwt beam="1">  1       21 0.28447578E-01 0.50545876E+03</pdfrwt>
<pdfrwt beam="2">  1       21 0.23009823E+00 0.50545876E+03</pdfrwt>
<totfact> 0.82905902E+02</totfact>
</mgrwt>
</event>
<event>
 4    1  0.5003329E-002  0.5068022E+03  0.7818608E-02  0.1012019E+00
         21   -1    0    0  501  502  0.00000000000E+00  0.00000000000E+00  0.15195591677E+04  0.15195591677E+04  0.00000000000E+00 0.  1.
         21   -1    0    0  502  503 -0.00000000000E+00 -0.00000000000E+00 -0.27742775778E+03  0.27742775778E+03  0.00000000000E+00 0.  1.
    9000007    1    1    2  501    0 -0.28331028387E+03 -0.12877798413E+03  0.59431508933E+02  0.51027501447E+03  0.40000000000E+03 0.  1.
   -9000007    1    1    2    0  503  0.28331028387E+03  0.12877798413E+03  0.11826999010E+04  0.12867119110E+04  0.40000000000E+03 0.  1.
<mgrwt>
<rscale>  2 0.50680222E+03</rscale>
<asrwt>0</asrwt>
<pdfrwt beam="1">  1       21 0.23377833E+00 0.50680222E+03</pdfrwt>
<pdfrwt beam="2">  1       21 0.42681194E-01 0.50680222E+03</pdfrwt>
<totfact> 0.34480140E+02</totfact>
</mgrwt>
</event>
<event>
 4    1  0.5003329E-002  0.4830701E+03  0.7818608E-02  0.1018295E+00
         21   -1    0    0  503  502  0.00000000000E+00  0.00000000000E+00  0.23175193929E+03  0.23175193929E+03  0.00000000000E+00 0. -1.
         21   -1    0    0  501  503 -0.00000000000E+00 -0.00000000000E+00 -0.11453779898E+04  0.11453779898E+04  0.00000000000E+00 0. -1.
    9000007    1    1    2  501    0 -0.16736112685E+03 -0.21294828928E+03 -0.69621203836E+03  0.84738888537E+03  0.40000000000E+03 0. -1.
   -9000007    1    1    2    0  502  0.16736112685E+03  0.21294828928E+03 -0.21741401211E+03  0.52974104367E+03  0.40000000000E+03 0. -1.
<mgrwt>
<rscale>  2 0.48307010E+03</rscale>
<asrwt>0</asrwt>
<pdfrwt beam="1">  1       21 0.35654145E-01 0.48307010E+03</pdfrwt>
<pdfrwt beam="2">  1       21 0.17621200E+00 0.48307010E+03</pdfrwt>
<totfact> 0.12183767E+03</totfact>
</mgrwt>
</event>
<event>
 4    1  0.5003329E-002  0.5102044E+03  0.7818608E-02  0.1011149E+00
         21   -1    0    0  503  502  0.00000000000E+00  0.00000000000E+00  0.15272704894E+04  0.15272704894E+04  0.00000000000E+00 0.  1.
         21   -1    0    0  501  503 -0.00000000000E+00 -0.00000000000E+00 -0.21214086824E+03  0.21214086824E+03  0.00000000000E+00 0. -1.
    9000007    1    1    2  501    0  0.30563602804E+03  0.83036782080E+02  0.27197019904E+03  0.57816630650E+03  0.40000000000E+03 0. -1.
   -9000007    1    1    2    0  502 -0.30563602804E+03 -0.83036782080E+02  0.10431594221E+04  0.11612450511E+04  0.40000000000E+03 0.  1.
<mgrwt>
<rscale>  2 0.51020436E+03</rscale>
<asrwt>0</asrwt>
<pdfrwt beam="1">  1       21 0.23496468E+00 0.51020436E+03</pdfrwt>
<pdfrwt beam="2">  1       21 0.32637058E-01 0.51020436E+03</pdfrwt>
<totfact> 0.58604023E+02</totfact>
</mgrwt>
</event>
<event>
 4    1  0.5003329E-002  0.4513443E+03  0.7818608E-02  0.1027322E+00
         21   -1    0    0  501  502  0.00000000000E+00  0.00000000000E+00  0.24408539508E+03  0.24408539508E+03  0.00000000000E+00 0.  1.
         21   -1    0    0  502  503 -0.00000000000E+00 -0.00000000000E+00 -0.14866728144E+04  0.14866728144E+04  0.00000000000E+00 0.  1.
    9000007    1    1    2  501    0  0.20396562607E+03 -0.45931581704E+02 -0.48168570420E+02  0.45390736719E+03  0.40000000000E+03 0.  1.
   -9000007    1    1    2    0  503 -0.20396562607E+03  0.45931581704E+02 -0.11944188489E+04  0.12768508423E+04  0.40000000000E+03 0.  1.
<mgrwt>
<rscale>  2 0.45134431E+03</rscale>
<asrwt>0</asrwt>
<pdfrwt beam="1">  1       21 0.37551600E-01 0.45134431E+03</pdfrwt>
<pdfrwt beam="2">  1       21 0.22871889E+00 0.45134431E+03</pdfrwt>
<totfact> 0.49664473E+02</totfact>
</mgrwt>
</event>
<event>
 4    1  0.5003329E-002  0.5448703E+03  0.7818608E-02  0.1002688E+00
         21   -1    0    0  501  502  0.00000000000E+00  0.00000000000E+00  0.60537916888E+03  0.60537916888E+03  0.00000000000E+00 0.  1.
         21   -1    0    0  502  503 -0.00000000000E+00 -0.00000000000E+00 -0.51532893380E+03  0.51532893380E+03  0.00000000000E+00 0.  1.
    9000007    1    1    2  501    0 -0.36460202780E+03  0.62840750064E+02  0.16824782126E+03  0.57025514281E+03  0.40000000000E+03 0.  1.
   -9000007    1    1    2    0  503  0.36460202780E+03 -0.62840750064E+02 -0.78197586181E+02  0.55045295987E+03  0.40000000000E+03 0.  1.
<mgrwt>
<rscale>  2 0.54487026E+03</rscale>
<asrwt>0</asrwt>
<pdfrwt beam="1">  1       21 0.93135257E-01 0.54487026E+03</pdfrwt>
<pdfrwt beam="2">  1       21 0.79281374E-01 0.54487026E+03</pdfrwt>
<totfact> 0.11224484E+03</totfact>
</mgrwt>
</event>
<event>
 4    1  0.5003329E-002  0.4765777E+03  0.7818608E-02  0.1020080E+00
         21   -1    0    0  501  502  0.00000000000E+00  0.00000000000E+00  0.30515450306E+03  0.30515450306E+03  0.00000000000E+00 0. -1.
         21   -1    0    0  502  503 -0.00000000000E+00 -0.00000000000E+00 -0.83358815709E+03  0.83358815709E+03  0.00000000000E+00 0.  1.
    9000007    1    1    2  501    0  0.75223602319E+02  0.24792676261E+03 -0.77871475670E+02  0.48289774972E+03  0.40000000000E+03 0. -1.
   -9000007    1    1    2    0  503 -0.75223602319E+02 -0.24792676261E+03 -0.45056217837E+03  0.65584491043E+03  0.40000000000E+03 0.  1.
<mgrwt>
<rscale>  2 0.47657766E+03</rscale>
<asrwt>0</asrwt>
<pdfrwt beam="1">  1       21 0.46946848E-01 0.47657766E+03</pdfrwt>
<pdfrwt beam="2">  1       21 0.12824433E+00 0.47657766E+03</pdfrwt>
<totfact> 0.16467453E+03</totfact>
</mgrwt>
</event>
<event>
 4    1  0.5003329E-002  0.4429025E+03  0.7818608E-02  0.1029860E+00
         21   -1    0    0  501  502  0.00000000000E+00  0.00000000000E+00  0.50939617735E+03  0.50939617735E+03  0.00000000000E+00 0. -1.
         21   -1    0    0  502  503 -0.00000000000E+00 -0.00000000000E+00 -0.43492213837E+03  0.43492213837E+03  0.00000000000E+00 0. -1.
    9000007    1    1    2  501    0  0.10319724582E+01 -0.19016195960E+03 -0.12258762090E+03  0.45955452412E+03  0.40000000000E+03 0. -1.
   -9000007    1    1    2    0  503 -0.10319724582E+01  0.19016195960E+03  0.19706165988E+03  0.48476379159E+03  0.40000000000E+03 0. -1.
<mgrwt>
<rscale>  2 0.44290251E+03</rscale>
<asrwt>0</asrwt>
<pdfrwt beam="1">  1       21 0.78368643E-01 0.44290251E+03</pdfrwt>
<pdfrwt beam="2">  1       21 0.66911098E-01 0.44290251E+03</pdfrwt>
<totfact> 0.25651297E+03</totfact>
</mgrwt>
</event>
<event>
 4    1  0.5003329E-002  0.4263099E+03  0.7818608E-02  0.1035032E+00
         21   -1    0    0  503  502  0.00000000000E+00  0.00000000000E+00  0.10247092131E+04  0.10247092131E+04  0.00000000000E+00 0. -1.
         21   -1    0    0  501  503 -0.00000000000E+00 -0.00000000000E+00 -0.17758801386E+03  0.17758801386E+03  0.00000000000E+00 0.  1.
    9000007    1    1    2  501    0 -0.73280623716E+02 -0.12794556182E+03  0.44520728737E+03  0.61640055591E+03  0.40000000000E+03 0. -1.
   -9000007    1    1    2    0  502  0.73280623716E+02  0.12794556182E+03  0.40191391191E+03  0.58589667108E+03  0.40000000000E+03 0. -1.
<mgrwt>
<rscale>  2 0.42630988E+03</rscale>
<asrwt>0</asrwt>
<pdfrwt beam="1">  1       21 0.15764757E+00 0.42630988E+03</pdfrwt>
<pdfrwt beam="2">  1       21 0.27321234E-01 0.42630988E+03</pdfrwt>
<totfact> 0.29070604E+03</totfact>
</mgrwt>
</event>
<event>
 4    1  0.5003329E-002  0.4560239E+03  0.7818608E-02  0.1025941E+00
         21   -1    0    0  503  502  0.00000000000E+00  0.00000000000E+00  0.59979889848E+03  0.59979889848E+03  0.00000000000E+00 0. -1.
         21   -1    0    0  501  503 -0.00000000000E+00 -0.00000000000E+00 -0.37745197423E+03  0.37745197423E+03  0.00000000000E+00 0. -1.
    9000007    1    1    2  501    0 -0.10597136337E+03 -0.19164515345E+03 -0.28268412637E+02  0.45689922067E+03  0.40000000000E+03 0. -1.
   -9000007    1    1    2    0  502  0.10597136337E+03  0.19164515345E+03  0.25061533689E+03  0.52035165204E+03  0.40000000000E+03 0. -1.
<mgrwt>
<rscale>  2 0.45602390E+03</rscale>
<asrwt>0</asrwt>
<pdfrwt beam="1">  1       21 0.92276754E-01 0.45602390E+03</pdfrwt>
<pdfrwt beam="2">  1       21 0.58069534E-01 0.45602390E+03</pdfrwt>
<totfact> 0.23811453E+03</totfact>
</mgrwt>
</event>
<event>
 4    1  0.5003329E-002  0.4275806E+03  0.7818608E-02  0.1034627E+00
         21   -1    0    0  503  502  0.00000000000E+00  0.00000000000E+00  0.12099357558E+03  0.12099357558E+03  0.00000000000E+00 0.  1.
         21   -1    0    0  501  503 -0.00000000000E+00 -0.00000000000E+00 -0.18083341084E+04  0.18083341084E+04  0.00000000000E+00 0.  1.
    9000007    1    1    2  501    0 -0.27346551865E+01 -0.15105513618E+03 -0.12348135264E+04  0.13067477100E+04  0.40000000000E+03 0.  1.
   -9000007    1    1    2    0  502  0.27346551865E+01  0.15105513618E+03 -0.45252700642E+03  0.62257997402E+03  0.40000000000E+03 0.  1.
<mgrwt>
<rscale>  2 0.42758056E+03</rscale>
<asrwt>0</asrwt>
<pdfrwt beam="1">  1       21 0.18614395E-01 0.42758056E+03</pdfrwt>
<pdfrwt beam="2">  1       21 0.27820527E+00 0.42758056E+03</pdfrwt>
<totfact> 0.98957705E+02</totfact>
</mgrwt>
</event>
<event>
 4    1  0.5003329E-002  0.4650785E+03  0.7818608E-02  0.1023319E+00
         21   -1    0    0  501  502  0.00000000000E+00  0.00000000000E+00  0.12572613991E+04  0.12572613991E+04  0.00000000000E+00 0.  1.
         21   -1    0    0  502  503 -0.00000000000E+00 -0.00000000000E+00 -0.18649571206E+03  0.18649571206E+03  0.00000000000E+00 0.  1.
    9000007    1    1    2  501    0 -0.21069940288E+03 -0.10910435814E+03  0.33439748774E+03  0.57281731743E+03  0.40000000000E+03 0.  1.
   -9000007    1    1    2    0  503  0.21069940288E+03  0.10910435814E+03  0.73636819926E+03  0.87093979368E+03  0.40000000000E+03 0.  1.
<mgrwt>
<rscale>  2 0.46507849E+03</rscale>
<asrwt>0</asrwt>
<pdfrwt beam="1">  1       21 0.19342483E+00 0.46507849E+03</pdfrwt>
<pdfrwt beam="2">  1       21 0.28691649E-01 0.46507849E+03</pdfrwt>
<totfact> 0.14397895E+03</totfact>
</mgrwt>
</event>
<event>
 4    1  0.5003329E-002  0.8218893E+03  0.7818608E-02  0.9528863E-01
         21   -1    0    0  503  502  0.00000000000E+00  0.00000000000E+00  0.25804681421E+04  0.25804681421E+04  0.00000000000E+00 0.  1.
         21   -1    0    0  501  503 -0.00000000000E+00 -0.00000000000E+00 -0.32889061443E+03  0.32889061443E+03  0.00000000000E+00 0.  1.
    9000007    1    1    2  501    0 -0.71328908290E+03  0.81979996940E+02  0.17829218629E+04  0.19632402820E+04  0.40000000000E+03 0.  1.
   -9000007    1    1    2    0  502  0.71328908290E+03 -0.81979996940E+02  0.46865566475E+03  0.94611847450E+03  0.40000000000E+03 0.  1.
<mgrwt>
<rscale>  2 0.82188931E+03</rscale>
<asrwt>0</asrwt>
<pdfrwt beam="1">  1       21 0.39699509E+00 0.82188931E+03</pdfrwt>
<pdfrwt beam="2">  1       21 0.50598558E-01 0.82188931E+03</pdfrwt>
<totfact> 0.20281329E+01</totfact>
</mgrwt>
</event>
<event>
 4    1  0.5003329E-002  0.4027801E+03  0.7818608E-02  0.1042821E+00
         21   -1    0    0  501  502  0.00000000000E+00  0.00000000000E+00  0.27482288488E+03  0.27482288488E+03  0.00000000000E+00 0.  1.
         21   -1    0    0  502  503 -0.00000000000E+00 -0.00000000000E+00 -0.76038967661E+03  0.76038967661E+03  0.00000000000E+00 0.  1.
    9000007    1    1    2  501    0 -0.14935149916E+02  0.44818639234E+02  0.20116713160E+01  0.40278507414E+03  0.40000000000E+03 0.  1.
   -9000007    1    1    2    0  503  0.14935149916E+02 -0.44818639234E+02 -0.48757846305E+03  0.63242748735E+03  0.40000000000E+03 0.  1.
<mgrwt>
<rscale>  2 0.40278005E+03</rscale>
<asrwt>0</asrwt>
<pdfrwt beam="1">  1       21 0.42280445E-01 0.40278005E+03</pdfrwt>
<pdfrwt beam="2">  1       21 0.11698302E+00 0.40278005E+03</pdfrwt>
<totfact> 0.26682998E+03</totfact>
</mgrwt>
</event>
<event>
 4    1  0.5003329E-002  0.4218684E+03  0.7818608E-02  0.1036460E+00
         21   -1    0    0  501  502  0.00000000000E+00  0.00000000000E+00  0.15560327515E+04  0.15560327515E+04  0.00000000000E+00 0.  1.
         21   -1    0    0  502  503 -0.00000000000E+00 -0.00000000000E+00 -0.11943841780E+03  0.11943841780E+03  0.00000000000E+00 0. -1.
    9000007    1    1    2  501    0 -0.99032746897E+02 -0.90362737179E+02  0.54582819339E+03  0.68985601826E+03  0.40000000000E+03 0. -1.
   -9000007    1    1    2    0  503  0.99032746897E+02  0.90362737179E+02  0.89076614036E+03  0.98561515108E+03  0.40000000000E+03 0.  1.
<mgrwt>
<rscale>  2 0.42186836E+03</rscale>
<asrwt>0</asrwt>
<pdfrwt beam="1">  1       21 0.23938964E+00 0.42186836E+03</pdfrwt>
<pdfrwt beam="2">  1       21 0.18375142E-01 0.42186836E+03</pdfrwt>
<totfact> 0.17524583E+03</totfact>
</mgrwt>
</event>
<event>
 4    1  0.5003329E-002  0.4028202E+03  0.7818608E-02  0.1042808E+00
         21   -1    0    0  501  502  0.00000000000E+00  0.00000000000E+00  0.32977929158E+03  0.32977929158E+03  0.00000000000E+00 0.  1.
         21   -1    0    0  502  503 -0.00000000000E+00 -0.00000000000E+00 -0.94975746558E+03  0.94975746558E+03  0.00000000000E+00 0.  1.
    9000007    1    1    2  501    0 -0.44116852134E+02  0.17826902497E+02  0.13414681911E+03  0.42456974006E+03  0.40000000000E+03 0.  1.
   -9000007    1    1    2    0  503  0.44116852134E+02 -0.17826902497E+02 -0.75412499312E+03  0.85496701710E+03  0.40000000000E+03 0.  1.
<mgrwt>
<rscale>  2 0.40282018E+03</rscale>
<asrwt>0</asrwt>
<pdfrwt beam="1">  1       21 0.50735275E-01 0.40282018E+03</pdfrwt>
<pdfrwt beam="2">  1       21 0.14611653E+00 0.40282018E+03</pdfrwt>
<totfact> 0.10218987E+03</totfact>
</mgrwt>
</event>
<event>
 4    1  0.5003329E-002  0.4549613E+03  0.7818608E-02  0.1026253E+00
         21   -1    0    0  503  502  0.00000000000E+00  0.00000000000E+00  0.17533294861E+03  0.17533294861E+03  0.00000000000E+00 0.  1.
         21   -1    0    0  501  503 -0.00000000000E+00 -0.00000000000E+00 -0.11814362054E+04  0.11814362054E+04  0.00000000000E+00 0.  1.
    9000007    1    1    2  501    0 -0.37961956252E+02  0.21342135244E+03 -0.48450015750E+03  0.66462785559E+03  0.40000000000E+03 0.  1.
   -9000007    1    1    2    0  502  0.37961956252E+02 -0.21342135244E+03 -0.52160309931E+03  0.69214129844E+03  0.40000000000E+03 0.  1.
<mgrwt>
<rscale>  2 0.45496130E+03</rscale>
<asrwt>0</asrwt>
<pdfrwt beam="1">  1       21 0.26974300E-01 0.45496130E+03</pdfrwt>
<pdfrwt beam="2">  1       21 0.18175941E+00 0.45496130E+03</pdfrwt>
<totfact> 0.19651371E+03</totfact>
</mgrwt>
</event>
<event>
 4    1  0.5003329E-002  0.4262800E+03  0.7818608E-02  0.1035042E+00
         21   -1    0    0  503  502  0.00000000000E+00  0.00000000000E+00  0.34272442677E+03  0.34272442677E+03  0.00000000000E+00 0.  1.
         21   -1    0    0  501  503 -0.00000000000E+00 -0.00000000000E+00 -0.59966941684E+03  0.59966941684E+03  0.00000000000E+00 0.  1.
    9000007    1    1    2  501    0 -0.12341822131E+03  0.80514544613E+02 -0.28884268244E+03  0.51492207609E+03  0.40000000000E+03 0.  1.
   -9000007    1    1    2    0  502  0.12341822131E+03 -0.80514544613E+02  0.31897692373E+02  0.42747176752E+03  0.40000000000E+03 0.  1.
<mgrwt>
<rscale>  2 0.42628001E+03</rscale>
<asrwt>0</asrwt>
<pdfrwt beam="1">  1       21 0.52726835E-01 0.42628001E+03</pdfrwt>
<pdfrwt beam="2">  1       21 0.92256833E-01 0.42628001E+03</pdfrwt>
<totfact> 0.29670581E+03</totfact>
</mgrwt>
</event>
<event>
 4    1  0.5003329E-002  0.4814180E+03  0.7818608E-02  0.1018746E+00
         21   -1    0    0  501  502  0.00000000000E+00  0.00000000000E+00  0.16962718546E+04  0.16962718546E+04  0.00000000000E+00 0. -1.
         21   -1    0    0  502  503 -0.00000000000E+00 -0.00000000000E+00 -0.20755988494E+03  0.20755988494E+03  0.00000000000E+00 0.  1.
    9000007    1    1    2  501    0 -0.93765743438E+02 -0.25094072002E+03  0.13008218531E+04  0.13870474949E+04  0.40000000000E+03 0. -1.
   -9000007    1    1    2    0  503  0.93765743438E+02  0.25094072002E+03  0.18789011656E+03  0.51678424464E+03  0.40000000000E+03 0.  1.
<mgrwt>
<rscale>  2 0.48141797E+03</rscale>
<asrwt>0</asrwt>
<pdfrwt beam="1">  1       21 0.26096489E+00 0.48141797E+03</pdfrwt>
<pdfrwt beam="2">  1       21 0.31932291E-01 0.48141797E+03</pdfrwt>
<totfact> 0.42860881E+02</totfact>
</mgrwt>
</event>
<event>
 4    1  0.5003329E-002  0.4193757E+03  0.7818608E-02  0.1037270E+00
         21   -1    0    0  503  502  0.00000000000E+00  0.00000000000E+00  0.46744158239E+03  0.46744158239E+03  0.00000000000E+00 0.  1.
         21   -1    0    0  501  503 -0.00000000000E+00 -0.00000000000E+00 -0.44695585134E+03  0.44695585134E+03  0.00000000000E+00 0.  1.
    9000007    1    1    2  501    0  0.10704601201E+03  0.66461650565E+02 -0.17159867903E+03  0.45312482422E+03  0.40000000000E+03 0.  1.
   -9000007    1    1    2    0  502 -0.10704601201E+03 -0.66461650565E+02  0.19208441007E+03  0.46127260950E+03  0.40000000000E+03 0.  1.
<mgrwt>
<rscale>  2 0.41937573E+03</rscale>
<asrwt>0</asrwt>
<pdfrwt beam="1">  1       21 0.71914090E-01 0.41937573E+03</pdfrwt>
<pdfrwt beam="2">  1       21 0.68762439E-01 0.41937573E+03</pdfrwt>
<totfact> 0.29613692E+03</totfact>
</mgrwt>
</event>
<event>
 4    1  0.5003329E-002  0.4074044E+03  0.7818608E-02  0.1041246E+00
         21   -1    0    0  503  502  0.00000000000E+00  0.00000000000E+00  0.16835517309E+03  0.16835517309E+03  0.00000000000E+00 0. -1.
         21   -1    0    0  501  503 -0.00000000000E+00 -0.00000000000E+00 -0.98764090584E+03  0.98764090584E+03  0.00000000000E+00 0.  1.
    9000007    1    1    2  501    0 -0.56202252929E+02 -0.53100722423E+02 -0.38525268793E+03  0.56071205936E+03  0.40000000000E+03 0.  1.
   -9000007    1    1    2    0  502  0.56202252929E+02  0.53100722423E+02 -0.43403304482E+03  0.59528401957E+03  0.40000000000E+03 0.  1.
<mgrwt>
<rscale>  2 0.40740444E+03</rscale>
<asrwt>0</asrwt>
<pdfrwt beam="1">  1       21 0.25900796E-01 0.40740444E+03</pdfrwt>
<pdfrwt beam="2">  1       21 0.15194476E+00 0.40740444E+03</pdfrwt>
<totfact> 0.35973234E+03</totfact>
</mgrwt>
</event>
<event>
 4    1  0.5003329E-002  0.4244097E+03  0.7818608E-02  0.1035641E+00
         21   -1    0    0  501  502  0.00000000000E+00  0.00000000000E+00  0.20811655384E+03  0.20811655384E+03  0.00000000000E+00 0. -1.
         21   -1    0    0  502  503 -0.00000000000E+00 -0.00000000000E+00 -0.88827986298E+03  0.88827986298E+03  0.00000000000E+00 0. -1.
    9000007    1    1    2  501    0 -0.14072361165E+03  0.17902415803E+02 -0.25228149208E+03  0.49373027314E+03  0.40000000000E+03 0. -1.
   -9000007    1    1    2    0  503  0.14072361165E+03 -0.17902415803E+02 -0.42788181706E+03  0.60266614368E+03  0.40000000000E+03 0. -1.
<mgrwt>
<rscale>  2 0.42440974E+03</rscale>
<asrwt>0</asrwt>
<pdfrwt beam="1">  1       21 0.32017930E-01 0.42440974E+03</pdfrwt>
<pdfrwt beam="2">  1       21 0.13665845E+00 0.42440974E+03</pdfrwt>
<totfact> 0.31226414E+03</totfact>
</mgrwt>
</event>
<event>
 4    1  0.5003329E-002  0.5700673E+03  0.7818608E-02  0.9969530E-01
         21   -1    0    0  503  502  0.00000000000E+00  0.00000000000E+00  0.44161608697E+03  0.44161608697E+03  0.00000000000E+00 0.  1.
         21   -1    0    0  501  503 -0.00000000000E+00 -0.00000000000E+00 -0.73757985110E+03  0.73757985110E+03  0.00000000000E+00 0.  1.
    9000007    1    1    2  501    0  0.37755962225E+03 -0.14975130802E+03 -0.11968250397E+03  0.58249517111E+03  0.40000000000E+03 0.  1.
   -9000007    1    1    2    0  502 -0.37755962225E+03  0.14975130802E+03 -0.17628126016E+03  0.59670076696E+03  0.40000000000E+03 0.  1.
<mgrwt>
<rscale>  2 0.57006730E+03</rscale>
<asrwt>0</asrwt>
<pdfrwt beam="1">  1       21 0.67940937E-01 0.57006730E+03</pdfrwt>
<pdfrwt beam="2">  1       21 0.11347382E+00 0.57006730E+03</pdfrwt>
<totfact> 0.97442685E+02</totfact>
</mgrwt>
</event>
<event>
 4    1  0.5003329E-002  0.4117635E+03  0.7818608E-02  0.1039781E+00
         21   -1    0    0  501  502  0.00000000000E+00  0.00000000000E+00  0.24800868056E+03  0.24800868056E+03  0.00000000000E+00 0. -1.
         21   -1    0    0  502  503 -0.00000000000E+00 -0.00000000000E+00 -0.69239312473E+03  0.69239312473E+03  0.00000000000E+00 0. -1.
    9000007    1    1    2  501    0 -0.58358089331E+02  0.78380320914E+02 -0.16933066733E+03  0.44522131148E+03  0.40000000000E+03 0. -1.
   -9000007    1    1    2    0  503  0.58358089331E+02 -0.78380320914E+02 -0.27505377684E+03  0.49518049381E+03  0.40000000000E+03 0. -1.
<mgrwt>
<rscale>  2 0.41176345E+03</rscale>
<asrwt>0</asrwt>
<pdfrwt beam="1">  1       21 0.38155182E-01 0.41176345E+03</pdfrwt>
<pdfrwt beam="2">  1       21 0.10652202E+00 0.41176345E+03</pdfrwt>
<totfact> 0.41431261E+03</totfact>
</mgrwt>
</event>
<event>
 4    1  0.5003329E-002  0.5231357E+03  0.7818608E-02  0.1007911E+00
         21   -1    0    0  503  502  0.00000000000E+00  0.00000000000E+00  0.75796251098E+03  0.75796251098E+03  0.00000000000E+00 0.  1.
         21   -1    0    0  501  503 -0.00000000000E+00 -0.00000000000E+00 -0.37645456352E+03  0.37645456352E+03  0.00000000000E+00 0. -1.
    9000007    1    1    2  501    0  0.25367489260E+03 -0.22208110970E+03  0.76057235495E+02  0.52863567179E+03  0.40000000000E+03 0. -1.
   -9000007    1    1    2    0  502 -0.25367489260E+03  0.22208110970E+03  0.30545071196E+03  0.60578140270E+03  0.40000000000E+03 0.  1.
<mgrwt>
<rscale>  2 0.52313571E+03</rscale>
<asrwt>0</asrwt>
<pdfrwt beam="1">  1       21 0.11660962E+00 0.52313571E+03</pdfrwt>
<pdfrwt beam="2">  1       21 0.57916087E-01 0.52313571E+03</pdfrwt>
<totfact> 0.13169212E+03</totfact>
</mgrwt>
</event>
<event>
 4    1  0.5003329E-002  0.4405342E+03  0.7818608E-02  0.1030583E+00
         21   -1    0    0  501  502  0.00000000000E+00  0.00000000000E+00  0.73695002287E+03  0.73695002287E+03  0.00000000000E+00 0.  1.
         21   -1    0    0  502  503 -0.00000000000E+00 -0.00000000000E+00 -0.27154196619E+03  0.27154196619E+03  0.00000000000E+00 0.  1.
    9000007    1    1    2  501    0 -0.13214136903E+03  0.12887590698E+03  0.14508187659E+03  0.46380932690E+03  0.40000000000E+03 0.  1.
   -9000007    1    1    2    0  503  0.13214136903E+03 -0.12887590698E+03  0.32032618008E+03  0.54468266216E+03  0.40000000000E+03 0.  1.
<mgrwt>
<rscale>  2 0.44053415E+03</rscale>
<asrwt>0</asrwt>
<pdfrwt beam="1">  1       21 0.11337693E+00 0.44053415E+03</pdfrwt>
<pdfrwt beam="2">  1       21 0.41775687E-01 0.44053415E+03</pdfrwt>
<totfact> 0.29146255E+03</totfact>
</mgrwt>
</event>
<event>
 4    1  0.5003329E-002  0.4226958E+03  0.7818608E-02  0.1036192E+00
         21   -1    0    0  503  502  0.00000000000E+00  0.00000000000E+00  0.13840572472E+03  0.13840572472E+03  0.00000000000E+00 0.  1.
         21   -1    0    0  501  503 -0.00000000000E+00 -0.00000000000E+00 -0.14705066708E+04  0.14705066708E+04  0.00000000000E+00 0.  1.
    9000007    1    1    2  501    0  0.94285778589E+02 -0.98903809858E+02 -0.38492723379E+03  0.57169987490E+03  0.40000000000E+03 0.  1.
   -9000007    1    1    2    0  502 -0.94285778589E+02  0.98903809858E+02 -0.94717371225E+03  0.10372125206E+04  0.40000000000E+03 0.  1.
<mgrwt>
<rscale>  2 0.42269584E+03</rscale>
<asrwt>0</asrwt>
<pdfrwt beam="1">  1       21 0.21293189E-01 0.42269584E+03</pdfrwt>
<pdfrwt beam="2">  1       21 0.22623179E+00 0.42269584E+03</pdfrwt>
<totfact> 0.16001876E+03</totfact>
</mgrwt>
</event>
<event>
 4    1  0.5003329E-002  0.5131899E+03  0.7818608E-02  0.1010392E+00
         21   -1    0    0  503  502  0.00000000000E+00  0.00000000000E+00  0.22823289122E+03  0.22823289122E+03  0.00000000000E+00 0. -1.
         21   -1    0    0  501  503 -0.00000000000E+00 -0.00000000000E+00 -0.13929105775E+04  0.13929105775E+04  0.00000000000E+00 0.  1.
    9000007    1    1    2  501    0 -0.31547580440E+03 -0.61959164572E+02 -0.91808771327E+03  0.10517837090E+04  0.40000000000E+03 0.  1.
   -9000007    1    1    2    0  502  0.31547580440E+03  0.61959164572E+02 -0.24658997305E+03  0.56935975977E+03  0.40000000000E+03 0. -1.
<mgrwt>
<rscale>  2 0.51318995E+03</rscale>
<asrwt>0</asrwt>
<pdfrwt beam="1">  1       21 0.35112752E-01 0.51318995E+03</pdfrwt>
<pdfrwt beam="2">  1       21 0.21429394E+00 0.51318995E+03</pdfrwt>
<totfact> 0.68420795E+02</totfact>
</mgrwt>
</event>
<event>
 4    1  0.5003329E-002  0.4918220E+03  0.7818608E-02  0.1015936E+00
         21   -1    0    0  501  502  0.00000000000E+00  0.00000000000E+00  0.91503480276E+03  0.91503480276E+03  0.00000000000E+00 0.  1.
         21   -1    0    0  502  503 -0.00000000000E+00 -0.00000000000E+00 -0.31299093058E+03  0.31299093058E+03  0.00000000000E+00 0.  1.
    9000007    1    1    2  501    0 -0.23587874155E+03 -0.16201886115E+03  0.54307760336E+03  0.73268149653E+03  0.40000000000E+03 0.  1.
   -9000007    1    1    2    0  503  0.23587874155E+03  0.16201886115E+03  0.58966268829E+02  0.49534423681E+03  0.40000000000E+03 0.  1.
<mgrwt>
<rscale>  2 0.49182201E+03</rscale>
<asrwt>0</asrwt>
<pdfrwt beam="1">  1       21 0.14077458E+00 0.49182201E+03</pdfrwt>
<pdfrwt beam="2">  1       21 0.48152451E-01 0.49182201E+03</pdfrwt>
<totfact> 0.12146618E+03</totfact>
</mgrwt>
</event>
<event>
 4    1  0.5003329E-002  0.4681106E+03  0.7818608E-02  0.1022455E+00
         21   -1    0    0  501  502  0.00000000000E+00  0.00000000000E+00  0.33353879281E+03  0.33353879281E+03  0.00000000000E+00 0.  1.
         21   -1    0    0  502  503 -0.00000000000E+00 -0.00000000000E+00 -0.77505998121E+03  0.77505998121E+03  0.00000000000E+00 0.  1.
    9000007    1    1    2  501    0  0.24078907424E+03  0.33883960264E+02 -0.44043802182E+01  0.46813128458E+03  0.40000000000E+03 0.  1.
   -9000007    1    1    2    0  503 -0.24078907424E+03 -0.33883960264E+02 -0.43711680818E+03  0.64046748944E+03  0.40000000000E+03 0.  1.
<mgrwt>
<rscale>  2 0.46811056E+03</rscale>
<asrwt>0</asrwt>
<pdfrwt beam="1">  1       21 0.51313660E-01 0.46811056E+03</pdfrwt>
<pdfrwt beam="2">  1       21 0.11924000E+00 0.46811056E+03</pdfrwt>
<totfact> 0.16489496E+03</totfact>
</mgrwt>
</event>
<event>
 4    1  0.5003329E-002  0.4050612E+03  0.7818608E-02  0.1042041E+00
         21   -1    0    0  503  502  0.00000000000E+00  0.00000000000E+00  0.56964763877E+03  0.56964763877E+03  0.00000000000E+00 0. -1.
         21   -1    0    0  501  503 -0.00000000000E+00 -0.00000000000E+00 -0.98686004592E+03  0.98686004592E+03  0.00000000000E+00 0. -1.
    9000007    1    1    2  501    0  0.18406073358E+02  0.61121145070E+02 -0.86351351277E+03  0.95379775878E+03  0.40000000000E+03 0. -1.
   -9000007    1    1    2    0  502 -0.18406073358E+02 -0.61121145070E+02  0.44630110562E+03  0.60270992591E+03  0.40000000000E+03 0. -1.
<mgrwt>
<rscale>  2 0.40506120E+03</rscale>
<asrwt>0</asrwt>
<pdfrwt beam="1">  1       21 0.87638098E-01 0.40506120E+03</pdfrwt>
<pdfrwt beam="2">  1       21 0.15182462E+00 0.40506120E+03</pdfrwt>
<totfact> 0.27199944E+02</totfact>
</mgrwt>
</event>
<event>
 4    1  0.5003329E-002  0.4629809E+03  0.7818608E-02  0.1023920E+00
         21   -1    0    0  503  502  0.00000000000E+00  0.00000000000E+00  0.15949703617E+03  0.15949703617E+03  0.00000000000E+00 0.  1.
         21   -1    0    0  501  503 -0.00000000000E+00 -0.00000000000E+00 -0.16452597685E+04  0.16452597685E+04  0.00000000000E+00 0. -1.
    9000007    1    1    2  501    0  0.13446243671E+02  0.23274562249E+03 -0.11290698908E+04  0.12203073976E+04  0.40000000000E+03 0.  1.
   -9000007    1    1    2    0  502 -0.13446243671E+02 -0.23274562249E+03 -0.35669284153E+03  0.58444940710E+03  0.40000000000E+03 0.  1.
<mgrwt>
<rscale>  2 0.46298091E+03</rscale>
<asrwt>0</asrwt>
<pdfrwt beam="1">  1       21 0.24538005E-01 0.46298091E+03</pdfrwt>
<pdfrwt beam="2">  1       21 0.25311689E+00 0.46298091E+03</pdfrwt>
<totfact> 0.81253847E+02</totfact>
</mgrwt>
</event>
<event>
 4    1  0.5003329E-002  0.5174348E+03  0.7818608E-02  0.1009326E+00
         21   -1    0    0  501  502  0.00000000000E+00  0.00000000000E+00  0.84759057364E+03  0.84759057364E+03  0.00000000000E+00 0. -1.
         21   -1    0    0  502  503 -0.00000000000E+00 -0.00000000000E+00 -0.67823759530E+03  0.67823759530E+03  0.00000000000E+00 0. -1.
    9000007    1    1    2  501    0 -0.20971301137E+03  0.25250594441E+03  0.64231409259E+03  0.82480676079E+03  0.40000000000E+03 0. -1.
   -9000007    1    1    2    0  503  0.20971301137E+03 -0.25250594441E+03 -0.47296111425E+03  0.70102140815E+03  0.40000000000E+03 0. -1.
<mgrwt>
<rscale>  2 0.51743483E+03</rscale>
<asrwt>0</asrwt>
<pdfrwt beam="1">  1       21 0.13039855E+00 0.51743483E+03</pdfrwt>
<pdfrwt beam="2">  1       21 0.10434425E+00 0.51743483E+03</pdfrwt>
<totfact> 0.25387085E+02</totfact>
</mgrwt>
</event>
<event>
 4    1  0.5003329E-002  0.6941582E+03  0.7818608E-02  0.9727275E-01
         21   -1    0    0  503  502  0.00000000000E+00  0.00000000000E+00  0.76005867817E+03  0.76005867817E+03  0.00000000000E+00 0. -1.
         21   -1    0    0  501  503 -0.00000000000E+00 -0.00000000000E+00 -0.88359766171E+03  0.88359766171E+03  0.00000000000E+00 0.  1.
    9000007    1    1    2  501    0  0.45735409439E+03  0.33568257142E+03 -0.49858573119E+03  0.85465974970E+03  0.40000000000E+03 0.  1.
   -9000007    1    1    2    0  502 -0.45735409439E+03 -0.33568257142E+03  0.37504674765E+03  0.78899659019E+03  0.40000000000E+03 0. -1.
<mgrwt>
<rscale>  2 0.69415816E+03</rscale>
<asrwt>0</asrwt>
<pdfrwt beam="1">  1       21 0.11693210E+00 0.69415816E+03</pdfrwt>
<pdfrwt beam="2">  1       21 0.13593810E+00 0.69415816E+03</pdfrwt>
<totfact> 0.16027559E+02</totfact>
</mgrwt>
</event>
<event>
 4    1  0.5003329E-002  0.7816013E+03  0.7818608E-02  0.9587037E-01
         21   -1    0    0  501  502  0.00000000000E+00  0.00000000000E+00  0.37086520158E+03  0.37086520158E+03  0.00000000000E+00 0. -1.
         21   -1    0    0  502  503 -0.00000000000E+00 -0.00000000000E+00 -0.16546045538E+04  0.16546045538E+04  0.00000000000E+00 0. -1.
    9000007    1    1    2  501    0  0.14033831766E+03 -0.65666257888E+03 -0.57426251174E+03  0.96988556970E+03  0.40000000000E+03 0. -1.
   -9000007    1    1    2    0  503 -0.14033831766E+03  0.65666257888E+03 -0.70947684050E+03  0.10555841857E+04  0.40000000000E+03 0. -1.
<mgrwt>
<rscale>  2 0.78160130E+03</rscale>
<asrwt>0</asrwt>
<pdfrwt beam="1">  1       21 0.57056184E-01 0.78160130E+03</pdfrwt>
<pdfrwt beam="2">  1       21 0.25455455E+00 0.78160130E+03</pdfrwt>
<totfact> 0.12340177E+02</totfact>
</mgrwt>
</event>
<event>
 4    1  0.5003329E-002  0.6236691E+03  0.7818608E-02  0.9857482E-01
         21   -1    0    0  503  502  0.00000000000E+00  0.00000000000E+00  0.25000280908E+03  0.25000280908E+03  0.00000000000E+00 0.  1.
         21   -1    0    0  501  503 -0.00000000000E+00 -0.00000000000E+00 -0.16574996332E+04  0.16574996332E+04  0.00000000000E+00 0.  1.
    9000007    1    1    2  501    0 -0.45213085509E+03  0.15665512651E+03 -0.93995563793E+03  0.11280424372E+04  0.40000000000E+03 0.  1.
   -9000007    1    1    2    0  502  0.45213085509E+03 -0.15665512651E+03 -0.46754118622E+03  0.77946000513E+03  0.40000000000E+03 0.  1.
<mgrwt>
<rscale>  2 0.62366909E+03</rscale>
<asrwt>0</asrwt>
<pdfrwt beam="1">  1       21 0.38461971E-01 0.62366909E+03</pdfrwt>
<pdfrwt beam="2">  1       21 0.25499994E+00 0.62366909E+03</pdfrwt>
<totfact> 0.30007107E+02</totfact>
</mgrwt>
</event>
<event>
 4    1  0.5003329E-002  0.4647926E+03  0.7818608E-02  0.1023400E+00
         21   -1    0    0  503  502  0.00000000000E+00  0.00000000000E+00  0.38985896461E+03  0.38985896461E+03  0.00000000000E+00 0. -1.
         21   -1    0    0  501  503 -0.00000000000E+00 -0.00000000000E+00 -0.10942837392E+04  0.10942837392E+04  0.00000000000E+00 0. -1.
    9000007    1    1    2  501    0 -0.12586772067E+03  0.20047311233E+03 -0.87357489241E+03  0.98952778865E+03  0.40000000000E+03 0. -1.
   -9000007    1    1    2    0  502  0.12586772067E+03 -0.20047311233E+03  0.16915011787E+03  0.49461491511E+03  0.40000000000E+03 0. -1.
<mgrwt>
<rscale>  2 0.46479259E+03</rscale>
<asrwt>0</asrwt>
<pdfrwt beam="1">  1       21 0.59978304E-01 0.46479259E+03</pdfrwt>
<pdfrwt beam="2">  1       21 0.16835134E+00 0.46479259E+03</pdfrwt>
<totfact> 0.46783770E+02</totfact>
</mgrwt>
</event>
<event>
 4    1  0.5003329E-002  0.5113083E+03  0.7818608E-02  0.1010869E+00
         21   -1    0    0  503  502  0.00000000000E+00  0.00000000000E+00  0.24670717059E+03  0.24670717059E+03  0.00000000000E+00 0. -1.
         21   -1    0    0  501  503 -0.00000000000E+00 -0.00000000000E+00 -0.13577025499E+04  0.13577025499E+04  0.00000000000E+00 0.  1.
    9000007    1    1    2  501    0 -0.30914972101E+03  0.76567769322E+02 -0.93132750916E+03  0.10624533414E+04  0.40000000000E+03 0.  1.
   -9000007    1    1    2    0  502  0.30914972101E+03 -0.76567769322E+02 -0.17966787017E+03  0.54195637912E+03  0.40000000000E+03 0. -1.
<mgrwt>
<rscale>  2 0.51130830E+03</rscale>
<asrwt>0</asrwt>
<pdfrwt beam="1">  1       21 0.37954949E-01 0.51130830E+03</pdfrwt>
<pdfrwt beam="2">  1       21 0.20887732E+00 0.51130830E+03</pdfrwt>
<totfact> 0.63384532E+02</totfact>
</mgrwt>
</event>
<event>
 4    1  0.5003329E-002  0.5621679E+03  0.7818608E-02  0.9987161E-01
         21   -1    0    0  503  502  0.00000000000E+00  0.00000000000E+00  0.94723575931E+03  0.94723575931E+03  0.00000000000E+00 0. -1.
         21   -1    0    0  501  503 -0.00000000000E+00 -0.00000000000E+00 -0.33413767835E+03  0.33413767835E+03  0.00000000000E+00 0.  1.
    9000007    1    1    2  501    0 -0.32731092759E+03  0.22113423215E+03  0.28174568102E+03  0.62881906835E+03  0.40000000000E+03 0.  1.
   -9000007    1    1    2    0  502  0.32731092759E+03 -0.22113423215E+03  0.33135239994E+03  0.65255436930E+03  0.40000000000E+03 0. -1.
<mgrwt>
<rscale>  2 0.56216794E+03</rscale>
<asrwt>0</asrwt>
<pdfrwt beam="1">  1       21 0.14572858E+00 0.56216794E+03</pdfrwt>
<pdfrwt beam="2">  1       21 0.51405797E-01 0.56216794E+03</pdfrwt>
<totfact> 0.93882888E+02</totfact>
</mgrwt>
</event>
<event>
 4    1  0.5003329E-002  0.4176290E+03  0.7818608E-02  0.1037841E+00
         21   -1    0    0  501  502  0.00000000000E+00  0.00000000000E+00  0.54949571442E+03  0.54949571442E+03  0.00000000000E+00 0.  1.
         21   -1    0    0  502  503 -0.00000000000E+00 -0.00000000000E+00 -0.32264701383E+03  0.32264701383E+03  0.00000000000E+00 0.  1.
    9000007    1    1    2  501    0  0.86736501713E+02 -0.83010775184E+02  0.57854001943E+02  0.42161723763E+03  0.40000000000E+03 0.  1.
   -9000007    1    1    2    0  503 -0.86736501713E+02  0.83010775184E+02  0.16899469864E+03  0.45052549062E+03  0.40000000000E+03 0.  1.
<mgrwt>
<rscale>  2 0.41762903E+03</rscale>
<asrwt>0</asrwt>
<pdfrwt beam="1">  1       21 0.84537802E-01 0.41762903E+03</pdfrwt>
<pdfrwt beam="2">  1       21 0.49638002E-01 0.41762903E+03</pdfrwt>
<totfact> 0.41588655E+03</totfact>
</mgrwt>
</event>
<event>
 4    1  0.5003329E-002  0.5168856E+03  0.7818608E-02  0.1009463E+00
         21   -1    0    0  501  502  0.00000000000E+00  0.00000000000E+00  0.15198162111E+04  0.15198162111E+04  0.00000000000E+00 0.  1.
         21   -1    0    0  502  503 -0.00000000000E+00 -0.00000000000E+00 -0.21622723781E+03  0.21622723781E+03  0.00000000000E+00 0.  1.
    9000007    1    1    2  501    0 -0.28630810262E+03 -0.15873990959E+03  0.10271634608E+04  0.11498849785E+04  0.40000000000E+03 0.  1.
   -9000007    1    1    2    0  503  0.28630810262E+03  0.15873990959E+03  0.27642551253E+03  0.58615847047E+03  0.40000000000E+03 0.  1.
<mgrwt>
<rscale>  2 0.51688557E+03</rscale>
<asrwt>0</asrwt>
<pdfrwt beam="1">  1       21 0.23381787E+00 0.51688557E+03</pdfrwt>
<pdfrwt beam="2">  1       21 0.33265730E-01 0.51688557E+03</pdfrwt>
<totfact> 0.57172569E+02</totfact>
</mgrwt>
</event>
<event>
 4    1  0.5003329E-002  0.4316083E+03  0.7818608E-02  0.1033353E+00
         21   -1    0    0  503  502  0.00000000000E+00  0.00000000000E+00  0.28686741106E+03  0.28686741106E+03  0.00000000000E+00 0.  1.
         21   -1    0    0  501  503 -0.00000000000E+00 -0.00000000000E+00 -0.83017875994E+03  0.83017875994E+03  0.00000000000E+00 0.  1.
    9000007    1    1    2  501    0 -0.15689200790E+02 -0.16136791954E+03 -0.53230337200E+03  0.68529748017E+03  0.40000000000E+03 0.  1.
   -9000007    1    1    2    0  502  0.15689200790E+02  0.16136791954E+03 -0.11007976877E+02  0.43174869083E+03  0.40000000000E+03 0.  1.
<mgrwt>
<rscale>  2 0.43160834E+03</rscale>
<asrwt>0</asrwt>
<pdfrwt beam="1">  1       21 0.44133448E-01 0.43160834E+03</pdfrwt>
<pdfrwt beam="2">  1       21 0.12771981E+00 0.43160834E+03</pdfrwt>
<totfact> 0.19282027E+03</totfact>
</mgrwt>
</event>
<event>
 4    1  0.5003329E-002  0.4279493E+03  0.7818608E-02  0.1034510E+00
         21   -1    0    0  501  502  0.00000000000E+00  0.00000000000E+00  0.62263705856E+03  0.62263705856E+03  0.00000000000E+00 0. -1.
         21   -1    0    0  502  503 -0.00000000000E+00 -0.00000000000E+00 -0.75371396908E+03  0.75371396908E+03  0.00000000000E+00 0. -1.
    9000007    1    1    2  501    0 -0.80495203492E+02 -0.12907797241E+03  0.47183357579E+03  0.63699884143E+03  0.40000000000E+03 0. -1.
   -9000007    1    1    2    0  503  0.80495203492E+02  0.12907797241E+03 -0.60291048631E+03  0.73935218621E+03  0.40000000000E+03 0. -1.
<mgrwt>
<rscale>  2 0.42794930E+03</rscale>
<asrwt>0</asrwt>
<pdfrwt beam="1">  1       21 0.95790316E-01 0.42794930E+03</pdfrwt>
<pdfrwt beam="2">  1       21 0.11595600E+00 0.42794930E+03</pdfrwt>
<totfact> 0.43977286E+02</totfact>
</mgrwt>
</event>
<event>
 4    1  0.5003329E-002  0.5132793E+03  0.7818608E-02  0.1010370E+00
         21   -1    0    0  503  502  0.00000000000E+00  0.00000000000E+00  0.94410451179E+03  0.94410451179E+03  0.00000000000E+00 0.  1.
         21   -1    0    0  501  503 -0.00000000000E+00 -0.00000000000E+00 -0.27914296669E+03  0.27914296669E+03  0.00000000000E+00 0. -1.
    9000007    1    1    2  501    0 -0.87483500057E+01  0.32152615611E+03  0.32152682947E+03  0.60566913803E+03  0.40000000000E+03 0.  1.
   -9000007    1    1    2    0  502  0.87483500057E+01 -0.32152615611E+03  0.34343471564E+03  0.61757834045E+03  0.40000000000E+03 0.  1.
<mgrwt>
<rscale>  2 0.51327926E+03</rscale>
<asrwt>0</asrwt>
<pdfrwt beam="1">  1       21 0.14524685E+00 0.51327926E+03</pdfrwt>
<pdfrwt beam="2">  1       21 0.42945072E-01 0.51327926E+03</pdfrwt>
<totfact> 0.14095924E+03</totfact>
</mgrwt>
</event>
<event>
 4    1  0.5003329E-002  0.5834381E+03  0.7818608E-02  0.9940375E-01
         21   -1    0    0  503  502  0.00000000000E+00  0.00000000000E+00  0.12369366604E+04  0.12369366604E+04  0.00000000000E+00 0. -1.
         21   -1    0    0  501  503 -0.00000000000E+00 -0.00000000000E+00 -0.27798620779E+03  0.27798620779E+03  0.00000000000E+00 0.  1.
    9000007    1    1    2  501    0  0.41790226356E+03 -0.75879275978E+02  0.40358766066E+03  0.70942439079E+03  0.40000000000E+03 0. -1.
   -9000007    1    1    2    0  502 -0.41790226356E+03  0.75879275978E+02  0.55536279193E+03  0.80549847738E+03  0.40000000000E+03 0.  1.
<mgrwt>
<rscale>  2 0.58343806E+03</rscale>
<asrwt>0</asrwt>
<pdfrwt beam="1">  1       21 0.19029795E+00 0.58343806E+03</pdfrwt>
<pdfrwt beam="2">  1       21 0.42767109E-01 0.58343806E+03</pdfrwt>
<totfact> 0.64201158E+02</totfact>
</mgrwt>
</event>
<event>
 4    1  0.5003329E-002  0.6625306E+03  0.7818608E-02  0.9783546E-01
         21   -1    0    0  503  502  0.00000000000E+00  0.00000000000E+00  0.43051402607E+03  0.43051402607E+03  0.00000000000E+00 0. -1.
         21   -1    0    0  501  503 -0.00000000000E+00 -0.00000000000E+00 -0.10204693315E+04  0.10204693315E+04  0.00000000000E+00 0.  1.
    9000007    1    1    2  501    0 -0.13784435092E+03  0.50984879227E+03 -0.31630059682E+03  0.73416137437E+03  0.40000000000E+03 0.  1.
   -9000007    1    1    2    0  502  0.13784435092E+03 -0.50984879227E+03 -0.27365470861E+03  0.71682198321E+03  0.40000000000E+03 0. -1.
<mgrwt>
<rscale>  2 0.66253065E+03</rscale>
<asrwt>0</asrwt>
<pdfrwt beam="1">  1       21 0.66232928E-01 0.66253065E+03</pdfrwt>
<pdfrwt beam="2">  1       21 0.15699528E+00 0.66253065E+03</pdfrwt>
<totfact> 0.42437269E+02</totfact>
</mgrwt>
</event>
<event>
 4    1  0.5003329E-002  0.5830628E+03  0.7818608E-02  0.9941182E-01
         21   -1    0    0  503  502  0.00000000000E+00  0.00000000000E+00  0.17289872248E+04  0.17289872248E+04  0.00000000000E+00 0. -1.
         21   -1    0    0  501  503 -0.00000000000E+00 -0.00000000000E+00 -0.20093089173E+03  0.20093089173E+03  0.00000000000E+00 0. -1.
    9000007    1    1    2  501    0 -0.77613661615E+02 -0.41705920608E+03  0.62277026674E+03  0.85311492015E+03  0.40000000000E+03 0. -1.
   -9000007    1    1    2    0  502  0.77613661615E+02  0.41705920608E+03  0.90528606638E+03  0.10768031964E+04  0.40000000000E+03 0. -1.
<mgrwt>
<rscale>  2 0.58306283E+03</rscale>
<asrwt>0</asrwt>
<pdfrwt beam="1">  1       21 0.26599802E+00 0.58306283E+03</pdfrwt>
<pdfrwt beam="2">  1       21 0.30912446E-01 0.58306283E+03</pdfrwt>
<totfact> 0.40673220E+02</totfact>
</mgrwt>
</event>
<event>
 4    1  0.5003329E-002  0.4295444E+03  0.7818608E-02  0.1034004E+00
         21   -1    0    0  503  502  0.00000000000E+00  0.00000000000E+00  0.88434194414E+03  0.88434194414E+03  0.00000000000E+00 0.  1.
         21   -1    0    0  501  503 -0.00000000000E+00 -0.00000000000E+00 -0.20864928145E+03  0.20864928145E+03  0.00000000000E+00 0.  1.
    9000007    1    1    2  501    0 -0.13832178784E+03 -0.73317516829E+02  0.34164943551E+03  0.54884671088E+03  0.40000000000E+03 0. -1.
   -9000007    1    1    2    0  502  0.13832178784E+03  0.73317516829E+02  0.33404322718E+03  0.54414451471E+03  0.40000000000E+03 0. -1.
<mgrwt>
<rscale>  2 0.42954438E+03</rscale>
<asrwt>0</asrwt>
<pdfrwt beam="1">  1       21 0.13605260E+00 0.42954438E+03</pdfrwt>
<pdfrwt beam="2">  1       21 0.32099890E-01 0.42954438E+03</pdfrwt>
<totfact> 0.31368511E+03</totfact>
</mgrwt>
</event>
<event>
 4    1  0.5003329E-002  0.4414097E+03  0.7818608E-02  0.1030315E+00
         21   -1    0    0  501  502  0.00000000000E+00  0.00000000000E+00  0.44826853619E+03  0.44826853619E+03  0.00000000000E+00 0.  1.
         21   -1    0    0  502  503 -0.00000000000E+00 -0.00000000000E+00 -0.46119814965E+03  0.46119814965E+03  0.00000000000E+00 0.  1.
    9000007    1    1    2  501    0 -0.63028619421E+02  0.17569825427E+03  0.10262479539E+03  0.45318244896E+03  0.40000000000E+03 0.  1.
   -9000007    1    1    2    0  503  0.63028619421E+02 -0.17569825427E+03 -0.11555440884E+03  0.45628423688E+03  0.40000000000E+03 0.  1.
<mgrwt>
<rscale>  2 0.44140965E+03</rscale>
<asrwt>0</asrwt>
<pdfrwt beam="1">  1       21 0.68964391E-01 0.44140965E+03</pdfrwt>
<pdfrwt beam="2">  1       21 0.70953561E-01 0.44140965E+03</pdfrwt>
<totfact> 0.30080743E+03</totfact>
</mgrwt>
</event>
<event>
 4    1  0.5003329E-002  0.4543806E+03  0.7818608E-02  0.1026424E+00
         21   -1    0    0  501  502  0.00000000000E+00  0.00000000000E+00  0.35273420812E+03  0.35273420812E+03  0.00000000000E+00 0.  1.
         21   -1    0    0  502  503 -0.00000000000E+00 -0.00000000000E+00 -0.13132610187E+04  0.13132610187E+04  0.00000000000E+00 0.  1.
    9000007    1    1    2  501    0  0.10741843598E+03  0.18687708379E+03  0.13991530336E+03  0.47543459797E+03  0.40000000000E+03 0.  1.
   -9000007    1    1    2    0  503 -0.10741843598E+03 -0.18687708379E+03 -0.11004421139E+04  0.11905606288E+04  0.40000000000E+03 0.  1.
<mgrwt>
<rscale>  2 0.45438064E+03</rscale>
<asrwt>0</asrwt>
<pdfrwt beam="1">  1       21 0.54266801E-01 0.45438064E+03</pdfrwt>
<pdfrwt beam="2">  1       21 0.20204016E+00 0.45438064E+03</pdfrwt>
<totfact> 0.34069208E+02</totfact>
</mgrwt>
</event>
<event>
 4    1  0.5003329E-002  0.5006636E+03  0.7818608E-02  0.1013606E+00
         21   -1    0    0  501  502  0.00000000000E+00  0.00000000000E+00  0.18468204957E+04  0.18468204957E+04  0.00000000000E+00 0. -1.
         21   -1    0    0  502  503 -0.00000000000E+00 -0.00000000000E+00 -0.21374901559E+03  0.21374901559E+03  0.00000000000E+00 0.  1.
    9000007    1    1    2  501    0 -0.21262271906E+03 -0.21320330716E+03  0.14389976661E+04  0.15236070208E+04  0.40000000000E+03 0. -1.
   -9000007    1    1    2    0  503  0.21262271906E+03  0.21320330716E+03  0.19407381394E+03  0.53696249041E+03  0.40000000000E+03 0.  1.
<mgrwt>
<rscale>  2 0.50066363E+03</rscale>
<asrwt>0</asrwt>
<pdfrwt beam="1">  1       21 0.28412622E+00 0.50066363E+03</pdfrwt>
<pdfrwt beam="2">  1       21 0.32884465E-01 0.50066363E+03</pdfrwt>
<totfact> 0.28937974E+02</totfact>
</mgrwt>
</event>
<event>
 4    1  0.5003329E-002  0.5264287E+03  0.7818608E-02  0.1007102E+00
         21   -1    0    0  503  502  0.00000000000E+00  0.00000000000E+00  0.16476204104E+04  0.16476204104E+04  0.00000000000E+00 0.  1.
         21   -1    0    0  501  503 -0.00000000000E+00 -0.00000000000E+00 -0.21277788274E+03  0.21277788274E+03  0.00000000000E+00 0.  1.
    9000007    1    1    2  501    0  0.24609499191E+03 -0.23783272706E+03  0.29164631407E+03  0.60181784920E+03  0.40000000000E+03 0.  1.
   -9000007    1    1    2    0  502 -0.24609499191E+03  0.23783272706E+03  0.11431962136E+04  0.12585804440E+04  0.40000000000E+03 0.  1.
<mgrwt>
<rscale>  2 0.52642868E+03</rscale>
<asrwt>0</asrwt>
<pdfrwt beam="1">  1       21 0.25348005E+00 0.52642868E+03</pdfrwt>
<pdfrwt beam="2">  1       21 0.32735060E-01 0.52642868E+03</pdfrwt>
<totfact> 0.44361307E+02</totfact>
</mgrwt>
</event>
<event>
 4    1  0.5003329E-002  0.5796318E+03  0.7818608E-02  0.9948588E-01
         21   -1    0    0  503  502  0.00000000000E+00  0.00000000000E+00  0.52952348974E+03  0.52952348974E+03  0.00000000000E+00 0. -1.
         21   -1    0    0  501  503 -0.00000000000E+00 -0.00000000000E+00 -0.89233881903E+03  0.89233881903E+03  0.00000000000E+00 0.  1.
    9000007    1    1    2  501    0 -0.38053931577E+03  0.17653005570E+03 -0.56357371932E+03  0.80844812358E+03  0.40000000000E+03 0.  1.
   -9000007    1    1    2    0  502  0.38053931577E+03 -0.17653005570E+03  0.20075839004E+03  0.61341418518E+03  0.40000000000E+03 0. -1.
<mgrwt>
<rscale>  2 0.57963181E+03</rscale>
<asrwt>0</asrwt>
<pdfrwt beam="1">  1       21 0.81465152E-01 0.57963181E+03</pdfrwt>
<pdfrwt beam="2">  1       21 0.13728289E+00 0.57963181E+03</pdfrwt>
<totfact> 0.39162896E+02</totfact>
</mgrwt>
</event>
<event>
 4    1  0.5003329E-002  0.4662057E+03  0.7818608E-02  0.1022997E+00
         21   -1    0    0  501  502  0.00000000000E+00  0.00000000000E+00  0.12203258151E+04  0.12203258151E+04  0.00000000000E+00 0.  1.
         21   -1    0    0  502  503 -0.00000000000E+00 -0.00000000000E+00 -0.18353144043E+03  0.18353144043E+03  0.00000000000E+00 0. -1.
    9000007    1    1    2  501    0 -0.91175533354E+01 -0.23930036352E+03  0.63907867395E+03  0.79105584206E+03  0.40000000000E+03 0.  1.
   -9000007    1    1    2    0  503  0.91175533354E+01  0.23930036352E+03  0.39771570076E+03  0.61280141350E+03  0.40000000000E+03 0. -1.
<mgrwt>
<rscale>  2 0.46620574E+03</rscale>
<asrwt>0</asrwt>
<pdfrwt beam="1">  1       21 0.18774243E+00 0.46620574E+03</pdfrwt>
<pdfrwt beam="2">  1       21 0.28235607E-01 0.46620574E+03</pdfrwt>
<totfact> 0.16244472E+03</totfact>
</mgrwt>
</event>
<event>
 4    1  0.5003329E-002  0.4157924E+03  0.7818608E-02  0.1038444E+00
         21   -1    0    0  503  502  0.00000000000E+00  0.00000000000E+00  0.25427673273E+03  0.25427673273E+03  0.00000000000E+00 0. -1.
         21   -1    0    0  501  503 -0.00000000000E+00 -0.00000000000E+00 -0.10956029457E+04  0.10956029457E+04  0.00000000000E+00 0. -1.
    9000007    1    1    2  501    0  0.77821658827E+02  0.82626407190E+02 -0.83640981638E+03  0.93405819663E+03  0.40000000000E+03 0. -1.
   -9000007    1    1    2    0  502 -0.77821658827E+02 -0.82626407190E+02 -0.49163965611E+01  0.41582148177E+03  0.40000000000E+03 0. -1.
<mgrwt>
<rscale>  2 0.41579242E+03</rscale>
<asrwt>0</asrwt>
<pdfrwt beam="1">  1       21 0.39119496E-01 0.41579242E+03</pdfrwt>
<pdfrwt beam="2">  1       21 0.16855430E+00 0.41579242E+03</pdfrwt>
<totfact> 0.11791563E+03</totfact>
</mgrwt>
</event>
<event>
 4    1  0.5003329E-002  0.5104292E+03  0.7818608E-02  0.1011092E+00
         21   -1    0    0  503  502  0.00000000000E+00  0.00000000000E+00  0.16944032543E+03  0.16944032543E+03  0.00000000000E+00 0. -1.
         21   -1    0    0  501  503 -0.00000000000E+00 -0.00000000000E+00 -0.19393080765E+04  0.19393080765E+04  0.00000000000E+00 0. -1.
    9000007    1    1    2  501    0 -0.13137854091E+03  0.28857863159E+03 -0.13647843199E+04  0.14571115906E+04  0.40000000000E+03 0. -1.
   -9000007    1    1    2    0  502  0.13137854091E+03 -0.28857863159E+03 -0.40508343109E+03  0.65163681124E+03  0.40000000000E+03 0. -1.
<mgrwt>
<rscale>  2 0.51042918E+03</rscale>
<asrwt>0</asrwt>
<pdfrwt beam="1">  1       21 0.26067740E-01 0.51042918E+03</pdfrwt>
<pdfrwt beam="2">  1       21 0.29835511E+00 0.51042918E+03</pdfrwt>
<totfact> 0.37468471E+02</totfact>
</mgrwt>
</event>
<event>
 4    1  0.5003329E-002  0.4002634E+03  0.7818608E-02  0.1043689E+00
         21   -1    0    0  501  502  0.00000000000E+00  0.00000000000E+00  0.22250483662E+03  0.22250483662E+03  0.00000000000E+00 0. -1.
         21   -1    0    0  502  503 -0.00000000000E+00 -0.00000000000E+00 -0.72037378979E+03  0.72037378979E+03  0.00000000000E+00 0. -1.
    9000007    1    1    2  501    0 -0.13199313534E+02 -0.60450339273E+01 -0.23867644760E+03  0.46602275798E+03  0.40000000000E+03 0. -1.
   -9000007    1    1    2    0  503  0.13199313534E+02  0.60450339273E+01 -0.25919250556E+03  0.47685586843E+03  0.40000000000E+03 0. -1.
<mgrwt>
<rscale>  2 0.40026337E+03</rscale>
<asrwt>0</asrwt>
<pdfrwt beam="1">  1       21 0.34231514E-01 0.40026337E+03</pdfrwt>
<pdfrwt beam="2">  1       21 0.11082674E+00 0.40026337E+03</pdfrwt>
<totfact> 0.47023774E+03</totfact>
</mgrwt>
</event>
<event>
 4    1  0.5003329E-002  0.5641776E+03  0.7818608E-02  0.9982646E-01
         21   -1    0    0  501  502  0.00000000000E+00  0.00000000000E+00  0.11448847244E+04  0.11448847244E+04  0.00000000000E+00 0. -1.
         21   -1    0    0  502  503 -0.00000000000E+00 -0.00000000000E+00 -0.30746918786E+03  0.30746918786E+03  0.00000000000E+00 0.  1.
    9000007    1    1    2  501    0 -0.11380550254E+03  0.38124103041E+03  0.64346148820E+03  0.85576813593E+03  0.40000000000E+03 0.  1.
   -9000007    1    1    2    0  503  0.11380550254E+03 -0.38124103041E+03  0.19395404837E+03  0.59658577636E+03  0.40000000000E+03 0.  1.
<mgrwt>
<rscale>  2 0.56417765E+03</rscale>
<asrwt>0</asrwt>
<pdfrwt beam="1">  1       21 0.17613611E+00 0.56417765E+03</pdfrwt>
<pdfrwt beam="2">  1       21 0.47302953E-01 0.56417765E+03</pdfrwt>
<totfact> 0.65794400E+02</totfact>
</mgrwt>
</event>
<event>
 4    1  0.5003329E-002  0.4778309E+03  0.7818608E-02  0.1019733E+00
         21   -1    0    0  503  502  0.00000000000E+00  0.00000000000E+00  0.82628400267E+03  0.82628400267E+03  0.00000000000E+00 0. -1.
         21   -1    0    0  501  503 -0.00000000000E+00 -0.00000000000E+00 -0.27649255034E+03  0.27649255034E+03  0.00000000000E+00 0. -1.
    9000007    1    1    2  501    0  0.24748305678E+03  0.84109840902E+02  0.26129303371E+03  0.54460662702E+03  0.40000000000E+03 0. -1.
   -9000007    1    1    2    0  502 -0.24748305678E+03 -0.84109840902E+02  0.28849841862E+03  0.55816992599E+03  0.40000000000E+03 0. -1.
<mgrwt>
<rscale>  2 0.47783086E+03</rscale>
<asrwt>0</asrwt>
<pdfrwt beam="1">  1       21 0.12712062E+00 0.47783086E+03</pdfrwt>
<pdfrwt beam="2">  1       21 0.42537316E-01 0.47783086E+03</pdfrwt>
<totfact> 0.20705299E+03</totfact>
</mgrwt>
</event>
<event>
 4    1  0.5003329E-002  0.4185079E+03  0.7818608E-02  0.1037553E+00
         21   -1    0    0  501  502  0.00000000000E+00  0.00000000000E+00  0.60762916540E+03  0.60762916540E+03  0.00000000000E+00 0.  1.
         21   -1    0    0  502  503 -0.00000000000E+00 -0.00000000000E+00 -0.34395115492E+03  0.34395115492E+03  0.00000000000E+00 0.  1.
    9000007    1    1    2  501    0  0.65907663338E+02 -0.10394739410E+03 -0.59630943361E+02  0.42273482259E+03  0.40000000000E+03 0.  1.
   -9000007    1    1    2    0  503 -0.65907663338E+02  0.10394739410E+03  0.32330895384E+03  0.52884549772E+03  0.40000000000E+03 0.  1.
<mgrwt>
<rscale>  2 0.41850792E+03</rscale>
<asrwt>0</asrwt>
<pdfrwt beam="1">  1       21 0.93481410E-01 0.41850792E+03</pdfrwt>
<pdfrwt beam="2">  1       21 0.52915562E-01 0.41850792E+03</pdfrwt>
<totfact> 0.28618630E+03</totfact>
</mgrwt>
</event>
<event>
 4    1  0.5003329E-002  0.4312163E+03  0.7818608E-02  0.1033476E+00
         21   -1    0    0  503  502  0.00000000000E+00  0.00000000000E+00  0.10703683109E+04  0.10703683109E+04  0.00000000000E+00 0. -1.
         21   -1    0    0  501  503 -0.00000000000E+00 -0.00000000000E+00 -0.22164967775E+03  0.22164967775E+03  0.00000000000E+00 0. -1.
    9000007    1    1    2  501    0 -0.15739297534E+03 -0.34277885000E+02  0.12396343113E+03  0.44868079337E+03  0.40000000000E+03 0. -1.
   -9000007    1    1    2    0  502  0.15739297534E+03  0.34277885000E+02  0.72475520202E+03  0.84333719528E+03  0.40000000000E+03 0. -1.
<mgrwt>
<rscale>  2 0.43121633E+03</rscale>
<asrwt>0</asrwt>
<pdfrwt beam="1">  1       21 0.16467204E+00 0.43121633E+03</pdfrwt>
<pdfrwt beam="2">  1       21 0.34099951E-01 0.43121633E+03</pdfrwt>
<totfact> 0.16531326E+03</totfact>
</mgrwt>
</event>
<event>
 4    1  0.5003329E-002  0.4825552E+03  0.7818608E-02  0.1018435E+00
         21   -1    0    0  503  502  0.00000000000E+00  0.00000000000E+00  0.10725349277E+03  0.10725349277E+03  0.00000000000E+00 0.  1.
         21   -1    0    0  501  503 -0.00000000000E+00 -0.00000000000E+00 -0.24495774919E+04  0.24495774919E+04  0.00000000000E+00 0.  1.
    9000007    1    1    2  501    0 -0.26970970900E+03  0.10778483361E+02 -0.16021954545E+04  0.16732871174E+04  0.40000000000E+03 0.  1.
   -9000007    1    1    2    0  502  0.26970970900E+03 -0.10778483361E+02 -0.74012854464E+03  0.88354386729E+03  0.40000000000E+03 0.  1.
<mgrwt>
<rscale>  2 0.48255518E+03</rscale>
<asrwt>0</asrwt>
<pdfrwt beam="1">  1       21 0.16500537E-01 0.48255518E+03</pdfrwt>
<pdfrwt beam="2">  1       21 0.37685808E+00 0.48255518E+03</pdfrwt>
<totfact> 0.30145919E+02</totfact>
</mgrwt>
</event>
<event>
 4    1  0.5003329E-002  0.4016002E+03  0.7818608E-02  0.1043227E+00
         21   -1    0    0  503  502  0.00000000000E+00  0.00000000000E+00  0.13791909559E+03  0.13791909559E+03  0.00000000000E+00 0. -1.
         21   -1    0    0  501  503 -0.00000000000E+00 -0.00000000000E+00 -0.14443884581E+04  0.14443884581E+04  0.00000000000E+00 0. -1.
    9000007    1    1    2  501    0 -0.30930230949E+02  0.18056058949E+02 -0.99843843032E+03  0.10761793529E+04  0.40000000000E+03 0. -1.
   -9000007    1    1    2    0  502  0.30930230949E+02 -0.18056058949E+02 -0.30803093218E+03  0.50612820078E+03  0.40000000000E+03 0. -1.
<mgrwt>
<rscale>  2 0.40160017E+03</rscale>
<asrwt>0</asrwt>
<pdfrwt beam="1">  1       21 0.21218322E-01 0.40160017E+03</pdfrwt>
<pdfrwt beam="2">  1       21 0.22221361E+00 0.40160017E+03</pdfrwt>
<totfact> 0.17260703E+03</totfact>
</mgrwt>
</event>
<event>
 4    1  0.5003329E-002  0.4931751E+03  0.7818608E-02  0.1015576E+00
         21   -1    0    0  501  502  0.00000000000E+00  0.00000000000E+00  0.25955782513E+03  0.25955782513E+03  0.00000000000E+00 0. -1.
         21   -1    0    0  502  503 -0.00000000000E+00 -0.00000000000E+00 -0.10686517582E+04  0.10686517582E+04  0.00000000000E+00 0. -1.
    9000007    1    1    2  501    0 -0.13685416486E+03  0.25395398279E+03 -0.17150716142E+03  0.52214595109E+03  0.40000000000E+03 0. -1.
   -9000007    1    1    2    0  503  0.13685416486E+03 -0.25395398279E+03 -0.63758677161E+03  0.80606363219E+03  0.40000000000E+03 0. -1.
<mgrwt>
<rscale>  2 0.49317511E+03</rscale>
<asrwt>0</asrwt>
<pdfrwt beam="1">  1       21 0.39931973E-01 0.49317511E+03</pdfrwt>
<pdfrwt beam="2">  1       21 0.16440796E+00 0.49317511E+03</pdfrwt>
<totfact> 0.11732775E+03</totfact>
</mgrwt>
</event>
<event>
 4    1  0.5003329E-002  0.4303664E+03  0.7818608E-02  0.1033744E+00
         21   -1    0    0  501  502  0.00000000000E+00  0.00000000000E+00  0.42895726869E+03  0.42895726869E+03  0.00000000000E+00 0.  1.
         21   -1    0    0  502  503 -0.00000000000E+00 -0.00000000000E+00 -0.52518510350E+03  0.52518510350E+03  0.00000000000E+00 0. -1.
    9000007    1    1    2  501    0 -0.57709060151E+02 -0.14793557262E+03 -0.24930640002E+03  0.49736199127E+03  0.40000000000E+03 0. -1.
   -9000007    1    1    2    0  503  0.57709060151E+02  0.14793557262E+03  0.15307856521E+03  0.45678038092E+03  0.40000000000E+03 0.  1.
<mgrwt>
<rscale>  2 0.43036644E+03</rscale>
<asrwt>0</asrwt>
<pdfrwt beam="1">  1       21 0.65993426E-01 0.43036644E+03</pdfrwt>
<pdfrwt beam="2">  1       21 0.80797708E-01 0.43036644E+03</pdfrwt>
<totfact> 0.24770945E+03</totfact>
</mgrwt>
</event>
<event>
 4    1  0.5003329E-002  0.4179482E+03  0.7818608E-02  0.1037736E+00
         21   -1    0    0  501  502  0.00000000000E+00  0.00000000000E+00  0.21785960356E+03  0.21785960356E+03  0.00000000000E+00 0.  1.
         21   -1    0    0  502  503 -0.00000000000E+00 -0.00000000000E+00 -0.87233768160E+03  0.87233768160E+03  0.00000000000E+00 0. -1.
    9000007    1    1    2  501    0 -0.11926875958E+03 -0.21346067263E+02 -0.17223921622E+03  0.45204760723E+03  0.40000000000E+03 0.  1.
   -9000007    1    1    2    0  503  0.11926875958E+03  0.21346067263E+02 -0.48223886182E+03  0.63814967793E+03  0.40000000000E+03 0. -1.
<mgrwt>
<rscale>  2 0.41794819E+03</rscale>
<asrwt>0</asrwt>
<pdfrwt beam="1">  1       21 0.33516862E-01 0.41794819E+03</pdfrwt>
<pdfrwt beam="2">  1       21 0.13420580E+00 0.41794819E+03</pdfrwt>
<totfact> 0.29946961E+03</totfact>
</mgrwt>
</event>
<event>
 4    1  0.5003329E-002  0.4435994E+03  0.7818608E-02  0.1029648E+00
         21   -1    0    0  501  502  0.00000000000E+00  0.00000000000E+00  0.45756859165E+03  0.45756859165E+03  0.00000000000E+00 0.  1.
         21   -1    0    0  502  503 -0.00000000000E+00 -0.00000000000E+00 -0.82164119742E+03  0.82164119742E+03  0.00000000000E+00 0. -1.
    9000007    1    1    2  501    0  0.10108955307E+02  0.19151572862E+03  0.25951725417E+03  0.51393547309E+03  0.40000000000E+03 0.  1.
   -9000007    1    1    2    0  503 -0.10108955307E+02 -0.19151572862E+03 -0.62358985993E+03  0.76527431598E+03  0.40000000000E+03 0. -1.
<mgrwt>
<rscale>  2 0.44359944E+03</rscale>
<asrwt>0</asrwt>
<pdfrwt beam="1">  1       21 0.70395170E-01 0.44359944E+03</pdfrwt>
<pdfrwt beam="2">  1       21 0.12640634E+00 0.44359944E+03</pdfrwt>
<totfact> 0.71686627E+02</totfact>
</mgrwt>
</event>
<event>
 4    1  0.5003329E-002  0.4191867E+03  0.7818608E-02  0.1037331E+00
         21   -1    0    0  501  502  0.00000000000E+00  0.00000000000E+00  0.17556076116E+03  0.17556076116E+03  0.00000000000E+00 0.  1.
         21   -1    0    0  502  503 -0.00000000000E+00 -0.00000000000E+00 -0.10057960973E+04  0.10057960973E+04  0.00000000000E+00 0.  1.
    9000007    1    1    2  501    0  0.17656055863E+02 -0.12411994521E+03 -0.37387550480E+03  0.56169421414E+03  0.40000000000E+03 0.  1.
   -9000007    1    1    2    0  503 -0.17656055863E+02  0.12411994521E+03 -0.45635983135E+03  0.61966264433E+03  0.40000000000E+03 0.  1.
<mgrwt>
<rscale>  2 0.41918671E+03</rscale>
<asrwt>0</asrwt>
<pdfrwt beam="1">  1       21 0.27009348E-01 0.41918671E+03</pdfrwt>
<pdfrwt beam="2">  1       21 0.15473786E+00 0.41918671E+03</pdfrwt>
<totfact> 0.31388902E+03</totfact>
</mgrwt>
</event>
<event>
 4    1  0.5003329E-002  0.4529131E+03  0.7818608E-02  0.1026857E+00
         21   -1    0    0  501  502  0.00000000000E+00  0.00000000000E+00  0.58891769939E+03  0.58891769939E+03  0.00000000000E+00 0. -1.
         21   -1    0    0  502  503 -0.00000000000E+00 -0.00000000000E+00 -0.79218982976E+03  0.79218982976E+03  0.00000000000E+00 0.  1.
    9000007    1    1    2  501    0 -0.20115643386E+03  0.68310599241E+02  0.41527041722E+03  0.61447519744E+03  0.40000000000E+03 0. -1.
   -9000007    1    1    2    0  503  0.20115643386E+03 -0.68310599241E+02 -0.61854254759E+03  0.76663233171E+03  0.40000000000E+03 0.  1.
<mgrwt>
<rscale>  2 0.45291307E+03</rscale>
<asrwt>0</asrwt>
<pdfrwt beam="1">  1       21 0.90602724E-01 0.45291307E+03</pdfrwt>
<pdfrwt beam="2">  1       21 0.12187536E+00 0.45291307E+03</pdfrwt>
<totfact> 0.43760097E+02</totfact>
</mgrwt>
</event>
<event>
 4    1  0.5003329E-002  0.4562276E+03  0.7818608E-02  0.1025881E+00
         21   -1    0    0  503  502  0.00000000000E+00  0.00000000000E+00  0.64150642631E+03  0.64150642631E+03  0.00000000000E+00 0. -1.
         21   -1    0    0  501  503 -0.00000000000E+00 -0.00000000000E+00 -0.95373981421E+03  0.95373981421E+03  0.00000000000E+00 0. -1.
    9000007    1    1    2  501    0 -0.16474452942E+03  0.14492361281E+03 -0.80401141639E+03  0.92443386524E+03  0.40000000000E+03 0. -1.
   -9000007    1    1    2    0  502  0.16474452942E+03 -0.14492361281E+03  0.49177802849E+03  0.67081237528E+03  0.40000000000E+03 0. -1.
<mgrwt>
<rscale>  2 0.45622759E+03</rscale>
<asrwt>0</asrwt>
<pdfrwt beam="1">  1       21 0.98693296E-01 0.45622759E+03</pdfrwt>
<pdfrwt beam="2">  1       21 0.14672920E+00 0.45622759E+03</pdfrwt>
<totfact> 0.21881211E+02</totfact>
</mgrwt>
</event>
<event>
 4    1  0.5003329E-002  0.4108027E+03  0.7818608E-02  0.1040102E+00
         21   -1    0    0  501  502  0.00000000000E+00  0.00000000000E+00  0.11457773539E+04  0.11457773539E+04  0.00000000000E+00 0.  1.
         21   -1    0    0  502  503 -0.00000000000E+00 -0.00000000000E+00 -0.18599026841E+03  0.18599026841E+03  0.00000000000E+00 0.  1.
    9000007    1    1    2  501    0 -0.77410121991E+02  0.52598056859E+02  0.78364850355E+03  0.88479594240E+03  0.40000000000E+03 0.  1.
   -9000007    1    1    2    0  503  0.77410121991E+02 -0.52598056859E+02  0.17613858191E+03  0.44697167987E+03  0.40000000000E+03 0.  1.
<mgrwt>
<rscale>  2 0.41080273E+03</rscale>
<asrwt>0</asrwt>
<pdfrwt beam="1">  1       21 0.17627343E+00 0.41080273E+03</pdfrwt>
<pdfrwt beam="2">  1       21 0.28613888E-01 0.41080273E+03</pdfrwt>
<totfact> 0.19496152E+03</totfact>
</mgrwt>
</event>
<event>
 4    1  0.5003329E-002  0.5882855E+03  0.7818608E-02  0.9930012E-01
         21   -1    0    0  501  502  0.00000000000E+00  0.00000000000E+00  0.21671218789E+03  0.21671218789E+03  0.00000000000E+00 0.  1.
         21   -1    0    0  502  503 -0.00000000000E+00 -0.00000000000E+00 -0.16009244228E+04  0.16009244228E+04  0.00000000000E+00 0.  1.
    9000007    1    1    2  501    0 -0.86653632027E+02 -0.42257656105E+03 -0.73735495153E+03  0.94327733272E+03  0.40000000000E+03 0.  1.
   -9000007    1    1    2    0  503  0.86653632027E+02  0.42257656105E+03 -0.64685728334E+03  0.87435927793E+03  0.40000000000E+03 0.  1.
<mgrwt>
<rscale>  2 0.58828548E+03</rscale>
<asrwt>0</asrwt>
<pdfrwt beam="1">  1       21 0.33340336E-01 0.58828548E+03</pdfrwt>
<pdfrwt beam="2">  1       21 0.24629607E+00 0.58828548E+03</pdfrwt>
<totfact> 0.46142565E+02</totfact>
</mgrwt>
</event>
<event>
 4    1  0.5003329E-002  0.5153037E+03  0.7818608E-02  0.1009860E+00
         21   -1    0    0  503  502  0.00000000000E+00  0.00000000000E+00  0.12692853737E+04  0.12692853737E+04  0.00000000000E+00 0. -1.
         21   -1    0    0  501  503 -0.00000000000E+00 -0.00000000000E+00 -0.21031982079E+03  0.21031982079E+03  0.00000000000E+00 0. -1.
    9000007    1    1    2  501    0  0.72396369732E+02  0.31669656018E+03  0.47556611273E+03  0.70121399954E+03  0.40000000000E+03 0. -1.
   -9000007    1    1    2    0  502 -0.72396369732E+02 -0.31669656018E+03  0.58339944022E+03  0.77839119498E+03  0.40000000000E+03 0. -1.
<mgrwt>
<rscale>  2 0.51530374E+03</rscale>
<asrwt>0</asrwt>
<pdfrwt beam="1">  1       21 0.19527467E+00 0.51530374E+03</pdfrwt>
<pdfrwt beam="2">  1       21 0.32356896E-01 0.51530374E+03</pdfrwt>
<totfact> 0.10783011E+03</totfact>
</mgrwt>
</event>
<event>
 4    1  0.5003329E-002  0.5077594E+03  0.7818608E-02  0.1011773E+00
         21   -1    0    0  501  502  0.00000000000E+00  0.00000000000E+00  0.14195332509E+04  0.14195332509E+04  0.00000000000E+00 0. -1.
         21   -1    0    0  502  503 -0.00000000000E+00 -0.00000000000E+00 -0.10571809853E+04  0.10571809853E+04  0.00000000000E+00 0. -1.
    9000007    1    1    2  501    0  0.20506904389E+03  0.23614888084E+03  0.13081497233E+04  0.14032374373E+04  0.40000000000E+03 0. -1.
   -9000007    1    1    2    0  503 -0.20506904389E+03 -0.23614888084E+03 -0.94579745773E+03  0.10734767989E+04  0.40000000000E+03 0. -1.
<mgrwt>
<rscale>  2 0.50775940E+03</rscale>
<asrwt>0</asrwt>
<pdfrwt beam="1">  1       21 0.21838973E+00 0.50775940E+03</pdfrwt>
<pdfrwt beam="2">  1       21 0.16264323E+00 0.50775940E+03</pdfrwt>
<totfact> 0.18092046E+01</totfact>
</mgrwt>
</event>
<event>
 4    1  0.5003329E-002  0.4242587E+03  0.7818608E-02  0.1035689E+00
         21   -1    0    0  503  502  0.00000000000E+00  0.00000000000E+00  0.17717435483E+03  0.17717435483E+03  0.00000000000E+00 0.  1.
         21   -1    0    0  501  503 -0.00000000000E+00 -0.00000000000E+00 -0.12503389559E+04  0.12503389559E+04  0.00000000000E+00 0.  1.
    9000007    1    1    2  501    0  0.78071722239E+02  0.11789915684E+03 -0.22753113780E+03  0.48142063070E+03  0.40000000000E+03 0.  1.
   -9000007    1    1    2    0  502 -0.78071722239E+02 -0.11789915684E+03 -0.84563346332E+03  0.94609268007E+03  0.40000000000E+03 0.  1.
<mgrwt>
<rscale>  2 0.42425865E+03</rscale>
<asrwt>0</asrwt>
<pdfrwt beam="1">  1       21 0.27257594E-01 0.42425865E+03</pdfrwt>
<pdfrwt beam="2">  1       21 0.19235983E+00 0.42425865E+03</pdfrwt>
<totfact> 0.16489583E+03</totfact>
</mgrwt>
</event>
<event>
 4    1  0.5003329E-002  0.4241574E+03  0.7818608E-02  0.1035722E+00
         21   -1    0    0  501  502  0.00000000000E+00  0.00000000000E+00  0.54006347381E+03  0.54006347381E+03  0.00000000000E+00 0. -1.
         21   -1    0    0  502  503 -0.00000000000E+00 -0.00000000000E+00 -0.36036151574E+03  0.36036151574E+03  0.00000000000E+00 0. -1.
    9000007    1    1    2  501    0  0.29696540947E+02  0.13794076449E+03  0.21361970286E+03  0.47491358846E+03  0.40000000000E+03 0.  1.
   -9000007    1    1    2    0  503 -0.29696540947E+02 -0.13794076449E+03 -0.33917744782E+02  0.42551140110E+03  0.40000000000E+03 0.  1.
<mgrwt>
<rscale>  2 0.42415745E+03</rscale>
<asrwt>0</asrwt>
<pdfrwt beam="1">  1       21 0.83086688E-01 0.42415745E+03</pdfrwt>
<pdfrwt beam="2">  1       21 0.55440233E-01 0.42415745E+03</pdfrwt>
<totfact> 0.34097315E+03</totfact>
</mgrwt>
</event>
<event>
 4    1  0.5003329E-002  0.5890054E+03  0.7818608E-02  0.9928483E-01
         21   -1    0    0  503  502  0.00000000000E+00  0.00000000000E+00  0.24125945532E+03  0.24125945532E+03  0.00000000000E+00 0. -1.
         21   -1    0    0  501  503 -0.00000000000E+00 -0.00000000000E+00 -0.24161860919E+04  0.24161860919E+04  0.00000000000E+00 0. -1.
    9000007    1    1    2  501    0 -0.38294926300E+02  0.43065161452E+03 -0.19329045233E+04  0.20206551439E+04  0.40000000000E+03 0. -1.
   -9000007    1    1    2    0  502  0.38294926300E+02 -0.43065161452E+03 -0.24202211335E+03  0.63679040337E+03  0.40000000000E+03 0. -1.
<mgrwt>
<rscale>  2 0.58900536E+03</rscale>
<asrwt>0</asrwt>
<pdfrwt beam="1">  1       21 0.37116839E-01 0.58900536E+03</pdfrwt>
<pdfrwt beam="2">  1       21 0.37172094E+00 0.58900536E+03</pdfrwt>
<totfact> 0.62744256E+01</totfact>
</mgrwt>
</event>
<event>
 4    1  0.5003329E-002  0.5470271E+03  0.7818608E-02  0.1002184E+00
         21   -1    0    0  503  502  0.00000000000E+00  0.00000000000E+00  0.43262228959E+03  0.43262228959E+03  0.00000000000E+00 0.  1.
         21   -1    0    0  501  503 -0.00000000000E+00 -0.00000000000E+00 -0.92371376213E+03  0.92371376213E+03  0.00000000000E+00 0.  1.
    9000007    1    1    2  501    0  0.35567956491E+03  0.11283030129E+03  0.94344669415E+02  0.55510318539E+03  0.40000000000E+03 0.  1.
   -9000007    1    1    2    0  502 -0.35567956491E+03 -0.11283030129E+03 -0.58543614195E+03  0.80123286633E+03  0.40000000000E+03 0.  1.
<mgrwt>
<rscale>  2 0.54702708E+03</rscale>
<asrwt>0</asrwt>
<pdfrwt beam="1">  1       21 0.66557276E-01 0.54702708E+03</pdfrwt>
<pdfrwt beam="2">  1       21 0.14210981E+00 0.54702708E+03</pdfrwt>
<totfact> 0.57338359E+02</totfact>
</mgrwt>
</event>
<event>
 4    1  0.5003329E-002  0.7449409E+03  0.7818608E-02  0.9643321E-01
         21   -1    0    0  501  502  0.00000000000E+00  0.00000000000E+00  0.70142149873E+03  0.70142149873E+03  0.00000000000E+00 0. -1.
         21   -1    0    0  502  503 -0.00000000000E+00 -0.00000000000E+00 -0.81031718330E+03  0.81031718330E+03  0.00000000000E+00 0. -1.
    9000007    1    1    2  501    0  0.61376136802E+03  0.13503295512E+03 -0.17066773264E+03  0.76424105543E+03  0.40000000000E+03 0. -1.
   -9000007    1    1    2    0  503 -0.61376136802E+03 -0.13503295512E+03  0.61772048070E+02  0.74749762660E+03  0.40000000000E+03 0. -1.
<mgrwt>
<rscale>  2 0.74494088E+03</rscale>
<asrwt>0</asrwt>
<pdfrwt beam="1">  1       21 0.10791100E+00 0.74494088E+03</pdfrwt>
<pdfrwt beam="2">  1       21 0.12466418E+00 0.74494088E+03</pdfrwt>
<totfact> 0.24269246E+02</totfact>
</mgrwt>
</event>
<event>
 4    1  0.5003329E-002  0.4204044E+03  0.7818608E-02  0.1036935E+00
         21   -1    0    0  503  502  0.00000000000E+00  0.00000000000E+00  0.27231803608E+04  0.27231803608E+04  0.00000000000E+00 0.  1.
         21   -1    0    0  501  503 -0.00000000000E+00 -0.00000000000E+00 -0.74112719846E+02  0.74112719846E+02  0.00000000000E+00 0.  1.
    9000007    1    1    2  501    0 -0.12878160233E+03 -0.12457585579E+02  0.83146444066E+03  0.93170435687E+03  0.40000000000E+03 0.  1.
   -9000007    1    1    2    0  502  0.12878160233E+03  0.12457585579E+02  0.18176032003E+04  0.18655887238E+04  0.40000000000E+03 0.  1.
<mgrwt>
<rscale>  2 0.42040444E+03</rscale>
<asrwt>0</asrwt>
<pdfrwt beam="1">  1       21 0.41895075E+00 0.42040444E+03</pdfrwt>
<pdfrwt beam="2">  1       21 0.11401959E-01 0.42040444E+03</pdfrwt>
<totfact> 0.33330642E+02</totfact>
</mgrwt>
</event>
<event>
 4    1  0.5003329E-002  0.4937712E+03  0.7818608E-02  0.1015418E+00
         21   -1    0    0  503  502  0.00000000000E+00  0.00000000000E+00  0.57680977020E+03  0.57680977020E+03  0.00000000000E+00 0. -1.
         21   -1    0    0  501  503 -0.00000000000E+00 -0.00000000000E+00 -0.43107131102E+03  0.43107131102E+03  0.00000000000E+00 0.  1.
    9000007    1    1    2  501    0  0.11192024897E+03  0.26699035798E+03  0.14315029484E+03  0.51410310279E+03  0.40000000000E+03 0. -1.
   -9000007    1    1    2    0  502 -0.11192024897E+03 -0.26699035798E+03  0.25881643339E+01  0.49377797842E+03  0.40000000000E+03 0.  1.
<mgrwt>
<rscale>  2 0.49377120E+03</rscale>
<asrwt>0</asrwt>
<pdfrwt beam="1">  1       21 0.88739965E-01 0.49377120E+03</pdfrwt>
<pdfrwt beam="2">  1       21 0.66318663E-01 0.49377120E+03</pdfrwt>
<totfact> 0.19228452E+03</totfact>
</mgrwt>
</event>
<event>
 4    1  0.5003329E-002  0.4346946E+03  0.7818608E-02  0.1032387E+00
         21   -1    0    0  503  502  0.00000000000E+00  0.00000000000E+00  0.49825412525E+03  0.49825412525E+03  0.00000000000E+00 0.  1.
         21   -1    0    0  501  503 -0.00000000000E+00 -0.00000000000E+00 -0.41436806437E+03  0.41436806437E+03  0.00000000000E+00 0. -1.
    9000007    1    1    2  501    0  0.12367455485E+03 -0.11689299413E+03  0.17479766919E+03  0.46852277719E+03  0.40000000000E+03 0.  1.
   -9000007    1    1    2    0  502 -0.12367455485E+03  0.11689299413E+03 -0.90911608299E+02  0.44409941243E+03  0.40000000000E+03 0. -1.
<mgrwt>
<rscale>  2 0.43469457E+03</rscale>
<asrwt>0</asrwt>
<pdfrwt beam="1">  1       21 0.76654481E-01 0.43469457E+03</pdfrwt>
<pdfrwt beam="2">  1       21 0.63748933E-01 0.43469457E+03</pdfrwt>
<totfact> 0.30143112E+03</totfact>
</mgrwt>
</event>
<event>
 4    1  0.5003329E-002  0.4905911E+03  0.7818608E-02  0.1016264E+00
         21   -1    0    0  503  502  0.00000000000E+00  0.00000000000E+00  0.16761212641E+03  0.16761212641E+03  0.00000000000E+00 0.  1.
         21   -1    0    0  501  503 -0.00000000000E+00 -0.00000000000E+00 -0.14794537957E+04  0.14794537957E+04  0.00000000000E+00 0.  1.
    9000007    1    1    2  501    0 -0.28262024023E+03 -0.28380775363E+02 -0.79716877289E+03  0.93603297008E+03  0.40000000000E+03 0.  1.
   -9000007    1    1    2    0  502  0.28262024023E+03  0.28380775363E+02 -0.51467289642E+03  0.71103295205E+03  0.40000000000E+03 0.  1.
<mgrwt>
<rscale>  2 0.49059114E+03</rscale>
<asrwt>0</asrwt>
<pdfrwt beam="1">  1       21 0.25786481E-01 0.49059114E+03</pdfrwt>
<pdfrwt beam="2">  1       21 0.22760827E+00 0.49059114E+03</pdfrwt>
<totfact> 0.10496515E+03</totfact>
</mgrwt>
</event>
<event>
 4    1  0.5003329E-002  0.4020822E+03  0.7818608E-02  0.1043061E+00
         21   -1    0    0  503  502  0.00000000000E+00  0.00000000000E+00  0.16993776049E+04  0.16993776049E+04  0.00000000000E+00 0.  1.
         21   -1    0    0  501  503 -0.00000000000E+00 -0.00000000000E+00 -0.33958020622E+03  0.33958020622E+03  0.00000000000E+00 0.  1.
    9000007    1    1    2  501    0 -0.77861575935E+01  0.40118030492E+02 -0.18506509913E+03  0.44262757656E+03  0.40000000000E+03 0.  1.
   -9000007    1    1    2    0  502  0.77861575935E+01 -0.40118030492E+02  0.15448624978E+04  0.15963302346E+04  0.40000000000E+03 0.  1.
<mgrwt>
<rscale>  2 0.40208218E+03</rscale>
<asrwt>0</asrwt>
<pdfrwt beam="1">  1       21 0.26144270E+00 0.40208218E+03</pdfrwt>
<pdfrwt beam="2">  1       21 0.52243110E-01 0.40208218E+03</pdfrwt>
<totfact> 0.16120609E+02</totfact>
</mgrwt>
</event>
<event>
 4    1  0.5003329E-002  0.4259099E+03  0.7818608E-02  0.1035160E+00
         21   -1    0    0  503  502  0.00000000000E+00  0.00000000000E+00  0.95186213069E+02  0.95186213069E+02  0.00000000000E+00 0. -1.
         21   -1    0    0  501  503 -0.00000000000E+00 -0.00000000000E+00 -0.19065544226E+04  0.19065544226E+04  0.00000000000E+00 0. -1.
    9000007    1    1    2  501    0 -0.82811389385E+02 -0.12058834021E+03 -0.88487833802E+03  0.98204325113E+03  0.40000000000E+03 0. -1.
   -9000007    1    1    2    0  502  0.82811389385E+02  0.12058834021E+03 -0.92648987148E+03  0.10196973845E+04  0.40000000000E+03 0. -1.
<mgrwt>
<rscale>  2 0.42590994E+03</rscale>
<asrwt>0</asrwt>
<pdfrwt beam="1">  1       21 0.14644033E-01 0.42590994E+03</pdfrwt>
<pdfrwt beam="2">  1       21 0.29331606E+00 0.42590994E+03</pdfrwt>
<totfact> 0.12581297E+03</totfact>
</mgrwt>
</event>
<event>
 4    1  0.5003329E-002  0.4325850E+03  0.7818608E-02  0.1033046E+00
         21   -1    0    0  501  502  0.00000000000E+00  0.00000000000E+00  0.58542993406E+03  0.58542993406E+03  0.00000000000E+00 0.  1.
         21   -1    0    0  502  503 -0.00000000000E+00 -0.00000000000E+00 -0.42884905616E+03  0.42884905616E+03  0.00000000000E+00 0.  1.
    9000007    1    1    2  501    0 -0.42047354759E+02 -0.15925388565E+03  0.33420470201E+03  0.54664665277E+03  0.40000000000E+03 0.  1.
   -9000007    1    1    2    0  503  0.42047354759E+02  0.15925388565E+03 -0.17762382412E+03  0.46763233745E+03  0.40000000000E+03 0.  1.
<mgrwt>
<rscale>  2 0.43258500E+03</rscale>
<asrwt>0</asrwt>
<pdfrwt beam="1">  1       21 0.90066144E-01 0.43258500E+03</pdfrwt>
<pdfrwt beam="2">  1       21 0.65976778E-01 0.43258500E+03</pdfrwt>
<totfact> 0.19208369E+03</totfact>
</mgrwt>
</event>
<event>
 4    1  0.5003329E-002  0.4727943E+03  0.7818608E-02  0.1021135E+00
         21   -1    0    0  503  502  0.00000000000E+00  0.00000000000E+00  0.47801362707E+03  0.47801362707E+03  0.00000000000E+00 0. -1.
         21   -1    0    0  501  503 -0.00000000000E+00 -0.00000000000E+00 -0.12868015177E+04  0.12868015177E+04  0.00000000000E+00 0. -1.
    9000007    1    1    2  501    0  0.13277167306E+03  0.21425707937E+03 -0.11084388608E+04  0.12050606298E+04  0.40000000000E+03 0. -1.
   -9000007    1    1    2    0  502 -0.13277167306E+03 -0.21425707937E+03  0.29965097014E+03  0.55975451506E+03  0.40000000000E+03 0. -1.
<mgrwt>
<rscale>  2 0.47279426E+03</rscale>
<asrwt>0</asrwt>
<pdfrwt beam="1">  1       21 0.73540558E-01 0.47279426E+03</pdfrwt>
<pdfrwt beam="2">  1       21 0.19796946E+00 0.47279426E+03</pdfrwt>
<totfact> 0.18335603E+02</totfact>
</mgrwt>
</event>
<event>
 4    1  0.5003329E-002  0.4339076E+03  0.7818608E-02  0.1032633E+00
         21   -1    0    0  501  502  0.00000000000E+00  0.00000000000E+00  0.20349532567E+04  0.20349532567E+04  0.00000000000E+00 0. -1.
         21   -1    0    0  502  503 -0.00000000000E+00 -0.00000000000E+00 -0.97535179135E+02  0.97535179135E+02  0.00000000000E+00 0. -1.
    9000007    1    1    2  501    0 -0.15170310117E+03  0.72539299051E+02  0.12104658528E+04  0.12858862164E+04  0.40000000000E+03 0. -1.
   -9000007    1    1    2    0  503  0.15170310117E+03 -0.72539299051E+02  0.72695222478E+03  0.84660221942E+03  0.40000000000E+03 0. -1.
<mgrwt>
<rscale>  2 0.43390757E+03</rscale>
<asrwt>0</asrwt>
<pdfrwt beam="1">  1       21 0.31306970E+00 0.43390757E+03</pdfrwt>
<pdfrwt beam="2">  1       21 0.15005414E-01 0.43390757E+03</pdfrwt>
<totfact> 0.91118142E+02</totfact>
</mgrwt>
</event>
<event>
 4    1  0.5003329E-002  0.4470766E+03  0.7818608E-02  0.1028597E+00
         21   -1    0    0  503  502  0.00000000000E+00  0.00000000000E+00  0.34491408782E+03  0.34491408782E+03  0.00000000000E+00 0.  1.
         21   -1    0    0  501  503 -0.00000000000E+00 -0.00000000000E+00 -0.14222959675E+04  0.14222959675E+04  0.00000000000E+00 0.  1.
    9000007    1    1    2  501    0 -0.82334990091E+02  0.18192965396E+03 -0.12188721193E+04  0.12982783572E+04  0.40000000000E+03 0.  1.
   -9000007    1    1    2    0  502  0.82334990091E+02 -0.18192965396E+03  0.14149023962E+03  0.46893169811E+03  0.40000000000E+03 0.  1.
<mgrwt>
<rscale>  2 0.44707656E+03</rscale>
<asrwt>0</asrwt>
<pdfrwt beam="1">  1       21 0.53063706E-01 0.44707656E+03</pdfrwt>
<pdfrwt beam="2">  1       21 0.21881476E+00 0.44707656E+03</pdfrwt>
<totfact> 0.27901561E+02</totfact>
</mgrwt>
</event>
<event>
 4    1  0.5003329E-002  0.4633265E+03  0.7818608E-02  0.1023821E+00
         21   -1    0    0  503  502  0.00000000000E+00  0.00000000000E+00  0.17319313965E+03  0.17319313965E+03  0.00000000000E+00 0.  1.
         21   -1    0    0  501  503 -0.00000000000E+00 -0.00000000000E+00 -0.12437544841E+04  0.12437544841E+04  0.00000000000E+00 0.  1.
    9000007    1    1    2  501    0 -0.23263193481E+03 -0.23533764063E+02 -0.49380396196E+03  0.67713647664E+03  0.40000000000E+03 0.  1.
   -9000007    1    1    2    0  502  0.23263193481E+03  0.23533764063E+02 -0.57675738251E+03  0.73981114713E+03  0.40000000000E+03 0.  1.
<mgrwt>
<rscale>  2 0.46332651E+03</rscale>
<asrwt>0</asrwt>
<pdfrwt beam="1">  1       21 0.26645098E-01 0.46332651E+03</pdfrwt>
<pdfrwt beam="2">  1       21 0.19134685E+00 0.46332651E+03</pdfrwt>
<totfact> 0.17221523E+03</totfact>
</mgrwt>
</event>
<event>
 4    1  0.5003329E-002  0.6878724E+03  0.7818608E-02  0.9738200E-01
         21   -1    0    0  501  502  0.00000000000E+00  0.00000000000E+00  0.40230784205E+03  0.40230784205E+03  0.00000000000E+00 0.  1.
         21   -1    0    0  502  503 -0.00000000000E+00 -0.00000000000E+00 -0.12033674442E+04  0.12033674442E+04  0.00000000000E+00 0. -1.
    9000007    1    1    2  501    0  0.51747327814E+03  0.21304890439E+03 -0.27975675563E+03  0.74258485816E+03  0.40000000000E+03 0.  1.
   -9000007    1    1    2    0  503 -0.51747327814E+03 -0.21304890439E+03 -0.52130284652E+03  0.86309042808E+03  0.40000000000E+03 0. -1.
<mgrwt>
<rscale>  2 0.68787239E+03</rscale>
<asrwt>0</asrwt>
<pdfrwt beam="1">  1       21 0.61893516E-01 0.68787239E+03</pdfrwt>
<pdfrwt beam="2">  1       21 0.18513345E+00 0.68787239E+03</pdfrwt>
<totfact> 0.30376057E+02</totfact>
</mgrwt>
</event>
<event>
 4    1  0.5003329E-002  0.4131298E+03  0.7818608E-02  0.1039326E+00
         21   -1    0    0  503  502  0.00000000000E+00  0.00000000000E+00  0.48964948830E+03  0.48964948830E+03  0.00000000000E+00 0. -1.
         21   -1    0    0  501  503 -0.00000000000E+00 -0.00000000000E+00 -0.37268087428E+03  0.37268087428E+03  0.00000000000E+00 0.  1.
    9000007    1    1    2  501    0 -0.58342950816E+02  0.85277788772E+02  0.16815701007E+03  0.44604145682E+03  0.40000000000E+03 0.  1.
   -9000007    1    1    2    0  502  0.58342950816E+02 -0.85277788772E+02 -0.51188396052E+02  0.41628890576E+03  0.40000000000E+03 0.  1.
<mgrwt>
<rscale>  2 0.41312976E+03</rscale>
<asrwt>0</asrwt>
<pdfrwt beam="1">  1       21 0.75330690E-01 0.41312976E+03</pdfrwt>
<pdfrwt beam="2">  1       21 0.57335519E-01 0.41312976E+03</pdfrwt>
<totfact> 0.39887089E+03</totfact>
</mgrwt>
</event>
<event>
 4    1  0.5003329E-002  0.6809961E+03  0.7818608E-02  0.9750295E-01
         21   -1    0    0  503  502  0.00000000000E+00  0.00000000000E+00  0.90946222584E+03  0.90946222584E+03  0.00000000000E+00 0.  1.
         21   -1    0    0  501  503 -0.00000000000E+00 -0.00000000000E+00 -0.63642877098E+03  0.63642877098E+03  0.00000000000E+00 0.  1.
    9000007    1    1    2  501    0 -0.19993774134E+03 -0.51359574033E+03 -0.20809430726E+03  0.71208070162E+03  0.40000000000E+03 0.  1.
   -9000007    1    1    2    0  502  0.19993774134E+03  0.51359574033E+03  0.48112776212E+03  0.83381029520E+03  0.40000000000E+03 0.  1.
<mgrwt>
<rscale>  2 0.68099610E+03</rscale>
<asrwt>0</asrwt>
<pdfrwt beam="1">  1       21 0.13991726E+00 0.68099610E+03</pdfrwt>
<pdfrwt beam="2">  1       21 0.97912119E-01 0.68099610E+03</pdfrwt>
<totfact> 0.23199223E+02</totfact>
</mgrwt>
</event>
<event>
 4    1  0.5003329E-002  0.4136389E+03  0.7818608E-02  0.1039157E+00
         21   -1    0    0  503  502  0.00000000000E+00  0.00000000000E+00  0.33391381890E+03  0.33391381890E+03  0.00000000000E+00 0. -1.
         21   -1    0    0  501  503 -0.00000000000E+00 -0.00000000000E+00 -0.69769319836E+03  0.69769319836E+03  0.00000000000E+00 0. -1.
    9000007    1    1    2  501    0  0.10453040067E+03  0.13057747451E+02 -0.44770681032E+03  0.60953957824E+03  0.40000000000E+03 0. -1.
   -9000007    1    1    2    0  502 -0.10453040067E+03 -0.13057747451E+02  0.83927430864E+02  0.42206743902E+03  0.40000000000E+03 0. -1.
<mgrwt>
<rscale>  2 0.41363886E+03</rscale>
<asrwt>0</asrwt>
<pdfrwt beam="1">  1       21 0.51371357E-01 0.41363886E+03</pdfrwt>
<pdfrwt beam="2">  1       21 0.10733741E+00 0.41363886E+03</pdfrwt>
<totfact> 0.21844722E+03</totfact>
</mgrwt>
</event>
<event>
 4    1  0.5003329E-002  0.6862903E+03  0.7818608E-02  0.9740969E-01
         21   -1    0    0  501  502  0.00000000000E+00  0.00000000000E+00  0.76560888940E+03  0.76560888940E+03  0.00000000000E+00 0.  1.
         21   -1    0    0  502  503 -0.00000000000E+00 -0.00000000000E+00 -0.63401977036E+03  0.63401977036E+03  0.00000000000E+00 0. -1.
    9000007    1    1    2  501    0 -0.54645425603E+03 -0.11127469971E+03 -0.54809876054E+02  0.68847544273E+03  0.40000000000E+03 0.  1.
   -9000007    1    1    2    0  503  0.54645425603E+03  0.11127469971E+03  0.18639899509E+03  0.71115321703E+03  0.40000000000E+03 0.  1.
<mgrwt>
<rscale>  2 0.68629025E+03</rscale>
<asrwt>0</asrwt>
<pdfrwt beam="1">  1       21 0.11778598E+00 0.68629025E+03</pdfrwt>
<pdfrwt beam="2">  1       21 0.97541503E-01 0.68629025E+03</pdfrwt>
<totfact> 0.36713899E+02</totfact>
</mgrwt>
</event>
<event>
 4    1  0.5003329E-002  0.4463043E+03  0.7818608E-02  0.1028830E+00
         21   -1    0    0  503  502  0.00000000000E+00  0.00000000000E+00  0.30264074469E+03  0.30264074469E+03  0.00000000000E+00 0. -1.
         21   -1    0    0  501  503 -0.00000000000E+00 -0.00000000000E+00 -0.72123693218E+03  0.72123693218E+03  0.00000000000E+00 0.  1.
    9000007    1    1    2  501    0  0.38979223688E+02 -0.19408286976E+03 -0.36068810824E+03  0.57383225043E+03  0.40000000000E+03 0. -1.
   -9000007    1    1    2    0  502 -0.38979223688E+02  0.19408286976E+03 -0.57908079252E+02  0.45004542643E+03  0.40000000000E+03 0. -1.
<mgrwt>
<rscale>  2 0.44630431E+03</rscale>
<asrwt>0</asrwt>
<pdfrwt beam="1">  1       21 0.46560115E-01 0.44630431E+03</pdfrwt>
<pdfrwt beam="2">  1       21 0.11095953E+00 0.44630431E+03</pdfrwt>
<totfact> 0.24468578E+03</totfact>
</mgrwt>
</event>
<event>
 4    1  0.5003329E-002  0.5278835E+03  0.7818608E-02  0.1006747E+00
         21   -1    0    0  503  502  0.00000000000E+00  0.00000000000E+00  0.32007719840E+03  0.32007719840E+03  0.00000000000E+00 0. -1.
         21   -1    0    0  501  503 -0.00000000000E+00 -0.00000000000E+00 -0.99259858948E+03  0.99259858948E+03  0.00000000000E+00 0.  1.
    9000007    1    1    2  501    0 -0.27365685035E+03 -0.20921982685E+03 -0.56635615784E+03  0.77422238744E+03  0.40000000000E+03 0. -1.
   -9000007    1    1    2    0  502  0.27365685035E+03  0.20921982685E+03 -0.10616523324E+03  0.53845340043E+03  0.40000000000E+03 0.  1.
<mgrwt>
<rscale>  2 0.52788352E+03</rscale>
<asrwt>0</asrwt>
<pdfrwt beam="1">  1       21 0.49242646E-01 0.52788352E+03</pdfrwt>
<pdfrwt beam="2">  1       21 0.15270747E+00 0.52788352E+03</pdfrwt>
<totfact> 0.91689041E+02</totfact>
</mgrwt>
</event>
<event>
 4    1  0.5003329E-002  0.4740616E+03  0.7818608E-02  0.1020780E+00
         21   -1    0    0  501  502  0.00000000000E+00  0.00000000000E+00  0.45739394511E+03  0.45739394511E+03  0.00000000000E+00 0. -1.
         21   -1    0    0  502  503 -0.00000000000E+00 -0.00000000000E+00 -0.81312549074E+03  0.81312549074E+03  0.00000000000E+00 0. -1.
    9000007    1    1    2  501    0 -0.24826745911E+03  0.55656504419E+02  0.22176421035E+03  0.52336769363E+03  0.40000000000E+03 0. -1.
   -9000007    1    1    2    0  503  0.24826745911E+03 -0.55656504419E+02 -0.57749575598E+03  0.74715174222E+03  0.40000000000E+03 0. -1.
<mgrwt>
<rscale>  2 0.47406158E+03</rscale>
<asrwt>0</asrwt>
<pdfrwt beam="1">  1       21 0.70368300E-01 0.47406158E+03</pdfrwt>
<pdfrwt beam="2">  1       21 0.12509623E+00 0.47406158E+03</pdfrwt>
<totfact> 0.72744653E+02</totfact>
</mgrwt>
</event>
<event>
 4    1  0.5003329E-002  0.6676186E+03  0.7818608E-02  0.9774269E-01
         21   -1    0    0  501  502  0.00000000000E+00  0.00000000000E+00  0.82139437726E+03  0.82139437726E+03  0.00000000000E+00 0. -1.
         21   -1    0    0  502  503 -0.00000000000E+00 -0.00000000000E+00 -0.10856571824E+04  0.10856571824E+04  0.00000000000E+00 0.  1.
    9000007    1    1    2  501    0 -0.51517810535E+03  0.14249965194E+03 -0.80649821240E+03  0.10469737330E+04  0.40000000000E+03 0.  1.
   -9000007    1    1    2    0  503  0.51517810535E+03 -0.14249965194E+03  0.54223540724E+03  0.86007782666E+03  0.40000000000E+03 0. -1.
<mgrwt>
<rscale>  2 0.66761863E+03</rscale>
<asrwt>0</asrwt>
<pdfrwt beam="1">  1       21 0.12636837E+00 0.66761863E+03</pdfrwt>
<pdfrwt beam="2">  1       21 0.16702418E+00 0.66761863E+03</pdfrwt>
<totfact> 0.74934832E+01</totfact>
</mgrwt>
</event>
<event>
 4    1  0.5003329E-002  0.4086607E+03  0.7818608E-02  0.1040821E+00
         21   -1    0    0  503  502  0.00000000000E+00  0.00000000000E+00  0.16146594925E+04  0.16146594925E+04  0.00000000000E+00 0.  1.
         21   -1    0    0  501  503 -0.00000000000E+00 -0.00000000000E+00 -0.25892534157E+03  0.25892534157E+03  0.00000000000E+00 0.  1.
    9000007    1    1    2  501    0 -0.45356756697E+02 -0.70330228939E+02 -0.48097360001E+02  0.41148138782E+03  0.40000000000E+03 0.  1.
   -9000007    1    1    2    0  502  0.45356756697E+02  0.70330228939E+02  0.14038315109E+04  0.14621034462E+04  0.40000000000E+03 0.  1.
<mgrwt>
<rscale>  2 0.40866071E+03</rscale>
<asrwt>0</asrwt>
<pdfrwt beam="1">  1       21 0.24840915E+00 0.40866071E+03</pdfrwt>
<pdfrwt beam="2">  1       21 0.39834669E-01 0.40866071E+03</pdfrwt>
<totfact> 0.34004189E+02</totfact>
</mgrwt>
</event>
<event>
 4    1  0.5003329E-002  0.4872164E+03  0.7818608E-02  0.1017171E+00
         21   -1    0    0  503  502  0.00000000000E+00  0.00000000000E+00  0.40611878049E+03  0.40611878049E+03  0.00000000000E+00 0.  1.
         21   -1    0    0  501  503 -0.00000000000E+00 -0.00000000000E+00 -0.61424697251E+03  0.61424697251E+03  0.00000000000E+00 0. -1.
    9000007    1    1    2  501    0 -0.99265614683E+02  0.25985792934E+03 -0.21632150555E+03  0.53308048122E+03  0.40000000000E+03 0. -1.
   -9000007    1    1    2    0  502  0.99265614683E+02 -0.25985792934E+03  0.81933135297E+01  0.48728527177E+03  0.40000000000E+03 0. -1.
<mgrwt>
<rscale>  2 0.48721638E+03</rscale>
<asrwt>0</asrwt>
<pdfrwt beam="1">  1       21 0.62479813E-01 0.48721638E+03</pdfrwt>
<pdfrwt beam="2">  1       21 0.94499534E-01 0.48721638E+03</pdfrwt>
<totfact> 0.18942047E+03</totfact>
</mgrwt>
</event>
<event>
 4    1  0.5003329E-002  0.4851305E+03  0.7818608E-02  0.1017735E+00
         21   -1    0    0  503  502  0.00000000000E+00  0.00000000000E+00  0.42555149182E+03  0.42555149182E+03  0.00000000000E+00 0. -1.
         21   -1    0    0  501  503 -0.00000000000E+00 -0.00000000000E+00 -0.12672499338E+04  0.12672499338E+04  0.00000000000E+00 0.  1.
    9000007    1    1    2  501    0 -0.16280457879E+03  0.22101190518E+03 -0.10562599466E+04  0.11623410291E+04  0.40000000000E+03 0.  1.
   -9000007    1    1    2    0  502  0.16280457879E+03 -0.22101190518E+03  0.21456150456E+03  0.53046039659E+03  0.40000000000E+03 0. -1.
<mgrwt>
<rscale>  2 0.48513049E+03</rscale>
<asrwt>0</asrwt>
<pdfrwt beam="1">  1       21 0.65469461E-01 0.48513049E+03</pdfrwt>
<pdfrwt beam="2">  1       21 0.19496152E+00 0.48513049E+03</pdfrwt>
<totfact> 0.24807745E+02</totfact>
</mgrwt>
</event>
<event>
 4    1  0.5003329E-002  0.4039092E+03  0.7818608E-02  0.1042434E+00
         21   -1    0    0  501  502  0.00000000000E+00  0.00000000000E+00  0.22940239950E+03  0.22940239950E+03  0.00000000000E+00 0.  1.
         21   -1    0    0  502  503 -0.00000000000E+00 -0.00000000000E+00 -0.10122538227E+04  0.10122538227E+04  0.00000000000E+00 0.  1.
    9000007    1    1    2  501    0 -0.41902884799E+02 -0.37239722359E+02 -0.52835071642E+02  0.40735020986E+03  0.40000000000E+03 0.  1.
   -9000007    1    1    2    0  503  0.41902884799E+02  0.37239722359E+02 -0.73001635158E+03  0.83430601235E+03  0.40000000000E+03 0.  1.
<mgrwt>
<rscale>  2 0.40390921E+03</rscale>
<asrwt>0</asrwt>
<pdfrwt beam="1">  1       21 0.35292677E-01 0.40390921E+03</pdfrwt>
<pdfrwt beam="2">  1       21 0.15573136E+00 0.40390921E+03</pdfrwt>
<totfact> 0.18230620E+03</totfact>
</mgrwt>
</event>
<event>
 4    1  0.5003329E-002  0.4635482E+03  0.7818608E-02  0.1023757E+00
         21   -1    0    0  501  502  0.00000000000E+00  0.00000000000E+00  0.32350374590E+03  0.32350374590E+03  0.00000000000E+00 0.  1.
         21   -1    0    0  502  503 -0.00000000000E+00 -0.00000000000E+00 -0.67896695526E+03  0.67896695526E+03  0.00000000000E+00 0.  1.
    9000007    1    1    2  501    0  0.26161154152E+02 -0.23279287224E+03 -0.10385586985E+03  0.47503996575E+03  0.40000000000E+03 0.  1.
   -9000007    1    1    2    0  503 -0.26161154152E+02  0.23279287224E+03 -0.25160733951E+03  0.52743073541E+03  0.40000000000E+03 0.  1.
<mgrwt>
<rscale>  2 0.46354819E+03</rscale>
<asrwt>0</asrwt>
<pdfrwt beam="1">  1       21 0.49769807E-01 0.46354819E+03</pdfrwt>
<pdfrwt beam="2">  1       21 0.10445645E+00 0.46354819E+03</pdfrwt>
<totfact> 0.24517144E+03</totfact>
</mgrwt>
</event>
<event>
 4    1  0.5003329E-002  0.4090353E+03  0.7818608E-02  0.1040695E+00
         21   -1    0    0  503  502  0.00000000000E+00  0.00000000000E+00  0.62898489216E+03  0.62898489216E+03  0.00000000000E+00 0. -1.
         21   -1    0    0  501  503 -0.00000000000E+00 -0.00000000000E+00 -0.26623538153E+03  0.26623538153E+03  0.00000000000E+00 0. -1.
    9000007    1    1    2  501    0 -0.10697822712E+02  0.84825750409E+02  0.19468983501E+03  0.45300550019E+03  0.40000000000E+03 0. -1.
   -9000007    1    1    2    0  502  0.10697822712E+02 -0.84825750409E+02  0.16805967562E+03  0.44221477351E+03  0.40000000000E+03 0. -1.
<mgrwt>
<rscale>  2 0.40903527E+03</rscale>
<asrwt>0</asrwt>
<pdfrwt beam="1">  1       21 0.96766906E-01 0.40903527E+03</pdfrwt>
<pdfrwt beam="2">  1       21 0.40959290E-01 0.40903527E+03</pdfrwt>
<totfact> 0.45298725E+03</totfact>
</mgrwt>
</event>
<event>
 4    1  0.5003329E-002  0.5232474E+03  0.7818608E-02  0.1007883E+00
         21   -1    0    0  501  502  0.00000000000E+00  0.00000000000E+00  0.15976653082E+04  0.15976653082E+04  0.00000000000E+00 0. -1.
         21   -1    0    0  502  503 -0.00000000000E+00 -0.00000000000E+00 -0.18295046354E+03  0.18295046354E+03  0.00000000000E+00 0. -1.
    9000007    1    1    2  501    0 -0.29782339382E+03 -0.15839529244E+03  0.93137603080E+03  0.10682926347E+04  0.40000000000E+03 0. -1.
   -9000007    1    1    2    0  503  0.29782339382E+03  0.15839529244E+03  0.48333881382E+03  0.71232313701E+03  0.40000000000E+03 0. -1.
<mgrwt>
<rscale>  2 0.52324740E+03</rscale>
<asrwt>0</asrwt>
<pdfrwt beam="1">  1       21 0.24579465E+00 0.52324740E+03</pdfrwt>
<pdfrwt beam="2">  1       21 0.28146226E-01 0.52324740E+03</pdfrwt>
<totfact> 0.67006243E+02</totfact>
</mgrwt>
</event>
<event>
 4    1  0.5003329E-002  0.4221727E+03  0.7818608E-02  0.1036361E+00
         21   -1    0    0  501  502  0.00000000000E+00  0.00000000000E+00  0.10776426197E+04  0.10776426197E+04  0.00000000000E+00 0. -1.
         21   -1    0    0  502  503 -0.00000000000E+00 -0.00000000000E+00 -0.17408398180E+03  0.17408398180E+03  0.00000000000E+00 0. -1.
    9000007    1    1    2  501    0  0.13354722006E+03  0.19873301262E+02  0.59165567750E+03  0.72683302677E+03  0.40000000000E+03 0.  1.
   -9000007    1    1    2    0  503 -0.13354722006E+03 -0.19873301262E+02  0.31190296042E+03  0.52489357474E+03  0.40000000000E+03 0.  1.
<mgrwt>
<rscale>  2 0.42217272E+03</rscale>
<asrwt>0</asrwt>
<pdfrwt beam="1">  1       21 0.16579117E+00 0.42217272E+03</pdfrwt>
<pdfrwt beam="2">  1       21 0.26782152E-01 0.42217272E+03</pdfrwt>
<totfact> 0.26309129E+03</totfact>
</mgrwt>
</event>
<event>
 4    1  0.5003329E-002  0.4187460E+03  0.7818608E-02  0.1037475E+00
         21   -1    0    0  501  502  0.00000000000E+00  0.00000000000E+00  0.67292847019E+03  0.67292847019E+03  0.00000000000E+00 0.  1.
         21   -1    0    0  502  503 -0.00000000000E+00 -0.00000000000E+00 -0.34533403832E+03  0.34533403832E+03  0.00000000000E+00 0.  1.
    9000007    1    1    2  501    0  0.12388694789E+03  0.46842445789E+00  0.41603120652E+03  0.59027973036E+03  0.40000000000E+03 0.  1.
   -9000007    1    1    2    0  503 -0.12388694789E+03 -0.46842445789E+00 -0.88436774644E+02  0.42798277814E+03  0.40000000000E+03 0.  1.
<mgrwt>
<rscale>  2 0.41874598E+03</rscale>
<asrwt>0</asrwt>
<pdfrwt beam="1">  1       21 0.10352746E+00 0.41874598E+03</pdfrwt>
<pdfrwt beam="2">  1       21 0.53128314E-01 0.41874598E+03</pdfrwt>
<totfact> 0.22171967E+03</totfact>
</mgrwt>
</event>
<event>
 4    1  0.5003329E-002  0.4599730E+03  0.7818608E-02  0.1024789E+00
         21   -1    0    0  501  502  0.00000000000E+00  0.00000000000E+00  0.51229958005E+03  0.51229958005E+03  0.00000000000E+00 0. -1.
         21   -1    0    0  502  503 -0.00000000000E+00 -0.00000000000E+00 -0.12864464549E+04  0.12864464549E+04  0.00000000000E+00 0. -1.
    9000007    1    1    2  501    0 -0.19332722262E+03 -0.11916261264E+03  0.35400531907E+03  0.58042648905E+03  0.40000000000E+03 0. -1.
   -9000007    1    1    2    0  503  0.19332722262E+03  0.11916261264E+03 -0.11281521940E+04  0.12183195459E+04  0.40000000000E+03 0. -1.
<mgrwt>
<rscale>  2 0.45997298E+03</rscale>
<asrwt>0</asrwt>
<pdfrwt beam="1">  1       21 0.78815320E-01 0.45997298E+03</pdfrwt>
<pdfrwt beam="2">  1       21 0.19791484E+00 0.45997298E+03</pdfrwt>
<totfact> 0.15765926E+02</totfact>
</mgrwt>
</event>
<event>
 4    1  0.5003329E-002  0.4393963E+03  0.7818608E-02  0.1030932E+00
         21   -1    0    0  503  502  0.00000000000E+00  0.00000000000E+00  0.77506772594E+03  0.77506772594E+03  0.00000000000E+00 0.  1.
         21   -1    0    0  501  503 -0.00000000000E+00 -0.00000000000E+00 -0.42151114779E+03  0.42151114779E+03  0.00000000000E+00 0.  1.
    9000007    1    1    2  501    0 -0.10009474889E+03  0.15182288338E+03 -0.20586124409E+03  0.48522984089E+03  0.40000000000E+03 0.  1.
   -9000007    1    1    2    0  502  0.10009474889E+03 -0.15182288338E+03  0.55941782225E+03  0.71134903284E+03  0.40000000000E+03 0.  1.
<mgrwt>
<rscale>  2 0.43939634E+03</rscale>
<asrwt>0</asrwt>
<pdfrwt beam="1">  1       21 0.11924119E+00 0.43939634E+03</pdfrwt>
<pdfrwt beam="2">  1       21 0.64847869E-01 0.43939634E+03</pdfrwt>
<totfact> 0.10019141E+03</totfact>
</mgrwt>
</event>
<event>
 4    1  0.5003329E-002  0.5455736E+03  0.7818608E-02  0.1002524E+00
         21   -1    0    0  501  502  0.00000000000E+00  0.00000000000E+00  0.35585452881E+03  0.35585452881E+03  0.00000000000E+00 0.  1.
         21   -1    0    0  502  503 -0.00000000000E+00 -0.00000000000E+00 -0.93694480637E+03  0.93694480637E+03  0.00000000000E+00 0.  1.
    9000007    1    1    2  501    0  0.12134840231E+03 -0.35060676538E+03 -0.50225452186E+03  0.74155926493E+03  0.40000000000E+03 0.  1.
   -9000007    1    1    2    0  503 -0.12134840231E+03  0.35060676538E+03 -0.78835755696E+02  0.55124007025E+03  0.40000000000E+03 0.  1.
<mgrwt>
<rscale>  2 0.54557359E+03</rscale>
<asrwt>0</asrwt>
<pdfrwt beam="1">  1       21 0.54746851E-01 0.54557359E+03</pdfrwt>
<pdfrwt beam="2">  1       21 0.14414535E+00 0.54557359E+03</pdfrwt>
<totfact> 0.84909566E+02</totfact>
</mgrwt>
</event>
<event>
 4    1  0.5003329E-002  0.4586397E+03  0.7818608E-02  0.1025176E+00
         21   -1    0    0  503  502  0.00000000000E+00  0.00000000000E+00  0.39837137336E+03  0.39837137336E+03  0.00000000000E+00 0. -1.
         21   -1    0    0  501  503 -0.00000000000E+00 -0.00000000000E+00 -0.63634824377E+03  0.63634824377E+03  0.00000000000E+00 0. -1.
    9000007    1    1    2  501    0  0.21980039580E+03 -0.45145921886E+02 -0.33244251552E+03  0.56645246436E+03  0.40000000000E+03 0. -1.
   -9000007    1    1    2    0  502 -0.21980039580E+03  0.45145921886E+02  0.94465645120E+02  0.46826715277E+03  0.40000000000E+03 0. -1.
<mgrwt>
<rscale>  2 0.45863969E+03</rscale>
<asrwt>0</asrwt>
<pdfrwt beam="1">  1       21 0.61287905E-01 0.45863969E+03</pdfrwt>
<pdfrwt beam="2">  1       21 0.97899728E-01 0.45863969E+03</pdfrwt>
<totfact> 0.18341760E+03</totfact>
</mgrwt>
</event>
<event>
 4    1  0.5003329E-002  0.4862316E+03  0.7818608E-02  0.1017436E+00
         21   -1    0    0  503  502  0.00000000000E+00  0.00000000000E+00  0.14084251048E+03  0.14084251048E+03  0.00000000000E+00 0. -1.
         21   -1    0    0  501  503 -0.00000000000E+00 -0.00000000000E+00 -0.22358981862E+04  0.22358981862E+04  0.00000000000E+00 0. -1.
    9000007    1    1    2  501    0 -0.14524385474E+03  0.23521353445E+03 -0.16408102305E+04  0.17113384810E+04  0.40000000000E+03 0. -1.
   -9000007    1    1    2    0  502  0.14524385474E+03 -0.23521353445E+03 -0.45424544531E+03  0.66540221574E+03  0.40000000000E+03 0. -1.
<mgrwt>
<rscale>  2 0.48623162E+03</rscale>
<asrwt>0</asrwt>
<pdfrwt beam="1">  1       21 0.21668080E-01 0.48623162E+03</pdfrwt>
<pdfrwt beam="2">  1       21 0.34398431E+00 0.48623162E+03</pdfrwt>
<totfact> 0.28701191E+02</totfact>
</mgrwt>
</event>
<event>
 4    1  0.5003329E-002  0.4384050E+03  0.7818608E-02  0.1031237E+00
         21   -1    0    0  503  502  0.00000000000E+00  0.00000000000E+00  0.87690571947E+03  0.87690571947E+03  0.00000000000E+00 0. -1.
         21   -1    0    0  501  503 -0.00000000000E+00 -0.00000000000E+00 -0.26820619623E+03  0.26820619623E+03  0.00000000000E+00 0. -1.
    9000007    1    1    2  501    0  0.17941929613E+03 -0.27629136956E+01  0.59553889792E+02  0.44243144475E+03  0.40000000000E+03 0. -1.
   -9000007    1    1    2    0  502 -0.17941929613E+03  0.27629136956E+01  0.54914563345E+03  0.70268047095E+03  0.40000000000E+03 0. -1.
<mgrwt>
<rscale>  2 0.43840497E+03</rscale>
<asrwt>0</asrwt>
<pdfrwt beam="1">  1       21 0.13490857E+00 0.43840497E+03</pdfrwt>
<pdfrwt beam="2">  1       21 0.41262492E-01 0.43840497E+03</pdfrwt>
<totfact> 0.19181663E+03</totfact>
</mgrwt>
</event>
<event>
 4    1  0.5003329E-002  0.4875465E+03  0.7818608E-02  0.1017082E+00
         21   -1    0    0  503  502  0.00000000000E+00  0.00000000000E+00  0.33946405654E+03  0.33946405654E+03  0.00000000000E+00 0.  1.
         21   -1    0    0  501  503 -0.00000000000E+00 -0.00000000000E+00 -0.70254532051E+03  0.70254532051E+03  0.00000000000E+00 0.  1.
    9000007    1    1    2  501    0  0.25039188475E+03  0.12249693073E+03 -0.21147534110E+03  0.53143523959E+03  0.40000000000E+03 0. -1.
   -9000007    1    1    2    0  502 -0.25039188475E+03 -0.12249693073E+03 -0.15160592288E+03  0.51057413746E+03  0.40000000000E+03 0. -1.
<mgrwt>
<rscale>  2 0.48754650E+03</rscale>
<asrwt>0</asrwt>
<pdfrwt beam="1">  1       21 0.52225240E-01 0.48754650E+03</pdfrwt>
<pdfrwt beam="2">  1       21 0.10808389E+00 0.48754650E+03</pdfrwt>
<totfact> 0.20158927E+03</totfact>
</mgrwt>
</event>
<event>
 4    1  0.5003329E-002  0.4970170E+03  0.7818608E-02  0.1014560E+00
         21   -1    0    0  503  502  0.00000000000E+00  0.00000000000E+00  0.66560867358E+03  0.66560867358E+03  0.00000000000E+00 0. -1.
         21   -1    0    0  501  503 -0.00000000000E+00 -0.00000000000E+00 -0.42276609035E+03  0.42276609035E+03  0.00000000000E+00 0.  1.
    9000007    1    1    2  501    0 -0.25106709507E+03  0.15489100179E+03  0.31160975002E+03  0.58662300072E+03  0.40000000000E+03 0.  1.
   -9000007    1    1    2    0  502  0.25106709507E+03 -0.15489100179E+03 -0.68767166783E+02  0.50175176322E+03  0.40000000000E+03 0.  1.
<mgrwt>
<rscale>  2 0.49701701E+03</rscale>
<asrwt>0</asrwt>
<pdfrwt beam="1">  1       21 0.10240134E+00 0.49701701E+03</pdfrwt>
<pdfrwt beam="2">  1       21 0.65040937E-01 0.49701701E+03</pdfrwt>
<totfact> 0.14210971E+03</totfact>
</mgrwt>
</event>
<event>
 4    1  0.5003329E-002  0.4460838E+03  0.7818608E-02  0.1028896E+00
         21   -1    0    0  503  502  0.00000000000E+00  0.00000000000E+00  0.85614120532E+03  0.85614120532E+03  0.00000000000E+00 0.  1.
         21   -1    0    0  501  503 -0.00000000000E+00 -0.00000000000E+00 -0.23986296209E+03  0.23986296209E+03  0.00000000000E+00 0. -1.
    9000007    1    1    2  501    0  0.13070841216E+03 -0.14800712231E+03  0.21165556053E+03  0.49374980867E+03  0.40000000000E+03 0. -1.
   -9000007    1    1    2    0  502 -0.13070841216E+03  0.14800712231E+03  0.40462268270E+03  0.60225435874E+03  0.40000000000E+03 0.  1.
<mgrwt>
<rscale>  2 0.44608385E+03</rscale>
<asrwt>0</asrwt>
<pdfrwt beam="1">  1       21 0.13171403E+00 0.44608385E+03</pdfrwt>
<pdfrwt beam="2">  1       21 0.36901995E-01 0.44608385E+03</pdfrwt>
<totfact> 0.25601916E+03</totfact>
</mgrwt>
</event>
<event>
 4    1  0.5003329E-002  0.4697341E+03  0.7818608E-02  0.1021995E+00
         21   -1    0    0  503  502  0.00000000000E+00  0.00000000000E+00  0.62285478981E+03  0.62285478981E+03  0.00000000000E+00 0. -1.
         21   -1    0    0  501  503 -0.00000000000E+00 -0.00000000000E+00 -0.40098104733E+03  0.40098104733E+03  0.00000000000E+00 0. -1.
    9000007    1    1    2  501    0 -0.24531305534E+03 -0.21716531834E+02 -0.63811389600E+02  0.47404851684E+03  0.40000000000E+03 0. -1.
   -9000007    1    1    2    0  502  0.24531305534E+03  0.21716531834E+02  0.28568513209E+03  0.54978732031E+03  0.40000000000E+03 0. -1.
<mgrwt>
<rscale>  2 0.46973408E+03</rscale>
<asrwt>0</asrwt>
<pdfrwt beam="1">  1       21 0.95823814E-01 0.46973408E+03</pdfrwt>
<pdfrwt beam="2">  1       21 0.61689392E-01 0.46973408E+03</pdfrwt>
<totfact> 0.18960072E+03</totfact>
</mgrwt>
</event>
<event>
 4    1  0.5003329E-002  0.4142765E+03  0.7818608E-02  0.1038945E+00
         21   -1    0    0  503  502  0.00000000000E+00  0.00000000000E+00  0.23921663090E+03  0.23921663090E+03  0.00000000000E+00 0.  1.
         21   -1    0    0  501  503 -0.00000000000E+00 -0.00000000000E+00 -0.94349770881E+03  0.94349770881E+03  0.00000000000E+00 0.  1.
    9000007    1    1    2  501    0  0.42886611251E+01  0.10773420225E+03 -0.64159696434E+03  0.76372227649E+03  0.40000000000E+03 0.  1.
   -9000007    1    1    2    0  502 -0.42886611251E+01 -0.10773420225E+03 -0.62684113558E+02  0.41899206322E+03  0.40000000000E+03 0.  1.
<mgrwt>
<rscale>  2 0.41427654E+03</rscale>
<asrwt>0</asrwt>
<pdfrwt beam="1">  1       21 0.36802559E-01 0.41427654E+03</pdfrwt>
<pdfrwt beam="2">  1       21 0.14515349E+00 0.41427654E+03</pdfrwt>
<totfact> 0.20169420E+03</totfact>
</mgrwt>
</event>
<event>
 4    1  0.5003329E-002  0.4263263E+03  0.7818608E-02  0.1035027E+00
         21   -1    0    0  503  502  0.00000000000E+00  0.00000000000E+00  0.38542148939E+03  0.38542148939E+03  0.00000000000E+00 0.  1.
         21   -1    0    0  501  503 -0.00000000000E+00 -0.00000000000E+00 -0.49523956408E+03  0.49523956408E+03  0.00000000000E+00 0.  1.
    9000007    1    1    2  501    0 -0.62037426651E+02  0.13381141666E+03 -0.15116867466E+03  0.45233406431E+03  0.40000000000E+03 0.  1.
   -9000007    1    1    2    0  502  0.62037426651E+02 -0.13381141666E+03  0.41350599970E+02  0.42832698917E+03  0.40000000000E+03 0.  1.
<mgrwt>
<rscale>  2 0.42632633E+03</rscale>
<asrwt>0</asrwt>
<pdfrwt beam="1">  1       21 0.59295614E-01 0.42632633E+03</pdfrwt>
<pdfrwt beam="2">  1       21 0.76190702E-01 0.42632633E+03</pdfrwt>
<totfact> 0.35949436E+03</totfact>
</mgrwt>
</event>
<event>
 4    1  0.5003329E-002  0.4519652E+03  0.7818608E-02  0.1027138E+00
         21   -1    0    0  503  502  0.00000000000E+00  0.00000000000E+00  0.18560357437E+04  0.18560357437E+04  0.00000000000E+00 0. -1.
         21   -1    0    0  501  503 -0.00000000000E+00 -0.00000000000E+00 -0.11079368711E+03  0.11079368711E+03  0.00000000000E+00 0. -1.
    9000007    1    1    2  501    0 -0.17530116178E+03  0.11637015640E+03  0.79251263521E+03  0.91233151189E+03  0.40000000000E+03 0. -1.
   -9000007    1    1    2    0  502  0.17530116178E+03 -0.11637015640E+03  0.95272942135E+03  0.10544979189E+04  0.40000000000E+03 0. -1.
<mgrwt>
<rscale>  2 0.45196517E+03</rscale>
<asrwt>0</asrwt>
<pdfrwt beam="1">  1       21 0.28554394E+00 0.45196517E+03</pdfrwt>
<pdfrwt beam="2">  1       21 0.17045184E-01 0.45196517E+03</pdfrwt>
<totfact> 0.10413439E+03</totfact>
</mgrwt>
</event>
<event>
 4    1  0.5003329E-002  0.7075731E+03  0.7818608E-02  0.9704368E-01
         21   -1    0    0  501  502  0.00000000000E+00  0.00000000000E+00  0.14630800854E+04  0.14630800854E+04  0.00000000000E+00 0.  1.
         21   -1    0    0  502  503 -0.00000000000E+00 -0.00000000000E+00 -0.40817441988E+03  0.40817441988E+03  0.00000000000E+00 0.  1.
    9000007    1    1    2  501    0  0.29686113532E+03 -0.50252672657E+03  0.90362102490E+03  0.11476892442E+04  0.40000000000E+03 0.  1.
   -9000007    1    1    2    0  503 -0.29686113532E+03  0.50252672657E+03  0.15128464063E+03  0.72356526110E+03  0.40000000000E+03 0.  1.
<mgrwt>
<rscale>  2 0.70757307E+03</rscale>
<asrwt>0</asrwt>
<pdfrwt beam="1">  1       21 0.22508924E+00 0.70757307E+03</pdfrwt>
<pdfrwt beam="2">  1       21 0.62796065E-01 0.70757307E+03</pdfrwt>
<totfact> 0.15738948E+02</totfact>
</mgrwt>
</event>
<event>
 4    1  0.5003329E-002  0.4662057E+03  0.7818608E-02  0.1022997E+00
         21   -1    0    0  503  502  0.00000000000E+00  0.00000000000E+00  0.32498922323E+03  0.32498922323E+03  0.00000000000E+00 0. -1.
         21   -1    0    0  501  503 -0.00000000000E+00 -0.00000000000E+00 -0.72336849686E+03  0.72336849686E+03  0.00000000000E+00 0. -1.
    9000007    1    1    2  501    0  0.84535351182E+02  0.22405689262E+03 -0.55199467093E+02  0.46946213681E+03  0.40000000000E+03 0. -1.
   -9000007    1    1    2    0  502 -0.84535351182E+02 -0.22405689262E+03 -0.34317980654E+03  0.57889558328E+03  0.40000000000E+03 0. -1.
<mgrwt>
<rscale>  2 0.46620566E+03</rscale>
<asrwt>0</asrwt>
<pdfrwt beam="1">  1       21 0.49998343E-01 0.46620566E+03</pdfrwt>
<pdfrwt beam="2">  1       21 0.11128746E+00 0.46620566E+03</pdfrwt>
<totfact> 0.20736133E+03</totfact>
</mgrwt>
</event>
<event>
 4    1  0.5003329E-002  0.5725731E+03  0.7818608E-02  0.9964001E-01
         21   -1    0    0  503  502  0.00000000000E+00  0.00000000000E+00  0.19847781516E+03  0.19847781516E+03  0.00000000000E+00 0.  1.
         21   -1    0    0  501  503 -0.00000000000E+00 -0.00000000000E+00 -0.18959539351E+04  0.18959539351E+04  0.00000000000E+00 0.  1.
    9000007    1    1    2  501    0  0.38479683023E+03 -0.14061068451E+03 -0.47291823493E+03  0.74262481919E+03  0.40000000000E+03 0. -1.
   -9000007    1    1    2    0  502 -0.38479683023E+03  0.14061068451E+03 -0.12245578850E+04  0.13518069310E+04  0.40000000000E+03 0. -1.
<mgrwt>
<rscale>  2 0.57257311E+03</rscale>
<asrwt>0</asrwt>
<pdfrwt beam="1">  1       21 0.30535049E-01 0.57257311E+03</pdfrwt>
<pdfrwt beam="2">  1       21 0.29168521E+00 0.57257311E+03</pdfrwt>
<totfact> 0.29189090E+02</totfact>
</mgrwt>
</event>
<event>
 4    1  0.5003329E-002  0.5004400E+03  0.7818608E-02  0.1013664E+00
         21   -1    0    0  501  502  0.00000000000E+00  0.00000000000E+00  0.15011484179E+03  0.15011484179E+03  0.00000000000E+00 0. -1.
         21   -1    0    0  502  503 -0.00000000000E+00 -0.00000000000E+00 -0.23556325584E+04  0.23556325584E+04  0.00000000000E+00 0.  1.
    9000007    1    1    2  501    0  0.29655740582E+03 -0.49938986226E+02 -0.42600711038E+03  0.65720792401E+03  0.40000000000E+03 0.  1.
   -9000007    1    1    2    0  503 -0.29655740582E+03  0.49938986226E+02 -0.17795106063E+04  0.18485394762E+04  0.40000000000E+03 0. -1.
<mgrwt>
<rscale>  2 0.50044000E+03</rscale>
<asrwt>0</asrwt>
<pdfrwt beam="1">  1       21 0.23094593E-01 0.50044000E+03</pdfrwt>
<pdfrwt beam="2">  1       21 0.36240498E+00 0.50044000E+03</pdfrwt>
<totfact> 0.19373039E+02</totfact>
</mgrwt>
</event>
<event>
 4    1  0.5003329E-002  0.4050231E+03  0.7818608E-02  0.1042054E+00
         21   -1    0    0  501  502  0.00000000000E+00  0.00000000000E+00  0.64305599403E+03  0.64305599403E+03  0.00000000000E+00 0. -1.
         21   -1    0    0  502  503 -0.00000000000E+00 -0.00000000000E+00 -0.41098598621E+03  0.41098598621E+03  0.00000000000E+00 0. -1.
    9000007    1    1    2  501    0  0.57696676609E+02  0.26735367106E+02  0.44061198885E+03  0.59848359298E+03  0.40000000000E+03 0. -1.
   -9000007    1    1    2    0  503 -0.57696676609E+02 -0.26735367106E+02 -0.20854198103E+03  0.45555838726E+03  0.40000000000E+03 0. -1.
<mgrwt>
<rscale>  2 0.40502307E+03</rscale>
<asrwt>0</asrwt>
<pdfrwt beam="1">  1       21 0.98931691E-01 0.40502307E+03</pdfrwt>
<pdfrwt beam="2">  1       21 0.63228613E-01 0.40502307E+03</pdfrwt>
<totfact> 0.17058313E+03</totfact>
</mgrwt>
</event>
<event>
 4    1  0.5003329E-002  0.4140845E+03  0.7818608E-02  0.1039009E+00
         21   -1    0    0  501  502  0.00000000000E+00  0.00000000000E+00  0.10402868487E+04  0.10402868487E+04  0.00000000000E+00 0.  1.
         21   -1    0    0  502  503 -0.00000000000E+00 -0.00000000000E+00 -0.23959327383E+03  0.23959327383E+03  0.00000000000E+00 0.  1.
    9000007    1    1    2  501    0 -0.12176982874E+02  0.10638460776E+03  0.75783255459E+03  0.86358331647E+03  0.40000000000E+03 0.  1.
   -9000007    1    1    2    0  503  0.12176982874E+02 -0.10638460776E+03  0.42861020289E+02  0.41629680607E+03  0.40000000000E+03 0.  1.
<mgrwt>
<rscale>  2 0.41408449E+03</rscale>
<asrwt>0</asrwt>
<pdfrwt beam="1">  1       21 0.16004413E+00 0.41408449E+03</pdfrwt>
<pdfrwt beam="2">  1       21 0.36860504E-01 0.41408449E+03</pdfrwt>
<totfact> 0.15407297E+03</totfact>
</mgrwt>
</event>
<event>
 4    1  0.5003329E-002  0.4189809E+03  0.7818608E-02  0.1037399E+00
         21   -1    0    0  503  502  0.00000000000E+00  0.00000000000E+00  0.44166720529E+03  0.44166720529E+03  0.00000000000E+00 0.  1.
         21   -1    0    0  501  503 -0.00000000000E+00 -0.00000000000E+00 -0.40604590850E+03  0.40604590850E+03  0.00000000000E+00 0.  1.
    9000007    1    1    2  501    0 -0.13424581696E+02  0.12395458378E+03 -0.43824659705E+02  0.42126661277E+03  0.40000000000E+03 0.  1.
   -9000007    1    1    2    0  502  0.13424581696E+02 -0.12395458378E+03  0.79445956495E+02  0.42644650102E+03  0.40000000000E+03 0.  1.
<mgrwt>
<rscale>  2 0.41898086E+03</rscale>
<asrwt>0</asrwt>
<pdfrwt beam="1">  1       21 0.67948801E-01 0.41898086E+03</pdfrwt>
<pdfrwt beam="2">  1       21 0.62468601E-01 0.41898086E+03</pdfrwt>
<totfact> 0.41644262E+03</totfact>
</mgrwt>
</event>
<event>
 4    1  0.5003329E-002  0.4423704E+03  0.7818608E-02  0.1030022E+00
         21   -1    0    0  501  502  0.00000000000E+00  0.00000000000E+00  0.33402997583E+03  0.33402997583E+03  0.00000000000E+00 0.  1.
         21   -1    0    0  502  503 -0.00000000000E+00 -0.00000000000E+00 -0.93036637793E+03  0.93036637793E+03  0.00000000000E+00 0. -1.
    9000007    1    1    2  501    0  0.17311968525E+01  0.18891411268E+03  0.86539628571E+02  0.45075563926E+03  0.40000000000E+03 0.  1.
   -9000007    1    1    2    0  503 -0.17311968525E+01 -0.18891411268E+03 -0.68287603067E+03  0.81364071449E+03  0.40000000000E+03 0. -1.
<mgrwt>
<rscale>  2 0.44237036E+03</rscale>
<asrwt>0</asrwt>
<pdfrwt beam="1">  1       21 0.51389228E-01 0.44237036E+03</pdfrwt>
<pdfrwt beam="2">  1       21 0.14313329E+00 0.44237036E+03</pdfrwt>
<totfact> 0.10322253E+03</totfact>
</mgrwt>
</event>
<event>
 4    1  0.5003329E-002  0.4190420E+03  0.7818608E-02  0.1037379E+00
         21   -1    0    0  503  502  0.00000000000E+00  0.00000000000E+00  0.74010778167E+03  0.74010778167E+03  0.00000000000E+00 0. -1.
         21   -1    0    0  501  503 -0.00000000000E+00 -0.00000000000E+00 -0.24401820770E+03  0.24401820770E+03  0.00000000000E+00 0. -1.
    9000007    1    1    2  501    0  0.63743126219E+02  0.10739190496E+03  0.16614138083E+03  0.45077618151E+03  0.40000000000E+03 0. -1.
   -9000007    1    1    2    0  502 -0.63743126219E+02 -0.10739190496E+03  0.32994819314E+03  0.53334980786E+03  0.40000000000E+03 0. -1.
<mgrwt>
<rscale>  2 0.41904201E+03</rscale>
<asrwt>0</asrwt>
<pdfrwt beam="1">  1       21 0.11386273E+00 0.41904201E+03</pdfrwt>
<pdfrwt beam="2">  1       21 0.37541263E-01 0.41904201E+03</pdfrwt>
<totfact> 0.36210751E+03</totfact>
</mgrwt>
</event>
<event>
 4    1  0.5003329E-002  0.5168065E+03  0.7818608E-02  0.1009483E+00
         21   -1    0    0  503  502  0.00000000000E+00  0.00000000000E+00  0.93505449160E+03  0.93505449160E+03  0.00000000000E+00 0.  1.
         21   -1    0    0  501  503 -0.00000000000E+00 -0.00000000000E+00 -0.28567144368E+03  0.28567144368E+03  0.00000000000E+00 0. -1.
    9000007    1    1    2  501    0  0.25007632428E+03 -0.21107065742E+03  0.33109231610E+03  0.61376796281E+03  0.40000000000E+03 0. -1.
   -9000007    1    1    2    0  502 -0.25007632428E+03  0.21107065742E+03  0.31829073182E+03  0.60695797247E+03  0.40000000000E+03 0. -1.
<mgrwt>
<rscale>  2 0.51680653E+03</rscale>
<asrwt>0</asrwt>
<pdfrwt beam="1">  1       21 0.14385454E+00 0.51680653E+03</pdfrwt>
<pdfrwt beam="2">  1       21 0.43949453E-01 0.51680653E+03</pdfrwt>
<totfact> 0.13767468E+03</totfact>
</mgrwt>
</event>
<event>
 4    1  0.5003329E-002  0.4888137E+03  0.7818608E-02  0.1016741E+00
         21   -1    0    0  501  502  0.00000000000E+00  0.00000000000E+00  0.74751854244E+03  0.74751854244E+03  0.00000000000E+00 0. -1.
         21   -1    0    0  502  503 -0.00000000000E+00 -0.00000000000E+00 -0.34028734884E+03  0.34028734884E+03  0.00000000000E+00 0. -1.
    9000007    1    1    2  501    0 -0.97747136618E+01 -0.28079051767E+03  0.33758389893E+03  0.59405534141E+03  0.40000000000E+03 0. -1.
   -9000007    1    1    2    0  503  0.97747136618E+01  0.28079051767E+03  0.69647294663E+02  0.49375054987E+03  0.40000000000E+03 0. -1.
<mgrwt>
<rscale>  2 0.48881373E+03</rscale>
<asrwt>0</asrwt>
<pdfrwt beam="1">  1       21 0.11500285E+00 0.48881373E+03</pdfrwt>
<pdfrwt beam="2">  1       21 0.52351900E-01 0.48881373E+03</pdfrwt>
<totfact> 0.17172586E+03</totfact>
</mgrwt>
</event>
<event>
 4    1  0.5003329E-002  0.5243537E+03  0.7818608E-02  0.1007611E+00
         21   -1    0    0  501  502  0.00000000000E+00  0.00000000000E+00  0.62318211675E+03  0.62318211675E+03  0.00000000000E+00 0. -1.
         21   -1    0    0  502  503 -0.00000000000E+00 -0.00000000000E+00 -0.49574983469E+03  0.49574983469E+03  0.00000000000E+00 0. -1.
    9000007    1    1    2  501    0 -0.12026615810E+03  0.31699034164E+03  0.24930260307E+03  0.58060194056E+03  0.40000000000E+03 0. -1.
   -9000007    1    1    2    0  503  0.12026615810E+03 -0.31699034164E+03 -0.12187032102E+03  0.53833001089E+03  0.40000000000E+03 0. -1.
<mgrwt>
<rscale>  2 0.52435372E+03</rscale>
<asrwt>0</asrwt>
<pdfrwt beam="1">  1       21 0.95874173E-01 0.52435372E+03</pdfrwt>
<pdfrwt beam="2">  1       21 0.76269205E-01 0.52435372E+03</pdfrwt>
<totfact> 0.11526239E+03</totfact>
</mgrwt>
</event>
<event>
 4    1  0.5003329E-002  0.4353756E+03  0.7818608E-02  0.1032175E+00
         21   -1    0    0  503  502  0.00000000000E+00  0.00000000000E+00  0.69007574893E+03  0.69007574893E+03  0.00000000000E+00 0.  1.
         21   -1    0    0  501  503 -0.00000000000E+00 -0.00000000000E+00 -0.28717593589E+03  0.28717593589E+03  0.00000000000E+00 0.  1.
    9000007    1    1    2  501    0  0.15217592785E+03 -0.79964949710E+02  0.99534705368E+02  0.44660840092E+03  0.40000000000E+03 0.  1.
   -9000007    1    1    2    0  502 -0.15217592785E+03  0.79964949710E+02  0.30336510767E+03  0.53064328390E+03  0.40000000000E+03 0.  1.
<mgrwt>
<rscale>  2 0.43537559E+03</rscale>
<asrwt>0</asrwt>
<pdfrwt beam="1">  1       21 0.10616550E+00 0.43537559E+03</pdfrwt>
<pdfrwt beam="2">  1       21 0.44180913E-01 0.43537559E+03</pdfrwt>
<totfact> 0.30590385E+03</totfact>
</mgrwt>
</event>
<event>
 4    1  0.5003329E-002  0.5736586E+03  0.7818608E-02  0.9961615E-01
         21   -1    0    0  501  502  0.00000000000E+00  0.00000000000E+00  0.25655109405E+03  0.25655109405E+03  0.00000000000E+00 0. -1.
         21   -1    0    0  502  503 -0.00000000000E+00 -0.00000000000E+00 -0.16569219510E+04  0.16569219510E+04  0.00000000000E+00 0.  1.
    9000007    1    1    2  501    0  0.17511265404E+03 -0.37204798556E+03 -0.24551966074E+03  0.62399042378E+03  0.40000000000E+03 0. -1.
   -9000007    1    1    2    0  503 -0.17511265404E+03  0.37204798556E+03 -0.11548511962E+04  0.12894826213E+04  0.40000000000E+03 0.  1.
<mgrwt>
<rscale>  2 0.57365856E+03</rscale>
<asrwt>0</asrwt>
<pdfrwt beam="1">  1       21 0.39469399E-01 0.57365856E+03</pdfrwt>
<pdfrwt beam="2">  1       21 0.25491107E+00 0.57365856E+03</pdfrwt>
<totfact> 0.29069712E+02</totfact>
</mgrwt>
</event>
<event>
 4    1  0.5003329E-002  0.4791457E+03  0.7818608E-02  0.1019370E+00
         21   -1    0    0  503  502  0.00000000000E+00  0.00000000000E+00  0.28857500746E+03  0.28857500746E+03  0.00000000000E+00 0. -1.
         21   -1    0    0  501  503 -0.00000000000E+00 -0.00000000000E+00 -0.85212450728E+03  0.85212450728E+03  0.00000000000E+00 0.  1.
    9000007    1    1    2  501    0  0.49713463634E+02 -0.25905432382E+03 -0.42871381832E+03  0.64294331723E+03  0.40000000000E+03 0.  1.
   -9000007    1    1    2    0  502 -0.49713463634E+02  0.25905432382E+03 -0.13483568149E+03  0.49775619751E+03  0.40000000000E+03 0. -1.
<mgrwt>
<rscale>  2 0.47914567E+03</rscale>
<asrwt>0</asrwt>
<pdfrwt beam="1">  1       21 0.44396155E-01 0.47914567E+03</pdfrwt>
<pdfrwt beam="2">  1       21 0.13109608E+00 0.47914567E+03</pdfrwt>
<totfact> 0.17473948E+03</totfact>
</mgrwt>
</event>
<event>
 4    1  0.5003329E-002  0.6329876E+03  0.7818608E-02  0.9839236E-01
         21   -1    0    0  503  502  0.00000000000E+00  0.00000000000E+00  0.64534187070E+03  0.64534187070E+03  0.00000000000E+00 0. -1.
         21   -1    0    0  501  503 -0.00000000000E+00 -0.00000000000E+00 -0.81534192121E+03  0.81534192121E+03  0.00000000000E+00 0.  1.
    9000007    1    1    2  501    0  0.26770451870E+03  0.41110540525E+03 -0.44168503381E+03  0.77185428200E+03  0.40000000000E+03 0.  1.
   -9000007    1    1    2    0  502 -0.26770451870E+03 -0.41110540525E+03  0.27168498329E+03  0.68882950990E+03  0.40000000000E+03 0. -1.
<mgrwt>
<rscale>  2 0.63298765E+03</rscale>
<asrwt>0</asrwt>
<pdfrwt beam="1">  1       21 0.99283364E-01 0.63298765E+03</pdfrwt>
<pdfrwt beam="2">  1       21 0.12543722E+00 0.63298765E+03</pdfrwt>
<totfact> 0.30393667E+02</totfact>
</mgrwt>
</event>
<event>
 4    1  0.5003329E-002  0.4596518E+03  0.7818608E-02  0.1024882E+00
         21   -1    0    0  503  502  0.00000000000E+00  0.00000000000E+00  0.10286121893E+04  0.10286121893E+04  0.00000000000E+00 0. -1.
         21   -1    0    0  501  503 -0.00000000000E+00 -0.00000000000E+00 -0.27969748673E+03  0.27969748673E+03  0.00000000000E+00 0. -1.
    9000007    1    1    2  501    0  0.22458158736E+03  0.29033194031E+02  0.37313552028E+02  0.46116387207E+03  0.40000000000E+03 0. -1.
   -9000007    1    1    2    0  502 -0.22458158736E+03 -0.29033194031E+02  0.71160115057E+03  0.84714580400E+03  0.40000000000E+03 0. -1.
<mgrwt>
<rscale>  2 0.45965184E+03</rscale>
<asrwt>0</asrwt>
<pdfrwt beam="1">  1       21 0.15824803E+00 0.45965184E+03</pdfrwt>
<pdfrwt beam="2">  1       21 0.43030383E-01 0.45965184E+03</pdfrwt>
<totfact> 0.11336482E+03</totfact>
</mgrwt>
</event>
<event>
 4    1  0.5003329E-002  0.5058717E+03  0.7818608E-02  0.1012258E+00
         21   -1    0    0  503  502  0.00000000000E+00  0.00000000000E+00  0.76420722874E+03  0.76420722874E+03  0.00000000000E+00 0.  1.
         21   -1    0    0  501  503 -0.00000000000E+00 -0.00000000000E+00 -0.40912664740E+03  0.40912664740E+03  0.00000000000E+00 0.  1.
    9000007    1    1    2  501    0  0.14169036700E+03 -0.27537247165E+03  0.42748582694E+03  0.66230679483E+03  0.40000000000E+03 0.  1.
   -9000007    1    1    2    0  502 -0.14169036700E+03  0.27537247165E+03 -0.72405245595E+02  0.51102708131E+03  0.40000000000E+03 0.  1.
<mgrwt>
<rscale>  2 0.50587168E+03</rscale>
<asrwt>0</asrwt>
<pdfrwt beam="1">  1       21 0.11757034E+00 0.50587168E+03</pdfrwt>
<pdfrwt beam="2">  1       21 0.62942561E-01 0.50587168E+03</pdfrwt>
<totfact> 0.10805734E+03</totfact>
</mgrwt>
</event>
<event>
 4    1  0.5003329E-002  0.4774319E+03  0.7818608E-02  0.1019843E+00
         21   -1    0    0  503  502  0.00000000000E+00  0.00000000000E+00  0.92797510767E+03  0.92797510767E+03  0.00000000000E+00 0.  1.
         21   -1    0    0  501  503 -0.00000000000E+00 -0.00000000000E+00 -0.34354757904E+03  0.34354757904E+03  0.00000000000E+00 0.  1.
    9000007    1    1    2  501    0  0.19233639925E+03 -0.17592023727E+03 -0.47196182219E+02  0.47975900197E+03  0.40000000000E+03 0.  1.
   -9000007    1    1    2    0  502 -0.19233639925E+03  0.17592023727E+03  0.63162371085E+03  0.79176368474E+03  0.40000000000E+03 0.  1.
<mgrwt>
<rscale>  2 0.47743190E+03</rscale>
<asrwt>0</asrwt>
<pdfrwt beam="1">  1       21 0.14276540E+00 0.47743190E+03</pdfrwt>
<pdfrwt beam="2">  1       21 0.52853474E-01 0.47743190E+03</pdfrwt>
<totfact> 0.96442671E+02</totfact>
</mgrwt>
</event>
<event>
 4    1  0.5003329E-002  0.4117975E+03  0.7818608E-02  0.1039769E+00
         21   -1    0    0  501  502  0.00000000000E+00  0.00000000000E+00  0.13447539741E+03  0.13447539741E+03  0.00000000000E+00 0. -1.
         21   -1    0    0  502  503 -0.00000000000E+00 -0.00000000000E+00 -0.17164232940E+04  0.17164232940E+04  0.00000000000E+00 0. -1.
    9000007    1    1    2  501    0  0.61329738293E+02 -0.76261531509E+02 -0.12676628250E+04  0.13328714101E+04  0.40000000000E+03 0.  1.
   -9000007    1    1    2    0  503 -0.61329738293E+02  0.76261531509E+02 -0.31428507167E+03  0.51802728139E+03  0.40000000000E+03 0.  1.
<mgrwt>
<rscale>  2 0.41179747E+03</rscale>
<asrwt>0</asrwt>
<pdfrwt beam="1">  1       21 0.20688524E-01 0.41179747E+03</pdfrwt>
<pdfrwt beam="2">  1       21 0.26406511E+00 0.41179747E+03</pdfrwt>
<totfact> 0.99410238E+02</totfact>
</mgrwt>
</event>
<event>
 4    1  0.5003329E-002  0.4267563E+03  0.7818608E-02  0.1034890E+00
         21   -1    0    0  503  502  0.00000000000E+00  0.00000000000E+00  0.33640219500E+03  0.33640219500E+03  0.00000000000E+00 0. -1.
         21   -1    0    0  501  503 -0.00000000000E+00 -0.00000000000E+00 -0.62857158208E+03  0.62857158208E+03  0.00000000000E+00 0.  1.
    9000007    1    1    2  501    0  0.14710700135E+03  0.21920150138E+02 -0.32578499707E+03  0.53689554584E+03  0.40000000000E+03 0.  1.
   -9000007    1    1    2    0  502 -0.14710700135E+03 -0.21920150138E+02  0.33615609997E+02  0.42807823124E+03  0.40000000000E+03 0. -1.
<mgrwt>
<rscale>  2 0.42675633E+03</rscale>
<asrwt>0</asrwt>
<pdfrwt beam="1">  1       21 0.51754184E-01 0.42675633E+03</pdfrwt>
<pdfrwt beam="2">  1       21 0.96703320E-01 0.42675633E+03</pdfrwt>
<totfact> 0.27585096E+03</totfact>
</mgrwt>
</event>
<event>
 4    1  0.5003329E-002  0.5021512E+03  0.7818608E-02  0.1013219E+00
         21   -1    0    0  503  502  0.00000000000E+00  0.00000000000E+00  0.24623476873E+03  0.24623476873E+03  0.00000000000E+00 0. -1.
         21   -1    0    0  501  503 -0.00000000000E+00 -0.00000000000E+00 -0.10246689013E+04  0.10246689013E+04  0.00000000000E+00 0. -1.
    9000007    1    1    2  501    0  0.19695383085E+03 -0.23100869277E+03 -0.40487960633E+03  0.64504521023E+03  0.40000000000E+03 0. -1.
   -9000007    1    1    2    0  502 -0.19695383085E+03  0.23100869277E+03 -0.37355452623E+03  0.62585845979E+03  0.40000000000E+03 0. -1.
<mgrwt>
<rscale>  2 0.50215120E+03</rscale>
<asrwt>0</asrwt>
<pdfrwt beam="1">  1       21 0.37882273E-01 0.50215120E+03</pdfrwt>
<pdfrwt beam="2">  1       21 0.15764137E+00 0.50215120E+03</pdfrwt>
<totfact> 0.14660629E+03</totfact>
</mgrwt>
</event>
<event>
 4    1  0.5003329E-002  0.4085569E+03  0.7818608E-02  0.1040856E+00
         21   -1    0    0  501  502  0.00000000000E+00  0.00000000000E+00  0.67437428771E+03  0.67437428771E+03  0.00000000000E+00 0. -1.
         21   -1    0    0  502  503 -0.00000000000E+00 -0.00000000000E+00 -0.43371677868E+03  0.43371677868E+03  0.00000000000E+00 0. -1.
    9000007    1    1    2  501    0 -0.47553668604E+02 -0.68245294294E+02  0.48335037847E+03  0.63288732011E+03  0.40000000000E+03 0. -1.
   -9000007    1    1    2    0  503  0.47553668604E+02  0.68245294294E+02 -0.24269286945E+03  0.47520374627E+03  0.40000000000E+03 0. -1.
<mgrwt>
<rscale>  2 0.40855694E+03</rscale>
<asrwt>0</asrwt>
<pdfrwt beam="1">  1       21 0.10374989E+00 0.40855694E+03</pdfrwt>
<pdfrwt beam="2">  1       21 0.66725658E-01 0.40855694E+03</pdfrwt>
<totfact> 0.13463348E+03</totfact>
</mgrwt>
</event>
<event>
 4    1  0.5003329E-002  0.5135245E+03  0.7818608E-02  0.1010308E+00
         21   -1    0    0  501  502  0.00000000000E+00  0.00000000000E+00  0.89092574561E+03  0.89092574561E+03  0.00000000000E+00 0.  1.
         21   -1    0    0  502  503 -0.00000000000E+00 -0.00000000000E+00 -0.63400524011E+03  0.63400524011E+03  0.00000000000E+00 0.  1.
    9000007    1    1    2  501    0  0.69974657180E+01 -0.32196028758E+03  0.68518466662E+03  0.85626247067E+03  0.40000000000E+03 0.  1.
   -9000007    1    1    2    0  503 -0.69974657180E+01  0.32196028758E+03 -0.42826416113E+03  0.66866851504E+03  0.40000000000E+03 0.  1.
<mgrwt>
<rscale>  2 0.51352448E+03</rscale>
<asrwt>0</asrwt>
<pdfrwt beam="1">  1       21 0.13706550E+00 0.51352448E+03</pdfrwt>
<pdfrwt beam="2">  1       21 0.97539267E-01 0.51352448E+03</pdfrwt>
<totfact> 0.26311572E+02</totfact>
</mgrwt>
</event>
<event>
 4    1  0.5003329E-002  0.4612482E+03  0.7818608E-02  0.1024420E+00
         21   -1    0    0  501  502  0.00000000000E+00  0.00000000000E+00  0.14979548925E+03  0.14979548925E+03  0.00000000000E+00 0. -1.
         21   -1    0    0  502  503 -0.00000000000E+00 -0.00000000000E+00 -0.18495668284E+04  0.18495668284E+04  0.00000000000E+00 0. -1.
    9000007    1    1    2  501    0  0.42820843303E+01 -0.22963354781E+03 -0.36826424760E+03  0.59022746343E+03  0.40000000000E+03 0. -1.
   -9000007    1    1    2    0  503 -0.42820843303E+01  0.22963354781E+03 -0.13315070915E+04  0.14091348542E+04  0.40000000000E+03 0. -1.
<mgrwt>
<rscale>  2 0.46124820E+03</rscale>
<asrwt>0</asrwt>
<pdfrwt beam="1">  1       21 0.23045458E-01 0.46124820E+03</pdfrwt>
<pdfrwt beam="2">  1       21 0.28454876E+00 0.46124820E+03</pdfrwt>
<totfact> 0.59192030E+02</totfact>
</mgrwt>
</event>
<event>
 4    1  0.5003329E-002  0.4166163E+03  0.7818608E-02  0.1038173E+00
         21   -1    0    0  503  502  0.00000000000E+00  0.00000000000E+00  0.17801479349E+03  0.17801479349E+03  0.00000000000E+00 0.  1.
         21   -1    0    0  501  503 -0.00000000000E+00 -0.00000000000E+00 -0.12470812666E+04  0.12470812666E+04  0.00000000000E+00 0.  1.
    9000007    1    1    2  501    0 -0.94029071651E+02  0.68757973699E+02 -0.86734219389E+03  0.96221183040E+03  0.40000000000E+03 0.  1.
   -9000007    1    1    2    0  502  0.94029071651E+02 -0.68757973699E+02 -0.20172427921E+03  0.46288422968E+03  0.40000000000E+03 0.  1.
<mgrwt>
<rscale>  2 0.41661628E+03</rscale>
<asrwt>0</asrwt>
<pdfrwt beam="1">  1       21 0.27386891E-01 0.41661628E+03</pdfrwt>
<pdfrwt beam="2">  1       21 0.19185866E+00 0.41661628E+03</pdfrwt>
<totfact> 0.16523373E+03</totfact>
</mgrwt>
</event>
<event>
 4    1  0.5003329E-002  0.4308284E+03  0.7818608E-02  0.1033599E+00
         21   -1    0    0  503  502  0.00000000000E+00  0.00000000000E+00  0.21731726645E+03  0.21731726645E+03  0.00000000000E+00 0.  1.
         21   -1    0    0  501  503 -0.00000000000E+00 -0.00000000000E+00 -0.14084220023E+04  0.14084220023E+04  0.00000000000E+00 0.  1.
    9000007    1    1    2  501    0 -0.12389501356E+03 -0.10130722476E+03 -0.11055065296E+04  0.11864897029E+04  0.40000000000E+03 0.  1.
   -9000007    1    1    2    0  502  0.12389501356E+03  0.10130722476E+03 -0.85598206281E+02  0.43924956584E+03  0.40000000000E+03 0.  1.
<mgrwt>
<rscale>  2 0.43082842E+03</rscale>
<asrwt>0</asrwt>
<pdfrwt beam="1">  1       21 0.33433425E-01 0.43082842E+03</pdfrwt>
<pdfrwt beam="2">  1       21 0.21668031E+00 0.43082842E+03</pdfrwt>
<totfact> 0.75741136E+02</totfact>
</mgrwt>
</event>
<event>
 4    1  0.5003329E-002  0.4201102E+03  0.7818608E-02  0.1037030E+00
         21   -1    0    0  501  502  0.00000000000E+00  0.00000000000E+00  0.52898048269E+03  0.52898048269E+03  0.00000000000E+00 0.  1.
         21   -1    0    0  502  503 -0.00000000000E+00 -0.00000000000E+00 -0.40971682536E+03  0.40971682536E+03  0.00000000000E+00 0.  1.
    9000007    1    1    2  501    0 -0.11995158644E+03  0.45871509751E+02  0.26186892369E+03  0.49504334324E+03  0.40000000000E+03 0.  1.
   -9000007    1    1    2    0  503  0.11995158644E+03 -0.45871509751E+02 -0.14260526636E+03  0.44365396481E+03  0.40000000000E+03 0.  1.
<mgrwt>
<rscale>  2 0.42011020E+03</rscale>
<asrwt>0</asrwt>
<pdfrwt beam="1">  1       21 0.81381614E-01 0.42011020E+03</pdfrwt>
<pdfrwt beam="2">  1       21 0.63033357E-01 0.42011020E+03</pdfrwt>
<totfact> 0.27075749E+03</totfact>
</mgrwt>
</event>
<event>
 4    1  0.5003329E-002  0.4103487E+03  0.7818608E-02  0.1040254E+00
         21   -1    0    0  503  502  0.00000000000E+00  0.00000000000E+00  0.13710651955E+03  0.13710651955E+03  0.00000000000E+00 0. -1.
         21   -1    0    0  501  503 -0.00000000000E+00 -0.00000000000E+00 -0.20086029781E+04  0.20086029781E+04  0.00000000000E+00 0. -1.
    9000007    1    1    2  501    0  0.85188375317E+02  0.33600872920E+02 -0.16045075898E+04  0.16561493543E+04  0.40000000000E+03 0. -1.
   -9000007    1    1    2    0  502 -0.85188375317E+02 -0.33600872920E+02 -0.26698886877E+03  0.48956014339E+03  0.40000000000E+03 0. -1.
<mgrwt>
<rscale>  2 0.41034873E+03</rscale>
<asrwt>0</asrwt>
<pdfrwt beam="1">  1       21 0.21093313E-01 0.41034873E+03</pdfrwt>
<pdfrwt beam="2">  1       21 0.30901581E+00 0.41034873E+03</pdfrwt>
<totfact> 0.51511915E+02</totfact>
</mgrwt>
</event>
<event>
 4    1  0.5003329E-002  0.4090132E+03  0.7818608E-02  0.1040703E+00
         21   -1    0    0  501  502  0.00000000000E+00  0.00000000000E+00  0.20845871095E+03  0.20845871095E+03  0.00000000000E+00 0. -1.
         21   -1    0    0  502  503 -0.00000000000E+00 -0.00000000000E+00 -0.80411951231E+03  0.80411951231E+03  0.00000000000E+00 0. -1.
    9000007    1    1    2  501    0  0.30139160716E+01  0.85338803026E+02 -0.32042740015E+03  0.51958205681E+03  0.40000000000E+03 0. -1.
   -9000007    1    1    2    0  503 -0.30139160716E+01 -0.85338803026E+02 -0.27523340121E+03  0.49299616645E+03  0.40000000000E+03 0. -1.
<mgrwt>
<rscale>  2 0.40901320E+03</rscale>
<asrwt>0</asrwt>
<pdfrwt beam="1">  1       21 0.32070571E-01 0.40901320E+03</pdfrwt>
<pdfrwt beam="2">  1       21 0.12371069E+00 0.40901320E+03</pdfrwt>
<totfact> 0.40513591E+03</totfact>
</mgrwt>
</event>
<event>
 4    1  0.5003329E-002  0.4857402E+03  0.7818608E-02  0.1017569E+00
         21   -1    0    0  501  502  0.00000000000E+00  0.00000000000E+00  0.65807678725E+03  0.65807678725E+03  0.00000000000E+00 0. -1.
         21   -1    0    0  502  503 -0.00000000000E+00 -0.00000000000E+00 -0.40167045185E+03  0.40167045185E+03  0.00000000000E+00 0. -1.
    9000007    1    1    2  501    0  0.13050504328E+03 -0.24271779480E+03  0.30184527257E+03  0.57188640726E+03  0.40000000000E+03 0. -1.
   -9000007    1    1    2    0  503 -0.13050504328E+03  0.24271779480E+03 -0.45438937165E+02  0.48786083184E+03  0.40000000000E+03 0. -1.
<mgrwt>
<rscale>  2 0.48574015E+03</rscale>
<asrwt>0</asrwt>
<pdfrwt beam="1">  1       21 0.10124258E+00 0.48574015E+03</pdfrwt>
<pdfrwt beam="2">  1       21 0.61795454E-01 0.48574015E+03</pdfrwt>
<totfact> 0.16435510E+03</totfact>
</mgrwt>
</event>
<event>
 4    1  0.5003329E-002  0.4444626E+03  0.7818608E-02  0.1029386E+00
         21   -1    0    0  501  502  0.00000000000E+00  0.00000000000E+00  0.13094282765E+04  0.13094282765E+04  0.00000000000E+00 0. -1.
         21   -1    0    0  502  503 -0.00000000000E+00 -0.00000000000E+00 -0.19630074654E+03  0.19630074654E+03  0.00000000000E+00 0.  1.
    9000007    1    1    2  501    0 -0.28927906941E+02  0.19159890969E+03  0.91876875753E+03  0.10206287257E+04  0.40000000000E+03 0. -1.
   -9000007    1    1    2    0  503  0.28927906941E+02 -0.19159890969E+03  0.19435877240E+03  0.48510029726E+03  0.40000000000E+03 0. -1.
<mgrwt>
<rscale>  2 0.44446256E+03</rscale>
<asrwt>0</asrwt>
<pdfrwt beam="1">  1       21 0.20145050E+00 0.44446256E+03</pdfrwt>
<pdfrwt beam="2">  1       21 0.30200116E-01 0.44446256E+03</pdfrwt>
<totfact> 0.11593136E+03</totfact>
</mgrwt>
</event>
<event>
 4    1  0.5003329E-002  0.4222128E+03  0.7818608E-02  0.1036349E+00
         21   -1    0    0  501  502  0.00000000000E+00  0.00000000000E+00  0.56424408235E+03  0.56424408235E+03  0.00000000000E+00 0. -1.
         21   -1    0    0  502  503 -0.00000000000E+00 -0.00000000000E+00 -0.54973021360E+03  0.54973021360E+03  0.00000000000E+00 0. -1.
    9000007    1    1    2  501    0  0.11985684473E+03  0.62433702063E+02  0.37049347825E+03  0.56171972353E+03  0.40000000000E+03 0. -1.
   -9000007    1    1    2    0  503 -0.11985684473E+03 -0.62433702063E+02 -0.35597960949E+03  0.55225457242E+03  0.40000000000E+03 0. -1.
<mgrwt>
<rscale>  2 0.42221278E+03</rscale>
<asrwt>0</asrwt>
<pdfrwt beam="1">  1       21 0.86806782E-01 0.42221278E+03</pdfrwt>
<pdfrwt beam="2">  1       21 0.84573879E-01 0.42221278E+03</pdfrwt>
<totfact> 0.11951437E+03</totfact>
</mgrwt>
</event>
<event>
 4    1  0.5003329E-002  0.4295186E+03  0.7818608E-02  0.1034012E+00
         21   -1    0    0  501  502  0.00000000000E+00  0.00000000000E+00  0.55486749543E+03  0.55486749543E+03  0.00000000000E+00 0.  1.
         21   -1    0    0  502  503 -0.00000000000E+00 -0.00000000000E+00 -0.10112997372E+04  0.10112997372E+04  0.00000000000E+00 0. -1.
    9000007    1    1    2  501    0  0.12918612813E+03  0.88301597607E+02  0.41335260066E+03  0.59610955395E+03  0.40000000000E+03 0.  1.
   -9000007    1    1    2    0  503 -0.12918612813E+03 -0.88301597607E+02 -0.86978484246E+03  0.97005767870E+03  0.40000000000E+03 0. -1.
<mgrwt>
<rscale>  2 0.42951860E+03</rscale>
<asrwt>0</asrwt>
<pdfrwt beam="1">  1       21 0.85364231E-01 0.42951860E+03</pdfrwt>
<pdfrwt beam="2">  1       21 0.15558457E+00 0.42951860E+03</pdfrwt>
<totfact> 0.26706459E+02</totfact>
</mgrwt>
</event>
<event>
 4    1  0.5003329E-002  0.5232872E+03  0.7818608E-02  0.1007873E+00
         21   -1    0    0  503  502  0.00000000000E+00  0.00000000000E+00  0.50257430112E+03  0.50257430112E+03  0.00000000000E+00 0.  1.
         21   -1    0    0  501  503 -0.00000000000E+00 -0.00000000000E+00 -0.54536588736E+03  0.54536588736E+03  0.00000000000E+00 0. -1.
    9000007    1    1    2  501    0 -0.29724424380E+03 -0.15961007972E+03 -0.53399057461E+01  0.52331446819E+03  0.40000000000E+03 0.  1.
   -9000007    1    1    2    0  502  0.29724424380E+03  0.15961007972E+03 -0.37451680494E+02  0.52462572029E+03  0.40000000000E+03 0.  1.
<mgrwt>
<rscale>  2 0.52328722E+03</rscale>
<asrwt>0</asrwt>
<pdfrwt beam="1">  1       21 0.77319124E-01 0.52328722E+03</pdfrwt>
<pdfrwt beam="2">  1       21 0.83902444E-01 0.52328722E+03</pdfrwt>
<totfact> 0.15340132E+03</totfact>
</mgrwt>
</event>
<event>
 4    1  0.5003329E-002  0.5533491E+03  0.7818608E-02  0.1000722E+00
         21   -1    0    0  501  502  0.00000000000E+00  0.00000000000E+00  0.53503881395E+03  0.53503881395E+03  0.00000000000E+00 0. -1.
         21   -1    0    0  502  503 -0.00000000000E+00 -0.00000000000E+00 -0.59049103007E+03  0.59049103007E+03  0.00000000000E+00 0. -1.
    9000007    1    1    2  501    0  0.38211877566E+03  0.13432010887E+02  0.71087571509E+02  0.55789660373E+03  0.40000000000E+03 0. -1.
   -9000007    1    1    2    0  503 -0.38211877566E+03 -0.13432010887E+02 -0.12653978763E+03  0.56763324029E+03  0.40000000000E+03 0. -1.
<mgrwt>
<rscale>  2 0.55334906E+03</rscale>
<asrwt>0</asrwt>
<pdfrwt beam="1">  1       21 0.82313664E-01 0.55334906E+03</pdfrwt>
<pdfrwt beam="2">  1       21 0.90844773E-01 0.55334906E+03</pdfrwt>
<totfact> 0.10887108E+03</totfact>
</mgrwt>
</event>
<event>
 4    1  0.5003329E-002  0.4549133E+03  0.7818608E-02  0.1026267E+00
         21   -1    0    0  503  502  0.00000000000E+00  0.00000000000E+00  0.39624630304E+03  0.39624630304E+03  0.00000000000E+00 0.  1.
         21   -1    0    0  501  503 -0.00000000000E+00 -0.00000000000E+00 -0.73808979844E+03  0.73808979844E+03  0.00000000000E+00 0.  1.
    9000007    1    1    2  501    0 -0.19441318737E+03 -0.95653571568E+02 -0.47761661973E+03  0.65959360869E+03  0.40000000000E+03 0.  1.
   -9000007    1    1    2    0  502  0.19441318737E+03  0.95653571568E+02  0.13577312433E+03  0.47474249280E+03  0.40000000000E+03 0.  1.
<mgrwt>
<rscale>  2 0.45491328E+03</rscale>
<asrwt>0</asrwt>
<pdfrwt beam="1">  1       21 0.60960970E-01 0.45491328E+03</pdfrwt>
<pdfrwt beam="2">  1       21 0.11355228E+00 0.45491328E+03</pdfrwt>
<totfact> 0.12901363E+03</totfact>
</mgrwt>
</event>
<event>
 4    1  0.5003329E-002  0.4918685E+03  0.7818608E-02  0.1015923E+00
         21   -1    0    0  503  502  0.00000000000E+00  0.00000000000E+00  0.30184176338E+03  0.30184176338E+03  0.00000000000E+00 0. -1.
         21   -1    0    0  501  503 -0.00000000000E+00 -0.00000000000E+00 -0.88660315259E+03  0.88660315259E+03  0.00000000000E+00 0. -1.
    9000007    1    1    2  501    0 -0.16663605758E+03 -0.23273820441E+03 -0.47645179280E+03  0.68479263894E+03  0.40000000000E+03 0. -1.
   -9000007    1    1    2    0  502  0.16663605758E+03  0.23273820441E+03 -0.10830959642E+03  0.50365227703E+03  0.40000000000E+03 0. -1.
<mgrwt>
<rscale>  2 0.49186853E+03</rscale>
<asrwt>0</asrwt>
<pdfrwt beam="1">  1       21 0.46437193E-01 0.49186853E+03</pdfrwt>
<pdfrwt beam="2">  1       21 0.13640049E+00 0.49186853E+03</pdfrwt>
<totfact> 0.14263306E+03</totfact>
</mgrwt>
</event>
<event>
 4    1  0.5003329E-002  0.4506329E+03  0.7818608E-02  0.1027533E+00
         21   -1    0    0  501  502  0.00000000000E+00  0.00000000000E+00  0.13746764948E+04  0.13746764948E+04  0.00000000000E+00 0. -1.
         21   -1    0    0  502  503 -0.00000000000E+00 -0.00000000000E+00 -0.16359742108E+03  0.16359742108E+03  0.00000000000E+00 0. -1.
    9000007    1    1    2  501    0 -0.16925465842E+03 -0.12009540256E+03  0.84513425785E+03  0.95776926183E+03  0.40000000000E+03 0. -1.
   -9000007    1    1    2    0  503  0.16925465842E+03  0.12009540256E+03  0.36594481586E+03  0.58050465404E+03  0.40000000000E+03 0. -1.
<mgrwt>
<rscale>  2 0.45063294E+03</rscale>
<asrwt>0</asrwt>
<pdfrwt beam="1">  1       21 0.21148868E+00 0.45063294E+03</pdfrwt>
<pdfrwt beam="2">  1       21 0.25168835E-01 0.45063294E+03</pdfrwt>
<totfact> 0.14215751E+03</totfact>
</mgrwt>
</event>
<event>
 4    1  0.5003329E-002  0.4370663E+03  0.7818608E-02  0.1031651E+00
         21   -1    0    0  501  502  0.00000000000E+00  0.00000000000E+00  0.77528401901E+03  0.77528401901E+03  0.00000000000E+00 0.  1.
         21   -1    0    0  502  503 -0.00000000000E+00 -0.00000000000E+00 -0.25985893220E+03  0.25985893220E+03  0.00000000000E+00 0.  1.
    9000007    1    1    2  501    0  0.12318389921E+03  0.12590732953E+03  0.37551934077E+03  0.57623059963E+03  0.40000000000E+03 0.  1.
   -9000007    1    1    2    0  503 -0.12318389921E+03 -0.12590732953E+03  0.13990574605E+03  0.45891235158E+03  0.40000000000E+03 0.  1.
<mgrwt>
<rscale>  2 0.43706627E+03</rscale>
<asrwt>0</asrwt>
<pdfrwt beam="1">  1       21 0.11927446E+00 0.43706627E+03</pdfrwt>
<pdfrwt beam="2">  1       21 0.39978298E-01 0.43706627E+03</pdfrwt>
<totfact> 0.28142468E+03</totfact>
</mgrwt>
</event>
<event>
 4    1  0.5003329E-002  0.4094308E+03  0.7818608E-02  0.1040562E+00
         21   -1    0    0  501  502  0.00000000000E+00  0.00000000000E+00  0.13524331549E+04  0.13524331549E+04  0.00000000000E+00 0. -1.
         21   -1    0    0  502  503 -0.00000000000E+00 -0.00000000000E+00 -0.21825690783E+03  0.21825690783E+03  0.00000000000E+00 0. -1.
    9000007    1    1    2  501    0 -0.34005421874E+02 -0.80481215683E+02  0.10833250856E+04  0.11581134814E+04  0.40000000000E+03 0. -1.
   -9000007    1    1    2    0  503  0.34005421874E+02  0.80481215683E+02  0.50851161462E+02  0.41257658128E+03  0.40000000000E+03 0. -1.
<mgrwt>
<rscale>  2 0.40943082E+03</rscale>
<asrwt>0</asrwt>
<pdfrwt beam="1">  1       21 0.20806663E+00 0.40943082E+03</pdfrwt>
<pdfrwt beam="2">  1       21 0.33577987E-01 0.40943082E+03</pdfrwt>
<totfact> 0.86305585E+02</totfact>
</mgrwt>
</event>
<event>
 4    1  0.5003329E-002  0.7522727E+03  0.7818608E-02  0.9631792E-01
         21   -1    0    0  503  502  0.00000000000E+00  0.00000000000E+00  0.48824968107E+03  0.48824968107E+03  0.00000000000E+00 0. -1.
         21   -1    0    0  501  503 -0.00000000000E+00 -0.00000000000E+00 -0.14596747926E+04  0.14596747926E+04  0.00000000000E+00 0.  1.
    9000007    1    1    2  501    0 -0.39558090231E+03 -0.49942959193E+03 -0.92770421243E+03  0.11943823815E+04  0.40000000000E+03 0.  1.
   -9000007    1    1    2    0  502  0.39558090231E+03  0.49942959193E+03 -0.43720899066E+02  0.75354209211E+03  0.40000000000E+03 0. -1.
<mgrwt>
<rscale>  2 0.75227267E+03</rscale>
<asrwt>0</asrwt>
<pdfrwt beam="1">  1       21 0.75115336E-01 0.75227267E+03</pdfrwt>
<pdfrwt beam="2">  1       21 0.22456535E+00 0.75227267E+03</pdfrwt>
<totfact> 0.10407469E+02</totfact>
</mgrwt>
</event>
<event>
 4    1  0.5003329E-002  0.4842516E+03  0.7818608E-02  0.1017973E+00
         21   -1    0    0  501  502  0.00000000000E+00  0.00000000000E+00  0.30614700632E+03  0.30614700632E+03  0.00000000000E+00 0.  1.
         21   -1    0    0  502  503 -0.00000000000E+00 -0.00000000000E+00 -0.11868312435E+04  0.11868312435E+04  0.00000000000E+00 0.  1.
    9000007    1    1    2  501    0 -0.27292229987E+03 -0.36083057484E+01  0.41849021202E+01  0.48426967182E+03  0.40000000000E+03 0.  1.
   -9000007    1    1    2    0  503  0.27292229987E+03  0.36083057484E+01 -0.88486913926E+03  0.10087085780E+04  0.40000000000E+03 0.  1.
<mgrwt>
<rscale>  2 0.48425159E+03</rscale>
<asrwt>0</asrwt>
<pdfrwt beam="1">  1       21 0.47099539E-01 0.48425159E+03</pdfrwt>
<pdfrwt beam="2">  1       21 0.18258942E+00 0.48425159E+03</pdfrwt>
<totfact> 0.61661056E+02</totfact>
</mgrwt>
</event>
<event>
 4    1  0.5003329E-002  0.5269906E+03  0.7818608E-02  0.1006965E+00
         21   -1    0    0  503  502  0.00000000000E+00  0.00000000000E+00  0.14983413999E+04  0.14983413999E+04  0.00000000000E+00 0.  1.
         21   -1    0    0  501  503 -0.00000000000E+00 -0.00000000000E+00 -0.29935348925E+03  0.29935348925E+03  0.00000000000E+00 0. -1.
    9000007    1    1    2  501    0 -0.30297873849E+03  0.16100611603E+03  0.11541847798E+04  0.12688032122E+04  0.40000000000E+03 0.  1.
   -9000007    1    1    2    0  502  0.30297873849E+03 -0.16100611603E+03  0.44803130812E+02  0.52889167691E+03  0.40000000000E+03 0. -1.
<mgrwt>
<rscale>  2 0.52699059E+03</rscale>
<asrwt>0</asrwt>
<pdfrwt beam="1">  1       21 0.23051406E+00 0.52699059E+03</pdfrwt>
<pdfrwt beam="2">  1       21 0.46054384E-01 0.52699059E+03</pdfrwt>
<totfact> 0.30544603E+02</totfact>
</mgrwt>
</event>
<event>
 4    1  0.5003329E-002  0.4843131E+03  0.7818608E-02  0.1017956E+00
         21   -1    0    0  503  502  0.00000000000E+00  0.00000000000E+00  0.43489066595E+03  0.43489066595E+03  0.00000000000E+00 0.  1.
         21   -1    0    0  501  503 -0.00000000000E+00 -0.00000000000E+00 -0.62178432277E+03  0.62178432277E+03  0.00000000000E+00 0.  1.
    9000007    1    1    2  501    0  0.16773419804E+03  0.21546334533E+03 -0.28581797341E+03  0.56236209714E+03  0.40000000000E+03 0.  1.
   -9000007    1    1    2    0  502 -0.16773419804E+03 -0.21546334533E+03  0.98924316588E+02  0.49431289158E+03  0.40000000000E+03 0.  1.
<mgrwt>
<rscale>  2 0.48431314E+03</rscale>
<asrwt>0</asrwt>
<pdfrwt beam="1">  1       21 0.66906256E-01 0.48431314E+03</pdfrwt>
<pdfrwt beam="2">  1       21 0.95659127E-01 0.48431314E+03</pdfrwt>
<totfact> 0.15813873E+03</totfact>
</mgrwt>
</event>
<event>
 4    1  0.5003329E-002  0.4419987E+03  0.7818608E-02  0.1030135E+00
         21   -1    0    0  501  502  0.00000000000E+00  0.00000000000E+00  0.51772226918E+03  0.51772226918E+03  0.00000000000E+00 0.  1.
         21   -1    0    0  502  503 -0.00000000000E+00 -0.00000000000E+00 -0.47924461400E+03  0.47924461400E+03  0.00000000000E+00 0.  1.
    9000007    1    1    2  501    0 -0.15954749754E+03 -0.99536089487E+02  0.24908979495E+03  0.50735447473E+03  0.40000000000E+03 0.  1.
   -9000007    1    1    2    0  503  0.15954749754E+03  0.99536089487E+02 -0.21061213977E+03  0.48961240844E+03  0.40000000000E+03 0.  1.
<mgrwt>
<rscale>  2 0.44199868E+03</rscale>
<asrwt>0</asrwt>
<pdfrwt beam="1">  1       21 0.79649580E-01 0.44199868E+03</pdfrwt>
<pdfrwt beam="2">  1       21 0.73729940E-01 0.44199868E+03</pdfrwt>
<totfact> 0.19865563E+03</totfact>
</mgrwt>
</event>
<event>
 4    1  0.5003329E-002  0.4295213E+03  0.7818608E-02  0.1034011E+00
         21   -1    0    0  503  502  0.00000000000E+00  0.00000000000E+00  0.13211048763E+04  0.13211048763E+04  0.00000000000E+00 0. -1.
         21   -1    0    0  501  503 -0.00000000000E+00 -0.00000000000E+00 -0.14032987847E+03  0.14032987847E+03  0.00000000000E+00 0. -1.
    9000007    1    1    2  501    0 -0.11090004959E+03  0.11040717758E+03  0.64135459993E+03  0.77189655312E+03  0.40000000000E+03 0. -1.
   -9000007    1    1    2    0  502  0.11090004959E+03 -0.11040717758E+03  0.53942039785E+03  0.68953820161E+03  0.40000000000E+03 0. -1.
<mgrwt>
<rscale>  2 0.42952132E+03</rscale>
<asrwt>0</asrwt>
<pdfrwt beam="1">  1       21 0.20324690E+00 0.42952132E+03</pdfrwt>
<pdfrwt beam="2">  1       21 0.21589213E-01 0.42952132E+03</pdfrwt>
<totfact> 0.21852890E+03</totfact>
</mgrwt>
</event>
<event>
 4    1  0.5003329E-002  0.4809402E+03  0.7818608E-02  0.1018877E+00
         21   -1    0    0  501  502  0.00000000000E+00  0.00000000000E+00  0.62607068030E+03  0.62607068030E+03  0.00000000000E+00 0.  1.
         21   -1    0    0  502  503 -0.00000000000E+00 -0.00000000000E+00 -0.41035482731E+03  0.41035482731E+03  0.00000000000E+00 0.  1.
    9000007    1    1    2  501    0 -0.17964001853E+03  0.19756752340E+03  0.27146482689E+03  0.55226498603E+03  0.40000000000E+03 0.  1.
   -9000007    1    1    2    0  503  0.17964001853E+03 -0.19756752340E+03 -0.55748973901E+02  0.48416052157E+03  0.40000000000E+03 0.  1.
<mgrwt>
<rscale>  2 0.48094019E+03</rscale>
<asrwt>0</asrwt>
<pdfrwt beam="1">  1       21 0.96318566E-01 0.48094019E+03</pdfrwt>
<pdfrwt beam="2">  1       21 0.63131512E-01 0.48094019E+03</pdfrwt>
<totfact> 0.17722390E+03</totfact>
</mgrwt>
</event>
<event>
 4    1  0.5003329E-002  0.4201243E+03  0.7818608E-02  0.1037026E+00
         21   -1    0    0  501  502  0.00000000000E+00  0.00000000000E+00  0.22641472014E+04  0.22641472014E+04  0.00000000000E+00 0. -1.
         21   -1    0    0  502  503 -0.00000000000E+00 -0.00000000000E+00 -0.15569786103E+03  0.15569786103E+03  0.00000000000E+00 0. -1.
    9000007    1    1    2  501    0 -0.98517995511E+02  0.82453703765E+02  0.19091792236E+04  0.19548579786E+04  0.40000000000E+03 0. -1.
   -9000007    1    1    2    0  503  0.98517995511E+02 -0.82453703765E+02  0.19927011680E+03  0.46498708386E+03  0.40000000000E+03 0. -1.
<mgrwt>
<rscale>  2 0.42012428E+03</rscale>
<asrwt>0</asrwt>
<pdfrwt beam="1">  1       21 0.34833032E+00 0.42012428E+03</pdfrwt>
<pdfrwt beam="2">  1       21 0.23953519E-01 0.42012428E+03</pdfrwt>
<totfact> 0.23198134E+02</totfact>
</mgrwt>
</event>
<event>
 4    1  0.5003329E-002  0.5587292E+03  0.7818608E-02  0.9994934E-01
         21   -1    0    0  503  502  0.00000000000E+00  0.00000000000E+00  0.29450060908E+03  0.29450060908E+03  0.00000000000E+00 0.  1.
         21   -1    0    0  501  503 -0.00000000000E+00 -0.00000000000E+00 -0.18250435116E+04  0.18250435116E+04  0.00000000000E+00 0.  1.
    9000007    1    1    2  501    0 -0.37783483993E+03  0.97052376476E+02 -0.79133382300E+02  0.56430525626E+03  0.40000000000E+03 0.  1.
   -9000007    1    1    2    0  502  0.37783483993E+03 -0.97052376476E+02 -0.14514095202E+04  0.15552388644E+04  0.40000000000E+03 0.  1.
<mgrwt>
<rscale>  2 0.55872921E+03</rscale>
<asrwt>0</asrwt>
<pdfrwt beam="1">  1       21 0.45307786E-01 0.55872921E+03</pdfrwt>
<pdfrwt beam="2">  1       21 0.28077592E+00 0.55872921E+03</pdfrwt>
<totfact> 0.15237307E+02</totfact>
</mgrwt>
</event>
<event>
 4    1  0.5003329E-002  0.4988475E+03  0.7818608E-02  0.1014080E+00
         21   -1    0    0  501  502  0.00000000000E+00  0.00000000000E+00  0.79402129615E+03  0.79402129615E+03  0.00000000000E+00 0.  1.
         21   -1    0    0  502  503 -0.00000000000E+00 -0.00000000000E+00 -0.31796276809E+03  0.31796276809E+03  0.00000000000E+00 0.  1.
    9000007    1    1    2  501    0  0.29748345060E+03  0.18772477731E+02  0.30460908652E+03  0.58449594086E+03  0.40000000000E+03 0.  1.
   -9000007    1    1    2    0  503 -0.29748345060E+03 -0.18772477731E+02  0.17144944154E+03  0.52748812338E+03  0.40000000000E+03 0.  1.
<mgrwt>
<rscale>  2 0.49884748E+03</rscale>
<asrwt>0</asrwt>
<pdfrwt beam="1">  1       21 0.12215712E+00 0.49884748E+03</pdfrwt>
<pdfrwt beam="2">  1       21 0.48917349E-01 0.49884748E+03</pdfrwt>
<totfact> 0.16972958E+03</totfact>
</mgrwt>
</event>
<event>
 4    1  0.5003329E-002  0.4174962E+03  0.7818608E-02  0.1037884E+00
         21   -1    0    0  501  502  0.00000000000E+00  0.00000000000E+00  0.31452065185E+03  0.31452065185E+03  0.00000000000E+00 0.  1.
         21   -1    0    0  502  503 -0.00000000000E+00 -0.00000000000E+00 -0.14308643855E+04  0.14308643855E+04  0.00000000000E+00 0. -1.
    9000007    1    1    2  501    0 -0.83347097485E+02 -0.85768976128E+02  0.12492465762E+03  0.43578575700E+03  0.40000000000E+03 0.  1.
   -9000007    1    1    2    0  503  0.83347097485E+02  0.85768976128E+02 -0.12412683913E+04  0.13095992804E+04  0.40000000000E+03 0. -1.
<mgrwt>
<rscale>  2 0.41749617E+03</rscale>
<asrwt>0</asrwt>
<pdfrwt beam="1">  1       21 0.48387793E-01 0.41749617E+03</pdfrwt>
<pdfrwt beam="2">  1       21 0.22013298E+00 0.41749617E+03</pdfrwt>
<totfact> 0.33851649E+02</totfact>
</mgrwt>
</event>
<event>
 4    1  0.5003329E-002  0.4190598E+03  0.7818608E-02  0.1037373E+00
         21   -1    0    0  501  502  0.00000000000E+00  0.00000000000E+00  0.16314535953E+03  0.16314535953E+03  0.00000000000E+00 0. -1.
         21   -1    0    0  502  503 -0.00000000000E+00 -0.00000000000E+00 -0.14957526352E+04  0.14957526352E+04  0.00000000000E+00 0. -1.
    9000007    1    1    2  501    0 -0.76945494877E+02  0.98440450086E+02 -0.22712133450E+03  0.47665000994E+03  0.40000000000E+03 0. -1.
   -9000007    1    1    2    0  503  0.76945494877E+02 -0.98440450086E+02 -0.11054859412E+04  0.11822479848E+04  0.40000000000E+03 0. -1.
<mgrwt>
<rscale>  2 0.41905982E+03</rscale>
<asrwt>0</asrwt>
<pdfrwt beam="1">  1       21 0.25099287E-01 0.41905982E+03</pdfrwt>
<pdfrwt beam="2">  1       21 0.23011578E+00 0.41905982E+03</pdfrwt>
<totfact> 0.11036674E+03</totfact>
</mgrwt>
</event>
<event>
 4    1  0.5003329E-002  0.4450304E+03  0.7818608E-02  0.1029214E+00
         21   -1    0    0  503  502  0.00000000000E+00  0.00000000000E+00  0.83333562751E+03  0.83333562751E+03  0.00000000000E+00 0. -1.
         21   -1    0    0  501  503 -0.00000000000E+00 -0.00000000000E+00 -0.49052388601E+03  0.49052388601E+03  0.00000000000E+00 0. -1.
    9000007    1    1    2  501    0  0.68459114952E+02 -0.18266192558E+03 -0.30384585153E+03  0.53886392621E+03  0.40000000000E+03 0. -1.
   -9000007    1    1    2    0  502 -0.68459114952E+02  0.18266192558E+03  0.64665759303E+03  0.78499558731E+03  0.40000000000E+03 0. -1.
<mgrwt>
<rscale>  2 0.44503037E+03</rscale>
<asrwt>0</asrwt>
<pdfrwt beam="1">  1       21 0.12820548E+00 0.44503037E+03</pdfrwt>
<pdfrwt beam="2">  1       21 0.75465213E-01 0.44503037E+03</pdfrwt>
<totfact> 0.58993836E+02</totfact>
</mgrwt>
</event>
<event>
 4    1  0.5003329E-002  0.4567798E+03  0.7818608E-02  0.1025719E+00
         21   -1    0    0  501  502  0.00000000000E+00  0.00000000000E+00  0.12250897645E+04  0.12250897645E+04  0.00000000000E+00 0.  1.
         21   -1    0    0  502  503 -0.00000000000E+00 -0.00000000000E+00 -0.29738320580E+03  0.29738320580E+03  0.00000000000E+00 0.  1.
    9000007    1    1    2  501    0 -0.17842792793E+03  0.12965830016E+03  0.96145802758E+03  0.10644479034E+04  0.40000000000E+03 0.  1.
   -9000007    1    1    2    0  503  0.17842792793E+03 -0.12965830016E+03 -0.33751468865E+02  0.45802506691E+03  0.40000000000E+03 0.  1.
<mgrwt>
<rscale>  2 0.45677982E+03</rscale>
<asrwt>0</asrwt>
<pdfrwt beam="1">  1       21 0.18847535E+00 0.45677982E+03</pdfrwt>
<pdfrwt beam="2">  1       21 0.45751263E-01 0.45677982E+03</pdfrwt>
<totfact> 0.60417070E+02</totfact>
</mgrwt>
</event>
<event>
 4    1  0.5003329E-002  0.4440881E+03  0.7818608E-02  0.1029500E+00
         21   -1    0    0  501  502  0.00000000000E+00  0.00000000000E+00  0.70263694173E+03  0.70263694173E+03  0.00000000000E+00 0. -1.
         21   -1    0    0  502  503 -0.00000000000E+00 -0.00000000000E+00 -0.30871064409E+03  0.30871064409E+03  0.00000000000E+00 0. -1.
    9000007    1    1    2  501    0 -0.19286883736E+03 -0.39770580724E+01  0.44581567475E+02  0.44632020072E+03  0.40000000000E+03 0.  1.
   -9000007    1    1    2    0  503  0.19286883736E+03  0.39770580724E+01  0.34934473016E+03  0.56502738509E+03  0.40000000000E+03 0.  1.
<mgrwt>
<rscale>  2 0.44408806E+03</rscale>
<asrwt>0</asrwt>
<pdfrwt beam="1">  1       21 0.10809799E+00 0.44408806E+03</pdfrwt>
<pdfrwt beam="2">  1       21 0.47493945E-01 0.44408806E+03</pdfrwt>
<totfact> 0.25056468E+03</totfact>
</mgrwt>
</event>
<event>
 4    1  0.5003329E-002  0.4255590E+03  0.7818608E-02  0.1035272E+00
         21   -1    0    0  501  502  0.00000000000E+00  0.00000000000E+00  0.61356166059E+03  0.61356166059E+03  0.00000000000E+00 0. -1.
         21   -1    0    0  502  503 -0.00000000000E+00 -0.00000000000E+00 -0.52610836572E+03  0.52610836572E+03  0.00000000000E+00 0. -1.
    9000007    1    1    2  501    0 -0.10473849630E+03  0.10064932945E+03  0.42126975979E+03  0.59880602088E+03  0.40000000000E+03 0. -1.
   -9000007    1    1    2    0  503  0.10473849630E+03 -0.10064932945E+03 -0.33381646492E+03  0.54086400544E+03  0.40000000000E+03 0. -1.
<mgrwt>
<rscale>  2 0.42555897E+03</rscale>
<asrwt>0</asrwt>
<pdfrwt beam="1">  1       21 0.94394102E-01 0.42555897E+03</pdfrwt>
<pdfrwt beam="2">  1       21 0.80939748E-01 0.42555897E+03</pdfrwt>
<totfact> 0.10837603E+03</totfact>
</mgrwt>
</event>
<event>
 4    1  0.5003329E-002  0.4705070E+03  0.7818608E-02  0.1021777E+00
         21   -1    0    0  501  502  0.00000000000E+00  0.00000000000E+00  0.29889818486E+03  0.29889818486E+03  0.00000000000E+00 0. -1.
         21   -1    0    0  502  503 -0.00000000000E+00 -0.00000000000E+00 -0.10369032754E+04  0.10369032754E+04  0.00000000000E+00 0. -1.
    9000007    1    1    2  501    0 -0.18647984831E+03  0.16310165326E+03 -0.11993334598E+02  0.47065988059E+03  0.40000000000E+03 0. -1.
   -9000007    1    1    2    0  503  0.18647984831E+03 -0.16310165326E+03 -0.72601175596E+03  0.86514157970E+03  0.40000000000E+03 0. -1.
<mgrwt>
<rscale>  2 0.47050705E+03</rscale>
<asrwt>0</asrwt>
<pdfrwt beam="1">  1       21 0.45984336E-01 0.47050705E+03</pdfrwt>
<pdfrwt beam="2">  1       21 0.15952358E+00 0.47050705E+03</pdfrwt>
<totfact> 0.96039243E+02</totfact>
</mgrwt>
</event>
<event>
 4    1  0.5003329E-002  0.4897924E+03  0.7818608E-02  0.1016478E+00
         21   -1    0    0  501  502  0.00000000000E+00  0.00000000000E+00  0.89602540448E+03  0.89602540448E+03  0.00000000000E+00 0.  1.
         21   -1    0    0  502  503 -0.00000000000E+00 -0.00000000000E+00 -0.27293616379E+03  0.27293616379E+03  0.00000000000E+00 0.  1.
    9000007    1    1    2  501    0 -0.27919419871E+03  0.44127261406E+02  0.23085369201E+03  0.54147026041E+03  0.40000000000E+03 0.  1.
   -9000007    1    1    2    0  503  0.27919419871E+03 -0.44127261406E+02  0.39223554868E+03  0.62749130786E+03  0.40000000000E+03 0.  1.
<mgrwt>
<rscale>  2 0.48979242E+03</rscale>
<asrwt>0</asrwt>
<pdfrwt beam="1">  1       21 0.13785006E+00 0.48979242E+03</pdfrwt>
<pdfrwt beam="2">  1       21 0.41990179E-01 0.48979242E+03</pdfrwt>
<totfact> 0.17135719E+03</totfact>
</mgrwt>
</event>
<event>
 4    1  0.5003329E-002  0.5776577E+03  0.7818608E-02  0.9952875E-01
         21   -1    0    0  501  502  0.00000000000E+00  0.00000000000E+00  0.16976423095E+04  0.16976423095E+04  0.00000000000E+00 0.  1.
         21   -1    0    0  502  503 -0.00000000000E+00 -0.00000000000E+00 -0.28273805196E+03  0.28273805196E+03  0.00000000000E+00 0.  1.
    9000007    1    1    2  501    0  0.51478277906E+02  0.41356790119E+03  0.12541218804E+04  0.13807643220E+04  0.40000000000E+03 0.  1.
   -9000007    1    1    2    0  503 -0.51478277906E+02 -0.41356790119E+03  0.16078237715E+03  0.59961603947E+03  0.40000000000E+03 0.  1.
<mgrwt>
<rscale>  2 0.57765770E+03</rscale>
<asrwt>0</asrwt>
<pdfrwt beam="1">  1       21 0.26117573E+00 0.57765770E+03</pdfrwt>
<pdfrwt beam="2">  1       21 0.43498163E-01 0.57765770E+03</pdfrwt>
<totfact> 0.21685620E+02</totfact>
</mgrwt>
</event>
<event>
 4    1  0.5003329E-002  0.4173750E+03  0.7818608E-02  0.1037924E+00
         21   -1    0    0  501  502  0.00000000000E+00  0.00000000000E+00  0.12368248061E+04  0.12368248061E+04  0.00000000000E+00 0. -1.
         21   -1    0    0  502  503 -0.00000000000E+00 -0.00000000000E+00 -0.24983406869E+03  0.24983406869E+03  0.00000000000E+00 0. -1.
    9000007    1    1    2  501    0  0.10934107269E+03 -0.47396770927E+02  0.98445391363E+03  0.10692761253E+04  0.40000000000E+03 0. -1.
   -9000007    1    1    2    0  503 -0.10934107269E+03  0.47396770927E+02  0.25368237550E+01  0.41738274946E+03  0.40000000000E+03 0. -1.
<mgrwt>
<rscale>  2 0.41737504E+03</rscale>
<asrwt>0</asrwt>
<pdfrwt beam="1">  1       21 0.19028074E+00 0.41737504E+03</pdfrwt>
<pdfrwt beam="2">  1       21 0.38436011E-01 0.41737504E+03</pdfrwt>
<totfact> 0.85876392E+02</totfact>
</mgrwt>
</event>
<event>
 4    1  0.5003329E-002  0.5824231E+03  0.7818608E-02  0.9942559E-01
         21   -1    0    0  503  502  0.00000000000E+00  0.00000000000E+00  0.12385551267E+04  0.12385551267E+04  0.00000000000E+00 0.  1.
         21   -1    0    0  501  503 -0.00000000000E+00 -0.00000000000E+00 -0.27443961918E+03  0.27443961918E+03  0.00000000000E+00 0. -1.
    9000007    1    1    2  501    0  0.25599527891E+03  0.33716919569E+03  0.51618985781E+03  0.77824714497E+03  0.40000000000E+03 0. -1.
   -9000007    1    1    2    0  502 -0.25599527891E+03 -0.33716919569E+03  0.44792564967E+03  0.73474760086E+03  0.40000000000E+03 0. -1.
<mgrwt>
<rscale>  2 0.58242308E+03</rscale>
<asrwt>0</asrwt>
<pdfrwt beam="1">  1       21 0.19054694E+00 0.58242308E+03</pdfrwt>
<pdfrwt beam="2">  1       21 0.42221480E-01 0.58242308E+03</pdfrwt>
<totfact> 0.65710804E+02</totfact>
</mgrwt>
</event>
<event>
 4    1  0.5003329E-002  0.4692291E+03  0.7818608E-02  0.1022138E+00
         21   -1    0    0  503  502  0.00000000000E+00  0.00000000000E+00  0.10552396256E+04  0.10552396256E+04  0.00000000000E+00 0. -1.
         21   -1    0    0  501  503 -0.00000000000E+00 -0.00000000000E+00 -0.43334567168E+03  0.43334567168E+03  0.00000000000E+00 0. -1.
    9000007    1    1    2  501    0  0.97778607173E+02 -0.22497852553E+03 -0.22500222281E+03  0.52038638841E+03  0.40000000000E+03 0. -1.
   -9000007    1    1    2    0  502 -0.97778607173E+02  0.22497852553E+03  0.84689617669E+03  0.96819890883E+03  0.40000000000E+03 0. -1.
<mgrwt>
<rscale>  2 0.46922915E+03</rscale>
<asrwt>0</asrwt>
<pdfrwt beam="1">  1       21 0.16234456E+00 0.46922915E+03</pdfrwt>
<pdfrwt beam="2">  1       21 0.66668565E-01 0.46922915E+03</pdfrwt>
<totfact> 0.40932914E+02</totfact>
</mgrwt>
</event>
<event>
 4    1  0.5003329E-002  0.5119260E+03  0.7818608E-02  0.1010712E+00
         21   -1    0    0  503  502  0.00000000000E+00  0.00000000000E+00  0.38477878188E+03  0.38477878188E+03  0.00000000000E+00 0.  1.
         21   -1    0    0  501  503 -0.00000000000E+00 -0.00000000000E+00 -0.75019457670E+03  0.75019457670E+03  0.00000000000E+00 0.  1.
    9000007    1    1    2  501    0  0.24923852509E+03  0.19987102062E+03 -0.35494548819E+03  0.62294025946E+03  0.40000000000E+03 0.  1.
   -9000007    1    1    2    0  502 -0.24923852509E+03 -0.19987102062E+03 -0.10470306629E+02  0.51203309912E+03  0.40000000000E+03 0.  1.
<mgrwt>
<rscale>  2 0.51192604E+03</rscale>
<asrwt>0</asrwt>
<pdfrwt beam="1">  1       21 0.59196736E-01 0.51192604E+03</pdfrwt>
<pdfrwt beam="2">  1       21 0.11541455E+00 0.51192604E+03</pdfrwt>
<totfact> 0.12932530E+03</totfact>
</mgrwt>
</event>
<event>
 4    1  0.5003329E-002  0.4001725E+03  0.7818608E-02  0.1043720E+00
         21   -1    0    0  503  502  0.00000000000E+00  0.00000000000E+00  0.70112287137E+03  0.70112287137E+03  0.00000000000E+00 0.  1.
         21   -1    0    0  501  503 -0.00000000000E+00 -0.00000000000E+00 -0.38684227736E+03  0.38684227736E+03  0.00000000000E+00 0.  1.
    9000007    1    1    2  501    0 -0.11006712623E+02 -0.41102926396E+01 -0.19099693738E+03  0.44341613899E+03  0.40000000000E+03 0.  1.
   -9000007    1    1    2    0  502  0.11006712623E+02  0.41102926396E+01  0.50527753139E+03  0.64454900974E+03  0.40000000000E+03 0.  1.
<mgrwt>
<rscale>  2 0.40017252E+03</rscale>
<asrwt>0</asrwt>
<pdfrwt beam="1">  1       21 0.10786506E+00 0.40017252E+03</pdfrwt>
<pdfrwt beam="2">  1       21 0.59514196E-01 0.40017252E+03</pdfrwt>
<totfact> 0.15805553E+03</totfact>
</mgrwt>
</event>
<event>
 4    1  0.5003329E-002  0.5905171E+03  0.7818608E-02  0.9925278E-01
         21   -1    0    0  503  502  0.00000000000E+00  0.00000000000E+00  0.61807989481E+03  0.61807989481E+03  0.00000000000E+00 0. -1.
         21   -1    0    0  501  503 -0.00000000000E+00 -0.00000000000E+00 -0.60990930877E+03  0.60990930877E+03  0.00000000000E+00 0.  1.
    9000007    1    1    2  501    0  0.39066794140E+03  0.18997119291E+03 -0.16403204123E+03  0.61287601121E+03  0.40000000000E+03 0.  1.
   -9000007    1    1    2    0  502 -0.39066794140E+03 -0.18997119291E+03  0.17220262727E+03  0.61511319236E+03  0.40000000000E+03 0. -1.
<mgrwt>
<rscale>  2 0.59051714E+03</rscale>
<asrwt>0</asrwt>
<pdfrwt beam="1">  1       21 0.95089214E-01 0.59051714E+03</pdfrwt>
<pdfrwt beam="2">  1       21 0.93832202E-01 0.59051714E+03</pdfrwt>
<totfact> 0.70666843E+02</totfact>
</mgrwt>
</event>
<event>
 4    1  0.5003329E-002  0.4318306E+03  0.7818608E-02  0.1033283E+00
         21   -1    0    0  503  502  0.00000000000E+00  0.00000000000E+00  0.23202828885E+03  0.23202828885E+03  0.00000000000E+00 0. -1.
         21   -1    0    0  501  503 -0.00000000000E+00 -0.00000000000E+00 -0.16149349086E+04  0.16149349086E+04  0.00000000000E+00 0. -1.
    9000007    1    1    2  501    0 -0.26514456468E+02  0.16054483421E+03 -0.13459810534E+04  0.14135567397E+04  0.40000000000E+03 0. -1.
   -9000007    1    1    2    0  502  0.26514456468E+02 -0.16054483421E+03 -0.36925566361E+02  0.43340645778E+03  0.40000000000E+03 0. -1.
<mgrwt>
<rscale>  2 0.43183059E+03</rscale>
<asrwt>0</asrwt>
<pdfrwt beam="1">  1       21 0.35696661E-01 0.43183059E+03</pdfrwt>
<pdfrwt beam="2">  1       21 0.24845152E+00 0.43183059E+03</pdfrwt>
<totfact> 0.41942488E+02</totfact>
</mgrwt>
</event>
<event>
 4    1  0.5003329E-002  0.4290901E+03  0.7818608E-02  0.1034148E+00
         21   -1    0    0  501  502  0.00000000000E+00  0.00000000000E+00  0.10303864500E+04  0.10303864500E+04  0.00000000000E+00 0.  1.
         21   -1    0    0  502  503 -0.00000000000E+00 -0.00000000000E+00 -0.30301960412E+03  0.30301960412E+03  0.00000000000E+00 0.  1.
    9000007    1    1    2  501    0 -0.15283443243E+03  0.27566987737E+02  0.79074136283E+03  0.89966116146E+03  0.40000000000E+03 0.  1.
   -9000007    1    1    2    0  503  0.15283443243E+03 -0.27566987737E+02 -0.63374516915E+02  0.43374489270E+03  0.40000000000E+03 0.  1.
<mgrwt>
<rscale>  2 0.42909009E+03</rscale>
<asrwt>0</asrwt>
<pdfrwt beam="1">  1       21 0.15852099E+00 0.42909009E+03</pdfrwt>
<pdfrwt beam="2">  1       21 0.46618401E-01 0.42909009E+03</pdfrwt>
<totfact> 0.96695583E+02</totfact>
</mgrwt>
</event>
<event>
 4    1  0.5003329E-002  0.4366804E+03  0.7818608E-02  0.1031770E+00
         21   -1    0    0  501  502  0.00000000000E+00  0.00000000000E+00  0.25613524710E+03  0.25613524710E+03  0.00000000000E+00 0.  1.
         21   -1    0    0  502  503 -0.00000000000E+00 -0.00000000000E+00 -0.99575708241E+03  0.99575708241E+03  0.00000000000E+00 0. -1.
    9000007    1    1    2  501    0 -0.70209477775E+02  0.16050040287E+03 -0.55377018334E+02  0.44017765078E+03  0.40000000000E+03 0.  1.
   -9000007    1    1    2    0  503  0.70209477775E+02 -0.16050040287E+03 -0.68424481698E+03  0.81171467872E+03  0.40000000000E+03 0. -1.
<mgrwt>
<rscale>  2 0.43668038E+03</rscale>
<asrwt>0</asrwt>
<pdfrwt beam="1">  1       21 0.39405423E-01 0.43668038E+03</pdfrwt>
<pdfrwt beam="2">  1       21 0.15319340E+00 0.43668038E+03</pdfrwt>
<totfact> 0.15017403E+03</totfact>
</mgrwt>
</event>
<event>
 4    1  0.5003329E-002  0.4015177E+03  0.7818608E-02  0.1043255E+00
         21   -1    0    0  503  502  0.00000000000E+00  0.00000000000E+00  0.16617815318E+03  0.16617815318E+03  0.00000000000E+00 0. -1.
         21   -1    0    0  501  503 -0.00000000000E+00 -0.00000000000E+00 -0.11094151511E+04  0.11094151511E+04  0.00000000000E+00 0. -1.
    9000007    1    1    2  501    0  0.16977161888E+02  0.30466558355E+02 -0.24563922203E+03  0.47069635924E+03  0.40000000000E+03 0. -1.
   -9000007    1    1    2    0  502 -0.16977161888E+02 -0.30466558355E+02 -0.69759777585E+03  0.80489694500E+03  0.40000000000E+03 0. -1.
<mgrwt>
<rscale>  2 0.40151766E+03</rscale>
<asrwt>0</asrwt>
<pdfrwt beam="1">  1       21 0.25565870E-01 0.40151766E+03</pdfrwt>
<pdfrwt beam="2">  1       21 0.17067925E+00 0.40151766E+03</pdfrwt>
<totfact> 0.26773596E+03</totfact>
</mgrwt>
</event>
<event>
 4    1  0.5003329E-002  0.6649572E+03  0.7818608E-02  0.9779111E-01
         21   -1    0    0  503  502  0.00000000000E+00  0.00000000000E+00  0.41845397792E+03  0.41845397792E+03  0.00000000000E+00 0.  1.
         21   -1    0    0  501  503 -0.00000000000E+00 -0.00000000000E+00 -0.11778608047E+04  0.11778608047E+04  0.00000000000E+00 0. -1.
    9000007    1    1    2  501    0 -0.52795479078E+03  0.58581721675E+02 -0.63572409124E+03  0.91995282456E+03  0.40000000000E+03 0. -1.
   -9000007    1    1    2    0  502  0.52795479078E+03 -0.58581721675E+02 -0.12368273552E+03  0.67636195804E+03  0.40000000000E+03 0.  1.
<mgrwt>
<rscale>  2 0.66495720E+03</rscale>
<asrwt>0</asrwt>
<pdfrwt beam="1">  1       21 0.64377537E-01 0.66495720E+03</pdfrwt>
<pdfrwt beam="2">  1       21 0.18120935E+00 0.66495720E+03</pdfrwt>
<totfact> 0.29885405E+02</totfact>
</mgrwt>
</event>
<event>
 4    1  0.5003329E-002  0.5009205E+03  0.7818608E-02  0.1013539E+00
         21   -1    0    0  503  502  0.00000000000E+00  0.00000000000E+00  0.19263201589E+03  0.19263201589E+03  0.00000000000E+00 0.  1.
         21   -1    0    0  501  503 -0.00000000000E+00 -0.00000000000E+00 -0.13137557023E+04  0.13137557023E+04  0.00000000000E+00 0.  1.
    9000007    1    1    2  501    0 -0.19050778641E+03  0.23372668588E+03 -0.62998548344E+03  0.80486215573E+03  0.40000000000E+03 0.  1.
   -9000007    1    1    2    0  502  0.19050778641E+03 -0.23372668588E+03 -0.49113820298E+03  0.70152556247E+03  0.40000000000E+03 0.  1.
<mgrwt>
<rscale>  2 0.50092053E+03</rscale>
<asrwt>0</asrwt>
<pdfrwt beam="1">  1       21 0.29635695E-01 0.50092053E+03</pdfrwt>
<pdfrwt beam="2">  1       21 0.20211626E+00 0.50092053E+03</pdfrwt>
<totfact> 0.11626227E+03</totfact>
</mgrwt>
</event>
<event>
 4    1  0.5003329E-002  0.5284330E+03  0.7818608E-02  0.1006613E+00
         21   -1    0    0  503  502  0.00000000000E+00  0.00000000000E+00  0.60057862084E+03  0.60057862084E+03  0.00000000000E+00 0. -1.
         21   -1    0    0  501  503 -0.00000000000E+00 -0.00000000000E+00 -0.47030238948E+03  0.47030238948E+03  0.00000000000E+00 0. -1.
    9000007    1    1    2  501    0  0.23496780614E+03 -0.25304468254E+03  0.80388115504E+01  0.52849418518E+03  0.40000000000E+03 0. -1.
   -9000007    1    1    2    0  502 -0.23496780614E+03  0.25304468254E+03  0.12223741981E+03  0.54238682514E+03  0.40000000000E+03 0. -1.
<mgrwt>
<rscale>  2 0.52843304E+03</rscale>
<asrwt>0</asrwt>
<pdfrwt beam="1">  1       21 0.92396711E-01 0.52843304E+03</pdfrwt>
<pdfrwt beam="2">  1       21 0.72354214E-01 0.52843304E+03</pdfrwt>
<totfact> 0.14188243E+03</totfact>
</mgrwt>
</event>
<event>
 4    1  0.5003329E-002  0.4100281E+03  0.7818608E-02  0.1040362E+00
         21   -1    0    0  501  502  0.00000000000E+00  0.00000000000E+00  0.72582558021E+03  0.72582558021E+03  0.00000000000E+00 0. -1.
         21   -1    0    0  502  503 -0.00000000000E+00 -0.00000000000E+00 -0.49027850560E+03  0.49027850560E+03  0.00000000000E+00 0. -1.
    9000007    1    1    2  501    0 -0.10705522393E+01 -0.90121400241E+02  0.55941950831E+03  0.69359440535E+03  0.40000000000E+03 0. -1.
   -9000007    1    1    2    0  503  0.10705522393E+01  0.90121400241E+02 -0.32387243369E+03  0.52250968045E+03  0.40000000000E+03 0. -1.
<mgrwt>
<rscale>  2 0.41002806E+03</rscale>
<asrwt>0</asrwt>
<pdfrwt beam="1">  1       21 0.11166547E+00 0.41002806E+03</pdfrwt>
<pdfrwt beam="2">  1       21 0.75427462E-01 0.41002806E+03</pdfrwt>
<totfact> 0.85153481E+02</totfact>
</mgrwt>
</event>
<event>
 4    1  0.5003329E-002  0.4267358E+03  0.7818608E-02  0.1034896E+00
         21   -1    0    0  503  502  0.00000000000E+00  0.00000000000E+00  0.24836574653E+03  0.24836574653E+03  0.00000000000E+00 0. -1.
         21   -1    0    0  501  503 -0.00000000000E+00 -0.00000000000E+00 -0.76183907458E+03  0.76183907458E+03  0.00000000000E+00 0. -1.
    9000007    1    1    2  501    0  0.47100867842E+02 -0.14101403636E+03 -0.35465767028E+03  0.55487432207E+03  0.40000000000E+03 0. -1.
   -9000007    1    1    2    0  502 -0.47100867842E+02  0.14101403636E+03 -0.15881565777E+03  0.45533049904E+03  0.40000000000E+03 0. -1.
<mgrwt>
<rscale>  2 0.42673581E+03</rscale>
<asrwt>0</asrwt>
<pdfrwt beam="1">  1       21 0.38210115E-01 0.42673581E+03</pdfrwt>
<pdfrwt beam="2">  1       21 0.11720601E+00 0.42673581E+03</pdfrwt>
<totfact> 0.32397836E+03</totfact>
</mgrwt>
</event>
<event>
 4    1  0.5003329E-002  0.4115325E+03  0.7818608E-02  0.1039858E+00
         21   -1    0    0  503  502  0.00000000000E+00  0.00000000000E+00  0.12572351238E+03  0.12572351238E+03  0.00000000000E+00 0. -1.
         21   -1    0    0  501  503 -0.00000000000E+00 -0.00000000000E+00 -0.16157516252E+04  0.16157516252E+04  0.00000000000E+00 0. -1.
    9000007    1    1    2  501    0 -0.39852824981E+02 -0.88151700594E+02 -0.11000849886E+04  0.11745407409E+04  0.40000000000E+03 0. -1.
   -9000007    1    1    2    0  502  0.39852824981E+02  0.88151700594E+02 -0.38994312427E+03  0.56693439668E+03  0.40000000000E+03 0. -1.
<mgrwt>
<rscale>  2 0.41153247E+03</rscale>
<asrwt>0</asrwt>
<pdfrwt beam="1">  1       21 0.19342079E-01 0.41153247E+03</pdfrwt>
<pdfrwt beam="2">  1       21 0.24857717E+00 0.41153247E+03</pdfrwt>
<totfact> 0.14036572E+03</totfact>
</mgrwt>
</event>
<event>
 4    1  0.5003329E-002  0.4437586E+03  0.7818608E-02  0.1029600E+00
         21   -1    0    0  501  502  0.00000000000E+00  0.00000000000E+00  0.59671447696E+03  0.59671447696E+03  0.00000000000E+00 0.  1.
         21   -1    0    0  502  503 -0.00000000000E+00 -0.00000000000E+00 -0.34209871859E+03  0.34209871859E+03  0.00000000000E+00 0.  1.
    9000007    1    1    2  501    0  0.19028936988E+03  0.26676920053E+02  0.39068007113E+02  0.44547504030E+03  0.40000000000E+03 0. -1.
   -9000007    1    1    2    0  503 -0.19028936988E+03 -0.26676920053E+02  0.21554775125E+03  0.49333815525E+03  0.40000000000E+03 0. -1.
<mgrwt>
<rscale>  2 0.44375861E+03</rscale>
<asrwt>0</asrwt>
<pdfrwt beam="1">  1       21 0.91802227E-01 0.44375861E+03</pdfrwt>
<pdfrwt beam="2">  1       21 0.52630572E-01 0.44375861E+03</pdfrwt>
<totfact> 0.29945684E+03</totfact>
</mgrwt>
</event>
<event>
 4    1  0.5003329E-002  0.4329045E+03  0.7818608E-02  0.1032946E+00
         21   -1    0    0  501  502  0.00000000000E+00  0.00000000000E+00  0.54903975115E+03  0.54903975115E+03  0.00000000000E+00 0.  1.
         21   -1    0    0  502  503 -0.00000000000E+00 -0.00000000000E+00 -0.35629777972E+03  0.35629777972E+03  0.00000000000E+00 0.  1.
    9000007    1    1    2  501    0 -0.10466135657E+03 -0.12826656560E+03  0.18913609480E+03  0.47241800745E+03  0.40000000000E+03 0.  1.
   -9000007    1    1    2    0  503  0.10466135657E+03  0.12826656560E+03  0.36058766265E+01  0.43291952342E+03  0.40000000000E+03 0.  1.
<mgrwt>
<rscale>  2 0.43290451E+03</rscale>
<asrwt>0</asrwt>
<pdfrwt beam="1">  1       21 0.84467654E-01 0.43290451E+03</pdfrwt>
<pdfrwt beam="2">  1       21 0.54815043E-01 0.43290451E+03</pdfrwt>
<totfact> 0.33517845E+03</totfact>
</mgrwt>
</event>
<event>
 4    1  0.5003329E-002  0.4171825E+03  0.7818608E-02  0.1037987E+00
         21   -1    0    0  501  502  0.00000000000E+00  0.00000000000E+00  0.19484601522E+03  0.19484601522E+03  0.00000000000E+00 0. -1.
         21   -1    0    0  502  503 -0.00000000000E+00 -0.00000000000E+00 -0.93459804529E+03  0.93459804529E+03  0.00000000000E+00 0. -1.
    9000007    1    1    2  501    0  0.10541082938E+03 -0.54127912238E+02 -0.48869411569E+03  0.64254432730E+03  0.40000000000E+03 0. -1.
   -9000007    1    1    2    0  503 -0.10541082938E+03  0.54127912238E+02 -0.25105791438E+03  0.48689973322E+03  0.40000000000E+03 0. -1.
<mgrwt>
<rscale>  2 0.41718254E+03</rscale>
<asrwt>0</asrwt>
<pdfrwt beam="1">  1       21 0.29976310E-01 0.41718254E+03</pdfrwt>
<pdfrwt beam="2">  1       21 0.14378431E+00 0.41718254E+03</pdfrwt>
<totfact> 0.31195516E+03</totfact>
</mgrwt>
</event>
<event>
 4    1  0.5003329E-002  0.4833208E+03  0.7818608E-02  0.1018227E+00
         21   -1    0    0  503  502  0.00000000000E+00  0.00000000000E+00  0.39383747806E+03  0.39383747806E+03  0.00000000000E+00 0. -1.
         21   -1    0    0  501  503 -0.00000000000E+00 -0.00000000000E+00 -0.13550699554E+04  0.13550699554E+04  0.00000000000E+00 0. -1.
    9000007    1    1    2  501    0  0.10632568272E+03 -0.24958729801E+03 -0.11363307432E+04  0.12348467630E+04  0.40000000000E+03 0. -1.
   -9000007    1    1    2    0  502 -0.10632568272E+03  0.24958729801E+03  0.17509826592E+03  0.51406067041E+03  0.40000000000E+03 0. -1.
<mgrwt>
<rscale>  2 0.48332077E+03</rscale>
<asrwt>0</asrwt>
<pdfrwt beam="1">  1       21 0.60590381E-01 0.48332077E+03</pdfrwt>
<pdfrwt beam="2">  1       21 0.20847230E+00 0.48332077E+03</pdfrwt>
<totfact> 0.23955298E+02</totfact>
</mgrwt>
</event>
<event>
 4    1  0.5003329E-002  0.4283145E+03  0.7818608E-02  0.1034394E+00
         21   -1    0    0  501  502  0.00000000000E+00  0.00000000000E+00  0.10008135641E+04  0.10008135641E+04  0.00000000000E+00 0. -1.
         21   -1    0    0  502  503 -0.00000000000E+00 -0.00000000000E+00 -0.10159000526E+04  0.10159000526E+04  0.00000000000E+00 0. -1.
    9000007    1    1    2  501    0  0.38313435402E+02 -0.14827478286E+03  0.90532030277E+03  0.10015279233E+04  0.40000000000E+03 0. -1.
   -9000007    1    1    2    0  503 -0.38313435402E+02  0.14827478286E+03 -0.92040679130E+03  0.10151856934E+04  0.40000000000E+03 0. -1.
<mgrwt>
<rscale>  2 0.42831452E+03</rscale>
<asrwt>0</asrwt>
<pdfrwt beam="1">  1       21 0.15397132E+00 0.42831452E+03</pdfrwt>
<pdfrwt beam="2">  1       21 0.15629232E+00 0.42831452E+03</pdfrwt>
<totfact> 0.59819349E+01</totfact>
</mgrwt>
</event>
<event>
 4    1  0.5003329E-002  0.4850124E+03  0.7818608E-02  0.1017767E+00
         21   -1    0    0  503  502  0.00000000000E+00  0.00000000000E+00  0.48637028235E+03  0.48637028235E+03  0.00000000000E+00 0.  1.
         21   -1    0    0  501  503 -0.00000000000E+00 -0.00000000000E+00 -0.54998428430E+03  0.54998428430E+03  0.00000000000E+00 0. -1.
    9000007    1    1    2  501    0 -0.18402024212E+03  0.20340496459E+03  0.14814017973E+03  0.50713168110E+03  0.40000000000E+03 0.  1.
   -9000007    1    1    2    0  502  0.18402024212E+03 -0.20340496459E+03 -0.21175418169E+03  0.52922288555E+03  0.40000000000E+03 0. -1.
<mgrwt>
<rscale>  2 0.48501240E+03</rscale>
<asrwt>0</asrwt>
<pdfrwt beam="1">  1       21 0.74826198E-01 0.48501240E+03</pdfrwt>
<pdfrwt beam="2">  1       21 0.84612966E-01 0.48501240E+03</pdfrwt>
<totfact> 0.16427091E+03</totfact>
</mgrwt>
</event>
<event>
 4    1  0.5003329E-002  0.4810271E+03  0.7818608E-02  0.1018853E+00
         21   -1    0    0  501  502  0.00000000000E+00  0.00000000000E+00  0.10100478231E+04  0.10100478231E+04  0.00000000000E+00 0. -1.
         21   -1    0    0  502  503 -0.00000000000E+00 -0.00000000000E+00 -0.23052460343E+03  0.23052460343E+03  0.00000000000E+00 0. -1.
    9000007    1    1    2  501    0 -0.21610139490E+03 -0.15712172705E+03  0.43877541460E+03  0.65108441423E+03  0.40000000000E+03 0. -1.
   -9000007    1    1    2    0  503  0.21610139490E+03  0.15712172705E+03  0.34074780506E+03  0.58948801230E+03  0.40000000000E+03 0. -1.
<mgrwt>
<rscale>  2 0.48102708E+03</rscale>
<asrwt>0</asrwt>
<pdfrwt beam="1">  1       21 0.15539197E+00 0.48102708E+03</pdfrwt>
<pdfrwt beam="2">  1       21 0.35465324E-01 0.48102708E+03</pdfrwt>
<totfact> 0.17590948E+03</totfact>
</mgrwt>
</event>
<event>
 4    1  0.5003329E-002  0.4130843E+03  0.7818608E-02  0.1039341E+00
         21   -1    0    0  501  502  0.00000000000E+00  0.00000000000E+00  0.43457134062E+03  0.43457134062E+03  0.00000000000E+00 0.  1.
         21   -1    0    0  502  503 -0.00000000000E+00 -0.00000000000E+00 -0.43088912382E+03  0.43088912382E+03  0.00000000000E+00 0.  1.
    9000007    1    1    2  501    0  0.90288628895E+02 -0.49865936293E+02 -0.12705309947E+03  0.43218183464E+03  0.40000000000E+03 0.  1.
   -9000007    1    1    2    0  503 -0.90288628895E+02  0.49865936293E+02  0.13073531627E+03  0.43327862979E+03  0.40000000000E+03 0.  1.
<mgrwt>
<rscale>  2 0.41308431E+03</rscale>
<asrwt>0</asrwt>
<pdfrwt beam="1">  1       21 0.66857129E-01 0.41308431E+03</pdfrwt>
<pdfrwt beam="2">  1       21 0.66290634E-01 0.41308431E+03</pdfrwt>
<totfact> 0.37938862E+03</totfact>
</mgrwt>
</event>
<event>
 4    1  0.5003329E-002  0.4420362E+03  0.7818608E-02  0.1030124E+00
         21   -1    0    0  501  502  0.00000000000E+00  0.00000000000E+00  0.15706491784E+04  0.15706491784E+04  0.00000000000E+00 0.  1.
         21   -1    0    0  502  503 -0.00000000000E+00 -0.00000000000E+00 -0.15639376056E+03  0.15639376056E+03  0.00000000000E+00 0.  1.
    9000007    1    1    2  501    0  0.12651359268E+02  0.18771230424E+03  0.10976671700E+04  0.11833297013E+04  0.40000000000E+03 0.  1.
   -9000007    1    1    2    0  503 -0.12651359268E+02 -0.18771230424E+03  0.31658824784E+03  0.54371323759E+03  0.40000000000E+03 0.  1.
<mgrwt>
<rscale>  2 0.44203616E+03</rscale>
<asrwt>0</asrwt>
<pdfrwt beam="1">  1       21 0.24163833E+00 0.44203616E+03</pdfrwt>
<pdfrwt beam="2">  1       21 0.24060580E-01 0.44203616E+03</pdfrwt>
<totfact> 0.10037900E+03</totfact>
</mgrwt>
</event>
<event>
 4    1  0.5003329E-002  0.5446614E+03  0.7818608E-02  0.1002737E+00
         21   -1    0    0  501  502  0.00000000000E+00  0.00000000000E+00  0.38215930315E+03  0.38215930315E+03  0.00000000000E+00 0. -1.
         21   -1    0    0  502  503 -0.00000000000E+00 -0.00000000000E+00 -0.11727569496E+04  0.11727569496E+04  0.00000000000E+00 0. -1.
    9000007    1    1    2  501    0  0.49498940028E+02 -0.36634120748E+03  0.56756333654E+02  0.54761054297E+03  0.40000000000E+03 0. -1.
   -9000007    1    1    2    0  503 -0.49498940028E+02  0.36634120748E+03 -0.84735398011E+03  0.10073057098E+04  0.40000000000E+03 0. -1.
<mgrwt>
<rscale>  2 0.54466139E+03</rscale>
<asrwt>0</asrwt>
<pdfrwt beam="1">  1       21 0.58793739E-01 0.54466139E+03</pdfrwt>
<pdfrwt beam="2">  1       21 0.18042415E+00 0.54466139E+03</pdfrwt>
<totfact> 0.38659050E+02</totfact>
</mgrwt>
</event>
<event>
 4    1  0.5003329E-002  0.4476541E+03  0.7818608E-02  0.1028424E+00
         21   -1    0    0  503  502  0.00000000000E+00  0.00000000000E+00  0.21511079875E+04  0.21511079875E+04  0.00000000000E+00 0. -1.
         21   -1    0    0  501  503 -0.00000000000E+00 -0.00000000000E+00 -0.21235774455E+03  0.21235774455E+03  0.00000000000E+00 0. -1.
    9000007    1    1    2  501    0 -0.20093375409E+03 -0.44472940057E+01  0.84011079984E+02  0.45546900390E+03  0.40000000000E+03 0. -1.
   -9000007    1    1    2    0  502  0.20093375409E+03  0.44472940057E+01  0.18547391630E+04  0.19079967281E+04  0.40000000000E+03 0. -1.
<mgrwt>
<rscale>  2 0.44765405E+03</rscale>
<asrwt>0</asrwt>
<pdfrwt beam="1">  1       21 0.33093968E+00 0.44765405E+03</pdfrwt>
<pdfrwt beam="2">  1       21 0.32670424E-01 0.44765405E+03</pdfrwt>
<totfact> 0.15772405E+02</totfact>
</mgrwt>
</event>
<event>
 4    1  0.5003329E-002  0.4286875E+03  0.7818608E-02  0.1034275E+00
         21   -1    0    0  503  502  0.00000000000E+00  0.00000000000E+00  0.26120510541E+04  0.26120510541E+04  0.00000000000E+00 0. -1.
         21   -1    0    0  501  503 -0.00000000000E+00 -0.00000000000E+00 -0.76927875686E+02  0.76927875686E+02  0.00000000000E+00 0. -1.
    9000007    1    1    2  501    0  0.63992543163E+02 -0.14027797605E+03  0.16605381316E+04  0.17149810036E+04  0.40000000000E+03 0. -1.
   -9000007    1    1    2    0  502 -0.63992543163E+02  0.14027797605E+03  0.87458504683E+03  0.97399792622E+03  0.40000000000E+03 0. -1.
<mgrwt>
<rscale>  2 0.42868748E+03</rscale>
<asrwt>0</asrwt>
<pdfrwt beam="1">  1       21 0.40185394E+00 0.42868748E+03</pdfrwt>
<pdfrwt beam="2">  1       21 0.11835060E-01 0.42868748E+03</pdfrwt>
<totfact> 0.39965751E+02</totfact>
</mgrwt>
</event>
<event>
 4    1  0.5003329E-002  0.4274857E+03  0.7818608E-02  0.1034657E+00
         21   -1    0    0  501  502  0.00000000000E+00  0.00000000000E+00  0.12023818362E+03  0.12023818362E+03  0.00000000000E+00 0.  1.
         21   -1    0    0  502  503 -0.00000000000E+00 -0.00000000000E+00 -0.16441764179E+04  0.16441764179E+04  0.00000000000E+00 0.  1.
    9000007    1    1    2  501    0  0.15075269112E+03  0.42056746830E+01 -0.51937665345E+03  0.67267835533E+03  0.40000000000E+03 0. -1.
   -9000007    1    1    2    0  503 -0.15075269112E+03 -0.42056746830E+01 -0.10045615808E+04  0.10917362462E+04  0.40000000000E+03 0. -1.
<mgrwt>
<rscale>  2 0.42748574E+03</rscale>
<asrwt>0</asrwt>
<pdfrwt beam="1">  1       21 0.18498182E-01 0.42748574E+03</pdfrwt>
<pdfrwt beam="2">  1       21 0.25295022E+00 0.42748574E+03</pdfrwt>
<totfact> 0.14242051E+03</totfact>
</mgrwt>
</event>
<event>
 4    1  0.5003329E-002  0.4357072E+03  0.7818608E-02  0.1032072E+00
         21   -1    0    0  503  502  0.00000000000E+00  0.00000000000E+00  0.33789794520E+03  0.33789794520E+03  0.00000000000E+00 0.  1.
         21   -1    0    0  501  503 -0.00000000000E+00 -0.00000000000E+00 -0.61788431064E+03  0.61788431064E+03  0.00000000000E+00 0.  1.
    9000007    1    1    2  501    0 -0.13715315887E+03  0.10502256324E+03 -0.28393445435E+03  0.52005721045E+03  0.40000000000E+03 0.  1.
   -9000007    1    1    2    0  502  0.13715315887E+03 -0.10502256324E+03  0.39480888989E+01  0.43572504539E+03  0.40000000000E+03 0.  1.
<mgrwt>
<rscale>  2 0.43570716E+03</rscale>
<asrwt>0</asrwt>
<pdfrwt beam="1">  1       21 0.51984300E-01 0.43570716E+03</pdfrwt>
<pdfrwt beam="2">  1       21 0.95059124E-01 0.43570716E+03</pdfrwt>
<totfact> 0.28377036E+03</totfact>
</mgrwt>
</event>
<event>
 4    1  0.5003329E-002  0.4341705E+03  0.7818608E-02  0.1032551E+00
         21   -1    0    0  503  502  0.00000000000E+00  0.00000000000E+00  0.65639294633E+03  0.65639294633E+03  0.00000000000E+00 0.  1.
         21   -1    0    0  501  503 -0.00000000000E+00 -0.00000000000E+00 -0.61464997615E+03  0.61464997615E+03  0.00000000000E+00 0.  1.
    9000007    1    1    2  501    0  0.16231101962E+03  0.46466257773E+02 -0.44300351338E+03  0.62028710536E+03  0.40000000000E+03 0.  1.
   -9000007    1    1    2    0  502 -0.16231101962E+03 -0.46466257773E+02  0.48474648356E+03  0.65075581713E+03  0.40000000000E+03 0.  1.
<mgrwt>
<rscale>  2 0.43417045E+03</rscale>
<asrwt>0</asrwt>
<pdfrwt beam="1">  1       21 0.10098353E+00 0.43417045E+03</pdfrwt>
<pdfrwt beam="2">  1       21 0.94561534E-01 0.43417045E+03</pdfrwt>
<totfact> 0.63645425E+02</totfact>
</mgrwt>
</event>
<event>
 4    1  0.5003329E-002  0.5648433E+03  0.7818608E-02  0.9981155E-01
         21   -1    0    0  503  502  0.00000000000E+00  0.00000000000E+00  0.62622576702E+03  0.62622576702E+03  0.00000000000E+00 0.  1.
         21   -1    0    0  501  503 -0.00000000000E+00 -0.00000000000E+00 -0.98250954601E+03  0.98250954601E+03  0.00000000000E+00 0.  1.
    9000007    1    1    2  501    0  0.27472307241E+03  0.28909378818E+03 -0.73626686550E+03  0.92797461286E+03  0.40000000000E+03 0.  1.
   -9000007    1    1    2    0  502 -0.27472307241E+03 -0.28909378818E+03  0.37998308651E+03  0.68076070018E+03  0.40000000000E+03 0.  1.
<mgrwt>
<rscale>  2 0.56484333E+03</rscale>
<asrwt>0</asrwt>
<pdfrwt beam="1">  1       21 0.96342426E-01 0.56484333E+03</pdfrwt>
<pdfrwt beam="2">  1       21 0.15115532E+00 0.56484333E+03</pdfrwt>
<totfact> 0.20381171E+02</totfact>
</mgrwt>
</event>
<event>
 4    1  0.5003329E-002  0.4238548E+03  0.7818608E-02  0.1035819E+00
         21   -1    0    0  503  502  0.00000000000E+00  0.00000000000E+00  0.56745030910E+03  0.56745030910E+03  0.00000000000E+00 0.  1.
         21   -1    0    0  501  503 -0.00000000000E+00 -0.00000000000E+00 -0.32422587509E+03  0.32422587509E+03  0.00000000000E+00 0. -1.
    9000007    1    1    2  501    0 -0.82854798803E+02  0.11308389845E+03  0.53222217005E+02  0.42718320444E+03  0.40000000000E+03 0. -1.
   -9000007    1    1    2    0  502  0.82854798803E+02 -0.11308389845E+03  0.19000221700E+03  0.46449297975E+03  0.40000000000E+03 0.  1.
<mgrwt>
<rscale>  2 0.42385479E+03</rscale>
<asrwt>0</asrwt>
<pdfrwt beam="1">  1       21 0.87300047E-01 0.42385479E+03</pdfrwt>
<pdfrwt beam="2">  1       21 0.49880904E-01 0.42385479E+03</pdfrwt>
<totfact> 0.38089024E+03</totfact>
</mgrwt>
</event>
<event>
 4    1  0.5003329E-002  0.4332974E+03  0.7818608E-02  0.1032823E+00
         21   -1    0    0  503  502  0.00000000000E+00  0.00000000000E+00  0.22977626426E+03  0.22977626426E+03  0.00000000000E+00 0. -1.
         21   -1    0    0  501  503 -0.00000000000E+00 -0.00000000000E+00 -0.96907303067E+03  0.96907303067E+03  0.00000000000E+00 0. -1.
    9000007    1    1    2  501    0  0.14960964869E+03  0.73236368430E+02 -0.60703805593E+03  0.74581620658E+03  0.40000000000E+03 0. -1.
   -9000007    1    1    2    0  502 -0.14960964869E+03 -0.73236368430E+02 -0.13225871048E+03  0.45303308835E+03  0.40000000000E+03 0. -1.
<mgrwt>
<rscale>  2 0.43329737E+03</rscale>
<asrwt>0</asrwt>
<pdfrwt beam="1">  1       21 0.35350194E-01 0.43329737E+03</pdfrwt>
<pdfrwt beam="2">  1       21 0.14908816E+00 0.43329737E+03</pdfrwt>
<totfact> 0.20203503E+03</totfact>
</mgrwt>
</event>
<event>
 4    1  0.5003329E-002  0.4037498E+03  0.7818608E-02  0.1042489E+00
         21   -1    0    0  501  502  0.00000000000E+00  0.00000000000E+00  0.55800037481E+03  0.55800037481E+03  0.00000000000E+00 0. -1.
         21   -1    0    0  502  503 -0.00000000000E+00 -0.00000000000E+00 -0.48362172102E+03  0.48362172102E+03  0.00000000000E+00 0. -1.
    9000007    1    1    2  501    0 -0.27512019345E+02  0.47507857068E+02  0.36490076841E+03  0.54421179560E+03  0.40000000000E+03 0. -1.
   -9000007    1    1    2    0  503  0.27512019345E+02 -0.47507857068E+02 -0.29052211461E+03  0.49741030023E+03  0.40000000000E+03 0. -1.
<mgrwt>
<rscale>  2 0.40374981E+03</rscale>
<asrwt>0</asrwt>
<pdfrwt beam="1">  1       21 0.85846211E-01 0.40374981E+03</pdfrwt>
<pdfrwt beam="2">  1       21 0.74403342E-01 0.40374981E+03</pdfrwt>
<totfact> 0.16606684E+03</totfact>
</mgrwt>
</event>
<event>
 4    1  0.5003329E-002  0.4041013E+03  0.7818608E-02  0.1042369E+00
         21   -1    0    0  503  502  0.00000000000E+00  0.00000000000E+00  0.46388768521E+03  0.46388768521E+03  0.00000000000E+00 0. -1.
         21   -1    0    0  501  503 -0.00000000000E+00 -0.00000000000E+00 -0.47834937887E+03  0.47834937887E+03  0.00000000000E+00 0. -1.
    9000007    1    1    2  501    0  0.38122148066E+02 -0.42948394472E+02 -0.24933894564E+03  0.47483446860E+03  0.40000000000E+03 0. -1.
   -9000007    1    1    2    0  502 -0.38122148066E+02  0.42948394472E+02  0.23487725198E+03  0.46740259548E+03  0.40000000000E+03 0. -1.
<mgrwt>
<rscale>  2 0.40410130E+03</rscale>
<asrwt>0</asrwt>
<pdfrwt beam="1">  1       21 0.71367336E-01 0.40410130E+03</pdfrwt>
<pdfrwt beam="2">  1       21 0.73592213E-01 0.40410130E+03</pdfrwt>
<totfact> 0.26009339E+03</totfact>
</mgrwt>
</event>
<event>
 4    1  0.5003329E-002  0.4341597E+03  0.7818608E-02  0.1032554E+00
         21   -1    0    0  501  502  0.00000000000E+00  0.00000000000E+00  0.18114550896E+04  0.18114550896E+04  0.00000000000E+00 0. -1.
         21   -1    0    0  502  503 -0.00000000000E+00 -0.00000000000E+00 -0.10549870610E+03  0.10549870610E+03  0.00000000000E+00 0. -1.
    9000007    1    1    2  501    0  0.16837551519E+03 -0.12013095417E+02  0.96502322242E+03  0.10581892309E+04  0.40000000000E+03 0. -1.
   -9000007    1    1    2    0  503 -0.16837551519E+03  0.12013095417E+02  0.74093316109E+03  0.85876456482E+03  0.40000000000E+03 0. -1.
<mgrwt>
<rscale>  2 0.43415968E+03</rscale>
<asrwt>0</asrwt>
<pdfrwt beam="1">  1       21 0.27868538E+00 0.43415968E+03</pdfrwt>
<pdfrwt beam="2">  1       21 0.16230571E-01 0.43415968E+03</pdfrwt>
<totfact> 0.12668118E+03</totfact>
</mgrwt>
</event>
<event>
 4    1  0.5003329E-002  0.5194517E+03  0.7818608E-02  0.1008823E+00
         21   -1    0    0  501  502  0.00000000000E+00  0.00000000000E+00  0.90273326883E+03  0.90273326883E+03  0.00000000000E+00 0.  1.
         21   -1    0    0  502  503 -0.00000000000E+00 -0.00000000000E+00 -0.33501391763E+03  0.33501391763E+03  0.00000000000E+00 0.  1.
    9000007    1    1    2  501    0  0.81726966586E+02 -0.32117094322E+03  0.48704259427E+03  0.71206780609E+03  0.40000000000E+03 0.  1.
   -9000007    1    1    2    0  503 -0.81726966586E+02  0.32117094322E+03  0.80676756927E+02  0.52567938037E+03  0.40000000000E+03 0.  1.
<mgrwt>
<rscale>  2 0.51945170E+03</rscale>
<asrwt>0</asrwt>
<pdfrwt beam="1">  1       21 0.13888204E+00 0.51945170E+03</pdfrwt>
<pdfrwt beam="2">  1       21 0.51540603E-01 0.51945170E+03</pdfrwt>
<totfact> 0.10785283E+03</totfact>
</mgrwt>
</event>
<event>
 4    1  0.5003329E-002  0.4645197E+03  0.7818608E-02  0.1023478E+00
         21   -1    0    0  501  502  0.00000000000E+00  0.00000000000E+00  0.45791996116E+03  0.45791996116E+03  0.00000000000E+00 0.  1.
         21   -1    0    0  502  503 -0.00000000000E+00 -0.00000000000E+00 -0.86412185938E+03  0.86412185938E+03  0.00000000000E+00 0.  1.
    9000007    1    1    2  501    0 -0.20335293290E+03 -0.12010878194E+03  0.24262998205E+03  0.52406854801E+03  0.40000000000E+03 0.  1.
   -9000007    1    1    2    0  503  0.20335293290E+03  0.12010878194E+03 -0.64883188027E+03  0.79797327253E+03  0.40000000000E+03 0.  1.
<mgrwt>
<rscale>  2 0.46451968E+03</rscale>
<asrwt>0</asrwt>
<pdfrwt beam="1">  1       21 0.70449225E-01 0.46451968E+03</pdfrwt>
<pdfrwt beam="2">  1       21 0.13294182E+00 0.46451968E+03</pdfrwt>
<totfact> 0.62219642E+02</totfact>
</mgrwt>
</event>
<event>
 4    1  0.5003329E-002  0.4310699E+03  0.7818608E-02  0.1033523E+00
         21   -1    0    0  503  502  0.00000000000E+00  0.00000000000E+00  0.18773795674E+03  0.18773795674E+03  0.00000000000E+00 0.  1.
         21   -1    0    0  501  503 -0.00000000000E+00 -0.00000000000E+00 -0.18241744234E+04  0.18241744234E+04  0.00000000000E+00 0.  1.
    9000007    1    1    2  501    0 -0.55244893960E+02  0.15089497996E+03 -0.14985625867E+04  0.15593303433E+04  0.40000000000E+03 0.  1.
   -9000007    1    1    2    0  502  0.55244893960E+02 -0.15089497996E+03 -0.13787387996E+03  0.45258203683E+03  0.40000000000E+03 0.  1.
<mgrwt>
<rscale>  2 0.43106994E+03</rscale>
<asrwt>0</asrwt>
<pdfrwt beam="1">  1       21 0.28882762E-01 0.43106994E+03</pdfrwt>
<pdfrwt beam="2">  1       21 0.28064223E+00 0.43106994E+03</pdfrwt>
<totfact> 0.40895011E+02</totfact>
</mgrwt>
</event>
<event>
 4    1  0.5003329E-002  0.4239180E+03  0.7818608E-02  0.1035799E+00
         21   -1    0    0  501  502  0.00000000000E+00  0.00000000000E+00  0.65563620639E+03  0.65563620639E+03  0.00000000000E+00 0.  1.
         21   -1    0    0  502  503 -0.00000000000E+00 -0.00000000000E+00 -0.36125994134E+03  0.36125994134E+03  0.00000000000E+00 0.  1.
    9000007    1    1    2  501    0  0.13433611215E+03  0.40746498831E+02  0.39693965688E+03  0.58074741446E+03  0.40000000000E+03 0.  1.
   -9000007    1    1    2    0  503 -0.13433611215E+03 -0.40746498831E+02 -0.10256339182E+03  0.43614873327E+03  0.40000000000E+03 0.  1.
<mgrwt>
<rscale>  2 0.42391800E+03</rscale>
<asrwt>0</asrwt>
<pdfrwt beam="1">  1       21 0.10086711E+00 0.42391800E+03</pdfrwt>
<pdfrwt beam="2">  1       21 0.55578453E-01 0.42391800E+03</pdfrwt>
<totfact> 0.21399888E+03</totfact>
</mgrwt>
</event>
<event>
 4    1  0.5003329E-002  0.4336397E+03  0.7818608E-02  0.1032716E+00
         21   -1    0    0  503  502  0.00000000000E+00  0.00000000000E+00  0.60152706426E+03  0.60152706426E+03  0.00000000000E+00 0.  1.
         21   -1    0    0  501  503 -0.00000000000E+00 -0.00000000000E+00 -0.45111094401E+03  0.45111094401E+03  0.00000000000E+00 0. -1.
    9000007    1    1    2  501    0 -0.17509614866E+02  0.16654373532E+03 -0.21642292631E+03  0.48464655722E+03  0.40000000000E+03 0. -1.
   -9000007    1    1    2    0  502  0.17509614866E+02 -0.16654373532E+03  0.36683904656E+03  0.56799145106E+03  0.40000000000E+03 0.  1.
<mgrwt>
<rscale>  2 0.43363971E+03</rscale>
<asrwt>0</asrwt>
<pdfrwt beam="1">  1       21 0.92542625E-01 0.43363971E+03</pdfrwt>
<pdfrwt beam="2">  1       21 0.69401684E-01 0.43363971E+03</pdfrwt>
<totfact> 0.16076750E+03</totfact>
</mgrwt>
</event>
<event>
 4    1  0.5003329E-002  0.4052750E+03  0.7818608E-02  0.1041968E+00
         21   -1    0    0  503  502  0.00000000000E+00  0.00000000000E+00  0.14816441794E+04  0.14816441794E+04  0.00000000000E+00 0.  1.
         21   -1    0    0  501  503 -0.00000000000E+00 -0.00000000000E+00 -0.16065833506E+03  0.16065833506E+03  0.00000000000E+00 0.  1.
    9000007    1    1    2  501    0  0.64572105878E+02  0.88479124019E+01  0.20329923657E+03  0.45340756721E+03  0.40000000000E+03 0.  1.
   -9000007    1    1    2    0  502 -0.64572105878E+02 -0.88479124019E+01  0.11176866078E+04  0.11888949473E+04  0.40000000000E+03 0.  1.
<mgrwt>
<rscale>  2 0.40527502E+03</rscale>
<asrwt>0</asrwt>
<pdfrwt beam="1">  1       21 0.22794525E+00 0.40527502E+03</pdfrwt>
<pdfrwt beam="2">  1       21 0.24716668E-01 0.40527502E+03</pdfrwt>
<totfact> 0.11817651E+03</totfact>
</mgrwt>
</event>
<event>
 4    1  0.5003329E-002  0.4907810E+03  0.7818608E-02  0.1016214E+00
         21   -1    0    0  501  502  0.00000000000E+00  0.00000000000E+00  0.46437295946E+03  0.46437295946E+03  0.00000000000E+00 0.  1.
         21   -1    0    0  502  503 -0.00000000000E+00 -0.00000000000E+00 -0.73753573004E+03  0.73753573004E+03  0.00000000000E+00 0.  1.
    9000007    1    1    2  501    0  0.10623192550E+03  0.26378171232E+03  0.19077297031E+03  0.52655516325E+03  0.40000000000E+03 0. -1.
   -9000007    1    1    2    0  503 -0.10623192550E+03 -0.26378171232E+03 -0.46393574088E+03  0.67535352625E+03  0.40000000000E+03 0. -1.
<mgrwt>
<rscale>  2 0.49078102E+03</rscale>
<asrwt>0</asrwt>
<pdfrwt beam="1">  1       21 0.71441994E-01 0.49078102E+03</pdfrwt>
<pdfrwt beam="2">  1       21 0.11346704E+00 0.49078102E+03</pdfrwt>
<totfact> 0.89452539E+02</totfact>
</mgrwt>
</event>
<event>
 4    1  0.5003329E-002  0.4264745E+03  0.7818608E-02  0.1034979E+00
         21   -1    0    0  503  502  0.00000000000E+00  0.00000000000E+00  0.83650831410E+03  0.83650831410E+03  0.00000000000E+00 0. -1.
         21   -1    0    0  501  503 -0.00000000000E+00 -0.00000000000E+00 -0.52695415117E+03  0.52695415117E+03  0.00000000000E+00 0.  1.
    9000007    1    1    2  501    0 -0.14630887824E+03 -0.21776347012E+02 -0.36770970215E+03  0.56310826863E+03  0.40000000000E+03 0.  1.
   -9000007    1    1    2    0  502  0.14630887824E+03  0.21776347012E+02  0.67726386509E+03  0.80035419665E+03  0.40000000000E+03 0. -1.
<mgrwt>
<rscale>  2 0.42647450E+03</rscale>
<asrwt>0</asrwt>
<pdfrwt beam="1">  1       21 0.12869359E+00 0.42647450E+03</pdfrwt>
<pdfrwt beam="2">  1       21 0.81069870E-01 0.42647450E+03</pdfrwt>
<totfact> 0.49979364E+02</totfact>
</mgrwt>
</event>
<event>
 4    1  0.5003329E-002  0.5066923E+03  0.7818608E-02  0.1012047E+00
         21   -1    0    0  503  502  0.00000000000E+00  0.00000000000E+00  0.31794864628E+03  0.31794864628E+03  0.00000000000E+00 0. -1.
         21   -1    0    0  501  503 -0.00000000000E+00 -0.00000000000E+00 -0.80995063545E+03  0.80995063545E+03  0.00000000000E+00 0.  1.
    9000007    1    1    2  501    0  0.28177601156E+02  0.30974685640E+03 -0.21485245616E+03  0.55036230810E+03  0.40000000000E+03 0. -1.
   -9000007    1    1    2    0  502 -0.28177601156E+02 -0.30974685640E+03 -0.27714953302E+03  0.57753697363E+03  0.40000000000E+03 0.  1.
<mgrwt>
<rscale>  2 0.50669231E+03</rscale>
<asrwt>0</asrwt>
<pdfrwt beam="1">  1       21 0.48915178E-01 0.50669231E+03</pdfrwt>
<pdfrwt beam="2">  1       21 0.12460779E+00 0.50669231E+03</pdfrwt>
<totfact> 0.16085339E+03</totfact>
</mgrwt>
</event>
<event>
 4    1  0.5003329E-002  0.4118578E+03  0.7818608E-02  0.1039749E+00
         21   -1    0    0  501  502  0.00000000000E+00  0.00000000000E+00  0.19389114384E+04  0.19389114384E+04  0.00000000000E+00 0. -1.
         21   -1    0    0  502  503 -0.00000000000E+00 -0.00000000000E+00 -0.14735960287E+03  0.14735960287E+03  0.00000000000E+00 0. -1.
    9000007    1    1    2  501    0 -0.70677361267E+02  0.68055359342E+02  0.15606978788E+04  0.16141266029E+04  0.40000000000E+03 0. -1.
   -9000007    1    1    2    0  503  0.70677361267E+02 -0.68055359342E+02  0.23085395672E+03  0.47214443835E+03  0.40000000000E+03 0. -1.
<mgrwt>
<rscale>  2 0.41185777E+03</rscale>
<asrwt>0</asrwt>
<pdfrwt beam="1">  1       21 0.29829405E+00 0.41185777E+03</pdfrwt>
<pdfrwt beam="2">  1       21 0.22670710E-01 0.41185777E+03</pdfrwt>
<totfact> 0.51965292E+02</totfact>
</mgrwt>
</event>
<event>
 4    1  0.5003329E-002  0.4531156E+03  0.7818608E-02  0.1026797E+00
         21   -1    0    0  501  502  0.00000000000E+00  0.00000000000E+00  0.68501802177E+03  0.68501802177E+03  0.00000000000E+00 0.  1.
         21   -1    0    0  502  503 -0.00000000000E+00 -0.00000000000E+00 -0.31340940830E+03  0.31340940830E+03  0.00000000000E+00 0. -1.
    9000007    1    1    2  501    0  0.21283244045E+03  0.40112073686E+01  0.81471790232E+02  0.46038178732E+03  0.40000000000E+03 0. -1.
   -9000007    1    1    2    0  503 -0.21283244045E+03 -0.40112073686E+01  0.29013682323E+03  0.53804564276E+03  0.40000000000E+03 0.  1.
<mgrwt>
<rscale>  2 0.45311559E+03</rscale>
<asrwt>0</asrwt>
<pdfrwt beam="1">  1       21 0.10538739E+00 0.45311559E+03</pdfrwt>
<pdfrwt beam="2">  1       21 0.48216832E-01 0.45311559E+03</pdfrwt>
<totfact> 0.25753178E+03</totfact>
</mgrwt>
</event>
<event>
 4    1  0.5003329E-002  0.4483668E+03  0.7818608E-02  0.1028210E+00
         21   -1    0    0  501  502  0.00000000000E+00  0.00000000000E+00  0.72347138503E+03  0.72347138503E+03  0.00000000000E+00 0.  1.
         21   -1    0    0  502  503 -0.00000000000E+00 -0.00000000000E+00 -0.38012215115E+03  0.38012215115E+03  0.00000000000E+00 0.  1.
    9000007    1    1    2  501    0  0.28961617978E+02 -0.20048455256E+03  0.45786062483E+03  0.64083475475E+03  0.40000000000E+03 0.  1.
   -9000007    1    1    2    0  503 -0.28961617978E+02  0.20048455256E+03 -0.11451139095E+03  0.46275878143E+03  0.40000000000E+03 0.  1.
<mgrwt>
<rscale>  2 0.44836685E+03</rscale>
<asrwt>0</asrwt>
<pdfrwt beam="1">  1       21 0.11130329E+00 0.44836685E+03</pdfrwt>
<pdfrwt beam="2">  1       21 0.58480331E-01 0.44836685E+03</pdfrwt>
<totfact> 0.14891043E+03</totfact>
</mgrwt>
</event>
<event>
 4    1  0.5003329E-002  0.4010122E+03  0.7818608E-02  0.1043430E+00
         21   -1    0    0  503  502  0.00000000000E+00  0.00000000000E+00  0.61197991457E+03  0.61197991457E+03  0.00000000000E+00 0.  1.
         21   -1    0    0  501  503 -0.00000000000E+00 -0.00000000000E+00 -0.33340715653E+03  0.33340715653E+03  0.00000000000E+00 0.  1.
    9000007    1    1    2  501    0  0.69781897387E+01  0.27605283220E+02 -0.78286554340E+02  0.40858234346E+03  0.40000000000E+03 0.  1.
   -9000007    1    1    2    0  502 -0.69781897387E+01 -0.27605283220E+02  0.35685931238E+03  0.53680472765E+03  0.40000000000E+03 0.  1.
<mgrwt>
<rscale>  2 0.40101215E+03</rscale>
<asrwt>0</asrwt>
<pdfrwt beam="1">  1       21 0.94150756E-01 0.40101215E+03</pdfrwt>
<pdfrwt beam="2">  1       21 0.51293409E-01 0.40101215E+03</pdfrwt>
<totfact> 0.30279650E+03</totfact>
</mgrwt>
</event>
<event>
 4    1  0.5003329E-002  0.8608822E+03  0.7818608E-02  0.9475846E-01
         21   -1    0    0  503  502  0.00000000000E+00  0.00000000000E+00  0.83183601207E+03  0.83183601207E+03  0.00000000000E+00 0.  1.
         21   -1    0    0  501  503 -0.00000000000E+00 -0.00000000000E+00 -0.11067438213E+04  0.11067438213E+04  0.00000000000E+00 0. -1.
    9000007    1    1    2  501    0  0.72388042331E+03 -0.23898815863E+03 -0.56546695270E+03  0.10299859619E+04  0.40000000000E+03 0. -1.
   -9000007    1    1    2    0  502 -0.72388042331E+03  0.23898815863E+03  0.29055914352E+03  0.90859387138E+03  0.40000000000E+03 0.  1.
<mgrwt>
<rscale>  2 0.86088223E+03</rscale>
<asrwt>0</asrwt>
<pdfrwt beam="1">  1       21 0.12797477E+00 0.86088223E+03</pdfrwt>
<pdfrwt beam="2">  1       21 0.17026828E+00 0.86088223E+03</pdfrwt>
<totfact> 0.64365222E+01</totfact>
</mgrwt>
</event>
<event>
 4    1  0.5003329E-002  0.4311976E+03  0.7818608E-02  0.1033482E+00
         21   -1    0    0  503  502  0.00000000000E+00  0.00000000000E+00  0.43441307992E+03  0.43441307992E+03  0.00000000000E+00 0.  1.
         21   -1    0    0  501  503 -0.00000000000E+00 -0.00000000000E+00 -0.81561249643E+03  0.81561249643E+03  0.00000000000E+00 0.  1.
    9000007    1    1    2  501    0  0.14854879823E+03 -0.62166357264E+02 -0.62146597689E+03  0.75640687587E+03  0.40000000000E+03 0.  1.
   -9000007    1    1    2    0  502 -0.14854879823E+03  0.62166357264E+02  0.24026656037E+03  0.49361870048E+03  0.40000000000E+03 0.  1.
<mgrwt>
<rscale>  2 0.43119764E+03</rscale>
<asrwt>0</asrwt>
<pdfrwt beam="1">  1       21 0.66832782E-01 0.43119764E+03</pdfrwt>
<pdfrwt beam="2">  1       21 0.12547884E+00 0.43119764E+03</pdfrwt>
<totfact> 0.82534024E+02</totfact>
</mgrwt>
</event>
<event>
 4    1  0.5003329E-002  0.5438027E+03  0.7818608E-02  0.1002939E+00
         21   -1    0    0  503  502  0.00000000000E+00  0.00000000000E+00  0.21132902298E+03  0.21132902298E+03  0.00000000000E+00 0. -1.
         21   -1    0    0  501  503 -0.00000000000E+00 -0.00000000000E+00 -0.17915134527E+04  0.17915134527E+04  0.00000000000E+00 0. -1.
    9000007    1    1    2  501    0  0.34918718671E+03  0.11742956930E+03 -0.12586306552E+04  0.13710844326E+04  0.40000000000E+03 0. -1.
   -9000007    1    1    2    0  502 -0.34918718671E+03 -0.11742956930E+03 -0.32155377457E+03  0.63175804312E+03  0.40000000000E+03 0. -1.
<mgrwt>
<rscale>  2 0.54380272E+03</rscale>
<asrwt>0</asrwt>
<pdfrwt beam="1">  1       21 0.32512158E-01 0.54380272E+03</pdfrwt>
<pdfrwt beam="2">  1       21 0.27561745E+00 0.54380272E+03</pdfrwt>
<totfact> 0.32658455E+02</totfact>
</mgrwt>
</event>
<event>
 4    1  0.5003329E-002  0.5407524E+03  0.7818608E-02  0.1003657E+00
         21   -1    0    0  503  502  0.00000000000E+00  0.00000000000E+00  0.90505192200E+03  0.90505192200E+03  0.00000000000E+00 0.  1.
         21   -1    0    0  501  503 -0.00000000000E+00 -0.00000000000E+00 -0.11514985014E+04  0.11514985014E+04  0.00000000000E+00 0.  1.
    9000007    1    1    2  501    0  0.31389371213E+03 -0.18407565190E+03 -0.99539096288E+03  0.11327913652E+04  0.40000000000E+03 0.  1.
   -9000007    1    1    2    0  502 -0.31389371213E+03  0.18407565190E+03  0.74894438344E+03  0.92375905821E+03  0.40000000000E+03 0.  1.
<mgrwt>
<rscale>  2 0.54075235E+03</rscale>
<asrwt>0</asrwt>
<pdfrwt beam="1">  1       21 0.13923876E+00 0.54075235E+03</pdfrwt>
<pdfrwt beam="2">  1       21 0.17715362E+00 0.54075235E+03</pdfrwt>
<totfact> 0.51694557E+01</totfact>
</mgrwt>
</event>
<event>
 4    1  0.5003329E-002  0.5322760E+03  0.7818608E-02  0.1005682E+00
         21   -1    0    0  503  502  0.00000000000E+00  0.00000000000E+00  0.11120421098E+03  0.11120421098E+03  0.00000000000E+00 0.  1.
         21   -1    0    0  501  503 -0.00000000000E+00 -0.00000000000E+00 -0.25477577922E+04  0.25477577922E+04  0.00000000000E+00 0.  1.
    9000007    1    1    2  501    0  0.26085034484E+03 -0.23510600175E+03 -0.12230555883E+04  0.13338600775E+04  0.40000000000E+03 0.  1.
   -9000007    1    1    2    0  502 -0.26085034484E+03  0.23510600175E+03 -0.12134979930E+04  0.13251019257E+04  0.40000000000E+03 0.  1.
<mgrwt>
<rscale>  2 0.53227599E+03</rscale>
<asrwt>0</asrwt>
<pdfrwt beam="1">  1       21 0.17108340E-01 0.53227599E+03</pdfrwt>
<pdfrwt beam="2">  1       21 0.39196273E+00 0.53227599E+03</pdfrwt>
<totfact> 0.21962494E+02</totfact>
</mgrwt>
</event>
<event>
 4    1  0.5003329E-002  0.4897844E+03  0.7818608E-02  0.1016480E+00
         21   -1    0    0  501  502  0.00000000000E+00  0.00000000000E+00  0.31226529739E+03  0.31226529739E+03  0.00000000000E+00 0. -1.
         21   -1    0    0  502  503 -0.00000000000E+00 -0.00000000000E+00 -0.85736445254E+03  0.85736445254E+03  0.00000000000E+00 0.  1.
    9000007    1    1    2  501    0  0.63464662991E+02 -0.27542869098E+03 -0.83976084057E+02  0.49693129300E+03  0.40000000000E+03 0. -1.
   -9000007    1    1    2    0  503 -0.63464662991E+02  0.27542869098E+03 -0.46112307109E+03  0.67269845693E+03  0.40000000000E+03 0. -1.
<mgrwt>
<rscale>  2 0.48978437E+03</rscale>
<asrwt>0</asrwt>
<pdfrwt beam="1">  1       21 0.48040814E-01 0.48978437E+03</pdfrwt>
<pdfrwt beam="2">  1       21 0.13190223E+00 0.48978437E+03</pdfrwt>
<totfact> 0.14506580E+03</totfact>
</mgrwt>
</event>
<event>
 4    1  0.5003329E-002  0.4349344E+03  0.7818608E-02  0.1032312E+00
         21   -1    0    0  501  502  0.00000000000E+00  0.00000000000E+00  0.83927628652E+03  0.83927628652E+03  0.00000000000E+00 0. -1.
         21   -1    0    0  502  503 -0.00000000000E+00 -0.00000000000E+00 -0.63529414341E+03  0.63529414341E+03  0.00000000000E+00 0. -1.
    9000007    1    1    2  501    0 -0.72679822191E+02 -0.15454966873E+03  0.69421651273E+03  0.81920969428E+03  0.40000000000E+03 0. -1.
   -9000007    1    1    2    0  503  0.72679822191E+02  0.15454966873E+03 -0.49023436962E+03  0.65536073564E+03  0.40000000000E+03 0. -1.
<mgrwt>
<rscale>  2 0.43493443E+03</rscale>
<asrwt>0</asrwt>
<pdfrwt beam="1">  1       21 0.12911943E+00 0.43493443E+03</pdfrwt>
<pdfrwt beam="2">  1       21 0.97737560E-01 0.43493443E+03</pdfrwt>
<totfact> 0.31738280E+02</totfact>
</mgrwt>
</event>
<event>
 4    1  0.5003329E-002  0.5433934E+03  0.7818608E-02  0.1003035E+00
         21   -1    0    0  501  502  0.00000000000E+00  0.00000000000E+00  0.68131499366E+03  0.68131499366E+03  0.00000000000E+00 0. -1.
         21   -1    0    0  502  503 -0.00000000000E+00 -0.00000000000E+00 -0.47900712926E+03  0.47900712926E+03  0.00000000000E+00 0. -1.
    9000007    1    1    2  501    0  0.32915926147E+03 -0.16410540717E+03  0.28018668447E+03  0.61137630165E+03  0.40000000000E+03 0. -1.
   -9000007    1    1    2    0  503 -0.32915926147E+03  0.16410540717E+03 -0.77878820060E+02  0.54894582127E+03  0.40000000000E+03 0. -1.
<mgrwt>
<rscale>  2 0.54339342E+03</rscale>
<asrwt>0</asrwt>
<pdfrwt beam="1">  1       21 0.10481769E+00 0.54339342E+03</pdfrwt>
<pdfrwt beam="2">  1       21 0.73693405E-01 0.54339342E+03</pdfrwt>
<totfact> 0.99638251E+02</totfact>
</mgrwt>
</event>
<event>
 4    1  0.5003329E-002  0.4000880E+03  0.7818608E-02  0.1043749E+00
         21   -1    0    0  503  502  0.00000000000E+00  0.00000000000E+00  0.73439376505E+03  0.73439376505E+03  0.00000000000E+00 0.  1.
         21   -1    0    0  501  503 -0.00000000000E+00 -0.00000000000E+00 -0.43214257606E+03  0.43214257606E+03  0.00000000000E+00 0.  1.
    9000007    1    1    2  501    0 -0.10724884096E+01 -0.83225292468E+01 -0.25949821357E+03  0.47687497059E+03  0.40000000000E+03 0.  1.
   -9000007    1    1    2    0  502  0.10724884096E+01  0.83225292468E+01  0.56174940256E+03  0.68966137053E+03  0.40000000000E+03 0.  1.
<mgrwt>
<rscale>  2 0.40008801E+03</rscale>
<asrwt>0</asrwt>
<pdfrwt beam="1">  1       21 0.11298366E+00 0.40008801E+03</pdfrwt>
<pdfrwt beam="2">  1       21 0.66483473E-01 0.40008801E+03</pdfrwt>
<totfact> 0.11040955E+03</totfact>
</mgrwt>
</event>
<event>
 4    1  0.5003329E-002  0.4917653E+03  0.7818608E-02  0.1015951E+00
         21   -1    0    0  503  502  0.00000000000E+00  0.00000000000E+00  0.13024577078E+04  0.13024577078E+04  0.00000000000E+00 0. -1.
         21   -1    0    0  501  503 -0.00000000000E+00 -0.00000000000E+00 -0.21247548827E+03  0.21247548827E+03  0.00000000000E+00 0. -1.
    9000007    1    1    2  501    0 -0.26130897288E+03  0.11640767177E+03  0.27597094415E+03  0.56390875802E+03  0.40000000000E+03 0. -1.
   -9000007    1    1    2    0  502  0.26130897288E+03 -0.11640767177E+03  0.81401127541E+03  0.95102443810E+03  0.40000000000E+03 0. -1.
<mgrwt>
<rscale>  2 0.49176532E+03</rscale>
<asrwt>0</asrwt>
<pdfrwt beam="1">  1       21 0.20037810E+00 0.49176532E+03</pdfrwt>
<pdfrwt beam="2">  1       21 0.32688537E-01 0.49176532E+03</pdfrwt>
<totfact> 0.98519076E+02</totfact>
</mgrwt>
</event>
<event>
 4    1  0.5003329E-002  0.4368683E+03  0.7818608E-02  0.1031712E+00
         21   -1    0    0  503  502  0.00000000000E+00  0.00000000000E+00  0.71983846292E+03  0.71983846292E+03  0.00000000000E+00 0. -1.
         21   -1    0    0  501  503 -0.00000000000E+00 -0.00000000000E+00 -0.79086493748E+03  0.79086493748E+03  0.00000000000E+00 0. -1.
    9000007    1    1    2  501    0 -0.17414091688E+03  0.22997533518E+02 -0.65136990603E+03  0.78430650894E+03  0.40000000000E+03 0. -1.
   -9000007    1    1    2    0  502  0.17414091688E+03 -0.22997533518E+02  0.58034343147E+03  0.72639689146E+03  0.40000000000E+03 0. -1.
<mgrwt>
<rscale>  2 0.43686834E+03</rscale>
<asrwt>0</asrwt>
<pdfrwt beam="1">  1       21 0.11074438E+00 0.43686834E+03</pdfrwt>
<pdfrwt beam="2">  1       21 0.12167153E+00 0.43686834E+03</pdfrwt>
<totfact> 0.27193943E+02</totfact>
</mgrwt>
</event>
<event>
 4    1  0.5003329E-002  0.4793627E+03  0.7818608E-02  0.1019310E+00
         21   -1    0    0  501  502  0.00000000000E+00  0.00000000000E+00  0.14253209623E+04  0.14253209623E+04  0.00000000000E+00 0.  1.
         21   -1    0    0  502  503 -0.00000000000E+00 -0.00000000000E+00 -0.25861096922E+03  0.25861096922E+03  0.00000000000E+00 0. -1.
    9000007    1    1    2  501    0  0.23757494311E+03 -0.11552796898E+03  0.11000485441E+04  0.11999564011E+04  0.40000000000E+03 0.  1.
   -9000007    1    1    2    0  503 -0.23757494311E+03  0.11552796898E+03  0.66661448947E+02  0.48397553036E+03  0.40000000000E+03 0. -1.
<mgrwt>
<rscale>  2 0.47936267E+03</rscale>
<asrwt>0</asrwt>
<pdfrwt beam="1">  1       21 0.21928014E+00 0.47936267E+03</pdfrwt>
<pdfrwt beam="2">  1       21 0.39786304E-01 0.47936267E+03</pdfrwt>
<totfact> 0.49949780E+02</totfact>
</mgrwt>
</event>
<event>
 4    1  0.5003329E-002  0.4060898E+03  0.7818608E-02  0.1041691E+00
         21   -1    0    0  501  502  0.00000000000E+00  0.00000000000E+00  0.10874925026E+03  0.10874925026E+03  0.00000000000E+00 0.  1.
         21   -1    0    0  502  503 -0.00000000000E+00 -0.00000000000E+00 -0.17075532183E+04  0.17075532183E+04  0.00000000000E+00 0.  1.
    9000007    1    1    2  501    0  0.30106780409E+02  0.63265520103E+02 -0.49556170703E+03  0.64069520814E+03  0.40000000000E+03 0.  1.
   -9000007    1    1    2    0  503 -0.30106780409E+02 -0.63265520103E+02 -0.11032422610E+04  0.11756072604E+04  0.40000000000E+03 0.  1.
<mgrwt>
<rscale>  2 0.40608982E+03</rscale>
<asrwt>0</asrwt>
<pdfrwt beam="1">  1       21 0.16730655E-01 0.40608982E+03</pdfrwt>
<pdfrwt beam="2">  1       21 0.26270049E+00 0.40608982E+03</pdfrwt>
<totfact> 0.15172033E+03</totfact>
</mgrwt>
</event>
<event>
 4    1  0.5003329E-002  0.4337458E+03  0.7818608E-02  0.1032683E+00
         21   -1    0    0  501  502  0.00000000000E+00  0.00000000000E+00  0.10623422198E+04  0.10623422198E+04  0.00000000000E+00 0.  1.
         21   -1    0    0  502  503 -0.00000000000E+00 -0.00000000000E+00 -0.42970549646E+03  0.42970549646E+03  0.00000000000E+00 0. -1.
    9000007    1    1    2  501    0  0.65003294895E+02  0.15462859124E+03  0.88831438784E+03  0.98855342861E+03  0.40000000000E+03 0.  1.
   -9000007    1    1    2    0  503 -0.65003294895E+02 -0.15462859124E+03 -0.25567766449E+03  0.50349428765E+03  0.40000000000E+03 0. -1.
<mgrwt>
<rscale>  2 0.43374581E+03</rscale>
<asrwt>0</asrwt>
<pdfrwt beam="1">  1       21 0.16343726E+00 0.43374581E+03</pdfrwt>
<pdfrwt beam="2">  1       21 0.66108539E-01 0.43374581E+03</pdfrwt>
<totfact> 0.41634591E+02</totfact>
</mgrwt>
</event>
<event>
 4    1  0.5003329E-002  0.5131262E+03  0.7818608E-02  0.1010408E+00
         21   -1    0    0  503  502  0.00000000000E+00  0.00000000000E+00  0.27109751846E+03  0.27109751846E+03  0.00000000000E+00 0. -1.
         21   -1    0    0  501  503 -0.00000000000E+00 -0.00000000000E+00 -0.10545025117E+04  0.10545025117E+04  0.00000000000E+00 0. -1.
    9000007    1    1    2  501    0  0.14336510410E+03  0.28765418330E+03 -0.20544862633E+03  0.55272743762E+03  0.40000000000E+03 0. -1.
   -9000007    1    1    2    0  502 -0.14336510410E+03 -0.28765418330E+03 -0.57795636694E+03  0.77287259256E+03  0.40000000000E+03 0. -1.
<mgrwt>
<rscale>  2 0.51312619E+03</rscale>
<asrwt>0</asrwt>
<pdfrwt beam="1">  1       21 0.41707311E-01 0.51312619E+03</pdfrwt>
<pdfrwt beam="2">  1       21 0.16223116E+00 0.51312619E+03</pdfrwt>
<totfact> 0.11048864E+03</totfact>
</mgrwt>
</event>
<event>
 4    1  0.5003329E-002  0.4469537E+03  0.7818608E-02  0.1028634E+00
         21   -1    0    0  503  502  0.00000000000E+00  0.00000000000E+00  0.18639551552E+03  0.18639551552E+03  0.00000000000E+00 0. -1.
         21   -1    0    0  501  503 -0.00000000000E+00 -0.00000000000E+00 -0.21840750510E+04  0.21840750510E+04  0.00000000000E+00 0. -1.
    9000007    1    1    2  501    0  0.19652244256E+02  0.19844739206E+03 -0.18446804183E+04  0.18980551688E+04  0.40000000000E+03 0. -1.
   -9000007    1    1    2    0  502 -0.19652244256E+02 -0.19844739206E+03 -0.15299911714E+03  0.47241539768E+03  0.40000000000E+03 0. -1.
<mgrwt>
<rscale>  2 0.44695366E+03</rscale>
<asrwt>0</asrwt>
<pdfrwt beam="1">  1       21 0.28676233E-01 0.44695366E+03</pdfrwt>
<pdfrwt beam="2">  1       21 0.33601154E+00 0.44695366E+03</pdfrwt>
<totfact> 0.19058387E+02</totfact>
</mgrwt>
</event>
<event>
 4    1  0.5003329E-002  0.4197879E+03  0.7818608E-02  0.1037135E+00
         21   -1    0    0  501  502  0.00000000000E+00  0.00000000000E+00  0.24436008430E+03  0.24436008430E+03  0.00000000000E+00 0. -1.
         21   -1    0    0  502  503 -0.00000000000E+00 -0.00000000000E+00 -0.77260816058E+03  0.77260816058E+03  0.00000000000E+00 0. -1.
    9000007    1    1    2  501    0  0.10921503810E+03  0.65528331658E+02 -0.13290494251E+03  0.44032443782E+03  0.40000000000E+03 0. -1.
   -9000007    1    1    2    0  503 -0.10921503810E+03 -0.65528331658E+02 -0.39534313377E+03  0.57664380706E+03  0.40000000000E+03 0. -1.
<mgrwt>
<rscale>  2 0.41978791E+03</rscale>
<asrwt>0</asrwt>
<pdfrwt beam="1">  1       21 0.37593859E-01 0.41978791E+03</pdfrwt>
<pdfrwt beam="2">  1       21 0.11886279E+00 0.41978791E+03</pdfrwt>
<totfact> 0.32414631E+03</totfact>
</mgrwt>
</event>
<event>
 4    1  0.5003329E-002  0.4814984E+03  0.7818608E-02  0.1018724E+00
         21   -1    0    0  503  502  0.00000000000E+00  0.00000000000E+00  0.15436073748E+04  0.15436073748E+04  0.00000000000E+00 0. -1.
         21   -1    0    0  501  503 -0.00000000000E+00 -0.00000000000E+00 -0.25510278966E+03  0.25510278966E+03  0.00000000000E+00 0. -1.
    9000007    1    1    2  501    0 -0.21397141524E+03 -0.16142155377E+03  0.67513228092E+02  0.48620851548E+03  0.40000000000E+03 0. -1.
   -9000007    1    1    2    0  502  0.21397141524E+03  0.16142155377E+03  0.12209913570E+04  0.13125016489E+04  0.40000000000E+03 0. -1.
<mgrwt>
<rscale>  2 0.48149837E+03</rscale>
<asrwt>0</asrwt>
<pdfrwt beam="1">  1       21 0.23747805E+00 0.48149837E+03</pdfrwt>
<pdfrwt beam="2">  1       21 0.39246584E-01 0.48149837E+03</pdfrwt>
<totfact> 0.39366292E+02</totfact>
</mgrwt>
</event>
<event>
 4    1  0.5003329E-002  0.4465564E+03  0.7818608E-02  0.1028754E+00
         21   -1    0    0  501  502  0.00000000000E+00  0.00000000000E+00  0.35043174395E+03  0.35043174395E+03  0.00000000000E+00 0.  1.
         21   -1    0    0  502  503 -0.00000000000E+00 -0.00000000000E+00 -0.87429527312E+03  0.87429527312E+03  0.00000000000E+00 0. -1.
    9000007    1    1    2  501    0  0.18947554823E+03 -0.59259128854E+02  0.99899291860E+02  0.45759424848E+03  0.40000000000E+03 0.  1.
   -9000007    1    1    2    0  503 -0.18947554823E+03  0.59259128854E+02 -0.62376282104E+03  0.76713276859E+03  0.40000000000E+03 0. -1.
<mgrwt>
<rscale>  2 0.44655641E+03</rscale>
<asrwt>0</asrwt>
<pdfrwt beam="1">  1       21 0.53912577E-01 0.44655641E+03</pdfrwt>
<pdfrwt beam="2">  1       21 0.13450696E+00 0.44655641E+03</pdfrwt>
<totfact> 0.10962557E+03</totfact>
</mgrwt>
</event>
<event>
 4    1  0.5003329E-002  0.4111962E+03  0.7818608E-02  0.1039970E+00
         21   -1    0    0  501  502  0.00000000000E+00  0.00000000000E+00  0.22743939970E+03  0.22743939970E+03  0.00000000000E+00 0. -1.
         21   -1    0    0  502  503 -0.00000000000E+00 -0.00000000000E+00 -0.75336616165E+03  0.75336616165E+03  0.00000000000E+00 0.  1.
    9000007    1    1    2  501    0  0.35294142660E+02  0.88524717486E+02 -0.31931993963E+03  0.52062224881E+03  0.40000000000E+03 0. -1.
   -9000007    1    1    2    0  503 -0.35294142660E+02 -0.88524717486E+02 -0.20660682232E+03  0.46018331254E+03  0.40000000000E+03 0. -1.
<mgrwt>
<rscale>  2 0.41119618E+03</rscale>
<asrwt>0</asrwt>
<pdfrwt beam="1">  1       21 0.34990676E-01 0.41119618E+03</pdfrwt>
<pdfrwt beam="2">  1       21 0.11590249E+00 0.41119618E+03</pdfrwt>
<totfact> 0.40076789E+03</totfact>
</mgrwt>
</event>
<event>
 4    1  0.5003329E-002  0.4227922E+03  0.7818608E-02  0.1036161E+00
         21   -1    0    0  501  502  0.00000000000E+00  0.00000000000E+00  0.12875116936E+04  0.12875116936E+04  0.00000000000E+00 0.  1.
         21   -1    0    0  502  503 -0.00000000000E+00 -0.00000000000E+00 -0.18422940213E+03  0.18422940213E+03  0.00000000000E+00 0.  1.
    9000007    1    1    2  501    0  0.13118628068E+03  0.39285763067E+02  0.91691402882E+03  0.10096952747E+04  0.40000000000E+03 0.  1.
   -9000007    1    1    2    0  503 -0.13118628068E+03 -0.39285763067E+02  0.18636826261E+03  0.46204582103E+03  0.40000000000E+03 0.  1.
<mgrwt>
<rscale>  2 0.42279216E+03</rscale>
<asrwt>0</asrwt>
<pdfrwt beam="1">  1       21 0.19807872E+00 0.42279216E+03</pdfrwt>
<pdfrwt beam="2">  1       21 0.28342986E-01 0.42279216E+03</pdfrwt>
<totfact> 0.13983011E+03</totfact>
</mgrwt>
</event>
<event>
 4    1  0.5003329E-002  0.4163159E+03  0.7818608E-02  0.1038272E+00
         21   -1    0    0  503  502  0.00000000000E+00  0.00000000000E+00  0.28935129417E+03  0.28935129417E+03  0.00000000000E+00 0.  1.
         21   -1    0    0  501  503 -0.00000000000E+00 -0.00000000000E+00 -0.18174610542E+04  0.18174610542E+04  0.00000000000E+00 0.  1.
    9000007    1    1    2  501    0 -0.61523047524E+02  0.97641552068E+02 -0.16265778081E+04  0.16790099237E+04  0.40000000000E+03 0.  1.
   -9000007    1    1    2    0  502  0.61523047524E+02 -0.97641552068E+02  0.98468048069E+02  0.42780242467E+03  0.40000000000E+03 0.  1.
<mgrwt>
<rscale>  2 0.41631594E+03</rscale>
<asrwt>0</asrwt>
<pdfrwt beam="1">  1       21 0.44515584E-01 0.41631594E+03</pdfrwt>
<pdfrwt beam="2">  1       21 0.27960939E+00 0.41631594E+03</pdfrwt>
<totfact> 0.17401229E+02</totfact>
</mgrwt>
</event>
<event>
 4    1  0.5003329E-002  0.4343649E+03  0.7818608E-02  0.1032490E+00
         21   -1    0    0  501  502  0.00000000000E+00  0.00000000000E+00  0.28775700705E+04  0.28775700705E+04  0.00000000000E+00 0. -1.
         21   -1    0    0  502  503 -0.00000000000E+00 -0.00000000000E+00 -0.85726261878E+02  0.85726261878E+02  0.00000000000E+00 0. -1.
    9000007    1    1    2  501    0 -0.13195749206E+03 -0.10611363491E+03  0.21144243963E+04  0.21585790258E+04  0.40000000000E+03 0. -1.
   -9000007    1    1    2    0  503  0.13195749206E+03  0.10611363491E+03  0.67741941237E+03  0.80471730656E+03  0.40000000000E+03 0. -1.
<mgrwt>
<rscale>  2 0.43436492E+03</rscale>
<asrwt>0</asrwt>
<pdfrwt beam="1">  1       21 0.44270301E+00 0.43436492E+03</pdfrwt>
<pdfrwt beam="2">  1       21 0.13188658E-01 0.43436492E+03</pdfrwt>
<totfact> 0.17623152E+02</totfact>
</mgrwt>
</event>
<event>
 4    1  0.5003329E-002  0.4921407E+03  0.7818608E-02  0.1015851E+00
         21   -1    0    0  503  502  0.00000000000E+00  0.00000000000E+00  0.69085820598E+02  0.69085820598E+02  0.00000000000E+00 0. -1.
         21   -1    0    0  501  503 -0.00000000000E+00 -0.00000000000E+00 -0.40611777118E+04  0.40611777118E+04  0.00000000000E+00 0.  1.
    9000007    1    1    2  501    0 -0.28586918394E+03  0.21937206629E+02 -0.27597204433E+04  0.28032587031E+04  0.40000000000E+03 0.  1.
   -9000007    1    1    2    0  502  0.28586918394E+03 -0.21937206629E+02 -0.12323714479E+04  0.13270048293E+04  0.40000000000E+03 0. -1.
<mgrwt>
<rscale>  2 0.49214066E+03</rscale>
<asrwt>0</asrwt>
<pdfrwt beam="1">  1       21 0.10628591E-01 0.49214066E+03</pdfrwt>
<pdfrwt beam="2">  1       21 0.62479637E+00 0.49214066E+03</pdfrwt>
<totfact> 0.11352064E+01</totfact>
</mgrwt>
</event>
<event>
 4    1  0.5003329E-002  0.5998826E+03  0.7818608E-02  0.9905650E-01
         21   -1    0    0  503  502  0.00000000000E+00  0.00000000000E+00  0.34405265928E+03  0.34405265928E+03  0.00000000000E+00 0.  1.
         21   -1    0    0  501  503 -0.00000000000E+00 -0.00000000000E+00 -0.16388884183E+04  0.16388884183E+04  0.00000000000E+00 0. -1.
    9000007    1    1    2  501    0 -0.21657677585E+03 -0.39109282071E+03 -0.12437838859E+04  0.13808900931E+04  0.40000000000E+03 0. -1.
   -9000007    1    1    2    0  502  0.21657677585E+03  0.39109282071E+03 -0.51051873141E+02  0.60205098455E+03  0.40000000000E+03 0.  1.
<mgrwt>
<rscale>  2 0.59988257E+03</rscale>
<asrwt>0</asrwt>
<pdfrwt beam="1">  1       21 0.52931179E-01 0.59988257E+03</pdfrwt>
<pdfrwt beam="2">  1       21 0.25213668E+00 0.59988257E+03</pdfrwt>
<totfact> 0.16089229E+02</totfact>
</mgrwt>
</event>
<event>
 4    1  0.5003329E-002  0.5737313E+03  0.7818608E-02  0.9961456E-01
         21   -1    0    0  501  502  0.00000000000E+00  0.00000000000E+00  0.52618659120E+03  0.52618659120E+03  0.00000000000E+00 0.  1.
         21   -1    0    0  502  503 -0.00000000000E+00 -0.00000000000E+00 -0.63931441528E+03  0.63931441528E+03  0.00000000000E+00 0.  1.
    9000007    1    1    2  501    0 -0.22073229402E+03  0.34705170629E+03  0.28875040397E+02  0.57445748356E+03  0.40000000000E+03 0.  1.
   -9000007    1    1    2    0  503  0.22073229402E+03 -0.34705170629E+03 -0.14200286449E+03  0.59104352292E+03  0.40000000000E+03 0.  1.
<mgrwt>
<rscale>  2 0.57373132E+03</rscale>
<asrwt>0</asrwt>
<pdfrwt beam="1">  1       21 0.80951784E-01 0.57373132E+03</pdfrwt>
<pdfrwt beam="2">  1       21 0.98356063E-01 0.57373132E+03</pdfrwt>
<totfact> 0.92865724E+02</totfact>
</mgrwt>
</event>
<event>
 4    1  0.5003329E-002  0.5004022E+03  0.7818608E-02  0.1013674E+00
         21   -1    0    0  503  502  0.00000000000E+00  0.00000000000E+00  0.12546799274E+04  0.12546799274E+04  0.00000000000E+00 0. -1.
         21   -1    0    0  501  503 -0.00000000000E+00 -0.00000000000E+00 -0.21336384250E+03  0.21336384250E+03  0.00000000000E+00 0. -1.
    9000007    1    1    2  501    0 -0.25686261008E+02  0.29957072535E+03  0.33405582192E+03  0.60166078121E+03  0.40000000000E+03 0. -1.
   -9000007    1    1    2    0  502  0.25686261008E+02 -0.29957072535E+03  0.70726026297E+03  0.86638298868E+03  0.40000000000E+03 0. -1.
<mgrwt>
<rscale>  2 0.50040224E+03</rscale>
<asrwt>0</asrwt>
<pdfrwt beam="1">  1       21 0.19302768E+00 0.50040224E+03</pdfrwt>
<pdfrwt beam="2">  1       21 0.32825207E-01 0.50040224E+03</pdfrwt>
<totfact> 0.10914737E+03</totfact>
</mgrwt>
</event>
<event>
 4    1  0.5003329E-002  0.4641880E+03  0.7818608E-02  0.1023574E+00
         21   -1    0    0  501  502  0.00000000000E+00  0.00000000000E+00  0.15807928419E+04  0.15807928419E+04  0.00000000000E+00 0. -1.
         21   -1    0    0  502  503 -0.00000000000E+00 -0.00000000000E+00 -0.21836231328E+03  0.21836231328E+03  0.00000000000E+00 0. -1.
    9000007    1    1    2  501    0 -0.16694205660E+03  0.16613491333E+03  0.12326671202E+04  0.13171707136E+04  0.40000000000E+03 0. -1.
   -9000007    1    1    2    0  503  0.16694205660E+03 -0.16613491333E+03  0.12976340841E+03  0.48198444150E+03  0.40000000000E+03 0. -1.
<mgrwt>
<rscale>  2 0.46418796E+03</rscale>
<asrwt>0</asrwt>
<pdfrwt beam="1">  1       21 0.24319889E+00 0.46418796E+03</pdfrwt>
<pdfrwt beam="2">  1       21 0.33594203E-01 0.46418796E+03</pdfrwt>
<totfact> 0.50213013E+02</totfact>
</mgrwt>
</event>
<event>
 4    1  0.5003329E-002  0.5256074E+03  0.7818608E-02  0.1007303E+00
         21   -1    0    0  503  502  0.00000000000E+00  0.00000000000E+00  0.25861576751E+03  0.25861576751E+03  0.00000000000E+00 0.  1.
         21   -1    0    0  501  503 -0.00000000000E+00 -0.00000000000E+00 -0.13505323530E+04  0.13505323530E+04  0.00000000000E+00 0. -1.
    9000007    1    1    2  501    0  0.12848942245E+03  0.31583794747E+03 -0.91380322144E+03  0.10541818952E+04  0.40000000000E+03 0.  1.
   -9000007    1    1    2    0  502 -0.12848942245E+03 -0.31583794747E+03 -0.17811336405E+03  0.55496622528E+03  0.40000000000E+03 0.  1.
<mgrwt>
<rscale>  2 0.52560740E+03</rscale>
<asrwt>0</asrwt>
<pdfrwt beam="1">  1       21 0.39787040E-01 0.52560740E+03</pdfrwt>
<pdfrwt beam="2">  1       21 0.20777421E+00 0.52560740E+03</pdfrwt>
<totfact> 0.58149039E+02</totfact>
</mgrwt>
</event>
<event>
 4    1  0.5003329E-002  0.4720357E+03  0.7818608E-02  0.1021347E+00
         21   -1    0    0  501  502  0.00000000000E+00  0.00000000000E+00  0.12220044114E+04  0.12220044114E+04  0.00000000000E+00 0.  1.
         21   -1    0    0  502  503 -0.00000000000E+00 -0.00000000000E+00 -0.26445333462E+03  0.26445333462E+03  0.00000000000E+00 0.  1.
    9000007    1    1    2  501    0 -0.88887457634E+02  0.23434315724E+03  0.89292823749E+03  0.10100190755E+04  0.40000000000E+03 0.  1.
   -9000007    1    1    2    0  503  0.88887457634E+02 -0.23434315724E+03  0.64622839320E+02  0.47643867059E+03  0.40000000000E+03 0.  1.
<mgrwt>
<rscale>  2 0.47203569E+03</rscale>
<asrwt>0</asrwt>
<pdfrwt beam="1">  1       21 0.18800068E+00 0.47203569E+03</pdfrwt>
<pdfrwt beam="2">  1       21 0.40685129E-01 0.47203569E+03</pdfrwt>
<totfact> 0.77198473E+02</totfact>
</mgrwt>
</event>
<event>
 4    1  0.5003329E-002  0.4564494E+03  0.7818608E-02  0.1025816E+00
         21   -1    0    0  501  502  0.00000000000E+00  0.00000000000E+00  0.74627845600E+03  0.74627845600E+03  0.00000000000E+00 0. -1.
         21   -1    0    0  502  503 -0.00000000000E+00 -0.00000000000E+00 -0.38495797979E+03  0.38495797979E+03  0.00000000000E+00 0.  1.
    9000007    1    1    2  501    0 -0.12073188852E+03 -0.18376566956E+03  0.47715319764E+03  0.66031900187E+03  0.40000000000E+03 0. -1.
   -9000007    1    1    2    0  503  0.12073188852E+03  0.18376566956E+03 -0.11583272143E+03  0.47091743392E+03  0.40000000000E+03 0.  1.
<mgrwt>
<rscale>  2 0.45644935E+03</rscale>
<asrwt>0</asrwt>
<pdfrwt beam="1">  1       21 0.11481207E+00 0.45644935E+03</pdfrwt>
<pdfrwt beam="2">  1       21 0.59224305E-01 0.45644935E+03</pdfrwt>
<totfact> 0.13363644E+03</totfact>
</mgrwt>
</event>
<event>
 4    1  0.5003329E-002  0.4584436E+03  0.7818608E-02  0.1025234E+00
         21   -1    0    0  503  502  0.00000000000E+00  0.00000000000E+00  0.80395201582E+03  0.80395201582E+03  0.00000000000E+00 0. -1.
         21   -1    0    0  501  503 -0.00000000000E+00 -0.00000000000E+00 -0.26584079478E+03  0.26584079478E+03  0.00000000000E+00 0. -1.
    9000007    1    1    2  501    0  0.22091481818E+03 -0.36975155033E+02  0.20009127934E+03  0.50020699620E+03  0.40000000000E+03 0. -1.
   -9000007    1    1    2    0  502 -0.22091481818E+03  0.36975155033E+02  0.33801994170E+03  0.56958581440E+03  0.40000000000E+03 0. -1.
<mgrwt>
<rscale>  2 0.45844358E+03</rscale>
<asrwt>0</asrwt>
<pdfrwt beam="1">  1       21 0.12368492E+00 0.45844358E+03</pdfrwt>
<pdfrwt beam="2">  1       21 0.40898584E-01 0.45844358E+03</pdfrwt>
<totfact> 0.24278449E+03</totfact>
</mgrwt>
</event>
<event>
 4    1  0.5003329E-002  0.4332816E+03  0.7818608E-02  0.1032828E+00
         21   -1    0    0  501  502  0.00000000000E+00  0.00000000000E+00  0.35781173509E+03  0.35781173509E+03  0.00000000000E+00 0. -1.
         21   -1    0    0  502  503 -0.00000000000E+00 -0.00000000000E+00 -0.52578798878E+03  0.52578798878E+03  0.00000000000E+00 0.  1.
    9000007    1    1    2  501    0 -0.48632190494E+02  0.15927280846E+03 -0.63611662333E+02  0.43792620503E+03  0.40000000000E+03 0.  1.
   -9000007    1    1    2    0  503  0.48632190494E+02 -0.15927280846E+03 -0.10436459135E+03  0.44567351884E+03  0.40000000000E+03 0. -1.
<mgrwt>
<rscale>  2 0.43328157E+03</rscale>
<asrwt>0</asrwt>
<pdfrwt beam="1">  1       21 0.55047959E-01 0.43328157E+03</pdfrwt>
<pdfrwt beam="2">  1       21 0.80890460E-01 0.43328157E+03</pdfrwt>
<totfact> 0.36721246E+03</totfact>
</mgrwt>
</event>
<event>
 4    1  0.5003329E-002  0.4277767E+03  0.7818608E-02  0.1034565E+00
         21   -1    0    0  501  502  0.00000000000E+00  0.00000000000E+00  0.41282861162E+03  0.41282861162E+03  0.00000000000E+00 0.  1.
         21   -1    0    0  502  503 -0.00000000000E+00 -0.00000000000E+00 -0.47035921163E+03  0.47035921163E+03  0.00000000000E+00 0.  1.
    9000007    1    1    2  501    0  0.53923868615E+02 -0.14172186341E+03  0.77218339309E+02  0.43469016794E+03  0.40000000000E+03 0.  1.
   -9000007    1    1    2    0  503 -0.53923868615E+02  0.14172186341E+03 -0.13474893932E+03  0.44849765532E+03  0.40000000000E+03 0.  1.
<mgrwt>
<rscale>  2 0.42777666E+03</rscale>
<asrwt>0</asrwt>
<pdfrwt beam="1">  1       21 0.63512094E-01 0.42777666E+03</pdfrwt>
<pdfrwt beam="2">  1       21 0.72362955E-01 0.42777666E+03</pdfrwt>
<totfact> 0.34737950E+03</totfact>
</mgrwt>
</event>
<event>
 4    1  0.5003329E-002  0.5037391E+03  0.7818608E-02  0.1012808E+00
         21   -1    0    0  503  502  0.00000000000E+00  0.00000000000E+00  0.11151008156E+04  0.11151008156E+04  0.00000000000E+00 0.  1.
         21   -1    0    0  501  503 -0.00000000000E+00 -0.00000000000E+00 -0.31298570477E+03  0.31298570477E+03  0.00000000000E+00 0.  1.
    9000007    1    1    2  501    0 -0.18899606373E+03  0.24090166095E+03  0.28018091275E+02  0.50451772594E+03  0.40000000000E+03 0.  1.
   -9000007    1    1    2    0  502  0.18899606373E+03 -0.24090166095E+03  0.77409701959E+03  0.92356879445E+03  0.40000000000E+03 0.  1.
<mgrwt>
<rscale>  2 0.50373914E+03</rscale>
<asrwt>0</asrwt>
<pdfrwt beam="1">  1       21 0.17155397E+00 0.50373914E+03</pdfrwt>
<pdfrwt beam="2">  1       21 0.48151647E-01 0.50373914E+03</pdfrwt>
<totfact> 0.69979867E+02</totfact>
</mgrwt>
</event>
<event>
 4    1  0.5003329E-002  0.4059659E+03  0.7818608E-02  0.1041733E+00
         21   -1    0    0  503  502  0.00000000000E+00  0.00000000000E+00  0.21131927208E+03  0.21131927208E+03  0.00000000000E+00 0. -1.
         21   -1    0    0  501  503 -0.00000000000E+00 -0.00000000000E+00 -0.15792432879E+04  0.15792432879E+04  0.00000000000E+00 0. -1.
    9000007    1    1    2  501    0 -0.60124910122E+02  0.34544668400E+02 -0.13209057663E+04  0.13818829120E+04  0.40000000000E+03 0.  1.
   -9000007    1    1    2    0  502  0.60124910122E+02 -0.34544668400E+02 -0.47018249538E+02  0.40867964804E+03  0.40000000000E+03 0.  1.
<mgrwt>
<rscale>  2 0.40596593E+03</rscale>
<asrwt>0</asrwt>
<pdfrwt beam="1">  1       21 0.32510658E-01 0.40596593E+03</pdfrwt>
<pdfrwt beam="2">  1       21 0.24296050E+00 0.40596593E+03</pdfrwt>
<totfact> 0.55530780E+02</totfact>
</mgrwt>
</event>
<event>
 4    1  0.5003329E-002  0.4045785E+03  0.7818608E-02  0.1042206E+00
         21   -1    0    0  501  502  0.00000000000E+00  0.00000000000E+00  0.39226803063E+03  0.39226803063E+03  0.00000000000E+00 0.  1.
         21   -1    0    0  502  503 -0.00000000000E+00 -0.00000000000E+00 -0.71636890424E+03  0.71636890424E+03  0.00000000000E+00 0.  1.
    9000007    1    1    2  501    0 -0.55697789309E+02 -0.24114844596E+02  0.19612395371E+03  0.44960913545E+03  0.40000000000E+03 0.  1.
   -9000007    1    1    2    0  503  0.55697789309E+02  0.24114844596E+02 -0.52022482731E+03  0.65902779943E+03  0.40000000000E+03 0.  1.
<mgrwt>
<rscale>  2 0.40457851E+03</rscale>
<asrwt>0</asrwt>
<pdfrwt beam="1">  1       21 0.60348928E-01 0.40457851E+03</pdfrwt>
<pdfrwt beam="2">  1       21 0.11021060E+00 0.40457851E+03</pdfrwt>
<totfact> 0.14509367E+03</totfact>
</mgrwt>
</event>
<event>
 4    1  0.5003329E-002  0.4230304E+03  0.7818608E-02  0.1036085E+00
         21   -1    0    0  503  502  0.00000000000E+00  0.00000000000E+00  0.56092660880E+03  0.56092660880E+03  0.00000000000E+00 0. -1.
         21   -1    0    0  501  503 -0.00000000000E+00 -0.00000000000E+00 -0.76326343947E+03  0.76326343947E+03  0.00000000000E+00 0. -1.
    9000007    1    1    2  501    0 -0.68268201767E+02  0.11955832955E+03 -0.60627925762E+03  0.73927618638E+03  0.40000000000E+03 0. -1.
   -9000007    1    1    2    0  502  0.68268201767E+02 -0.11955832955E+03  0.40394242694E+03  0.58491386188E+03  0.40000000000E+03 0. -1.
<mgrwt>
<rscale>  2 0.42303043E+03</rscale>
<asrwt>0</asrwt>
<pdfrwt beam="1">  1       21 0.86296402E-01 0.42303043E+03</pdfrwt>
<pdfrwt beam="2">  1       21 0.11742514E+00 0.42303043E+03</pdfrwt>
<totfact> 0.54703558E+02</totfact>
</mgrwt>
</event>
<event>
 4    1  0.5003329E-002  0.4060918E+03  0.7818608E-02  0.1041690E+00
         21   -1    0    0  501  502  0.00000000000E+00  0.00000000000E+00  0.10288526135E+04  0.10288526135E+04  0.00000000000E+00 0. -1.
         21   -1    0    0  502  503 -0.00000000000E+00 -0.00000000000E+00 -0.17207132817E+03  0.17207132817E+03  0.00000000000E+00 0. -1.
    9000007    1    1    2  501    0  0.44166528752E+02 -0.54404628170E+02  0.58553699898E+03  0.71257569633E+03  0.40000000000E+03 0.  1.
   -9000007    1    1    2    0  503 -0.44166528752E+02  0.54404628170E+02  0.27124428630E+03  0.48834824529E+03  0.40000000000E+03 0.  1.
<mgrwt>
<rscale>  2 0.40609179E+03</rscale>
<asrwt>0</asrwt>
<pdfrwt beam="1">  1       21 0.15828501E+00 0.40609179E+03</pdfrwt>
<pdfrwt beam="2">  1       21 0.26472513E-01 0.40609179E+03</pdfrwt>
<totfact> 0.30836264E+03</totfact>
</mgrwt>
</event>
<event>
 4    1  0.5003329E-002  0.4042481E+03  0.7818608E-02  0.1042319E+00
         21   -1    0    0  503  502  0.00000000000E+00  0.00000000000E+00  0.14438517134E+03  0.14438517134E+03  0.00000000000E+00 0.  1.
         21   -1    0    0  501  503 -0.00000000000E+00 -0.00000000000E+00 -0.11707236096E+04  0.11707236096E+04  0.00000000000E+00 0.  1.
    9000007    1    1    2  501    0 -0.12686072038E+02  0.57057507067E+02 -0.39328595847E+03  0.56399498284E+03  0.40000000000E+03 0.  1.
   -9000007    1    1    2    0  502  0.12686072038E+02 -0.57057507067E+02 -0.63305247974E+03  0.75111379806E+03  0.40000000000E+03 0.  1.
<mgrwt>
<rscale>  2 0.40424806E+03</rscale>
<asrwt>0</asrwt>
<pdfrwt beam="1">  1       21 0.22213104E-01 0.40424806E+03</pdfrwt>
<pdfrwt beam="2">  1       21 0.18011132E+00 0.40424806E+03</pdfrwt>
<totfact> 0.30055421E+03</totfact>
</mgrwt>
</event>
<event>
 4    1  0.5003329E-002  0.5151343E+03  0.7818608E-02  0.1009902E+00
         21   -1    0    0  503  502  0.00000000000E+00  0.00000000000E+00  0.53986260770E+03  0.53986260770E+03  0.00000000000E+00 0.  1.
         21   -1    0    0  501  503 -0.00000000000E+00 -0.00000000000E+00 -0.58639955048E+03  0.58639955048E+03  0.00000000000E+00 0.  1.
    9000007    1    1    2  501    0 -0.47540568552E+02 -0.32109696868E+03  0.20322525122E+03  0.55377240062E+03  0.40000000000E+03 0.  1.
   -9000007    1    1    2    0  502  0.47540568552E+02  0.32109696868E+03 -0.24976219401E+03  0.57248975756E+03  0.40000000000E+03 0.  1.
<mgrwt>
<rscale>  2 0.51513432E+03</rscale>
<asrwt>0</asrwt>
<pdfrwt beam="1">  1       21 0.83055786E-01 0.51513432E+03</pdfrwt>
<pdfrwt beam="2">  1       21 0.90215315E-01 0.51513432E+03</pdfrwt>
<totfact> 0.10979854E+03</totfact>
</mgrwt>
</event>
<event>
 4    1  0.5003329E-002  0.6557213E+03  0.7818608E-02  0.9796102E-01
         21   -1    0    0  501  502  0.00000000000E+00  0.00000000000E+00  0.67880643362E+03  0.67880643362E+03  0.00000000000E+00 0. -1.
         21   -1    0    0  502  503 -0.00000000000E+00 -0.00000000000E+00 -0.90370974268E+03  0.90370974268E+03  0.00000000000E+00 0.  1.
    9000007    1    1    2  501    0 -0.45065553760E+03 -0.25861181059E+03  0.32027872385E+03  0.72975951045E+03  0.40000000000E+03 0. -1.
   -9000007    1    1    2    0  503  0.45065553760E+03  0.25861181059E+03 -0.54518203291E+03  0.85275666585E+03  0.40000000000E+03 0.  1.
<mgrwt>
<rscale>  2 0.65572134E+03</rscale>
<asrwt>0</asrwt>
<pdfrwt beam="1">  1       21 0.10443176E+00 0.65572134E+03</pdfrwt>
<pdfrwt beam="2">  1       21 0.13903227E+00 0.65572134E+03</pdfrwt>
<totfact> 0.20301183E+02</totfact>
</mgrwt>
</event>
<event>
 4    1  0.5003329E-002  0.5366093E+03  0.7818608E-02  0.1004642E+00
         21   -1    0    0  501  502  0.00000000000E+00  0.00000000000E+00  0.18338027419E+04  0.18338027419E+04  0.00000000000E+00 0.  1.
         21   -1    0    0  502  503 -0.00000000000E+00 -0.00000000000E+00 -0.29797425291E+03  0.29797425291E+03  0.00000000000E+00 0.  1.
    9000007    1    1    2  501    0  0.23976447991E+03 -0.26544782276E+03  0.15010030482E+04  0.15940388022E+04  0.40000000000E+03 0.  1.
   -9000007    1    1    2    0  503 -0.23976447991E+03  0.26544782276E+03  0.34825440829E+02  0.53773819259E+03  0.40000000000E+03 0.  1.
<mgrwt>
<rscale>  2 0.53660931E+03</rscale>
<asrwt>0</asrwt>
<pdfrwt beam="1">  1       21 0.28212349E+00 0.53660931E+03</pdfrwt>
<pdfrwt beam="2">  1       21 0.45842194E-01 0.53660931E+03</pdfrwt>
<totfact> 0.14747538E+02</totfact>
</mgrwt>
</event>
<event>
 4    1  0.5003329E-002  0.4877238E+03  0.7818608E-02  0.1017034E+00
         21   -1    0    0  503  502  0.00000000000E+00  0.00000000000E+00  0.38710048847E+03  0.38710048847E+03  0.00000000000E+00 0.  1.
         21   -1    0    0  501  503 -0.00000000000E+00 -0.00000000000E+00 -0.75282459343E+03  0.75282459343E+03  0.00000000000E+00 0. -1.
    9000007    1    1    2  501    0  0.20036643423E+03 -0.19423635793E+03 -0.42717369650E+03  0.64834546168E+03  0.40000000000E+03 0. -1.
   -9000007    1    1    2    0  502 -0.20036643423E+03  0.19423635793E+03  0.61449591544E+02  0.49157962021E+03  0.40000000000E+03 0. -1.
<mgrwt>
<rscale>  2 0.48772376E+03</rscale>
<asrwt>0</asrwt>
<pdfrwt beam="1">  1       21 0.59553922E-01 0.48772376E+03</pdfrwt>
<pdfrwt beam="2">  1       21 0.11581917E+00 0.48772376E+03</pdfrwt>
<totfact> 0.12761600E+03</totfact>
</mgrwt>
</event>
<event>
 4    1  0.5003329E-002  0.4096691E+03  0.7818608E-02  0.1040482E+00
         21   -1    0    0  503  502  0.00000000000E+00  0.00000000000E+00  0.39573362397E+03  0.39573362397E+03  0.00000000000E+00 0.  1.
         21   -1    0    0  501  503 -0.00000000000E+00 -0.00000000000E+00 -0.42441548716E+03  0.42441548716E+03  0.00000000000E+00 0.  1.
    9000007    1    1    2  501    0 -0.87295207207E+02 -0.14433263363E+02 -0.25604219878E+02  0.41046844991E+03  0.40000000000E+03 0.  1.
   -9000007    1    1    2    0  502  0.87295207207E+02  0.14433263363E+02 -0.30776433204E+01  0.40968066122E+03  0.40000000000E+03 0.  1.
<mgrwt>
<rscale>  2 0.40966910E+03</rscale>
<asrwt>0</asrwt>
<pdfrwt beam="1">  1       21 0.60882096E-01 0.40966910E+03</pdfrwt>
<pdfrwt beam="2">  1       21 0.65294691E-01 0.40966910E+03</pdfrwt>
<totfact> 0.48318793E+03</totfact>
</mgrwt>
</event>
<event>
 4    1  0.5003329E-002  0.5403513E+03  0.7818608E-02  0.1003752E+00
         21   -1    0    0  501  502  0.00000000000E+00  0.00000000000E+00  0.62897819855E+03  0.62897819855E+03  0.00000000000E+00 0.  1.
         21   -1    0    0  502  503 -0.00000000000E+00 -0.00000000000E+00 -0.49894270845E+03  0.49894270845E+03  0.00000000000E+00 0.  1.
    9000007    1    1    2  501    0 -0.36274793684E+03  0.19837074105E+02  0.21380874962E+03  0.58111423714E+03  0.40000000000E+03 0.  1.
   -9000007    1    1    2    0  503  0.36274793684E+03 -0.19837074105E+02 -0.83773259525E+02  0.54680666986E+03  0.40000000000E+03 0.  1.
<mgrwt>
<rscale>  2 0.54035134E+03</rscale>
<asrwt>0</asrwt>
<pdfrwt beam="1">  1       21 0.96765876E-01 0.54035134E+03</pdfrwt>
<pdfrwt beam="2">  1       21 0.76760417E-01 0.54035134E+03</pdfrwt>
<totfact> 0.11046531E+03</totfact>
</mgrwt>
</event>
<event>
 4    1  0.5003329E-002  0.4484312E+03  0.7818608E-02  0.1028191E+00
         21   -1    0    0  501  502  0.00000000000E+00  0.00000000000E+00  0.79873415159E+03  0.79873415159E+03  0.00000000000E+00 0.  1.
         21   -1    0    0  502  503 -0.00000000000E+00 -0.00000000000E+00 -0.48653668970E+03  0.48653668970E+03  0.00000000000E+00 0.  1.
    9000007    1    1    2  501    0  0.78309437246E+02 -0.18697093710E+03  0.60250776153E+03  0.75106997143E+03  0.40000000000E+03 0.  1.
   -9000007    1    1    2    0  503 -0.78309437246E+02  0.18697093710E+03 -0.29031029964E+03  0.53420086986E+03  0.40000000000E+03 0.  1.
<mgrwt>
<rscale>  2 0.44843115E+03</rscale>
<asrwt>0</asrwt>
<pdfrwt beam="1">  1       21 0.12288218E+00 0.44843115E+03</pdfrwt>
<pdfrwt beam="2">  1       21 0.74851799E-01 0.44843115E+03</pdfrwt>
<totfact> 0.66932136E+02</totfact>
</mgrwt>
</event>
<event>
 4    1  0.5003329E-002  0.4078927E+03  0.7818608E-02  0.1041080E+00
         21   -1    0    0  501  502  0.00000000000E+00  0.00000000000E+00  0.59812131936E+03  0.59812131936E+03  0.00000000000E+00 0.  1.
         21   -1    0    0  502  503 -0.00000000000E+00 -0.00000000000E+00 -0.29136419801E+03  0.29136419801E+03  0.00000000000E+00 0.  1.
    9000007    1    1    2  501    0 -0.47305479072E+02 -0.64332142773E+02  0.24803804204E+03  0.47738800073E+03  0.40000000000E+03 0.  1.
   -9000007    1    1    2    0  503  0.47305479072E+02  0.64332142773E+02  0.58719079311E+02  0.41209751664E+03  0.40000000000E+03 0.  1.
<mgrwt>
<rscale>  2 0.40789267E+03</rscale>
<asrwt>0</asrwt>
<pdfrwt beam="1">  1       21 0.92018664E-01 0.40789267E+03</pdfrwt>
<pdfrwt beam="2">  1       21 0.44825261E-01 0.40789267E+03</pdfrwt>
<totfact> 0.42375852E+03</totfact>
</mgrwt>
</event>
<event>
 4    1  0.5003329E-002  0.4106198E+03  0.7818608E-02  0.1040163E+00
         21   -1    0    0  501  502  0.00000000000E+00  0.00000000000E+00  0.55656993322E+03  0.55656993322E+03  0.00000000000E+00 0. -1.
         21   -1    0    0  502  503 -0.00000000000E+00 -0.00000000000E+00 -0.42289052417E+03  0.42289052417E+03  0.00000000000E+00 0. -1.
    9000007    1    1    2  501    0  0.20672812185E+02  0.90450264622E+02  0.32765899942E+03  0.52532755062E+03  0.40000000000E+03 0. -1.
   -9000007    1    1    2    0  503 -0.20672812185E+02 -0.90450264622E+02 -0.19397959037E+03  0.45413290677E+03  0.40000000000E+03 0. -1.
<mgrwt>
<rscale>  2 0.41061979E+03</rscale>
<asrwt>0</asrwt>
<pdfrwt beam="1">  1       21 0.85626144E-01 0.41061979E+03</pdfrwt>
<pdfrwt beam="2">  1       21 0.65060081E-01 0.41061979E+03</pdfrwt>
<totfact> 0.22512658E+03</totfact>
</mgrwt>
</event>
<event>
 4    1  0.5003329E-002  0.4416232E+03  0.7818608E-02  0.1030250E+00
         21   -1    0    0  503  502  0.00000000000E+00  0.00000000000E+00  0.71267110960E+03  0.71267110960E+03  0.00000000000E+00 0. -1.
         21   -1    0    0  501  503 -0.00000000000E+00 -0.00000000000E+00 -0.82328920795E+03  0.82328920795E+03  0.00000000000E+00 0. -1.
    9000007    1    1    2  501    0  0.13157707075E+03 -0.13311095364E+03 -0.68280058552E+03  0.81317137869E+03  0.40000000000E+03 0. -1.
   -9000007    1    1    2    0  502 -0.13157707075E+03  0.13311095364E+03  0.57218248717E+03  0.72278893886E+03  0.40000000000E+03 0. -1.
<mgrwt>
<rscale>  2 0.44162320E+03</rscale>
<asrwt>0</asrwt>
<pdfrwt beam="1">  1       21 0.10964171E+00 0.44162320E+03</pdfrwt>
<pdfrwt beam="2">  1       21 0.12665988E+00 0.44162320E+03</pdfrwt>
<totfact> 0.25086281E+02</totfact>
</mgrwt>
</event>
<event>
 4    1  0.5003329E-002  0.4964417E+03  0.7818608E-02  0.1014712E+00
         21   -1    0    0  501  502  0.00000000000E+00  0.00000000000E+00  0.21589897710E+03  0.21589897710E+03  0.00000000000E+00 0.  1.
         21   -1    0    0  502  503 -0.00000000000E+00 -0.00000000000E+00 -0.12332326889E+04  0.12332326889E+04  0.00000000000E+00 0.  1.
    9000007    1    1    2  501    0  0.40425892723E+02 -0.29123898423E+03 -0.31108151798E+03  0.58585502436E+03  0.40000000000E+03 0.  1.
   -9000007    1    1    2    0  503 -0.40425892723E+02  0.29123898423E+03 -0.70625219380E+03  0.86327664163E+03  0.40000000000E+03 0.  1.
<mgrwt>
<rscale>  2 0.49644174E+03</rscale>
<asrwt>0</asrwt>
<pdfrwt beam="1">  1       21 0.33215228E-01 0.49644174E+03</pdfrwt>
<pdfrwt beam="2">  1       21 0.18972810E+00 0.49644174E+03</pdfrwt>
<totfact> 0.11244526E+03</totfact>
</mgrwt>
</event>
<event>
 4    1  0.5003329E-002  0.4663474E+03  0.7818608E-02  0.1022956E+00
         21   -1    0    0  501  502  0.00000000000E+00  0.00000000000E+00  0.95925893410E+03  0.95925893410E+03  0.00000000000E+00 0.  1.
         21   -1    0    0  502  503 -0.00000000000E+00 -0.00000000000E+00 -0.53326732142E+03  0.53326732142E+03  0.00000000000E+00 0.  1.
    9000007    1    1    2  501    0 -0.25051093603E+02 -0.23843720101E+03  0.77880593812E+03  0.90775467246E+03  0.40000000000E+03 0.  1.
   -9000007    1    1    2    0  503  0.25051093603E+02  0.23843720101E+03 -0.35281432544E+03  0.58477158306E+03  0.40000000000E+03 0.  1.
<mgrwt>
<rscale>  2 0.46634736E+03</rscale>
<asrwt>0</asrwt>
<pdfrwt beam="1">  1       21 0.14757830E+00 0.46634736E+03</pdfrwt>
<pdfrwt beam="2">  1       21 0.82041127E-01 0.46634736E+03</pdfrwt>
<totfact> 0.33221033E+02</totfact>
</mgrwt>
</event>
<event>
 4    1  0.5003329E-002  0.4423518E+03  0.7818608E-02  0.1030028E+00
         21   -1    0    0  501  502  0.00000000000E+00  0.00000000000E+00  0.25752785033E+03  0.25752785033E+03  0.00000000000E+00 0.  1.
         21   -1    0    0  502  503 -0.00000000000E+00 -0.00000000000E+00 -0.11434892504E+04  0.11434892504E+04  0.00000000000E+00 0. -1.
    9000007    1    1    2  501    0  0.10267401315E+03  0.15853444587E+03 -0.37215116507E+02  0.44391450573E+03  0.40000000000E+03 0.  1.
   -9000007    1    1    2    0  503 -0.10267401315E+03 -0.15853444587E+03 -0.84874628359E+03  0.95710259503E+03  0.40000000000E+03 0. -1.
<mgrwt>
<rscale>  2 0.44235181E+03</rscale>
<asrwt>0</asrwt>
<pdfrwt beam="1">  1       21 0.39619670E-01 0.44235181E+03</pdfrwt>
<pdfrwt beam="2">  1       21 0.17592142E+00 0.44235181E+03</pdfrwt>
<totfact> 0.10042784E+03</totfact>
</mgrwt>
</event>
<event>
 4    1  0.5003329E-002  0.4024663E+03  0.7818608E-02  0.1042929E+00
         21   -1    0    0  503  502  0.00000000000E+00  0.00000000000E+00  0.48220665835E+03  0.48220665835E+03  0.00000000000E+00 0.  1.
         21   -1    0    0  501  503 -0.00000000000E+00 -0.00000000000E+00 -0.33665363110E+03  0.33665363110E+03  0.00000000000E+00 0. -1.
    9000007    1    1    2  501    0 -0.41130576745E+02 -0.16953757326E+02  0.91989297426E+02  0.41284523138E+03  0.40000000000E+03 0. -1.
   -9000007    1    1    2    0  502  0.41130576745E+02  0.16953757326E+02  0.53563729830E+02  0.40601505808E+03  0.40000000000E+03 0.  1.
<mgrwt>
<rscale>  2 0.40246634E+03</rscale>
<asrwt>0</asrwt>
<pdfrwt beam="1">  1       21 0.74185640E-01 0.40246634E+03</pdfrwt>
<pdfrwt beam="2">  1       21 0.51792866E-01 0.40246634E+03</pdfrwt>
<totfact> 0.51601128E+03</totfact>
</mgrwt>
</event>
<event>
 4    1  0.5003329E-002  0.4488551E+03  0.7818608E-02  0.1028064E+00
         21   -1    0    0  503  502  0.00000000000E+00  0.00000000000E+00  0.14541025371E+03  0.14541025371E+03  0.00000000000E+00 0.  1.
         21   -1    0    0  501  503 -0.00000000000E+00 -0.00000000000E+00 -0.15444643243E+04  0.15444643243E+04  0.00000000000E+00 0.  1.
    9000007    1    1    2  501    0  0.10251294540E+03 -0.17596030005E+03 -0.42848405575E+03  0.62053969833E+03  0.40000000000E+03 0.  1.
   -9000007    1    1    2    0  502 -0.10251294540E+03  0.17596030005E+03 -0.97057001480E+03  0.10693348796E+04  0.40000000000E+03 0.  1.
<mgrwt>
<rscale>  2 0.44885513E+03</rscale>
<asrwt>0</asrwt>
<pdfrwt beam="1">  1       21 0.22370808E-01 0.44885513E+03</pdfrwt>
<pdfrwt beam="2">  1       21 0.23760990E+00 0.44885513E+03</pdfrwt>
<totfact> 0.12197095E+03</totfact>
</mgrwt>
</event>
<event>
 4    1  0.5003329E-002  0.4190551E+03  0.7818608E-02  0.1037374E+00
         21   -1    0    0  503  502  0.00000000000E+00  0.00000000000E+00  0.20953121036E+03  0.20953121036E+03  0.00000000000E+00 0.  1.
         21   -1    0    0  501  503 -0.00000000000E+00 -0.00000000000E+00 -0.12008739744E+04  0.12008739744E+04  0.00000000000E+00 0.  1.
    9000007    1    1    2  501    0 -0.10191862244E+03 -0.72247892170E+02 -0.88327332159E+03  0.97763946532E+03  0.40000000000E+03 0.  1.
   -9000007    1    1    2    0  502  0.10191862244E+03  0.72247892170E+02 -0.10806944243E+03  0.43276571942E+03  0.40000000000E+03 0.  1.
<mgrwt>
<rscale>  2 0.41905508E+03</rscale>
<asrwt>0</asrwt>
<pdfrwt beam="1">  1       21 0.32235570E-01 0.41905508E+03</pdfrwt>
<pdfrwt beam="2">  1       21 0.18474985E+00 0.41905508E+03</pdfrwt>
<totfact> 0.13366121E+03</totfact>
</mgrwt>
</event>
<event>
 4    1  0.5003329E-002  0.5151961E+03  0.7818608E-02  0.1009887E+00
         21   -1    0    0  501  502  0.00000000000E+00  0.00000000000E+00  0.47892539118E+03  0.47892539118E+03  0.00000000000E+00 0.  1.
         21   -1    0    0  502  503 -0.00000000000E+00 -0.00000000000E+00 -0.14397911675E+04  0.14397911675E+04  0.00000000000E+00 0.  1.
    9000007    1    1    2  501    0  0.32042169727E+03 -0.52506664927E+02  0.27195943188E+03  0.58257097982E+03  0.40000000000E+03 0.  1.
   -9000007    1    1    2    0  503 -0.32042169727E+03  0.52506664927E+02 -0.12328252082E+04  0.13361455788E+04  0.40000000000E+03 0.  1.
<mgrwt>
<rscale>  2 0.51519609E+03</rscale>
<asrwt>0</asrwt>
<pdfrwt beam="1">  1       21 0.73680830E-01 0.51519609E+03</pdfrwt>
<pdfrwt beam="2">  1       21 0.22150633E+00 0.51519609E+03</pdfrwt>
<totfact> 0.12526319E+02</totfact>
</mgrwt>
</event>
<event>
 4    1  0.5003329E-002  0.6542319E+03  0.7818608E-02  0.9798871E-01
         21   -1    0    0  501  502  0.00000000000E+00  0.00000000000E+00  0.47899186638E+03  0.47899186638E+03  0.00000000000E+00 0.  1.
         21   -1    0    0  502  503 -0.00000000000E+00 -0.00000000000E+00 -0.90972130101E+03  0.90972130101E+03  0.00000000000E+00 0. -1.
    9000007    1    1    2  501    0  0.51144280672E+03  0.80284923381E+02 -0.12288524229E+03  0.66567273959E+03  0.40000000000E+03 0. -1.
   -9000007    1    1    2    0  503 -0.51144280672E+03 -0.80284923381E+02 -0.30784419234E+03  0.72304042779E+03  0.40000000000E+03 0.  1.
<mgrwt>
<rscale>  2 0.65423193E+03</rscale>
<asrwt>0</asrwt>
<pdfrwt beam="1">  1       21 0.73691057E-01 0.65423193E+03</pdfrwt>
<pdfrwt beam="2">  1       21 0.13995712E+00 0.65423193E+03</pdfrwt>
<totfact> 0.45754534E+02</totfact>
</mgrwt>
</event>
<event>
 4    1  0.5003329E-002  0.4214174E+03  0.7818608E-02  0.1036606E+00
         21   -1    0    0  501  502  0.00000000000E+00  0.00000000000E+00  0.66754526472E+03  0.66754526472E+03  0.00000000000E+00 0.  1.
         21   -1    0    0  502  503 -0.00000000000E+00 -0.00000000000E+00 -0.30562937374E+03  0.30562937374E+03  0.00000000000E+00 0.  1.
    9000007    1    1    2  501    0  0.97503147333E+02  0.89920909330E+02  0.35608839615E+03  0.55171693788E+03  0.40000000000E+03 0.  1.
   -9000007    1    1    2    0  503 -0.97503147333E+02 -0.89920909330E+02  0.58274948269E+01  0.42145770057E+03  0.40000000000E+03 0.  1.
<mgrwt>
<rscale>  2 0.42141741E+03</rscale>
<asrwt>0</asrwt>
<pdfrwt beam="1">  1       21 0.10269927E+00 0.42141741E+03</pdfrwt>
<pdfrwt beam="2">  1       21 0.47019904E-01 0.42141741E+03</pdfrwt>
<totfact> 0.29279147E+03</totfact>
</mgrwt>
</event>
<event>
 4    1  0.5003329E-002  0.4286706E+03  0.7818608E-02  0.1034281E+00
         21   -1    0    0  503  502  0.00000000000E+00  0.00000000000E+00  0.10953223751E+03  0.10953223751E+03  0.00000000000E+00 0. -1.
         21   -1    0    0  501  503 -0.00000000000E+00 -0.00000000000E+00 -0.17767488646E+04  0.17767488646E+04  0.00000000000E+00 0. -1.
    9000007    1    1    2  501    0  0.14977228836E+03  0.36424596146E+02 -0.10563303024E+04  0.11399965778E+04  0.40000000000E+03 0. -1.
   -9000007    1    1    2    0  502 -0.14977228836E+03 -0.36424596146E+02 -0.61088632462E+03  0.74628452428E+03  0.40000000000E+03 0. -1.
<mgrwt>
<rscale>  2 0.42867061E+03</rscale>
<asrwt>0</asrwt>
<pdfrwt beam="1">  1       21 0.16851114E-01 0.42867061E+03</pdfrwt>
<pdfrwt beam="2">  1       21 0.27334597E+00 0.42867061E+03</pdfrwt>
<totfact> 0.12755149E+03</totfact>
</mgrwt>
</event>
<event>
 4    1  0.5003329E-002  0.5131489E+03  0.7818608E-02  0.1010403E+00
         21   -1    0    0  501  502  0.00000000000E+00  0.00000000000E+00  0.62696818196E+03  0.62696818196E+03  0.00000000000E+00 0. -1.
         21   -1    0    0  502  503 -0.00000000000E+00 -0.00000000000E+00 -0.16760496433E+04  0.16760496433E+04  0.00000000000E+00 0. -1.
    9000007    1    1    2  501    0  0.28433646007E+03 -0.14991519869E+03  0.47230649280E+03  0.69742039866E+03  0.40000000000E+03 0. -1.
   -9000007    1    1    2    0  503 -0.28433646007E+03  0.14991519869E+03 -0.15213879541E+04  0.16055974266E+04  0.40000000000E+03 0. -1.
<mgrwt>
<rscale>  2 0.51314890E+03</rscale>
<asrwt>0</asrwt>
<pdfrwt beam="1">  1       21 0.96456644E-01 0.51314890E+03</pdfrwt>
<pdfrwt beam="2">  1       21 0.25785379E+00 0.51314890E+03</pdfrwt>
<totfact> 0.39498751E+01</totfact>
</mgrwt>
</event>
<event>
 4    1  0.5003329E-002  0.4646914E+03  0.7818608E-02  0.1023429E+00
         21   -1    0    0  503  502  0.00000000000E+00  0.00000000000E+00  0.94558429987E+03  0.94558429987E+03  0.00000000000E+00 0. -1.
         21   -1    0    0  501  503 -0.00000000000E+00 -0.00000000000E+00 -0.31429223389E+03  0.31429223389E+03  0.00000000000E+00 0. -1.
    9000007    1    1    2  501    0  0.23596189917E+03 -0.16127677764E+02  0.64502602926E+03  0.79498219997E+03  0.40000000000E+03 0. -1.
   -9000007    1    1    2    0  502 -0.23596189917E+03  0.16127677764E+02 -0.13733963278E+02  0.46489433380E+03  0.40000000000E+03 0. -1.
<mgrwt>
<rscale>  2 0.46469142E+03</rscale>
<asrwt>0</asrwt>
<pdfrwt beam="1">  1       21 0.14547451E+00 0.46469142E+03</pdfrwt>
<pdfrwt beam="2">  1       21 0.48352652E-01 0.46469142E+03</pdfrwt>
<totfact> 0.11143587E+03</totfact>
</mgrwt>
</event>
<event>
 4    1  0.5003329E-002  0.4362297E+03  0.7818608E-02  0.1031910E+00
         21   -1    0    0  501  502  0.00000000000E+00  0.00000000000E+00  0.84581269510E+03  0.84581269510E+03  0.00000000000E+00 0. -1.
         21   -1    0    0  502  503 -0.00000000000E+00 -0.00000000000E+00 -0.24782991572E+03  0.24782991572E+03  0.00000000000E+00 0.  1.
    9000007    1    1    2  501    0  0.63629947586E+02  0.16201115002E+03  0.46500729658E+03  0.63759561544E+03  0.40000000000E+03 0. -1.
   -9000007    1    1    2    0  503 -0.63629947586E+02 -0.16201115002E+03  0.13297548280E+03  0.45604699537E+03  0.40000000000E+03 0.  1.
<mgrwt>
<rscale>  2 0.43622974E+03</rscale>
<asrwt>0</asrwt>
<pdfrwt beam="1">  1       21 0.13012503E+00 0.43622974E+03</pdfrwt>
<pdfrwt beam="2">  1       21 0.38127680E-01 0.43622974E+03</pdfrwt>
<totfact> 0.24811128E+03</totfact>
</mgrwt>
</event>
<event>
 4    1  0.5003329E-002  0.4812703E+03  0.7818608E-02  0.1018787E+00
         21   -1    0    0  501  502  0.00000000000E+00  0.00000000000E+00  0.26105311149E+03  0.26105311149E+03  0.00000000000E+00 0.  1.
         21   -1    0    0  502  503 -0.00000000000E+00 -0.00000000000E+00 -0.10088635139E+04  0.10088635139E+04  0.00000000000E+00 0.  1.
    9000007    1    1    2  501    0 -0.18945625004E+03 -0.18901713401E+03 -0.15345637712E+03  0.50514355119E+03  0.40000000000E+03 0.  1.
   -9000007    1    1    2    0  503  0.18945625004E+03  0.18901713401E+03 -0.59435402526E+03  0.76477307417E+03  0.40000000000E+03 0.  1.
<mgrwt>
<rscale>  2 0.48127035E+03</rscale>
<asrwt>0</asrwt>
<pdfrwt beam="1">  1       21 0.40162017E-01 0.48127035E+03</pdfrwt>
<pdfrwt beam="2">  1       21 0.15520977E+00 0.48127035E+03</pdfrwt>
<totfact> 0.13681278E+03</totfact>
</mgrwt>
</event>
<event>
 4    1  0.5003329E-002  0.4243800E+03  0.7818608E-02  0.1035650E+00
         21   -1    0    0  501  502  0.00000000000E+00  0.00000000000E+00  0.73205511466E+03  0.73205511466E+03  0.00000000000E+00 0.  1.
         21   -1    0    0  502  503 -0.00000000000E+00 -0.00000000000E+00 -0.35970944639E+03  0.35970944639E+03  0.00000000000E+00 0.  1.
    9000007    1    1    2  501    0 -0.91522450543E+02 -0.10826835484E+03  0.49306645239E+03  0.65054817045E+03  0.40000000000E+03 0.  1.
   -9000007    1    1    2    0  503  0.91522450543E+02  0.10826835484E+03 -0.12072078412E+03  0.44121639060E+03  0.40000000000E+03 0.  1.
<mgrwt>
<rscale>  2 0.42438001E+03</rscale>
<asrwt>0</asrwt>
<pdfrwt beam="1">  1       21 0.11262386E+00 0.42438001E+03</pdfrwt>
<pdfrwt beam="2">  1       21 0.55339915E-01 0.42438001E+03</pdfrwt>
<totfact> 0.16459385E+03</totfact>
</mgrwt>
</event>
<event>
 4    1  0.5003329E-002  0.4390867E+03  0.7818608E-02  0.1031027E+00
         21   -1    0    0  501  502  0.00000000000E+00  0.00000000000E+00  0.35505011685E+03  0.35505011685E+03  0.00000000000E+00 0. -1.
         21   -1    0    0  502  503 -0.00000000000E+00 -0.00000000000E+00 -0.86439544886E+03  0.86439544886E+03  0.00000000000E+00 0. -1.
    9000007    1    1    2  501    0  0.93552030388E+01  0.18085790255E+03  0.11710795477E+03  0.45443522510E+03  0.40000000000E+03 0. -1.
   -9000007    1    1    2    0  503 -0.93552030388E+01 -0.18085790255E+03 -0.62645328678E+03  0.76501034062E+03  0.40000000000E+03 0. -1.
<mgrwt>
<rscale>  2 0.43908667E+03</rscale>
<asrwt>0</asrwt>
<pdfrwt beam="1">  1       21 0.54623096E-01 0.43908667E+03</pdfrwt>
<pdfrwt beam="2">  1       21 0.13298391E+00 0.43908667E+03</pdfrwt>
<totfact> 0.11014202E+03</totfact>
</mgrwt>
</event>
<event>
 4    1  0.5003329E-002  0.6452926E+03  0.7818608E-02  0.9815653E-01
         21   -1    0    0  503  502  0.00000000000E+00  0.00000000000E+00  0.11091912386E+04  0.11091912386E+04  0.00000000000E+00 0. -1.
         21   -1    0    0  501  503 -0.00000000000E+00 -0.00000000000E+00 -0.46141575389E+03  0.46141575389E+03  0.00000000000E+00 0.  1.
    9000007    1    1    2  501    0 -0.28494395617E+03 -0.41858024059E+03  0.66292920650E+03  0.92513653522E+03  0.40000000000E+03 0. -1.
   -9000007    1    1    2    0  502  0.28494395617E+03  0.41858024059E+03 -0.15153721755E+02  0.64547045731E+03  0.40000000000E+03 0.  1.
<mgrwt>
<rscale>  2 0.64529255E+03</rscale>
<asrwt>0</asrwt>
<pdfrwt beam="1">  1       21 0.17064480E+00 0.64529255E+03</pdfrwt>
<pdfrwt beam="2">  1       21 0.70987040E-01 0.64529255E+03</pdfrwt>
<totfact> 0.28775395E+02</totfact>
</mgrwt>
</event>
<event>
 4    1  0.5003329E-002  0.4483277E+03  0.7818608E-02  0.1028222E+00
         21   -1    0    0  503  502  0.00000000000E+00  0.00000000000E+00  0.16942549159E+04  0.16942549159E+04  0.00000000000E+00 0.  1.
         21   -1    0    0  501  503 -0.00000000000E+00 -0.00000000000E+00 -0.14305155406E+03  0.14305155406E+03  0.00000000000E+00 0.  1.
    9000007    1    1    2  501    0  0.48597895894E+02  0.19656035121E+03  0.39606952335E+03  0.59822135909E+03  0.40000000000E+03 0.  1.
   -9000007    1    1    2    0  502 -0.48597895894E+02 -0.19656035121E+03  0.11551338385E+04  0.12390851108E+04  0.40000000000E+03 0.  1.
<mgrwt>
<rscale>  2 0.44832770E+03</rscale>
<asrwt>0</asrwt>
<pdfrwt beam="1">  1       21 0.26065459E+00 0.44832770E+03</pdfrwt>
<pdfrwt beam="2">  1       21 0.22007933E-01 0.44832770E+03</pdfrwt>
<totfact> 0.90848709E+02</totfact>
</mgrwt>
</event>
<event>
 4    1  0.5003329E-002  0.4574549E+03  0.7818608E-02  0.1025522E+00
         21   -1    0    0  501  502  0.00000000000E+00  0.00000000000E+00  0.55890257605E+03  0.55890257605E+03  0.00000000000E+00 0.  1.
         21   -1    0    0  502  503 -0.00000000000E+00 -0.00000000000E+00 -0.44137240355E+03  0.44137240355E+03  0.00000000000E+00 0.  1.
    9000007    1    1    2  501    0  0.15912355350E+03  0.15474075732E+03 -0.13602453756E+03  0.47725012527E+03  0.40000000000E+03 0.  1.
   -9000007    1    1    2    0  503 -0.15912355350E+03 -0.15474075732E+03  0.25355471006E+03  0.52302485433E+03  0.40000000000E+03 0.  1.
<mgrwt>
<rscale>  2 0.45745492E+03</rscale>
<asrwt>0</asrwt>
<pdfrwt beam="1">  1       21 0.85985012E-01 0.45745492E+03</pdfrwt>
<pdfrwt beam="2">  1       21 0.67903447E-01 0.45745492E+03</pdfrwt>
<totfact> 0.19902918E+03</totfact>
</mgrwt>
</event>
<event>
 4    1  0.5003329E-002  0.5058868E+03  0.7818608E-02  0.1012254E+00
         21   -1    0    0  503  502  0.00000000000E+00  0.00000000000E+00  0.11494797828E+04  0.11494797828E+04  0.00000000000E+00 0. -1.
         21   -1    0    0  501  503 -0.00000000000E+00 -0.00000000000E+00 -0.26247982791E+03  0.26247982791E+03  0.00000000000E+00 0.  1.
    9000007    1    1    2  501    0 -0.24384465299E+03 -0.19094838321E+03  0.16845939761E+03  0.53319796369E+03  0.40000000000E+03 0.  1.
   -9000007    1    1    2    0  502  0.24384465299E+03  0.19094838321E+03  0.71854055730E+03  0.87876164705E+03  0.40000000000E+03 0. -1.
<mgrwt>
<rscale>  2 0.50588684E+03</rscale>
<asrwt>0</asrwt>
<pdfrwt beam="1">  1       21 0.17684304E+00 0.50588684E+03</pdfrwt>
<pdfrwt beam="2">  1       21 0.40381512E-01 0.50588684E+03</pdfrwt>
<totfact> 0.92579846E+02</totfact>
</mgrwt>
</event>
<event>
 4    1  0.5003329E-002  0.4236337E+03  0.7818608E-02  0.1035890E+00
         21   -1    0    0  501  502  0.00000000000E+00  0.00000000000E+00  0.11451128158E+04  0.11451128158E+04  0.00000000000E+00 0.  1.
         21   -1    0    0  502  503 -0.00000000000E+00 -0.00000000000E+00 -0.16093793257E+03  0.16093793257E+03  0.00000000000E+00 0.  1.
    9000007    1    1    2  501    0 -0.13697589433E+03  0.26516683701E+02  0.59776810220E+03  0.73266106362E+03  0.40000000000E+03 0.  1.
   -9000007    1    1    2    0  503  0.13697589433E+03 -0.26516683701E+02  0.38640678102E+03  0.57338968473E+03  0.40000000000E+03 0.  1.
<mgrwt>
<rscale>  2 0.42363372E+03</rscale>
<asrwt>0</asrwt>
<pdfrwt beam="1">  1       21 0.17617120E+00 0.42363372E+03</pdfrwt>
<pdfrwt beam="2">  1       21 0.24759683E-01 0.42363372E+03</pdfrwt>
<totfact> 0.25773883E+03</totfact>
</mgrwt>
</event>
<event>
 4    1  0.5003329E-002  0.5454253E+03  0.7818608E-02  0.1002558E+00
         21   -1    0    0  501  502  0.00000000000E+00  0.00000000000E+00  0.11675981440E+04  0.11675981440E+04  0.00000000000E+00 0. -1.
         21   -1    0    0  502  503 -0.00000000000E+00 -0.00000000000E+00 -0.26099953836E+03  0.26099953836E+03  0.00000000000E+00 0.  1.
    9000007    1    1    2  501    0 -0.34073474761E+03  0.14624821869E+03  0.56350350842E+03  0.78423524130E+03  0.40000000000E+03 0. -1.
   -9000007    1    1    2    0  503  0.34073474761E+03 -0.14624821869E+03  0.34309509720E+03  0.64436244103E+03  0.40000000000E+03 0. -1.
<mgrwt>
<rscale>  2 0.54542526E+03</rscale>
<asrwt>0</asrwt>
<pdfrwt beam="1">  1       21 0.17963048E+00 0.54542526E+03</pdfrwt>
<pdfrwt beam="2">  1       21 0.40153776E-01 0.54542526E+03</pdfrwt>
<totfact> 0.88151477E+02</totfact>
</mgrwt>
</event>
<event>
 4    1  0.5003329E-002  0.4068628E+03  0.7818608E-02  0.1041429E+00
         21   -1    0    0  501  502  0.00000000000E+00  0.00000000000E+00  0.54671532579E+03  0.54671532579E+03  0.00000000000E+00 0. -1.
         21   -1    0    0  502  503 -0.00000000000E+00 -0.00000000000E+00 -0.11238516047E+04  0.11238516047E+04  0.00000000000E+00 0. -1.
    9000007    1    1    2  501    0 -0.64107512097E+01 -0.74136828783E+02  0.42538303570E+03  0.58863239307E+03  0.40000000000E+03 0. -1.
   -9000007    1    1    2    0  503  0.64107512097E+01  0.74136828783E+02 -0.10025193146E+04  0.10819345374E+04  0.40000000000E+03 0. -1.
<mgrwt>
<rscale>  2 0.40686284E+03</rscale>
<asrwt>0</asrwt>
<pdfrwt beam="1">  1       21 0.84110050E-01 0.40686284E+03</pdfrwt>
<pdfrwt beam="2">  1       21 0.17290025E+00 0.40686284E+03</pdfrwt>
<totfact> 0.20821891E+02</totfact>
</mgrwt>
</event>
<event>
 4    1  0.5003329E-002  0.4155771E+03  0.7818608E-02  0.1038515E+00
         21   -1    0    0  503  502  0.00000000000E+00  0.00000000000E+00  0.44832222184E+03  0.44832222184E+03  0.00000000000E+00 0.  1.
         21   -1    0    0  501  503 -0.00000000000E+00 -0.00000000000E+00 -0.38775833357E+03  0.38775833357E+03  0.00000000000E+00 0.  1.
    9000007    1    1    2  501    0  0.90795137399E+02  0.66787658563E+02  0.64080218958E+02  0.42048855249E+03  0.40000000000E+03 0.  1.
   -9000007    1    1    2    0  502 -0.90795137399E+02 -0.66787658563E+02 -0.35163306895E+01  0.41559200292E+03  0.40000000000E+03 0.  1.
<mgrwt>
<rscale>  2 0.41557713E+03</rscale>
<asrwt>0</asrwt>
<pdfrwt beam="1">  1       21 0.68972649E-01 0.41557713E+03</pdfrwt>
<pdfrwt beam="2">  1       21 0.59655129E-01 0.41557713E+03</pdfrwt>
<totfact> 0.44613602E+03</totfact>
</mgrwt>
</event>
<event>
 4    1  0.5003329E-002  0.4344989E+03  0.7818608E-02  0.1032448E+00
         21   -1    0    0  503  502  0.00000000000E+00  0.00000000000E+00  0.27409108455E+03  0.27409108455E+03  0.00000000000E+00 0. -1.
         21   -1    0    0  501  503 -0.00000000000E+00 -0.00000000000E+00 -0.77906010331E+03  0.77906010331E+03  0.00000000000E+00 0. -1.
    9000007    1    1    2  501    0 -0.16921684633E+03  0.12446725527E+02 -0.43173658985E+03  0.61252407714E+03  0.40000000000E+03 0. -1.
   -9000007    1    1    2    0  502  0.16921684633E+03 -0.12446725527E+02 -0.73232428908E+02  0.44062711072E+03  0.40000000000E+03 0. -1.
<mgrwt>
<rscale>  2 0.43449886E+03</rscale>
<asrwt>0</asrwt>
<pdfrwt beam="1">  1       21 0.42167859E-01 0.43449886E+03</pdfrwt>
<pdfrwt beam="2">  1       21 0.11985540E+00 0.43449886E+03</pdfrwt>
<totfact> 0.24920721E+03</totfact>
</mgrwt>
</event>
<event>
 4    1  0.5003329E-002  0.7007492E+03  0.7818608E-02  0.9715952E-01
         21   -1    0    0  503  502  0.00000000000E+00  0.00000000000E+00  0.54624562597E+03  0.54624562597E+03  0.00000000000E+00 0. -1.
         21   -1    0    0  501  503 -0.00000000000E+00 -0.00000000000E+00 -0.31655139510E+04  0.31655139510E+04  0.00000000000E+00 0.  1.
    9000007    1    1    2  501    0 -0.56900072793E+03 -0.85367233119E+02 -0.28800381297E+04  0.29640629246E+04  0.40000000000E+03 0.  1.
   -9000007    1    1    2    0  502  0.56900072793E+03  0.85367233119E+02  0.26076980466E+03  0.74769665232E+03  0.40000000000E+03 0. -1.
<mgrwt>
<rscale>  2 0.70074917E+03</rscale>
<asrwt>0</asrwt>
<pdfrwt beam="1">  1       21 0.84037787E-01 0.70074917E+03</pdfrwt>
<pdfrwt beam="2">  1       21 0.48700215E+00 0.70074917E+03</pdfrwt>
<totfact> 0.16759511E+00</totfact>
</mgrwt>
</event>
<event>
 4    1  0.5003329E-002  0.4560134E+03  0.7818608E-02  0.1025944E+00
         21   -1    0    0  501  502  0.00000000000E+00  0.00000000000E+00  0.14941733279E+03  0.14941733279E+03  0.00000000000E+00 0.  1.
         21   -1    0    0  502  503 -0.00000000000E+00 -0.00000000000E+00 -0.20658149802E+04  0.20658149802E+04  0.00000000000E+00 0.  1.
    9000007    1    1    2  501    0  0.20281082480E+03 -0.82558818305E+02 -0.32549312139E+03  0.56026240389E+03  0.40000000000E+03 0.  1.
   -9000007    1    1    2    0  503 -0.20281082480E+03  0.82558818305E+02 -0.15909045260E+04  0.16549699091E+04  0.40000000000E+03 0.  1.
<mgrwt>
<rscale>  2 0.45601337E+03</rscale>
<asrwt>0</asrwt>
<pdfrwt beam="1">  1       21 0.22987283E-01 0.45601337E+03</pdfrwt>
<pdfrwt beam="2">  1       21 0.31781767E+00 0.45601337E+03</pdfrwt>
<totfact> 0.37609210E+02</totfact>
</mgrwt>
</event>
<event>
 4    1  0.5003329E-002  0.6474300E+03  0.7818608E-02  0.9811614E-01
         21   -1    0    0  503  502  0.00000000000E+00  0.00000000000E+00  0.10435370212E+04  0.10435370212E+04  0.00000000000E+00 0. -1.
         21   -1    0    0  501  503 -0.00000000000E+00 -0.00000000000E+00 -0.40341119675E+03  0.40341119675E+03  0.00000000000E+00 0.  1.
    9000007    1    1    2  501    0  0.16532789290E+03  0.48148961523E+03  0.36748811425E+03  0.74445488504E+03  0.40000000000E+03 0. -1.
   -9000007    1    1    2    0  502 -0.16532789290E+03 -0.48148961523E+03  0.27263771017E+03  0.70249333289E+03  0.40000000000E+03 0.  1.
<mgrwt>
<rscale>  2 0.64742997E+03</rscale>
<asrwt>0</asrwt>
<pdfrwt beam="1">  1       21 0.16054416E+00 0.64742997E+03</pdfrwt>
<pdfrwt beam="2">  1       21 0.62063261E-01 0.64742997E+03</pdfrwt>
<totfact> 0.46302316E+02</totfact>
</mgrwt>
</event>
<event>
 4    1  0.5003329E-002  0.4054349E+03  0.7818608E-02  0.1041914E+00
         21   -1    0    0  503  502  0.00000000000E+00  0.00000000000E+00  0.10763414326E+03  0.10763414326E+03  0.00000000000E+00 0.  1.
         21   -1    0    0  501  503 -0.00000000000E+00 -0.00000000000E+00 -0.17442795608E+04  0.17442795608E+04  0.00000000000E+00 0.  1.
    9000007    1    1    2  501    0 -0.31524800548E+02 -0.58168798628E+02 -0.11449899362E+04  0.12146519569E+04  0.40000000000E+03 0.  1.
   -9000007    1    1    2    0  502  0.31524800548E+02  0.58168798628E+02 -0.49165548133E+03  0.63726174725E+03  0.40000000000E+03 0.  1.
<mgrwt>
<rscale>  2 0.40543486E+03</rscale>
<asrwt>0</asrwt>
<pdfrwt beam="1">  1       21 0.16559099E-01 0.40543486E+03</pdfrwt>
<pdfrwt beam="2">  1       21 0.26835070E+00 0.40543486E+03</pdfrwt>
<totfact> 0.14303453E+03</totfact>
</mgrwt>
</event>
<event>
 4    1  0.5003329E-002  0.4749443E+03  0.7818608E-02  0.1020534E+00
         21   -1    0    0  501  502  0.00000000000E+00  0.00000000000E+00  0.14596679954E+03  0.14596679954E+03  0.00000000000E+00 0.  1.
         21   -1    0    0  502  503 -0.00000000000E+00 -0.00000000000E+00 -0.16300106909E+04  0.16300106909E+04  0.00000000000E+00 0.  1.
    9000007    1    1    2  501    0 -0.95276103442E+02  0.23768572744E+03 -0.94437680924E+03  0.10570806964E+04  0.40000000000E+03 0.  1.
   -9000007    1    1    2    0  503  0.95276103442E+02 -0.23768572744E+03 -0.53966708209E+03  0.71889679399E+03  0.40000000000E+03 0.  1.
<mgrwt>
<rscale>  2 0.47494425E+03</rscale>
<asrwt>0</asrwt>
<pdfrwt beam="1">  1       21 0.22456431E-01 0.47494425E+03</pdfrwt>
<pdfrwt beam="2">  1       21 0.25077087E+00 0.47494425E+03</pdfrwt>
<totfact> 0.99134347E+02</totfact>
</mgrwt>
</event>
<event>
 4    1  0.5003329E-002  0.4605699E+03  0.7818608E-02  0.1024616E+00
         21   -1    0    0  503  502  0.00000000000E+00  0.00000000000E+00  0.11878288222E+04  0.11878288222E+04  0.00000000000E+00 0. -1.
         21   -1    0    0  501  503 -0.00000000000E+00 -0.00000000000E+00 -0.51690890291E+03  0.51690890291E+03  0.00000000000E+00 0. -1.
    9000007    1    1    2  501    0  0.74060472474E+02  0.21596231445E+03 -0.35412682449E+03  0.58097373664E+03  0.40000000000E+03 0. -1.
   -9000007    1    1    2    0  502 -0.74060472474E+02 -0.21596231445E+03  0.10250467438E+04  0.11237639885E+04  0.40000000000E+03 0. -1.
<mgrwt>
<rscale>  2 0.46056995E+03</rscale>
<asrwt>0</asrwt>
<pdfrwt beam="1">  1       21 0.18274289E+00 0.46056995E+03</pdfrwt>
<pdfrwt beam="2">  1       21 0.79524447E-01 0.46056995E+03</pdfrwt>
<totfact> 0.19609789E+02</totfact>
</mgrwt>
</event>
<event>
 4    1  0.5003329E-002  0.4444238E+03  0.7818608E-02  0.1029398E+00
         21   -1    0    0  503  502  0.00000000000E+00  0.00000000000E+00  0.61288663379E+03  0.61288663379E+03  0.00000000000E+00 0. -1.
         21   -1    0    0  501  503 -0.00000000000E+00 -0.00000000000E+00 -0.36765543610E+03  0.36765543610E+03  0.00000000000E+00 0. -1.
    9000007    1    1    2  501    0 -0.12727712540E+03  0.14598976633E+03 -0.49647988954E+02  0.44718832871E+03  0.40000000000E+03 0. -1.
   -9000007    1    1    2    0  502  0.12727712540E+03 -0.14598976633E+03  0.29487918664E+03  0.53335374119E+03  0.40000000000E+03 0. -1.
<mgrwt>
<rscale>  2 0.44442376E+03</rscale>
<asrwt>0</asrwt>
<pdfrwt beam="1">  1       21 0.94290251E-01 0.44442376E+03</pdfrwt>
<pdfrwt beam="2">  1       21 0.56562375E-01 0.44442376E+03</pdfrwt>
<totfact> 0.24048601E+03</totfact>
</mgrwt>
</event>
<event>
 4    1  0.5003329E-002  0.5442435E+03  0.7818608E-02  0.1002835E+00
         21   -1    0    0  503  502  0.00000000000E+00  0.00000000000E+00  0.14511965333E+04  0.14511965333E+04  0.00000000000E+00 0.  1.
         21   -1    0    0  501  503 -0.00000000000E+00 -0.00000000000E+00 -0.27764198000E+03  0.27764198000E+03  0.00000000000E+00 0. -1.
    9000007    1    1    2  501    0  0.10212128059E+03  0.35464385637E+03  0.14191508366E+03  0.56244191858E+03  0.40000000000E+03 0. -1.
   -9000007    1    1    2    0  502 -0.10212128059E+03 -0.35464385637E+03  0.10316394696E+04  0.11663965947E+04  0.40000000000E+03 0.  1.
<mgrwt>
<rscale>  2 0.54424353E+03</rscale>
<asrwt>0</asrwt>
<pdfrwt beam="1">  1       21 0.22326100E+00 0.54424353E+03</pdfrwt>
<pdfrwt beam="2">  1       21 0.42714151E-01 0.54424353E+03</pdfrwt>
<totfact> 0.39489221E+02</totfact>
</mgrwt>
</event>
<event>
 4    1  0.5003329E-002  0.4381269E+03  0.7818608E-02  0.1031323E+00
         21   -1    0    0  503  502  0.00000000000E+00  0.00000000000E+00  0.61030782374E+03  0.61030782374E+03  0.00000000000E+00 0. -1.
         21   -1    0    0  501  503 -0.00000000000E+00 -0.00000000000E+00 -0.33719846454E+03  0.33719846454E+03  0.00000000000E+00 0. -1.
    9000007    1    1    2  501    0  0.43853411106E+02  0.17329754115E+03  0.13698160558E+02  0.43834096208E+03  0.40000000000E+03 0. -1.
   -9000007    1    1    2    0  502 -0.43853411106E+02 -0.17329754115E+03  0.25941119864E+03  0.50916532621E+03  0.40000000000E+03 0. -1.
<mgrwt>
<rscale>  2 0.43812688E+03</rscale>
<asrwt>0</asrwt>
<pdfrwt beam="1">  1       21 0.93893511E-01 0.43812688E+03</pdfrwt>
<pdfrwt beam="2">  1       21 0.51876687E-01 0.43812688E+03</pdfrwt>
<totfact> 0.29330610E+03</totfact>
</mgrwt>
</event>
