<event>
 4    1  0.4949719E-002  0.4590931E+03  0.7818608E-02  0.1025045E+00
         21   -1    0    0  501  502  0.00000000000E+00  0.00000000000E+00  0.89189000611E+03  0.89189000611E+03  0.00000000000E+00 0.  1.
         21   -1    0    0  502  503 -0.00000000000E+00 -0.00000000000E+00 -0.37056149914E+03  0.37056149914E+03  0.00000000000E+00 0. -1.
    9000005    1    1    2  501    0 -0.13425849875E+03  0.18094499180E+03  0.64059728032E+03  0.78811884262E+03  0.40000000000E+03 0.  1.
   -9000005    1    1    2    0  503  0.13425849875E+03 -0.18094499180E+03 -0.11926877335E+03  0.47433266263E+03  0.40000000000E+03 0. -1.
<mgrwt>
<rscale>  2 0.45909306E+03</rscale>
<asrwt>0</asrwt>
<pdfrwt beam="1">  1       21 0.13721385E+00 0.45909306E+03</pdfrwt>
<pdfrwt beam="2">  1       21 0.57009462E-01 0.45909306E+03</pdfrwt>
<totfact> 0.91720006E+02</totfact>
</mgrwt>
</event>
<event>
 4    1  0.4949719E-002  0.7984732E+03  0.7818608E-02  0.9562230E-01
         21   -1    0    0  503  502  0.00000000000E+00  0.00000000000E+00  0.29888614475E+03  0.29888614475E+03  0.00000000000E+00 0. -1.
         21   -1    0    0  501  503 -0.00000000000E+00 -0.00000000000E+00 -0.21368613515E+04  0.21368613515E+04  0.00000000000E+00 0.  1.
    9000005    1    1    2  501    0 -0.11701026865E+03 -0.68107863409E+03 -0.86801623886E+03  0.11794115905E+04  0.40000000000E+03 0. -1.
   -9000005    1    1    2    0  502  0.11701026865E+03  0.68107863409E+03 -0.96995896789E+03  0.12563359058E+04  0.40000000000E+03 0.  1.
<mgrwt>
<rscale>  2 0.79847324E+03</rscale>
<asrwt>0</asrwt>
<pdfrwt beam="1">  1       21 0.45982482E-01 0.79847324E+03</pdfrwt>
<pdfrwt beam="2">  1       21 0.32874792E+00 0.79847324E+03</pdfrwt>
<totfact> 0.67979704E+01</totfact>
</mgrwt>
</event>
<event>
 4    1  0.4949719E-002  0.4013974E+03  0.7818608E-02  0.1043297E+00
         21   -1    0    0  503  502  0.00000000000E+00  0.00000000000E+00  0.37223468703E+03  0.37223468703E+03  0.00000000000E+00 0. -1.
         21   -1    0    0  501  503 -0.00000000000E+00 -0.00000000000E+00 -0.53697084621E+03  0.53697084621E+03  0.00000000000E+00 0. -1.
    9000005    1    1    2  501    0 -0.15680090835E+02  0.29563932196E+02 -0.28255521763E+03  0.49087405956E+03  0.40000000000E+03 0. -1.
   -9000005    1    1    2    0  502  0.15680090835E+02 -0.29563932196E+02  0.11781905845E+03  0.41833147368E+03  0.40000000000E+03 0. -1.
<mgrwt>
<rscale>  2 0.40139742E+03</rscale>
<asrwt>0</asrwt>
<pdfrwt beam="1">  1       21 0.57266875E-01 0.40139742E+03</pdfrwt>
<pdfrwt beam="2">  1       21 0.82610899E-01 0.40139742E+03</pdfrwt>
<totfact> 0.32496961E+03</totfact>
</mgrwt>
</event>
<event>
 4    1  0.4949719E-002  0.4326570E+03  0.7818608E-02  0.1033024E+00
         21   -1    0    0  503  502  0.00000000000E+00  0.00000000000E+00  0.20684112903E+03  0.20684112903E+03  0.00000000000E+00 0.  1.
         21   -1    0    0  501  503 -0.00000000000E+00 -0.00000000000E+00 -0.91840287432E+03  0.91840287432E+03  0.00000000000E+00 0.  1.
    9000005    1    1    2  501    0  0.11876200889E+03  0.11440143989E+03 -0.42373720573E+03  0.60559501627E+03  0.40000000000E+03 0.  1.
   -9000005    1    1    2    0  502 -0.11876200889E+03 -0.11440143989E+03 -0.28782453955E+03  0.51964898708E+03  0.40000000000E+03 0.  1.
<mgrwt>
<rscale>  2 0.43265703E+03</rscale>
<asrwt>0</asrwt>
<pdfrwt beam="1">  1       21 0.31821711E-01 0.43265703E+03</pdfrwt>
<pdfrwt beam="2">  1       21 0.14129275E+00 0.43265703E+03</pdfrwt>
<totfact> 0.28844012E+03</totfact>
</mgrwt>
</event>
<event>
 4    1  0.4949719E-002  0.4555020E+03  0.7818608E-02  0.1026094E+00
         21   -1    0    0  501  502  0.00000000000E+00  0.00000000000E+00  0.12102453289E+04  0.12102453289E+04  0.00000000000E+00 0.  1.
         21   -1    0    0  502  503 -0.00000000000E+00 -0.00000000000E+00 -0.57992441421E+03  0.57992441421E+03  0.00000000000E+00 0. -1.
    9000005    1    1    2  501    0 -0.21511355959E+03  0.34759078467E+02  0.10663807826E+04  0.11595904495E+04  0.40000000000E+03 0.  1.
   -9000005    1    1    2    0  503  0.21511355959E+03 -0.34759078467E+02 -0.43605986795E+03  0.63057929358E+03  0.40000000000E+03 0. -1.
<mgrwt>
<rscale>  2 0.45550196E+03</rscale>
<asrwt>0</asrwt>
<pdfrwt beam="1">  1       21 0.18619159E+00 0.45550196E+03</pdfrwt>
<pdfrwt beam="2">  1       21 0.89219141E-01 0.45550196E+03</pdfrwt>
<totfact> 0.14221011E+02</totfact>
</mgrwt>
</event>
<event>
 4    1  0.4949719E-002  0.5794253E+03  0.7818608E-02  0.9949036E-01
         21   -1    0    0  501  502  0.00000000000E+00  0.00000000000E+00  0.22936632794E+04  0.22936632794E+04  0.00000000000E+00 0.  1.
         21   -1    0    0  502  503 -0.00000000000E+00 -0.00000000000E+00 -0.16171035439E+03  0.16171035439E+03  0.00000000000E+00 0. -1.
    9000005    1    1    2  501    0  0.62592649051E+02  0.41450678039E+03  0.14440474174E+04  0.15559584359E+04  0.40000000000E+03 0.  1.
   -9000005    1    1    2    0  503 -0.62592649051E+02 -0.41450678039E+03  0.68790550759E+03  0.89941519782E+03  0.40000000000E+03 0. -1.
<mgrwt>
<rscale>  2 0.57942533E+03</rscale>
<asrwt>0</asrwt>
<pdfrwt beam="1">  1       21 0.35287125E+00 0.57942533E+03</pdfrwt>
<pdfrwt beam="2">  1       21 0.24878518E-01 0.57942533E+03</pdfrwt>
<totfact> 0.18422583E+02</totfact>
</mgrwt>
</event>
<event>
 4    1  0.4949719E-002  0.4064670E+03  0.7818608E-02  0.1041563E+00
         21   -1    0    0  503  502  0.00000000000E+00  0.00000000000E+00  0.94876343695E+03  0.94876343695E+03  0.00000000000E+00 0. -1.
         21   -1    0    0  501  503 -0.00000000000E+00 -0.00000000000E+00 -0.25112764340E+03  0.25112764340E+03  0.00000000000E+00 0. -1.
    9000005    1    1    2  501    0 -0.42647886527E+01  0.72091998354E+02  0.16631623733E+02  0.40680714787E+03  0.40000000000E+03 0. -1.
   -9000005    1    1    2    0  502  0.42647886527E+01 -0.72091998354E+02  0.68100416982E+03  0.79308393248E+03  0.40000000000E+03 0. -1.
<mgrwt>
<rscale>  2 0.40646703E+03</rscale>
<asrwt>0</asrwt>
<pdfrwt beam="1">  1       21 0.14596360E+00 0.40646703E+03</pdfrwt>
<pdfrwt beam="2">  1       21 0.38635022E-01 0.40646703E+03</pdfrwt>
<totfact> 0.18057715E+03</totfact>
</mgrwt>
</event>
<event>
 4    1  0.4949719E-002  0.4270074E+03  0.7818608E-02  0.1034810E+00
         21   -1    0    0  501  502  0.00000000000E+00  0.00000000000E+00  0.28552149649E+03  0.28552149649E+03  0.00000000000E+00 0.  1.
         21   -1    0    0  502  503 -0.00000000000E+00 -0.00000000000E+00 -0.68455237457E+03  0.68455237457E+03  0.00000000000E+00 0. -1.
    9000005    1    1    2  501    0  0.84679878879E+02  0.12314465259E+03 -0.73853255902E+02  0.43334696348E+03  0.40000000000E+03 0.  1.
   -9000005    1    1    2    0  503 -0.84679878879E+02 -0.12314465259E+03 -0.32517762218E+03  0.53672690757E+03  0.40000000000E+03 0. -1.
<mgrwt>
<rscale>  2 0.42700736E+03</rscale>
<asrwt>0</asrwt>
<pdfrwt beam="1">  1       21 0.43926384E-01 0.42700736E+03</pdfrwt>
<pdfrwt beam="2">  1       21 0.10531575E+00 0.42700736E+03</pdfrwt>
<totfact> 0.31678504E+03</totfact>
</mgrwt>
</event>
<event>
 4    1  0.4949719E-002  0.4698866E+03  0.7818608E-02  0.1021952E+00
         21   -1    0    0  503  502  0.00000000000E+00  0.00000000000E+00  0.29228242400E+03  0.29228242400E+03  0.00000000000E+00 0.  1.
         21   -1    0    0  501  503 -0.00000000000E+00 -0.00000000000E+00 -0.93335451751E+03  0.93335451751E+03  0.00000000000E+00 0.  1.
    9000005    1    1    2  501    0  0.56777167438E+02 -0.23993710674E+03 -0.58811329450E+03  0.75277533773E+03  0.40000000000E+03 0.  1.
   -9000005    1    1    2    0  502 -0.56777167438E+02  0.23993710674E+03 -0.52958799010E+02  0.47286160377E+03  0.40000000000E+03 0.  1.
<mgrwt>
<rscale>  2 0.46988665E+03</rscale>
<asrwt>0</asrwt>
<pdfrwt beam="1">  1       21 0.44966527E-01 0.46988665E+03</pdfrwt>
<pdfrwt beam="2">  1       21 0.14359300E+00 0.46988665E+03</pdfrwt>
<totfact> 0.13420413E+03</totfact>
</mgrwt>
</event>
<event>
 4    1  0.4949719E-002  0.5442377E+03  0.7818608E-02  0.1002837E+00
         21   -1    0    0  503  502  0.00000000000E+00  0.00000000000E+00  0.53309042808E+03  0.53309042808E+03  0.00000000000E+00 0. -1.
         21   -1    0    0  501  503 -0.00000000000E+00 -0.00000000000E+00 -0.66626151196E+03  0.66626151196E+03  0.00000000000E+00 0.  1.
    9000005    1    1    2  501    0 -0.74393820199E+02 -0.36146961645E+03  0.17778955135E+03  0.57254156938E+03  0.40000000000E+03 0. -1.
   -9000005    1    1    2    0  502  0.74393820199E+02  0.36146961645E+03 -0.31096063523E+03  0.62681037066E+03  0.40000000000E+03 0.  1.
<mgrwt>
<rscale>  2 0.54423775E+03</rscale>
<asrwt>0</asrwt>
<pdfrwt beam="1">  1       21 0.82013913E-01 0.54423775E+03</pdfrwt>
<pdfrwt beam="2">  1       21 0.10250177E+00 0.54423775E+03</pdfrwt>
<totfact> 0.82231365E+02</totfact>
</mgrwt>
</event>
<event>
 4    1  0.4949719E-002  0.5511036E+03  0.7818608E-02  0.1001239E+00
         21   -1    0    0  501  502  0.00000000000E+00  0.00000000000E+00  0.28403255950E+04  0.28403255950E+04  0.00000000000E+00 0. -1.
         21   -1    0    0  502  503 -0.00000000000E+00 -0.00000000000E+00 -0.11739903187E+03  0.11739903187E+03  0.00000000000E+00 0.  1.
    9000005    1    1    2  501    0  0.33230402769E+03  0.18245345619E+03  0.18030891255E+04  0.18854298250E+04  0.40000000000E+03 0.  1.
   -9000005    1    1    2    0  503 -0.33230402769E+03 -0.18245345619E+03  0.91983743771E+03  0.10722948020E+04  0.40000000000E+03 0.  1.
<mgrwt>
<rscale>  2 0.55110365E+03</rscale>
<asrwt>0</asrwt>
<pdfrwt beam="1">  1       21 0.43697312E+00 0.55110365E+03</pdfrwt>
<pdfrwt beam="2">  1       21 0.18061392E-01 0.55110365E+03</pdfrwt>
<totfact> 0.99534772E+01</totfact>
</mgrwt>
</event>
<event>
 4    1  0.4949719E-002  0.5348058E+03  0.7818608E-02  0.1005073E+00
         21   -1    0    0  503  502  0.00000000000E+00  0.00000000000E+00  0.82138727227E+03  0.82138727227E+03  0.00000000000E+00 0. -1.
         21   -1    0    0  501  503 -0.00000000000E+00 -0.00000000000E+00 -0.38641177974E+03  0.38641177974E+03  0.00000000000E+00 0.  1.
    9000005    1    1    2  501    0  0.26935236683E+03 -0.23122828517E+03  0.27612750786E+02  0.53551814291E+03  0.40000000000E+03 0.  1.
   -9000005    1    1    2    0  502 -0.26935236683E+03  0.23122828517E+03  0.40736274174E+03  0.67228090910E+03  0.40000000000E+03 0. -1.
<mgrwt>
<rscale>  2 0.53480578E+03</rscale>
<asrwt>0</asrwt>
<pdfrwt beam="1">  1       21 0.12636727E+00 0.53480578E+03</pdfrwt>
<pdfrwt beam="2">  1       21 0.59447966E-01 0.53480578E+03</pdfrwt>
<totfact> 0.10082301E+03</totfact>
</mgrwt>
</event>
<event>
 4    1  0.4949719E-002  0.4374892E+03  0.7818608E-02  0.1031520E+00
         21   -1    0    0  503  502  0.00000000000E+00  0.00000000000E+00  0.44271957266E+03  0.44271957266E+03  0.00000000000E+00 0.  1.
         21   -1    0    0  501  503 -0.00000000000E+00 -0.00000000000E+00 -0.79916762513E+03  0.79916762513E+03  0.00000000000E+00 0.  1.
    9000005    1    1    2  501    0 -0.93568817857E+02 -0.15047153216E+03 -0.59892710962E+03  0.74169433617E+03  0.40000000000E+03 0.  1.
   -9000005    1    1    2    0  502  0.93568817857E+02  0.15047153216E+03  0.24247905715E+03  0.50019286162E+03  0.40000000000E+03 0.  1.
<mgrwt>
<rscale>  2 0.43748921E+03</rscale>
<asrwt>0</asrwt>
<pdfrwt beam="1">  1       21 0.68110704E-01 0.43748921E+03</pdfrwt>
<pdfrwt beam="2">  1       21 0.12294886E+00 0.43748921E+03</pdfrwt>
<totfact> 0.83124757E+02</totfact>
</mgrwt>
</event>
<event>
 4    1  0.4949719E-002  0.4224965E+03  0.7818608E-02  0.1036257E+00
         21   -1    0    0  501  502  0.00000000000E+00  0.00000000000E+00  0.56567437931E+03  0.56567437931E+03  0.00000000000E+00 0. -1.
         21   -1    0    0  502  503 -0.00000000000E+00 -0.00000000000E+00 -0.51915451045E+03  0.51915451045E+03  0.00000000000E+00 0. -1.
    9000005    1    1    2  501    0  0.42771007034E+02  0.12912771110E+03  0.36293809601E+03  0.55698059783E+03  0.40000000000E+03 0.  1.
   -9000005    1    1    2    0  503 -0.42771007034E+02 -0.12912771110E+03 -0.31641822716E+03  0.52784829193E+03  0.40000000000E+03 0.  1.
<mgrwt>
<rscale>  2 0.42249654E+03</rscale>
<asrwt>0</asrwt>
<pdfrwt beam="1">  1       21 0.87026828E-01 0.42249654E+03</pdfrwt>
<pdfrwt beam="2">  1       21 0.79869925E-01 0.42249654E+03</pdfrwt>
<totfact> 0.13565520E+03</totfact>
</mgrwt>
</event>
<event>
 4    1  0.4949719E-002  0.5329899E+03  0.7818608E-02  0.1005510E+00
         21   -1    0    0  503  502  0.00000000000E+00  0.00000000000E+00  0.37748343021E+03  0.37748343021E+03  0.00000000000E+00 0. -1.
         21   -1    0    0  501  503 -0.00000000000E+00 -0.00000000000E+00 -0.11787652266E+04  0.11787652266E+04  0.00000000000E+00 0.  1.
    9000005    1    1    2  501    0  0.18325917712E+02 -0.35177032001E+03 -0.86853299646E+03  0.10190327587E+04  0.40000000000E+03 0.  1.
   -9000005    1    1    2    0  502 -0.18325917712E+02  0.35177032001E+03  0.67251200072E+02  0.53721589814E+03  0.40000000000E+03 0. -1.
<mgrwt>
<rscale>  2 0.53298987E+03</rscale>
<asrwt>0</asrwt>
<pdfrwt beam="1">  1       21 0.58074375E-01 0.53298987E+03</pdfrwt>
<pdfrwt beam="2">  1       21 0.18134849E+00 0.53298987E+03</pdfrwt>
<totfact> 0.39306595E+02</totfact>
</mgrwt>
</event>
<event>
 4    1  0.4949719E-002  0.5633812E+03  0.7818608E-02  0.9984433E-01
         21   -1    0    0  503  502  0.00000000000E+00  0.00000000000E+00  0.51612415738E+03  0.51612415738E+03  0.00000000000E+00 0.  1.
         21   -1    0    0  501  503 -0.00000000000E+00 -0.00000000000E+00 -0.70872491177E+03  0.70872491177E+03  0.00000000000E+00 0.  1.
    9000005    1    1    2  501    0  0.39223765412E+03  0.59564959901E+02 -0.31905258412E+03  0.64745108942E+03  0.40000000000E+03 0.  1.
   -9000005    1    1    2    0  502 -0.39223765412E+03 -0.59564959901E+02  0.12645182973E+03  0.57739797973E+03  0.40000000000E+03 0.  1.
<mgrwt>
<rscale>  2 0.56338119E+03</rscale>
<asrwt>0</asrwt>
<pdfrwt beam="1">  1       21 0.79403716E-01 0.56338119E+03</pdfrwt>
<pdfrwt beam="2">  1       21 0.10903460E+00 0.56338119E+03</pdfrwt>
<totfact> 0.75575597E+02</totfact>
</mgrwt>
</event>
<event>
 4    1  0.4949719E-002  0.5639410E+03  0.7818608E-02  0.9983177E-01
         21   -1    0    0  501  502  0.00000000000E+00  0.00000000000E+00  0.41763470813E+03  0.41763470813E+03  0.00000000000E+00 0.  1.
         21   -1    0    0  502  503 -0.00000000000E+00 -0.00000000000E+00 -0.95696876976E+03  0.95696876976E+03  0.00000000000E+00 0.  1.
    9000005    1    1    2  501    0 -0.83511668761E+02 -0.38865824625E+03  0.40957429471E+02  0.56542633669E+03  0.40000000000E+03 0.  1.
   -9000005    1    1    2    0  503  0.83511668761E+02  0.38865824625E+03 -0.58029149111E+03  0.80917714120E+03  0.40000000000E+03 0.  1.
<mgrwt>
<rscale>  2 0.56394098E+03</rscale>
<asrwt>0</asrwt>
<pdfrwt beam="1">  1       21 0.64251494E-01 0.56394098E+03</pdfrwt>
<pdfrwt beam="2">  1       21 0.14722596E+00 0.56394098E+03</pdfrwt>
<totfact> 0.56033459E+02</totfact>
</mgrwt>
</event>
<event>
 4    1  0.4949719E-002  0.5866662E+03  0.7818608E-02  0.9933462E-01
         21   -1    0    0  501  502  0.00000000000E+00  0.00000000000E+00  0.43492791931E+03  0.43492791931E+03  0.00000000000E+00 0. -1.
         21   -1    0    0  502  503 -0.00000000000E+00 -0.00000000000E+00 -0.26875648808E+04  0.26875648808E+04  0.00000000000E+00 0. -1.
    9000005    1    1    2  501    0  0.42898344369E+03 -0.12266101941E+02  0.18508558266E+03  0.61516983438E+03  0.40000000000E+03 0. -1.
   -9000005    1    1    2    0  503 -0.42898344369E+03  0.12266101941E+02 -0.24377225442E+04  0.25073229658E+04  0.40000000000E+03 0. -1.
<mgrwt>
<rscale>  2 0.58666622E+03</rscale>
<asrwt>0</asrwt>
<pdfrwt beam="1">  1       21 0.66911987E-01 0.58666622E+03</pdfrwt>
<pdfrwt beam="2">  1       21 0.41347153E+00 0.58666622E+03</pdfrwt>
<totfact> 0.95873759E+00</totfact>
</mgrwt>
</event>
<event>
 4    1  0.4949719E-002  0.5033138E+03  0.7818608E-02  0.1012918E+00
         21   -1    0    0  503  502  0.00000000000E+00  0.00000000000E+00  0.66709365382E+03  0.66709365382E+03  0.00000000000E+00 0. -1.
         21   -1    0    0  501  503 -0.00000000000E+00 -0.00000000000E+00 -0.39364006661E+03  0.39364006661E+03  0.00000000000E+00 0. -1.
    9000005    1    1    2  501    0  0.14733108864E+03 -0.26761600667E+03  0.37077663281E+02  0.50467764942E+03  0.40000000000E+03 0.  1.
   -9000005    1    1    2    0  502 -0.14733108864E+03  0.26761600667E+03  0.23637592393E+03  0.55605607102E+03  0.40000000000E+03 0.  1.
<mgrwt>
<rscale>  2 0.50331380E+03</rscale>
<asrwt>0</asrwt>
<pdfrwt beam="1">  1       21 0.10262979E+00 0.50331380E+03</pdfrwt>
<pdfrwt beam="2">  1       21 0.60560010E-01 0.50331380E+03</pdfrwt>
<totfact> 0.16517410E+03</totfact>
</mgrwt>
</event>
<event>
 4    1  0.4949719E-002  0.7300474E+03  0.7818608E-02  0.9667183E-01
         21   -1    0    0  503  502  0.00000000000E+00  0.00000000000E+00  0.26469529644E+03  0.26469529644E+03  0.00000000000E+00 0.  1.
         21   -1    0    0  501  503 -0.00000000000E+00 -0.00000000000E+00 -0.20444801798E+04  0.20444801798E+04  0.00000000000E+00 0. -1.
    9000005    1    1    2  501    0  0.24037352601E+03  0.56141770246E+03 -0.10319738812E+04  0.12640962622E+04  0.40000000000E+03 0.  1.
   -9000005    1    1    2    0  502 -0.24037352601E+03 -0.56141770246E+03 -0.74781100212E+03  0.10450792140E+04  0.40000000000E+03 0. -1.
<mgrwt>
<rscale>  2 0.73004744E+03</rscale>
<asrwt>0</asrwt>
<pdfrwt beam="1">  1       21 0.40722352E-01 0.73004744E+03</pdfrwt>
<pdfrwt beam="2">  1       21 0.31453542E+00 0.73004744E+03</pdfrwt>
<totfact> 0.11017380E+02</totfact>
</mgrwt>
</event>
<event>
 4    1  0.4949719E-002  0.7270870E+03  0.7818608E-02  0.9671999E-01
         21   -1    0    0  501  502  0.00000000000E+00  0.00000000000E+00  0.11252981014E+04  0.11252981014E+04  0.00000000000E+00 0.  1.
         21   -1    0    0  502  503 -0.00000000000E+00 -0.00000000000E+00 -0.47747181997E+03  0.47747181997E+03  0.00000000000E+00 0. -1.
    9000005    1    1    2  501    0 -0.21517254543E+03 -0.56776430279E+03  0.22227520249E+03  0.76030375079E+03  0.40000000000E+03 0. -1.
   -9000005    1    1    2    0  503  0.21517254543E+03  0.56776430279E+03  0.42555107898E+03  0.84246617062E+03  0.40000000000E+03 0.  1.
<mgrwt>
<rscale>  2 0.72708702E+03</rscale>
<asrwt>0</asrwt>
<pdfrwt beam="1">  1       21 0.17312278E+00 0.72708702E+03</pdfrwt>
<pdfrwt beam="2">  1       21 0.73457203E-01 0.72708702E+03</pdfrwt>
<totfact> 0.24859965E+02</totfact>
</mgrwt>
</event>
<event>
 4    1  0.4949719E-002  0.4842045E+03  0.7818608E-02  0.1017986E+00
         21   -1    0    0  503  502  0.00000000000E+00  0.00000000000E+00  0.54066739933E+03  0.54066739933E+03  0.00000000000E+00 0. -1.
         21   -1    0    0  501  503 -0.00000000000E+00 -0.00000000000E+00 -0.50271299576E+03  0.50271299576E+03  0.00000000000E+00 0. -1.
    9000005    1    1    2  501    0 -0.27249299879E+03  0.14198110051E+02 -0.17440322955E+03  0.51465571715E+03  0.40000000000E+03 0. -1.
   -9000005    1    1    2    0  502  0.27249299879E+03 -0.14198110051E+02  0.21235763312E+03  0.52872467794E+03  0.40000000000E+03 0. -1.
<mgrwt>
<rscale>  2 0.48420452E+03</rscale>
<asrwt>0</asrwt>
<pdfrwt beam="1">  1       21 0.83179599E-01 0.48420452E+03</pdfrwt>
<pdfrwt beam="2">  1       21 0.77340462E-01 0.48420452E+03</pdfrwt>
<totfact> 0.15854235E+03</totfact>
</mgrwt>
</event>
<event>
 4    1  0.4949719E-002  0.4118269E+03  0.7818608E-02  0.1039760E+00
         21   -1    0    0  501  502  0.00000000000E+00  0.00000000000E+00  0.10162275836E+04  0.10162275836E+04  0.00000000000E+00 0. -1.
         21   -1    0    0  502  503 -0.00000000000E+00 -0.00000000000E+00 -0.17855115383E+03  0.17855115383E+03  0.00000000000E+00 0. -1.
    9000005    1    1    2  501    0  0.85093586935E+02 -0.48584969392E+02  0.57148523930E+03  0.70441237676E+03  0.40000000000E+03 0. -1.
   -9000005    1    1    2    0  503 -0.85093586935E+02  0.48584969392E+02  0.26619119047E+03  0.49036636067E+03  0.40000000000E+03 0. -1.
<mgrwt>
<rscale>  2 0.41182693E+03</rscale>
<asrwt>0</asrwt>
<pdfrwt beam="1">  1       21 0.15634270E+00 0.41182693E+03</pdfrwt>
<pdfrwt beam="2">  1       21 0.27469409E-01 0.41182693E+03</pdfrwt>
<totfact> 0.29605737E+03</totfact>
</mgrwt>
</event>
<event>
 4    1  0.4949719E-002  0.4284585E+03  0.7818608E-02  0.1034348E+00
         21   -1    0    0  503  502  0.00000000000E+00  0.00000000000E+00  0.12947473495E+04  0.12947473495E+04  0.00000000000E+00 0. -1.
         21   -1    0    0  501  503 -0.00000000000E+00 -0.00000000000E+00 -0.91092987817E+03  0.91092987817E+03  0.00000000000E+00 0. -1.
    9000005    1    1    2  501    0  0.29685602216E+02 -0.15065006715E+03 -0.82147368152E+03  0.92649645825E+03  0.40000000000E+03 0. -1.
   -9000005    1    1    2    0  502 -0.29685602216E+02  0.15065006715E+03  0.12052911528E+04  0.12791807694E+04  0.40000000000E+03 0. -1.
<mgrwt>
<rscale>  2 0.42845849E+03</rscale>
<asrwt>0</asrwt>
<pdfrwt beam="1">  1       21 0.19919190E+00 0.42845849E+03</pdfrwt>
<pdfrwt beam="2">  1       21 0.14014306E+00 0.42845849E+03</pdfrwt>
<totfact> 0.38184346E+01</totfact>
</mgrwt>
</event>
<event>
 4    1  0.4949719E-002  0.4052197E+03  0.7818608E-02  0.1041987E+00
         21   -1    0    0  503  502  0.00000000000E+00  0.00000000000E+00  0.48229596230E+03  0.48229596230E+03  0.00000000000E+00 0.  1.
         21   -1    0    0  501  503 -0.00000000000E+00 -0.00000000000E+00 -0.36305101419E+03  0.36305101419E+03  0.00000000000E+00 0.  1.
    9000005    1    1    2  501    0  0.63803791021E+02  0.11493230504E+02  0.16505591657E+03  0.43754596752E+03  0.40000000000E+03 0.  1.
   -9000005    1    1    2    0  502 -0.63803791021E+02 -0.11493230504E+02 -0.45810968458E+02  0.40780100898E+03  0.40000000000E+03 0.  1.
<mgrwt>
<rscale>  2 0.40521972E+03</rscale>
<asrwt>0</asrwt>
<pdfrwt beam="1">  1       21 0.74199379E-01 0.40521972E+03</pdfrwt>
<pdfrwt beam="2">  1       21 0.55854002E-01 0.40521972E+03</pdfrwt>
<totfact> 0.43819853E+03</totfact>
</mgrwt>
</event>
<event>
 4    1  0.4949719E-002  0.4245364E+03  0.7818608E-02  0.1035600E+00
         21   -1    0    0  501  502  0.00000000000E+00  0.00000000000E+00  0.19252979485E+03  0.19252979485E+03  0.00000000000E+00 0.  1.
         21   -1    0    0  502  503 -0.00000000000E+00 -0.00000000000E+00 -0.94123810910E+03  0.94123810910E+03  0.00000000000E+00 0.  1.
    9000005    1    1    2  501    0 -0.51519517465E+02  0.13257791749E+03 -0.33255562963E+03  0.53928138452E+03  0.40000000000E+03 0.  1.
   -9000005    1    1    2    0  503  0.51519517465E+02 -0.13257791749E+03 -0.41615268462E+03  0.59448651944E+03  0.40000000000E+03 0.  1.
<mgrwt>
<rscale>  2 0.42453641E+03</rscale>
<asrwt>0</asrwt>
<pdfrwt beam="1">  1       21 0.29619968E-01 0.42453641E+03</pdfrwt>
<pdfrwt beam="2">  1       21 0.14480586E+00 0.42453641E+03</pdfrwt>
<totfact> 0.31252558E+03</totfact>
</mgrwt>
</event>
<event>
 4    1  0.4949719E-002  0.7499185E+03  0.7818608E-02  0.9635478E-01
         21   -1    0    0  503  502  0.00000000000E+00  0.00000000000E+00  0.16202498180E+04  0.16202498180E+04  0.00000000000E+00 0. -1.
         21   -1    0    0  501  503 -0.00000000000E+00 -0.00000000000E+00 -0.34709346490E+03  0.34709346490E+03  0.00000000000E+00 0.  1.
    9000005    1    1    2  501    0  0.63425603353E+03 -0.98529375647E+01  0.63732809873E+03  0.98415694982E+03  0.40000000000E+03 0. -1.
   -9000005    1    1    2    0  502 -0.63425603353E+03  0.98529375647E+01  0.63582825432E+03  0.98318633302E+03  0.40000000000E+03 0.  1.
<mgrwt>
<rscale>  2 0.74991853E+03</rscale>
<asrwt>0</asrwt>
<pdfrwt beam="1">  1       21 0.24926920E+00 0.74991853E+03</pdfrwt>
<pdfrwt beam="2">  1       21 0.53398995E-01 0.74991853E+03</pdfrwt>
<totfact> 0.15553462E+02</totfact>
</mgrwt>
</event>
<event>
 4    1  0.4949719E-002  0.6037670E+03  0.7818608E-02  0.9897621E-01
         21   -1    0    0  501  502  0.00000000000E+00  0.00000000000E+00  0.14177352889E+04  0.14177352889E+04  0.00000000000E+00 0.  1.
         21   -1    0    0  502  503 -0.00000000000E+00 -0.00000000000E+00 -0.40308108196E+03  0.40308108196E+03  0.00000000000E+00 0.  1.
    9000005    1    1    2  501    0 -0.44130688907E+03  0.98908067715E+02  0.10551645121E+04  0.12156918704E+04  0.40000000000E+03 0.  1.
   -9000005    1    1    2    0  503  0.44130688907E+03 -0.98908067715E+02 -0.40510305170E+02  0.60512450043E+03  0.40000000000E+03 0.  1.
<mgrwt>
<rscale>  2 0.60376699E+03</rscale>
<asrwt>0</asrwt>
<pdfrwt beam="1">  1       21 0.21811312E+00 0.60376699E+03</pdfrwt>
<pdfrwt beam="2">  1       21 0.62012475E-01 0.60376699E+03</pdfrwt>
<totfact> 0.18662614E+02</totfact>
</mgrwt>
</event>
<event>
 4    1  0.4949719E-002  0.4816765E+03  0.7818608E-02  0.1018675E+00
         21   -1    0    0  503  502  0.00000000000E+00  0.00000000000E+00  0.29725387777E+03  0.29725387777E+03  0.00000000000E+00 0. -1.
         21   -1    0    0  501  503 -0.00000000000E+00 -0.00000000000E+00 -0.78060197824E+03  0.78060197824E+03  0.00000000000E+00 0. -1.
    9000005    1    1    2  501    0 -0.26623906120E+03  0.33600554413E+02 -0.24723776318E+03  0.54142289064E+03  0.40000000000E+03 0. -1.
   -9000005    1    1    2    0  502  0.26623906120E+03 -0.33600554413E+02 -0.23611033729E+03  0.53643296538E+03  0.40000000000E+03 0. -1.
<mgrwt>
<rscale>  2 0.48167648E+03</rscale>
<asrwt>0</asrwt>
<pdfrwt beam="1">  1       21 0.45731365E-01 0.48167648E+03</pdfrwt>
<pdfrwt beam="2">  1       21 0.12009261E+00 0.48167648E+03</pdfrwt>
<totfact> 0.20567366E+03</totfact>
</mgrwt>
</event>
<event>
 4    1  0.4949719E-002  0.4472057E+03  0.7818608E-02  0.1028559E+00
         21   -1    0    0  501  502  0.00000000000E+00  0.00000000000E+00  0.68630487349E+03  0.68630487349E+03  0.00000000000E+00 0.  1.
         21   -1    0    0  502  503 -0.00000000000E+00 -0.00000000000E+00 -0.43481687727E+03  0.43481687727E+03  0.00000000000E+00 0.  1.
    9000005    1    1    2  501    0 -0.99226011531E+02  0.17362921911E+03  0.44767412983E+03  0.63277565820E+03  0.40000000000E+03 0.  1.
   -9000005    1    1    2    0  503  0.99226011531E+02 -0.17362921911E+03 -0.19618613362E+03  0.48834609256E+03  0.40000000000E+03 0.  1.
<mgrwt>
<rscale>  2 0.44720567E+03</rscale>
<asrwt>0</asrwt>
<pdfrwt beam="1">  1       21 0.10558537E+00 0.44720567E+03</pdfrwt>
<pdfrwt beam="2">  1       21 0.66894904E-01 0.44720567E+03</pdfrwt>
<totfact> 0.12616485E+03</totfact>
</mgrwt>
</event>
<event>
 4    1  0.4949719E-002  0.4072388E+03  0.7818608E-02  0.1041302E+00
         21   -1    0    0  501  502  0.00000000000E+00  0.00000000000E+00  0.52734891959E+03  0.52734891959E+03  0.00000000000E+00 0.  1.
         21   -1    0    0  502  503 -0.00000000000E+00 -0.00000000000E+00 -0.69819374805E+03  0.69819374805E+03  0.00000000000E+00 0.  1.
    9000005    1    1    2  501    0  0.74069911887E+02  0.18896798226E+02  0.36884458536E+03  0.54944496447E+03  0.40000000000E+03 0.  1.
   -9000005    1    1    2    0  503 -0.74069911887E+02 -0.18896798226E+02 -0.53968941383E+03  0.67609770317E+03  0.40000000000E+03 0.  1.
<mgrwt>
<rscale>  2 0.40723880E+03</rscale>
<asrwt>0</asrwt>
<pdfrwt beam="1">  1       21 0.81130603E-01 0.40723880E+03</pdfrwt>
<pdfrwt beam="2">  1       21 0.10741442E+00 0.40723880E+03</pdfrwt>
<totfact> 0.79401239E+02</totfact>
</mgrwt>
</event>
<event>
 4    1  0.4949719E-002  0.5802991E+03  0.7818608E-02  0.9947144E-01
         21   -1    0    0  501  502  0.00000000000E+00  0.00000000000E+00  0.71480990929E+03  0.71480990929E+03  0.00000000000E+00 0. -1.
         21   -1    0    0  502  503 -0.00000000000E+00 -0.00000000000E+00 -0.51894276450E+03  0.51894276450E+03  0.00000000000E+00 0.  1.
    9000005    1    1    2  501    0  0.17267780173E+03 -0.38331369433E+03 -0.89370022436E+02  0.58714053886E+03  0.40000000000E+03 0.  1.
   -9000005    1    1    2    0  503 -0.17267780173E+03  0.38331369433E+03  0.28523716723E+03  0.64661213493E+03  0.40000000000E+03 0. -1.
<mgrwt>
<rscale>  2 0.58029907E+03</rscale>
<asrwt>0</asrwt>
<pdfrwt beam="1">  1       21 0.10997075E+00 0.58029907E+03</pdfrwt>
<pdfrwt beam="2">  1       21 0.79837349E-01 0.58029907E+03</pdfrwt>
<totfact> 0.72638864E+02</totfact>
</mgrwt>
</event>
<event>
 4    1  0.4949719E-002  0.4683755E+03  0.7818608E-02  0.1022380E+00
         21   -1    0    0  501  502  0.00000000000E+00  0.00000000000E+00  0.94712362360E+03  0.94712362360E+03  0.00000000000E+00 0. -1.
         21   -1    0    0  502  503 -0.00000000000E+00 -0.00000000000E+00 -0.23406071837E+03  0.23406071837E+03  0.00000000000E+00 0.  1.
    9000005    1    1    2  501    0  0.19988727754E+03 -0.13935812886E+03  0.29625946819E+03  0.55420689665E+03  0.40000000000E+03 0. -1.
   -9000005    1    1    2    0  503 -0.19988727754E+03  0.13935812886E+03  0.41680343705E+03  0.62697744532E+03  0.40000000000E+03 0.  1.
<mgrwt>
<rscale>  2 0.46837550E+03</rscale>
<asrwt>0</asrwt>
<pdfrwt beam="1">  1       21 0.14571133E+00 0.46837550E+03</pdfrwt>
<pdfrwt beam="2">  1       21 0.36009342E-01 0.46837550E+03</pdfrwt>
<totfact> 0.20418542E+03</totfact>
</mgrwt>
</event>
<event>
 4    1  0.4949719E-002  0.4242973E+03  0.7818608E-02  0.1035677E+00
         21   -1    0    0  501  502  0.00000000000E+00  0.00000000000E+00  0.10350382795E+04  0.10350382795E+04  0.00000000000E+00 0.  1.
         21   -1    0    0  502  503 -0.00000000000E+00 -0.00000000000E+00 -0.25009606403E+03  0.25009606403E+03  0.00000000000E+00 0.  1.
    9000005    1    1    2  501    0 -0.93626809972E+02 -0.10612365656E+03  0.74706792927E+03  0.85914998747E+03  0.40000000000E+03 0.  1.
   -9000005    1    1    2    0  503  0.93626809972E+02  0.10612365656E+03  0.37874286172E+02  0.42598435603E+03  0.40000000000E+03 0.  1.
<mgrwt>
<rscale>  2 0.42429731E+03</rscale>
<asrwt>0</asrwt>
<pdfrwt beam="1">  1       21 0.15923666E+00 0.42429731E+03</pdfrwt>
<pdfrwt beam="2">  1       21 0.38476318E-01 0.42429731E+03</pdfrwt>
<totfact> 0.14251512E+03</totfact>
</mgrwt>
</event>
<event>
 4    1  0.4949719E-002  0.4816164E+03  0.7818608E-02  0.1018692E+00
         21   -1    0    0  503  502  0.00000000000E+00  0.00000000000E+00  0.89343333869E+03  0.89343333869E+03  0.00000000000E+00 0.  1.
         21   -1    0    0  501  503 -0.00000000000E+00 -0.00000000000E+00 -0.29882733849E+03  0.29882733849E+03  0.00000000000E+00 0. -1.
    9000005    1    1    2  501    0  0.21902161839E+03  0.15486744212E+03  0.81375919004E+02  0.48844286682E+03  0.40000000000E+03 0. -1.
   -9000005    1    1    2    0  502 -0.21902161839E+03 -0.15486744212E+03  0.51323008119E+03  0.70381781036E+03  0.40000000000E+03 0.  1.
<mgrwt>
<rscale>  2 0.48161644E+03</rscale>
<asrwt>0</asrwt>
<pdfrwt beam="1">  1       21 0.13745128E+00 0.48161644E+03</pdfrwt>
<pdfrwt beam="2">  1       21 0.45973437E-01 0.48161644E+03</pdfrwt>
<totfact> 0.14330646E+03</totfact>
</mgrwt>
</event>
<event>
 4    1  0.4949719E-002  0.6045569E+03  0.7818608E-02  0.9895997E-01
         21   -1    0    0  501  502  0.00000000000E+00  0.00000000000E+00  0.39053879678E+03  0.39053879678E+03  0.00000000000E+00 0. -1.
         21   -1    0    0  502  503 -0.00000000000E+00 -0.00000000000E+00 -0.12558036165E+04  0.12558036165E+04  0.00000000000E+00 0.  1.
    9000005    1    1    2  501    0  0.34946069426E+03  0.28873208666E+03 -0.17136120444E+02  0.60479967040E+03  0.40000000000E+03 0.  1.
   -9000005    1    1    2    0  503 -0.34946069426E+03 -0.28873208666E+03 -0.84812869924E+03  0.10415427428E+04  0.40000000000E+03 0. -1.
<mgrwt>
<rscale>  2 0.60455686E+03</rscale>
<asrwt>0</asrwt>
<pdfrwt beam="1">  1       21 0.60082892E-01 0.60455686E+03</pdfrwt>
<pdfrwt beam="2">  1       21 0.19320056E+00 0.60455686E+03</pdfrwt>
<totfact> 0.29335630E+02</totfact>
</mgrwt>
</event>
<event>
 4    1  0.4949719E-002  0.4703871E+03  0.7818608E-02  0.1021811E+00
         21   -1    0    0  503  502  0.00000000000E+00  0.00000000000E+00  0.49482032514E+03  0.49482032514E+03  0.00000000000E+00 0. -1.
         21   -1    0    0  501  503 -0.00000000000E+00 -0.00000000000E+00 -0.56474418696E+03  0.56474418696E+03  0.00000000000E+00 0. -1.
    9000005    1    1    2  501    0  0.90391654442E+02  0.23041996298E+03 -0.27670020076E+03  0.54573529447E+03  0.40000000000E+03 0. -1.
   -9000005    1    1    2    0  502 -0.90391654442E+02 -0.23041996298E+03  0.20677633894E+03  0.51382921762E+03  0.40000000000E+03 0. -1.
<mgrwt>
<rscale>  2 0.47038709E+03</rscale>
<asrwt>0</asrwt>
<pdfrwt beam="1">  1       21 0.76126204E-01 0.47038709E+03</pdfrwt>
<pdfrwt beam="2">  1       21 0.86883721E-01 0.47038709E+03</pdfrwt>
<totfact> 0.14920392E+03</totfact>
</mgrwt>
</event>
<event>
 4    1  0.4949719E-002  0.5744706E+03  0.7818608E-02  0.9959834E-01
         21   -1    0    0  501  502  0.00000000000E+00  0.00000000000E+00  0.67798670823E+03  0.67798670823E+03  0.00000000000E+00 0. -1.
         21   -1    0    0  502  503 -0.00000000000E+00 -0.00000000000E+00 -0.50374618949E+03  0.50374618949E+03  0.00000000000E+00 0. -1.
    9000005    1    1    2  501    0 -0.28910416060E+03  0.29399871228E+03  0.19562233718E+03  0.60686452961E+03  0.40000000000E+03 0. -1.
   -9000005    1    1    2    0  503  0.28910416060E+03 -0.29399871228E+03 -0.21381818445E+02  0.57486836811E+03  0.40000000000E+03 0. -1.
<mgrwt>
<rscale>  2 0.57447059E+03</rscale>
<asrwt>0</asrwt>
<pdfrwt beam="1">  1       21 0.10430565E+00 0.57447059E+03</pdfrwt>
<pdfrwt beam="2">  1       21 0.77499413E-01 0.57447059E+03</pdfrwt>
<totfact> 0.88921395E+02</totfact>
</mgrwt>
</event>
<event>
 4    1  0.4949719E-002  0.4120641E+03  0.7818608E-02  0.1039681E+00
         21   -1    0    0  503  502  0.00000000000E+00  0.00000000000E+00  0.35574486675E+03  0.35574486675E+03  0.00000000000E+00 0.  1.
         21   -1    0    0  501  503 -0.00000000000E+00 -0.00000000000E+00 -0.91454399561E+03  0.91454399561E+03  0.00000000000E+00 0.  1.
    9000005    1    1    2  501    0 -0.80773106385E+02  0.57206328697E+02 -0.71856924776E+03  0.82833484931E+03  0.40000000000E+03 0.  1.
   -9000005    1    1    2    0  502  0.80773106385E+02 -0.57206328697E+02  0.15977011890E+03  0.44195401305E+03  0.40000000000E+03 0.  1.
<mgrwt>
<rscale>  2 0.41206414E+03</rscale>
<asrwt>0</asrwt>
<pdfrwt beam="1">  1       21 0.54729979E-01 0.41206414E+03</pdfrwt>
<pdfrwt beam="2">  1       21 0.14069908E+00 0.41206414E+03</pdfrwt>
<totfact> 0.95695390E+02</totfact>
</mgrwt>
</event>
<event>
 4    1  0.4949719E-002  0.4956981E+03  0.7818608E-02  0.1014908E+00
         21   -1    0    0  501  502  0.00000000000E+00  0.00000000000E+00  0.12578403844E+04  0.12578403844E+04  0.00000000000E+00 0. -1.
         21   -1    0    0  502  503 -0.00000000000E+00 -0.00000000000E+00 -0.22298627392E+03  0.22298627392E+03  0.00000000000E+00 0.  1.
    9000005    1    1    2  501    0 -0.19678061727E+03 -0.21678099792E+03  0.25675734724E+03  0.55824810592E+03  0.40000000000E+03 0.  1.
   -9000005    1    1    2    0  503  0.19678061727E+03  0.21678099792E+03  0.77809676327E+03  0.92257855243E+03  0.40000000000E+03 0. -1.
<mgrwt>
<rscale>  2 0.49569811E+03</rscale>
<asrwt>0</asrwt>
<pdfrwt beam="1">  1       21 0.19351390E+00 0.49569811E+03</pdfrwt>
<pdfrwt beam="2">  1       21 0.34305581E-01 0.49569811E+03</pdfrwt>
<totfact> 0.99279168E+02</totfact>
</mgrwt>
</event>
<event>
 4    1  0.4949719E-002  0.6041795E+03  0.7818608E-02  0.9896773E-01
         21   -1    0    0  501  502  0.00000000000E+00  0.00000000000E+00  0.32366791761E+03  0.32366791761E+03  0.00000000000E+00 0.  1.
         21   -1    0    0  502  503 -0.00000000000E+00 -0.00000000000E+00 -0.12021078337E+04  0.12021078337E+04  0.00000000000E+00 0. -1.
    9000005    1    1    2  501    0  0.45182043147E+03 -0.29853043530E+02 -0.62889239829E+03  0.87208861656E+03  0.40000000000E+03 0. -1.
   -9000005    1    1    2    0  503 -0.45182043147E+03  0.29853043530E+02 -0.24954751781E+03  0.65368713476E+03  0.40000000000E+03 0.  1.
<mgrwt>
<rscale>  2 0.60417953E+03</rscale>
<asrwt>0</asrwt>
<pdfrwt beam="1">  1       21 0.49795063E-01 0.60417953E+03</pdfrwt>
<pdfrwt beam="2">  1       21 0.18493967E+00 0.60417953E+03</pdfrwt>
<totfact> 0.50336879E+02</totfact>
</mgrwt>
</event>
<event>
 4    1  0.4949719E-002  0.5056055E+03  0.7818608E-02  0.1012326E+00
         21   -1    0    0  503  502  0.00000000000E+00  0.00000000000E+00  0.55742373868E+03  0.55742373868E+03  0.00000000000E+00 0.  1.
         21   -1    0    0  501  503 -0.00000000000E+00 -0.00000000000E+00 -0.52093243991E+03  0.52093243991E+03  0.00000000000E+00 0. -1.
    9000005    1    1    2  501    0 -0.23969553216E+03  0.19540465368E+03  0.20474769348E+03  0.54548927103E+03  0.40000000000E+03 0.  1.
   -9000005    1    1    2    0  502  0.23969553216E+03 -0.19540465368E+03 -0.16825639470E+03  0.53286690756E+03  0.40000000000E+03 0. -1.
<mgrwt>
<rscale>  2 0.50560551E+03</rscale>
<asrwt>0</asrwt>
<pdfrwt beam="1">  1       21 0.85757498E-01 0.50560551E+03</pdfrwt>
<pdfrwt beam="2">  1       21 0.80143452E-01 0.50560551E+03</pdfrwt>
<totfact> 0.13493682E+03</totfact>
</mgrwt>
</event>
<event>
 4    1  0.4949719E-002  0.4838683E+03  0.7818608E-02  0.1018077E+00
         21   -1    0    0  501  502  0.00000000000E+00  0.00000000000E+00  0.17959114247E+03  0.17959114247E+03  0.00000000000E+00 0.  1.
         21   -1    0    0  502  503 -0.00000000000E+00 -0.00000000000E+00 -0.16018521685E+04  0.16018521685E+04  0.00000000000E+00 0. -1.
    9000005    1    1    2  501    0 -0.25023308228E+03 -0.10729377023E+03 -0.32683287055E+03  0.58390776144E+03  0.40000000000E+03 0.  1.
   -9000005    1    1    2    0  503  0.25023308228E+03  0.10729377023E+03 -0.10954281555E+04  0.11975355496E+04  0.40000000000E+03 0. -1.
<mgrwt>
<rscale>  2 0.48386832E+03</rscale>
<asrwt>0</asrwt>
<pdfrwt beam="1">  1       21 0.27629407E-01 0.48386832E+03</pdfrwt>
<pdfrwt beam="2">  1       21 0.24643879E+00 0.48386832E+03</pdfrwt>
<totfact> 0.70100553E+02</totfact>
</mgrwt>
</event>
<event>
 4    1  0.4949719E-002  0.6057490E+03  0.7818608E-02  0.9893550E-01
         21   -1    0    0  503  502  0.00000000000E+00  0.00000000000E+00  0.42360387935E+03  0.42360387935E+03  0.00000000000E+00 0. -1.
         21   -1    0    0  501  503 -0.00000000000E+00 -0.00000000000E+00 -0.22718791090E+04  0.22718791090E+04  0.00000000000E+00 0.  1.
    9000005    1    1    2  501    0 -0.15042323413E+02 -0.45464887128E+03 -0.19842571304E+04  0.20746585809E+04  0.40000000000E+03 0.  1.
   -9000005    1    1    2    0  502  0.15042323413E+02  0.45464887128E+03  0.13598190070E+03  0.62082440752E+03  0.40000000000E+03 0. -1.
<mgrwt>
<rscale>  2 0.60574901E+03</rscale>
<asrwt>0</asrwt>
<pdfrwt beam="1">  1       21 0.65169828E-01 0.60574901E+03</pdfrwt>
<pdfrwt beam="2">  1       21 0.34951986E+00 0.60574901E+03</pdfrwt>
<totfact> 0.25694136E+01</totfact>
</mgrwt>
</event>
<event>
 4    1  0.4949719E-002  0.4540846E+03  0.7818608E-02  0.1026511E+00
         21   -1    0    0  501  502  0.00000000000E+00  0.00000000000E+00  0.40671028003E+03  0.40671028003E+03  0.00000000000E+00 0. -1.
         21   -1    0    0  502  503 -0.00000000000E+00 -0.00000000000E+00 -0.53162907235E+03  0.53162907235E+03  0.00000000000E+00 0. -1.
    9000005    1    1    2  501    0 -0.12190001343E+03  0.17701182513E+03 -0.16348963586E+03  0.48261958160E+03  0.40000000000E+03 0.  1.
   -9000005    1    1    2    0  503  0.12190001343E+03 -0.17701182513E+03  0.38570843545E+02  0.45571977078E+03  0.40000000000E+03 0.  1.
<mgrwt>
<rscale>  2 0.45408457E+03</rscale>
<asrwt>0</asrwt>
<pdfrwt beam="1">  1       21 0.62570813E-01 0.45408457E+03</pdfrwt>
<pdfrwt beam="2">  1       21 0.81789087E-01 0.45408457E+03</pdfrwt>
<totfact> 0.26863145E+03</totfact>
</mgrwt>
</event>
<event>
 4    1  0.4949719E-002  0.4584672E+03  0.7818608E-02  0.1025227E+00
         21   -1    0    0  501  502  0.00000000000E+00  0.00000000000E+00  0.22830571905E+03  0.22830571905E+03  0.00000000000E+00 0.  1.
         21   -1    0    0  502  503 -0.00000000000E+00 -0.00000000000E+00 -0.97678716320E+03  0.97678716320E+03  0.00000000000E+00 0.  1.
    9000005    1    1    2  501    0 -0.21138677471E+03  0.74214643719E+02 -0.22980551863E+03  0.51283794541E+03  0.40000000000E+03 0.  1.
   -9000005    1    1    2    0  503  0.21138677471E+03 -0.74214643719E+02 -0.51867592552E+03  0.69225493684E+03  0.40000000000E+03 0.  1.
<mgrwt>
<rscale>  2 0.45846721E+03</rscale>
<asrwt>0</asrwt>
<pdfrwt beam="1">  1       21 0.35123957E-01 0.45846721E+03</pdfrwt>
<pdfrwt beam="2">  1       21 0.15027495E+00 0.45846721E+03</pdfrwt>
<totfact> 0.19831813E+03</totfact>
</mgrwt>
</event>
<event>
 4    1  0.4949719E-002  0.4118226E+03  0.7818608E-02  0.1039761E+00
         21   -1    0    0  503  502  0.00000000000E+00  0.00000000000E+00  0.31750641653E+03  0.31750641653E+03  0.00000000000E+00 0. -1.
         21   -1    0    0  501  503 -0.00000000000E+00 -0.00000000000E+00 -0.60762823002E+03  0.60762823002E+03  0.00000000000E+00 0. -1.
    9000005    1    1    2  501    0  0.83436051960E+02 -0.51344834128E+02 -0.30590993205E+03  0.51300950604E+03  0.40000000000E+03 0. -1.
   -9000005    1    1    2    0  502 -0.83436051960E+02  0.51344834128E+02  0.15788118553E+02  0.41212514052E+03  0.40000000000E+03 0. -1.
<mgrwt>
<rscale>  2 0.41182262E+03</rscale>
<asrwt>0</asrwt>
<pdfrwt beam="1">  1       21 0.48847142E-01 0.41182262E+03</pdfrwt>
<pdfrwt beam="2">  1       21 0.93481265E-01 0.41182262E+03</pdfrwt>
<totfact> 0.34019470E+03</totfact>
</mgrwt>
</event>
<event>
 4    1  0.4949719E-002  0.5745623E+03  0.7818608E-02  0.9959633E-01
         21   -1    0    0  503  502  0.00000000000E+00  0.00000000000E+00  0.55940648927E+03  0.55940648927E+03  0.00000000000E+00 0. -1.
         21   -1    0    0  501  503 -0.00000000000E+00 -0.00000000000E+00 -0.59237462626E+03  0.59237462626E+03  0.00000000000E+00 0.  1.
    9000005    1    1    2  501    0 -0.40668960420E+03  0.68741298976E+02 -0.51944467523E+02  0.57690556251E+03  0.40000000000E+03 0.  1.
   -9000005    1    1    2    0  502  0.40668960420E+03 -0.68741298976E+02  0.18976330526E+02  0.57487555302E+03  0.40000000000E+03 0. -1.
<mgrwt>
<rscale>  2 0.57456227E+03</rscale>
<asrwt>0</asrwt>
<pdfrwt beam="1">  1       21 0.86062536E-01 0.57456227E+03</pdfrwt>
<pdfrwt beam="2">  1       21 0.91134558E-01 0.57456227E+03</pdfrwt>
<totfact> 0.96653842E+02</totfact>
</mgrwt>
</event>
<event>
 4    1  0.4949719E-002  0.4284535E+03  0.7818608E-02  0.1034350E+00
         21   -1    0    0  501  502  0.00000000000E+00  0.00000000000E+00  0.20458443673E+03  0.20458443673E+03  0.00000000000E+00 0.  1.
         21   -1    0    0  502  503 -0.00000000000E+00 -0.00000000000E+00 -0.92998003232E+03  0.92998003232E+03  0.00000000000E+00 0.  1.
    9000005    1    1    2  501    0 -0.81385147298E+02  0.13018776733E+03 -0.25634640816E+03  0.49928536724E+03  0.40000000000E+03 0. -1.
   -9000005    1    1    2    0  503  0.81385147298E+02 -0.13018776733E+03 -0.46904918743E+03  0.63527910180E+03  0.40000000000E+03 0. -1.
<mgrwt>
<rscale>  2 0.42845349E+03</rscale>
<asrwt>0</asrwt>
<pdfrwt beam="1">  1       21 0.31474529E-01 0.42845349E+03</pdfrwt>
<pdfrwt beam="2">  1       21 0.14307385E+00 0.42845349E+03</pdfrwt>
<totfact> 0.28560131E+03</totfact>
</mgrwt>
</event>
<event>
 4    1  0.4949719E-002  0.4168781E+03  0.7818608E-02  0.1038087E+00
         21   -1    0    0  503  502  0.00000000000E+00  0.00000000000E+00  0.63247364901E+03  0.63247364901E+03  0.00000000000E+00 0. -1.
         21   -1    0    0  501  503 -0.00000000000E+00 -0.00000000000E+00 -0.28287941825E+03  0.28287941825E+03  0.00000000000E+00 0. -1.
    9000005    1    1    2  501    0  0.10720474413E+03  0.47901213184E+02  0.25226875804E+03  0.48726472237E+03  0.40000000000E+03 0. -1.
   -9000005    1    1    2    0  502 -0.10720474413E+03 -0.47901213184E+02  0.97325472727E+02  0.42808834489E+03  0.40000000000E+03 0. -1.
<mgrwt>
<rscale>  2 0.41687814E+03</rscale>
<asrwt>0</asrwt>
<pdfrwt beam="1">  1       21 0.97303638E-01 0.41687814E+03</pdfrwt>
<pdfrwt beam="2">  1       21 0.43519911E-01 0.41687814E+03</pdfrwt>
<totfact> 0.39307648E+03</totfact>
</mgrwt>
</event>
<event>
 4    1  0.4949719E-002  0.6323730E+03  0.7818608E-02  0.9840429E-01
         21   -1    0    0  503  502  0.00000000000E+00  0.00000000000E+00  0.48601269255E+03  0.48601269255E+03  0.00000000000E+00 0. -1.
         21   -1    0    0  501  503 -0.00000000000E+00 -0.00000000000E+00 -0.10572436153E+04  0.10572436153E+04  0.00000000000E+00 0. -1.
    9000005    1    1    2  501    0  0.42941332064E+03 -0.23558384492E+03 -0.64897078789E+03  0.90612285672E+03  0.40000000000E+03 0. -1.
   -9000005    1    1    2    0  502 -0.42941332064E+03  0.23558384492E+03  0.77739865133E+02  0.63713345114E+03  0.40000000000E+03 0. -1.
<mgrwt>
<rscale>  2 0.63237295E+03</rscale>
<asrwt>0</asrwt>
<pdfrwt beam="1">  1       21 0.74771183E-01 0.63237295E+03</pdfrwt>
<pdfrwt beam="2">  1       21 0.16265286E+00 0.63237295E+03</pdfrwt>
<totfact> 0.29440546E+02</totfact>
</mgrwt>
</event>
<event>
 4    1  0.4949719E-002  0.4000864E+03  0.7818608E-02  0.1043750E+00
         21   -1    0    0  503  502  0.00000000000E+00  0.00000000000E+00  0.56667469423E+03  0.56667469423E+03  0.00000000000E+00 0. -1.
         21   -1    0    0  501  503 -0.00000000000E+00 -0.00000000000E+00 -0.60750199280E+03  0.60750199280E+03  0.00000000000E+00 0. -1.
    9000005    1    1    2  501    0 -0.83088045085E+01 -0.28120044050E+00 -0.44984332497E+03  0.60202004313E+03  0.40000000000E+03 0. -1.
   -9000005    1    1    2    0  502  0.83088045085E+01  0.28120044050E+00  0.40901602640E+03  0.57215664390E+03  0.40000000000E+03 0. -1.
<mgrwt>
<rscale>  2 0.40008638E+03</rscale>
<asrwt>0</asrwt>
<pdfrwt beam="1">  1       21 0.87180722E-01 0.40008638E+03</pdfrwt>
<pdfrwt beam="2">  1       21 0.93461845E-01 0.40008638E+03</pdfrwt>
<totfact> 0.94424697E+02</totfact>
</mgrwt>
</event>
<event>
 4    1  0.4949719E-002  0.4253913E+03  0.7818608E-02  0.1035326E+00
         21   -1    0    0  503  502  0.00000000000E+00  0.00000000000E+00  0.46062374884E+03  0.46062374884E+03  0.00000000000E+00 0.  1.
         21   -1    0    0  501  503 -0.00000000000E+00 -0.00000000000E+00 -0.64392512188E+03  0.64392512188E+03  0.00000000000E+00 0.  1.
    9000005    1    1    2  501    0  0.12648911675E+03  0.70414768874E+02 -0.43650519760E+03  0.60950350603E+03  0.40000000000E+03 0.  1.
   -9000005    1    1    2    0  502 -0.12648911675E+03 -0.70414768874E+02  0.25320382457E+03  0.49504536469E+03  0.40000000000E+03 0.  1.
<mgrwt>
<rscale>  2 0.42539127E+03</rscale>
<asrwt>0</asrwt>
<pdfrwt beam="1">  1       21 0.70865192E-01 0.42539127E+03</pdfrwt>
<pdfrwt beam="2">  1       21 0.99065404E-01 0.42539127E+03</pdfrwt>
<totfact> 0.13071726E+03</totfact>
</mgrwt>
</event>
<event>
 4    1  0.4949719E-002  0.4092059E+03  0.7818608E-02  0.1040638E+00
         21   -1    0    0  503  502  0.00000000000E+00  0.00000000000E+00  0.13713891366E+03  0.13713891366E+03  0.00000000000E+00 0.  1.
         21   -1    0    0  501  503 -0.00000000000E+00 -0.00000000000E+00 -0.14817320241E+04  0.14817320241E+04  0.00000000000E+00 0.  1.
    9000005    1    1    2  501    0 -0.40753833537E+02 -0.76082680761E+02 -0.10118259378E+04  0.10914399561E+04  0.40000000000E+03 0.  1.
   -9000005    1    1    2    0  502  0.40753833537E+02  0.76082680761E+02 -0.33276717256E+03  0.52743098164E+03  0.40000000000E+03 0.  1.
<mgrwt>
<rscale>  2 0.40920588E+03</rscale>
<asrwt>0</asrwt>
<pdfrwt beam="1">  1       21 0.21098294E-01 0.40920588E+03</pdfrwt>
<pdfrwt beam="2">  1       21 0.22795878E+00 0.40920588E+03</pdfrwt>
<totfact> 0.15988675E+03</totfact>
</mgrwt>
</event>
<event>
 4    1  0.4949719E-002  0.5075460E+03  0.7818608E-02  0.1011828E+00
         21   -1    0    0  501  502  0.00000000000E+00  0.00000000000E+00  0.12505616405E+03  0.12505616405E+03  0.00000000000E+00 0.  1.
         21   -1    0    0  502  503 -0.00000000000E+00 -0.00000000000E+00 -0.20627510854E+04  0.20627510854E+04  0.00000000000E+00 0.  1.
    9000005    1    1    2  501    0  0.40562582160E+02 -0.30977019860E+03 -0.92816199179E+03  0.10578693596E+04  0.40000000000E+03 0.  1.
   -9000005    1    1    2    0  503 -0.40562582160E+02  0.30977019860E+03 -0.10095329295E+04  0.11299378898E+04  0.40000000000E+03 0.  1.
<mgrwt>
<rscale>  2 0.50754596E+03</rscale>
<asrwt>0</asrwt>
<pdfrwt beam="1">  1       21 0.19239410E-01 0.50754596E+03</pdfrwt>
<pdfrwt beam="2">  1       21 0.31734632E+00 0.50754596E+03</pdfrwt>
<totfact> 0.51747032E+02</totfact>
</mgrwt>
</event>
<event>
 4    1  0.4949719E-002  0.4853901E+03  0.7818608E-02  0.1017664E+00
         21   -1    0    0  501  502  0.00000000000E+00  0.00000000000E+00  0.37467656212E+03  0.37467656212E+03  0.00000000000E+00 0.  1.
         21   -1    0    0  502  503 -0.00000000000E+00 -0.00000000000E+00 -0.10576796226E+04  0.10576796226E+04  0.00000000000E+00 0.  1.
    9000005    1    1    2  501    0  0.26588834543E+02 -0.27367244363E+03  0.11453777675E+03  0.49872083857E+03  0.40000000000E+03 0.  1.
   -9000005    1    1    2    0  503 -0.26588834543E+02  0.27367244363E+03 -0.79754083720E+03  0.93363534612E+03  0.40000000000E+03 0.  1.
<mgrwt>
<rscale>  2 0.48539012E+03</rscale>
<asrwt>0</asrwt>
<pdfrwt beam="1">  1       21 0.57642549E-01 0.48539012E+03</pdfrwt>
<pdfrwt beam="2">  1       21 0.16271994E+00 0.48539012E+03</pdfrwt>
<totfact> 0.55662089E+02</totfact>
</mgrwt>
</event>
<event>
 4    1  0.4949719E-002  0.5387688E+03  0.7818608E-02  0.1004127E+00
         21   -1    0    0  503  502  0.00000000000E+00  0.00000000000E+00  0.24067203264E+03  0.24067203264E+03  0.00000000000E+00 0.  1.
         21   -1    0    0  501  503 -0.00000000000E+00 -0.00000000000E+00 -0.20177768297E+04  0.20177768297E+04  0.00000000000E+00 0. -1.
    9000005    1    1    2  501    0  0.35960197150E+03  0.30955467339E+02 -0.17234583306E+03  0.56566324349E+03  0.40000000000E+03 0.  1.
   -9000005    1    1    2    0  502 -0.35960197150E+03 -0.30955467339E+02 -0.16047589640E+04  0.16927856188E+04  0.40000000000E+03 0. -1.
<mgrwt>
<rscale>  2 0.53876880E+03</rscale>
<asrwt>0</asrwt>
<pdfrwt beam="1">  1       21 0.37026466E-01 0.53876880E+03</pdfrwt>
<pdfrwt beam="2">  1       21 0.31042721E+00 0.53876880E+03</pdfrwt>
<totfact> 0.15460334E+02</totfact>
</mgrwt>
</event>
<event>
 4    1  0.4949719E-002  0.4218139E+03  0.7818608E-02  0.1036478E+00
         21   -1    0    0  503  502  0.00000000000E+00  0.00000000000E+00  0.91950226428E+03  0.91950226428E+03  0.00000000000E+00 0. -1.
         21   -1    0    0  501  503 -0.00000000000E+00 -0.00000000000E+00 -0.97090666166E+03  0.97090666166E+03  0.00000000000E+00 0. -1.
    9000005    1    1    2  501    0 -0.10334804296E+03  0.85124453597E+02 -0.87148753006E+03  0.96820323571E+03  0.40000000000E+03 0. -1.
   -9000005    1    1    2    0  502  0.10334804296E+03 -0.85124453597E+02  0.82008313268E+03  0.92220569023E+03  0.40000000000E+03 0. -1.
<mgrwt>
<rscale>  2 0.42181393E+03</rscale>
<asrwt>0</asrwt>
<pdfrwt beam="1">  1       21 0.14146189E+00 0.42181393E+03</pdfrwt>
<pdfrwt beam="2">  1       21 0.14937025E+00 0.42181393E+03</pdfrwt>
<totfact> 0.85407844E+01</totfact>
</mgrwt>
</event>
<event>
 4    1  0.4949719E-002  0.4175021E+03  0.7818608E-02  0.1037882E+00
         21   -1    0    0  501  502  0.00000000000E+00  0.00000000000E+00  0.97660393202E+03  0.97660393202E+03  0.00000000000E+00 0. -1.
         21   -1    0    0  502  503 -0.00000000000E+00 -0.00000000000E+00 -0.23887235906E+03  0.23887235906E+03  0.00000000000E+00 0.  1.
    9000005    1    1    2  501    0  0.92105258626E+02 -0.76319312125E+02  0.67443581233E+03  0.79320342979E+03  0.40000000000E+03 0. -1.
   -9000005    1    1    2    0  503 -0.92105258626E+02  0.76319312125E+02  0.63295760620E+02  0.42227286129E+03  0.40000000000E+03 0.  1.
<mgrwt>
<rscale>  2 0.41750212E+03</rscale>
<asrwt>0</asrwt>
<pdfrwt beam="1">  1       21 0.15024676E+00 0.41750212E+03</pdfrwt>
<pdfrwt beam="2">  1       21 0.36749594E-01 0.41750212E+03</pdfrwt>
<totfact> 0.18407380E+03</totfact>
</mgrwt>
</event>
<event>
 4    1  0.4949719E-002  0.4616323E+03  0.7818608E-02  0.1024309E+00
         21   -1    0    0  503  502  0.00000000000E+00  0.00000000000E+00  0.19394487749E+04  0.19394487749E+04  0.00000000000E+00 0.  1.
         21   -1    0    0  501  503 -0.00000000000E+00 -0.00000000000E+00 -0.56631199304E+03  0.56631199304E+03  0.00000000000E+00 0.  1.
    9000005    1    1    2  501    0  0.60011625161E+02 -0.22249260506E+03 -0.43821871146E+03  0.63650608287E+03  0.40000000000E+03 0.  1.
   -9000005    1    1    2    0  502 -0.60011625161E+02  0.22249260506E+03  0.18113554934E+04  0.18692546851E+04  0.40000000000E+03 0.  1.
<mgrwt>
<rscale>  2 0.46163227E+03</rscale>
<asrwt>0</asrwt>
<pdfrwt beam="1">  1       21 0.29837673E+00 0.46163227E+03</pdfrwt>
<pdfrwt beam="2">  1       21 0.87124923E-01 0.46163227E+03</pdfrwt>
<totfact> 0.29535180E+01</totfact>
</mgrwt>
</event>
<event>
 4    1  0.4949719E-002  0.7009399E+03  0.7818608E-02  0.9715626E-01
         21   -1    0    0  501  502  0.00000000000E+00  0.00000000000E+00  0.30921240954E+04  0.30921240954E+04  0.00000000000E+00 0. -1.
         21   -1    0    0  502  503 -0.00000000000E+00 -0.00000000000E+00 -0.20036116005E+03  0.20036116005E+03  0.00000000000E+00 0. -1.
    9000005    1    1    2  501    0  0.52140145686E+03  0.24383863680E+03  0.21948173701E+04  0.23040269200E+04  0.40000000000E+03 0. -1.
   -9000005    1    1    2    0  503 -0.52140145686E+03 -0.24383863680E+03  0.69694556527E+03  0.98845833547E+03  0.40000000000E+03 0. -1.
<mgrwt>
<rscale>  2 0.70093991E+03</rscale>
<asrwt>0</asrwt>
<pdfrwt beam="1">  1       21 0.47571136E+00 0.70093991E+03</pdfrwt>
<pdfrwt beam="2">  1       21 0.30824796E-01 0.70093991E+03</pdfrwt>
<totfact> 0.17627138E+01</totfact>
</mgrwt>
</event>
<event>
 4    1  0.4949719E-002  0.4952659E+03  0.7818608E-02  0.1015022E+00
         21   -1    0    0  503  502  0.00000000000E+00  0.00000000000E+00  0.61502231706E+03  0.61502231706E+03  0.00000000000E+00 0.  1.
         21   -1    0    0  501  503 -0.00000000000E+00 -0.00000000000E+00 -0.49103936767E+03  0.49103936767E+03  0.00000000000E+00 0.  1.
    9000005    1    1    2  501    0  0.28885476122E+03  0.43026471117E+02 -0.17766134826E+03  0.52616718347E+03  0.40000000000E+03 0.  1.
   -9000005    1    1    2    0  502 -0.28885476122E+03 -0.43026471117E+02  0.30164429765E+03  0.57989450127E+03  0.40000000000E+03 0.  1.
<mgrwt>
<rscale>  2 0.49526594E+03</rscale>
<asrwt>0</asrwt>
<pdfrwt beam="1">  1       21 0.94618818E-01 0.49526594E+03</pdfrwt>
<pdfrwt beam="2">  1       21 0.75544518E-01 0.49526594E+03</pdfrwt>
<totfact> 0.12284929E+03</totfact>
</mgrwt>
</event>
<event>
 4    1  0.4949719E-002  0.4254417E+03  0.7818608E-02  0.1035310E+00
         21   -1    0    0  503  502  0.00000000000E+00  0.00000000000E+00  0.68439530942E+03  0.68439530942E+03  0.00000000000E+00 0. -1.
         21   -1    0    0  501  503 -0.00000000000E+00 -0.00000000000E+00 -0.56657499196E+03  0.56657499196E+03  0.00000000000E+00 0. -1.
    9000005    1    1    2  501    0  0.64512590132E+02  0.12976423009E+03 -0.39782949884E+03  0.58246797323E+03  0.40000000000E+03 0. -1.
   -9000005    1    1    2    0  502 -0.64512590132E+02 -0.12976423009E+03  0.51564981630E+03  0.66850232815E+03  0.40000000000E+03 0. -1.
<mgrwt>
<rscale>  2 0.42544169E+03</rscale>
<asrwt>0</asrwt>
<pdfrwt beam="1">  1       21 0.10529159E+00 0.42544169E+03</pdfrwt>
<pdfrwt beam="2">  1       21 0.87165383E-01 0.42544169E+03</pdfrwt>
<totfact> 0.69966974E+02</totfact>
</mgrwt>
</event>
<event>
 4    1  0.4949719E-002  0.4092305E+03  0.7818608E-02  0.1040630E+00
         21   -1    0    0  503  502  0.00000000000E+00  0.00000000000E+00  0.48452846643E+03  0.48452846643E+03  0.00000000000E+00 0.  1.
         21   -1    0    0  501  503 -0.00000000000E+00 -0.00000000000E+00 -0.48155626295E+03  0.48155626295E+03  0.00000000000E+00 0.  1.
    9000005    1    1    2  501    0  0.45359300346E+02 -0.73567261517E+02  0.25811566522E+03  0.48383189718E+03  0.40000000000E+03 0.  1.
   -9000005    1    1    2    0  502 -0.45359300346E+02  0.73567261517E+02 -0.25514346174E+03  0.48225283220E+03  0.40000000000E+03 0.  1.
<mgrwt>
<rscale>  2 0.40923051E+03</rscale>
<asrwt>0</asrwt>
<pdfrwt beam="1">  1       21 0.74542841E-01 0.40923051E+03</pdfrwt>
<pdfrwt beam="2">  1       21 0.74085579E-01 0.40923051E+03</pdfrwt>
<totfact> 0.23164742E+03</totfact>
</mgrwt>
</event>
<event>
 4    1  0.4949719E-002  0.4604302E+03  0.7818608E-02  0.1024657E+00
         21   -1    0    0  503  502  0.00000000000E+00  0.00000000000E+00  0.84577761669E+03  0.84577761669E+03  0.00000000000E+00 0. -1.
         21   -1    0    0  501  503 -0.00000000000E+00 -0.00000000000E+00 -0.37540175102E+03  0.37540175102E+03  0.00000000000E+00 0. -1.
    9000005    1    1    2  501    0 -0.18134450867E+03 -0.13823958980E+03 -0.11679436491E+03  0.47501256687E+03  0.40000000000E+03 0. -1.
   -9000005    1    1    2    0  502  0.18134450867E+03  0.13823958980E+03  0.58717023058E+03  0.74616680085E+03  0.40000000000E+03 0. -1.
<mgrwt>
<rscale>  2 0.46043025E+03</rscale>
<asrwt>0</asrwt>
<pdfrwt beam="1">  1       21 0.13011963E+00 0.46043025E+03</pdfrwt>
<pdfrwt beam="2">  1       21 0.57754116E-01 0.46043025E+03</pdfrwt>
<totfact> 0.10238357E+03</totfact>
</mgrwt>
</event>
<event>
 4    1  0.4949719E-002  0.4727464E+03  0.7818608E-02  0.1021148E+00
         21   -1    0    0  503  502  0.00000000000E+00  0.00000000000E+00  0.31356977670E+03  0.31356977670E+03  0.00000000000E+00 0.  1.
         21   -1    0    0  501  503 -0.00000000000E+00 -0.00000000000E+00 -0.75621817238E+03  0.75621817238E+03  0.00000000000E+00 0. -1.
    9000005    1    1    2  501    0 -0.19890778948E+03 -0.15467659612E+03 -0.34960228660E+03  0.58797186744E+03  0.40000000000E+03 0. -1.
   -9000005    1    1    2    0  502  0.19890778948E+03  0.15467659612E+03 -0.93046109079E+02  0.48181608163E+03  0.40000000000E+03 0.  1.
<mgrwt>
<rscale>  2 0.47274640E+03</rscale>
<asrwt>0</asrwt>
<pdfrwt beam="1">  1       21 0.48241504E-01 0.47274640E+03</pdfrwt>
<pdfrwt beam="2">  1       21 0.11634126E+00 0.47274640E+03</pdfrwt>
<totfact> 0.19974452E+03</totfact>
</mgrwt>
</event>
<event>
 4    1  0.4949719E-002  0.4887251E+03  0.7818608E-02  0.1016764E+00
         21   -1    0    0  501  502  0.00000000000E+00  0.00000000000E+00  0.13660750734E+03  0.13660750734E+03  0.00000000000E+00 0. -1.
         21   -1    0    0  502  503 -0.00000000000E+00 -0.00000000000E+00 -0.17487369014E+04  0.17487369014E+04  0.00000000000E+00 0.  1.
    9000005    1    1    2  501    0  0.27345441260E+03 -0.63834658320E+02 -0.81801782950E+03  0.95289314656E+03  0.40000000000E+03 0.  1.
   -9000005    1    1    2    0  503 -0.27345441260E+03  0.63834658320E+02 -0.79411156458E+03  0.93245126220E+03  0.40000000000E+03 0.  1.
<mgrwt>
<rscale>  2 0.48872505E+03</rscale>
<asrwt>0</asrwt>
<pdfrwt beam="1">  1       21 0.21016541E-01 0.48872505E+03</pdfrwt>
<pdfrwt beam="2">  1       21 0.26903643E+00 0.48872505E+03</pdfrwt>
<totfact> 0.86494837E+02</totfact>
</mgrwt>
</event>
<event>
 4    1  0.4949719E-002  0.4023030E+03  0.7818608E-02  0.1042985E+00
         21   -1    0    0  501  502  0.00000000000E+00  0.00000000000E+00  0.10884242364E+04  0.10884242364E+04  0.00000000000E+00 0. -1.
         21   -1    0    0  502  503 -0.00000000000E+00 -0.00000000000E+00 -0.18671816117E+03  0.18671816117E+03  0.00000000000E+00 0. -1.
    9000005    1    1    2  501    0  0.74375645993E+01  0.42336752706E+02  0.73855050056E+03  0.84101400694E+03  0.40000000000E+03 0. -1.
   -9000005    1    1    2    0  503 -0.74375645993E+01 -0.42336752706E+02  0.16315557467E+03  0.43412839062E+03  0.40000000000E+03 0. -1.
<mgrwt>
<rscale>  2 0.40230302E+03</rscale>
<asrwt>0</asrwt>
<pdfrwt beam="1">  1       21 0.16744988E+00 0.40230302E+03</pdfrwt>
<pdfrwt beam="2">  1       21 0.28725872E-01 0.40230302E+03</pdfrwt>
<totfact> 0.22484189E+03</totfact>
</mgrwt>
</event>
<event>
 4    1  0.4949719E-002  0.4031247E+03  0.7818608E-02  0.1042703E+00
         21   -1    0    0  501  502  0.00000000000E+00  0.00000000000E+00  0.94861416673E+03  0.94861416673E+03  0.00000000000E+00 0. -1.
         21   -1    0    0  502  503 -0.00000000000E+00 -0.00000000000E+00 -0.55648943628E+03  0.55648943628E+03  0.00000000000E+00 0. -1.
    9000005    1    1    2  501    0  0.43919348451E+02 -0.24095989745E+02  0.82215419737E+03  0.91566754346E+03  0.40000000000E+03 0. -1.
   -9000005    1    1    2    0  503 -0.43919348451E+02  0.24095989745E+02 -0.43002946692E+03  0.58943605956E+03  0.40000000000E+03 0. -1.
<mgrwt>
<rscale>  2 0.40312470E+03</rscale>
<asrwt>0</asrwt>
<pdfrwt beam="1">  1       21 0.14594064E+00 0.40312470E+03</pdfrwt>
<pdfrwt beam="2">  1       21 0.85613760E-01 0.40312470E+03</pdfrwt>
<totfact> 0.32000313E+02</totfact>
</mgrwt>
</event>
<event>
 4    1  0.4949719E-002  0.5805413E+03  0.7818608E-02  0.9946620E-01
         21   -1    0    0  503  502  0.00000000000E+00  0.00000000000E+00  0.31633162241E+03  0.31633162241E+03  0.00000000000E+00 0.  1.
         21   -1    0    0  501  503 -0.00000000000E+00 -0.00000000000E+00 -0.10792639013E+04  0.10792639013E+04  0.00000000000E+00 0. -1.
    9000005    1    1    2  501    0  0.12051007390E+03 -0.40311977043E+03 -0.46047692352E+03  0.74099070461E+03  0.40000000000E+03 0.  1.
   -9000005    1    1    2    0  502 -0.12051007390E+03  0.40311977043E+03 -0.30245535542E+03  0.65460481914E+03  0.40000000000E+03 0. -1.
<mgrwt>
<rscale>  2 0.58054132E+03</rscale>
<asrwt>0</asrwt>
<pdfrwt beam="1">  1       21 0.48666403E-01 0.58054132E+03</pdfrwt>
<pdfrwt beam="2">  1       21 0.16604060E+00 0.58054132E+03</pdfrwt>
<totfact> 0.72994841E+02</totfact>
</mgrwt>
</event>
<event>
 4    1  0.4949719E-002  0.4190463E+03  0.7818608E-02  0.1037377E+00
         21   -1    0    0  501  502  0.00000000000E+00  0.00000000000E+00  0.11345389753E+04  0.11345389753E+04  0.00000000000E+00 0. -1.
         21   -1    0    0  502  503 -0.00000000000E+00 -0.00000000000E+00 -0.22246880805E+03  0.22246880805E+03  0.00000000000E+00 0. -1.
    9000005    1    1    2  501    0 -0.11945147495E+03  0.36484967400E+02  0.83030757131E+03  0.93005939095E+03  0.40000000000E+03 0. -1.
   -9000005    1    1    2    0  503  0.11945147495E+03 -0.36484967400E+02  0.81762595986E+02  0.42694839245E+03  0.40000000000E+03 0. -1.
<mgrwt>
<rscale>  2 0.41904631E+03</rscale>
<asrwt>0</asrwt>
<pdfrwt beam="1">  1       21 0.17454445E+00 0.41904631E+03</pdfrwt>
<pdfrwt beam="2">  1       21 0.34225971E-01 0.41904631E+03</pdfrwt>
<totfact> 0.13983715E+03</totfact>
</mgrwt>
</event>
<event>
 4    1  0.4949719E-002  0.4280963E+03  0.7818608E-02  0.1034463E+00
         21   -1    0    0  501  502  0.00000000000E+00  0.00000000000E+00  0.45373490712E+03  0.45373490712E+03  0.00000000000E+00 0.  1.
         21   -1    0    0  502  503 -0.00000000000E+00 -0.00000000000E+00 -0.57977027920E+03  0.57977027920E+03  0.00000000000E+00 0.  1.
    9000005    1    1    2  501    0 -0.66782962778E+02 -0.13713656563E+03  0.22158769009E+03  0.48204512875E+03  0.40000000000E+03 0.  1.
   -9000005    1    1    2    0  503  0.66782962778E+02  0.13713656563E+03 -0.34762306217E+03  0.55146005758E+03  0.40000000000E+03 0.  1.
<mgrwt>
<rscale>  2 0.42809625E+03</rscale>
<asrwt>0</asrwt>
<pdfrwt beam="1">  1       21 0.69805370E-01 0.42809625E+03</pdfrwt>
<pdfrwt beam="2">  1       21 0.89195428E-01 0.42809625E+03</pdfrwt>
<totfact> 0.17355369E+03</totfact>
</mgrwt>
</event>
<event>
 4    1  0.4949719E-002  0.5434500E+03  0.7818608E-02  0.1003021E+00
         21   -1    0    0  503  502  0.00000000000E+00  0.00000000000E+00  0.25642205305E+04  0.25642205305E+04  0.00000000000E+00 0.  1.
         21   -1    0    0  501  503 -0.00000000000E+00 -0.00000000000E+00 -0.33423688963E+03  0.33423688963E+03  0.00000000000E+00 0.  1.
    9000005    1    1    2  501    0 -0.17058913555E+03 -0.32594050373E+03 -0.58261245067E+02  0.54656402902E+03  0.40000000000E+03 0.  1.
   -9000005    1    1    2    0  502  0.17058913555E+03  0.32594050373E+03  0.22882448859E+04  0.23518933911E+04  0.40000000000E+03 0.  1.
<mgrwt>
<rscale>  2 0.54344997E+03</rscale>
<asrwt>0</asrwt>
<pdfrwt beam="1">  1       21 0.39449545E+00 0.54344997E+03</pdfrwt>
<pdfrwt beam="2">  1       21 0.51421062E-01 0.54344997E+03</pdfrwt>
<totfact> 0.23302540E+01</totfact>
</mgrwt>
</event>
<event>
 4    1  0.4949719E-002  0.4621238E+03  0.7818608E-02  0.1024167E+00
         21   -1    0    0  501  502  0.00000000000E+00  0.00000000000E+00  0.36075853998E+03  0.36075853998E+03  0.00000000000E+00 0.  1.
         21   -1    0    0  502  503 -0.00000000000E+00 -0.00000000000E+00 -0.61998310587E+03  0.61998310587E+03  0.00000000000E+00 0.  1.
    9000005    1    1    2  501    0 -0.57803023521E+01 -0.23135473138E+03 -0.25377845375E+02  0.46282011480E+03  0.40000000000E+03 0.  1.
   -9000005    1    1    2    0  503  0.57803023521E+01  0.23135473138E+03 -0.23384672052E+03  0.51792153105E+03  0.40000000000E+03 0.  1.
<mgrwt>
<rscale>  2 0.46212382E+03</rscale>
<asrwt>0</asrwt>
<pdfrwt beam="1">  1       21 0.55501314E-01 0.46212382E+03</pdfrwt>
<pdfrwt beam="2">  1       21 0.95382016E-01 0.46212382E+03</pdfrwt>
<totfact> 0.24216550E+03</totfact>
</mgrwt>
</event>
<event>
 4    1  0.4949719E-002  0.4915521E+03  0.7818608E-02  0.1016008E+00
         21   -1    0    0  501  502  0.00000000000E+00  0.00000000000E+00  0.37068136451E+03  0.37068136451E+03  0.00000000000E+00 0.  1.
         21   -1    0    0  502  503 -0.00000000000E+00 -0.00000000000E+00 -0.76221449689E+03  0.76221449689E+03  0.00000000000E+00 0.  1.
    9000005    1    1    2  501    0  0.51787430887E+01 -0.28565135159E+03 -0.41132416257E+03  0.64094545849E+03  0.40000000000E+03 0.  1.
   -9000005    1    1    2    0  503 -0.51787430887E+01  0.28565135159E+03  0.19791030198E+02  0.49195040291E+03  0.40000000000E+03 0.  1.
<mgrwt>
<rscale>  2 0.49155215E+03</rscale>
<asrwt>0</asrwt>
<pdfrwt beam="1">  1       21 0.57027903E-01 0.49155215E+03</pdfrwt>
<pdfrwt beam="2">  1       21 0.11726377E+00 0.49155215E+03</pdfrwt>
<totfact> 0.13579632E+03</totfact>
</mgrwt>
</event>
<event>
 4    1  0.4949719E-002  0.4435241E+03  0.7818608E-02  0.1029671E+00
         21   -1    0    0  501  502  0.00000000000E+00  0.00000000000E+00  0.10476787515E+04  0.10476787515E+04  0.00000000000E+00 0. -1.
         21   -1    0    0  502  503 -0.00000000000E+00 -0.00000000000E+00 -0.20843990113E+03  0.20843990113E+03  0.00000000000E+00 0. -1.
    9000005    1    1    2  501    0 -0.19011965217E+03 -0.23835985963E+02  0.61743919643E+03  0.76022680672E+03  0.40000000000E+03 0. -1.
   -9000005    1    1    2    0  503  0.19011965217E+03  0.23835985963E+02  0.22179965399E+03  0.49589184595E+03  0.40000000000E+03 0. -1.
<mgrwt>
<rscale>  2 0.44352411E+03</rscale>
<asrwt>0</asrwt>
<pdfrwt beam="1">  1       21 0.16118134E+00 0.44352411E+03</pdfrwt>
<pdfrwt beam="2">  1       21 0.32067678E-01 0.44352411E+03</pdfrwt>
<totfact> 0.19757669E+03</totfact>
</mgrwt>
</event>
<event>
 4    1  0.4949719E-002  0.5569159E+03  0.7818608E-02  0.9999057E-01
         21   -1    0    0  503  502  0.00000000000E+00  0.00000000000E+00  0.27456125662E+04  0.27456125662E+04  0.00000000000E+00 0.  1.
         21   -1    0    0  501  503 -0.00000000000E+00 -0.00000000000E+00 -0.56189186135E+03  0.56189186135E+03  0.00000000000E+00 0.  1.
    9000005    1    1    2  501    0  0.12710893233E+03  0.36605820811E+03 -0.38633680400E+03  0.67779895141E+03  0.40000000000E+03 0.  1.
   -9000005    1    1    2    0  502 -0.12710893233E+03 -0.36605820811E+03  0.25700575088E+04  0.26297054761E+04  0.40000000000E+03 0.  1.
<mgrwt>
<rscale>  2 0.55691588E+03</rscale>
<asrwt>0</asrwt>
<pdfrwt beam="1">  1       21 0.42240193E+00 0.55691588E+03</pdfrwt>
<pdfrwt beam="2">  1       21 0.86444903E-01 0.55691588E+03</pdfrwt>
<totfact> 0.47352360E+00</totfact>
</mgrwt>
</event>
<event>
 4    1  0.4949719E-002  0.4171743E+03  0.7818608E-02  0.1037990E+00
         21   -1    0    0  503  502  0.00000000000E+00  0.00000000000E+00  0.69232728772E+03  0.69232728772E+03  0.00000000000E+00 0. -1.
         21   -1    0    0  501  503 -0.00000000000E+00 -0.00000000000E+00 -0.20593657980E+04  0.20593657980E+04  0.00000000000E+00 0. -1.
    9000005    1    1    2  501    0  0.11610267861E+03 -0.23549459517E+02 -0.19726627053E+04  0.20162917840E+04  0.40000000000E+03 0. -1.
   -9000005    1    1    2    0  502 -0.11610267861E+03  0.23549459517E+02  0.60562419505E+03  0.73540130177E+03  0.40000000000E+03 0. -1.
<mgrwt>
<rscale>  2 0.41717431E+03</rscale>
<asrwt>0</asrwt>
<pdfrwt beam="1">  1       21 0.10651189E+00 0.41717431E+03</pdfrwt>
<pdfrwt beam="2">  1       21 0.31682551E+00 0.41717431E+03</pdfrwt>
<totfact> 0.14584499E+01</totfact>
</mgrwt>
</event>
<event>
 4    1  0.4949719E-002  0.4485096E+03  0.7818608E-02  0.1028167E+00
         21   -1    0    0  501  502  0.00000000000E+00  0.00000000000E+00  0.14977081608E+03  0.14977081608E+03  0.00000000000E+00 0. -1.
         21   -1    0    0  502  503 -0.00000000000E+00 -0.00000000000E+00 -0.13979054832E+04  0.13979054832E+04  0.00000000000E+00 0.  1.
    9000005    1    1    2  501    0  0.84044744913E+02  0.18465465732E+03 -0.77725574096E+03  0.89737804100E+03  0.40000000000E+03 0.  1.
   -9000005    1    1    2    0  503 -0.84044744913E+02 -0.18465465732E+03 -0.47087892615E+03  0.65029825827E+03  0.40000000000E+03 0. -1.
<mgrwt>
<rscale>  2 0.44850960E+03</rscale>
<asrwt>0</asrwt>
<pdfrwt beam="1">  1       21 0.23041664E-01 0.44850960E+03</pdfrwt>
<pdfrwt beam="2">  1       21 0.21506238E+00 0.44850960E+03</pdfrwt>
<totfact> 0.16008677E+03</totfact>
</mgrwt>
</event>
<event>
 4    1  0.4949719E-002  0.4350461E+03  0.7818608E-02  0.1032278E+00
         21   -1    0    0  501  502  0.00000000000E+00  0.00000000000E+00  0.16146988859E+04  0.16146988859E+04  0.00000000000E+00 0.  1.
         21   -1    0    0  502  503 -0.00000000000E+00 -0.00000000000E+00 -0.16722237777E+03  0.16722237777E+03  0.00000000000E+00 0.  1.
    9000005    1    1    2  501    0  0.15619604697E+03 -0.69770600075E+02  0.12109672962E+04  0.12867427614E+04  0.40000000000E+03 0.  1.
   -9000005    1    1    2    0  503 -0.15619604697E+03  0.69770600075E+02  0.23650921196E+03  0.49517850222E+03  0.40000000000E+03 0.  1.
<mgrwt>
<rscale>  2 0.43504614E+03</rscale>
<asrwt>0</asrwt>
<pdfrwt beam="1">  1       21 0.24841520E+00 0.43504614E+03</pdfrwt>
<pdfrwt beam="2">  1       21 0.25726521E-01 0.43504614E+03</pdfrwt>
<totfact> 0.80335293E+02</totfact>
</mgrwt>
</event>
<event>
 4    1  0.4949719E-002  0.5580979E+03  0.7818608E-02  0.9996368E-01
         21   -1    0    0  503  502  0.00000000000E+00  0.00000000000E+00  0.48898533485E+03  0.48898533485E+03  0.00000000000E+00 0. -1.
         21   -1    0    0  501  503 -0.00000000000E+00 -0.00000000000E+00 -0.11627344948E+04  0.11627344948E+04  0.00000000000E+00 0. -1.
    9000005    1    1    2  501    0  0.30763613533E+03  0.23839723820E+03 -0.89221354868E+03  0.10523869305E+04  0.40000000000E+03 0. -1.
   -9000005    1    1    2    0  502 -0.30763613533E+03 -0.23839723820E+03  0.21846438871E+03  0.59933289921E+03  0.40000000000E+03 0. -1.
<mgrwt>
<rscale>  2 0.55809787E+03</rscale>
<asrwt>0</asrwt>
<pdfrwt beam="1">  1       21 0.75228514E-01 0.55809787E+03</pdfrwt>
<pdfrwt beam="2">  1       21 0.17888223E+00 0.55809787E+03</pdfrwt>
<totfact> 0.22689104E+02</totfact>
</mgrwt>
</event>
<event>
 4    1  0.4949719E-002  0.5064995E+03  0.7818608E-02  0.1012096E+00
         21   -1    0    0  503  502  0.00000000000E+00  0.00000000000E+00  0.85669712362E+03  0.85669712362E+03  0.00000000000E+00 0. -1.
         21   -1    0    0  501  503 -0.00000000000E+00 -0.00000000000E+00 -0.54462802162E+03  0.54462802162E+03  0.00000000000E+00 0. -1.
    9000005    1    1    2  501    0  0.27119441409E+03 -0.15164198611E+03  0.62614058002E+03  0.80535316982E+03  0.40000000000E+03 0. -1.
   -9000005    1    1    2    0  502 -0.27119441409E+03  0.15164198611E+03 -0.31407147801E+03  0.59597197542E+03  0.40000000000E+03 0. -1.
<mgrwt>
<rscale>  2 0.50649946E+03</rscale>
<asrwt>0</asrwt>
<pdfrwt beam="1">  1       21 0.13179956E+00 0.50649946E+03</pdfrwt>
<pdfrwt beam="2">  1       21 0.83788927E-01 0.50649946E+03</pdfrwt>
<totfact> 0.41983198E+02</totfact>
</mgrwt>
</event>
<event>
 4    1  0.4949719E-002  0.4725248E+03  0.7818608E-02  0.1021210E+00
         21   -1    0    0  501  502  0.00000000000E+00  0.00000000000E+00  0.54322057676E+03  0.54322057676E+03  0.00000000000E+00 0. -1.
         21   -1    0    0  502  503 -0.00000000000E+00 -0.00000000000E+00 -0.43552358550E+03  0.43552358550E+03  0.00000000000E+00 0. -1.
    9000005    1    1    2  501    0  0.21192764725E+03 -0.13552267380E+03 -0.62206355705E+02  0.47660188153E+03  0.40000000000E+03 0. -1.
   -9000005    1    1    2    0  503 -0.21192764725E+03  0.13552267380E+03  0.16990334696E+03  0.50214228073E+03  0.40000000000E+03 0. -1.
<mgrwt>
<rscale>  2 0.47252484E+03</rscale>
<asrwt>0</asrwt>
<pdfrwt beam="1">  1       21 0.83572397E-01 0.47252484E+03</pdfrwt>
<pdfrwt beam="2">  1       21 0.67003628E-01 0.47252484E+03</pdfrwt>
<totfact> 0.21799493E+03</totfact>
</mgrwt>
</event>
<event>
 4    1  0.4949719E-002  0.4995365E+03  0.7818608E-02  0.1013900E+00
         21   -1    0    0  503  502  0.00000000000E+00  0.00000000000E+00  0.13468895197E+03  0.13468895197E+03  0.00000000000E+00 0. -1.
         21   -1    0    0  501  503 -0.00000000000E+00 -0.00000000000E+00 -0.21630964730E+04  0.21630964730E+04  0.00000000000E+00 0.  1.
    9000005    1    1    2  501    0 -0.20384341866E+03 -0.21905378476E+03 -0.57898478638E+03  0.76469607218E+03  0.40000000000E+03 0. -1.
   -9000005    1    1    2    0  502  0.20384341866E+03  0.21905378476E+03 -0.14494227346E+04  0.15330893528E+04  0.40000000000E+03 0.  1.
<mgrwt>
<rscale>  2 0.49953649E+03</rscale>
<asrwt>0</asrwt>
<pdfrwt beam="1">  1       21 0.20721378E-01 0.49953649E+03</pdfrwt>
<pdfrwt beam="2">  1       21 0.33278406E+00 0.49953649E+03</pdfrwt>
<totfact> 0.36335899E+02</totfact>
</mgrwt>
</event>
<event>
 4    1  0.4949719E-002  0.4410477E+03  0.7818608E-02  0.1030426E+00
         21   -1    0    0  503  502  0.00000000000E+00  0.00000000000E+00  0.15126053670E+03  0.15126053670E+03  0.00000000000E+00 0.  1.
         21   -1    0    0  501  503 -0.00000000000E+00 -0.00000000000E+00 -0.13490274952E+04  0.13490274952E+04  0.00000000000E+00 0.  1.
    9000005    1    1    2  501    0  0.18405193450E+03  0.25455903997E+02 -0.76100929589E+03  0.87957845931E+03  0.40000000000E+03 0.  1.
   -9000005    1    1    2    0  502 -0.18405193450E+03 -0.25455903997E+02 -0.43675766258E+03  0.62070957256E+03  0.40000000000E+03 0.  1.
<mgrwt>
<rscale>  2 0.44104775E+03</rscale>
<asrwt>0</asrwt>
<pdfrwt beam="1">  1       21 0.23270851E-01 0.44104775E+03</pdfrwt>
<pdfrwt beam="2">  1       21 0.20754270E+00 0.44104775E+03</pdfrwt>
<totfact> 0.17635861E+03</totfact>
</mgrwt>
</event>
<event>
 4    1  0.4949719E-002  0.4212647E+03  0.7818608E-02  0.1036655E+00
         21   -1    0    0  503  502  0.00000000000E+00  0.00000000000E+00  0.34895816959E+03  0.34895816959E+03  0.00000000000E+00 0. -1.
         21   -1    0    0  501  503 -0.00000000000E+00 -0.00000000000E+00 -0.12332005826E+04  0.12332005826E+04  0.00000000000E+00 0. -1.
    9000005    1    1    2  501    0 -0.10027349979E+02 -0.13177031513E+03 -0.10485312978E+04  0.11299919673E+04  0.40000000000E+03 0. -1.
   -9000005    1    1    2    0  502  0.10027349979E+02  0.13177031513E+03  0.16428888479E+03  0.45216678489E+03  0.40000000000E+03 0. -1.
<mgrwt>
<rscale>  2 0.42126472E+03</rscale>
<asrwt>0</asrwt>
<pdfrwt beam="1">  1       21 0.53685873E-01 0.42126472E+03</pdfrwt>
<pdfrwt beam="2">  1       21 0.18972316E+00 0.42126472E+03</pdfrwt>
<totfact> 0.42931201E+02</totfact>
</mgrwt>
</event>
<event>
 4    1  0.4949719E-002  0.4288343E+03  0.7818608E-02  0.1034229E+00
         21   -1    0    0  501  502  0.00000000000E+00  0.00000000000E+00  0.52438868439E+03  0.52438868439E+03  0.00000000000E+00 0.  1.
         21   -1    0    0  502  503 -0.00000000000E+00 -0.00000000000E+00 -0.39099531353E+03  0.39099531353E+03  0.00000000000E+00 0. -1.
    9000005    1    1    2  501    0 -0.12736631186E+03 -0.87616732995E+02  0.21364290109E+03  0.47910558177E+03  0.40000000000E+03 0.  1.
   -9000005    1    1    2    0  503  0.12736631186E+03  0.87616732995E+02 -0.80249530236E+02  0.43627841615E+03  0.40000000000E+03 0. -1.
<mgrwt>
<rscale>  2 0.42883431E+03</rscale>
<asrwt>0</asrwt>
<pdfrwt beam="1">  1       21 0.80675182E-01 0.42883431E+03</pdfrwt>
<pdfrwt beam="2">  1       21 0.60153125E-01 0.42883431E+03</pdfrwt>
<totfact> 0.30518983E+03</totfact>
</mgrwt>
</event>
<event>
 4    1  0.4949719E-002  0.4387554E+03  0.7818608E-02  0.1031129E+00
         21   -1    0    0  503  502  0.00000000000E+00  0.00000000000E+00  0.14086058664E+04  0.14086058664E+04  0.00000000000E+00 0. -1.
         21   -1    0    0  501  503 -0.00000000000E+00 -0.00000000000E+00 -0.14758377245E+03  0.14758377245E+03  0.00000000000E+00 0. -1.
    9000005    1    1    2  501    0 -0.11657380892E+02  0.17991786369E+03  0.41886446444E+03  0.60659193184E+03  0.40000000000E+03 0. -1.
   -9000005    1    1    2    0  502  0.11657380892E+02 -0.17991786369E+03  0.84215762953E+03  0.94959770702E+03  0.40000000000E+03 0. -1.
<mgrwt>
<rscale>  2 0.43875544E+03</rscale>
<asrwt>0</asrwt>
<pdfrwt beam="1">  1       21 0.21670859E+00 0.43875544E+03</pdfrwt>
<pdfrwt beam="2">  1       21 0.22705197E-01 0.43875544E+03</pdfrwt>
<totfact> 0.16143269E+03</totfact>
</mgrwt>
</event>
<event>
 4    1  0.4949719E-002  0.4914877E+03  0.7818608E-02  0.1016025E+00
         21   -1    0    0  503  502  0.00000000000E+00  0.00000000000E+00  0.24910246781E+03  0.24910246781E+03  0.00000000000E+00 0. -1.
         21   -1    0    0  501  503 -0.00000000000E+00 -0.00000000000E+00 -0.14023923112E+04  0.14023923112E+04  0.00000000000E+00 0. -1.
    9000005    1    1    2  501    0 -0.17959459960E+03  0.22204949410E+03 -0.10353049422E+04  0.11460438566E+04  0.40000000000E+03 0. -1.
   -9000005    1    1    2    0  502  0.17959459960E+03 -0.22204949410E+03 -0.11798490123E+03  0.50545092240E+03  0.40000000000E+03 0. -1.
<mgrwt>
<rscale>  2 0.49148774E+03</rscale>
<asrwt>0</asrwt>
<pdfrwt beam="1">  1       21 0.38323456E-01 0.49148774E+03</pdfrwt>
<pdfrwt beam="2">  1       21 0.21575267E+00 0.49148774E+03</pdfrwt>
<totfact> 0.56526526E+02</totfact>
</mgrwt>
</event>
<event>
 4    1  0.4949719E-002  0.4727444E+03  0.7818608E-02  0.1021148E+00
         21   -1    0    0  503  502  0.00000000000E+00  0.00000000000E+00  0.18357930315E+03  0.18357930315E+03  0.00000000000E+00 0. -1.
         21   -1    0    0  501  503 -0.00000000000E+00 -0.00000000000E+00 -0.13323159474E+04  0.13323159474E+04  0.00000000000E+00 0. -1.
    9000005    1    1    2  501    0 -0.12719029204E+03  0.21750844356E+03 -0.79697996059E+03  0.92664143604E+03  0.40000000000E+03 0. -1.
   -9000005    1    1    2    0  502  0.12719029204E+03 -0.21750844356E+03 -0.35175668366E+03  0.58925381450E+03  0.40000000000E+03 0. -1.
<mgrwt>
<rscale>  2 0.47274443E+03</rscale>
<asrwt>0</asrwt>
<pdfrwt beam="1">  1       21 0.28242969E-01 0.47274443E+03</pdfrwt>
<pdfrwt beam="2">  1       21 0.20497169E+00 0.47274443E+03</pdfrwt>
<totfact> 0.12389832E+03</totfact>
</mgrwt>
</event>
<event>
 4    1  0.4949719E-002  0.5257719E+03  0.7818608E-02  0.1007263E+00
         21   -1    0    0  503  502  0.00000000000E+00  0.00000000000E+00  0.63770906131E+03  0.63770906131E+03  0.00000000000E+00 0. -1.
         21   -1    0    0  501  503 -0.00000000000E+00 -0.00000000000E+00 -0.67710732912E+03  0.67710732912E+03  0.00000000000E+00 0.  1.
    9000005    1    1    2  501    0 -0.24563669581E+02 -0.34034208294E+03 -0.41403527865E+03  0.66922441621E+03  0.40000000000E+03 0.  1.
   -9000005    1    1    2    0  502  0.24563669581E+02  0.34034208294E+03  0.37463701084E+03  0.64559197422E+03  0.40000000000E+03 0. -1.
<mgrwt>
<rscale>  2 0.52577192E+03</rscale>
<asrwt>0</asrwt>
<pdfrwt beam="1">  1       21 0.98109087E-01 0.52577192E+03</pdfrwt>
<pdfrwt beam="2">  1       21 0.10417036E+00 0.52577192E+03</pdfrwt>
<totfact> 0.51953361E+02</totfact>
</mgrwt>
</event>
<event>
 4    1  0.4949719E-002  0.4608537E+03  0.7818608E-02  0.1024534E+00
         21   -1    0    0  503  502  0.00000000000E+00  0.00000000000E+00  0.87670384194E+03  0.87670384194E+03  0.00000000000E+00 0. -1.
         21   -1    0    0  501  503 -0.00000000000E+00 -0.00000000000E+00 -0.34116328469E+03  0.34116328469E+03  0.00000000000E+00 0. -1.
    9000005    1    1    2  501    0 -0.21996254923E+03  0.63266144931E+02 -0.60101853952E+02  0.46475623827E+03  0.40000000000E+03 0. -1.
   -9000005    1    1    2    0  502  0.21996254923E+03 -0.63266144931E+02  0.59564241120E+03  0.75311088837E+03  0.40000000000E+03 0. -1.
<mgrwt>
<rscale>  2 0.46085369E+03</rscale>
<asrwt>0</asrwt>
<pdfrwt beam="1">  1       21 0.13487751E+00 0.46085369E+03</pdfrwt>
<pdfrwt beam="2">  1       21 0.52486660E-01 0.46085369E+03</pdfrwt>
<totfact> 0.11460844E+03</totfact>
</mgrwt>
</event>
<event>
 4    1  0.4949719E-002  0.4888971E+03  0.7818608E-02  0.1016718E+00
         21   -1    0    0  501  502  0.00000000000E+00  0.00000000000E+00  0.13021477210E+04  0.13021477210E+04  0.00000000000E+00 0. -1.
         21   -1    0    0  502  503 -0.00000000000E+00 -0.00000000000E+00 -0.51881306627E+03  0.51881306627E+03  0.00000000000E+00 0. -1.
    9000005    1    1    2  501    0 -0.10066437882E+03  0.26246344964E+03  0.11235685086E+04  0.12253271290E+04  0.40000000000E+03 0. -1.
   -9000005    1    1    2    0  503  0.10066437882E+03 -0.26246344964E+03 -0.34023385385E+03  0.59563365827E+03  0.40000000000E+03 0. -1.
<mgrwt>
<rscale>  2 0.48889711E+03</rscale>
<asrwt>0</asrwt>
<pdfrwt beam="1">  1       21 0.20033042E+00 0.48889711E+03</pdfrwt>
<pdfrwt beam="2">  1       21 0.79817395E-01 0.48889711E+03</pdfrwt>
<totfact> 0.14529207E+02</totfact>
</mgrwt>
</event>
<event>
 4    1  0.4949719E-002  0.5221767E+03  0.7818608E-02  0.1008147E+00
         21   -1    0    0  503  502  0.00000000000E+00  0.00000000000E+00  0.47753972937E+03  0.47753972937E+03  0.00000000000E+00 0.  1.
         21   -1    0    0  501  503 -0.00000000000E+00 -0.00000000000E+00 -0.59493107707E+03  0.59493107707E+03  0.00000000000E+00 0. -1.
    9000005    1    1    2  501    0 -0.22067149155E+03 -0.25292807201E+03 -0.16627528119E+03  0.54801093596E+03  0.40000000000E+03 0. -1.
   -9000005    1    1    2    0  502  0.22067149155E+03  0.25292807201E+03  0.48883933485E+02  0.52445987048E+03  0.40000000000E+03 0. -1.
<mgrwt>
<rscale>  2 0.52217671E+03</rscale>
<asrwt>0</asrwt>
<pdfrwt beam="1">  1       21 0.73467651E-01 0.52217671E+03</pdfrwt>
<pdfrwt beam="2">  1       21 0.91527858E-01 0.52217671E+03</pdfrwt>
<totfact> 0.14045218E+03</totfact>
</mgrwt>
</event>
<event>
 4    1  0.4949719E-002  0.4452739E+03  0.7818608E-02  0.1029141E+00
         21   -1    0    0  501  502  0.00000000000E+00  0.00000000000E+00  0.10055717328E+04  0.10055717328E+04  0.00000000000E+00 0.  1.
         21   -1    0    0  502  503 -0.00000000000E+00 -0.00000000000E+00 -0.34781028983E+03  0.34781028983E+03  0.00000000000E+00 0.  1.
    9000005    1    1    2  501    0  0.12880464732E+03 -0.14723518250E+03  0.77421835453E+03  0.89313095156E+03  0.40000000000E+03 0.  1.
   -9000005    1    1    2    0  503 -0.12880464732E+03  0.14723518250E+03 -0.11645691158E+03  0.46025107104E+03  0.40000000000E+03 0.  1.
<mgrwt>
<rscale>  2 0.44527389E+03</rscale>
<asrwt>0</asrwt>
<pdfrwt beam="1">  1       21 0.15470334E+00 0.44527389E+03</pdfrwt>
<pdfrwt beam="2">  1       21 0.53509276E-01 0.44527389E+03</pdfrwt>
<totfact> 0.76594749E+02</totfact>
</mgrwt>
</event>
<event>
 4    1  0.4949719E-002  0.5556790E+03  0.7818608E-02  0.1000188E+00
         21   -1    0    0  503  502  0.00000000000E+00  0.00000000000E+00  0.19520153556E+03  0.19520153556E+03  0.00000000000E+00 0.  1.
         21   -1    0    0  501  503 -0.00000000000E+00 -0.00000000000E+00 -0.16587074385E+04  0.16587074385E+04  0.00000000000E+00 0. -1.
    9000005    1    1    2  501    0  0.28433075954E+03  0.26064380367E+03 -0.93128924807E+03  0.10844716856E+04  0.40000000000E+03 0. -1.
   -9000005    1    1    2    0  502 -0.28433075954E+03 -0.26064380367E+03 -0.53221665487E+03  0.76943728850E+03  0.40000000000E+03 0.  1.
<mgrwt>
<rscale>  2 0.55567902E+03</rscale>
<asrwt>0</asrwt>
<pdfrwt beam="1">  1       21 0.30031006E-01 0.55567902E+03</pdfrwt>
<pdfrwt beam="2">  1       21 0.25518576E+00 0.55567902E+03</pdfrwt>
<totfact> 0.50815752E+02</totfact>
</mgrwt>
</event>
<event>
 4    1  0.4949719E-002  0.4692815E+03  0.7818608E-02  0.1022123E+00
         21   -1    0    0  503  502  0.00000000000E+00  0.00000000000E+00  0.91767898814E+03  0.91767898814E+03  0.00000000000E+00 0.  1.
         21   -1    0    0  501  503 -0.00000000000E+00 -0.00000000000E+00 -0.42629947275E+03  0.42629947275E+03  0.00000000000E+00 0.  1.
    9000005    1    1    2  501    0  0.21375064831E+03  0.12056457391E+03 -0.19856627784E+03  0.50956228552E+03  0.40000000000E+03 0.  1.
   -9000005    1    1    2    0  502 -0.21375064831E+03 -0.12056457391E+03  0.68994579322E+03  0.83441617537E+03  0.40000000000E+03 0.  1.
<mgrwt>
<rscale>  2 0.46928153E+03</rscale>
<asrwt>0</asrwt>
<pdfrwt beam="1">  1       21 0.14118138E+00 0.46928153E+03</pdfrwt>
<pdfrwt beam="2">  1       21 0.65584534E-01 0.46928153E+03</pdfrwt>
<totfact> 0.62190944E+02</totfact>
</mgrwt>
</event>
<event>
 4    1  0.4949719E-002  0.4950864E+03  0.7818608E-02  0.1015069E+00
         21   -1    0    0  501  502  0.00000000000E+00  0.00000000000E+00  0.31283494802E+03  0.31283494802E+03  0.00000000000E+00 0.  1.
         21   -1    0    0  502  503 -0.00000000000E+00 -0.00000000000E+00 -0.91626950174E+03  0.91626950174E+03  0.00000000000E+00 0.  1.
    9000005    1    1    2  501    0  0.20718476685E+03  0.20538999431E+03 -0.53564051153E+03  0.72939792635E+03  0.40000000000E+03 0.  1.
   -9000005    1    1    2    0  503 -0.20718476685E+03 -0.20538999431E+03 -0.67794042189E+02  0.49970652341E+03  0.40000000000E+03 0.  1.
<mgrwt>
<rscale>  2 0.49508643E+03</rscale>
<asrwt>0</asrwt>
<pdfrwt beam="1">  1       21 0.48128454E-01 0.49508643E+03</pdfrwt>
<pdfrwt beam="2">  1       21 0.14096454E+00 0.49508643E+03</pdfrwt>
<totfact> 0.12100697E+03</totfact>
</mgrwt>
</event>
<event>
 4    1  0.4949719E-002  0.4226818E+03  0.7818608E-02  0.1036197E+00
         21   -1    0    0  503  502  0.00000000000E+00  0.00000000000E+00  0.20523681492E+03  0.20523681492E+03  0.00000000000E+00 0. -1.
         21   -1    0    0  501  503 -0.00000000000E+00 -0.00000000000E+00 -0.13316202962E+04  0.13316202962E+04  0.00000000000E+00 0. -1.
    9000005    1    1    2  501    0  0.10215780072E+03  0.90684555195E+02 -0.10153781718E+04  0.10998421417E+04  0.40000000000E+03 0. -1.
   -9000005    1    1    2    0  502 -0.10215780072E+03 -0.90684555195E+02 -0.11100530947E+03  0.43701496946E+03  0.40000000000E+03 0. -1.
<mgrwt>
<rscale>  2 0.42268180E+03</rscale>
<asrwt>0</asrwt>
<pdfrwt beam="1">  1       21 0.31574894E-01 0.42268180E+03</pdfrwt>
<pdfrwt beam="2">  1       21 0.20486466E+00 0.42268180E+03</pdfrwt>
<totfact> 0.10176721E+03</totfact>
</mgrwt>
</event>
<event>
 4    1  0.4949719E-002  0.4566831E+03  0.7818608E-02  0.1025748E+00
         21   -1    0    0  503  502  0.00000000000E+00  0.00000000000E+00  0.21261618917E+03  0.21261618917E+03  0.00000000000E+00 0.  1.
         21   -1    0    0  501  503 -0.00000000000E+00 -0.00000000000E+00 -0.11974688805E+04  0.11974688805E+04  0.00000000000E+00 0.  1.
    9000005    1    1    2  501    0  0.21887687806E+03 -0.25540989179E+02 -0.79224687874E+03  0.91444767305E+03  0.40000000000E+03 0.  1.
   -9000005    1    1    2    0  502 -0.21887687806E+03  0.25540989179E+02 -0.19260581256E+03  0.49563739660E+03  0.40000000000E+03 0.  1.
<mgrwt>
<rscale>  2 0.45668307E+03</rscale>
<asrwt>0</asrwt>
<pdfrwt beam="1">  1       21 0.32710183E-01 0.45668307E+03</pdfrwt>
<pdfrwt beam="2">  1       21 0.18422598E+00 0.45668307E+03</pdfrwt>
<totfact> 0.12870792E+03</totfact>
</mgrwt>
</event>
<event>
 4    1  0.4949719E-002  0.4919567E+03  0.7818608E-02  0.1015900E+00
         21   -1    0    0  503  502  0.00000000000E+00  0.00000000000E+00  0.52206317970E+03  0.52206317970E+03  0.00000000000E+00 0.  1.
         21   -1    0    0  501  503 -0.00000000000E+00 -0.00000000000E+00 -0.61790222920E+03  0.61790222920E+03  0.00000000000E+00 0.  1.
    9000005    1    1    2  501    0  0.23362679025E+03  0.16565006311E+03 -0.33276344411E+03  0.59393007186E+03  0.40000000000E+03 0.  1.
   -9000005    1    1    2    0  502 -0.23362679025E+03 -0.16565006311E+03  0.23692439461E+03  0.54603533703E+03  0.40000000000E+03 0.  1.
<mgrwt>
<rscale>  2 0.49195673E+03</rscale>
<asrwt>0</asrwt>
<pdfrwt beam="1">  1       21 0.80317413E-01 0.49195673E+03</pdfrwt>
<pdfrwt beam="2">  1       21 0.95061881E-01 0.49195673E+03</pdfrwt>
<totfact> 0.10562100E+03</totfact>
</mgrwt>
</event>
<event>
 4    1  0.4949719E-002  0.4001580E+03  0.7818608E-02  0.1043725E+00
         21   -1    0    0  501  502  0.00000000000E+00  0.00000000000E+00  0.11010980660E+04  0.11010980660E+04  0.00000000000E+00 0. -1.
         21   -1    0    0  502  503 -0.00000000000E+00 -0.00000000000E+00 -0.22209549548E+03  0.22209549548E+03  0.00000000000E+00 0. -1.
    9000005    1    1    2  501    0  0.10059882512E+02 -0.50210226744E+01  0.82822374564E+03  0.91982660580E+03  0.40000000000E+03 0. -1.
   -9000005    1    1    2    0  503 -0.10059882512E+02  0.50210226744E+01  0.50778824914E+02  0.40336695572E+03  0.40000000000E+03 0. -1.
<mgrwt>
<rscale>  2 0.40015798E+03</rscale>
<asrwt>0</asrwt>
<pdfrwt beam="1">  1       21 0.16939970E+00 0.40015798E+03</pdfrwt>
<pdfrwt beam="2">  1       21 0.34168538E-01 0.40015798E+03</pdfrwt>
<totfact> 0.15416543E+03</totfact>
</mgrwt>
</event>
<event>
 4    1  0.4949719E-002  0.4030106E+03  0.7818608E-02  0.1042742E+00
         21   -1    0    0  501  502  0.00000000000E+00  0.00000000000E+00  0.81290924681E+03  0.81290924681E+03  0.00000000000E+00 0. -1.
         21   -1    0    0  502  503 -0.00000000000E+00 -0.00000000000E+00 -0.20995684014E+03  0.20995684014E+03  0.00000000000E+00 0. -1.
    9000005    1    1    2  501    0  0.36726256516E+02 -0.32690813171E+02  0.41397538679E+03  0.57774832588E+03  0.40000000000E+03 0. -1.
   -9000005    1    1    2    0  503 -0.36726256516E+02  0.32690813171E+02  0.18897701987E+03  0.44511776107E+03  0.40000000000E+03 0. -1.
<mgrwt>
<rscale>  2 0.40301055E+03</rscale>
<asrwt>0</asrwt>
<pdfrwt beam="1">  1       21 0.12506296E+00 0.40301055E+03</pdfrwt>
<pdfrwt beam="2">  1       21 0.32301053E-01 0.40301055E+03</pdfrwt>
<totfact> 0.38934291E+03</totfact>
</mgrwt>
</event>
<event>
 4    1  0.4949719E-002  0.4178597E+03  0.7818608E-02  0.1037765E+00
         21   -1    0    0  503  502  0.00000000000E+00  0.00000000000E+00  0.17840069742E+03  0.17840069742E+03  0.00000000000E+00 0.  1.
         21   -1    0    0  501  503 -0.00000000000E+00 -0.00000000000E+00 -0.99173380277E+03  0.99173380277E+03  0.00000000000E+00 0. -1.
    9000005    1    1    2  501    0 -0.64806682400E+02  0.10201376404E+03 -0.47365305329E+03  0.63162799893E+03  0.40000000000E+03 0. -1.
   -9000005    1    1    2    0  502  0.64806682400E+02 -0.10201376404E+03 -0.33968005206E+03  0.53850650127E+03  0.40000000000E+03 0.  1.
<mgrwt>
<rscale>  2 0.41785968E+03</rscale>
<asrwt>0</asrwt>
<pdfrwt beam="1">  1       21 0.27446261E-01 0.41785968E+03</pdfrwt>
<pdfrwt beam="2">  1       21 0.15257443E+00 0.41785968E+03</pdfrwt>
<totfact> 0.31624207E+03</totfact>
</mgrwt>
</event>
<event>
 4    1  0.4949719E-002  0.4851850E+03  0.7818608E-02  0.1017720E+00
         21   -1    0    0  501  502  0.00000000000E+00  0.00000000000E+00  0.43564957428E+03  0.43564957428E+03  0.00000000000E+00 0. -1.
         21   -1    0    0  502  503 -0.00000000000E+00 -0.00000000000E+00 -0.61549561062E+03  0.61549561062E+03  0.00000000000E+00 0.  1.
    9000005    1    1    2  501    0 -0.26291787907E+03 -0.79238003753E+02 -0.27356159287E+03  0.55699229570E+03  0.40000000000E+03 0.  1.
   -9000005    1    1    2    0  503  0.26291787907E+03  0.79238003753E+02  0.93715556534E+02  0.49415288921E+03  0.40000000000E+03 0. -1.
<mgrwt>
<rscale>  2 0.48518499E+03</rscale>
<asrwt>0</asrwt>
<pdfrwt beam="1">  1       21 0.67023012E-01 0.48518499E+03</pdfrwt>
<pdfrwt beam="2">  1       21 0.94691632E-01 0.48518499E+03</pdfrwt>
<totfact> 0.16136649E+03</totfact>
</mgrwt>
</event>
<event>
 4    1  0.4949719E-002  0.5504748E+03  0.7818608E-02  0.1001384E+00
         21   -1    0    0  503  502  0.00000000000E+00  0.00000000000E+00  0.20173919490E+03  0.20173919490E+03  0.00000000000E+00 0.  1.
         21   -1    0    0  501  503 -0.00000000000E+00 -0.00000000000E+00 -0.23902477422E+04  0.23902477422E+04  0.00000000000E+00 0.  1.
    9000005    1    1    2  501    0 -0.51464157933E+02  0.37466504351E+03 -0.18842706060E+04  0.19630329012E+04  0.40000000000E+03 0.  1.
   -9000005    1    1    2    0  502  0.51464157933E+02 -0.37466504351E+03 -0.30423794125E+03  0.62895403590E+03  0.40000000000E+03 0.  1.
<mgrwt>
<rscale>  2 0.55047475E+03</rscale>
<asrwt>0</asrwt>
<pdfrwt beam="1">  1       21 0.31036801E-01 0.55047475E+03</pdfrwt>
<pdfrwt beam="2">  1       21 0.36773040E+00 0.55047475E+03</pdfrwt>
<totfact> 0.97549182E+01</totfact>
</mgrwt>
</event>
<event>
 4    1  0.4949719E-002  0.4627992E+03  0.7818608E-02  0.1023972E+00
         21   -1    0    0  501  502  0.00000000000E+00  0.00000000000E+00  0.10417196241E+04  0.10417196241E+04  0.00000000000E+00 0. -1.
         21   -1    0    0  502  503 -0.00000000000E+00 -0.00000000000E+00 -0.56895180554E+03  0.56895180554E+03  0.00000000000E+00 0. -1.
    9000005    1    1    2  501    0 -0.14686775506E+03  0.18059069143E+03  0.87995967085E+03  0.99423948706E+03  0.40000000000E+03 0. -1.
   -9000005    1    1    2    0  503  0.14686775506E+03 -0.18059069143E+03 -0.40719185226E+03  0.61643194260E+03  0.40000000000E+03 0. -1.
<mgrwt>
<rscale>  2 0.46279924E+03</rscale>
<asrwt>0</asrwt>
<pdfrwt beam="1">  1       21 0.16026456E+00 0.46279924E+03</pdfrwt>
<pdfrwt beam="2">  1       21 0.87531047E-01 0.46279924E+03</pdfrwt>
<totfact> 0.22803757E+02</totfact>
</mgrwt>
</event>
<event>
 4    1  0.4949719E-002  0.4426143E+03  0.7818608E-02  0.1029948E+00
         21   -1    0    0  501  502  0.00000000000E+00  0.00000000000E+00  0.16764456017E+03  0.16764456017E+03  0.00000000000E+00 0. -1.
         21   -1    0    0  502  503 -0.00000000000E+00 -0.00000000000E+00 -0.11694495801E+04  0.11694495801E+04  0.00000000000E+00 0. -1.
    9000005    1    1    2  501    0  0.39605391498E+02  0.18530731243E+03 -0.48275402014E+03  0.65494948739E+03  0.40000000000E+03 0. -1.
   -9000005    1    1    2    0  503 -0.39605391498E+02 -0.18530731243E+03 -0.51905099982E+03  0.68214465291E+03  0.40000000000E+03 0. -1.
<mgrwt>
<rscale>  2 0.44261426E+03</rscale>
<asrwt>0</asrwt>
<pdfrwt beam="1">  1       21 0.25791470E-01 0.44261426E+03</pdfrwt>
<pdfrwt beam="2">  1       21 0.17991532E+00 0.44261426E+03</pdfrwt>
<totfact> 0.22216841E+03</totfact>
</mgrwt>
</event>
<event>
 4    1  0.4949719E-002  0.4013896E+03  0.7818608E-02  0.1043300E+00
         21   -1    0    0  503  502  0.00000000000E+00  0.00000000000E+00  0.26642323873E+03  0.26642323873E+03  0.00000000000E+00 0.  1.
         21   -1    0    0  501  503 -0.00000000000E+00 -0.00000000000E+00 -0.75321068366E+03  0.75321068366E+03  0.00000000000E+00 0.  1.
    9000005    1    1    2  501    0  0.21679129443E+02 -0.25369392994E+02 -0.46975073681E+03  0.61788295452E+03  0.40000000000E+03 0.  1.
   -9000005    1    1    2    0  502 -0.21679129443E+02  0.25369392994E+02 -0.17036708123E+02  0.40175096786E+03  0.40000000000E+03 0.  1.
<mgrwt>
<rscale>  2 0.40138957E+03</rscale>
<asrwt>0</asrwt>
<pdfrwt beam="1">  1       21 0.40988191E-01 0.40138957E+03</pdfrwt>
<pdfrwt beam="2">  1       21 0.11587857E+00 0.40138957E+03</pdfrwt>
<totfact> 0.29150600E+03</totfact>
</mgrwt>
</event>
<event>
 4    1  0.4949719E-002  0.5342920E+03  0.7818608E-02  0.1005197E+00
         21   -1    0    0  501  502  0.00000000000E+00  0.00000000000E+00  0.16765474702E+04  0.16765474702E+04  0.00000000000E+00 0. -1.
         21   -1    0    0  502  503 -0.00000000000E+00 -0.00000000000E+00 -0.34413071459E+03  0.34413071459E+03  0.00000000000E+00 0. -1.
    9000005    1    1    2  501    0 -0.33841381153E+03  0.10461379889E+03  0.13843407718E+04  0.14838690398E+04  0.40000000000E+03 0. -1.
   -9000005    1    1    2    0  503  0.33841381153E+03 -0.10461379889E+03 -0.51924016158E+02  0.53680914504E+03  0.40000000000E+03 0. -1.
<mgrwt>
<rscale>  2 0.53429201E+03</rscale>
<asrwt>0</asrwt>
<pdfrwt beam="1">  1       21 0.25793038E+00 0.53429201E+03</pdfrwt>
<pdfrwt beam="2">  1       21 0.52943188E-01 0.53429201E+03</pdfrwt>
<totfact> 0.15262458E+02</totfact>
</mgrwt>
</event>
<event>
 4    1  0.4949719E-002  0.4105740E+03  0.7818608E-02  0.1040179E+00
         21   -1    0    0  501  502  0.00000000000E+00  0.00000000000E+00  0.55256408756E+03  0.55256408756E+03  0.00000000000E+00 0.  1.
         21   -1    0    0  502  503 -0.00000000000E+00 -0.00000000000E+00 -0.31381524165E+03  0.31381524165E+03  0.00000000000E+00 0.  1.
    9000005    1    1    2  501    0 -0.88484956001E+02 -0.27228746877E+02  0.19168719799E+03  0.45311695396E+03  0.40000000000E+03 0.  1.
   -9000005    1    1    2    0  503  0.88484956001E+02  0.27228746877E+02  0.47061647916E+02  0.41326237525E+03  0.40000000000E+03 0.  1.
<mgrwt>
<rscale>  2 0.41057398E+03</rscale>
<asrwt>0</asrwt>
<pdfrwt beam="1">  1       21 0.85009860E-01 0.41057398E+03</pdfrwt>
<pdfrwt beam="2">  1       21 0.48279268E-01 0.41057398E+03</pdfrwt>
<totfact> 0.43647947E+03</totfact>
</mgrwt>
</event>
<event>
 4    1  0.4949719E-002  0.5399661E+03  0.7818608E-02  0.1003843E+00
         21   -1    0    0  501  502  0.00000000000E+00  0.00000000000E+00  0.21610050780E+03  0.21610050780E+03  0.00000000000E+00 0. -1.
         21   -1    0    0  502  503 -0.00000000000E+00 -0.00000000000E+00 -0.14035644859E+04  0.14035644859E+04  0.00000000000E+00 0.  1.
    9000005    1    1    2  501    0  0.16493178501E+02 -0.36234147011E+03 -0.43435475261E+03  0.69298442769E+03  0.40000000000E+03 0. -1.
   -9000005    1    1    2    0  503 -0.16493178501E+02  0.36234147011E+03 -0.75310922545E+03  0.92668056597E+03  0.40000000000E+03 0.  1.
<mgrwt>
<rscale>  2 0.53996608E+03</rscale>
<asrwt>0</asrwt>
<pdfrwt beam="1">  1       21 0.33246233E-01 0.53996608E+03</pdfrwt>
<pdfrwt beam="2">  1       21 0.21593299E+00 0.53996608E+03</pdfrwt>
<totfact> 0.73760888E+02</totfact>
</mgrwt>
</event>
<event>
 4    1  0.4949719E-002  0.5646169E+03  0.7818608E-02  0.9981662E-01
         21   -1    0    0  501  502  0.00000000000E+00  0.00000000000E+00  0.15685562915E+04  0.15685562915E+04  0.00000000000E+00 0. -1.
         21   -1    0    0  502  503 -0.00000000000E+00 -0.00000000000E+00 -0.30070779778E+03  0.30070779778E+03  0.00000000000E+00 0. -1.
    9000005    1    1    2  501    0  0.29824696587E+01  0.39847628741E+03  0.11660331302E+04  0.12955406236E+04  0.40000000000E+03 0. -1.
   -9000005    1    1    2    0  503 -0.29824696587E+01 -0.39847628741E+03  0.10181536350E+03  0.57372346562E+03  0.40000000000E+03 0. -1.
<mgrwt>
<rscale>  2 0.56461690E+03</rscale>
<asrwt>0</asrwt>
<pdfrwt beam="1">  1       21 0.24131635E+00 0.56461690E+03</pdfrwt>
<pdfrwt beam="2">  1       21 0.46262739E-01 0.56461690E+03</pdfrwt>
<totfact> 0.25441823E+02</totfact>
</mgrwt>
</event>
<event>
 4    1  0.4949719E-002  0.4019967E+03  0.7818608E-02  0.1043090E+00
         21   -1    0    0  503  502  0.00000000000E+00  0.00000000000E+00  0.13320719646E+04  0.13320719646E+04  0.00000000000E+00 0.  1.
         21   -1    0    0  501  503 -0.00000000000E+00 -0.00000000000E+00 -0.29050542147E+03  0.29050542147E+03  0.00000000000E+00 0.  1.
    9000005    1    1    2  501    0 -0.35529083693E+01  0.39858586265E+02 -0.98351515304E+02  0.41385305438E+03  0.40000000000E+03 0.  1.
   -9000005    1    1    2    0  502  0.35529083693E+01 -0.39858586265E+02  0.11399180585E+04  0.12087243317E+04  0.40000000000E+03 0.  1.
<mgrwt>
<rscale>  2 0.40199668E+03</rscale>
<asrwt>0</asrwt>
<pdfrwt beam="1">  1       21 0.20493414E+00 0.40199668E+03</pdfrwt>
<pdfrwt beam="2">  1       21 0.44693143E-01 0.40199668E+03</pdfrwt>
<totfact> 0.50590999E+02</totfact>
</mgrwt>
</event>
<event>
 4    1  0.4949719E-002  0.5873490E+03  0.7818608E-02  0.9932006E-01
         21   -1    0    0  501  502  0.00000000000E+00  0.00000000000E+00  0.36564124703E+03  0.36564124703E+03  0.00000000000E+00 0. -1.
         21   -1    0    0  502  503 -0.00000000000E+00 -0.00000000000E+00 -0.10371390844E+04  0.10371390844E+04  0.00000000000E+00 0.  1.
    9000005    1    1    2  501    0 -0.13730098783E+02  0.42987245780E+03 -0.12498656880E+03  0.60050019814E+03  0.40000000000E+03 0. -1.
   -9000005    1    1    2    0  503  0.13730098783E+02 -0.42987245780E+03 -0.54651126858E+03  0.80228013329E+03  0.40000000000E+03 0.  1.
<mgrwt>
<rscale>  2 0.58734900E+03</rscale>
<asrwt>0</asrwt>
<pdfrwt beam="1">  1       21 0.56252500E-01 0.58734900E+03</pdfrwt>
<pdfrwt beam="2">  1       21 0.15955986E+00 0.58734900E+03</pdfrwt>
<totfact> 0.59656297E+02</totfact>
</mgrwt>
</event>
<event>
 4    1  0.4949719E-002  0.4570163E+03  0.7818608E-02  0.1025650E+00
         21   -1    0    0  501  502  0.00000000000E+00  0.00000000000E+00  0.20871750346E+03  0.20871750346E+03  0.00000000000E+00 0. -1.
         21   -1    0    0  502  503 -0.00000000000E+00 -0.00000000000E+00 -0.13784691001E+04  0.13784691001E+04  0.00000000000E+00 0. -1.
    9000005    1    1    2  501    0 -0.12787954425E+03 -0.18030739985E+03 -0.16943247733E+03  0.48741286468E+03  0.40000000000E+03 0. -1.
   -9000005    1    1    2    0  503  0.12787954425E+03  0.18030739985E+03 -0.10003191194E+04  0.10997737389E+04  0.40000000000E+03 0. -1.
<mgrwt>
<rscale>  2 0.45701634E+03</rscale>
<asrwt>0</asrwt>
<pdfrwt beam="1">  1       21 0.32110386E-01 0.45701634E+03</pdfrwt>
<pdfrwt beam="2">  1       21 0.21207217E+00 0.45701634E+03</pdfrwt>
<totfact> 0.86852900E+02</totfact>
</mgrwt>
</event>
<event>
 4    1  0.4949719E-002  0.4133274E+03  0.7818608E-02  0.1039260E+00
         21   -1    0    0  503  502  0.00000000000E+00  0.00000000000E+00  0.11168544595E+04  0.11168544595E+04  0.00000000000E+00 0.  1.
         21   -1    0    0  501  503 -0.00000000000E+00 -0.00000000000E+00 -0.17250831273E+03  0.17250831273E+03  0.00000000000E+00 0.  1.
    9000005    1    1    2  501    0  0.21317346664E+02  0.10190744868E+03  0.25518290642E+03  0.48575495169E+03  0.40000000000E+03 0. -1.
   -9000005    1    1    2    0  502 -0.21317346664E+02 -0.10190744868E+03  0.68916324036E+03  0.80360782054E+03  0.40000000000E+03 0. -1.
<mgrwt>
<rscale>  2 0.41332742E+03</rscale>
<asrwt>0</asrwt>
<pdfrwt beam="1">  1       21 0.17182376E+00 0.41332742E+03</pdfrwt>
<pdfrwt beam="2">  1       21 0.26539741E-01 0.41332742E+03</pdfrwt>
<totfact> 0.24294449E+03</totfact>
</mgrwt>
</event>
<event>
 4    1  0.4949719E-002  0.6406317E+03  0.7818608E-02  0.9824519E-01
         21   -1    0    0  501  502  0.00000000000E+00  0.00000000000E+00  0.32944319425E+03  0.32944319425E+03  0.00000000000E+00 0.  1.
         21   -1    0    0  502  503 -0.00000000000E+00 -0.00000000000E+00 -0.21168709527E+04  0.21168709527E+04  0.00000000000E+00 0.  1.
    9000005    1    1    2  501    0 -0.50011178265E+03  0.17240001591E+02 -0.10907401369E+03  0.64985087002E+03  0.40000000000E+03 0.  1.
   -9000005    1    1    2    0  503  0.50011178265E+03 -0.17240001591E+02 -0.16783537447E+04  0.17964632769E+04  0.40000000000E+03 0.  1.
<mgrwt>
<rscale>  2 0.64063173E+03</rscale>
<asrwt>0</asrwt>
<pdfrwt beam="1">  1       21 0.50683570E-01 0.64063173E+03</pdfrwt>
<pdfrwt beam="2">  1       21 0.32567244E+00 0.64063173E+03</pdfrwt>
<totfact> 0.61493397E+01</totfact>
</mgrwt>
</event>
<event>
 4    1  0.4949719E-002  0.5062741E+03  0.7818608E-02  0.1012154E+00
         21   -1    0    0  503  502  0.00000000000E+00  0.00000000000E+00  0.83705066452E+03  0.83705066452E+03  0.00000000000E+00 0.  1.
         21   -1    0    0  501  503 -0.00000000000E+00 -0.00000000000E+00 -0.36593618827E+03  0.36593618827E+03  0.00000000000E+00 0. -1.
    9000005    1    1    2  501    0 -0.25382584428E+03 -0.17856632949E+03 -0.74446767655E+01  0.50632886197E+03  0.40000000000E+03 0. -1.
   -9000005    1    1    2    0  502  0.25382584428E+03  0.17856632949E+03  0.47855915301E+03  0.69665799083E+03  0.40000000000E+03 0.  1.
<mgrwt>
<rscale>  2 0.50627413E+03</rscale>
<asrwt>0</asrwt>
<pdfrwt beam="1">  1       21 0.12877702E+00 0.50627413E+03</pdfrwt>
<pdfrwt beam="2">  1       21 0.56297875E-01 0.50627413E+03</pdfrwt>
<totfact> 0.10922485E+03</totfact>
</mgrwt>
</event>
<event>
 4    1  0.4949719E-002  0.4363858E+03  0.7818608E-02  0.1031862E+00
         21   -1    0    0  503  502  0.00000000000E+00  0.00000000000E+00  0.40189287280E+03  0.40189287280E+03  0.00000000000E+00 0. -1.
         21   -1    0    0  501  503 -0.00000000000E+00 -0.00000000000E+00 -0.61073376879E+03  0.61073376879E+03  0.00000000000E+00 0. -1.
    9000005    1    1    2  501    0  0.17123450172E+03 -0.33336028980E+02 -0.34413075091E+03  0.55575041082E+03  0.40000000000E+03 0. -1.
   -9000005    1    1    2    0  502 -0.17123450172E+03  0.33336028980E+02  0.13528985492E+03  0.45687623078E+03  0.40000000000E+03 0. -1.
<mgrwt>
<rscale>  2 0.43638578E+03</rscale>
<asrwt>0</asrwt>
<pdfrwt beam="1">  1       21 0.61829674E-01 0.43638578E+03</pdfrwt>
<pdfrwt beam="2">  1       21 0.93959040E-01 0.43638578E+03</pdfrwt>
<totfact> 0.20024667E+03</totfact>
</mgrwt>
</event>
<event>
 4    1  0.4949719E-002  0.5851858E+03  0.7818608E-02  0.9936627E-01
         21   -1    0    0  501  502  0.00000000000E+00  0.00000000000E+00  0.86199635447E+03  0.86199635447E+03  0.00000000000E+00 0.  1.
         21   -1    0    0  502  503 -0.00000000000E+00 -0.00000000000E+00 -0.93551982313E+03  0.93551982313E+03  0.00000000000E+00 0.  1.
    9000005    1    1    2  501    0 -0.37982707152E+03 -0.19538108381E+03  0.64496390701E+03  0.87087359216E+03  0.40000000000E+03 0.  1.
   -9000005    1    1    2    0  503  0.37982707152E+03  0.19538108381E+03 -0.71848737566E+03  0.92664258545E+03  0.40000000000E+03 0.  1.
<mgrwt>
<rscale>  2 0.58518576E+03</rscale>
<asrwt>0</asrwt>
<pdfrwt beam="1">  1       21 0.13261482E+00 0.58518576E+03</pdfrwt>
<pdfrwt beam="2">  1       21 0.14392613E+00 0.58518576E+03</pdfrwt>
<totfact> 0.10321845E+02</totfact>
</mgrwt>
</event>
<event>
 4    1  0.4949719E-002  0.4044034E+03  0.7818608E-02  0.1042265E+00
         21   -1    0    0  501  502  0.00000000000E+00  0.00000000000E+00  0.61768277396E+03  0.61768277396E+03  0.00000000000E+00 0.  1.
         21   -1    0    0  502  503 -0.00000000000E+00 -0.00000000000E+00 -0.43947428254E+03  0.43947428254E+03  0.00000000000E+00 0.  1.
    9000005    1    1    2  501    0  0.38283712488E+02  0.45568633422E+02  0.42237563449E+03  0.58475919796E+03  0.40000000000E+03 0.  1.
   -9000005    1    1    2    0  503 -0.38283712488E+02 -0.45568633422E+02 -0.24416714307E+03  0.47239785854E+03  0.40000000000E+03 0.  1.
<mgrwt>
<rscale>  2 0.40440344E+03</rscale>
<asrwt>0</asrwt>
<pdfrwt beam="1">  1       21 0.95028119E-01 0.40440344E+03</pdfrwt>
<pdfrwt beam="2">  1       21 0.67611428E-01 0.40440344E+03</pdfrwt>
<totfact> 0.16197410E+03</totfact>
</mgrwt>
</event>
<event>
 4    1  0.4949719E-002  0.4725092E+03  0.7818608E-02  0.1021214E+00
         21   -1    0    0  501  502  0.00000000000E+00  0.00000000000E+00  0.70231451589E+03  0.70231451589E+03  0.00000000000E+00 0. -1.
         21   -1    0    0  502  503 -0.00000000000E+00 -0.00000000000E+00 -0.32315501120E+03  0.32315501120E+03  0.00000000000E+00 0.  1.
    9000005    1    1    2  501    0  0.25143925479E+03 -0.65757314009E+01  0.12418786375E+03  0.48855661350E+03  0.40000000000E+03 0.  1.
   -9000005    1    1    2    0  503 -0.25143925479E+03  0.65757314009E+01  0.25497164094E+03  0.53691291359E+03  0.40000000000E+03 0. -1.
<mgrwt>
<rscale>  2 0.47250919E+03</rscale>
<asrwt>0</asrwt>
<pdfrwt beam="1">  1       21 0.10804839E+00 0.47250919E+03</pdfrwt>
<pdfrwt beam="2">  1       21 0.49716156E-01 0.47250919E+03</pdfrwt>
<totfact> 0.22533049E+03</totfact>
</mgrwt>
</event>
<event>
 4    1  0.4949719E-002  0.5217297E+03  0.7818608E-02  0.1008258E+00
         21   -1    0    0  503  502  0.00000000000E+00  0.00000000000E+00  0.67017241510E+03  0.67017241510E+03  0.00000000000E+00 0. -1.
         21   -1    0    0  501  503 -0.00000000000E+00 -0.00000000000E+00 -0.43920415587E+03  0.43920415587E+03  0.00000000000E+00 0. -1.
    9000005    1    1    2  501    0  0.33381363052E+03  0.27755724377E+02  0.26761490950E+03  0.58636137317E+03  0.40000000000E+03 0. -1.
   -9000005    1    1    2    0  502 -0.33381363052E+03 -0.27755724377E+02 -0.36646650273E+02  0.52301519780E+03  0.40000000000E+03 0. -1.
<mgrwt>
<rscale>  2 0.52172974E+03</rscale>
<asrwt>0</asrwt>
<pdfrwt beam="1">  1       21 0.10310345E+00 0.52172974E+03</pdfrwt>
<pdfrwt beam="2">  1       21 0.67569870E-01 0.52172974E+03</pdfrwt>
<totfact> 0.12722734E+03</totfact>
</mgrwt>
</event>
<event>
 4    1  0.4949719E-002  0.4122905E+03  0.7818608E-02  0.1039605E+00
         21   -1    0    0  503  502  0.00000000000E+00  0.00000000000E+00  0.30007341814E+03  0.30007341814E+03  0.00000000000E+00 0. -1.
         21   -1    0    0  501  503 -0.00000000000E+00 -0.00000000000E+00 -0.92724772716E+03  0.92724772716E+03  0.00000000000E+00 0.  1.
    9000005    1    1    2  501    0  0.71816278440E+02  0.69468534290E+02 -0.69636646385E+03  0.80926491774E+03  0.40000000000E+03 0.  1.
   -9000005    1    1    2    0  502 -0.71816278440E+02 -0.69468534290E+02  0.69192154833E+02  0.41805622755E+03  0.40000000000E+03 0. -1.
<mgrwt>
<rscale>  2 0.41229050E+03</rscale>
<asrwt>0</asrwt>
<pdfrwt beam="1">  1       21 0.46165141E-01 0.41229050E+03</pdfrwt>
<pdfrwt beam="2">  1       21 0.14265350E+00 0.41229050E+03</pdfrwt>
<totfact> 0.13242134E+03</totfact>
</mgrwt>
</event>
<event>
 4    1  0.4949719E-002  0.4791335E+03  0.7818608E-02  0.1019374E+00
         21   -1    0    0  501  502  0.00000000000E+00  0.00000000000E+00  0.85052234273E+03  0.85052234273E+03  0.00000000000E+00 0.  1.
         21   -1    0    0  502  503 -0.00000000000E+00 -0.00000000000E+00 -0.27700619583E+03  0.27700619583E+03  0.00000000000E+00 0.  1.
    9000005    1    1    2  501    0 -0.17968875093E+03  0.19308252766E+03  0.19655810857E+03  0.51788415668E+03  0.40000000000E+03 0.  1.
   -9000005    1    1    2    0  503  0.17968875093E+03 -0.19308252766E+03  0.37695803833E+03  0.60964438188E+03  0.40000000000E+03 0.  1.
<mgrwt>
<rscale>  2 0.47913350E+03</rscale>
<asrwt>0</asrwt>
<pdfrwt beam="1">  1       21 0.13084959E+00 0.47913350E+03</pdfrwt>
<pdfrwt beam="2">  1       21 0.42616338E-01 0.47913350E+03</pdfrwt>
<totfact> 0.19125670E+03</totfact>
</mgrwt>
</event>
<event>
 4    1  0.4949719E-002  0.4056873E+03  0.7818608E-02  0.1041828E+00
         21   -1    0    0  503  502  0.00000000000E+00  0.00000000000E+00  0.31467531183E+03  0.31467531183E+03  0.00000000000E+00 0. -1.
         21   -1    0    0  501  503 -0.00000000000E+00 -0.00000000000E+00 -0.57821414616E+03  0.57821414616E+03  0.00000000000E+00 0. -1.
    9000005    1    1    2  501    0  0.38014879447E+02  0.56009050683E+02  0.61614799692E+01  0.40573403684E+03  0.40000000000E+03 0.  1.
   -9000005    1    1    2    0  502 -0.38014879447E+02 -0.56009050683E+02 -0.26970031431E+03  0.48715542115E+03  0.40000000000E+03 0.  1.
<mgrwt>
<rscale>  2 0.40568725E+03</rscale>
<asrwt>0</asrwt>
<pdfrwt beam="1">  1       21 0.48411586E-01 0.40568725E+03</pdfrwt>
<pdfrwt beam="2">  1       21 0.88956023E-01 0.40568725E+03</pdfrwt>
<totfact> 0.39087603E+03</totfact>
</mgrwt>
</event>
<event>
 4    1  0.4949719E-002  0.4458369E+03  0.7818608E-02  0.1028971E+00
         21   -1    0    0  501  502  0.00000000000E+00  0.00000000000E+00  0.36811402735E+03  0.36811402735E+03  0.00000000000E+00 0. -1.
         21   -1    0    0  502  503 -0.00000000000E+00 -0.00000000000E+00 -0.78039000453E+03  0.78039000453E+03  0.00000000000E+00 0. -1.
    9000005    1    1    2  501    0 -0.74303114774E+02  0.18234463653E+03  0.11259866550E+03  0.45983581723E+03  0.40000000000E+03 0. -1.
   -9000005    1    1    2    0  503  0.74303114774E+02 -0.18234463653E+03 -0.52487464269E+03  0.68866821465E+03  0.40000000000E+03 0. -1.
<mgrwt>
<rscale>  2 0.44583688E+03</rscale>
<asrwt>0</asrwt>
<pdfrwt beam="1">  1       21 0.56632927E-01 0.44583688E+03</pdfrwt>
<pdfrwt beam="2">  1       21 0.12006000E+00 0.44583688E+03</pdfrwt>
<totfact> 0.13219423E+03</totfact>
</mgrwt>
</event>
<event>
 4    1  0.4949719E-002  0.4129955E+03  0.7818608E-02  0.1039370E+00
         21   -1    0    0  501  502  0.00000000000E+00  0.00000000000E+00  0.21744256009E+03  0.21744256009E+03  0.00000000000E+00 0.  1.
         21   -1    0    0  502  503 -0.00000000000E+00 -0.00000000000E+00 -0.94633704654E+03  0.94633704654E+03  0.00000000000E+00 0.  1.
    9000005    1    1    2  501    0 -0.87963320727E+02 -0.53176158502E+02 -0.12375031509E+03  0.43113732164E+03  0.40000000000E+03 0.  1.
   -9000005    1    1    2    0  503  0.87963320727E+02  0.53176158502E+02 -0.60514417136E+03  0.73264228499E+03  0.40000000000E+03 0.  1.
<mgrwt>
<rscale>  2 0.41299546E+03</rscale>
<asrwt>0</asrwt>
<pdfrwt beam="1">  1       21 0.33452702E-01 0.41299546E+03</pdfrwt>
<pdfrwt beam="2">  1       21 0.14559031E+00 0.41299546E+03</pdfrwt>
<totfact> 0.24276314E+03</totfact>
</mgrwt>
</event>
<event>
 4    1  0.4949719E-002  0.4909487E+03  0.7818608E-02  0.1016169E+00
         21   -1    0    0  503  502  0.00000000000E+00  0.00000000000E+00  0.32093566186E+03  0.32093566186E+03  0.00000000000E+00 0. -1.
         21   -1    0    0  501  503 -0.00000000000E+00 -0.00000000000E+00 -0.76458610513E+03  0.76458610513E+03  0.00000000000E+00 0. -1.
    9000005    1    1    2  501    0 -0.19610432763E+03  0.20633389400E+03 -0.14954008864E+03  0.51321810299E+03  0.40000000000E+03 0. -1.
   -9000005    1    1    2    0  502  0.19610432763E+03 -0.20633389400E+03 -0.29411035464E+03  0.57230366401E+03  0.40000000000E+03 0. -1.
<mgrwt>
<rscale>  2 0.49094866E+03</rscale>
<asrwt>0</asrwt>
<pdfrwt beam="1">  1       21 0.49374718E-01 0.49094866E+03</pdfrwt>
<pdfrwt beam="2">  1       21 0.11762863E+00 0.49094866E+03</pdfrwt>
<totfact> 0.18373871E+03</totfact>
</mgrwt>
</event>
<event>
 4    1  0.4949719E-002  0.4223662E+03  0.7818608E-02  0.1036299E+00
         21   -1    0    0  501  502  0.00000000000E+00  0.00000000000E+00  0.77046581353E+03  0.77046581353E+03  0.00000000000E+00 0.  1.
         21   -1    0    0  502  503 -0.00000000000E+00 -0.00000000000E+00 -0.45842117661E+03  0.45842117661E+03  0.00000000000E+00 0. -1.
    9000005    1    1    2  501    0  0.11727461730E+03 -0.68116894584E+02  0.58828660308E+03  0.72420603046E+03  0.40000000000E+03 0.  1.
   -9000005    1    1    2    0  503 -0.11727461730E+03  0.68116894584E+02 -0.27624196616E+03  0.50468095968E+03  0.40000000000E+03 0. -1.
<mgrwt>
<rscale>  2 0.42236625E+03</rscale>
<asrwt>0</asrwt>
<pdfrwt beam="1">  1       21 0.11853320E+00 0.42236625E+03</pdfrwt>
<pdfrwt beam="2">  1       21 0.70526335E-01 0.42236625E+03</pdfrwt>
<totfact> 0.84944535E+02</totfact>
</mgrwt>
</event>
<event>
 4    1  0.4949719E-002  0.4175629E+03  0.7818608E-02  0.1037862E+00
         21   -1    0    0  501  502  0.00000000000E+00  0.00000000000E+00  0.18615504938E+03  0.18615504938E+03  0.00000000000E+00 0.  1.
         21   -1    0    0  502  503 -0.00000000000E+00 -0.00000000000E+00 -0.12946457670E+04  0.12946457670E+04  0.00000000000E+00 0.  1.
    9000005    1    1    2  501    0 -0.31275944225E+02  0.11567437463E+03 -0.16489450184E+03  0.44894202562E+03  0.40000000000E+03 0.  1.
   -9000005    1    1    2    0  503  0.31275944225E+02 -0.11567437463E+03 -0.94359621575E+03  0.10318587907E+04  0.40000000000E+03 0.  1.
<mgrwt>
<rscale>  2 0.41756286E+03</rscale>
<asrwt>0</asrwt>
<pdfrwt beam="1">  1       21 0.28639240E-01 0.41756286E+03</pdfrwt>
<pdfrwt beam="2">  1       21 0.19917626E+00 0.41756286E+03</pdfrwt>
<totfact> 0.13503220E+03</totfact>
</mgrwt>
</event>
<event>
 4    1  0.4949719E-002  0.4770567E+03  0.7818608E-02  0.1019947E+00
         21   -1    0    0  503  502  0.00000000000E+00  0.00000000000E+00  0.10338513358E+04  0.10338513358E+04  0.00000000000E+00 0.  1.
         21   -1    0    0  501  503 -0.00000000000E+00 -0.00000000000E+00 -0.22113783273E+03  0.22113783273E+03  0.00000000000E+00 0.  1.
    9000005    1    1    2  501    0 -0.25996238597E+03  0.16145984600E+01  0.44869084044E+03  0.65490955050E+03  0.40000000000E+03 0.  1.
   -9000005    1    1    2    0  502  0.25996238597E+03 -0.16145984600E+01  0.36402266261E+03  0.60007961800E+03  0.40000000000E+03 0.  1.
<mgrwt>
<rscale>  2 0.47705665E+03</rscale>
<asrwt>0</asrwt>
<pdfrwt beam="1">  1       21 0.15905405E+00 0.47705665E+03</pdfrwt>
<pdfrwt beam="2">  1       21 0.34021206E-01 0.47705665E+03</pdfrwt>
<totfact> 0.17964685E+03</totfact>
</mgrwt>
</event>
<event>
 4    1  0.4949719E-002  0.4581344E+03  0.7818608E-02  0.1025324E+00
         21   -1    0    0  503  502  0.00000000000E+00  0.00000000000E+00  0.89336669220E+02  0.89336669220E+02  0.00000000000E+00 0.  1.
         21   -1    0    0  501  503 -0.00000000000E+00 -0.00000000000E+00 -0.24832011959E+04  0.24832011959E+04  0.00000000000E+00 0. -1.
    9000005    1    1    2  501    0  0.21306328125E+03  0.67015941872E+02 -0.89834972581E+03  0.10084241807E+04  0.40000000000E+03 0.  1.
   -9000005    1    1    2    0  502 -0.21306328125E+03 -0.67015941872E+02 -0.14955148008E+04  0.15641136844E+04  0.40000000000E+03 0. -1.
<mgrwt>
<rscale>  2 0.45813437E+03</rscale>
<asrwt>0</asrwt>
<pdfrwt beam="1">  1       21 0.13744105E-01 0.45813437E+03</pdfrwt>
<pdfrwt beam="2">  1       21 0.38203091E+00 0.45813437E+03</pdfrwt>
<totfact> 0.39870158E+02</totfact>
</mgrwt>
</event>
<event>
 4    1  0.4949719E-002  0.4537324E+03  0.7818608E-02  0.1026615E+00
         21   -1    0    0  501  502  0.00000000000E+00  0.00000000000E+00  0.18311285433E+03  0.18311285433E+03  0.00000000000E+00 0. -1.
         21   -1    0    0  502  503 -0.00000000000E+00 -0.00000000000E+00 -0.11394804995E+04  0.11394804995E+04  0.00000000000E+00 0. -1.
    9000005    1    1    2  501    0 -0.40151121955E+02 -0.21038283218E+03 -0.40184539495E+03  0.60609633732E+03  0.40000000000E+03 0.  1.
   -9000005    1    1    2    0  503  0.40151121955E+02  0.21038283218E+03 -0.55452225020E+03  0.71649701649E+03  0.40000000000E+03 0.  1.
<mgrwt>
<rscale>  2 0.45373235E+03</rscale>
<asrwt>0</asrwt>
<pdfrwt beam="1">  1       21 0.28171208E-01 0.45373235E+03</pdfrwt>
<pdfrwt beam="2">  1       21 0.17530469E+00 0.45373235E+03</pdfrwt>
<totfact> 0.20056645E+03</totfact>
</mgrwt>
</event>
<event>
 4    1  0.4949719E-002  0.4684992E+03  0.7818608E-02  0.1022345E+00
         21   -1    0    0  501  502  0.00000000000E+00  0.00000000000E+00  0.17084602300E+04  0.17084602300E+04  0.00000000000E+00 0.  1.
         21   -1    0    0  502  503 -0.00000000000E+00 -0.00000000000E+00 -0.15520951064E+03  0.15520951064E+03  0.00000000000E+00 0. -1.
    9000005    1    1    2  501    0  0.99820035595E+02 -0.22254755463E+03  0.11633751204E+04  0.12541663065E+04  0.40000000000E+03 0.  1.
   -9000005    1    1    2    0  503 -0.99820035595E+02  0.22254755463E+03  0.38987559897E+03  0.60950343416E+03  0.40000000000E+03 0. -1.
<mgrwt>
<rscale>  2 0.46849915E+03</rscale>
<asrwt>0</asrwt>
<pdfrwt beam="1">  1       21 0.26284002E+00 0.46849915E+03</pdfrwt>
<pdfrwt beam="2">  1       21 0.23878387E-01 0.46849915E+03</pdfrwt>
<totfact> 0.74508700E+02</totfact>
</mgrwt>
</event>
<event>
 4    1  0.4949719E-002  0.4447694E+03  0.7818608E-02  0.1029293E+00
         21   -1    0    0  501  502  0.00000000000E+00  0.00000000000E+00  0.23618281064E+03  0.23618281064E+03  0.00000000000E+00 0. -1.
         21   -1    0    0  502  503 -0.00000000000E+00 -0.00000000000E+00 -0.87870373668E+03  0.87870373668E+03  0.00000000000E+00 0. -1.
    9000005    1    1    2  501    0 -0.72840974461E+02  0.18031653603E+03 -0.20065318462E+03  0.48793602165E+03  0.40000000000E+03 0. -1.
   -9000005    1    1    2    0  503  0.72840974461E+02 -0.18031653603E+03 -0.44186774142E+03  0.62695052567E+03  0.40000000000E+03 0. -1.
<mgrwt>
<rscale>  2 0.44476945E+03</rscale>
<asrwt>0</asrwt>
<pdfrwt beam="1">  1       21 0.36335817E-01 0.44476945E+03</pdfrwt>
<pdfrwt beam="2">  1       21 0.13518519E+00 0.44476945E+03</pdfrwt>
<totfact> 0.24698737E+03</totfact>
</mgrwt>
</event>
<event>
 4    1  0.4949719E-002  0.4413960E+03  0.7818608E-02  0.1030319E+00
         21   -1    0    0  503  502  0.00000000000E+00  0.00000000000E+00  0.20133623728E+04  0.20133623728E+04  0.00000000000E+00 0. -1.
         21   -1    0    0  501  503 -0.00000000000E+00 -0.00000000000E+00 -0.10716838790E+03  0.10716838790E+03  0.00000000000E+00 0. -1.
    9000005    1    1    2  501    0 -0.33287613509E+02  0.18363654199E+03  0.62280994900E+03  0.76336274296E+03  0.40000000000E+03 0. -1.
   -9000005    1    1    2    0  502  0.33287613509E+02 -0.18363654199E+03  0.12833840359E+04  0.13571680177E+04  0.40000000000E+03 0. -1.
<mgrwt>
<rscale>  2 0.44139602E+03</rscale>
<asrwt>0</asrwt>
<pdfrwt beam="1">  1       21 0.30974803E+00 0.44139602E+03</pdfrwt>
<pdfrwt beam="2">  1       21 0.16487446E-01 0.44139602E+03</pdfrwt>
<totfact> 0.79726114E+02</totfact>
</mgrwt>
</event>
<event>
 4    1  0.4949719E-002  0.4594687E+03  0.7818608E-02  0.1024935E+00
         21   -1    0    0  501  502  0.00000000000E+00  0.00000000000E+00  0.98555783273E+03  0.98555783273E+03  0.00000000000E+00 0.  1.
         21   -1    0    0  502  503 -0.00000000000E+00 -0.00000000000E+00 -0.24066698907E+03  0.24066698907E+03  0.00000000000E+00 0.  1.
    9000005    1    1    2  501    0  0.14131395438E+03 -0.17647056909E+03  0.16914306060E+03  0.48961298023E+03  0.40000000000E+03 0.  1.
   -9000005    1    1    2    0  503 -0.14131395438E+03  0.17647056909E+03  0.57574778305E+03  0.73661184157E+03  0.40000000000E+03 0.  1.
<mgrwt>
<rscale>  2 0.45946871E+03</rscale>
<asrwt>0</asrwt>
<pdfrwt beam="1">  1       21 0.15162428E+00 0.45946871E+03</pdfrwt>
<pdfrwt beam="2">  1       21 0.37025691E-01 0.45946871E+03</pdfrwt>
<totfact> 0.17381569E+03</totfact>
</mgrwt>
</event>
<event>
 4    1  0.4949719E-002  0.4386830E+03  0.7818608E-02  0.1031152E+00
         21   -1    0    0  503  502  0.00000000000E+00  0.00000000000E+00  0.98588253247E+03  0.98588253247E+03  0.00000000000E+00 0.  1.
         21   -1    0    0  501  503 -0.00000000000E+00 -0.00000000000E+00 -0.26365050173E+03  0.26365050173E+03  0.00000000000E+00 0.  1.
    9000005    1    1    2  501    0 -0.10763724553E+03 -0.14441962081E+03  0.42772151501E+02  0.44076327030E+03  0.40000000000E+03 0.  1.
   -9000005    1    1    2    0  502  0.10763724553E+03  0.14441962081E+03  0.67945987925E+03  0.80876976390E+03  0.40000000000E+03 0.  1.
<mgrwt>
<rscale>  2 0.43868303E+03</rscale>
<asrwt>0</asrwt>
<pdfrwt beam="1">  1       21 0.15167423E+00 0.43868303E+03</pdfrwt>
<pdfrwt beam="2">  1       21 0.40561616E-01 0.43868303E+03</pdfrwt>
<totfact> 0.14526434E+03</totfact>
</mgrwt>
</event>
<event>
 4    1  0.4949719E-002  0.5716990E+03  0.7818608E-02  0.9965926E-01
         21   -1    0    0  501  502  0.00000000000E+00  0.00000000000E+00  0.39321218047E+03  0.39321218047E+03  0.00000000000E+00 0. -1.
         21   -1    0    0  502  503 -0.00000000000E+00 -0.00000000000E+00 -0.11997646928E+04  0.11997646928E+04  0.00000000000E+00 0. -1.
    9000005    1    1    2  501    0 -0.29025254264E+03 -0.28739034729E+03  0.38177915556E+02  0.57297234092E+03  0.40000000000E+03 0. -1.
   -9000005    1    1    2    0  503  0.29025254264E+03  0.28739034729E+03 -0.84473042790E+03  0.10200045324E+04  0.40000000000E+03 0. -1.
<mgrwt>
<rscale>  2 0.57169900E+03</rscale>
<asrwt>0</asrwt>
<pdfrwt beam="1">  1       21 0.60494182E-01 0.57169900E+03</pdfrwt>
<pdfrwt beam="2">  1       21 0.18457918E+00 0.57169900E+03</pdfrwt>
<totfact> 0.33579264E+02</totfact>
</mgrwt>
</event>
<event>
 4    1  0.4949719E-002  0.4064846E+03  0.7818608E-02  0.1041557E+00
         21   -1    0    0  501  502  0.00000000000E+00  0.00000000000E+00  0.45426909909E+03  0.45426909909E+03  0.00000000000E+00 0.  1.
         21   -1    0    0  502  503 -0.00000000000E+00 -0.00000000000E+00 -0.36769542795E+03  0.36769542795E+03  0.00000000000E+00 0.  1.
    9000005    1    1    2  501    0 -0.15361580466E+02  0.70666392260E+02  0.58813607615E+00  0.40648500963E+03  0.40000000000E+03 0. -1.
   -9000005    1    1    2    0  503  0.15361580466E+02 -0.70666392260E+02  0.85985535065E+02  0.41547951741E+03  0.40000000000E+03 0. -1.
<mgrwt>
<rscale>  2 0.40648458E+03</rscale>
<asrwt>0</asrwt>
<pdfrwt beam="1">  1       21 0.69887554E-01 0.40648458E+03</pdfrwt>
<pdfrwt beam="2">  1       21 0.56568527E-01 0.40648458E+03</pdfrwt>
<totfact> 0.48781078E+03</totfact>
</mgrwt>
</event>
<event>
 4    1  0.4949719E-002  0.4155615E+03  0.7818608E-02  0.1038521E+00
         21   -1    0    0  501  502  0.00000000000E+00  0.00000000000E+00  0.11442549518E+04  0.11442549518E+04  0.00000000000E+00 0.  1.
         21   -1    0    0  502  503 -0.00000000000E+00 -0.00000000000E+00 -0.27863489132E+03  0.27863489132E+03  0.00000000000E+00 0.  1.
    9000005    1    1    2  501    0 -0.10978639232E+03  0.25264474249E+02  0.91447351827E+03  0.10044666053E+04  0.40000000000E+03 0.  1.
   -9000005    1    1    2    0  503  0.10978639232E+03 -0.25264474249E+02 -0.48853457786E+02  0.41842323780E+03  0.40000000000E+03 0.  1.
<mgrwt>
<rscale>  2 0.41556148E+03</rscale>
<asrwt>0</asrwt>
<pdfrwt beam="1">  1       21 0.17603922E+00 0.41556148E+03</pdfrwt>
<pdfrwt beam="2">  1       21 0.42866907E-01 0.41556148E+03</pdfrwt>
<totfact> 0.86244493E+02</totfact>
</mgrwt>
</event>
<event>
 4    1  0.4949719E-002  0.4680454E+03  0.7818608E-02  0.1022473E+00
         21   -1    0    0  503  502  0.00000000000E+00  0.00000000000E+00  0.13145623857E+04  0.13145623857E+04  0.00000000000E+00 0. -1.
         21   -1    0    0  501  503 -0.00000000000E+00 -0.00000000000E+00 -0.19949819776E+03  0.19949819776E+03  0.00000000000E+00 0. -1.
    9000005    1    1    2  501    0  0.23965230982E+03  0.40413669302E+02  0.25032847269E+03  0.53078323119E+03  0.40000000000E+03 0. -1.
   -9000005    1    1    2    0  502 -0.23965230982E+03 -0.40413669302E+02  0.86473571524E+03  0.98327735226E+03  0.40000000000E+03 0. -1.
<mgrwt>
<rscale>  2 0.46804540E+03</rscale>
<asrwt>0</asrwt>
<pdfrwt beam="1">  1       21 0.20224036E+00 0.46804540E+03</pdfrwt>
<pdfrwt beam="2">  1       21 0.30692031E-01 0.46804540E+03</pdfrwt>
<totfact> 0.10974240E+03</totfact>
</mgrwt>
</event>
<event>
 4    1  0.4949719E-002  0.4657573E+03  0.7818608E-02  0.1023125E+00
         21   -1    0    0  501  502  0.00000000000E+00  0.00000000000E+00  0.56048480124E+03  0.56048480124E+03  0.00000000000E+00 0.  1.
         21   -1    0    0  502  503 -0.00000000000E+00 -0.00000000000E+00 -0.63000317746E+03  0.63000317746E+03  0.00000000000E+00 0.  1.
    9000005    1    1    2  501    0  0.37870834126E+02  0.23557527015E+03  0.33489368370E+03  0.57365816247E+03  0.40000000000E+03 0.  1.
   -9000005    1    1    2    0  503 -0.37870834126E+02 -0.23557527015E+03 -0.40441205992E+03  0.61682981624E+03  0.40000000000E+03 0.  1.
<mgrwt>
<rscale>  2 0.46575735E+03</rscale>
<asrwt>0</asrwt>
<pdfrwt beam="1">  1       21 0.86228431E-01 0.46575735E+03</pdfrwt>
<pdfrwt beam="2">  1       21 0.96923566E-01 0.46575735E+03</pdfrwt>
<totfact> 0.86296738E+02</totfact>
</mgrwt>
</event>
<event>
 4    1  0.4949719E-002  0.4212294E+03  0.7818608E-02  0.1036667E+00
         21   -1    0    0  503  502  0.00000000000E+00  0.00000000000E+00  0.39834963302E+03  0.39834963302E+03  0.00000000000E+00 0.  1.
         21   -1    0    0  501  503 -0.00000000000E+00 -0.00000000000E+00 -0.56143266296E+03  0.56143266296E+03  0.00000000000E+00 0.  1.
    9000005    1    1    2  501    0  0.67098071678E+02  0.11371918694E+03 -0.29968409147E+03  0.51695721233E+03  0.40000000000E+03 0.  1.
   -9000005    1    1    2    0  502 -0.67098071678E+02 -0.11371918694E+03  0.13660106153E+03  0.44282508365E+03  0.40000000000E+03 0.  1.
<mgrwt>
<rscale>  2 0.42122940E+03</rscale>
<asrwt>0</asrwt>
<pdfrwt beam="1">  1       21 0.61284559E-01 0.42122940E+03</pdfrwt>
<pdfrwt beam="2">  1       21 0.86374256E-01 0.42122940E+03</pdfrwt>
<totfact> 0.25065029E+03</totfact>
</mgrwt>
</event>
<event>
 4    1  0.4949719E-002  0.5036799E+03  0.7818608E-02  0.1012823E+00
         21   -1    0    0  503  502  0.00000000000E+00  0.00000000000E+00  0.70907419291E+03  0.70907419291E+03  0.00000000000E+00 0. -1.
         21   -1    0    0  501  503 -0.00000000000E+00 -0.00000000000E+00 -0.10829200116E+04  0.10829200116E+04  0.00000000000E+00 0.  1.
    9000005    1    1    2  501    0  0.22284522903E+03 -0.20984157874E+03 -0.92011700973E+03  0.10489560505E+04  0.40000000000E+03 0.  1.
   -9000005    1    1    2    0  502 -0.22284522903E+03  0.20984157874E+03  0.54627119100E+03  0.74303815406E+03  0.40000000000E+03 0. -1.
<mgrwt>
<rscale>  2 0.50367994E+03</rscale>
<asrwt>0</asrwt>
<pdfrwt beam="1">  1       21 0.10908834E+00 0.50367994E+03</pdfrwt>
<pdfrwt beam="2">  1       21 0.16660308E+00 0.50367994E+03</pdfrwt>
<totfact> 0.11758658E+02</totfact>
</mgrwt>
</event>
<event>
 4    1  0.4949719E-002  0.4474282E+03  0.7818608E-02  0.1028492E+00
         21   -1    0    0  501  502  0.00000000000E+00  0.00000000000E+00  0.17054401613E+04  0.17054401613E+04  0.00000000000E+00 0.  1.
         21   -1    0    0  502  503 -0.00000000000E+00 -0.00000000000E+00 -0.15657497101E+03  0.15657497101E+03  0.00000000000E+00 0. -1.
    9000005    1    1    2  501    0  0.14287635526E+03 -0.14063535589E+03  0.12402151363E+04  0.13184557408E+04  0.40000000000E+03 0.  1.
   -9000005    1    1    2    0  503 -0.14287635526E+03  0.14063535589E+03  0.30865005394E+03  0.54355939143E+03  0.40000000000E+03 0.  1.
<mgrwt>
<rscale>  2 0.44742816E+03</rscale>
<asrwt>0</asrwt>
<pdfrwt beam="1">  1       21 0.26237540E+00 0.44742816E+03</pdfrwt>
<pdfrwt beam="2">  1       21 0.24088458E-01 0.44742816E+03</pdfrwt>
<totfact> 0.74536062E+02</totfact>
</mgrwt>
</event>
<event>
 4    1  0.4949719E-002  0.6226225E+03  0.7818608E-02  0.9859552E-01
         21   -1    0    0  501  502  0.00000000000E+00  0.00000000000E+00  0.16087666715E+04  0.16087666715E+04  0.00000000000E+00 0.  1.
         21   -1    0    0  502  503 -0.00000000000E+00 -0.00000000000E+00 -0.59097335247E+03  0.59097335247E+03  0.00000000000E+00 0.  1.
    9000005    1    1    2  501    0  0.12316708231E+03 -0.46096492247E+03  0.13553357617E+04  0.14915072299E+04  0.40000000000E+03 0.  1.
   -9000005    1    1    2    0  503 -0.12316708231E+03  0.46096492247E+03 -0.33754244270E+03  0.70823279403E+03  0.40000000000E+03 0.  1.
<mgrwt>
<rscale>  2 0.62262251E+03</rscale>
<asrwt>0</asrwt>
<pdfrwt beam="1">  1       21 0.24750256E+00 0.62262251E+03</pdfrwt>
<pdfrwt beam="2">  1       21 0.90918978E-01 0.62262251E+03</pdfrwt>
<totfact> 0.49928863E+01</totfact>
</mgrwt>
</event>
<event>
 4    1  0.4949719E-002  0.4540144E+03  0.7818608E-02  0.1026532E+00
         21   -1    0    0  501  502  0.00000000000E+00  0.00000000000E+00  0.16190440898E+04  0.16190440898E+04  0.00000000000E+00 0.  1.
         21   -1    0    0  502  503 -0.00000000000E+00 -0.00000000000E+00 -0.20446835372E+03  0.20446835372E+03  0.00000000000E+00 0.  1.
    9000005    1    1    2  501    0 -0.38015460494E+02 -0.21138568355E+03  0.12673577879E+04  0.13462261492E+04  0.40000000000E+03 0.  1.
   -9000005    1    1    2    0  503  0.38015460494E+02  0.21138568355E+03  0.14721794824E+03  0.47728629430E+03  0.40000000000E+03 0.  1.
<mgrwt>
<rscale>  2 0.45401441E+03</rscale>
<asrwt>0</asrwt>
<pdfrwt beam="1">  1       21 0.24908370E+00 0.45401441E+03</pdfrwt>
<pdfrwt beam="2">  1       21 0.31456671E-01 0.45401441E+03</pdfrwt>
<totfact> 0.52976287E+02</totfact>
</mgrwt>
</event>
<event>
 4    1  0.4949719E-002  0.4453975E+03  0.7818608E-02  0.1029103E+00
         21   -1    0    0  501  502  0.00000000000E+00  0.00000000000E+00  0.21100645819E+04  0.21100645819E+04  0.00000000000E+00 0. -1.
         21   -1    0    0  502  503 -0.00000000000E+00 -0.00000000000E+00 -0.94151632570E+02  0.94151632570E+02  0.00000000000E+00 0. -1.
    9000005    1    1    2  501    0  0.15339045662E+03 -0.12186188859E+03  0.10498511355E+04  0.11404237628E+04  0.40000000000E+03 0. -1.
   -9000005    1    1    2    0  503 -0.15339045662E+03  0.12186188859E+03  0.96606181390E+03  0.10637924517E+04  0.40000000000E+03 0. -1.
<mgrwt>
<rscale>  2 0.44539752E+03</rscale>
<asrwt>0</asrwt>
<pdfrwt beam="1">  1       21 0.32462529E+00 0.44539752E+03</pdfrwt>
<pdfrwt beam="2">  1       21 0.14484868E-01 0.44539752E+03</pdfrwt>
<totfact> 0.82318300E+02</totfact>
</mgrwt>
</event>
<event>
 4    1  0.4949719E-002  0.5672097E+03  0.7818608E-02  0.9975872E-01
         21   -1    0    0  503  502  0.00000000000E+00  0.00000000000E+00  0.79312576745E+03  0.79312576745E+03  0.00000000000E+00 0.  1.
         21   -1    0    0  501  503 -0.00000000000E+00 -0.00000000000E+00 -0.65912208323E+03  0.65912208323E+03  0.00000000000E+00 0. -1.
    9000005    1    1    2  501    0  0.31650552084E+03  0.24809486575E+03 -0.38329397888E+03  0.68457364935E+03  0.40000000000E+03 0. -1.
   -9000005    1    1    2    0  502 -0.31650552084E+03 -0.24809486575E+03  0.51729766310E+03  0.76767420133E+03  0.40000000000E+03 0.  1.
<mgrwt>
<rscale>  2 0.56720967E+03</rscale>
<asrwt>0</asrwt>
<pdfrwt beam="1">  1       21 0.12201935E+00 0.56720967E+03</pdfrwt>
<pdfrwt beam="2">  1       21 0.10140340E+00 0.56720967E+03</pdfrwt>
<totfact> 0.31721380E+02</totfact>
</mgrwt>
</event>
<event>
 4    1  0.4949719E-002  0.4439939E+03  0.7818608E-02  0.1029528E+00
         21   -1    0    0  503  502  0.00000000000E+00  0.00000000000E+00  0.41873402422E+03  0.41873402422E+03  0.00000000000E+00 0. -1.
         21   -1    0    0  501  503 -0.00000000000E+00 -0.00000000000E+00 -0.53494822953E+03  0.53494822953E+03  0.00000000000E+00 0. -1.
    9000005    1    1    2  501    0  0.18243578732E+03  0.62030026047E+02 -0.22326009606E+03  0.49696640844E+03  0.40000000000E+03 0. -1.
   -9000005    1    1    2    0  502 -0.18243578732E+03 -0.62030026047E+02  0.10704589075E+03  0.45671584530E+03  0.40000000000E+03 0. -1.
<mgrwt>
<rscale>  2 0.44399385E+03</rscale>
<asrwt>0</asrwt>
<pdfrwt beam="1">  1       21 0.64420619E-01 0.44399385E+03</pdfrwt>
<pdfrwt beam="2">  1       21 0.82299727E-01 0.44399385E+03</pdfrwt>
<totfact> 0.24915418E+03</totfact>
</mgrwt>
</event>
<event>
 4    1  0.4949719E-002  0.4339909E+03  0.7818608E-02  0.1032607E+00
         21   -1    0    0  501  502  0.00000000000E+00  0.00000000000E+00  0.12298228573E+04  0.12298228573E+04  0.00000000000E+00 0. -1.
         21   -1    0    0  502  503 -0.00000000000E+00 -0.00000000000E+00 -0.16826349476E+03  0.16826349476E+03  0.00000000000E+00 0. -1.
    9000005    1    1    2  501    0 -0.10272240481E+02  0.16805519877E+03  0.74027935032E+03  0.85811513520E+03  0.40000000000E+03 0. -1.
   -9000005    1    1    2    0  503  0.10272240481E+02 -0.16805519877E+03  0.32128001220E+03  0.53997121682E+03  0.40000000000E+03 0. -1.
<mgrwt>
<rscale>  2 0.43399086E+03</rscale>
<asrwt>0</asrwt>
<pdfrwt beam="1">  1       21 0.18920351E+00 0.43399086E+03</pdfrwt>
<pdfrwt beam="2">  1       21 0.25886692E-01 0.43399086E+03</pdfrwt>
<totfact> 0.19083974E+03</totfact>
</mgrwt>
</event>
<event>
 4    1  0.4949719E-002  0.4606524E+03  0.7818608E-02  0.1024592E+00
         21   -1    0    0  501  502  0.00000000000E+00  0.00000000000E+00  0.11140024192E+03  0.11140024192E+03  0.00000000000E+00 0. -1.
         21   -1    0    0  502  503 -0.00000000000E+00 -0.00000000000E+00 -0.19193580859E+04  0.19193580859E+04  0.00000000000E+00 0.  1.
    9000005    1    1    2  501    0  0.34813016337E+02 -0.22580668582E+03 -0.99226146429E+03  0.10939759682E+04  0.40000000000E+03 0.  1.
   -9000005    1    1    2    0  503 -0.34813016337E+02  0.22580668582E+03 -0.81569637974E+03  0.93678235967E+03  0.40000000000E+03 0.  1.
<mgrwt>
<rscale>  2 0.46065237E+03</rscale>
<asrwt>0</asrwt>
<pdfrwt beam="1">  1       21 0.17138499E-01 0.46065237E+03</pdfrwt>
<pdfrwt beam="2">  1       21 0.29528586E+00 0.46065237E+03</pdfrwt>
<totfact> 0.89642292E+02</totfact>
</mgrwt>
</event>
<event>
 4    1  0.4949719E-002  0.4022605E+03  0.7818608E-02  0.1043000E+00
         21   -1    0    0  501  502  0.00000000000E+00  0.00000000000E+00  0.32224211835E+03  0.32224211835E+03  0.00000000000E+00 0. -1.
         21   -1    0    0  502  503 -0.00000000000E+00 -0.00000000000E+00 -0.65603280813E+03  0.65603280813E+03  0.00000000000E+00 0. -1.
    9000005    1    1    2  501    0 -0.31483131759E+02  0.28675786415E+02  0.70004574495E+02  0.40830641528E+03  0.40000000000E+03 0.  1.
   -9000005    1    1    2    0  503  0.31483131759E+02 -0.28675786415E+02 -0.40379526427E+03  0.56996851120E+03  0.40000000000E+03 0.  1.
<mgrwt>
<rscale>  2 0.40226047E+03</rscale>
<asrwt>0</asrwt>
<pdfrwt beam="1">  1       21 0.49575711E-01 0.40226047E+03</pdfrwt>
<pdfrwt beam="2">  1       21 0.10092812E+00 0.40226047E+03</pdfrwt>
<totfact> 0.27526004E+03</totfact>
</mgrwt>
</event>
<event>
 4    1  0.4949719E-002  0.4396276E+03  0.7818608E-02  0.1030861E+00
         21   -1    0    0  501  502  0.00000000000E+00  0.00000000000E+00  0.55780792291E+03  0.55780792291E+03  0.00000000000E+00 0. -1.
         21   -1    0    0  502  503 -0.00000000000E+00 -0.00000000000E+00 -0.38107274282E+03  0.38107274282E+03  0.00000000000E+00 0. -1.
    9000005    1    1    2  501    0  0.18566287606E+02 -0.18145991114E+03  0.22979509303E+03  0.49606268874E+03  0.40000000000E+03 0. -1.
   -9000005    1    1    2    0  503 -0.18566287606E+02  0.18145991114E+03 -0.53059912935E+02  0.44281797699E+03  0.40000000000E+03 0. -1.
<mgrwt>
<rscale>  2 0.43962758E+03</rscale>
<asrwt>0</asrwt>
<pdfrwt beam="1">  1       21 0.85816603E-01 0.43962758E+03</pdfrwt>
<pdfrwt beam="2">  1       21 0.58626576E-01 0.43962758E+03</pdfrwt>
<totfact> 0.27848935E+03</totfact>
</mgrwt>
</event>
<event>
 4    1  0.4949719E-002  0.4021628E+03  0.7818608E-02  0.1043033E+00
         21   -1    0    0  501  502  0.00000000000E+00  0.00000000000E+00  0.62709531283E+03  0.62709531283E+03  0.00000000000E+00 0. -1.
         21   -1    0    0  502  503 -0.00000000000E+00 -0.00000000000E+00 -0.31176395650E+03  0.31176395650E+03  0.00000000000E+00 0. -1.
    9000005    1    1    2  501    0  0.39514008649E+02 -0.13172969128E+02  0.35276764714E+03  0.53495784588E+03  0.40000000000E+03 0. -1.
   -9000005    1    1    2    0  503 -0.39514008649E+02  0.13172969128E+02 -0.37436290813E+02  0.40390142345E+03  0.40000000000E+03 0. -1.
<mgrwt>
<rscale>  2 0.40216276E+03</rscale>
<asrwt>0</asrwt>
<pdfrwt beam="1">  1       21 0.96476202E-01 0.40216276E+03</pdfrwt>
<pdfrwt beam="2">  1       21 0.47963686E-01 0.40216276E+03</pdfrwt>
<totfact> 0.32914403E+03</totfact>
</mgrwt>
</event>
<event>
 4    1  0.4949719E-002  0.4499292E+03  0.7818608E-02  0.1027743E+00
         21   -1    0    0  501  502  0.00000000000E+00  0.00000000000E+00  0.11562228247E+04  0.11562228247E+04  0.00000000000E+00 0.  1.
         21   -1    0    0  502  503 -0.00000000000E+00 -0.00000000000E+00 -0.18145755752E+03  0.18145755752E+03  0.00000000000E+00 0.  1.
    9000005    1    1    2  501    0 -0.20583412442E+03  0.82812292615E+01  0.36203347846E+03  0.57749848923E+03  0.40000000000E+03 0.  1.
   -9000005    1    1    2    0  503  0.20583412442E+03 -0.82812292615E+01  0.61273178870E+03  0.76018189298E+03  0.40000000000E+03 0.  1.
<mgrwt>
<rscale>  2 0.44992918E+03</rscale>
<asrwt>0</asrwt>
<pdfrwt beam="1">  1       21 0.17788043E+00 0.44992918E+03</pdfrwt>
<pdfrwt beam="2">  1       21 0.27916548E-01 0.44992918E+03</pdfrwt>
<totfact> 0.19603835E+03</totfact>
</mgrwt>
</event>
<event>
 4    1  0.4949719E-002  0.5211507E+03  0.7818608E-02  0.1008401E+00
         21   -1    0    0  503  502  0.00000000000E+00  0.00000000000E+00  0.13736814266E+04  0.13736814266E+04  0.00000000000E+00 0. -1.
         21   -1    0    0  501  503 -0.00000000000E+00 -0.00000000000E+00 -0.34873514586E+03  0.34873514586E+03  0.00000000000E+00 0. -1.
    9000005    1    1    2  501    0  0.70522727870E+02  0.32653423231E+03 -0.54258052527E+02  0.52396755270E+03  0.40000000000E+03 0. -1.
   -9000005    1    1    2    0  502 -0.70522727870E+02 -0.32653423231E+03  0.10792043333E+04  0.11984490198E+04  0.40000000000E+03 0. -1.
<mgrwt>
<rscale>  2 0.52115071E+03</rscale>
<asrwt>0</asrwt>
<pdfrwt beam="1">  1       21 0.21133560E+00 0.52115071E+03</pdfrwt>
<pdfrwt beam="2">  1       21 0.53651562E-01 0.52115071E+03</pdfrwt>
<totfact> 0.29375884E+02</totfact>
</mgrwt>
</event>
<event>
 4    1  0.4949719E-002  0.4448276E+03  0.7818608E-02  0.1029276E+00
         21   -1    0    0  501  502  0.00000000000E+00  0.00000000000E+00  0.56426421065E+03  0.56426421065E+03  0.00000000000E+00 0.  1.
         21   -1    0    0  502  503 -0.00000000000E+00 -0.00000000000E+00 -0.39949094721E+03  0.39949094721E+03  0.00000000000E+00 0.  1.
    9000005    1    1    2  501    0  0.75128249618E+02 -0.17951977320E+03 -0.86066037902E+02  0.45307721830E+03  0.40000000000E+03 0.  1.
   -9000005    1    1    2    0  503 -0.75128249618E+02  0.17951977320E+03  0.25083930134E+03  0.51067793956E+03  0.40000000000E+03 0.  1.
<mgrwt>
<rscale>  2 0.44482761E+03</rscale>
<asrwt>0</asrwt>
<pdfrwt beam="1">  1       21 0.86809879E-01 0.44482761E+03</pdfrwt>
<pdfrwt beam="2">  1       21 0.61460146E-01 0.44482761E+03</pdfrwt>
<totfact> 0.24396816E+03</totfact>
</mgrwt>
</event>
<event>
 4    1  0.4949719E-002  0.4323224E+03  0.7818608E-02  0.1033129E+00
         21   -1    0    0  503  502  0.00000000000E+00  0.00000000000E+00  0.11009847223E+03  0.11009847223E+03  0.00000000000E+00 0.  1.
         21   -1    0    0  501  503 -0.00000000000E+00 -0.00000000000E+00 -0.19011916238E+04  0.19011916238E+04  0.00000000000E+00 0.  1.
    9000005    1    1    2  501    0 -0.15714554317E+03  0.46989065076E+02 -0.12246378017E+04  0.12987072185E+04  0.40000000000E+03 0.  1.
   -9000005    1    1    2    0  502  0.15714554317E+03 -0.46989065076E+02 -0.56645534988E+03  0.71258287755E+03  0.40000000000E+03 0.  1.
<mgrwt>
<rscale>  2 0.43232244E+03</rscale>
<asrwt>0</asrwt>
<pdfrwt beam="1">  1       21 0.16938226E-01 0.43232244E+03</pdfrwt>
<pdfrwt beam="2">  1       21 0.29249102E+00 0.43232244E+03</pdfrwt>
<totfact> 0.96723197E+02</totfact>
</mgrwt>
</event>
<event>
 4    1  0.4949719E-002  0.4125118E+03  0.7818608E-02  0.1039531E+00
         21   -1    0    0  503  502  0.00000000000E+00  0.00000000000E+00  0.18155865998E+04  0.18155865998E+04  0.00000000000E+00 0. -1.
         21   -1    0    0  501  503 -0.00000000000E+00 -0.00000000000E+00 -0.35328170626E+03  0.35328170626E+03  0.00000000000E+00 0. -1.
    9000005    1    1    2  501    0 -0.25809936442E+02  0.97467172738E+02 -0.19836740806E+03  0.45772877467E+03  0.40000000000E+03 0. -1.
   -9000005    1    1    2    0  502  0.25809936442E+02 -0.97467172738E+02  0.16606723016E+04  0.17111395314E+04  0.40000000000E+03 0. -1.
<mgrwt>
<rscale>  2 0.41251182E+03</rscale>
<asrwt>0</asrwt>
<pdfrwt beam="1">  1       21 0.27932101E+00 0.41251182E+03</pdfrwt>
<pdfrwt beam="2">  1       21 0.54351033E-01 0.41251182E+03</pdfrwt>
<totfact> 0.11474272E+02</totfact>
</mgrwt>
</event>
<event>
 4    1  0.4949719E-002  0.4068272E+03  0.7818608E-02  0.1041441E+00
         21   -1    0    0  501  502  0.00000000000E+00  0.00000000000E+00  0.42515328910E+03  0.42515328910E+03  0.00000000000E+00 0.  1.
         21   -1    0    0  502  503 -0.00000000000E+00 -0.00000000000E+00 -0.46376949560E+03  0.46376949560E+03  0.00000000000E+00 0.  1.
    9000005    1    1    2  501    0  0.69951882736E+02 -0.24801171734E+02 -0.19742220211E+03  0.45219894947E+03  0.40000000000E+03 0.  1.
   -9000005    1    1    2    0  503 -0.69951882736E+02  0.24801171734E+02  0.15880599560E+03  0.43672383523E+03  0.40000000000E+03 0.  1.
<mgrwt>
<rscale>  2 0.40682719E+03</rscale>
<asrwt>0</asrwt>
<pdfrwt beam="1">  1       21 0.65408198E-01 0.40682719E+03</pdfrwt>
<pdfrwt beam="2">  1       21 0.71349153E-01 0.40682719E+03</pdfrwt>
<totfact> 0.33864658E+03</totfact>
</mgrwt>
</event>
<event>
 4    1  0.4949719E-002  0.5063188E+03  0.7818608E-02  0.1012143E+00
         21   -1    0    0  503  502  0.00000000000E+00  0.00000000000E+00  0.30898604423E+03  0.30898604423E+03  0.00000000000E+00 0. -1.
         21   -1    0    0  501  503 -0.00000000000E+00 -0.00000000000E+00 -0.12896446702E+04  0.12896446702E+04  0.00000000000E+00 0. -1.
    9000005    1    1    2  501    0  0.30446951100E+03  0.60473357863E+02 -0.96768997874E+03  0.10921458717E+04  0.40000000000E+03 0. -1.
   -9000005    1    1    2    0  502 -0.30446951100E+03 -0.60473357863E+02 -0.12968647285E+02  0.50648484277E+03  0.40000000000E+03 0. -1.
<mgrwt>
<rscale>  2 0.50631878E+03</rscale>
<asrwt>0</asrwt>
<pdfrwt beam="1">  1       21 0.47536315E-01 0.50631878E+03</pdfrwt>
<pdfrwt beam="2">  1       21 0.19840687E+00 0.50631878E+03</pdfrwt>
<totfact> 0.46646006E+02</totfact>
</mgrwt>
</event>
<event>
 4    1  0.4949719E-002  0.5703977E+03  0.7818608E-02  0.9968799E-01
         21   -1    0    0  503  502  0.00000000000E+00  0.00000000000E+00  0.95259646493E+03  0.95259646493E+03  0.00000000000E+00 0. -1.
         21   -1    0    0  501  503 -0.00000000000E+00 -0.00000000000E+00 -0.34193606804E+03  0.34193606804E+03  0.00000000000E+00 0. -1.
    9000005    1    1    2  501    0  0.11698480864E+03  0.38944590931E+03  0.28341135829E+03  0.63692665177E+03  0.40000000000E+03 0. -1.
   -9000005    1    1    2    0  502 -0.11698480864E+03 -0.38944590931E+03  0.32724903860E+03  0.65760588120E+03  0.40000000000E+03 0. -1.
<mgrwt>
<rscale>  2 0.57039772E+03</rscale>
<asrwt>0</asrwt>
<pdfrwt beam="1">  1       21 0.14655330E+00 0.57039772E+03</pdfrwt>
<pdfrwt beam="2">  1       21 0.52605550E-01 0.57039772E+03</pdfrwt>
<totfact> 0.87735007E+02</totfact>
</mgrwt>
</event>
<event>
 4    1  0.4949719E-002  0.4181142E+03  0.7818608E-02  0.1037682E+00
         21   -1    0    0  503  502  0.00000000000E+00  0.00000000000E+00  0.71587830784E+03  0.71587830784E+03  0.00000000000E+00 0.  1.
         21   -1    0    0  501  503 -0.00000000000E+00 -0.00000000000E+00 -0.16829987648E+04  0.16829987648E+04  0.00000000000E+00 0.  1.
    9000005    1    1    2  501    0 -0.65103364852E+02  0.10286396065E+03 -0.15925708724E+04  0.16465422637E+04  0.40000000000E+03 0.  1.
   -9000005    1    1    2    0  502  0.65103364852E+02 -0.10286396065E+03  0.62545041546E+03  0.75233480892E+03  0.40000000000E+03 0.  1.
<mgrwt>
<rscale>  2 0.41811415E+03</rscale>
<asrwt>0</asrwt>
<pdfrwt beam="1">  1       21 0.11013513E+00 0.41811415E+03</pdfrwt>
<pdfrwt beam="2">  1       21 0.25892289E+00 0.41811415E+03</pdfrwt>
<totfact> 0.29907331E+01</totfact>
</mgrwt>
</event>
<event>
 4    1  0.4949719E-002  0.4177906E+03  0.7818608E-02  0.1037788E+00
         21   -1    0    0  503  502  0.00000000000E+00  0.00000000000E+00  0.14511568995E+04  0.14511568995E+04  0.00000000000E+00 0.  1.
         21   -1    0    0  501  503 -0.00000000000E+00 -0.00000000000E+00 -0.22403617847E+03  0.22403617847E+03  0.00000000000E+00 0.  1.
    9000005    1    1    2  501    0 -0.11947645516E+03 -0.16563700657E+02  0.43557205434E+02  0.42005500790E+03  0.40000000000E+03 0.  1.
   -9000005    1    1    2    0  502  0.11947645516E+03  0.16563700657E+02  0.11835635156E+04  0.12551380701E+04  0.40000000000E+03 0.  1.
<mgrwt>
<rscale>  2 0.41779059E+03</rscale>
<asrwt>0</asrwt>
<pdfrwt beam="1">  1       21 0.22325490E+00 0.41779059E+03</pdfrwt>
<pdfrwt beam="2">  1       21 0.34467105E-01 0.41779059E+03</pdfrwt>
<totfact> 0.65116018E+02</totfact>
</mgrwt>
</event>
<event>
 4    1  0.4949719E-002  0.4132315E+03  0.7818608E-02  0.1039292E+00
         21   -1    0    0  501  502  0.00000000000E+00  0.00000000000E+00  0.70150086708E+03  0.70150086708E+03  0.00000000000E+00 0. -1.
         21   -1    0    0  502  503 -0.00000000000E+00 -0.00000000000E+00 -0.29821841955E+03  0.29821841955E+03  0.00000000000E+00 0. -1.
    9000005    1    1    2  501    0 -0.10331307024E+03  0.93085550034E+01  0.41591044108E+03  0.58629492124E+03  0.40000000000E+03 0. -1.
   -9000005    1    1    2    0  503  0.10331307024E+03 -0.93085550034E+01 -0.12627993548E+02  0.41342436539E+03  0.40000000000E+03 0. -1.
<mgrwt>
<rscale>  2 0.41323146E+03</rscale>
<asrwt>0</asrwt>
<pdfrwt beam="1">  1       21 0.10792321E+00 0.41323146E+03</pdfrwt>
<pdfrwt beam="2">  1       21 0.45879757E-01 0.41323146E+03</pdfrwt>
<totfact> 0.27377376E+03</totfact>
</mgrwt>
</event>
<event>
 4    1  0.4949719E-002  0.4506366E+03  0.7818608E-02  0.1027532E+00
         21   -1    0    0  501  502  0.00000000000E+00  0.00000000000E+00  0.49057756723E+03  0.49057756723E+03  0.00000000000E+00 0. -1.
         21   -1    0    0  502  503 -0.00000000000E+00 -0.00000000000E+00 -0.43021773234E+03  0.43021773234E+03  0.00000000000E+00 0. -1.
    9000005    1    1    2  501    0  0.51210530822E+02  0.20112388771E+03 -0.59353753002E+02  0.45452855210E+03  0.40000000000E+03 0.  1.
   -9000005    1    1    2    0  503 -0.51210530822E+02 -0.20112388771E+03  0.11971358789E+03  0.46626674748E+03  0.40000000000E+03 0.  1.
<mgrwt>
<rscale>  2 0.45063659E+03</rscale>
<asrwt>0</asrwt>
<pdfrwt beam="1">  1       21 0.75473472E-01 0.45063659E+03</pdfrwt>
<pdfrwt beam="2">  1       21 0.66187343E-01 0.45063659E+03</pdfrwt>
<totfact> 0.28569347E+03</totfact>
</mgrwt>
</event>
<event>
 4    1  0.4949719E-002  0.5912187E+03  0.7818608E-02  0.9923794E-01
         21   -1    0    0  501  502  0.00000000000E+00  0.00000000000E+00  0.55653441460E+03  0.55653441460E+03  0.00000000000E+00 0. -1.
         21   -1    0    0  502  503 -0.00000000000E+00 -0.00000000000E+00 -0.22889578859E+04  0.22889578859E+04  0.00000000000E+00 0. -1.
    9000005    1    1    2  501    0 -0.40505775679E+03  0.15958627014E+03  0.34572341797E+03  0.68488265104E+03  0.40000000000E+03 0. -1.
   -9000005    1    1    2    0  503  0.40505775679E+03 -0.15958627014E+03 -0.20781468893E+04  0.21606096495E+04  0.40000000000E+03 0. -1.
<mgrwt>
<rscale>  2 0.59121871E+03</rscale>
<asrwt>0</asrwt>
<pdfrwt beam="1">  1       21 0.85620679E-01 0.59121871E+03</pdfrwt>
<pdfrwt beam="2">  1       21 0.35214737E+00 0.59121871E+03</pdfrwt>
<totfact> 0.13330599E+01</totfact>
</mgrwt>
</event>
<event>
 4    1  0.4949719E-002  0.4442553E+03  0.7818608E-02  0.1029449E+00
         21   -1    0    0  503  502  0.00000000000E+00  0.00000000000E+00  0.13181477320E+03  0.13181477320E+03  0.00000000000E+00 0.  1.
         21   -1    0    0  501  503 -0.00000000000E+00 -0.00000000000E+00 -0.15334034305E+04  0.15334034305E+04  0.00000000000E+00 0. -1.
    9000005    1    1    2  501    0 -0.54748060051E+02  0.18537919399E+03 -0.82859854670E+03  0.94017995471E+03  0.40000000000E+03 0. -1.
   -9000005    1    1    2    0  502  0.54748060051E+02 -0.18537919399E+03 -0.57299011057E+03  0.72503824896E+03  0.40000000000E+03 0. -1.
<mgrwt>
<rscale>  2 0.44425533E+03</rscale>
<asrwt>0</asrwt>
<pdfrwt beam="1">  1       21 0.20279195E-01 0.44425533E+03</pdfrwt>
<pdfrwt beam="2">  1       21 0.23590823E+00 0.44425533E+03</pdfrwt>
<totfact> 0.15116127E+03</totfact>
</mgrwt>
</event>
<event>
 4    1  0.4949719E-002  0.4022949E+03  0.7818608E-02  0.1042988E+00
         21   -1    0    0  501  502  0.00000000000E+00  0.00000000000E+00  0.38556214971E+03  0.38556214971E+03  0.00000000000E+00 0. -1.
         21   -1    0    0  502  503 -0.00000000000E+00 -0.00000000000E+00 -0.10461008954E+04  0.10461008954E+04  0.00000000000E+00 0.  1.
    9000005    1    1    2  501    0  0.25156189354E+02  0.34761865309E+02  0.22363083346E+03  0.46027379984E+03  0.40000000000E+03 0. -1.
   -9000005    1    1    2    0  503 -0.25156189354E+02 -0.34761865309E+02 -0.88416957910E+03  0.97138924523E+03  0.40000000000E+03 0.  1.
<mgrwt>
<rscale>  2 0.40229494E+03</rscale>
<asrwt>0</asrwt>
<pdfrwt beam="1">  1       21 0.59317255E-01 0.40229494E+03</pdfrwt>
<pdfrwt beam="2">  1       21 0.16093860E+00 0.40229494E+03</pdfrwt>
<totfact> 0.56086551E+02</totfact>
</mgrwt>
</event>
<event>
 4    1  0.4949719E-002  0.4425434E+03  0.7818608E-02  0.1029969E+00
         21   -1    0    0  501  502  0.00000000000E+00  0.00000000000E+00  0.66137769110E+02  0.66137769110E+02  0.00000000000E+00 0.  1.
         21   -1    0    0  502  503 -0.00000000000E+00 -0.00000000000E+00 -0.29613131299E+04  0.29613131299E+04  0.00000000000E+00 0. -1.
    9000005    1    1    2  501    0  0.14865781326E+03  0.11724121571E+03 -0.14367735384E+04  0.15033837996E+04  0.40000000000E+03 0.  1.
   -9000005    1    1    2    0  503 -0.14865781326E+03 -0.11724121571E+03 -0.14584018224E+04  0.15240670994E+04  0.40000000000E+03 0. -1.
<mgrwt>
<rscale>  2 0.44254339E+03</rscale>
<asrwt>0</asrwt>
<pdfrwt beam="1">  1       21 0.10175039E-01 0.44254339E+03</pdfrwt>
<pdfrwt beam="2">  1       21 0.45558673E+00 0.44254339E+03</pdfrwt>
<totfact> 0.22973738E+02</totfact>
</mgrwt>
</event>
<event>
 4    1  0.4949719E-002  0.5697277E+03  0.7818608E-02  0.9970281E-01
         21   -1    0    0  501  502  0.00000000000E+00  0.00000000000E+00  0.59645690331E+03  0.59645690331E+03  0.00000000000E+00 0.  1.
         21   -1    0    0  502  503 -0.00000000000E+00 -0.00000000000E+00 -0.58142957039E+03  0.58142957039E+03  0.00000000000E+00 0. -1.
    9000005    1    1    2  501    0 -0.32153084267E+03  0.24740154678E+03  0.15654952846E+03  0.59084461832E+03  0.40000000000E+03 0.  1.
   -9000005    1    1    2    0  503  0.32153084267E+03 -0.24740154678E+03 -0.14152219553E+03  0.58704185538E+03  0.40000000000E+03 0. -1.
<mgrwt>
<rscale>  2 0.56972766E+03</rscale>
<asrwt>0</asrwt>
<pdfrwt beam="1">  1       21 0.91762600E-01 0.56972766E+03</pdfrwt>
<pdfrwt beam="2">  1       21 0.89450703E-01 0.56972766E+03</pdfrwt>
<totfact> 0.86901578E+02</totfact>
</mgrwt>
</event>
<event>
 4    1  0.4949719E-002  0.5932796E+03  0.7818608E-02  0.9919448E-01
         21   -1    0    0  501  502  0.00000000000E+00  0.00000000000E+00  0.43348376365E+03  0.43348376365E+03  0.00000000000E+00 0. -1.
         21   -1    0    0  502  503 -0.00000000000E+00 -0.00000000000E+00 -0.91526084045E+03  0.91526084045E+03  0.00000000000E+00 0.  1.
    9000005    1    1    2  501    0  0.66439846364E+02 -0.43308939809E+03 -0.14353920655E+02  0.59345321211E+03  0.40000000000E+03 0.  1.
   -9000005    1    1    2    0  503 -0.66439846364E+02  0.43308939809E+03 -0.46742315614E+03  0.75529139199E+03  0.40000000000E+03 0. -1.
<mgrwt>
<rscale>  2 0.59327960E+03</rscale>
<asrwt>0</asrwt>
<pdfrwt beam="1">  1       21 0.66689810E-01 0.59327960E+03</pdfrwt>
<pdfrwt beam="2">  1       21 0.14080936E+00 0.59327960E+03</pdfrwt>
<totfact> 0.57564871E+02</totfact>
</mgrwt>
</event>
<event>
 4    1  0.4949719E-002  0.4295266E+03  0.7818608E-02  0.1034010E+00
         21   -1    0    0  501  502  0.00000000000E+00  0.00000000000E+00  0.32511494656E+03  0.32511494656E+03  0.00000000000E+00 0.  1.
         21   -1    0    0  502  503 -0.00000000000E+00 -0.00000000000E+00 -0.57511798994E+03  0.57511798994E+03  0.00000000000E+00 0. -1.
    9000005    1    1    2  501    0  0.38919368229E+02  0.15158634248E+03 -0.73096867074E+02  0.43570206383E+03  0.40000000000E+03 0. -1.
   -9000005    1    1    2    0  503 -0.38919368229E+02 -0.15158634248E+03 -0.17690617630E+03  0.46453087267E+03  0.40000000000E+03 0.  1.
<mgrwt>
<rscale>  2 0.42952664E+03</rscale>
<asrwt>0</asrwt>
<pdfrwt beam="1">  1       21 0.50017685E-01 0.42952664E+03</pdfrwt>
<pdfrwt beam="2">  1       21 0.88479690E-01 0.42952664E+03</pdfrwt>
<totfact> 0.36615331E+03</totfact>
</mgrwt>
</event>
<event>
 4    1  0.4949719E-002  0.4813493E+03  0.7818608E-02  0.1018765E+00
         21   -1    0    0  503  502  0.00000000000E+00  0.00000000000E+00  0.80047792096E+03  0.80047792096E+03  0.00000000000E+00 0. -1.
         21   -1    0    0  501  503 -0.00000000000E+00 -0.00000000000E+00 -0.36882159451E+03  0.36882159451E+03  0.00000000000E+00 0.  1.
    9000005    1    1    2  501    0 -0.17477863451E+03 -0.20285353851E+03 -0.55393437343E+02  0.48452612114E+03  0.40000000000E+03 0.  1.
   -9000005    1    1    2    0  502  0.17477863451E+03  0.20285353851E+03  0.48704976379E+03  0.68477339432E+03  0.40000000000E+03 0. -1.
<mgrwt>
<rscale>  2 0.48134928E+03</rscale>
<asrwt>0</asrwt>
<pdfrwt beam="1">  1       21 0.12315045E+00 0.48134928E+03</pdfrwt>
<pdfrwt beam="2">  1       21 0.56741784E-01 0.48134928E+03</pdfrwt>
<totfact> 0.12163871E+03</totfact>
</mgrwt>
</event>
<event>
 4    1  0.4949719E-002  0.4492521E+03  0.7818608E-02  0.1027945E+00
         21   -1    0    0  501  502  0.00000000000E+00  0.00000000000E+00  0.44246118793E+03  0.44246118793E+03  0.00000000000E+00 0.  1.
         21   -1    0    0  502  503 -0.00000000000E+00 -0.00000000000E+00 -0.11211853995E+04  0.11211853995E+04  0.00000000000E+00 0.  1.
    9000005    1    1    2  501    0  0.20451716250E+03 -0.37571960968E+00  0.26277196299E+03  0.52045798625E+03  0.40000000000E+03 0.  1.
   -9000005    1    1    2    0  503 -0.20451716250E+03  0.37571960968E+00 -0.94149617452E+03  0.10431886011E+04  0.40000000000E+03 0.  1.
<mgrwt>
<rscale>  2 0.44925206E+03</rscale>
<asrwt>0</asrwt>
<pdfrwt beam="1">  1       21 0.68070952E-01 0.44925206E+03</pdfrwt>
<pdfrwt beam="2">  1       21 0.17249006E+00 0.44925206E+03</pdfrwt>
<totfact> 0.33221948E+02</totfact>
</mgrwt>
</event>
<event>
 4    1  0.4949719E-002  0.4150699E+03  0.7818608E-02  0.1038683E+00
         21   -1    0    0  503  502  0.00000000000E+00  0.00000000000E+00  0.62537703057E+03  0.62537703057E+03  0.00000000000E+00 0.  1.
         21   -1    0    0  501  503 -0.00000000000E+00 -0.00000000000E+00 -0.28115284377E+03  0.28115284377E+03  0.00000000000E+00 0.  1.
    9000005    1    1    2  501    0 -0.29296512677E+02 -0.10688641102E+03  0.10776505027E+03  0.42883131483E+03  0.40000000000E+03 0.  1.
   -9000005    1    1    2    0  502  0.29296512677E+02  0.10688641102E+03  0.23645913652E+03  0.47769855951E+03  0.40000000000E+03 0.  1.
<mgrwt>
<rscale>  2 0.41506986E+03</rscale>
<asrwt>0</asrwt>
<pdfrwt beam="1">  1       21 0.96211850E-01 0.41506986E+03</pdfrwt>
<pdfrwt beam="2">  1       21 0.43254284E-01 0.41506986E+03</pdfrwt>
<totfact> 0.40932633E+03</totfact>
</mgrwt>
</event>
<event>
 4    1  0.4949719E-002  0.6037035E+03  0.7818608E-02  0.9897752E-01
         21   -1    0    0  503  502  0.00000000000E+00  0.00000000000E+00  0.57794681666E+03  0.57794681666E+03  0.00000000000E+00 0. -1.
         21   -1    0    0  501  503 -0.00000000000E+00 -0.00000000000E+00 -0.79235526764E+03  0.79235526764E+03  0.00000000000E+00 0.  1.
    9000005    1    1    2  501    0 -0.45207707941E+03  0.91801399158E+01 -0.41676409239E+03  0.73358726093E+03  0.40000000000E+03 0.  1.
   -9000005    1    1    2    0  502  0.45207707941E+03 -0.91801399158E+01  0.20235564141E+03  0.63671482337E+03  0.40000000000E+03 0. -1.
<mgrwt>
<rscale>  2 0.60370354E+03</rscale>
<asrwt>0</asrwt>
<pdfrwt beam="1">  1       21 0.88914895E-01 0.60370354E+03</pdfrwt>
<pdfrwt beam="2">  1       21 0.12190081E+00 0.60370354E+03</pdfrwt>
<totfact> 0.43112949E+02</totfact>
</mgrwt>
</event>
<event>
 4    1  0.4949719E-002  0.4771775E+03  0.7818608E-02  0.1019914E+00
         21   -1    0    0  501  502  0.00000000000E+00  0.00000000000E+00  0.15509611281E+03  0.15509611281E+03  0.00000000000E+00 0.  1.
         21   -1    0    0  502  503 -0.00000000000E+00 -0.00000000000E+00 -0.15090490023E+04  0.15090490023E+04  0.00000000000E+00 0.  1.
    9000005    1    1    2  501    0 -0.43972781903E+02  0.25644647478E+03 -0.53992937672E+03  0.72057069870E+03  0.40000000000E+03 0.  1.
   -9000005    1    1    2    0  503  0.43972781903E+02 -0.25644647478E+03 -0.81402351276E+03  0.94357441641E+03  0.40000000000E+03 0.  1.
<mgrwt>
<rscale>  2 0.47717754E+03</rscale>
<asrwt>0</asrwt>
<pdfrwt beam="1">  1       21 0.23860940E-01 0.47717754E+03</pdfrwt>
<pdfrwt beam="2">  1       21 0.23216139E+00 0.47717754E+03</pdfrwt>
<totfact> 0.11495515E+03</totfact>
</mgrwt>
</event>
<event>
 4    1  0.4949719E-002  0.4190895E+03  0.7818608E-02  0.1037363E+00
         21   -1    0    0  503  502  0.00000000000E+00  0.00000000000E+00  0.28540738594E+03  0.28540738594E+03  0.00000000000E+00 0.  1.
         21   -1    0    0  501  503 -0.00000000000E+00 -0.00000000000E+00 -0.67894600358E+03  0.67894600358E+03  0.00000000000E+00 0.  1.
    9000005    1    1    2  501    0 -0.10534710032E+03  0.67364666064E+02 -0.49240457567E+02  0.42197231241E+03  0.40000000000E+03 0. -1.
   -9000005    1    1    2    0  502  0.10534710032E+03 -0.67364666064E+02 -0.34429816007E+03  0.54238107711E+03  0.40000000000E+03 0. -1.
<mgrwt>
<rscale>  2 0.41908950E+03</rscale>
<asrwt>0</asrwt>
<pdfrwt beam="1">  1       21 0.43908829E-01 0.41908950E+03</pdfrwt>
<pdfrwt beam="2">  1       21 0.10445323E+00 0.41908950E+03</pdfrwt>
<totfact> 0.32448698E+03</totfact>
</mgrwt>
</event>
<event>
 4    1  0.4949719E-002  0.4774162E+03  0.7818608E-02  0.1019848E+00
         21   -1    0    0  501  502  0.00000000000E+00  0.00000000000E+00  0.83043997615E+03  0.83043997615E+03  0.00000000000E+00 0.  1.
         21   -1    0    0  502  503 -0.00000000000E+00 -0.00000000000E+00 -0.29276025747E+03  0.29276025747E+03  0.00000000000E+00 0. -1.
    9000005    1    1    2  501    0 -0.17863490150E+03  0.18977822528E+03  0.12844616157E+03  0.49439318285E+03  0.40000000000E+03 0. -1.
   -9000005    1    1    2    0  503  0.17863490150E+03 -0.18977822528E+03  0.40923355711E+03  0.62880705076E+03  0.40000000000E+03 0.  1.
<mgrwt>
<rscale>  2 0.47741617E+03</rscale>
<asrwt>0</asrwt>
<pdfrwt beam="1">  1       21 0.12776000E+00 0.47741617E+03</pdfrwt>
<pdfrwt beam="2">  1       21 0.45040040E-01 0.47741617E+03</pdfrwt>
<totfact> 0.18139868E+03</totfact>
</mgrwt>
</event>
<event>
 4    1  0.4949719E-002  0.4446525E+03  0.7818608E-02  0.1029329E+00
         21   -1    0    0  503  502  0.00000000000E+00  0.00000000000E+00  0.69535174260E+03  0.69535174260E+03  0.00000000000E+00 0. -1.
         21   -1    0    0  501  503 -0.00000000000E+00 -0.00000000000E+00 -0.30655148142E+03  0.30655148142E+03  0.00000000000E+00 0. -1.
    9000005    1    1    2  501    0  0.14497426962E+03  0.12922200700E+03  0.32924646264E+03  0.55328030790E+03  0.40000000000E+03 0. -1.
   -9000005    1    1    2    0  502 -0.14497426962E+03 -0.12922200700E+03  0.59553798544E+02  0.44862291612E+03  0.40000000000E+03 0. -1.
<mgrwt>
<rscale>  2 0.44465252E+03</rscale>
<asrwt>0</asrwt>
<pdfrwt beam="1">  1       21 0.10697719E+00 0.44465252E+03</pdfrwt>
<pdfrwt beam="2">  1       21 0.47161767E-01 0.44465252E+03</pdfrwt>
<totfact> 0.26088133E+03</totfact>
</mgrwt>
</event>
<event>
 4    1  0.4949719E-002  0.4514386E+03  0.7818608E-02  0.1027294E+00
         21   -1    0    0  503  502  0.00000000000E+00  0.00000000000E+00  0.48986673257E+03  0.48986673257E+03  0.00000000000E+00 0.  1.
         21   -1    0    0  501  503 -0.00000000000E+00 -0.00000000000E+00 -0.41675528477E+03  0.41675528477E+03  0.00000000000E+00 0. -1.
    9000005    1    1    2  501    0 -0.83364687261E+02  0.19195612421E+03  0.17580306516E+02  0.45178080070E+03  0.40000000000E+03 0. -1.
   -9000005    1    1    2    0  502  0.83364687261E+02 -0.19195612421E+03  0.55531141289E+02  0.45484121664E+03  0.40000000000E+03 0.  1.
<mgrwt>
<rscale>  2 0.45143862E+03</rscale>
<asrwt>0</asrwt>
<pdfrwt beam="1">  1       21 0.75364113E-01 0.45143862E+03</pdfrwt>
<pdfrwt beam="2">  1       21 0.64116198E-01 0.45143862E+03</pdfrwt>
<totfact> 0.30754712E+03</totfact>
</mgrwt>
</event>
<event>
 4    1  0.4949719E-002  0.4672760E+03  0.7818608E-02  0.1022692E+00
         21   -1    0    0  503  502  0.00000000000E+00  0.00000000000E+00  0.17905547534E+04  0.17905547534E+04  0.00000000000E+00 0.  1.
         21   -1    0    0  501  503 -0.00000000000E+00 -0.00000000000E+00 -0.15281073114E+03  0.15281073114E+03  0.00000000000E+00 0.  1.
    9000005    1    1    2  501    0 -0.42010297330E+02 -0.23786964680E+03  0.38215999576E+03  0.60364981265E+03  0.40000000000E+03 0.  1.
   -9000005    1    1    2    0  502  0.42010297330E+02  0.23786964680E+03  0.12555840265E+04  0.13397156719E+04  0.40000000000E+03 0.  1.
<mgrwt>
<rscale>  2 0.46727597E+03</rscale>
<asrwt>0</asrwt>
<pdfrwt beam="1">  1       21 0.27546995E+00 0.46727597E+03</pdfrwt>
<pdfrwt beam="2">  1       21 0.23509344E-01 0.46727597E+03</pdfrwt>
<totfact> 0.64407913E+02</totfact>
</mgrwt>
</event>
<event>
 4    1  0.4949719E-002  0.4319983E+03  0.7818608E-02  0.1033231E+00
         21   -1    0    0  501  502  0.00000000000E+00  0.00000000000E+00  0.20726033118E+03  0.20726033118E+03  0.00000000000E+00 0. -1.
         21   -1    0    0  502  503 -0.00000000000E+00 -0.00000000000E+00 -0.90292528506E+03  0.90292528506E+03  0.00000000000E+00 0. -1.
    9000005    1    1    2  501    0  0.66973888756E+02 -0.14878529216E+03 -0.37703756358E+03  0.57339331117E+03  0.40000000000E+03 0. -1.
   -9000005    1    1    2    0  503 -0.66973888756E+02  0.14878529216E+03 -0.31862739030E+03  0.53679230507E+03  0.40000000000E+03 0. -1.
<mgrwt>
<rscale>  2 0.43199834E+03</rscale>
<asrwt>0</asrwt>
<pdfrwt beam="1">  1       21 0.31886204E-01 0.43199834E+03</pdfrwt>
<pdfrwt beam="2">  1       21 0.13891159E+00 0.43199834E+03</pdfrwt>
<totfact> 0.30063405E+03</totfact>
</mgrwt>
</event>
<event>
 4    1  0.4949719E-002  0.8873190E+03  0.7818608E-02  0.9441574E-01
         21   -1    0    0  503  502  0.00000000000E+00  0.00000000000E+00  0.14818142346E+04  0.14818142346E+04  0.00000000000E+00 0. -1.
         21   -1    0    0  501  503 -0.00000000000E+00 -0.00000000000E+00 -0.60800534152E+03  0.60800534152E+03  0.00000000000E+00 0. -1.
    9000005    1    1    2  501    0 -0.45526812058E+03  0.64812488739E+03  0.65841114518E+02  0.88975838498E+03  0.40000000000E+03 0. -1.
   -9000005    1    1    2    0  502  0.45526812058E+03 -0.64812488739E+03  0.80796777856E+03  0.12000611911E+04  0.40000000000E+03 0. -1.
<mgrwt>
<rscale>  2 0.88731896E+03</rscale>
<asrwt>0</asrwt>
<pdfrwt beam="1">  1       21 0.22797142E+00 0.88731896E+03</pdfrwt>
<pdfrwt beam="2">  1       21 0.93539284E-01 0.88731896E+03</pdfrwt>
<totfact> 0.56428146E+01</totfact>
</mgrwt>
</event>
<event>
 4    1  0.4949719E-002  0.4828944E+03  0.7818608E-02  0.1018343E+00
         21   -1    0    0  503  502  0.00000000000E+00  0.00000000000E+00  0.33016351812E+03  0.33016351812E+03  0.00000000000E+00 0. -1.
         21   -1    0    0  501  503 -0.00000000000E+00 -0.00000000000E+00 -0.70630852969E+03  0.70630852969E+03  0.00000000000E+00 0. -1.
    9000005    1    1    2  501    0 -0.10045089781E+03  0.25119046330E+03 -0.19151287981E+03  0.51948456652E+03  0.40000000000E+03 0. -1.
   -9000005    1    1    2    0  502  0.10045089781E+03 -0.25119046330E+03 -0.18463213176E+03  0.51698748128E+03  0.40000000000E+03 0. -1.
<mgrwt>
<rscale>  2 0.48289443E+03</rscale>
<asrwt>0</asrwt>
<pdfrwt beam="1">  1       21 0.50794388E-01 0.48289443E+03</pdfrwt>
<pdfrwt beam="2">  1       21 0.10866285E+00 0.48289443E+03</pdfrwt>
<totfact> 0.21146976E+03</totfact>
</mgrwt>
</event>
<event>
 4    1  0.4949719E-002  0.4664645E+03  0.7818608E-02  0.1022923E+00
         21   -1    0    0  501  502  0.00000000000E+00  0.00000000000E+00  0.59954317147E+03  0.59954317147E+03  0.00000000000E+00 0.  1.
         21   -1    0    0  502  503 -0.00000000000E+00 -0.00000000000E+00 -0.13866719667E+04  0.13866719667E+04  0.00000000000E+00 0.  1.
    9000005    1    1    2  501    0 -0.23874844443E+03  0.24254494783E+02  0.45974351979E+03  0.65494519177E+03  0.40000000000E+03 0.  1.
   -9000005    1    1    2    0  503  0.23874844443E+03 -0.24254494783E+02 -0.12468723150E+04  0.13312699464E+04  0.40000000000E+03 0.  1.
<mgrwt>
<rscale>  2 0.46646447E+03</rscale>
<asrwt>0</asrwt>
<pdfrwt beam="1">  1       21 0.92237412E-01 0.46646447E+03</pdfrwt>
<pdfrwt beam="2">  1       21 0.21333415E+00 0.46646447E+03</pdfrwt>
<totfact> 0.85994272E+01</totfact>
</mgrwt>
</event>
<event>
 4    1  0.4949719E-002  0.4260637E+03  0.7818608E-02  0.1035111E+00
         21   -1    0    0  501  502  0.00000000000E+00  0.00000000000E+00  0.17198472115E+04  0.17198472115E+04  0.00000000000E+00 0.  1.
         21   -1    0    0  502  503 -0.00000000000E+00 -0.00000000000E+00 -0.11409429081E+03  0.11409429081E+03  0.00000000000E+00 0.  1.
    9000005    1    1    2  501    0 -0.13629614102E+03 -0.54347353695E+02  0.10538082189E+04  0.11366802695E+04  0.40000000000E+03 0.  1.
   -9000005    1    1    2    0  503  0.13629614102E+03  0.54347353695E+02  0.55194470182E+03  0.69726123281E+03  0.40000000000E+03 0.  1.
<mgrwt>
<rscale>  2 0.42606370E+03</rscale>
<asrwt>0</asrwt>
<pdfrwt beam="1">  1       21 0.26459186E+00 0.42606370E+03</pdfrwt>
<pdfrwt beam="2">  1       21 0.17552969E-01 0.42606370E+03</pdfrwt>
<totfact> 0.13364969E+03</totfact>
</mgrwt>
</event>
<event>
 4    1  0.4949719E-002  0.5185045E+03  0.7818608E-02  0.1009059E+00
         21   -1    0    0  503  502  0.00000000000E+00  0.00000000000E+00  0.53198143637E+03  0.53198143637E+03  0.00000000000E+00 0. -1.
         21   -1    0    0  501  503 -0.00000000000E+00 -0.00000000000E+00 -0.90285930927E+03  0.90285930927E+03  0.00000000000E+00 0. -1.
    9000005    1    1    2  501    0  0.80588564694E+02 -0.31992558424E+03 -0.66146087520E+03  0.84046260216E+03  0.40000000000E+03 0. -1.
   -9000005    1    1    2    0  502 -0.80588564694E+02  0.31992558424E+03  0.29058300231E+03  0.59437814348E+03  0.40000000000E+03 0. -1.
<mgrwt>
<rscale>  2 0.51850448E+03</rscale>
<asrwt>0</asrwt>
<pdfrwt beam="1">  1       21 0.81843299E-01 0.51850448E+03</pdfrwt>
<pdfrwt beam="2">  1       21 0.13890143E+00 0.51850448E+03</pdfrwt>
<totfact> 0.38434118E+02</totfact>
</mgrwt>
</event>
<event>
 4    1  0.4949719E-002  0.4137925E+03  0.7818608E-02  0.1039106E+00
         21   -1    0    0  501  502  0.00000000000E+00  0.00000000000E+00  0.35192563997E+03  0.35192563997E+03  0.00000000000E+00 0. -1.
         21   -1    0    0  502  503 -0.00000000000E+00 -0.00000000000E+00 -0.66696340167E+03  0.66696340167E+03  0.00000000000E+00 0. -1.
    9000005    1    1    2  501    0  0.10450619142E+03  0.17397367189E+02  0.10745197070E+03  0.42751624348E+03  0.40000000000E+03 0. -1.
   -9000005    1    1    2    0  503 -0.10450619142E+03 -0.17397367189E+02 -0.42248973240E+03  0.59137279817E+03  0.40000000000E+03 0. -1.
<mgrwt>
<rscale>  2 0.41379248E+03</rscale>
<asrwt>0</asrwt>
<pdfrwt beam="1">  1       21 0.54142407E-01 0.41379248E+03</pdfrwt>
<pdfrwt beam="2">  1       21 0.10260975E+00 0.41379248E+03</pdfrwt>
<totfact> 0.21802500E+03</totfact>
</mgrwt>
</event>
<event>
 4    1  0.4949719E-002  0.7843794E+03  0.7818608E-02  0.9582907E-01
         21   -1    0    0  503  502  0.00000000000E+00  0.00000000000E+00  0.66813487699E+03  0.66813487699E+03  0.00000000000E+00 0. -1.
         21   -1    0    0  501  503 -0.00000000000E+00 -0.00000000000E+00 -0.11818754782E+04  0.11818754782E+04  0.00000000000E+00 0.  1.
    9000005    1    1    2  501    0  0.67361408129E+03 -0.38666209105E+02 -0.69158166309E+03  0.10457228136E+04  0.40000000000E+03 0.  1.
   -9000005    1    1    2    0  502 -0.67361408129E+03  0.38666209105E+02  0.17784106186E+03  0.80428754157E+03  0.40000000000E+03 0. -1.
<mgrwt>
<rscale>  2 0.78437938E+03</rscale>
<asrwt>0</asrwt>
<pdfrwt beam="1">  1       21 0.10278998E+00 0.78437938E+03</pdfrwt>
<pdfrwt beam="2">  1       21 0.18182700E+00 0.78437938E+03</pdfrwt>
<totfact> 0.94885434E+01</totfact>
</mgrwt>
</event>
<event>
 4    1  0.4949719E-002  0.4184793E+03  0.7818608E-02  0.1037562E+00
         21   -1    0    0  501  502  0.00000000000E+00  0.00000000000E+00  0.83226339616E+02  0.83226339616E+02  0.00000000000E+00 0.  1.
         21   -1    0    0  502  503 -0.00000000000E+00 -0.00000000000E+00 -0.23268600674E+04  0.23268600674E+04  0.00000000000E+00 0.  1.
    9000005    1    1    2  501    0 -0.21335530458E+02 -0.12111877470E+03 -0.74904983106E+03  0.85802133531E+03  0.40000000000E+03 0. -1.
   -9000005    1    1    2    0  503  0.21335530458E+02  0.12111877470E+03 -0.14945838967E+04  0.15520650717E+04  0.40000000000E+03 0. -1.
<mgrwt>
<rscale>  2 0.41847935E+03</rscale>
<asrwt>0</asrwt>
<pdfrwt beam="1">  1       21 0.12804054E-01 0.41847935E+03</pdfrwt>
<pdfrwt beam="2">  1       21 0.35797841E+00 0.41847935E+03</pdfrwt>
<totfact> 0.65739532E+02</totfact>
</mgrwt>
</event>
<event>
 4    1  0.4949719E-002  0.4231505E+03  0.7818608E-02  0.1036046E+00
         21   -1    0    0  501  502  0.00000000000E+00  0.00000000000E+00  0.67541183794E+03  0.67541183794E+03  0.00000000000E+00 0.  1.
         21   -1    0    0  502  503 -0.00000000000E+00 -0.00000000000E+00 -0.34188982438E+03  0.34188982438E+03  0.00000000000E+00 0. -1.
    9000005    1    1    2  501    0  0.13800363983E+03 -0.33706063108E+01  0.40781197609E+03  0.58767931173E+03  0.40000000000E+03 0.  1.
   -9000005    1    1    2    0  503 -0.13800363983E+03  0.33706063108E+01 -0.74289962535E+02  0.42962235059E+03  0.40000000000E+03 0. -1.
<mgrwt>
<rscale>  2 0.42315052E+03</rscale>
<asrwt>0</asrwt>
<pdfrwt beam="1">  1       21 0.10390951E+00 0.42315052E+03</pdfrwt>
<pdfrwt beam="2">  1       21 0.52598435E-01 0.42315052E+03</pdfrwt>
<totfact> 0.22410341E+03</totfact>
</mgrwt>
</event>
<event>
 4    1  0.4949719E-002  0.5260821E+03  0.7818608E-02  0.1007187E+00
         21   -1    0    0  503  502  0.00000000000E+00  0.00000000000E+00  0.22669988590E+04  0.22669988590E+04  0.00000000000E+00 0. -1.
         21   -1    0    0  501  503 -0.00000000000E+00 -0.00000000000E+00 -0.13110794527E+03  0.13110794527E+03  0.00000000000E+00 0. -1.
    9000005    1    1    2  501    0 -0.32242376116E+03 -0.11316049890E+03  0.13825337107E+04  0.14792436722E+04  0.40000000000E+03 0. -1.
   -9000005    1    1    2    0  502  0.32242376116E+03  0.11316049890E+03  0.75335720304E+03  0.91886313216E+03  0.40000000000E+03 0. -1.
<mgrwt>
<rscale>  2 0.52608210E+03</rscale>
<asrwt>0</asrwt>
<pdfrwt beam="1">  1       21 0.34876903E+00 0.52608210E+03</pdfrwt>
<pdfrwt beam="2">  1       21 0.20170455E-01 0.52608210E+03</pdfrwt>
<totfact> 0.30106048E+02</totfact>
</mgrwt>
</event>
<event>
 4    1  0.4949719E-002  0.5445893E+03  0.7818608E-02  0.1002754E+00
         21   -1    0    0  503  502  0.00000000000E+00  0.00000000000E+00  0.74068961409E+03  0.74068961409E+03  0.00000000000E+00 0. -1.
         21   -1    0    0  501  503 -0.00000000000E+00 -0.00000000000E+00 -0.69395641940E+03  0.69395641940E+03  0.00000000000E+00 0. -1.
    9000005    1    1    2  501    0 -0.15585532386E+03 -0.33509199716E+03 -0.44317358893E+03  0.70212560020E+03  0.40000000000E+03 0. -1.
   -9000005    1    1    2    0  502  0.15585532386E+03  0.33509199716E+03  0.48990678362E+03  0.73252043328E+03  0.40000000000E+03 0. -1.
<mgrwt>
<rscale>  2 0.54458932E+03</rscale>
<asrwt>0</asrwt>
<pdfrwt beam="1">  1       21 0.11395225E+00 0.54458932E+03</pdfrwt>
<pdfrwt beam="2">  1       21 0.10676253E+00 0.54458932E+03</pdfrwt>
<totfact> 0.33518175E+02</totfact>
</mgrwt>
</event>
<event>
 4    1  0.4949719E-002  0.4129111E+03  0.7818608E-02  0.1039398E+00
         21   -1    0    0  503  502  0.00000000000E+00  0.00000000000E+00  0.39645390488E+03  0.39645390488E+03  0.00000000000E+00 0. -1.
         21   -1    0    0  501  503 -0.00000000000E+00 -0.00000000000E+00 -0.49610459743E+03  0.49610459743E+03  0.00000000000E+00 0. -1.
    9000005    1    1    2  501    0  0.87761276760E+02  0.52854281797E+02  0.11301667902E+03  0.42809857106E+03  0.40000000000E+03 0. -1.
   -9000005    1    1    2    0  502 -0.87761276760E+02 -0.52854281797E+02 -0.21266737157E+03  0.46445993125E+03  0.40000000000E+03 0. -1.
<mgrwt>
<rscale>  2 0.41291115E+03</rscale>
<asrwt>0</asrwt>
<pdfrwt beam="1">  1       21 0.60992909E-01 0.41291115E+03</pdfrwt>
<pdfrwt beam="2">  1       21 0.76323784E-01 0.41291115E+03</pdfrwt>
<totfact> 0.33828496E+03</totfact>
</mgrwt>
</event>
<event>
 4    1  0.4949719E-002  0.5219507E+03  0.7818608E-02  0.1008203E+00
         21   -1    0    0  501  502  0.00000000000E+00  0.00000000000E+00  0.12187850489E+04  0.12187850489E+04  0.00000000000E+00 0.  1.
         21   -1    0    0  502  503 -0.00000000000E+00 -0.00000000000E+00 -0.26905981996E+03  0.26905981996E+03  0.00000000000E+00 0.  1.
    9000005    1    1    2  501    0  0.18807064122E+03 -0.27760040790E+03  0.78089040151E+03  0.93926693316E+03  0.40000000000E+03 0.  1.
   -9000005    1    1    2    0  503 -0.18807064122E+03  0.27760040790E+03  0.16883482739E+03  0.54857793566E+03  0.40000000000E+03 0.  1.
<mgrwt>
<rscale>  2 0.52195072E+03</rscale>
<asrwt>0</asrwt>
<pdfrwt beam="1">  1       21 0.18750539E+00 0.52195072E+03</pdfrwt>
<pdfrwt beam="2">  1       21 0.41393819E-01 0.52195072E+03</pdfrwt>
<totfact> 0.73527050E+02</totfact>
</mgrwt>
</event>
<event>
 4    1  0.4949719E-002  0.4144403E+03  0.7818608E-02  0.1038891E+00
         21   -1    0    0  501  502  0.00000000000E+00  0.00000000000E+00  0.99646295273E+03  0.99646295273E+03  0.00000000000E+00 0.  1.
         21   -1    0    0  502  503 -0.00000000000E+00 -0.00000000000E+00 -0.19023308803E+03  0.19023308803E+03  0.00000000000E+00 0.  1.
    9000005    1    1    2  501    0  0.10702060537E+03  0.17530561168E+02  0.58493412264E+03  0.71687422773E+03  0.40000000000E+03 0.  1.
   -9000005    1    1    2    0  503 -0.10702060537E+03 -0.17530561168E+02  0.22129574206E+03  0.46982181303E+03  0.40000000000E+03 0.  1.
<mgrwt>
<rscale>  2 0.41444026E+03</rscale>
<asrwt>0</asrwt>
<pdfrwt beam="1">  1       21 0.15330199E+00 0.41444026E+03</pdfrwt>
<pdfrwt beam="2">  1       21 0.29266630E-01 0.41444026E+03</pdfrwt>
<totfact> 0.27544176E+03</totfact>
</mgrwt>
</event>
<event>
 4    1  0.4949719E-002  0.4442794E+03  0.7818608E-02  0.1029442E+00
         21   -1    0    0  503  502  0.00000000000E+00  0.00000000000E+00  0.67200002618E+03  0.67200002618E+03  0.00000000000E+00 0.  1.
         21   -1    0    0  501  503 -0.00000000000E+00 -0.00000000000E+00 -0.30225564840E+03  0.30225564840E+03  0.00000000000E+00 0.  1.
    9000005    1    1    2  501    0 -0.12500769217E+03  0.14750344284E+03  0.10304274654E+03  0.45607235870E+03  0.40000000000E+03 0.  1.
   -9000005    1    1    2    0  502  0.12500769217E+03 -0.14750344284E+03  0.26670163124E+03  0.51818331588E+03  0.40000000000E+03 0.  1.
<mgrwt>
<rscale>  2 0.44427940E+03</rscale>
<asrwt>0</asrwt>
<pdfrwt beam="1">  1       21 0.10338462E+00 0.44427940E+03</pdfrwt>
<pdfrwt beam="2">  1       21 0.46500869E-01 0.44427940E+03</pdfrwt>
<totfact> 0.29236136E+03</totfact>
</mgrwt>
</event>
<event>
 4    1  0.4949719E-002  0.6142971E+03  0.7818608E-02  0.9876180E-01
         21   -1    0    0  501  502  0.00000000000E+00  0.00000000000E+00  0.10257908978E+04  0.10257908978E+04  0.00000000000E+00 0. -1.
         21   -1    0    0  502  503 -0.00000000000E+00 -0.00000000000E+00 -0.41564541965E+03  0.41564541965E+03  0.00000000000E+00 0.  1.
    9000005    1    1    2  501    0 -0.14269873896E+03  0.44384456334E+03  0.54941124421E+03  0.82414418749E+03  0.40000000000E+03 0.  1.
   -9000005    1    1    2    0  503  0.14269873896E+03 -0.44384456334E+03  0.60734233916E+02  0.61729212994E+03  0.40000000000E+03 0.  1.
<mgrwt>
<rscale>  2 0.61429710E+03</rscale>
<asrwt>0</asrwt>
<pdfrwt beam="1">  1       21 0.15781398E+00 0.61429710E+03</pdfrwt>
<pdfrwt beam="2">  1       21 0.63945449E-01 0.61429710E+03</pdfrwt>
<totfact> 0.45955019E+02</totfact>
</mgrwt>
</event>
<event>
 4    1  0.4949719E-002  0.4086881E+03  0.7818608E-02  0.1040812E+00
         21   -1    0    0  501  502  0.00000000000E+00  0.00000000000E+00  0.36905728978E+03  0.36905728978E+03  0.00000000000E+00 0.  1.
         21   -1    0    0  502  503 -0.00000000000E+00 -0.00000000000E+00 -0.73430993985E+03  0.73430993985E+03  0.00000000000E+00 0.  1.
    9000005    1    1    2  501    0 -0.95445501358E+01  0.83275734230E+02  0.15909419925E+03  0.43856232235E+03  0.40000000000E+03 0.  1.
   -9000005    1    1    2    0  503  0.95445501358E+01 -0.83275734230E+02 -0.52434684933E+03  0.66480490728E+03  0.40000000000E+03 0.  1.
<mgrwt>
<rscale>  2 0.40868808E+03</rscale>
<asrwt>0</asrwt>
<pdfrwt beam="1">  1       21 0.56778045E-01 0.40868808E+03</pdfrwt>
<pdfrwt beam="2">  1       21 0.11297076E+00 0.40868808E+03</pdfrwt>
<totfact> 0.15555537E+03</totfact>
</mgrwt>
</event>
<event>
 4    1  0.4949719E-002  0.4872548E+03  0.7818608E-02  0.1017160E+00
         21   -1    0    0  503  502  0.00000000000E+00  0.00000000000E+00  0.14690104681E+04  0.14690104681E+04  0.00000000000E+00 0. -1.
         21   -1    0    0  501  503 -0.00000000000E+00 -0.00000000000E+00 -0.24929097035E+03  0.24929097035E+03  0.00000000000E+00 0.  1.
    9000005    1    1    2  501    0  0.88015665921E+02  0.26395167260E+03  0.10035161588E+03  0.49748134611E+03  0.40000000000E+03 0.  1.
   -9000005    1    1    2    0  502 -0.88015665921E+02 -0.26395167260E+03  0.11193678819E+04  0.12208200924E+04  0.40000000000E+03 0. -1.
<mgrwt>
<rscale>  2 0.48725480E+03</rscale>
<asrwt>0</asrwt>
<pdfrwt beam="1">  1       21 0.22600160E+00 0.48725480E+03</pdfrwt>
<pdfrwt beam="2">  1       21 0.38352458E-01 0.48725480E+03</pdfrwt>
<totfact> 0.48612967E+02</totfact>
</mgrwt>
</event>
<event>
 4    1  0.4949719E-002  0.4411172E+03  0.7818608E-02  0.1030405E+00
         21   -1    0    0  501  502  0.00000000000E+00  0.00000000000E+00  0.49423283293E+03  0.49423283293E+03  0.00000000000E+00 0. -1.
         21   -1    0    0  502  503 -0.00000000000E+00 -0.00000000000E+00 -0.39858315739E+03  0.39858315739E+03  0.00000000000E+00 0. -1.
    9000005    1    1    2  501    0  0.15243989188E+03 -0.10651969029E+03  0.97185575536E+02  0.45169613807E+03  0.40000000000E+03 0. -1.
   -9000005    1    1    2    0  503 -0.15243989188E+03  0.10651969029E+03 -0.15359000015E+01  0.44111985224E+03  0.40000000000E+03 0. -1.
<mgrwt>
<rscale>  2 0.44111718E+03</rscale>
<asrwt>0</asrwt>
<pdfrwt beam="1">  1       21 0.76035821E-01 0.44111718E+03</pdfrwt>
<pdfrwt beam="2">  1       21 0.61320486E-01 0.44111718E+03</pdfrwt>
<totfact> 0.33376584E+03</totfact>
</mgrwt>
</event>
<event>
 4    1  0.4949719E-002  0.8370986E+03  0.7818608E-02  0.9507818E-01
         21   -1    0    0  501  502  0.00000000000E+00  0.00000000000E+00  0.58054493272E+03  0.58054493272E+03  0.00000000000E+00 0.  1.
         21   -1    0    0  502  503 -0.00000000000E+00 -0.00000000000E+00 -0.12070822197E+04  0.12070822197E+04  0.00000000000E+00 0. -1.
    9000005    1    1    2  501    0  0.43261006019E+03 -0.59462808091E+03 -0.30728105763E+03  0.89171501454E+03  0.40000000000E+03 0. -1.
   -9000005    1    1    2    0  503 -0.43261006019E+03  0.59462808091E+03 -0.31925622934E+03  0.89591213786E+03  0.40000000000E+03 0. -1.
<mgrwt>
<rscale>  2 0.83709857E+03</rscale>
<asrwt>0</asrwt>
<pdfrwt beam="1">  1       21 0.89314605E-01 0.83709857E+03</pdfrwt>
<pdfrwt beam="2">  1       21 0.18570496E+00 0.83709857E+03</pdfrwt>
<totfact> 0.12351916E+02</totfact>
</mgrwt>
</event>
<event>
 4    1  0.4949719E-002  0.4128771E+03  0.7818608E-02  0.1039410E+00
         21   -1    0    0  501  502  0.00000000000E+00  0.00000000000E+00  0.27698537647E+03  0.27698537647E+03  0.00000000000E+00 0.  1.
         21   -1    0    0  502  503 -0.00000000000E+00 -0.00000000000E+00 -0.69486571683E+03  0.69486571683E+03  0.00000000000E+00 0.  1.
    9000005    1    1    2  501    0 -0.10230653183E+03 -0.94866604794E+00 -0.44653112431E+02  0.41528475396E+03  0.40000000000E+03 0.  1.
   -9000005    1    1    2    0  503  0.10230653183E+03  0.94866604794E+00 -0.37322722793E+03  0.55656633934E+03  0.40000000000E+03 0.  1.
<mgrwt>
<rscale>  2 0.41287713E+03</rscale>
<asrwt>0</asrwt>
<pdfrwt beam="1">  1       21 0.42613135E-01 0.41287713E+03</pdfrwt>
<pdfrwt beam="2">  1       21 0.10690242E+00 0.41287713E+03</pdfrwt>
<totfact> 0.32698961E+03</totfact>
</mgrwt>
</event>
<event>
 4    1  0.4949719E-002  0.4824178E+03  0.7818608E-02  0.1018473E+00
         21   -1    0    0  503  502  0.00000000000E+00  0.00000000000E+00  0.40443629904E+03  0.40443629904E+03  0.00000000000E+00 0.  1.
         21   -1    0    0  501  503 -0.00000000000E+00 -0.00000000000E+00 -0.11570647957E+04  0.11570647957E+04  0.00000000000E+00 0.  1.
    9000005    1    1    2  501    0 -0.26700835611E+03 -0.37860693296E+02 -0.92986404430E+03  0.10475562206E+04  0.40000000000E+03 0.  1.
   -9000005    1    1    2    0  502  0.26700835611E+03  0.37860693296E+02  0.17723554766E+03  0.51394487417E+03  0.40000000000E+03 0.  1.
<mgrwt>
<rscale>  2 0.48241776E+03</rscale>
<asrwt>0</asrwt>
<pdfrwt beam="1">  1       21 0.62220970E-01 0.48241776E+03</pdfrwt>
<pdfrwt beam="2">  1       21 0.17800997E+00 0.48241776E+03</pdfrwt>
<totfact> 0.36454151E+02</totfact>
</mgrwt>
</event>
<event>
 4    1  0.4949719E-002  0.5043815E+03  0.7818608E-02  0.1012642E+00
         21   -1    0    0  501  502  0.00000000000E+00  0.00000000000E+00  0.36468267612E+03  0.36468267612E+03  0.00000000000E+00 0.  1.
         21   -1    0    0  502  503 -0.00000000000E+00 -0.00000000000E+00 -0.69763173171E+03  0.69763173171E+03  0.00000000000E+00 0.  1.
    9000005    1    1    2  501    0 -0.54257110155E+02 -0.30241835511E+03 -0.17034533837E+03  0.53237038781E+03  0.40000000000E+03 0.  1.
   -9000005    1    1    2    0  503  0.54257110155E+02  0.30241835511E+03 -0.16260371721E+03  0.52994402003E+03  0.40000000000E+03 0.  1.
<mgrwt>
<rscale>  2 0.50438150E+03</rscale>
<asrwt>0</asrwt>
<pdfrwt beam="1">  1       21 0.56105028E-01 0.50438150E+03</pdfrwt>
<pdfrwt beam="2">  1       21 0.10732796E+00 0.50438150E+03</pdfrwt>
<totfact> 0.17472394E+03</totfact>
</mgrwt>
</event>
<event>
 4    1  0.4949719E-002  0.4449800E+03  0.7818608E-02  0.1029230E+00
         21   -1    0    0  503  502  0.00000000000E+00  0.00000000000E+00  0.13568759627E+03  0.13568759627E+03  0.00000000000E+00 0. -1.
         21   -1    0    0  501  503 -0.00000000000E+00 -0.00000000000E+00 -0.14995596224E+04  0.14995596224E+04  0.00000000000E+00 0. -1.
    9000005    1    1    2  501    0  0.66937380888E+02 -0.18310273850E+03 -0.54794572835E+03  0.70586949716E+03  0.40000000000E+03 0.  1.
   -9000005    1    1    2    0  502 -0.66937380888E+02  0.18310273850E+03 -0.81592629774E+03  0.92937772146E+03  0.40000000000E+03 0.  1.
<mgrwt>
<rscale>  2 0.44498003E+03</rscale>
<asrwt>0</asrwt>
<pdfrwt beam="1">  1       21 0.20875015E-01 0.44498003E+03</pdfrwt>
<pdfrwt beam="2">  1       21 0.23070148E+00 0.44498003E+03</pdfrwt>
<totfact> 0.15413533E+03</totfact>
</mgrwt>
</event>
<event>
 4    1  0.4949719E-002  0.5233104E+03  0.7818608E-02  0.1007868E+00
         21   -1    0    0  501  502  0.00000000000E+00  0.00000000000E+00  0.22935353338E+04  0.22935353338E+04  0.00000000000E+00 0.  1.
         21   -1    0    0  502  503 -0.00000000000E+00 -0.00000000000E+00 -0.69323564699E+03  0.69323564699E+03  0.00000000000E+00 0.  1.
    9000005    1    1    2  501    0  0.11048194318E+03 -0.31882199869E+03  0.21588521748E+04  0.22213726476E+04  0.40000000000E+03 0.  1.
   -9000005    1    1    2    0  503 -0.11048194318E+03  0.31882199869E+03 -0.55855248802E+03  0.76539833321E+03  0.40000000000E+03 0.  1.
<mgrwt>
<rscale>  2 0.52331035E+03</rscale>
<asrwt>0</asrwt>
<pdfrwt beam="1">  1       21 0.35285159E+00 0.52331035E+03</pdfrwt>
<pdfrwt beam="2">  1       21 0.10665164E+00 0.52331035E+03</pdfrwt>
<totfact> 0.81007529E+00</totfact>
</mgrwt>
</event>
<event>
 4    1  0.4949719E-002  0.4100812E+03  0.7818608E-02  0.1040344E+00
         21   -1    0    0  501  502  0.00000000000E+00  0.00000000000E+00  0.58430242242E+03  0.58430242242E+03  0.00000000000E+00 0. -1.
         21   -1    0    0  502  503 -0.00000000000E+00 -0.00000000000E+00 -0.34271368779E+03  0.34271368779E+03  0.00000000000E+00 0. -1.
    9000005    1    1    2  501    0 -0.66478080832E+01 -0.90124475719E+02 -0.64730547137E+02  0.41515859404E+03  0.40000000000E+03 0. -1.
   -9000005    1    1    2    0  503  0.66478080832E+01  0.90124475719E+02  0.30631928176E+03  0.51185751617E+03  0.40000000000E+03 0. -1.
<mgrwt>
<rscale>  2 0.41008123E+03</rscale>
<asrwt>0</asrwt>
<pdfrwt beam="1">  1       21 0.89892680E-01 0.41008123E+03</pdfrwt>
<pdfrwt beam="2">  1       21 0.52725183E-01 0.41008123E+03</pdfrwt>
<totfact> 0.31750563E+03</totfact>
</mgrwt>
</event>
<event>
 4    1  0.4949719E-002  0.5252392E+03  0.7818608E-02  0.1007393E+00
         21   -1    0    0  503  502  0.00000000000E+00  0.00000000000E+00  0.51298552857E+03  0.51298552857E+03  0.00000000000E+00 0.  1.
         21   -1    0    0  501  503 -0.00000000000E+00 -0.00000000000E+00 -0.56581609944E+03  0.56581609944E+03  0.00000000000E+00 0. -1.
    9000005    1    1    2  501    0 -0.30528824975E+03 -0.15058321333E+03 -0.14647284935E+03  0.54528021711E+03  0.40000000000E+03 0. -1.
   -9000005    1    1    2    0  502  0.30528824975E+03  0.15058321333E+03  0.93642278482E+02  0.53352141090E+03  0.40000000000E+03 0.  1.
<mgrwt>
<rscale>  2 0.52523920E+03</rscale>
<asrwt>0</asrwt>
<pdfrwt beam="1">  1       21 0.78920851E-01 0.52523920E+03</pdfrwt>
<pdfrwt beam="2">  1       21 0.87048631E-01 0.52523920E+03</pdfrwt>
<totfact> 0.13409303E+03</totfact>
</mgrwt>
</event>
<event>
 4    1  0.4949719E-002  0.4056622E+03  0.7818608E-02  0.1041837E+00
         21   -1    0    0  501  502  0.00000000000E+00  0.00000000000E+00  0.74999101149E+03  0.74999101149E+03  0.00000000000E+00 0. -1.
         21   -1    0    0  502  503 -0.00000000000E+00 -0.00000000000E+00 -0.10946111155E+04  0.10946111155E+04  0.00000000000E+00 0. -1.
    9000005    1    1    2  501    0 -0.64812999159E+02  0.19002456853E+02  0.65238736189E+03  0.76822593564E+03  0.40000000000E+03 0. -1.
   -9000005    1    1    2    0  503  0.64812999159E+02 -0.19002456853E+02 -0.99700746587E+03  0.10763761913E+04  0.40000000000E+03 0. -1.
<mgrwt>
<rscale>  2 0.40566220E+03</rscale>
<asrwt>0</asrwt>
<pdfrwt beam="1">  1       21 0.11538323E+00 0.40566220E+03</pdfrwt>
<pdfrwt beam="2">  1       21 0.16840171E+00 0.40566220E+03</pdfrwt>
<totfact> 0.10469916E+02</totfact>
</mgrwt>
</event>
<event>
 4    1  0.4949719E-002  0.6974653E+03  0.7818608E-02  0.9721577E-01
         21   -1    0    0  501  502  0.00000000000E+00  0.00000000000E+00  0.18276259152E+03  0.18276259152E+03  0.00000000000E+00 0. -1.
         21   -1    0    0  502  503 -0.00000000000E+00 -0.00000000000E+00 -0.26627094594E+04  0.26627094594E+04  0.00000000000E+00 0. -1.
    9000005    1    1    2  501    0 -0.12246882033E+03  0.55808527438E+03 -0.12677804013E+04  0.14469709504E+04  0.40000000000E+03 0. -1.
   -9000005    1    1    2    0  503  0.12246882033E+03 -0.55808527438E+03 -0.12121664666E+04  0.13985011005E+04  0.40000000000E+03 0. -1.
<mgrwt>
<rscale>  2 0.69746526E+03</rscale>
<asrwt>0</asrwt>
<pdfrwt beam="1">  1       21 0.28117324E-01 0.69746526E+03</pdfrwt>
<pdfrwt beam="2">  1       21 0.40964758E+00 0.69746526E+03</pdfrwt>
<totfact> 0.59513811E+01</totfact>
</mgrwt>
</event>
<event>
 4    1  0.4949719E-002  0.4203169E+03  0.7818608E-02  0.1036963E+00
         21   -1    0    0  503  502  0.00000000000E+00  0.00000000000E+00  0.61528509965E+03  0.61528509965E+03  0.00000000000E+00 0. -1.
         21   -1    0    0  501  503 -0.00000000000E+00 -0.00000000000E+00 -0.36526660606E+03  0.36526660606E+03  0.00000000000E+00 0. -1.
    9000005    1    1    2  501    0 -0.12255224543E+03 -0.40586419047E+02 -0.10175002358E+03  0.43245737081E+03  0.40000000000E+03 0. -1.
   -9000005    1    1    2    0  502  0.12255224543E+03  0.40586419047E+02  0.35176851718E+03  0.54809433490E+03  0.40000000000E+03 0. -1.
<mgrwt>
<rscale>  2 0.42031692E+03</rscale>
<asrwt>0</asrwt>
<pdfrwt beam="1">  1       21 0.94659246E-01 0.42031692E+03</pdfrwt>
<pdfrwt beam="2">  1       21 0.56194863E-01 0.42031692E+03</pdfrwt>
<totfact> 0.24386813E+03</totfact>
</mgrwt>
</event>
<event>
 4    1  0.4949719E-002  0.4059503E+03  0.7818608E-02  0.1041739E+00
         21   -1    0    0  503  502  0.00000000000E+00  0.00000000000E+00  0.15813734361E+04  0.15813734361E+04  0.00000000000E+00 0. -1.
         21   -1    0    0  501  503 -0.00000000000E+00 -0.00000000000E+00 -0.13111303033E+03  0.13111303033E+03  0.00000000000E+00 0. -1.
    9000005    1    1    2  501    0  0.27330985929E+02 -0.63628892132E+02  0.33727351129E+03  0.52777745322E+03  0.40000000000E+03 0. -1.
   -9000005    1    1    2    0  502 -0.27330985929E+02  0.63628892132E+02  0.11129868944E+04  0.11847090132E+04  0.40000000000E+03 0. -1.
<mgrwt>
<rscale>  2 0.40595027E+03</rscale>
<asrwt>0</asrwt>
<pdfrwt beam="1">  1       21 0.24328821E+00 0.40595027E+03</pdfrwt>
<pdfrwt beam="2">  1       21 0.20171237E-01 0.40595027E+03</pdfrwt>
<totfact> 0.14009851E+03</totfact>
</mgrwt>
</event>
<event>
 4    1  0.4949719E-002  0.4410960E+03  0.7818608E-02  0.1030411E+00
         21   -1    0    0  501  502  0.00000000000E+00  0.00000000000E+00  0.54699474401E+03  0.54699474401E+03  0.00000000000E+00 0. -1.
         21   -1    0    0  502  503 -0.00000000000E+00 -0.00000000000E+00 -0.65359717881E+03  0.65359717881E+03  0.00000000000E+00 0. -1.
    9000005    1    1    2  501    0  0.16250283920E+03 -0.90324467178E+02  0.35196835339E+03  0.56431144229E+03  0.40000000000E+03 0. -1.
   -9000005    1    1    2    0  503 -0.16250283920E+03  0.90324467178E+02 -0.45857078819E+03  0.63628048053E+03  0.40000000000E+03 0. -1.
<mgrwt>
<rscale>  2 0.44109600E+03</rscale>
<asrwt>0</asrwt>
<pdfrwt beam="1">  1       21 0.84153038E-01 0.44109600E+03</pdfrwt>
<pdfrwt beam="2">  1       21 0.10055341E+00 0.44109600E+03</pdfrwt>
<totfact> 0.84452218E+02</totfact>
</mgrwt>
</event>
<event>
 4    1  0.4949719E-002  0.4381317E+03  0.7818608E-02  0.1031322E+00
         21   -1    0    0  501  502  0.00000000000E+00  0.00000000000E+00  0.10812365156E+04  0.10812365156E+04  0.00000000000E+00 0. -1.
         21   -1    0    0  502  503 -0.00000000000E+00 -0.00000000000E+00 -0.52525854686E+03  0.52525854686E+03  0.00000000000E+00 0. -1.
    9000005    1    1    2  501    0 -0.17835319851E+03  0.12227263529E+02  0.93153881289E+03  0.10294289336E+04  0.40000000000E+03 0. -1.
   -9000005    1    1    2    0  503  0.17835319851E+03 -0.12227263529E+02 -0.37556084417E+03  0.57706612885E+03  0.40000000000E+03 0. -1.
<mgrwt>
<rscale>  2 0.43813168E+03</rscale>
<asrwt>0</asrwt>
<pdfrwt beam="1">  1       21 0.16634408E+00 0.43813168E+03</pdfrwt>
<pdfrwt beam="2">  1       21 0.80809007E-01 0.43813168E+03</pdfrwt>
<totfact> 0.25066555E+02</totfact>
</mgrwt>
</event>
<event>
 4    1  0.4949719E-002  0.4074671E+03  0.7818608E-02  0.1041224E+00
         21   -1    0    0  503  502  0.00000000000E+00  0.00000000000E+00  0.33880356267E+03  0.33880356267E+03  0.00000000000E+00 0. -1.
         21   -1    0    0  501  503 -0.00000000000E+00 -0.00000000000E+00 -0.51579269411E+03  0.51579269411E+03  0.00000000000E+00 0. -1.
    9000005    1    1    2  501    0 -0.77611051173E+02  0.24405196755E+01 -0.18396120329E+03  0.44706952000E+03  0.40000000000E+03 0.  1.
   -9000005    1    1    2    0  502  0.77611051173E+02 -0.24405196755E+01  0.69720718540E+01  0.40752673677E+03  0.40000000000E+03 0.  1.
<mgrwt>
<rscale>  2 0.40746709E+03</rscale>
<asrwt>0</asrwt>
<pdfrwt beam="1">  1       21 0.52123625E-01 0.40746709E+03</pdfrwt>
<pdfrwt beam="2">  1       21 0.79352722E-01 0.40746709E+03</pdfrwt>
<totfact> 0.43562123E+03</totfact>
</mgrwt>
</event>
<event>
 4    1  0.4949719E-002  0.5070367E+03  0.7818608E-02  0.1011958E+00
         21   -1    0    0  503  502  0.00000000000E+00  0.00000000000E+00  0.12400288292E+04  0.12400288292E+04  0.00000000000E+00 0. -1.
         21   -1    0    0  501  503 -0.00000000000E+00 -0.00000000000E+00 -0.24899380885E+03  0.24899380885E+03  0.00000000000E+00 0. -1.
    9000005    1    1    2  501    0  0.43287235815E+02 -0.30856519327E+03  0.80009231722E+03  0.94722435535E+03  0.40000000000E+03 0. -1.
   -9000005    1    1    2    0  502 -0.43287235815E+02  0.30856519327E+03  0.19094270316E+03  0.54179828274E+03  0.40000000000E+03 0. -1.
<mgrwt>
<rscale>  2 0.50703675E+03</rscale>
<asrwt>0</asrwt>
<pdfrwt beam="1">  1       21 0.19077366E+00 0.50703675E+03</pdfrwt>
<pdfrwt beam="2">  1       21 0.38306741E-01 0.50703675E+03</pdfrwt>
<totfact> 0.82414009E+02</totfact>
</mgrwt>
</event>
<event>
 4    1  0.4949719E-002  0.6714573E+03  0.7818608E-02  0.9767329E-01
         21   -1    0    0  503  502  0.00000000000E+00  0.00000000000E+00  0.30251266764E+04  0.30251266764E+04  0.00000000000E+00 0. -1.
         21   -1    0    0  501  503 -0.00000000000E+00 -0.00000000000E+00 -0.16440852368E+03  0.16440852368E+03  0.00000000000E+00 0. -1.
    9000005    1    1    2  501    0  0.43444405146E+03  0.31955173008E+03  0.94272086965E+03  0.11574012183E+04  0.40000000000E+03 0. -1.
   -9000005    1    1    2    0  502 -0.43444405146E+03 -0.31955173008E+03  0.19179972830E+04  0.20321339817E+04  0.40000000000E+03 0. -1.
<mgrwt>
<rscale>  2 0.67145733E+03</rscale>
<asrwt>0</asrwt>
<pdfrwt beam="1">  1       21 0.46540406E+00 0.67145733E+03</pdfrwt>
<pdfrwt beam="2">  1       21 0.25293621E-01 0.67145733E+03</pdfrwt>
<totfact> 0.31255084E+01</totfact>
</mgrwt>
</event>
<event>
 4    1  0.4949719E-002  0.4007381E+03  0.7818608E-02  0.1043524E+00
         21   -1    0    0  503  502  0.00000000000E+00  0.00000000000E+00  0.29772318407E+04  0.29772318407E+04  0.00000000000E+00 0. -1.
         21   -1    0    0  501  503 -0.00000000000E+00 -0.00000000000E+00 -0.55988157005E+02  0.55988157005E+02  0.00000000000E+00 0. -1.
    9000005    1    1    2  501    0  0.88012285902E+01  0.22662805943E+02  0.11705292161E+04  0.12372266204E+04  0.40000000000E+03 0.  1.
   -9000005    1    1    2    0  502 -0.88012285902E+01 -0.22662805943E+02  0.17507144676E+04  0.17959933773E+04  0.40000000000E+03 0.  1.
<mgrwt>
<rscale>  2 0.40073815E+03</rscale>
<asrwt>0</asrwt>
<pdfrwt beam="1">  1       21 0.45803555E+00 0.40073815E+03</pdfrwt>
<pdfrwt beam="2">  1       21 0.86135649E-02 0.40073815E+03</pdfrwt>
<totfact> 0.30688350E+02</totfact>
</mgrwt>
</event>
<event>
 4    1  0.4949719E-002  0.4309631E+03  0.7818608E-02  0.1033556E+00
         21   -1    0    0  503  502  0.00000000000E+00  0.00000000000E+00  0.21263608294E+04  0.21263608294E+04  0.00000000000E+00 0. -1.
         21   -1    0    0  501  503 -0.00000000000E+00 -0.00000000000E+00 -0.18460654361E+03  0.18460654361E+03  0.00000000000E+00 0. -1.
    9000005    1    1    2  501    0  0.16037444323E+03  0.30382372319E+01  0.13217348876E+03  0.45077602427E+03  0.40000000000E+03 0. -1.
   -9000005    1    1    2    0  502 -0.16037444323E+03 -0.30382372319E+01  0.18095807971E+04  0.18601913488E+04  0.40000000000E+03 0. -1.
<mgrwt>
<rscale>  2 0.43096310E+03</rscale>
<asrwt>0</asrwt>
<pdfrwt beam="1">  1       21 0.32713242E+00 0.43096310E+03</pdfrwt>
<pdfrwt beam="2">  1       21 0.28401008E-01 0.43096310E+03</pdfrwt>
<totfact> 0.22215627E+02</totfact>
</mgrwt>
</event>
<event>
 4    1  0.4949719E-002  0.4361862E+03  0.7818608E-02  0.1031923E+00
         21   -1    0    0  503  502  0.00000000000E+00  0.00000000000E+00  0.81187515936E+03  0.81187515936E+03  0.00000000000E+00 0.  1.
         21   -1    0    0  501  503 -0.00000000000E+00 -0.00000000000E+00 -0.23930339329E+03  0.23930339329E+03  0.00000000000E+00 0. -1.
    9000005    1    1    2  501    0 -0.10767925396E+03  0.13661486078E+03  0.21062587029E+03  0.48437764106E+03  0.40000000000E+03 0. -1.
   -9000005    1    1    2    0  502  0.10767925396E+03 -0.13661486078E+03  0.36194589577E+03  0.56680091160E+03  0.40000000000E+03 0.  1.
<mgrwt>
<rscale>  2 0.43618625E+03</rscale>
<asrwt>0</asrwt>
<pdfrwt beam="1">  1       21 0.12490387E+00 0.43618625E+03</pdfrwt>
<pdfrwt beam="2">  1       21 0.36815907E-01 0.43618625E+03</pdfrwt>
<totfact> 0.29618764E+03</totfact>
</mgrwt>
</event>
<event>
 4    1  0.4949719E-002  0.6734641E+03  0.7818608E-02  0.9763720E-01
         21   -1    0    0  501  502  0.00000000000E+00  0.00000000000E+00  0.98432385508E+03  0.98432385508E+03  0.00000000000E+00 0. -1.
         21   -1    0    0  502  503 -0.00000000000E+00 -0.00000000000E+00 -0.51572412515E+03  0.51572412515E+03  0.00000000000E+00 0. -1.
    9000005    1    1    2  501    0  0.94983531296E+02 -0.53341540725E+03  0.47911519966E+03  0.82650181032E+03  0.40000000000E+03 0. -1.
   -9000005    1    1    2    0  503 -0.94983531296E+02  0.53341540725E+03 -0.10515469736E+02  0.67354616992E+03  0.40000000000E+03 0. -1.
<mgrwt>
<rscale>  2 0.67346408E+03</rscale>
<asrwt>0</asrwt>
<pdfrwt beam="1">  1       21 0.15143444E+00 0.67346408E+03</pdfrwt>
<pdfrwt beam="2">  1       21 0.79342174E-01 0.67346408E+03</pdfrwt>
<totfact> 0.30930186E+02</totfact>
</mgrwt>
</event>
<event>
 4    1  0.4949719E-002  0.4241447E+03  0.7818608E-02  0.1035726E+00
         21   -1    0    0  501  502  0.00000000000E+00  0.00000000000E+00  0.86203661235E+03  0.86203661235E+03  0.00000000000E+00 0. -1.
         21   -1    0    0  502  503 -0.00000000000E+00 -0.00000000000E+00 -0.51400798873E+03  0.51400798873E+03  0.00000000000E+00 0. -1.
    9000005    1    1    2  501    0 -0.32656706034E+02 -0.13723064977E+03  0.70428001304E+03  0.82213687939E+03  0.40000000000E+03 0. -1.
   -9000005    1    1    2    0  503  0.32656706034E+02  0.13723064977E+03 -0.35625138942E+03  0.55390772169E+03  0.40000000000E+03 0. -1.
<mgrwt>
<rscale>  2 0.42414468E+03</rscale>
<asrwt>0</asrwt>
<pdfrwt beam="1">  1       21 0.13262102E+00 0.42414468E+03</pdfrwt>
<pdfrwt beam="2">  1       21 0.79078152E-01 0.42414468E+03</pdfrwt>
<totfact> 0.49017826E+02</totfact>
</mgrwt>
</event>
<event>
 4    1  0.4949719E-002  0.5011601E+03  0.7818608E-02  0.1013477E+00
         21   -1    0    0  503  502  0.00000000000E+00  0.00000000000E+00  0.46628738639E+03  0.46628738639E+03  0.00000000000E+00 0.  1.
         21   -1    0    0  501  503 -0.00000000000E+00 -0.00000000000E+00 -0.53868536163E+03  0.53868536163E+03  0.00000000000E+00 0.  1.
    9000005    1    1    2  501    0 -0.20759394329E+03 -0.21924015859E+03 -0.40760226787E+02  0.50281496449E+03  0.40000000000E+03 0.  1.
   -9000005    1    1    2    0  502  0.20759394329E+03  0.21924015859E+03 -0.31637748450E+02  0.50215778353E+03  0.40000000000E+03 0.  1.
<mgrwt>
<rscale>  2 0.50116015E+03</rscale>
<asrwt>0</asrwt>
<pdfrwt beam="1">  1       21 0.71736521E-01 0.50116015E+03</pdfrwt>
<pdfrwt beam="2">  1       21 0.82874671E-01 0.50116015E+03</pdfrwt>
<totfact> 0.18875136E+03</totfact>
</mgrwt>
</event>
<event>
 4    1  0.4949719E-002  0.4810944E+03  0.7818608E-02  0.1018835E+00
         21   -1    0    0  503  502  0.00000000000E+00  0.00000000000E+00  0.13911348630E+04  0.13911348630E+04  0.00000000000E+00 0. -1.
         21   -1    0    0  501  503 -0.00000000000E+00 -0.00000000000E+00 -0.18326744957E+03  0.18326744957E+03  0.00000000000E+00 0. -1.
    9000005    1    1    2  501    0  0.13311204604E+03  0.23180371739E+03  0.84292027933E+03  0.97054952347E+03  0.40000000000E+03 0. -1.
   -9000005    1    1    2    0  502 -0.13311204604E+03 -0.23180371739E+03  0.36494713406E+03  0.60385278906E+03  0.40000000000E+03 0. -1.
<mgrwt>
<rscale>  2 0.48109436E+03</rscale>
<asrwt>0</asrwt>
<pdfrwt beam="1">  1       21 0.21402074E+00 0.48109436E+03</pdfrwt>
<pdfrwt beam="2">  1       21 0.28194993E-01 0.48109436E+03</pdfrwt>
<totfact> 0.10807582E+03</totfact>
</mgrwt>
</event>
<event>
 4    1  0.4949719E-002  0.5430245E+03  0.7818608E-02  0.1003122E+00
         21   -1    0    0  501  502  0.00000000000E+00  0.00000000000E+00  0.32061648765E+03  0.32061648765E+03  0.00000000000E+00 0.  1.
         21   -1    0    0  502  503 -0.00000000000E+00 -0.00000000000E+00 -0.17758901640E+04  0.17758901640E+04  0.00000000000E+00 0.  1.
    9000005    1    1    2  501    0  0.34253326919E+03  0.13246331880E+03  0.20947449398E+00  0.54302450701E+03  0.40000000000E+03 0.  1.
   -9000005    1    1    2    0  503 -0.34253326919E+03 -0.13246331880E+03 -0.14554831508E+04  0.15534821446E+04  0.40000000000E+03 0.  1.
<mgrwt>
<rscale>  2 0.54302447E+03</rscale>
<asrwt>0</asrwt>
<pdfrwt beam="1">  1       21 0.49325614E-01 0.54302447E+03</pdfrwt>
<pdfrwt beam="2">  1       21 0.27321387E+00 0.54302447E+03</pdfrwt>
<totfact> 0.14259307E+02</totfact>
</mgrwt>
</event>
<event>
 4    1  0.4949719E-002  0.4409731E+03  0.7818608E-02  0.1030449E+00
         21   -1    0    0  501  502  0.00000000000E+00  0.00000000000E+00  0.76341732172E+03  0.76341732172E+03  0.00000000000E+00 0. -1.
         21   -1    0    0  502  503 -0.00000000000E+00 -0.00000000000E+00 -0.28369180394E+03  0.28369180394E+03  0.00000000000E+00 0. -1.
    9000005    1    1    2  501    0 -0.14407753461E+03 -0.11704250210E+03  0.40717588881E+03  0.60020787041E+03  0.40000000000E+03 0.  1.
   -9000005    1    1    2    0  503  0.14407753461E+03  0.11704250210E+03  0.72549628970E+02  0.44690125525E+03  0.40000000000E+03 0.  1.
<mgrwt>
<rscale>  2 0.44097311E+03</rscale>
<asrwt>0</asrwt>
<pdfrwt beam="1">  1       21 0.11744882E+00 0.44097311E+03</pdfrwt>
<pdfrwt beam="2">  1       21 0.43644893E-01 0.44097311E+03</pdfrwt>
<totfact> 0.24359763E+03</totfact>
</mgrwt>
</event>
<event>
 4    1  0.4949719E-002  0.4098413E+03  0.7818608E-02  0.1040424E+00
         21   -1    0    0  503  502  0.00000000000E+00  0.00000000000E+00  0.95290194428E+03  0.95290194428E+03  0.00000000000E+00 0.  1.
         21   -1    0    0  501  503 -0.00000000000E+00 -0.00000000000E+00 -0.21178506539E+03  0.21178506539E+03  0.00000000000E+00 0.  1.
    9000005    1    1    2  501    0  0.71995908274E+02 -0.52786969115E+02  0.13209268818E+03  0.43060231442E+03  0.40000000000E+03 0.  1.
   -9000005    1    1    2    0  502 -0.71995908274E+02  0.52786969115E+02  0.60902419071E+03  0.73408469524E+03  0.40000000000E+03 0.  1.
<mgrwt>
<rscale>  2 0.40984128E+03</rscale>
<asrwt>0</asrwt>
<pdfrwt beam="1">  1       21 0.14660030E+00 0.40984128E+03</pdfrwt>
<pdfrwt beam="2">  1       21 0.32582318E-01 0.40984128E+03</pdfrwt>
<totfact> 0.25156589E+03</totfact>
</mgrwt>
</event>
<event>
 4    1  0.4949719E-002  0.4008021E+03  0.7818608E-02  0.1043502E+00
         21   -1    0    0  501  502  0.00000000000E+00  0.00000000000E+00  0.11658431801E+04  0.11658431801E+04  0.00000000000E+00 0. -1.
         21   -1    0    0  502  503 -0.00000000000E+00 -0.00000000000E+00 -0.18561940836E+03  0.18561940836E+03  0.00000000000E+00 0. -1.
    9000005    1    1    2  501    0  0.48326432524E+01 -0.24879173208E+02  0.83312185715E+03  0.92451844577E+03  0.40000000000E+03 0. -1.
   -9000005    1    1    2    0  503 -0.48326432524E+01  0.24879173208E+02  0.14710191458E+03  0.42694414269E+03  0.40000000000E+03 0. -1.
<mgrwt>
<rscale>  2 0.40080211E+03</rscale>
<asrwt>0</asrwt>
<pdfrwt beam="1">  1       21 0.17936049E+00 0.40080211E+03</pdfrwt>
<pdfrwt beam="2">  1       21 0.28556833E-01 0.40080211E+03</pdfrwt>
<totfact> 0.18700712E+03</totfact>
</mgrwt>
</event>
<event>
 4    1  0.4949719E-002  0.4638678E+03  0.7818608E-02  0.1023665E+00
         21   -1    0    0  503  502  0.00000000000E+00  0.00000000000E+00  0.54792422517E+03  0.54792422517E+03  0.00000000000E+00 0. -1.
         21   -1    0    0  501  503 -0.00000000000E+00 -0.00000000000E+00 -0.49125482399E+03  0.49125482399E+03  0.00000000000E+00 0. -1.
    9000005    1    1    2  501    0 -0.23424926904E+03 -0.17338992130E+02 -0.20438426138E+03  0.50689869500E+03  0.40000000000E+03 0. -1.
   -9000005    1    1    2    0  502  0.23424926904E+03  0.17338992130E+02  0.26105366256E+03  0.53228035416E+03  0.40000000000E+03 0. -1.
<mgrwt>
<rscale>  2 0.46386783E+03</rscale>
<asrwt>0</asrwt>
<pdfrwt beam="1">  1       21 0.84296034E-01 0.46386783E+03</pdfrwt>
<pdfrwt beam="2">  1       21 0.75577666E-01 0.46386783E+03</pdfrwt>
<totfact> 0.16324032E+03</totfact>
</mgrwt>
</event>
<event>
 4    1  0.4949719E-002  0.4577222E+03  0.7818608E-02  0.1025444E+00
         21   -1    0    0  501  502  0.00000000000E+00  0.00000000000E+00  0.18114406947E+03  0.18114406947E+03  0.00000000000E+00 0.  1.
         21   -1    0    0  502  503 -0.00000000000E+00 -0.00000000000E+00 -0.11601426667E+04  0.11601426667E+04  0.00000000000E+00 0.  1.
    9000005    1    1    2  501    0 -0.13641426108E+03  0.17578599730E+03 -0.52660692443E+03  0.69772804181E+03  0.40000000000E+03 0.  1.
   -9000005    1    1    2    0  503  0.13641426108E+03 -0.17578599730E+03 -0.45239167281E+03  0.64355869437E+03  0.40000000000E+03 0.  1.
<mgrwt>
<rscale>  2 0.45772215E+03</rscale>
<asrwt>0</asrwt>
<pdfrwt beam="1">  1       21 0.27868318E-01 0.45772215E+03</pdfrwt>
<pdfrwt beam="2">  1       21 0.17848349E+00 0.45772215E+03</pdfrwt>
<totfact> 0.19415610E+03</totfact>
</mgrwt>
</event>
<event>
 4    1  0.4949719E-002  0.4639109E+03  0.7818608E-02  0.1023653E+00
         21   -1    0    0  501  502  0.00000000000E+00  0.00000000000E+00  0.30735976436E+04  0.30735976436E+04  0.00000000000E+00 0. -1.
         21   -1    0    0  502  503 -0.00000000000E+00 -0.00000000000E+00 -0.79015117537E+02  0.79015117537E+02  0.00000000000E+00 0. -1.
    9000005    1    1    2  501    0  0.72326407673E+02 -0.22356702738E+03  0.20291408403E+04  0.20814960665E+04  0.40000000000E+03 0.  1.
   -9000005    1    1    2    0  503 -0.72326407673E+02  0.22356702738E+03  0.96544168580E+03  0.10711166947E+04  0.40000000000E+03 0.  1.
<mgrwt>
<rscale>  2 0.46391090E+03</rscale>
<asrwt>0</asrwt>
<pdfrwt beam="1">  1       21 0.47286108E+00 0.46391090E+03</pdfrwt>
<pdfrwt beam="2">  1       21 0.12156174E-01 0.46391090E+03</pdfrwt>
<totfact> 0.12475213E+02</totfact>
</mgrwt>
</event>
<event>
 4    1  0.4949719E-002  0.4399083E+03  0.7818608E-02  0.1030775E+00
         21   -1    0    0  501  502  0.00000000000E+00  0.00000000000E+00  0.19171137425E+04  0.19171137425E+04  0.00000000000E+00 0.  1.
         21   -1    0    0  502  503 -0.00000000000E+00 -0.00000000000E+00 -0.10164055375E+03  0.10164055375E+03  0.00000000000E+00 0.  1.
    9000005    1    1    2  501    0  0.18011501681E+03  0.32831536958E+02  0.99135268563E+03  0.10845734076E+04  0.40000000000E+03 0.  1.
   -9000005    1    1    2    0  503 -0.18011501681E+03 -0.32831536958E+02  0.82412050310E+03  0.93418088865E+03  0.40000000000E+03 0.  1.
<mgrwt>
<rscale>  2 0.43990832E+03</rscale>
<asrwt>0</asrwt>
<pdfrwt beam="1">  1       21 0.29494055E+00 0.43990832E+03</pdfrwt>
<pdfrwt beam="2">  1       21 0.15637010E-01 0.43990832E+03</pdfrwt>
<totfact> 0.10809738E+03</totfact>
</mgrwt>
</event>
<event>
 4    1  0.4949719E-002  0.6699610E+03  0.7818608E-02  0.9770028E-01
         21   -1    0    0  503  502  0.00000000000E+00  0.00000000000E+00  0.68389894681E+03  0.68389894681E+03  0.00000000000E+00 0.  1.
         21   -1    0    0  501  503 -0.00000000000E+00 -0.00000000000E+00 -0.96227454860E+03  0.96227454860E+03  0.00000000000E+00 0.  1.
    9000005    1    1    2  501    0  0.19361924619E+03  0.50135746652E+03 -0.60331148981E+03  0.90157222421E+03  0.40000000000E+03 0.  1.
   -9000005    1    1    2    0  502 -0.19361924619E+03 -0.50135746652E+03  0.32493588802E+03  0.74460127119E+03  0.40000000000E+03 0.  1.
<mgrwt>
<rscale>  2 0.66996099E+03</rscale>
<asrwt>0</asrwt>
<pdfrwt beam="1">  1       21 0.10521522E+00 0.66996099E+03</pdfrwt>
<pdfrwt beam="2">  1       21 0.14804224E+00 0.66996099E+03</pdfrwt>
<totfact> 0.16724320E+02</totfact>
</mgrwt>
</event>
<event>
 4    1  0.4949719E-002  0.4149665E+03  0.7818608E-02  0.1038717E+00
         21   -1    0    0  501  502  0.00000000000E+00  0.00000000000E+00  0.15692862054E+03  0.15692862054E+03  0.00000000000E+00 0. -1.
         21   -1    0    0  502  503 -0.00000000000E+00 -0.00000000000E+00 -0.11160252064E+04  0.11160252064E+04  0.00000000000E+00 0.  1.
    9000005    1    1    2  501    0  0.72843958258E+02 -0.83011818628E+02 -0.56200028508E+03  0.69859968846E+03  0.40000000000E+03 0. -1.
   -9000005    1    1    2    0  503 -0.72843958258E+02  0.83011818628E+02 -0.39709630075E+03  0.57435413845E+03  0.40000000000E+03 0.  1.
<mgrwt>
<rscale>  2 0.41496651E+03</rscale>
<asrwt>0</asrwt>
<pdfrwt beam="1">  1       21 0.24142865E-01 0.41496651E+03</pdfrwt>
<pdfrwt beam="2">  1       21 0.17169619E+00 0.41496651E+03</pdfrwt>
<totfact> 0.29246828E+03</totfact>
</mgrwt>
</event>
<event>
 4    1  0.4949719E-002  0.4311987E+03  0.7818608E-02  0.1033482E+00
         21   -1    0    0  501  502  0.00000000000E+00  0.00000000000E+00  0.15763189538E+04  0.15763189538E+04  0.00000000000E+00 0.  1.
         21   -1    0    0  502  503 -0.00000000000E+00 -0.00000000000E+00 -0.17078642522E+03  0.17078642522E+03  0.00000000000E+00 0.  1.
    9000005    1    1    2  501    0  0.10960600937E+03 -0.11797806569E+03  0.21690211515E+03  0.48267880504E+03  0.40000000000E+03 0.  1.
   -9000005    1    1    2    0  503 -0.10960600937E+03  0.11797806569E+03  0.11886304135E+04  0.12644265740E+04  0.40000000000E+03 0.  1.
<mgrwt>
<rscale>  2 0.43119868E+03</rscale>
<asrwt>0</asrwt>
<pdfrwt beam="1">  1       21 0.24251060E+00 0.43119868E+03</pdfrwt>
<pdfrwt beam="2">  1       21 0.26274836E-01 0.43119868E+03</pdfrwt>
<totfact> 0.83994339E+02</totfact>
</mgrwt>
</event>
<event>
 4    1  0.4949719E-002  0.4756294E+03  0.7818608E-02  0.1020343E+00
         21   -1    0    0  501  502  0.00000000000E+00  0.00000000000E+00  0.63123511959E+03  0.63123511959E+03  0.00000000000E+00 0.  1.
         21   -1    0    0  502  503 -0.00000000000E+00 -0.00000000000E+00 -0.60093374933E+03  0.60093374933E+03  0.00000000000E+00 0.  1.
    9000005    1    1    2  501    0  0.86778833628E+02  0.24226598471E+03  0.40655809835E+03  0.62570988536E+03  0.40000000000E+03 0.  1.
   -9000005    1    1    2    0  503 -0.86778833628E+02 -0.24226598471E+03 -0.37625672809E+03  0.60645898356E+03  0.40000000000E+03 0.  1.
<mgrwt>
<rscale>  2 0.47562945E+03</rscale>
<asrwt>0</asrwt>
<pdfrwt beam="1">  1       21 0.97113096E-01 0.47562945E+03</pdfrwt>
<pdfrwt beam="2">  1       21 0.92451345E-01 0.47562945E+03</pdfrwt>
<totfact> 0.72536798E+02</totfact>
</mgrwt>
</event>
<event>
 4    1  0.4949719E-002  0.4242462E+03  0.7818608E-02  0.1035693E+00
         21   -1    0    0  501  502  0.00000000000E+00  0.00000000000E+00  0.27636825428E+03  0.27636825428E+03  0.00000000000E+00 0.  1.
         21   -1    0    0  502  503 -0.00000000000E+00 -0.00000000000E+00 -0.70792910146E+03  0.70792910146E+03  0.00000000000E+00 0.  1.
    9000005    1    1    2  501    0 -0.97709729078E+02  0.10216487972E+03 -0.35503597820E+03  0.55320466341E+03  0.40000000000E+03 0.  1.
   -9000005    1    1    2    0  503  0.97709729078E+02 -0.10216487972E+03 -0.76524868978E+02  0.43109269233E+03  0.40000000000E+03 0.  1.
<mgrwt>
<rscale>  2 0.42424622E+03</rscale>
<asrwt>0</asrwt>
<pdfrwt beam="1">  1       21 0.42518193E-01 0.42424622E+03</pdfrwt>
<pdfrwt beam="2">  1       21 0.10891217E+00 0.42424622E+03</pdfrwt>
<totfact> 0.31238550E+03</totfact>
</mgrwt>
</event>
<event>
 4    1  0.4949719E-002  0.7319516E+03  0.7818608E-02  0.9664099E-01
         21   -1    0    0  501  502  0.00000000000E+00  0.00000000000E+00  0.52636535605E+03  0.52636535605E+03  0.00000000000E+00 0. -1.
         21   -1    0    0  502  503 -0.00000000000E+00 -0.00000000000E+00 -0.12036143764E+04  0.12036143764E+04  0.00000000000E+00 0.  1.
    9000005    1    1    2  501    0  0.49630709008E+03 -0.35976713978E+03  0.12088401041E+01  0.73195258304E+03  0.40000000000E+03 0. -1.
   -9000005    1    1    2    0  503 -0.49630709008E+03  0.35976713978E+03 -0.67845786041E+03  0.99802714937E+03  0.40000000000E+03 0.  1.
<mgrwt>
<rscale>  2 0.73195158E+03</rscale>
<asrwt>0</asrwt>
<pdfrwt beam="1">  1       21 0.80979287E-01 0.73195158E+03</pdfrwt>
<pdfrwt beam="2">  1       21 0.18517144E+00 0.73195158E+03</pdfrwt>
<totfact> 0.16214997E+02</totfact>
</mgrwt>
</event>
<event>
 4    1  0.4949719E-002  0.4369068E+03  0.7818608E-02  0.1031700E+00
         21   -1    0    0  501  502  0.00000000000E+00  0.00000000000E+00  0.15386540670E+03  0.15386540670E+03  0.00000000000E+00 0. -1.
         21   -1    0    0  502  503 -0.00000000000E+00 -0.00000000000E+00 -0.13211346801E+04  0.13211346801E+04  0.00000000000E+00 0. -1.
    9000005    1    1    2  501    0  0.16981382392E+03  0.45285853786E+02 -0.40156277936E+03  0.59341402841E+03  0.40000000000E+03 0. -1.
   -9000005    1    1    2    0  503 -0.16981382392E+03 -0.45285853786E+02 -0.76570649404E+03  0.88158605840E+03  0.40000000000E+03 0. -1.
<mgrwt>
<rscale>  2 0.43690679E+03</rscale>
<asrwt>0</asrwt>
<pdfrwt beam="1">  1       21 0.23671601E-01 0.43690679E+03</pdfrwt>
<pdfrwt beam="2">  1       21 0.20325149E+00 0.43690679E+03</pdfrwt>
<totfact> 0.18242503E+03</totfact>
</mgrwt>
</event>
<event>
 4    1  0.4949719E-002  0.4478015E+03  0.7818608E-02  0.1028380E+00
         21   -1    0    0  501  502  0.00000000000E+00  0.00000000000E+00  0.50005038460E+03  0.50005038460E+03  0.00000000000E+00 0. -1.
         21   -1    0    0  502  503 -0.00000000000E+00 -0.00000000000E+00 -0.42714960589E+03  0.42714960589E+03  0.00000000000E+00 0.  1.
    9000005    1    1    2  501    0 -0.11169462140E+03  0.16748289020E+03  0.15113001989E+03  0.47261664155E+03  0.40000000000E+03 0. -1.
   -9000005    1    1    2    0  503  0.11169462140E+03 -0.16748289020E+03 -0.78229241184E+02  0.45458334894E+03  0.40000000000E+03 0.  1.
<mgrwt>
<rscale>  2 0.44780153E+03</rscale>
<asrwt>0</asrwt>
<pdfrwt beam="1">  1       21 0.76930828E-01 0.44780153E+03</pdfrwt>
<pdfrwt beam="2">  1       21 0.65715324E-01 0.44780153E+03</pdfrwt>
<totfact> 0.27813826E+03</totfact>
</mgrwt>
</event>
<event>
 4    1  0.4949719E-002  0.4101312E+03  0.7818608E-02  0.1040327E+00
         21   -1    0    0  503  502  0.00000000000E+00  0.00000000000E+00  0.11963572649E+03  0.11963572649E+03  0.00000000000E+00 0. -1.
         21   -1    0    0  501  503 -0.00000000000E+00 -0.00000000000E+00 -0.14852442428E+04  0.14852442428E+04  0.00000000000E+00 0. -1.
    9000005    1    1    2  501    0 -0.62054860517E+02 -0.66005813179E+02 -0.86815887147E+03  0.96016009040E+03  0.40000000000E+03 0. -1.
   -9000005    1    1    2    0  502  0.62054860517E+02  0.66005813179E+02 -0.49744964488E+03  0.64471987892E+03  0.40000000000E+03 0. -1.
<mgrwt>
<rscale>  2 0.41013117E+03</rscale>
<asrwt>0</asrwt>
<pdfrwt beam="1">  1       21 0.18405495E-01 0.41013117E+03</pdfrwt>
<pdfrwt beam="2">  1       21 0.22849913E+00 0.41013117E+03</pdfrwt>
<totfact> 0.20545718E+03</totfact>
</mgrwt>
</event>
<event>
 4    1  0.4949719E-002  0.4548539E+03  0.7818608E-02  0.1026284E+00
         21   -1    0    0  503  502  0.00000000000E+00  0.00000000000E+00  0.42934388794E+03  0.42934388794E+03  0.00000000000E+00 0. -1.
         21   -1    0    0  501  503 -0.00000000000E+00 -0.00000000000E+00 -0.53766730563E+03  0.53766730563E+03  0.00000000000E+00 0. -1.
    9000005    1    1    2  501    0  0.26057477852E+02 -0.21497217318E+03  0.10158333885E+03  0.46605922598E+03  0.40000000000E+03 0. -1.
   -9000005    1    1    2    0  502 -0.26057477852E+02  0.21497217318E+03 -0.20990675654E+03  0.50095196759E+03  0.40000000000E+03 0. -1.
<mgrwt>
<rscale>  2 0.45485385E+03</rscale>
<asrwt>0</asrwt>
<pdfrwt beam="1">  1       21 0.66052906E-01 0.45485385E+03</pdfrwt>
<pdfrwt beam="2">  1       21 0.82718047E-01 0.45485385E+03</pdfrwt>
<totfact> 0.23198487E+03</totfact>
</mgrwt>
</event>
<event>
 4    1  0.4949719E-002  0.7159404E+03  0.7818608E-02  0.9690354E-01
         21   -1    0    0  501  502  0.00000000000E+00  0.00000000000E+00  0.17643268585E+04  0.17643268585E+04  0.00000000000E+00 0. -1.
         21   -1    0    0  502  503 -0.00000000000E+00 -0.00000000000E+00 -0.29453440476E+03  0.29453440476E+03  0.00000000000E+00 0. -1.
    9000005    1    1    2  501    0 -0.17545510885E+03 -0.56726202629E+03  0.85509133012E+03  0.11152362461E+04  0.40000000000E+03 0. -1.
   -9000005    1    1    2    0  503  0.17545510885E+03  0.56726202629E+03  0.61470112362E+03  0.94362501719E+03  0.40000000000E+03 0. -1.
<mgrwt>
<rscale>  2 0.71594043E+03</rscale>
<asrwt>0</asrwt>
<pdfrwt beam="1">  1       21 0.27143489E+00 0.71594043E+03</pdfrwt>
<pdfrwt beam="2">  1       21 0.45312986E-01 0.71594043E+03</pdfrwt>
<totfact> 0.16283643E+02</totfact>
</mgrwt>
</event>
<event>
 4    1  0.4949719E-002  0.5165449E+03  0.7818608E-02  0.1009548E+00
         21   -1    0    0  503  502  0.00000000000E+00  0.00000000000E+00  0.90417770676E+03  0.90417770676E+03  0.00000000000E+00 0.  1.
         21   -1    0    0  501  503 -0.00000000000E+00 -0.00000000000E+00 -0.53117737194E+03  0.53117737194E+03  0.00000000000E+00 0.  1.
    9000005    1    1    2  501    0 -0.32102355903E+03  0.61339632127E+02 -0.29195471417E+03  0.59334326578E+03  0.40000000000E+03 0.  1.
   -9000005    1    1    2    0  502  0.32102355903E+03 -0.61339632127E+02  0.66495504899E+03  0.84201181292E+03  0.40000000000E+03 0.  1.
<mgrwt>
<rscale>  2 0.51654494E+03</rscale>
<asrwt>0</asrwt>
<pdfrwt beam="1">  1       21 0.13910426E+00 0.51654494E+03</pdfrwt>
<pdfrwt beam="2">  1       21 0.81719596E-01 0.51654494E+03</pdfrwt>
<totfact> 0.38450117E+02</totfact>
</mgrwt>
</event>
<event>
 4    1  0.4949719E-002  0.4074746E+03  0.7818608E-02  0.1041222E+00
         21   -1    0    0  501  502  0.00000000000E+00  0.00000000000E+00  0.69016021641E+03  0.69016021641E+03  0.00000000000E+00 0. -1.
         21   -1    0    0  502  503 -0.00000000000E+00 -0.00000000000E+00 -0.24059316372E+03  0.24059316372E+03  0.00000000000E+00 0. -1.
    9000005    1    1    2  501    0  0.59417970506E+02 -0.50050642644E+02  0.22878364603E+03  0.46730880447E+03  0.40000000000E+03 0.  1.
   -9000005    1    1    2    0  503 -0.59417970506E+02  0.50050642644E+02  0.22078340666E+03  0.46344457565E+03  0.40000000000E+03 0.  1.
<mgrwt>
<rscale>  2 0.40747462E+03</rscale>
<asrwt>0</asrwt>
<pdfrwt beam="1">  1       21 0.10617849E+00 0.40747462E+03</pdfrwt>
<pdfrwt beam="2">  1       21 0.37014333E-01 0.40747462E+03</pdfrwt>
<totfact> 0.44499235E+03</totfact>
</mgrwt>
</event>
<event>
 4    1  0.4949719E-002  0.4585969E+03  0.7818608E-02  0.1025189E+00
         21   -1    0    0  503  502  0.00000000000E+00  0.00000000000E+00  0.29938883022E+04  0.29938883022E+04  0.00000000000E+00 0.  1.
         21   -1    0    0  501  503 -0.00000000000E+00 -0.00000000000E+00 -0.14825474911E+03  0.14825474911E+03  0.00000000000E+00 0.  1.
    9000005    1    1    2  501    0  0.22402365737E+03  0.11159060409E+02  0.28319422933E+03  0.53898988415E+03  0.40000000000E+03 0.  1.
   -9000005    1    1    2    0  502 -0.22402365737E+03 -0.11159060409E+02  0.25624393237E+04  0.26031531671E+04  0.40000000000E+03 0.  1.
<mgrwt>
<rscale>  2 0.45859691E+03</rscale>
<asrwt>0</asrwt>
<pdfrwt beam="1">  1       21 0.46059816E+00 0.45859691E+03</pdfrwt>
<pdfrwt beam="2">  1       21 0.22808425E-01 0.45859691E+03</pdfrwt>
<totfact> 0.46782869E+01</totfact>
</mgrwt>
</event>
<event>
 4    1  0.4949719E-002  0.4204076E+03  0.7818608E-02  0.1036934E+00
         21   -1    0    0  501  502  0.00000000000E+00  0.00000000000E+00  0.11539827166E+04  0.11539827166E+04  0.00000000000E+00 0.  1.
         21   -1    0    0  502  503 -0.00000000000E+00 -0.00000000000E+00 -0.18949555023E+03  0.18949555023E+03  0.00000000000E+00 0.  1.
    9000005    1    1    2  501    0 -0.90723911466E+02  0.92258875626E+02  0.77639747382E+03  0.88291311328E+03  0.40000000000E+03 0.  1.
   -9000005    1    1    2    0  503  0.90723911466E+02 -0.92258875626E+02  0.18808969260E+03  0.46056515359E+03  0.40000000000E+03 0.  1.
<mgrwt>
<rscale>  2 0.42040757E+03</rscale>
<asrwt>0</asrwt>
<pdfrwt beam="1">  1       21 0.17753580E+00 0.42040757E+03</pdfrwt>
<pdfrwt beam="2">  1       21 0.29153162E-01 0.42040757E+03</pdfrwt>
<totfact> 0.18327759E+03</totfact>
</mgrwt>
</event>
<event>
 4    1  0.4949719E-002  0.5005351E+03  0.7818608E-02  0.1013639E+00
         21   -1    0    0  501  502  0.00000000000E+00  0.00000000000E+00  0.16201169394E+04  0.16201169394E+04  0.00000000000E+00 0.  1.
         21   -1    0    0  502  503 -0.00000000000E+00 -0.00000000000E+00 -0.16400200484E+03  0.16400200484E+03  0.00000000000E+00 0.  1.
    9000005    1    1    2  501    0 -0.10351781347E+03  0.28252331407E+03  0.51492636591E+03  0.71811177612E+03  0.40000000000E+03 0.  1.
   -9000005    1    1    2    0  503  0.10351781347E+03 -0.28252331407E+03  0.94118856861E+03  0.10660071681E+04  0.40000000000E+03 0.  1.
<mgrwt>
<rscale>  2 0.50053507E+03</rscale>
<asrwt>0</asrwt>
<pdfrwt beam="1">  1       21 0.24924875E+00 0.50053507E+03</pdfrwt>
<pdfrwt beam="2">  1       21 0.25231079E-01 0.50053507E+03</pdfrwt>
<totfact> 0.79858867E+02</totfact>
</mgrwt>
</event>
<event>
 4    1  0.4949719E-002  0.4720583E+03  0.7818608E-02  0.1021341E+00
         21   -1    0    0  501  502  0.00000000000E+00  0.00000000000E+00  0.32896798930E+03  0.32896798930E+03  0.00000000000E+00 0.  1.
         21   -1    0    0  502  503 -0.00000000000E+00 -0.00000000000E+00 -0.81223967924E+03  0.81223967924E+03  0.00000000000E+00 0.  1.
    9000005    1    1    2  501    0 -0.23904238306E+03 -0.75483414018E+02 -0.91371194732E+01  0.47214668657E+03  0.40000000000E+03 0.  1.
   -9000005    1    1    2    0  503  0.23904238306E+03  0.75483414018E+02 -0.47413457047E+03  0.66906098197E+03  0.40000000000E+03 0.  1.
<mgrwt>
<rscale>  2 0.47205827E+03</rscale>
<asrwt>0</asrwt>
<pdfrwt beam="1">  1       21 0.50610460E-01 0.47205827E+03</pdfrwt>
<pdfrwt beam="2">  1       21 0.12495995E+00 0.47205827E+03</pdfrwt>
<totfact> 0.15039625E+03</totfact>
</mgrwt>
</event>
<event>
 4    1  0.4949719E-002  0.4040394E+03  0.7818608E-02  0.1042390E+00
         21   -1    0    0  501  502  0.00000000000E+00  0.00000000000E+00  0.53426195072E+03  0.53426195072E+03  0.00000000000E+00 0. -1.
         21   -1    0    0  502  503 -0.00000000000E+00 -0.00000000000E+00 -0.48659458861E+03  0.48659458861E+03  0.00000000000E+00 0. -1.
    9000005    1    1    2  501    0  0.12480859078E+01  0.56976401864E+02  0.33517344108E+03  0.52496581192E+03  0.40000000000E+03 0. -1.
   -9000005    1    1    2    0  503 -0.12480859078E+01 -0.56976401864E+02 -0.28750607896E+03  0.49589072740E+03  0.40000000000E+03 0. -1.
<mgrwt>
<rscale>  2 0.40403944E+03</rscale>
<asrwt>0</asrwt>
<pdfrwt beam="1">  1       21 0.82194147E-01 0.40403944E+03</pdfrwt>
<pdfrwt beam="2">  1       21 0.74860705E-01 0.40403944E+03</pdfrwt>
<totfact> 0.18118725E+03</totfact>
</mgrwt>
</event>
<event>
 4    1  0.4949719E-002  0.5090449E+03  0.7818608E-02  0.1011445E+00
         21   -1    0    0  501  502  0.00000000000E+00  0.00000000000E+00  0.67543033503E+03  0.67543033503E+03  0.00000000000E+00 0.  1.
         21   -1    0    0  502  503 -0.00000000000E+00 -0.00000000000E+00 -0.38800193369E+03  0.38800193369E+03  0.00000000000E+00 0. -1.
    9000005    1    1    2  501    0  0.17301431542E+03  0.26304509517E+03  0.20004740663E+03  0.54694208133E+03  0.40000000000E+03 0.  1.
   -9000005    1    1    2    0  503 -0.17301431542E+03 -0.26304509517E+03  0.87380994707E+02  0.51649018739E+03  0.40000000000E+03 0.  1.
<mgrwt>
<rscale>  2 0.50904487E+03</rscale>
<asrwt>0</asrwt>
<pdfrwt beam="1">  1       21 0.10391236E+00 0.50904487E+03</pdfrwt>
<pdfrwt beam="2">  1       21 0.59692605E-01 0.50904487E+03</pdfrwt>
<totfact> 0.16504446E+03</totfact>
</mgrwt>
</event>
<event>
 4    1  0.4949719E-002  0.4178333E+03  0.7818608E-02  0.1037774E+00
         21   -1    0    0  503  502  0.00000000000E+00  0.00000000000E+00  0.18569990277E+03  0.18569990277E+03  0.00000000000E+00 0.  1.
         21   -1    0    0  501  503 -0.00000000000E+00 -0.00000000000E+00 -0.11080418146E+04  0.11080418146E+04  0.00000000000E+00 0.  1.
    9000005    1    1    2  501    0  0.61759844261E+02 -0.10378062349E+03 -0.71297442417E+03  0.82638805999E+03  0.40000000000E+03 0.  1.
   -9000005    1    1    2    0  502 -0.61759844261E+02  0.10378062349E+03 -0.20936748766E+03  0.46735365738E+03  0.40000000000E+03 0.  1.
<mgrwt>
<rscale>  2 0.41783334E+03</rscale>
<asrwt>0</asrwt>
<pdfrwt beam="1">  1       21 0.28569215E-01 0.41783334E+03</pdfrwt>
<pdfrwt beam="2">  1       21 0.17046797E+00 0.41783334E+03</pdfrwt>
<totfact> 0.21458515E+03</totfact>
</mgrwt>
</event>
<event>
 4    1  0.4949719E-002  0.4435628E+03  0.7818608E-02  0.1029659E+00
         21   -1    0    0  503  502  0.00000000000E+00  0.00000000000E+00  0.35410069798E+03  0.35410069798E+03  0.00000000000E+00 0.  1.
         21   -1    0    0  501  503 -0.00000000000E+00 -0.00000000000E+00 -0.15283717125E+04  0.15283717125E+04  0.00000000000E+00 0.  1.
    9000005    1    1    2  501    0  0.13862555113E+02 -0.19119575703E+03 -0.13380379516E+04  0.14096430569E+04  0.40000000000E+03 0.  1.
   -9000005    1    1    2    0  502 -0.13862555113E+02  0.19119575703E+03  0.16376693707E+03  0.47282935359E+03  0.40000000000E+03 0.  1.
<mgrwt>
<rscale>  2 0.44356283E+03</rscale>
<asrwt>0</asrwt>
<pdfrwt beam="1">  1       21 0.54477031E-01 0.44356283E+03</pdfrwt>
<pdfrwt beam="2">  1       21 0.23513411E+00 0.44356283E+03</pdfrwt>
<totfact> 0.20834498E+02</totfact>
</mgrwt>
</event>
<event>
 4    1  0.4949719E-002  0.4722122E+03  0.7818608E-02  0.1021298E+00
         21   -1    0    0  503  502  0.00000000000E+00  0.00000000000E+00  0.33988057328E+03  0.33988057328E+03  0.00000000000E+00 0.  1.
         21   -1    0    0  501  503 -0.00000000000E+00 -0.00000000000E+00 -0.74646089291E+03  0.74646089291E+03  0.00000000000E+00 0.  1.
    9000005    1    1    2  501    0  0.18361685156E+03 -0.17108257130E+03 -0.39230792090E+03  0.61391359260E+03  0.40000000000E+03 0.  1.
   -9000005    1    1    2    0  502 -0.18361685156E+03  0.17108257130E+03 -0.14272398730E+02  0.47242787359E+03  0.40000000000E+03 0.  1.
<mgrwt>
<rscale>  2 0.47221223E+03</rscale>
<asrwt>0</asrwt>
<pdfrwt beam="1">  1       21 0.52289319E-01 0.47221223E+03</pdfrwt>
<pdfrwt beam="2">  1       21 0.11484014E+00 0.47221223E+03</pdfrwt>
<totfact> 0.17383206E+03</totfact>
</mgrwt>
</event>
<event>
 4    1  0.4949719E-002  0.4008862E+03  0.7818608E-02  0.1043473E+00
         21   -1    0    0  501  502  0.00000000000E+00  0.00000000000E+00  0.14833864031E+03  0.14833864031E+03  0.00000000000E+00 0. -1.
         21   -1    0    0  502  503 -0.00000000000E+00 -0.00000000000E+00 -0.11271112043E+04  0.11271112043E+04  0.00000000000E+00 0. -1.
    9000005    1    1    2  501    0 -0.55338796212E+01  0.26059546211E+02 -0.36379531074E+03  0.54134716392E+03  0.40000000000E+03 0. -1.
   -9000005    1    1    2    0  503  0.55338796212E+01 -0.26059546211E+02 -0.61497725328E+03  0.73410268071E+03  0.40000000000E+03 0. -1.
<mgrwt>
<rscale>  2 0.40088617E+03</rscale>
<asrwt>0</asrwt>
<pdfrwt beam="1">  1       21 0.22821329E-01 0.40088617E+03</pdfrwt>
<pdfrwt beam="2">  1       21 0.17340173E+00 0.40088617E+03</pdfrwt>
<totfact> 0.31890802E+03</totfact>
</mgrwt>
</event>
<event>
 4    1  0.4949719E-002  0.5325279E+03  0.7818608E-02  0.1005621E+00
         21   -1    0    0  501  502  0.00000000000E+00  0.00000000000E+00  0.34756432259E+04  0.34756432259E+04  0.00000000000E+00 0. -1.
         21   -1    0    0  502  503 -0.00000000000E+00 -0.00000000000E+00 -0.13939170791E+03  0.13939170791E+03  0.00000000000E+00 0.  1.
    9000005    1    1    2  501    0  0.16148369597E+03 -0.31226428963E+03  0.28320520069E+04  0.28816843235E+04  0.40000000000E+03 0. -1.
   -9000005    1    1    2    0  503 -0.16148369597E+03  0.31226428963E+03  0.50419951114E+03  0.73335061034E+03  0.40000000000E+03 0.  1.
<mgrwt>
<rscale>  2 0.53252791E+03</rscale>
<asrwt>0</asrwt>
<pdfrwt beam="1">  1       21 0.53471428E+00 0.53252791E+03</pdfrwt>
<pdfrwt beam="2">  1       21 0.21444881E-01 0.53252791E+03</pdfrwt>
<totfact> 0.14841122E+01</totfact>
</mgrwt>
</event>
<event>
 4    1  0.4949719E-002  0.4072526E+03  0.7818608E-02  0.1041297E+00
         21   -1    0    0  501  502  0.00000000000E+00  0.00000000000E+00  0.31838270147E+03  0.31838270147E+03  0.00000000000E+00 0. -1.
         21   -1    0    0  502  503 -0.00000000000E+00 -0.00000000000E+00 -0.88467794521E+03  0.88467794521E+03  0.00000000000E+00 0. -1.
    9000005    1    1    2  501    0 -0.40590567053E+02 -0.64862250165E+02  0.10256685550E+03  0.41996983877E+03  0.40000000000E+03 0. -1.
   -9000005    1    1    2    0  503  0.40590567053E+02  0.64862250165E+02 -0.66886209924E+03  0.78309080791E+03  0.40000000000E+03 0. -1.
<mgrwt>
<rscale>  2 0.40725263E+03</rscale>
<asrwt>0</asrwt>
<pdfrwt beam="1">  1       21 0.48981954E-01 0.40725263E+03</pdfrwt>
<pdfrwt beam="2">  1       21 0.13610430E+00 0.40725263E+03</pdfrwt>
<totfact> 0.13268302E+03</totfact>
</mgrwt>
</event>
<event>
 4    1  0.4949719E-002  0.4406286E+03  0.7818608E-02  0.1030554E+00
         21   -1    0    0  503  502  0.00000000000E+00  0.00000000000E+00  0.98136315800E+03  0.98136315800E+03  0.00000000000E+00 0. -1.
         21   -1    0    0  501  503 -0.00000000000E+00 -0.00000000000E+00 -0.19905793445E+03  0.19905793445E+03  0.00000000000E+00 0. -1.
    9000005    1    1    2  501    0  0.16676024295E+03  0.79652640449E+02  0.34499813242E+03  0.55962240228E+03  0.40000000000E+03 0.  1.
   -9000005    1    1    2    0  502 -0.16676024295E+03 -0.79652640449E+02  0.43730709113E+03  0.62079869017E+03  0.40000000000E+03 0.  1.
<mgrwt>
<rscale>  2 0.44062855E+03</rscale>
<asrwt>0</asrwt>
<pdfrwt beam="1">  1       21 0.15097894E+00 0.44062855E+03</pdfrwt>
<pdfrwt beam="2">  1       21 0.30624298E-01 0.44062855E+03</pdfrwt>
<totfact> 0.25966976E+03</totfact>
</mgrwt>
</event>
<event>
 4    1  0.4949719E-002  0.4778581E+03  0.7818608E-02  0.1019725E+00
         21   -1    0    0  503  502  0.00000000000E+00  0.00000000000E+00  0.10921771377E+04  0.10921771377E+04  0.00000000000E+00 0. -1.
         21   -1    0    0  501  503 -0.00000000000E+00 -0.00000000000E+00 -0.22766859119E+03  0.22766859119E+03  0.00000000000E+00 0. -1.
    9000005    1    1    2  501    0 -0.20050302141E+03 -0.16777038959E+03  0.24366891920E+03  0.53639808669E+03  0.40000000000E+03 0. -1.
   -9000005    1    1    2    0  502  0.20050302141E+03  0.16777038959E+03  0.62083962733E+03  0.78344764221E+03  0.40000000000E+03 0. -1.
<mgrwt>
<rscale>  2 0.47785810E+03</rscale>
<asrwt>0</asrwt>
<pdfrwt beam="1">  1       21 0.16802725E+00 0.47785810E+03</pdfrwt>
<pdfrwt beam="2">  1       21 0.35025938E-01 0.47785810E+03</pdfrwt>
<totfact> 0.14509469E+03</totfact>
</mgrwt>
</event>
<event>
 4    1  0.4949719E-002  0.4227609E+03  0.7818608E-02  0.1036171E+00
         21   -1    0    0  503  502  0.00000000000E+00  0.00000000000E+00  0.18284437037E+03  0.18284437037E+03  0.00000000000E+00 0. -1.
         21   -1    0    0  501  503 -0.00000000000E+00 -0.00000000000E+00 -0.11734136497E+04  0.11734136497E+04  0.00000000000E+00 0. -1.
    9000005    1    1    2  501    0 -0.73092628153E+02 -0.11569018265E+03 -0.77238752937E+03  0.88051646559E+03  0.40000000000E+03 0. -1.
   -9000005    1    1    2    0  502  0.73092628153E+02  0.11569018265E+03 -0.21818174999E+03  0.47574155450E+03  0.40000000000E+03 0. -1.
<mgrwt>
<rscale>  2 0.42276087E+03</rscale>
<asrwt>0</asrwt>
<pdfrwt beam="1">  1       21 0.28129903E-01 0.42276087E+03</pdfrwt>
<pdfrwt beam="2">  1       21 0.18052518E+00 0.42276087E+03</pdfrwt>
<totfact> 0.18715036E+03</totfact>
</mgrwt>
</event>
<event>
 4    1  0.4949719E-002  0.6119212E+03  0.7818608E-02  0.9880977E-01
         21   -1    0    0  503  502  0.00000000000E+00  0.00000000000E+00  0.28256192319E+03  0.28256192319E+03  0.00000000000E+00 0. -1.
         21   -1    0    0  501  503 -0.00000000000E+00 -0.00000000000E+00 -0.13861100327E+04  0.13861100327E+04  0.00000000000E+00 0. -1.
    9000005    1    1    2  501    0  0.31591991754E+03 -0.33858850050E+03 -0.37685762327E+03  0.71865794032E+03  0.40000000000E+03 0. -1.
   -9000005    1    1    2    0  502 -0.31591991754E+03  0.33858850050E+03 -0.72669048621E+03  0.95001401554E+03  0.40000000000E+03 0. -1.
<mgrwt>
<rscale>  2 0.61192121E+03</rscale>
<asrwt>0</asrwt>
<pdfrwt beam="1">  1       21 0.43471065E-01 0.61192121E+03</pdfrwt>
<pdfrwt beam="2">  1       21 0.21324770E+00 0.61192121E+03</pdfrwt>
<totfact> 0.43044800E+02</totfact>
</mgrwt>
</event>
<event>
 4    1  0.4949719E-002  0.7069861E+03  0.7818608E-02  0.9705359E-01
         21   -1    0    0  503  502  0.00000000000E+00  0.00000000000E+00  0.34591504068E+03  0.34591504068E+03  0.00000000000E+00 0. -1.
         21   -1    0    0  501  503 -0.00000000000E+00 -0.00000000000E+00 -0.15062810467E+04  0.15062810467E+04  0.00000000000E+00 0.  1.
    9000005    1    1    2  501    0 -0.30925983746E+03  0.49415345507E+03 -0.39330815973E+03  0.80902446980E+03  0.40000000000E+03 0.  1.
   -9000005    1    1    2    0  502  0.30925983746E+03 -0.49415345507E+03 -0.76705784633E+03  0.10431716176E+04  0.40000000000E+03 0.  1.
<mgrwt>
<rscale>  2 0.70698606E+03</rscale>
<asrwt>0</asrwt>
<pdfrwt beam="1">  1       21 0.53217699E-01 0.70698606E+03</pdfrwt>
<pdfrwt beam="2">  1       21 0.23173554E+00 0.70698606E+03</pdfrwt>
<totfact> 0.20529673E+02</totfact>
</mgrwt>
</event>
<event>
 4    1  0.4949719E-002  0.4937737E+03  0.7818608E-02  0.1015417E+00
         21   -1    0    0  501  502  0.00000000000E+00  0.00000000000E+00  0.72402229228E+03  0.72402229228E+03  0.00000000000E+00 0. -1.
         21   -1    0    0  502  503 -0.00000000000E+00 -0.00000000000E+00 -0.35239954702E+03  0.35239954702E+03  0.00000000000E+00 0. -1.
    9000005    1    1    2  501    0 -0.26123959667E+03 -0.12476506947E+03  0.29924064531E+03  0.57737112262E+03  0.40000000000E+03 0. -1.
   -9000005    1    1    2    0  503  0.26123959667E+03  0.12476506947E+03  0.72382099951E+02  0.49905071668E+03  0.40000000000E+03 0. -1.
<mgrwt>
<rscale>  2 0.49377368E+03</rscale>
<asrwt>0</asrwt>
<pdfrwt beam="1">  1       21 0.11138804E+00 0.49377368E+03</pdfrwt>
<pdfrwt beam="2">  1       21 0.54215315E-01 0.49377368E+03</pdfrwt>
<totfact> 0.17220584E+03</totfact>
</mgrwt>
</event>
<event>
 4    1  0.4949719E-002  0.5190243E+03  0.7818608E-02  0.1008929E+00
         21   -1    0    0  503  502  0.00000000000E+00  0.00000000000E+00  0.18514711475E+03  0.18514711475E+03  0.00000000000E+00 0. -1.
         21   -1    0    0  501  503 -0.00000000000E+00 -0.00000000000E+00 -0.15691557040E+04  0.15691557040E+04  0.00000000000E+00 0.  1.
    9000005    1    1    2  501    0  0.16733991847E+03 -0.28527808406E+03 -0.92860678334E+03  0.10638123855E+04  0.40000000000E+03 0.  1.
   -9000005    1    1    2    0  502 -0.16733991847E+03  0.28527808406E+03 -0.45540180594E+03  0.69049043326E+03  0.40000000000E+03 0. -1.
<mgrwt>
<rscale>  2 0.51902431E+03</rscale>
<asrwt>0</asrwt>
<pdfrwt beam="1">  1       21 0.28484171E-01 0.51902431E+03</pdfrwt>
<pdfrwt beam="2">  1       21 0.24140858E+00 0.51902431E+03</pdfrwt>
<totfact> 0.69810869E+02</totfact>
</mgrwt>
</event>
<event>
 4    1  0.4949719E-002  0.4582391E+03  0.7818608E-02  0.1025293E+00
         21   -1    0    0  501  502  0.00000000000E+00  0.00000000000E+00  0.12789297038E+03  0.12789297038E+03  0.00000000000E+00 0. -1.
         21   -1    0    0  502  503 -0.00000000000E+00 -0.00000000000E+00 -0.16619736225E+04  0.16619736225E+04  0.00000000000E+00 0.  1.
    9000005    1    1    2  501    0 -0.20075034202E+03  0.98398872938E+02 -0.66860162771E+03  0.81056225830E+03  0.40000000000E+03 0. -1.
   -9000005    1    1    2    0  503  0.20075034202E+03 -0.98398872938E+02 -0.86547902439E+03  0.97930433455E+03  0.40000000000E+03 0. -1.
<mgrwt>
<rscale>  2 0.45823906E+03</rscale>
<asrwt>0</asrwt>
<pdfrwt beam="1">  1       21 0.19675843E-01 0.45823906E+03</pdfrwt>
<pdfrwt beam="2">  1       21 0.25568824E+00 0.45823906E+03</pdfrwt>
<totfact> 0.12006829E+03</totfact>
</mgrwt>
</event>
<event>
 4    1  0.4949719E-002  0.6288380E+03  0.7818608E-02  0.9847319E-01
         21   -1    0    0  503  502  0.00000000000E+00  0.00000000000E+00  0.46057225030E+03  0.46057225030E+03  0.00000000000E+00 0. -1.
         21   -1    0    0  501  503 -0.00000000000E+00 -0.00000000000E+00 -0.88536490756E+03  0.88536490756E+03  0.00000000000E+00 0.  1.
    9000005    1    1    2  501    0  0.78081227729E+02 -0.47889515239E+03 -0.95340199769E+02  0.63602436966E+03  0.40000000000E+03 0. -1.
   -9000005    1    1    2    0  502 -0.78081227729E+02  0.47889515239E+03 -0.32945245749E+03  0.70991278820E+03  0.40000000000E+03 0.  1.
<mgrwt>
<rscale>  2 0.62883801E+03</rscale>
<asrwt>0</asrwt>
<pdfrwt beam="1">  1       21 0.70857270E-01 0.62883801E+03</pdfrwt>
<pdfrwt beam="2">  1       21 0.13620998E+00 0.62883801E+03</pdfrwt>
<totfact> 0.54239323E+02</totfact>
</mgrwt>
</event>
<event>
 4    1  0.4949719E-002  0.5392827E+03  0.7818608E-02  0.1004005E+00
         21   -1    0    0  503  502  0.00000000000E+00  0.00000000000E+00  0.21425860699E+03  0.21425860699E+03  0.00000000000E+00 0.  1.
         21   -1    0    0  501  503 -0.00000000000E+00 -0.00000000000E+00 -0.14018531639E+04  0.14018531639E+04  0.00000000000E+00 0. -1.
    9000005    1    1    2  501    0  0.18737557979E+03 -0.30938041461E+03 -0.44983733990E+03  0.70226738584E+03  0.40000000000E+03 0.  1.
   -9000005    1    1    2    0  502 -0.18737557979E+03  0.30938041461E+03 -0.73775721698E+03  0.91384438503E+03  0.40000000000E+03 0. -1.
<mgrwt>
<rscale>  2 0.53928272E+03</rscale>
<asrwt>0</asrwt>
<pdfrwt beam="1">  1       21 0.32962861E-01 0.53928272E+03</pdfrwt>
<pdfrwt beam="2">  1       21 0.21566973E+00 0.53928272E+03</pdfrwt>
<totfact> 0.75362544E+02</totfact>
</mgrwt>
</event>
<event>
 4    1  0.4949719E-002  0.5498205E+03  0.7818608E-02  0.1001535E+00
         21   -1    0    0  501  502  0.00000000000E+00  0.00000000000E+00  0.30877598027E+03  0.30877598027E+03  0.00000000000E+00 0. -1.
         21   -1    0    0  502  503 -0.00000000000E+00 -0.00000000000E+00 -0.16899716236E+04  0.16899716236E+04  0.00000000000E+00 0. -1.
    9000005    1    1    2  501    0  0.29105443642E+03  0.23997892601E+03 -0.42405890253E+02  0.55145337918E+03  0.40000000000E+03 0. -1.
   -9000005    1    1    2    0  503 -0.29105443642E+03 -0.23997892601E+03 -0.13387897531E+04  0.14472942247E+04  0.40000000000E+03 0. -1.
<mgrwt>
<rscale>  2 0.54982049E+03</rscale>
<asrwt>0</asrwt>
<pdfrwt beam="1">  1       21 0.47503997E-01 0.54982049E+03</pdfrwt>
<pdfrwt beam="2">  1       21 0.25999564E+00 0.54982049E+03</pdfrwt>
<totfact> 0.18548393E+02</totfact>
</mgrwt>
</event>
<event>
 4    1  0.4949719E-002  0.4795937E+03  0.7818608E-02  0.1019247E+00
         21   -1    0    0  503  502  0.00000000000E+00  0.00000000000E+00  0.15536605154E+04  0.15536605154E+04  0.00000000000E+00 0.  1.
         21   -1    0    0  501  503 -0.00000000000E+00 -0.00000000000E+00 -0.15686989477E+03  0.15686989477E+03  0.00000000000E+00 0.  1.
    9000005    1    1    2  501    0 -0.26332827003E+03  0.25852970217E+02  0.49552906299E+03  0.68960800904E+03  0.40000000000E+03 0.  1.
   -9000005    1    1    2    0  502  0.26332827003E+03 -0.25852970217E+02  0.90126155765E+03  0.10209224011E+04  0.40000000000E+03 0.  1.
<mgrwt>
<rscale>  2 0.47959374E+03</rscale>
<asrwt>0</asrwt>
<pdfrwt beam="1">  1       21 0.23902468E+00 0.47959374E+03</pdfrwt>
<pdfrwt beam="2">  1       21 0.24133831E-01 0.47959374E+03</pdfrwt>
<totfact> 0.10173767E+03</totfact>
</mgrwt>
</event>
<event>
 4    1  0.4949719E-002  0.5577041E+03  0.7818608E-02  0.9997263E-01
         21   -1    0    0  503  502  0.00000000000E+00  0.00000000000E+00  0.70187414736E+03  0.70187414736E+03  0.00000000000E+00 0.  1.
         21   -1    0    0  501  503 -0.00000000000E+00 -0.00000000000E+00 -0.49818715497E+03  0.49818715497E+03  0.00000000000E+00 0.  1.
    9000005    1    1    2  501    0 -0.34524856710E+03  0.17843021249E+03 -0.97597409129E+02  0.56617944866E+03  0.40000000000E+03 0.  1.
   -9000005    1    1    2    0  502  0.34524856710E+03 -0.17843021249E+03  0.30128440152E+03  0.63388185367E+03  0.40000000000E+03 0.  1.
<mgrwt>
<rscale>  2 0.55770415E+03</rscale>
<asrwt>0</asrwt>
<pdfrwt beam="1">  1       21 0.10798064E+00 0.55770415E+03</pdfrwt>
<pdfrwt beam="2">  1       21 0.76644177E-01 0.55770415E+03</pdfrwt>
<totfact> 0.84180785E+02</totfact>
</mgrwt>
</event>
<event>
 4    1  0.4949719E-002  0.4393168E+03  0.7818608E-02  0.1030957E+00
         21   -1    0    0  503  502  0.00000000000E+00  0.00000000000E+00  0.87797868922E+03  0.87797868922E+03  0.00000000000E+00 0.  1.
         21   -1    0    0  501  503 -0.00000000000E+00 -0.00000000000E+00 -0.41426154748E+03  0.41426154748E+03  0.00000000000E+00 0.  1.
    9000005    1    1    2  501    0 -0.17715675002E+03 -0.40183531621E+02 -0.21079910579E+03  0.48727353026E+03  0.40000000000E+03 0.  1.
   -9000005    1    1    2    0  502  0.17715675002E+03  0.40183531621E+02  0.67451624754E+03  0.80496670644E+03  0.40000000000E+03 0.  1.
<mgrwt>
<rscale>  2 0.43931678E+03</rscale>
<asrwt>0</asrwt>
<pdfrwt beam="1">  1       21 0.13507364E+00 0.43931678E+03</pdfrwt>
<pdfrwt beam="2">  1       21 0.63732546E-01 0.43931678E+03</pdfrwt>
<totfact> 0.75496186E+02</totfact>
</mgrwt>
</event>
<event>
 4    1  0.4949719E-002  0.4443182E+03  0.7818608E-02  0.1029430E+00
         21   -1    0    0  501  502  0.00000000000E+00  0.00000000000E+00  0.49591094043E+03  0.49591094043E+03  0.00000000000E+00 0.  1.
         21   -1    0    0  502  503 -0.00000000000E+00 -0.00000000000E+00 -0.66312745893E+03  0.66312745893E+03  0.00000000000E+00 0. -1.
    9000005    1    1    2  501    0 -0.25574766286E+02  0.19174106928E+03  0.28276219357E+03  0.52666228689E+03  0.40000000000E+03 0.  1.
   -9000005    1    1    2    0  503  0.25574766286E+02 -0.19174106928E+03 -0.44997871207E+03  0.63237611248E+03  0.40000000000E+03 0. -1.
<mgrwt>
<rscale>  2 0.44431825E+03</rscale>
<asrwt>0</asrwt>
<pdfrwt beam="1">  1       21 0.76293991E-01 0.44431825E+03</pdfrwt>
<pdfrwt beam="2">  1       21 0.10201961E+00 0.44431825E+03</pdfrwt>
<totfact> 0.10210193E+03</totfact>
</mgrwt>
</event>
<event>
 4    1  0.4949719E-002  0.4192338E+03  0.7818608E-02  0.1037316E+00
         21   -1    0    0  501  502  0.00000000000E+00  0.00000000000E+00  0.92030271579E+03  0.92030271579E+03  0.00000000000E+00 0. -1.
         21   -1    0    0  502  503 -0.00000000000E+00 -0.00000000000E+00 -0.40502861582E+03  0.40502861582E+03  0.00000000000E+00 0. -1.
    9000005    1    1    2  501    0  0.43433234866E+02  0.11777308345E+03  0.73937465307E+03  0.84995989475E+03  0.40000000000E+03 0. -1.
   -9000005    1    1    2    0  503 -0.43433234866E+02 -0.11777308345E+03 -0.22410055311E+03  0.47537143686E+03  0.40000000000E+03 0. -1.
<mgrwt>
<rscale>  2 0.41923376E+03</rscale>
<asrwt>0</asrwt>
<pdfrwt beam="1">  1       21 0.14158503E+00 0.41923376E+03</pdfrwt>
<pdfrwt beam="2">  1       21 0.62312095E-01 0.41923376E+03</pdfrwt>
<totfact> 0.70709675E+02</totfact>
</mgrwt>
</event>
<event>
 4    1  0.4949719E-002  0.5108250E+03  0.7818608E-02  0.1010991E+00
         21   -1    0    0  503  502  0.00000000000E+00  0.00000000000E+00  0.18893656424E+04  0.18893656424E+04  0.00000000000E+00 0. -1.
         21   -1    0    0  501  503 -0.00000000000E+00 -0.00000000000E+00 -0.25228205101E+03  0.25228205101E+03  0.00000000000E+00 0. -1.
    9000005    1    1    2  501    0  0.28182187055E+03 -0.14669212371E+03  0.98176321548E+02  0.52017375558E+03  0.40000000000E+03 0. -1.
   -9000005    1    1    2    0  502 -0.28182187055E+03  0.14669212371E+03  0.15389072699E+04  0.16214739379E+04  0.40000000000E+03 0. -1.
<mgrwt>
<rscale>  2 0.51082497E+03</rscale>
<asrwt>0</asrwt>
<pdfrwt beam="1">  1       21 0.29067163E+00 0.51082497E+03</pdfrwt>
<pdfrwt beam="2">  1       21 0.38812624E-01 0.51082497E+03</pdfrwt>
<totfact> 0.18757399E+02</totfact>
</mgrwt>
</event>
<event>
 4    1  0.4949719E-002  0.4583608E+03  0.7818608E-02  0.1025258E+00
         21   -1    0    0  501  502  0.00000000000E+00  0.00000000000E+00  0.36678929200E+03  0.36678929200E+03  0.00000000000E+00 0.  1.
         21   -1    0    0  502  503 -0.00000000000E+00 -0.00000000000E+00 -0.65954265486E+03  0.65954265486E+03  0.00000000000E+00 0.  1.
    9000005    1    1    2  501    0 -0.15148180000E+03  0.16476611999E+03  0.39732772781E+02  0.46007967056E+03  0.40000000000E+03 0.  1.
   -9000005    1    1    2    0  503  0.15148180000E+03 -0.16476611999E+03 -0.33248613564E+03  0.56625227630E+03  0.40000000000E+03 0.  1.
<mgrwt>
<rscale>  2 0.45836079E+03</rscale>
<asrwt>0</asrwt>
<pdfrwt beam="1">  1       21 0.56429122E-01 0.45836079E+03</pdfrwt>
<pdfrwt beam="2">  1       21 0.10146810E+00 0.45836079E+03</pdfrwt>
<totfact> 0.20141921E+03</totfact>
</mgrwt>
</event>
<event>
 4    1  0.4949719E-002  0.4746633E+03  0.7818608E-02  0.1020612E+00
         21   -1    0    0  501  502  0.00000000000E+00  0.00000000000E+00  0.24449390835E+03  0.24449390835E+03  0.00000000000E+00 0. -1.
         21   -1    0    0  502  503 -0.00000000000E+00 -0.00000000000E+00 -0.92762706844E+03  0.92762706844E+03  0.00000000000E+00 0. -1.
    9000005    1    1    2  501    0  0.49174338109E+02 -0.25077303246E+03 -0.29400152341E+03  0.55833871898E+03  0.40000000000E+03 0. -1.
   -9000005    1    1    2    0  503 -0.49174338109E+02  0.25077303246E+03 -0.38913163668E+03  0.61378225781E+03  0.40000000000E+03 0. -1.
<mgrwt>
<rscale>  2 0.47466328E+03</rscale>
<asrwt>0</asrwt>
<pdfrwt beam="1">  1       21 0.37614447E-01 0.47466328E+03</pdfrwt>
<pdfrwt beam="2">  1       21 0.14271186E+00 0.47466328E+03</pdfrwt>
<totfact> 0.19709457E+03</totfact>
</mgrwt>
</event>
<event>
 4    1  0.4949719E-002  0.4953822E+03  0.7818608E-02  0.1014991E+00
         21   -1    0    0  503  502  0.00000000000E+00  0.00000000000E+00  0.25889333717E+03  0.25889333717E+03  0.00000000000E+00 0. -1.
         21   -1    0    0  501  503 -0.00000000000E+00 -0.00000000000E+00 -0.10675374560E+04  0.10675374560E+04  0.00000000000E+00 0.  1.
    9000005    1    1    2  501    0 -0.28823043588E+03 -0.48236091213E+02 -0.62634971183E+03  0.79857214212E+03  0.40000000000E+03 0.  1.
   -9000005    1    1    2    0  502  0.28823043588E+03  0.48236091213E+02 -0.18229440700E+03  0.52785865105E+03  0.40000000000E+03 0.  1.
<mgrwt>
<rscale>  2 0.49538218E+03</rscale>
<asrwt>0</asrwt>
<pdfrwt beam="1">  1       21 0.39829745E-01 0.49538218E+03</pdfrwt>
<pdfrwt beam="2">  1       21 0.16423653E+00 0.49538218E+03</pdfrwt>
<totfact> 0.11819699E+03</totfact>
</mgrwt>
</event>
<event>
 4    1  0.4949719E-002  0.4514949E+03  0.7818608E-02  0.1027277E+00
         21   -1    0    0  503  502  0.00000000000E+00  0.00000000000E+00  0.26936705929E+03  0.26936705929E+03  0.00000000000E+00 0.  1.
         21   -1    0    0  501  503 -0.00000000000E+00 -0.00000000000E+00 -0.76159741165E+03  0.76159741165E+03  0.00000000000E+00 0. -1.
    9000005    1    1    2  501    0 -0.30657387896E+01 -0.20937593633E+03 -0.28717462429E+03  0.53508592423E+03  0.40000000000E+03 0. -1.
   -9000005    1    1    2    0  502  0.30657387896E+01  0.20937593633E+03 -0.20505572807E+03  0.49587854670E+03  0.40000000000E+03 0. -1.
<mgrwt>
<rscale>  2 0.45149494E+03</rscale>
<asrwt>0</asrwt>
<pdfrwt beam="1">  1       21 0.41441087E-01 0.45149494E+03</pdfrwt>
<pdfrwt beam="2">  1       21 0.11716883E+00 0.45149494E+03</pdfrwt>
<totfact> 0.27184745E+03</totfact>
</mgrwt>
</event>
<event>
 4    1  0.4949719E-002  0.4215119E+03  0.7818608E-02  0.1036575E+00
         21   -1    0    0  501  502  0.00000000000E+00  0.00000000000E+00  0.63524334161E+03  0.63524334161E+03  0.00000000000E+00 0.  1.
         21   -1    0    0  502  503 -0.00000000000E+00 -0.00000000000E+00 -0.29013059213E+03  0.29013059213E+03  0.00000000000E+00 0.  1.
    9000005    1    1    2  501    0 -0.63771704274E+02 -0.11664229694E+03  0.84791884142E+02  0.42995571786E+03  0.40000000000E+03 0.  1.
   -9000005    1    1    2    0  503  0.63771704274E+02  0.11664229694E+03  0.26032086534E+03  0.49541821589E+03  0.40000000000E+03 0.  1.
<mgrwt>
<rscale>  2 0.42151187E+03</rscale>
<asrwt>0</asrwt>
<pdfrwt beam="1">  1       21 0.97729745E-01 0.42151187E+03</pdfrwt>
<pdfrwt beam="2">  1       21 0.44635476E-01 0.42151187E+03</pdfrwt>
<totfact> 0.36833447E+03</totfact>
</mgrwt>
</event>
<event>
 4    1  0.4949719E-002  0.4106240E+03  0.7818608E-02  0.1040162E+00
         21   -1    0    0  501  502  0.00000000000E+00  0.00000000000E+00  0.99931437216E+03  0.99931437216E+03  0.00000000000E+00 0.  1.
         21   -1    0    0  502  503 -0.00000000000E+00 -0.00000000000E+00 -0.19725285405E+03  0.19725285405E+03  0.00000000000E+00 0.  1.
    9000005    1    1    2  501    0  0.27679858672E+02  0.88576983482E+02  0.62854529386E+03  0.75078708235E+03  0.40000000000E+03 0.  1.
   -9000005    1    1    2    0  503 -0.27679858672E+02 -0.88576983482E+02  0.17351622425E+03  0.44578014386E+03  0.40000000000E+03 0.  1.
<mgrwt>
<rscale>  2 0.41062398E+03</rscale>
<asrwt>0</asrwt>
<pdfrwt beam="1">  1       21 0.15374067E+00 0.41062398E+03</pdfrwt>
<pdfrwt beam="2">  1       21 0.30346593E-01 0.41062398E+03</pdfrwt>
<totfact> 0.25477062E+03</totfact>
</mgrwt>
</event>
<event>
 4    1  0.4949719E-002  0.4758051E+03  0.7818608E-02  0.1020294E+00
         21   -1    0    0  503  502  0.00000000000E+00  0.00000000000E+00  0.56667735378E+03  0.56667735378E+03  0.00000000000E+00 0. -1.
         21   -1    0    0  501  503 -0.00000000000E+00 -0.00000000000E+00 -0.71216380742E+03  0.71216380742E+03  0.00000000000E+00 0.  1.
    9000005    1    1    2  501    0 -0.16302275603E+01  0.25765842472E+03 -0.49641730201E+03  0.68761955994E+03  0.40000000000E+03 0.  1.
   -9000005    1    1    2    0  502  0.16302275603E+01 -0.25765842472E+03  0.35093084836E+03  0.59122160127E+03  0.40000000000E+03 0. -1.
<mgrwt>
<rscale>  2 0.47580513E+03</rscale>
<asrwt>0</asrwt>
<pdfrwt beam="1">  1       21 0.87181131E-01 0.47580513E+03</pdfrwt>
<pdfrwt beam="2">  1       21 0.10956366E+00 0.47580513E+03</pdfrwt>
<totfact> 0.62010686E+02</totfact>
</mgrwt>
</event>
<event>
 4    1  0.4949719E-002  0.5921234E+03  0.7818608E-02  0.9921884E-01
         21   -1    0    0  503  502  0.00000000000E+00  0.00000000000E+00  0.10836173384E+04  0.10836173384E+04  0.00000000000E+00 0. -1.
         21   -1    0    0  501  503 -0.00000000000E+00 -0.00000000000E+00 -0.45850071816E+03  0.45850071816E+03  0.00000000000E+00 0. -1.
    9000005    1    1    2  501    0 -0.25745366438E+03 -0.35260133681E+03 -0.10575024728E+03  0.60149248277E+03  0.40000000000E+03 0. -1.
   -9000005    1    1    2    0  502  0.25745366438E+03  0.35260133681E+03  0.73086686753E+03  0.94062557379E+03  0.40000000000E+03 0. -1.
<mgrwt>
<rscale>  2 0.59212338E+03</rscale>
<asrwt>0</asrwt>
<pdfrwt beam="1">  1       21 0.16671036E+00 0.59212338E+03</pdfrwt>
<pdfrwt beam="2">  1       21 0.70538573E-01 0.59212338E+03</pdfrwt>
<totfact> 0.31798691E+02</totfact>
</mgrwt>
</event>
<event>
 4    1  0.4949719E-002  0.6110241E+03  0.7818608E-02  0.9882795E-01
         21   -1    0    0  503  502  0.00000000000E+00  0.00000000000E+00  0.53891941317E+03  0.53891941317E+03  0.00000000000E+00 0.  1.
         21   -1    0    0  501  503 -0.00000000000E+00 -0.00000000000E+00 -0.92670290350E+03  0.92670290350E+03  0.00000000000E+00 0.  1.
    9000005    1    1    2  501    0  0.22592383380E+03  0.40287568186E+03 -0.56207325094E+03  0.83022691665E+03  0.40000000000E+03 0.  1.
   -9000005    1    1    2    0  502 -0.22592383380E+03 -0.40287568186E+03  0.17428976061E+03  0.63539540002E+03  0.40000000000E+03 0.  1.
<mgrwt>
<rscale>  2 0.61102405E+03</rscale>
<asrwt>0</asrwt>
<pdfrwt beam="1">  1       21 0.82910679E-01 0.61102405E+03</pdfrwt>
<pdfrwt beam="2">  1       21 0.14256968E+00 0.61102405E+03</pdfrwt>
<totfact> 0.33585861E+02</totfact>
</mgrwt>
</event>
<event>
 4    1  0.4949719E-002  0.4015800E+03  0.7818608E-02  0.1043234E+00
         21   -1    0    0  501  502  0.00000000000E+00  0.00000000000E+00  0.46585653699E+03  0.46585653699E+03  0.00000000000E+00 0. -1.
         21   -1    0    0  502  503 -0.00000000000E+00 -0.00000000000E+00 -0.61360533080E+03  0.61360533080E+03  0.00000000000E+00 0. -1.
    9000005    1    1    2  501    0  0.24867809266E+02 -0.25457236872E+02  0.28244587602E+03  0.49096043805E+03  0.40000000000E+03 0. -1.
   -9000005    1    1    2    0  503 -0.24867809266E+02  0.25457236872E+02 -0.43019466984E+03  0.58850142974E+03  0.40000000000E+03 0. -1.
<mgrwt>
<rscale>  2 0.40157998E+03</rscale>
<asrwt>0</asrwt>
<pdfrwt beam="1">  1       21 0.71670237E-01 0.40157998E+03</pdfrwt>
<pdfrwt beam="2">  1       21 0.94400820E-01 0.40157998E+03</pdfrwt>
<totfact> 0.14456010E+03</totfact>
</mgrwt>
</event>
<event>
 4    1  0.4949719E-002  0.4797986E+03  0.7818608E-02  0.1019191E+00
         21   -1    0    0  503  502  0.00000000000E+00  0.00000000000E+00  0.16889355786E+04  0.16889355786E+04  0.00000000000E+00 0. -1.
         21   -1    0    0  501  503 -0.00000000000E+00 -0.00000000000E+00 -0.13810772228E+03  0.13810772228E+03  0.00000000000E+00 0. -1.
    9000005    1    1    2  501    0  0.18741820284E+03 -0.18729957438E+03  0.67098171285E+03  0.82487767111E+03  0.40000000000E+03 0. -1.
   -9000005    1    1    2    0  502 -0.18741820284E+03  0.18729957438E+03  0.87984614344E+03  0.10021656297E+04  0.40000000000E+03 0. -1.
<mgrwt>
<rscale>  2 0.47979862E+03</rscale>
<asrwt>0</asrwt>
<pdfrwt beam="1">  1       21 0.25983623E+00 0.47979862E+03</pdfrwt>
<pdfrwt beam="2">  1       21 0.21247343E-01 0.47979862E+03</pdfrwt>
<totfact> 0.96790265E+02</totfact>
</mgrwt>
</event>
<event>
 4    1  0.4949719E-002  0.4024892E+03  0.7818608E-02  0.1042921E+00
         21   -1    0    0  501  502  0.00000000000E+00  0.00000000000E+00  0.40363000864E+03  0.40363000864E+03  0.00000000000E+00 0.  1.
         21   -1    0    0  502  503 -0.00000000000E+00 -0.00000000000E+00 -0.10484013731E+04  0.10484013731E+04  0.00000000000E+00 0.  1.
    9000005    1    1    2  501    0 -0.11439241361E+02 -0.43205054834E+02  0.24797696354E+03  0.47274740344E+03  0.40000000000E+03 0.  1.
   -9000005    1    1    2    0  503  0.11439241361E+02  0.43205054834E+02 -0.89274832803E+03  0.97928397832E+03  0.40000000000E+03 0.  1.
<mgrwt>
<rscale>  2 0.40248917E+03</rscale>
<asrwt>0</asrwt>
<pdfrwt beam="1">  1       21 0.62096924E-01 0.40248917E+03</pdfrwt>
<pdfrwt beam="2">  1       21 0.16129252E+00 0.40248917E+03</pdfrwt>
<totfact> 0.50418611E+02</totfact>
</mgrwt>
</event>
<event>
 4    1  0.4949719E-002  0.4540253E+03  0.7818608E-02  0.1026528E+00
         21   -1    0    0  501  502  0.00000000000E+00  0.00000000000E+00  0.10630405493E+04  0.10630405493E+04  0.00000000000E+00 0.  1.
         21   -1    0    0  502  503 -0.00000000000E+00 -0.00000000000E+00 -0.20008620712E+03  0.20008620712E+03  0.00000000000E+00 0. -1.
    9000005    1    1    2  501    0  0.15810488849E+03  0.14540212090E+03  0.32055650317E+03  0.55578359480E+03  0.40000000000E+03 0. -1.
   -9000005    1    1    2    0  503 -0.15810488849E+03 -0.14540212090E+03  0.54239783906E+03  0.70734316166E+03  0.40000000000E+03 0.  1.
<mgrwt>
<rscale>  2 0.45402526E+03</rscale>
<asrwt>0</asrwt>
<pdfrwt beam="1">  1       21 0.16354470E+00 0.45402526E+03</pdfrwt>
<pdfrwt beam="2">  1       21 0.30782494E-01 0.45402526E+03</pdfrwt>
<totfact> 0.20496156E+03</totfact>
</mgrwt>
</event>
<event>
 4    1  0.4949719E-002  0.4582146E+03  0.7818608E-02  0.1025300E+00
         21   -1    0    0  501  502  0.00000000000E+00  0.00000000000E+00  0.42084960963E+03  0.42084960963E+03  0.00000000000E+00 0.  1.
         21   -1    0    0  502  503 -0.00000000000E+00 -0.00000000000E+00 -0.52715318880E+03  0.52715318880E+03  0.00000000000E+00 0.  1.
    9000005    1    1    2  501    0 -0.21520009137E+03  0.60411179630E+02  0.56589060634E+02  0.46169569170E+03  0.40000000000E+03 0.  1.
   -9000005    1    1    2    0  503  0.21520009137E+03 -0.60411179630E+02 -0.16289263981E+03  0.48630710673E+03  0.40000000000E+03 0.  1.
<mgrwt>
<rscale>  2 0.45821457E+03</rscale>
<asrwt>0</asrwt>
<pdfrwt beam="1">  1       21 0.64746094E-01 0.45821457E+03</pdfrwt>
<pdfrwt beam="2">  1       21 0.81100490E-01 0.45821457E+03</pdfrwt>
<totfact> 0.25360717E+03</totfact>
</mgrwt>
</event>
<event>
 4    1  0.4949719E-002  0.4544880E+03  0.7818608E-02  0.1026392E+00
         21   -1    0    0  503  502  0.00000000000E+00  0.00000000000E+00  0.57302726826E+03  0.57302726826E+03  0.00000000000E+00 0.  1.
         21   -1    0    0  501  503 -0.00000000000E+00 -0.00000000000E+00 -0.43874018812E+03  0.43874018812E+03  0.00000000000E+00 0. -1.
    9000005    1    1    2  501    0  0.21457620263E+03 -0.22724741356E+02 -0.14652674022E+03  0.47752428860E+03  0.40000000000E+03 0.  1.
   -9000005    1    1    2    0  502 -0.21457620263E+03  0.22724741356E+02  0.28081382036E+03  0.53424316777E+03  0.40000000000E+03 0. -1.
<mgrwt>
<rscale>  2 0.45448802E+03</rscale>
<asrwt>0</asrwt>
<pdfrwt beam="1">  1       21 0.88158041E-01 0.45448802E+03</pdfrwt>
<pdfrwt beam="2">  1       21 0.67498491E-01 0.45448802E+03</pdfrwt>
<totfact> 0.19042021E+03</totfact>
</mgrwt>
</event>
<event>
 4    1  0.4949719E-002  0.4114648E+03  0.7818608E-02  0.1039881E+00
         21   -1    0    0  503  502  0.00000000000E+00  0.00000000000E+00  0.68183172588E+03  0.68183172588E+03  0.00000000000E+00 0.  1.
         21   -1    0    0  501  503 -0.00000000000E+00 -0.00000000000E+00 -0.26800014356E+03  0.26800014356E+03  0.00000000000E+00 0.  1.
    9000005    1    1    2  501    0  0.52559949440E+01 -0.96310383693E+02  0.78176475324E+02  0.41882559232E+03  0.40000000000E+03 0. -1.
   -9000005    1    1    2    0  502 -0.52559949440E+01  0.96310383693E+02  0.33565510699E+03  0.53100627712E+03  0.40000000000E+03 0. -1.
<mgrwt>
<rscale>  2 0.41146484E+03</rscale>
<asrwt>0</asrwt>
<pdfrwt beam="1">  1       21 0.10489719E+00 0.41146484E+03</pdfrwt>
<pdfrwt beam="2">  1       21 0.41230792E-01 0.41146484E+03</pdfrwt>
<totfact> 0.36697791E+03</totfact>
</mgrwt>
</event>
<event>
 4    1  0.4949719E-002  0.4663136E+03  0.7818608E-02  0.1022966E+00
         21   -1    0    0  503  502  0.00000000000E+00  0.00000000000E+00  0.85844174893E+03  0.85844174893E+03  0.00000000000E+00 0. -1.
         21   -1    0    0  501  503 -0.00000000000E+00 -0.00000000000E+00 -0.28204554978E+03  0.28204554978E+03  0.00000000000E+00 0. -1.
    9000005    1    1    2  501    0  0.91862100584E+02 -0.22138131945E+03  0.10616859237E+03  0.47824690708E+03  0.40000000000E+03 0. -1.
   -9000005    1    1    2    0  502 -0.91862100584E+02  0.22138131945E+03  0.47022760678E+03  0.66224039163E+03  0.40000000000E+03 0. -1.
<mgrwt>
<rscale>  2 0.46631356E+03</rscale>
<asrwt>0</asrwt>
<pdfrwt beam="1">  1       21 0.13206796E+00 0.46631356E+03</pdfrwt>
<pdfrwt beam="2">  1       21 0.43391623E-01 0.46631356E+03</pdfrwt>
<totfact> 0.18067564E+03</totfact>
</mgrwt>
</event>
<event>
 4    1  0.4949719E-002  0.5473134E+03  0.7818608E-02  0.1002118E+00
         21   -1    0    0  501  502  0.00000000000E+00  0.00000000000E+00  0.16598459059E+04  0.16598459059E+04  0.00000000000E+00 0. -1.
         21   -1    0    0  502  503 -0.00000000000E+00 -0.00000000000E+00 -0.19902957618E+03  0.19902957618E+03  0.00000000000E+00 0.  1.
    9000005    1    1    2  501    0 -0.37294171002E+03  0.21597291202E+02  0.10142317901E+04  0.11524834429E+04  0.40000000000E+03 0. -1.
   -9000005    1    1    2    0  503  0.37294171002E+03 -0.21597291202E+02  0.44658453969E+03  0.70639203927E+03  0.40000000000E+03 0.  1.
<mgrwt>
<rscale>  2 0.54731340E+03</rscale>
<asrwt>0</asrwt>
<pdfrwt beam="1">  1       21 0.25536090E+00 0.54731340E+03</pdfrwt>
<pdfrwt beam="2">  1       21 0.30619936E-01 0.54731340E+03</pdfrwt>
<totfact> 0.48935449E+02</totfact>
</mgrwt>
</event>
<event>
 4    1  0.4949719E-002  0.4049064E+03  0.7818608E-02  0.1042094E+00
         21   -1    0    0  503  502  0.00000000000E+00  0.00000000000E+00  0.11032608045E+03  0.11032608045E+03  0.00000000000E+00 0. -1.
         21   -1    0    0  501  503 -0.00000000000E+00 -0.00000000000E+00 -0.15704999281E+04  0.15704999281E+04  0.00000000000E+00 0. -1.
    9000005    1    1    2  501    0  0.10863419809E+02 -0.61896654102E+02 -0.53519513627E+03  0.67110583634E+03  0.40000000000E+03 0. -1.
   -9000005    1    1    2    0  502 -0.10863419809E+02  0.61896654102E+02 -0.92497871140E+03  0.10097201722E+04  0.40000000000E+03 0. -1.
<mgrwt>
<rscale>  2 0.40490642E+03</rscale>
<asrwt>0</asrwt>
<pdfrwt beam="1">  1       21 0.16973244E-01 0.40490642E+03</pdfrwt>
<pdfrwt beam="2">  1       21 0.24161536E+00 0.40490642E+03</pdfrwt>
<totfact> 0.19875090E+03</totfact>
</mgrwt>
</event>
<event>
 4    1  0.4949719E-002  0.4580980E+03  0.7818608E-02  0.1025334E+00
         21   -1    0    0  503  502  0.00000000000E+00  0.00000000000E+00  0.19184491155E+04  0.19184491155E+04  0.00000000000E+00 0. -1.
         21   -1    0    0  501  503 -0.00000000000E+00 -0.00000000000E+00 -0.11455274718E+03  0.11455274718E+03  0.00000000000E+00 0. -1.
    9000005    1    1    2  501    0  0.39048556706E+02 -0.21983849989E+03  0.68609241578E+03  0.82497064118E+03  0.40000000000E+03 0. -1.
   -9000005    1    1    2    0  502 -0.39048556706E+02  0.21983849989E+03  0.11178039526E+04  0.12080312215E+04  0.40000000000E+03 0. -1.
<mgrwt>
<rscale>  2 0.45809798E+03</rscale>
<asrwt>0</asrwt>
<pdfrwt beam="1">  1       21 0.29514599E+00 0.45809798E+03</pdfrwt>
<pdfrwt beam="2">  1       21 0.17623501E-01 0.45809798E+03</pdfrwt>
<totfact> 0.85344216E+02</totfact>
</mgrwt>
</event>
<event>
 4    1  0.4949719E-002  0.4530830E+03  0.7818608E-02  0.1026807E+00
         21   -1    0    0  503  502  0.00000000000E+00  0.00000000000E+00  0.89883171517E+03  0.89883171517E+03  0.00000000000E+00 0.  1.
         21   -1    0    0  501  503 -0.00000000000E+00 -0.00000000000E+00 -0.25524780190E+03  0.25524780190E+03  0.00000000000E+00 0.  1.
    9000005    1    1    2  501    0 -0.19083538611E+03 -0.94159760998E+02  0.13461184692E+03  0.47265690994E+03  0.40000000000E+03 0.  1.
   -9000005    1    1    2    0  502  0.19083538611E+03  0.94159760998E+02  0.50897206635E+03  0.68142260713E+03  0.40000000000E+03 0.  1.
<mgrwt>
<rscale>  2 0.45308300E+03</rscale>
<asrwt>0</asrwt>
<pdfrwt beam="1">  1       21 0.13828180E+00 0.45308300E+03</pdfrwt>
<pdfrwt beam="2">  1       21 0.39268893E-01 0.45308300E+03</pdfrwt>
<totfact> 0.19791360E+03</totfact>
</mgrwt>
</event>
<event>
 4    1  0.4949719E-002  0.4373433E+03  0.7818608E-02  0.1031565E+00
         21   -1    0    0  503  502  0.00000000000E+00  0.00000000000E+00  0.30914878786E+04  0.30914878786E+04  0.00000000000E+00 0. -1.
         21   -1    0    0  501  503 -0.00000000000E+00 -0.00000000000E+00 -0.79634265712E+02  0.79634265712E+02  0.00000000000E+00 0. -1.
    9000005    1    1    2  501    0  0.14654030860E+03  0.98970361765E+02  0.75704858013E+03  0.87429500011E+03  0.40000000000E+03 0. -1.
   -9000005    1    1    2    0  502 -0.14654030860E+03 -0.98970361765E+02  0.22548050328E+04  0.22968271442E+04  0.40000000000E+03 0. -1.
<mgrwt>
<rscale>  2 0.43734334E+03</rscale>
<asrwt>0</asrwt>
<pdfrwt beam="1">  1       21 0.47561343E+00 0.43734334E+03</pdfrwt>
<pdfrwt beam="2">  1       21 0.12251428E-01 0.43734334E+03</pdfrwt>
<totfact> 0.11990861E+02</totfact>
</mgrwt>
</event>
<event>
 4    1  0.4949719E-002  0.4033870E+03  0.7818608E-02  0.1042613E+00
         21   -1    0    0  501  502  0.00000000000E+00  0.00000000000E+00  0.16051785312E+03  0.16051785312E+03  0.00000000000E+00 0.  1.
         21   -1    0    0  502  503 -0.00000000000E+00 -0.00000000000E+00 -0.11262745265E+04  0.11262745265E+04  0.00000000000E+00 0.  1.
    9000005    1    1    2  501    0  0.19822405976E+02 -0.48251055000E+02 -0.27948973515E+03  0.49075004243E+03  0.40000000000E+03 0. -1.
   -9000005    1    1    2    0  503 -0.19822405976E+02  0.48251055000E+02 -0.68626693818E+03  0.79604233715E+03  0.40000000000E+03 0. -1.
<mgrwt>
<rscale>  2 0.40338703E+03</rscale>
<asrwt>0</asrwt>
<pdfrwt beam="1">  1       21 0.24695054E-01 0.40338703E+03</pdfrwt>
<pdfrwt beam="2">  1       21 0.17327301E+00 0.40338703E+03</pdfrwt>
<totfact> 0.27410932E+03</totfact>
</mgrwt>
</event>
<event>
 4    1  0.4949719E-002  0.4133441E+03  0.7818608E-02  0.1039255E+00
         21   -1    0    0  501  502  0.00000000000E+00  0.00000000000E+00  0.13013769118E+04  0.13013769118E+04  0.00000000000E+00 0.  1.
         21   -1    0    0  502  503 -0.00000000000E+00 -0.00000000000E+00 -0.26237246874E+03  0.26237246874E+03  0.00000000000E+00 0.  1.
    9000005    1    1    2  501    0 -0.77781156410E+02 -0.69307076483E+02  0.10721595400E+04  0.11490776554E+04  0.40000000000E+03 0.  1.
   -9000005    1    1    2    0  503  0.77781156410E+02  0.69307076483E+02 -0.33155096889E+02  0.41467172509E+03  0.40000000000E+03 0.  1.
<mgrwt>
<rscale>  2 0.41334414E+03</rscale>
<asrwt>0</asrwt>
<pdfrwt beam="1">  1       21 0.20021183E+00 0.41334414E+03</pdfrwt>
<pdfrwt beam="2">  1       21 0.40364996E-01 0.41334414E+03</pdfrwt>
<totfact> 0.66722371E+02</totfact>
</mgrwt>
</event>
<event>
 4    1  0.4949719E-002  0.4276016E+03  0.7818608E-02  0.1034620E+00
         21   -1    0    0  503  502  0.00000000000E+00  0.00000000000E+00  0.39437983499E+03  0.39437983499E+03  0.00000000000E+00 0. -1.
         21   -1    0    0  501  503 -0.00000000000E+00 -0.00000000000E+00 -0.56732144607E+03  0.56732144607E+03  0.00000000000E+00 0. -1.
    9000005    1    1    2  501    0  0.70368379728E+02 -0.13375895455E+03 -0.29205220694E+03  0.51782010232E+03  0.40000000000E+03 0. -1.
   -9000005    1    1    2    0  502 -0.70368379728E+02  0.13375895455E+03  0.11911059586E+03  0.44388117873E+03  0.40000000000E+03 0. -1.
<mgrwt>
<rscale>  2 0.42760164E+03</rscale>
<asrwt>0</asrwt>
<pdfrwt beam="1">  1       21 0.60673821E-01 0.42760164E+03</pdfrwt>
<pdfrwt beam="2">  1       21 0.87280223E-01 0.42760164E+03</pdfrwt>
<totfact> 0.24941089E+03</totfact>
</mgrwt>
</event>
<event>
 4    1  0.4949719E-002  0.4044605E+03  0.7818608E-02  0.1042246E+00
         21   -1    0    0  503  502  0.00000000000E+00  0.00000000000E+00  0.11052737111E+03  0.11052737111E+03  0.00000000000E+00 0. -1.
         21   -1    0    0  501  503 -0.00000000000E+00 -0.00000000000E+00 -0.14992715906E+04  0.14992715906E+04  0.00000000000E+00 0. -1.
    9000005    1    1    2  501    0 -0.23532586507E+02 -0.55086604531E+02 -0.78546046991E+03  0.88347974873E+03  0.40000000000E+03 0. -1.
   -9000005    1    1    2    0  502  0.23532586507E+02  0.55086604531E+02 -0.60328374955E+03  0.72631921295E+03  0.40000000000E+03 0. -1.
<mgrwt>
<rscale>  2 0.40446053E+03</rscale>
<asrwt>0</asrwt>
<pdfrwt beam="1">  1       21 0.17004211E-01 0.40446053E+03</pdfrwt>
<pdfrwt beam="2">  1       21 0.23065717E+00 0.40446053E+03</pdfrwt>
<totfact> 0.23173301E+03</totfact>
</mgrwt>
</event>
<event>
 4    1  0.4949719E-002  0.5078536E+03  0.7818608E-02  0.1011749E+00
         21   -1    0    0  501  502  0.00000000000E+00  0.00000000000E+00  0.93229452693E+03  0.93229452693E+03  0.00000000000E+00 0.  1.
         21   -1    0    0  502  503 -0.00000000000E+00 -0.00000000000E+00 -0.27982032819E+03  0.27982032819E+03  0.00000000000E+00 0. -1.
    9000005    1    1    2  501    0  0.70474085540E+02 -0.30487492585E+03  0.39079022418E+03  0.64080598972E+03  0.40000000000E+03 0. -1.
   -9000005    1    1    2    0  503 -0.70474085540E+02  0.30487492585E+03  0.26168397456E+03  0.57130886540E+03  0.40000000000E+03 0.  1.
<mgrwt>
<rscale>  2 0.50785364E+03</rscale>
<asrwt>0</asrwt>
<pdfrwt beam="1">  1       21 0.14342993E+00 0.50785364E+03</pdfrwt>
<pdfrwt beam="2">  1       21 0.43049282E-01 0.50785364E+03</pdfrwt>
<totfact> 0.14536874E+03</totfact>
</mgrwt>
</event>
<event>
 4    1  0.4949719E-002  0.4134450E+03  0.7818608E-02  0.1039221E+00
         21   -1    0    0  501  502  0.00000000000E+00  0.00000000000E+00  0.44718790904E+03  0.44718790904E+03  0.00000000000E+00 0.  1.
         21   -1    0    0  502  503 -0.00000000000E+00 -0.00000000000E+00 -0.75593549285E+03  0.75593549285E+03  0.00000000000E+00 0.  1.
    9000005    1    1    2  501    0 -0.55159357406E+02  0.88849201600E+02  0.26857912509E+03  0.49302280046E+03  0.40000000000E+03 0.  1.
   -9000005    1    1    2    0  503  0.55159357406E+02 -0.88849201600E+02 -0.57732670890E+03  0.71010060143E+03  0.40000000000E+03 0.  1.
<mgrwt>
<rscale>  2 0.41344496E+03</rscale>
<asrwt>0</asrwt>
<pdfrwt beam="1">  1       21 0.68798141E-01 0.41344496E+03</pdfrwt>
<pdfrwt beam="2">  1       21 0.11629777E+00 0.41344496E+03</pdfrwt>
<totfact> 0.94585182E+02</totfact>
</mgrwt>
</event>
<event>
 4    1  0.4949719E-002  0.5997439E+03  0.7818608E-02  0.9905937E-01
         21   -1    0    0  501  502  0.00000000000E+00  0.00000000000E+00  0.10732415802E+04  0.10732415802E+04  0.00000000000E+00 0. -1.
         21   -1    0    0  502  503 -0.00000000000E+00 -0.00000000000E+00 -0.33516499313E+03  0.33516499313E+03  0.00000000000E+00 0. -1.
    9000005    1    1    2  501    0 -0.24200163715E+03  0.37567003723E+03  0.37432030458E+03  0.70697132875E+03  0.40000000000E+03 0. -1.
   -9000005    1    1    2    0  503  0.24200163715E+03 -0.37567003723E+03  0.36375628245E+03  0.70143524454E+03  0.40000000000E+03 0. -1.
<mgrwt>
<rscale>  2 0.59974392E+03</rscale>
<asrwt>0</asrwt>
<pdfrwt beam="1">  1       21 0.16511409E+00 0.59974392E+03</pdfrwt>
<pdfrwt beam="2">  1       21 0.51563846E-01 0.59974392E+03</pdfrwt>
<totfact> 0.65103453E+02</totfact>
</mgrwt>
</event>
<event>
 4    1  0.4949719E-002  0.4529080E+03  0.7818608E-02  0.1026858E+00
         21   -1    0    0  501  502  0.00000000000E+00  0.00000000000E+00  0.68720503709E+03  0.68720503709E+03  0.00000000000E+00 0.  1.
         21   -1    0    0  502  503 -0.00000000000E+00 -0.00000000000E+00 -0.41256469467E+03  0.41256469467E+03  0.00000000000E+00 0. -1.
    9000005    1    1    2  501    0 -0.53783327058E+02  0.20550672296E+03  0.42646493434E+03  0.62209163286E+03  0.40000000000E+03 0.  1.
   -9000005    1    1    2    0  503  0.53783327058E+02 -0.20550672296E+03 -0.15182459192E+03  0.47767809890E+03  0.40000000000E+03 0. -1.
<mgrwt>
<rscale>  2 0.45290800E+03</rscale>
<asrwt>0</asrwt>
<pdfrwt beam="1">  1       21 0.10572385E+00 0.45290800E+03</pdfrwt>
<pdfrwt beam="2">  1       21 0.63471492E-01 0.45290800E+03</pdfrwt>
<totfact> 0.14101587E+03</totfact>
</mgrwt>
</event>
<event>
 4    1  0.4949719E-002  0.4441969E+03  0.7818608E-02  0.1029467E+00
         21   -1    0    0  501  502  0.00000000000E+00  0.00000000000E+00  0.36648203039E+03  0.36648203039E+03  0.00000000000E+00 0. -1.
         21   -1    0    0  502  503 -0.00000000000E+00 -0.00000000000E+00 -0.10607752294E+04  0.10607752294E+04  0.00000000000E+00 0. -1.
    9000005    1    1    2  501    0  0.11321773685E+03  0.15650130948E+03  0.15364297722E+03  0.47001817013E+03  0.40000000000E+03 0. -1.
   -9000005    1    1    2    0  503 -0.11321773685E+03 -0.15650130948E+03 -0.84793617627E+03  0.95723908970E+03  0.40000000000E+03 0. -1.
<mgrwt>
<rscale>  2 0.44419693E+03</rscale>
<asrwt>0</asrwt>
<pdfrwt beam="1">  1       21 0.56381851E-01 0.44419693E+03</pdfrwt>
<pdfrwt beam="2">  1       21 0.16319619E+00 0.44419693E+03</pdfrwt>
<totfact> 0.59010252E+02</totfact>
</mgrwt>
</event>
<event>
 4    1  0.4949719E-002  0.4322170E+03  0.7818608E-02  0.1033162E+00
         21   -1    0    0  501  502  0.00000000000E+00  0.00000000000E+00  0.60938889850E+03  0.60938889850E+03  0.00000000000E+00 0.  1.
         21   -1    0    0  502  503 -0.00000000000E+00 -0.00000000000E+00 -0.15086847528E+04  0.15086847528E+04  0.00000000000E+00 0.  1.
    9000005    1    1    2  501    0  0.10897071014E+03 -0.12221681500E+03  0.49569064850E+03  0.65766312391E+03  0.40000000000E+03 0.  1.
   -9000005    1    1    2    0  503 -0.10897071014E+03  0.12221681500E+03 -0.13949865028E+04  0.14604105274E+04  0.40000000000E+03 0.  1.
<mgrwt>
<rscale>  2 0.43221704E+03</rscale>
<asrwt>0</asrwt>
<pdfrwt beam="1">  1       21 0.93752139E-01 0.43221704E+03</pdfrwt>
<pdfrwt beam="2">  1       21 0.23210535E+00 0.43221704E+03</pdfrwt>
<totfact> 0.64134980E+01</totfact>
</mgrwt>
</event>
<event>
 4    1  0.4949719E-002  0.4048690E+03  0.7818608E-02  0.1042107E+00
         21   -1    0    0  501  502  0.00000000000E+00  0.00000000000E+00  0.27908540043E+03  0.27908540043E+03  0.00000000000E+00 0. -1.
         21   -1    0    0  502  503 -0.00000000000E+00 -0.00000000000E+00 -0.60326818496E+03  0.60326818496E+03  0.00000000000E+00 0. -1.
    9000005    1    1    2  501    0 -0.46216499880E+02  0.42224900189E+02 -0.23377126287E+03  0.46751247085E+03  0.40000000000E+03 0. -1.
   -9000005    1    1    2    0  503  0.46216499880E+02 -0.42224900189E+02 -0.90411521659E+02  0.41484111453E+03  0.40000000000E+03 0. -1.
<mgrwt>
<rscale>  2 0.40486900E+03</rscale>
<asrwt>0</asrwt>
<pdfrwt beam="1">  1       21 0.42936216E-01 0.40486900E+03</pdfrwt>
<pdfrwt beam="2">  1       21 0.92810489E-01 0.40486900E+03</pdfrwt>
<totfact> 0.45469703E+03</totfact>
</mgrwt>
</event>
<event>
 4    1  0.4949719E-002  0.4543908E+03  0.7818608E-02  0.1026421E+00
         21   -1    0    0  503  502  0.00000000000E+00  0.00000000000E+00  0.67673745083E+03  0.67673745083E+03  0.00000000000E+00 0.  1.
         21   -1    0    0  501  503 -0.00000000000E+00 -0.00000000000E+00 -0.32307575549E+03  0.32307575549E+03  0.00000000000E+00 0.  1.
    9000005    1    1    2  501    0  0.20330190493E+03  0.71689143863E+02  0.29475663767E+03  0.54162022982E+03  0.40000000000E+03 0.  1.
   -9000005    1    1    2    0  502 -0.20330190493E+03 -0.71689143863E+02  0.58905057666E+02  0.45819297650E+03  0.40000000000E+03 0.  1.
<mgrwt>
<rscale>  2 0.45439080E+03</rscale>
<asrwt>0</asrwt>
<pdfrwt beam="1">  1       21 0.10411345E+00 0.45439080E+03</pdfrwt>
<pdfrwt beam="2">  1       21 0.49703962E-01 0.45439080E+03</pdfrwt>
<totfact> 0.24868214E+03</totfact>
</mgrwt>
</event>
<event>
 4    1  0.4949719E-002  0.4065553E+03  0.7818608E-02  0.1041533E+00
         21   -1    0    0  501  502  0.00000000000E+00  0.00000000000E+00  0.18738879713E+03  0.18738879713E+03  0.00000000000E+00 0. -1.
         21   -1    0    0  502  503 -0.00000000000E+00 -0.00000000000E+00 -0.91986360116E+03  0.91986360116E+03  0.00000000000E+00 0. -1.
    9000005    1    1    2  501    0 -0.41367929059E+02  0.59798942723E+02 -0.47847811487E+03  0.62787620238E+03  0.40000000000E+03 0. -1.
   -9000005    1    1    2    0  503  0.41367929059E+02 -0.59798942723E+02 -0.25399668916E+03  0.47937619591E+03  0.40000000000E+03 0. -1.
<mgrwt>
<rscale>  2 0.40655531E+03</rscale>
<asrwt>0</asrwt>
<pdfrwt beam="1">  1       21 0.28829046E-01 0.40655531E+03</pdfrwt>
<pdfrwt beam="2">  1       21 0.14151748E+00 0.40655531E+03</pdfrwt>
<totfact> 0.35310854E+03</totfact>
</mgrwt>
</event>
<event>
 4    1  0.4949719E-002  0.4603955E+03  0.7818608E-02  0.1024667E+00
         21   -1    0    0  503  502  0.00000000000E+00  0.00000000000E+00  0.11480806885E+04  0.11480806885E+04  0.00000000000E+00 0.  1.
         21   -1    0    0  501  503 -0.00000000000E+00 -0.00000000000E+00 -0.18878957276E+03  0.18878957276E+03  0.00000000000E+00 0.  1.
    9000005    1    1    2  501    0  0.17947459796E+03  0.14054489379E+03  0.38036285419E+03  0.59719335172E+03  0.40000000000E+03 0.  1.
   -9000005    1    1    2    0  502 -0.17947459796E+03 -0.14054489379E+03  0.57892826151E+03  0.73967690951E+03  0.40000000000E+03 0.  1.
<mgrwt>
<rscale>  2 0.46039548E+03</rscale>
<asrwt>0</asrwt>
<pdfrwt beam="1">  1       21 0.17662779E+00 0.46039548E+03</pdfrwt>
<pdfrwt beam="2">  1       21 0.29044550E-01 0.46039548E+03</pdfrwt>
<totfact> 0.18424924E+03</totfact>
</mgrwt>
</event>
<event>
 4    1  0.4949719E-002  0.5624342E+03  0.7818608E-02  0.9986562E-01
         21   -1    0    0  503  502  0.00000000000E+00  0.00000000000E+00  0.41421701199E+03  0.41421701199E+03  0.00000000000E+00 0.  1.
         21   -1    0    0  501  503 -0.00000000000E+00 -0.00000000000E+00 -0.80246398007E+03  0.80246398007E+03  0.00000000000E+00 0. -1.
    9000005    1    1    2  501    0 -0.17258413941E+02 -0.39501192746E+03 -0.32785051701E+03  0.65101323888E+03  0.40000000000E+03 0.  1.
   -9000005    1    1    2    0  502  0.17258413941E+02  0.39501192746E+03 -0.60396451073E+02  0.56566775318E+03  0.40000000000E+03 0.  1.
<mgrwt>
<rscale>  2 0.56243424E+03</rscale>
<asrwt>0</asrwt>
<pdfrwt beam="1">  1       21 0.63725694E-01 0.56243424E+03</pdfrwt>
<pdfrwt beam="2">  1       21 0.12345600E+00 0.56243424E+03</pdfrwt>
<totfact> 0.90977363E+02</totfact>
</mgrwt>
</event>
<event>
 4    1  0.4949719E-002  0.4043906E+03  0.7818608E-02  0.1042270E+00
         21   -1    0    0  501  502  0.00000000000E+00  0.00000000000E+00  0.12956279165E+04  0.12956279165E+04  0.00000000000E+00 0. -1.
         21   -1    0    0  502  503 -0.00000000000E+00 -0.00000000000E+00 -0.40187834571E+03  0.40187834571E+03  0.00000000000E+00 0. -1.
    9000005    1    1    2  501    0  0.20938678851E+02  0.55617392030E+02  0.11498194493E+04  0.12188586828E+04  0.40000000000E+03 0. -1.
   -9000005    1    1    2    0  503 -0.20938678851E+02 -0.55617392030E+02 -0.25606987855E+03  0.47864757940E+03  0.40000000000E+03 0. -1.
<mgrwt>
<rscale>  2 0.40439056E+03</rscale>
<asrwt>0</asrwt>
<pdfrwt beam="1">  1       21 0.19932737E+00 0.40439056E+03</pdfrwt>
<pdfrwt beam="2">  1       21 0.61827438E-01 0.40439056E+03</pdfrwt>
<totfact> 0.27472485E+02</totfact>
</mgrwt>
</event>
<event>
 4    1  0.4949719E-002  0.4019274E+03  0.7818608E-02  0.1043114E+00
         21   -1    0    0  503  502  0.00000000000E+00  0.00000000000E+00  0.47846502589E+03  0.47846502589E+03  0.00000000000E+00 0.  1.
         21   -1    0    0  501  503 -0.00000000000E+00 -0.00000000000E+00 -0.75585079960E+03  0.75585079960E+03  0.00000000000E+00 0.  1.
    9000005    1    1    2  501    0 -0.39073953003E+02  0.43469228384E+01 -0.59776342789E+03  0.72032408350E+03  0.40000000000E+03 0.  1.
   -9000005    1    1    2    0  502  0.39073953003E+02 -0.43469228384E+01  0.32037765417E+03  0.51399174199E+03  0.40000000000E+03 0.  1.
<mgrwt>
<rscale>  2 0.40192744E+03</rscale>
<asrwt>0</asrwt>
<pdfrwt beam="1">  1       21 0.73610004E-01 0.40192744E+03</pdfrwt>
<pdfrwt beam="2">  1       21 0.11628474E+00 0.40192744E+03</pdfrwt>
<totfact> 0.81685975E+02</totfact>
</mgrwt>
</event>
<event>
 4    1  0.4949719E-002  0.4110449E+03  0.7818608E-02  0.1040021E+00
         21   -1    0    0  503  502  0.00000000000E+00  0.00000000000E+00  0.41324740336E+03  0.41324740336E+03  0.00000000000E+00 0. -1.
         21   -1    0    0  501  503 -0.00000000000E+00 -0.00000000000E+00 -0.56361394526E+03  0.56361394526E+03  0.00000000000E+00 0. -1.
    9000005    1    1    2  501    0 -0.17647308522E+02 -0.92986435254E+02 -0.33112504553E+03  0.52782733959E+03  0.40000000000E+03 0. -1.
   -9000005    1    1    2    0  502  0.17647308522E+02  0.92986435254E+02  0.18075850363E+03  0.44903400904E+03  0.40000000000E+03 0. -1.
<mgrwt>
<rscale>  2 0.41104489E+03</rscale>
<asrwt>0</asrwt>
<pdfrwt beam="1">  1       21 0.63576523E-01 0.41104489E+03</pdfrwt>
<pdfrwt beam="2">  1       21 0.86709838E-01 0.41104489E+03</pdfrwt>
<totfact> 0.23000592E+03</totfact>
</mgrwt>
</event>
<event>
 4    1  0.4949719E-002  0.6441701E+03  0.7818608E-02  0.9817781E-01
         21   -1    0    0  501  502  0.00000000000E+00  0.00000000000E+00  0.54532686705E+03  0.54532686705E+03  0.00000000000E+00 0.  1.
         21   -1    0    0  502  503 -0.00000000000E+00 -0.00000000000E+00 -0.97760505000E+03  0.97760505000E+03  0.00000000000E+00 0. -1.
    9000005    1    1    2  501    0  0.43023765777E+03  0.26429267303E+03  0.14234853618E+03  0.65971066759E+03  0.40000000000E+03 0.  1.
   -9000005    1    1    2    0  503 -0.43023765777E+03 -0.26429267303E+03 -0.57462671913E+03  0.86322124946E+03  0.40000000000E+03 0. -1.
<mgrwt>
<rscale>  2 0.64417005E+03</rscale>
<asrwt>0</asrwt>
<pdfrwt beam="1">  1       21 0.83896441E-01 0.64417005E+03</pdfrwt>
<pdfrwt beam="2">  1       21 0.15040078E+00 0.64417005E+03</pdfrwt>
<totfact> 0.27923015E+02</totfact>
</mgrwt>
</event>
<event>
 4    1  0.4949719E-002  0.4103976E+03  0.7818608E-02  0.1040238E+00
         21   -1    0    0  501  502  0.00000000000E+00  0.00000000000E+00  0.20421778703E+03  0.20421778703E+03  0.00000000000E+00 0.  1.
         21   -1    0    0  502  503 -0.00000000000E+00 -0.00000000000E+00 -0.14601003601E+04  0.14601003601E+04  0.00000000000E+00 0.  1.
    9000005    1    1    2  501    0  0.90009500094E+02 -0.18013852030E+02 -0.79000280540E+02  0.41793211566E+03  0.40000000000E+03 0.  1.
   -9000005    1    1    2    0  503 -0.90009500094E+02  0.18013852030E+02 -0.11768822926E+04  0.12463860315E+04  0.40000000000E+03 0.  1.
<mgrwt>
<rscale>  2 0.41039762E+03</rscale>
<asrwt>0</asrwt>
<pdfrwt beam="1">  1       21 0.31418122E-01 0.41039762E+03</pdfrwt>
<pdfrwt beam="2">  1       21 0.22463082E+00 0.41039762E+03</pdfrwt>
<totfact> 0.77151692E+02</totfact>
</mgrwt>
</event>
<event>
 4    1  0.4949719E-002  0.4038406E+03  0.7818608E-02  0.1042458E+00
         21   -1    0    0  501  502  0.00000000000E+00  0.00000000000E+00  0.16878815887E+03  0.16878815887E+03  0.00000000000E+00 0.  1.
         21   -1    0    0  502  503 -0.00000000000E+00 -0.00000000000E+00 -0.12814788080E+04  0.12814788080E+04  0.00000000000E+00 0. -1.
    9000005    1    1    2  501    0 -0.55525150575E+02 -0.20502322520E+01 -0.19668478190E+03  0.44919054891E+03  0.40000000000E+03 0.  1.
   -9000005    1    1    2    0  503  0.55525150575E+02  0.20502322520E+01 -0.91600586721E+03  0.10010764179E+04  0.40000000000E+03 0. -1.
<mgrwt>
<rscale>  2 0.40384062E+03</rscale>
<asrwt>0</asrwt>
<pdfrwt beam="1">  1       21 0.25967409E-01 0.40384062E+03</pdfrwt>
<pdfrwt beam="2">  1       21 0.19715059E+00 0.40384062E+03</pdfrwt>
<totfact> 0.16992745E+03</totfact>
</mgrwt>
</event>
<event>
 4    1  0.4949719E-002  0.4488625E+03  0.7818608E-02  0.1028062E+00
         21   -1    0    0  501  502  0.00000000000E+00  0.00000000000E+00  0.47511682457E+03  0.47511682457E+03  0.00000000000E+00 0. -1.
         21   -1    0    0  502  503 -0.00000000000E+00 -0.00000000000E+00 -0.62220640441E+03  0.62220640441E+03  0.00000000000E+00 0.  1.
    9000005    1    1    2  501    0  0.28170458149E+02  0.20170275443E+03  0.23607699405E+03  0.50715867633E+03  0.40000000000E+03 0.  1.
   -9000005    1    1    2    0  503 -0.28170458149E+02 -0.20170275443E+03 -0.38316657389E+03  0.59016455265E+03  0.40000000000E+03 0. -1.
<mgrwt>
<rscale>  2 0.44886254E+03</rscale>
<asrwt>0</asrwt>
<pdfrwt beam="1">  1       21 0.73094896E-01 0.44886254E+03</pdfrwt>
<pdfrwt beam="2">  1       21 0.95724062E-01 0.44886254E+03</pdfrwt>
<totfact> 0.13110277E+03</totfact>
</mgrwt>
</event>
<event>
 4    1  0.4949719E-002  0.4119320E+03  0.7818608E-02  0.1039725E+00
         21   -1    0    0  501  502  0.00000000000E+00  0.00000000000E+00  0.25782089734E+03  0.25782089734E+03  0.00000000000E+00 0.  1.
         21   -1    0    0  502  503 -0.00000000000E+00 -0.00000000000E+00 -0.15175356966E+04  0.15175356966E+04  0.00000000000E+00 0.  1.
    9000005    1    1    2  501    0 -0.35639176155E+02 -0.91748499976E+02  0.38143661199E+02  0.41369418296E+03  0.40000000000E+03 0.  1.
   -9000005    1    1    2    0  503  0.35639176155E+02  0.91748499976E+02 -0.12978584605E+04  0.13616624110E+04  0.40000000000E+03 0.  1.
<mgrwt>
<rscale>  2 0.41193196E+03</rscale>
<asrwt>0</asrwt>
<pdfrwt beam="1">  1       21 0.39664754E-01 0.41193196E+03</pdfrwt>
<pdfrwt beam="2">  1       21 0.23346703E+00 0.41193196E+03</pdfrwt>
<totfact> 0.42344611E+02</totfact>
</mgrwt>
</event>
<event>
 4    1  0.4949719E-002  0.4046108E+03  0.7818608E-02  0.1042195E+00
         21   -1    0    0  501  502  0.00000000000E+00  0.00000000000E+00  0.98803354872E+03  0.98803354872E+03  0.00000000000E+00 0. -1.
         21   -1    0    0  502  503 -0.00000000000E+00 -0.00000000000E+00 -0.23259471279E+03  0.23259471279E+03  0.00000000000E+00 0.  1.
    9000005    1    1    2  501    0 -0.56023562642E+02 -0.23900495566E+02  0.70504001783E+03  0.81289070606E+03  0.40000000000E+03 0. -1.
   -9000005    1    1    2    0  503  0.56023562642E+02  0.23900495566E+02  0.50398818102E+02  0.40773755545E+03  0.40000000000E+03 0.  1.
<mgrwt>
<rscale>  2 0.40461077E+03</rscale>
<asrwt>0</asrwt>
<pdfrwt beam="1">  1       21 0.15200516E+00 0.40461077E+03</pdfrwt>
<pdfrwt beam="2">  1       21 0.35783803E-01 0.40461077E+03</pdfrwt>
<totfact> 0.18932860E+03</totfact>
</mgrwt>
</event>
<event>
 4    1  0.4949719E-002  0.4233660E+03  0.7818608E-02  0.1035976E+00
         21   -1    0    0  503  502  0.00000000000E+00  0.00000000000E+00  0.90770492992E+03  0.90770492992E+03  0.00000000000E+00 0. -1.
         21   -1    0    0  501  503 -0.00000000000E+00 -0.00000000000E+00 -0.21208370200E+03  0.21208370200E+03  0.00000000000E+00 0. -1.
    9000005    1    1    2  501    0 -0.13774706167E+03 -0.16263956257E+02  0.20080761196E+03  0.46857493135E+03  0.40000000000E+03 0. -1.
   -9000005    1    1    2    0  502  0.13774706167E+03  0.16263956257E+02  0.49481361596E+03  0.65121370057E+03  0.40000000000E+03 0. -1.
<mgrwt>
<rscale>  2 0.42336600E+03</rscale>
<asrwt>0</asrwt>
<pdfrwt beam="1">  1       21 0.13964691E+00 0.42336600E+03</pdfrwt>
<pdfrwt beam="2">  1       21 0.32628262E-01 0.42336600E+03</pdfrwt>
<totfact> 0.28406716E+03</totfact>
</mgrwt>
</event>
<event>
 4    1  0.4949719E-002  0.4676755E+03  0.7818608E-02  0.1022578E+00
         21   -1    0    0  501  502  0.00000000000E+00  0.00000000000E+00  0.48793931443E+03  0.48793931443E+03  0.00000000000E+00 0. -1.
         21   -1    0    0  502  503 -0.00000000000E+00 -0.00000000000E+00 -0.47822280904E+03  0.47822280904E+03  0.00000000000E+00 0. -1.
    9000005    1    1    2  501    0  0.23439965629E+03  0.61459000716E+02  0.12579121385E+03  0.48429726111E+03  0.40000000000E+03 0. -1.
   -9000005    1    1    2    0  503 -0.23439965629E+03 -0.61459000716E+02 -0.11607470847E+03  0.48186486236E+03  0.40000000000E+03 0. -1.
<mgrwt>
<rscale>  2 0.46767554E+03</rscale>
<asrwt>0</asrwt>
<pdfrwt beam="1">  1       21 0.75067587E-01 0.46767554E+03</pdfrwt>
<pdfrwt beam="2">  1       21 0.73572739E-01 0.46767554E+03</pdfrwt>
<totfact> 0.22654974E+03</totfact>
</mgrwt>
</event>
<event>
 4    1  0.4949719E-002  0.7327227E+03  0.7818608E-02  0.9662853E-01
         21   -1    0    0  503  502  0.00000000000E+00  0.00000000000E+00  0.67664215043E+03  0.67664215043E+03  0.00000000000E+00 0. -1.
         21   -1    0    0  501  503 -0.00000000000E+00 -0.00000000000E+00 -0.10425040718E+04  0.10425040718E+04  0.00000000000E+00 0. -1.
    9000005    1    1    2  501    0  0.13482036513E+03 -0.59892065878E+03 -0.60306683845E+03  0.94898477227E+03  0.40000000000E+03 0. -1.
   -9000005    1    1    2    0  502 -0.13482036513E+03  0.59892065878E+03  0.23720491705E+03  0.77016144998E+03  0.40000000000E+03 0. -1.
<mgrwt>
<rscale>  2 0.73272265E+03</rscale>
<asrwt>0</asrwt>
<pdfrwt beam="1">  1       21 0.10409879E+00 0.73272265E+03</pdfrwt>
<pdfrwt beam="2">  1       21 0.16038524E+00 0.73272265E+03</pdfrwt>
<totfact> 0.13461079E+02</totfact>
</mgrwt>
</event>
<event>
 4    1  0.4949719E-002  0.4127165E+03  0.7818608E-02  0.1039463E+00
         21   -1    0    0  503  502  0.00000000000E+00  0.00000000000E+00  0.99015270894E+03  0.99015270894E+03  0.00000000000E+00 0. -1.
         21   -1    0    0  501  503 -0.00000000000E+00 -0.00000000000E+00 -0.19247230619E+03  0.19247230619E+03  0.00000000000E+00 0. -1.
    9000005    1    1    2  501    0  0.67309527352E+02  0.76186275575E+02  0.20612803069E+03  0.46132817613E+03  0.40000000000E+03 0. -1.
   -9000005    1    1    2    0  502 -0.67309527352E+02 -0.76186275575E+02  0.59155237206E+03  0.72129683900E+03  0.40000000000E+03 0. -1.
<mgrwt>
<rscale>  2 0.41271651E+03</rscale>
<asrwt>0</asrwt>
<pdfrwt beam="1">  1       21 0.15233118E+00 0.41271651E+03</pdfrwt>
<pdfrwt beam="2">  1       21 0.29611125E-01 0.41271651E+03</pdfrwt>
<totfact> 0.27402620E+03</totfact>
</mgrwt>
</event>
<event>
 4    1  0.4949719E-002  0.6366087E+03  0.7818608E-02  0.9832237E-01
         21   -1    0    0  501  502  0.00000000000E+00  0.00000000000E+00  0.25510377881E+04  0.25510377881E+04  0.00000000000E+00 0. -1.
         21   -1    0    0  502  503 -0.00000000000E+00 -0.00000000000E+00 -0.18558311446E+03  0.18558311446E+03  0.00000000000E+00 0.  1.
    9000005    1    1    2  501    0  0.11201512009E+02  0.49512136737E+03  0.17019076798E+04  0.18170746801E+04  0.40000000000E+03 0. -1.
   -9000005    1    1    2    0  503 -0.11201512009E+02 -0.49512136737E+03  0.66354699379E+03  0.91954622247E+03  0.40000000000E+03 0.  1.
<mgrwt>
<rscale>  2 0.63660870E+03</rscale>
<asrwt>0</asrwt>
<pdfrwt beam="1">  1       21 0.39246733E+00 0.63660870E+03</pdfrwt>
<pdfrwt beam="2">  1       21 0.28551250E-01 0.63660870E+03</pdfrwt>
<totfact> 0.76781977E+01</totfact>
</mgrwt>
</event>
<event>
 4    1  0.4949719E-002  0.5374219E+03  0.7818608E-02  0.1004448E+00
         21   -1    0    0  503  502  0.00000000000E+00  0.00000000000E+00  0.60057136922E+03  0.60057136922E+03  0.00000000000E+00 0.  1.
         21   -1    0    0  501  503 -0.00000000000E+00 -0.00000000000E+00 -0.50151129665E+03  0.50151129665E+03  0.00000000000E+00 0.  1.
    9000005    1    1    2  501    0 -0.20817930222E+03  0.29237596182E+03  0.16120708492E+03  0.56107936083E+03  0.40000000000E+03 0.  1.
   -9000005    1    1    2    0  502  0.20817930222E+03 -0.29237596182E+03 -0.62147012353E+02  0.54100330504E+03  0.40000000000E+03 0.  1.
<mgrwt>
<rscale>  2 0.53742192E+03</rscale>
<asrwt>0</asrwt>
<pdfrwt beam="1">  1       21 0.92395596E-01 0.53742192E+03</pdfrwt>
<pdfrwt beam="2">  1       21 0.77155584E-01 0.53742192E+03</pdfrwt>
<totfact> 0.12212204E+03</totfact>
</mgrwt>
</event>
<event>
 4    1  0.4949719E-002  0.4404137E+03  0.7818608E-02  0.1030620E+00
         21   -1    0    0  503  502  0.00000000000E+00  0.00000000000E+00  0.15999115646E+03  0.15999115646E+03  0.00000000000E+00 0.  1.
         21   -1    0    0  501  503 -0.00000000000E+00 -0.00000000000E+00 -0.12172107933E+04  0.12172107933E+04  0.00000000000E+00 0.  1.
    9000005    1    1    2  501    0 -0.16164796913E+03  0.88510911064E+02 -0.57215359258E+03  0.72202768701E+03  0.40000000000E+03 0.  1.
   -9000005    1    1    2    0  502  0.16164796913E+03 -0.88510911064E+02 -0.48506604429E+03  0.65517426279E+03  0.40000000000E+03 0.  1.
<mgrwt>
<rscale>  2 0.44041372E+03</rscale>
<asrwt>0</asrwt>
<pdfrwt beam="1">  1       21 0.24614024E-01 0.44041372E+03</pdfrwt>
<pdfrwt beam="2">  1       21 0.18726320E+00 0.44041372E+03</pdfrwt>
<totfact> 0.21647375E+03</totfact>
</mgrwt>
</event>
<event>
 4    1  0.4949719E-002  0.4013677E+03  0.7818608E-02  0.1043307E+00
         21   -1    0    0  503  502  0.00000000000E+00  0.00000000000E+00  0.22935067335E+03  0.22935067335E+03  0.00000000000E+00 0.  1.
         21   -1    0    0  501  503 -0.00000000000E+00 -0.00000000000E+00 -0.74234261440E+03  0.74234261440E+03  0.00000000000E+00 0.  1.
    9000005    1    1    2  501    0  0.28107688013E+02 -0.17492576302E+02 -0.36919298862E+03  0.54534346534E+03  0.40000000000E+03 0.  1.
   -9000005    1    1    2    0  502 -0.28107688013E+02  0.17492576302E+02 -0.14379895243E+03  0.42634982241E+03  0.40000000000E+03 0.  1.
<mgrwt>
<rscale>  2 0.40136770E+03</rscale>
<asrwt>0</asrwt>
<pdfrwt beam="1">  1       21 0.35284718E-01 0.40136770E+03</pdfrwt>
<pdfrwt beam="2">  1       21 0.11420656E+00 0.40136770E+03</pdfrwt>
<totfact> 0.41038185E+03</totfact>
</mgrwt>
</event>
<event>
 4    1  0.4949719E-002  0.4137202E+03  0.7818608E-02  0.1039130E+00
         21   -1    0    0  501  502  0.00000000000E+00  0.00000000000E+00  0.34574213869E+03  0.34574213869E+03  0.00000000000E+00 0. -1.
         21   -1    0    0  502  503 -0.00000000000E+00 -0.00000000000E+00 -0.68464444535E+03  0.68464444535E+03  0.00000000000E+00 0. -1.
    9000005    1    1    2  501    0 -0.44866465075E+01 -0.10556633571E+03  0.10165212691E+03  0.42602527641E+03  0.40000000000E+03 0. -1.
   -9000005    1    1    2    0  503  0.44866465075E+01  0.10556633571E+03 -0.44055443357E+03  0.60436130764E+03  0.40000000000E+03 0. -1.
<mgrwt>
<rscale>  2 0.41372017E+03</rscale>
<asrwt>0</asrwt>
<pdfrwt beam="1">  1       21 0.53191098E-01 0.41372017E+03</pdfrwt>
<pdfrwt beam="2">  1       21 0.10532991E+00 0.41372017E+03</pdfrwt>
<totfact> 0.21241950E+03</totfact>
</mgrwt>
</event>
<event>
 4    1  0.4949719E-002  0.5884782E+03  0.7818608E-02  0.9929603E-01
         21   -1    0    0  501  502  0.00000000000E+00  0.00000000000E+00  0.29379993453E+03  0.29379993453E+03  0.00000000000E+00 0. -1.
         21   -1    0    0  502  503 -0.00000000000E+00 -0.00000000000E+00 -0.11951343764E+04  0.11951343764E+04  0.00000000000E+00 0.  1.
    9000005    1    1    2  501    0  0.29432827876E+03  0.31571735726E+03 -0.53792551162E+03  0.79728943390E+03  0.40000000000E+03 0. -1.
   -9000005    1    1    2    0  503 -0.29432827876E+03 -0.31571735726E+03 -0.36340893025E+03  0.69164487704E+03  0.40000000000E+03 0. -1.
<mgrwt>
<rscale>  2 0.58847819E+03</rscale>
<asrwt>0</asrwt>
<pdfrwt beam="1">  1       21 0.45199990E-01 0.58847819E+03</pdfrwt>
<pdfrwt beam="2">  1       21 0.18386683E+00 0.58847819E+03</pdfrwt>
<totfact> 0.63256460E+02</totfact>
</mgrwt>
</event>
<event>
 4    1  0.4949719E-002  0.5363348E+03  0.7818608E-02  0.1004707E+00
         21   -1    0    0  503  502  0.00000000000E+00  0.00000000000E+00  0.21036686719E+03  0.21036686719E+03  0.00000000000E+00 0.  1.
         21   -1    0    0  501  503 -0.00000000000E+00 -0.00000000000E+00 -0.15657515075E+04  0.15657515075E+04  0.00000000000E+00 0.  1.
    9000005    1    1    2  501    0  0.21456683083E+03 -0.28568534201E+03 -0.99377554230E+03  0.11292674032E+04  0.40000000000E+03 0.  1.
   -9000005    1    1    2    0  502 -0.21456683083E+03  0.28568534201E+03 -0.36160909806E+03  0.64685097150E+03  0.40000000000E+03 0.  1.
<mgrwt>
<rscale>  2 0.53633482E+03</rscale>
<asrwt>0</asrwt>
<pdfrwt beam="1">  1       21 0.32364133E-01 0.53633482E+03</pdfrwt>
<pdfrwt beam="2">  1       21 0.24088485E+00 0.53633482E+03</pdfrwt>
<totfact> 0.54107395E+02</totfact>
</mgrwt>
</event>
<event>
 4    1  0.4949719E-002  0.4553090E+03  0.7818608E-02  0.1026151E+00
         21   -1    0    0  503  502  0.00000000000E+00  0.00000000000E+00  0.13587255695E+04  0.13587255695E+04  0.00000000000E+00 0.  1.
         21   -1    0    0  501  503 -0.00000000000E+00 -0.00000000000E+00 -0.24322014735E+03  0.24322014735E+03  0.00000000000E+00 0.  1.
    9000005    1    1    2  501    0  0.19277873573E+03 -0.10071089520E+03  0.68771162337E+02  0.46047344997E+03  0.40000000000E+03 0.  1.
   -9000005    1    1    2    0  502 -0.19277873573E+03  0.10071089520E+03  0.10467342598E+04  0.11414722669E+04  0.40000000000E+03 0.  1.
<mgrwt>
<rscale>  2 0.45530904E+03</rscale>
<asrwt>0</asrwt>
<pdfrwt beam="1">  1       21 0.20903470E+00 0.45530904E+03</pdfrwt>
<pdfrwt beam="2">  1       21 0.37418485E-01 0.45530904E+03</pdfrwt>
<totfact> 0.66770656E+02</totfact>
</mgrwt>
</event>
<event>
 4    1  0.4949719E-002  0.5231812E+03  0.7818608E-02  0.1007899E+00
         21   -1    0    0  503  502  0.00000000000E+00  0.00000000000E+00  0.17357393006E+03  0.17357393006E+03  0.00000000000E+00 0.  1.
         21   -1    0    0  501  503 -0.00000000000E+00 -0.00000000000E+00 -0.17673581289E+04  0.17673581289E+04  0.00000000000E+00 0. -1.
    9000005    1    1    2  501    0 -0.32350626351E+03  0.95196050706E+02 -0.47836012316E+03  0.70890549301E+03  0.40000000000E+03 0.  1.
   -9000005    1    1    2    0  502  0.32350626351E+03 -0.95196050706E+02 -0.11154240757E+04  0.12320265660E+04  0.40000000000E+03 0. -1.
<mgrwt>
<rscale>  2 0.52318122E+03</rscale>
<asrwt>0</asrwt>
<pdfrwt beam="1">  1       21 0.26703682E-01 0.52318122E+03</pdfrwt>
<pdfrwt beam="2">  1       21 0.27190125E+00 0.52318122E+03</pdfrwt>
<totfact> 0.51384506E+02</totfact>
</mgrwt>
</event>
<event>
 4    1  0.4949719E-002  0.4774947E+03  0.7818608E-02  0.1019826E+00
         21   -1    0    0  503  502  0.00000000000E+00  0.00000000000E+00  0.41489572899E+03  0.41489572899E+03  0.00000000000E+00 0.  1.
         21   -1    0    0  501  503 -0.00000000000E+00 -0.00000000000E+00 -0.94250609345E+03  0.94250609345E+03  0.00000000000E+00 0. -1.
    9000005    1    1    2  501    0  0.22953527044E+03  0.12375284063E+03 -0.70204786996E+03  0.84904205883E+03  0.40000000000E+03 0. -1.
   -9000005    1    1    2    0  502 -0.22953527044E+03 -0.12375284063E+03  0.17443750550E+03  0.50835976362E+03  0.40000000000E+03 0.  1.
<mgrwt>
<rscale>  2 0.47749472E+03</rscale>
<asrwt>0</asrwt>
<pdfrwt beam="1">  1       21 0.63830113E-01 0.47749472E+03</pdfrwt>
<pdfrwt beam="2">  1       21 0.14500094E+00 0.47749472E+03</pdfrwt>
<totfact> 0.61272195E+02</totfact>
</mgrwt>
</event>
<event>
 4    1  0.4949719E-002  0.4273821E+03  0.7818608E-02  0.1034690E+00
         21   -1    0    0  503  502  0.00000000000E+00  0.00000000000E+00  0.10545078984E+04  0.10545078984E+04  0.00000000000E+00 0.  1.
         21   -1    0    0  501  503 -0.00000000000E+00 -0.00000000000E+00 -0.18774326705E+03  0.18774326705E+03  0.00000000000E+00 0.  1.
    9000005    1    1    2  501    0 -0.21352903876E+02 -0.14899514491E+03  0.26059194755E+03  0.50056334548E+03  0.40000000000E+03 0.  1.
   -9000005    1    1    2    0  502  0.21352903876E+02  0.14899514491E+03  0.60617268380E+03  0.74168781997E+03  0.40000000000E+03 0.  1.
<mgrwt>
<rscale>  2 0.42738215E+03</rscale>
<asrwt>0</asrwt>
<pdfrwt beam="1">  1       21 0.16223198E+00 0.42738215E+03</pdfrwt>
<pdfrwt beam="2">  1       21 0.28883580E-01 0.42738215E+03</pdfrwt>
<totfact> 0.24047201E+03</totfact>
</mgrwt>
</event>
<event>
 4    1  0.4949719E-002  0.7906618E+03  0.7818608E-02  0.9573633E-01
         21   -1    0    0  503  502  0.00000000000E+00  0.00000000000E+00  0.43160060884E+03  0.43160060884E+03  0.00000000000E+00 0.  1.
         21   -1    0    0  501  503 -0.00000000000E+00 -0.00000000000E+00 -0.16108138448E+04  0.16108138448E+04  0.00000000000E+00 0. -1.
    9000005    1    1    2  501    0 -0.11072647983E+03 -0.67296782605E+03 -0.91383722122E+03  0.12084057742E+04  0.40000000000E+03 0. -1.
   -9000005    1    1    2    0  502  0.11072647983E+03  0.67296782605E+03 -0.26537601478E+03  0.83400867949E+03  0.40000000000E+03 0.  1.
<mgrwt>
<rscale>  2 0.79066178E+03</rscale>
<asrwt>0</asrwt>
<pdfrwt beam="1">  1       21 0.66400094E-01 0.79066178E+03</pdfrwt>
<pdfrwt beam="2">  1       21 0.24781751E+00 0.79066178E+03</pdfrwt>
<totfact> 0.96749420E+01</totfact>
</mgrwt>
</event>
<event>
 4    1  0.4949719E-002  0.4343368E+03  0.7818608E-02  0.1032499E+00
         21   -1    0    0  501  502  0.00000000000E+00  0.00000000000E+00  0.49125254035E+03  0.49125254035E+03  0.00000000000E+00 0. -1.
         21   -1    0    0  502  503 -0.00000000000E+00 -0.00000000000E+00 -0.63777048555E+03  0.63777048555E+03  0.00000000000E+00 0. -1.
    9000005    1    1    2  501    0 -0.43758188634E+02  0.16350436843E+03  0.28282146688E+03  0.51830149498E+03  0.40000000000E+03 0. -1.
   -9000005    1    1    2    0  503  0.43758188634E+02 -0.16350436843E+03 -0.42933941208E+03  0.61072153093E+03  0.40000000000E+03 0. -1.
<mgrwt>
<rscale>  2 0.43433680E+03</rscale>
<asrwt>0</asrwt>
<pdfrwt beam="1">  1       21 0.75577315E-01 0.43433680E+03</pdfrwt>
<pdfrwt beam="2">  1       21 0.98118535E-01 0.43433680E+03</pdfrwt>
<totfact> 0.11517431E+03</totfact>
</mgrwt>
</event>
<event>
 4    1  0.4949719E-002  0.4178124E+03  0.7818608E-02  0.1037781E+00
         21   -1    0    0  501  502  0.00000000000E+00  0.00000000000E+00  0.94357871576E+03  0.94357871576E+03  0.00000000000E+00 0.  1.
         21   -1    0    0  502  503 -0.00000000000E+00 -0.00000000000E+00 -0.50203797997E+03  0.50203797997E+03  0.00000000000E+00 0. -1.
    9000005    1    1    2  501    0  0.21161059459E+02 -0.11882514765E+03  0.79516025541E+03  0.89824664649E+03  0.40000000000E+03 0.  1.
   -9000005    1    1    2    0  503 -0.21161059459E+02  0.11882514765E+03 -0.35361951962E+03  0.54737004924E+03  0.40000000000E+03 0. -1.
<mgrwt>
<rscale>  2 0.41781241E+03</rscale>
<asrwt>0</asrwt>
<pdfrwt beam="1">  1       21 0.14516596E+00 0.41781241E+03</pdfrwt>
<pdfrwt beam="2">  1       21 0.77236613E-01 0.41781241E+03</pdfrwt>
<totfact> 0.40871412E+02</totfact>
</mgrwt>
</event>
<event>
 4    1  0.4949719E-002  0.4017311E+03  0.7818608E-02  0.1043182E+00
         21   -1    0    0  503  502  0.00000000000E+00  0.00000000000E+00  0.12672244088E+04  0.12672244088E+04  0.00000000000E+00 0.  1.
         21   -1    0    0  501  503 -0.00000000000E+00 -0.00000000000E+00 -0.13641231126E+03  0.13641231126E+03  0.00000000000E+00 0.  1.
    9000005    1    1    2  501    0  0.22353193043E+02 -0.29803241965E+02  0.74624312928E+03  0.84750616898E+03  0.40000000000E+03 0.  1.
   -9000005    1    1    2    0  502 -0.22353193043E+02  0.29803241965E+02  0.38456896823E+03  0.55613055103E+03  0.40000000000E+03 0.  1.
<mgrwt>
<rscale>  2 0.40173113E+03</rscale>
<asrwt>0</asrwt>
<pdfrwt beam="1">  1       21 0.19495759E+00 0.40173113E+03</pdfrwt>
<pdfrwt beam="2">  1       21 0.20986510E-01 0.40173113E+03</pdfrwt>
<totfact> 0.26530366E+03</totfact>
</mgrwt>
</event>
<event>
 4    1  0.4949719E-002  0.4536548E+03  0.7818608E-02  0.1026638E+00
         21   -1    0    0  503  502  0.00000000000E+00  0.00000000000E+00  0.28194474123E+03  0.28194474123E+03  0.00000000000E+00 0.  1.
         21   -1    0    0  501  503 -0.00000000000E+00 -0.00000000000E+00 -0.76080679105E+03  0.76080679105E+03  0.00000000000E+00 0.  1.
    9000005    1    1    2  501    0 -0.20696909414E+03 -0.54465208770E+02 -0.34444845249E+03  0.56960284525E+03  0.40000000000E+03 0.  1.
   -9000005    1    1    2    0  502  0.20696909414E+03  0.54465208770E+02 -0.13441359733E+03  0.47314868703E+03  0.40000000000E+03 0.  1.
<mgrwt>
<rscale>  2 0.45365479E+03</rscale>
<asrwt>0</asrwt>
<pdfrwt beam="1">  1       21 0.43376114E-01 0.45365479E+03</pdfrwt>
<pdfrwt beam="2">  1       21 0.11704720E+00 0.45365479E+03</pdfrwt>
<totfact> 0.24770508E+03</totfact>
</mgrwt>
</event>
<event>
 4    1  0.4949719E-002  0.4078635E+03  0.7818608E-02  0.1041090E+00
         21   -1    0    0  501  502  0.00000000000E+00  0.00000000000E+00  0.43430490993E+03  0.43430490993E+03  0.00000000000E+00 0.  1.
         21   -1    0    0  502  503 -0.00000000000E+00 -0.00000000000E+00 -0.44926906365E+03  0.44926906365E+03  0.00000000000E+00 0.  1.
    9000005    1    1    2  501    0 -0.21867128803E+02 -0.76644933630E+02  0.16215104663E+03  0.43891409079E+03  0.40000000000E+03 0.  1.
   -9000005    1    1    2    0  503  0.21867128803E+02  0.76644933630E+02 -0.17711520035E+03  0.44465988280E+03  0.40000000000E+03 0.  1.
<mgrwt>
<rscale>  2 0.40786348E+03</rscale>
<asrwt>0</asrwt>
<pdfrwt beam="1">  1       21 0.66816140E-01 0.40786348E+03</pdfrwt>
<pdfrwt beam="2">  1       21 0.69118317E-01 0.40786348E+03</pdfrwt>
<totfact> 0.34674971E+03</totfact>
</mgrwt>
</event>
<event>
 4    1  0.4949719E-002  0.5212968E+03  0.7818608E-02  0.1008365E+00
         21   -1    0    0  501  502  0.00000000000E+00  0.00000000000E+00  0.10623426965E+04  0.10623426965E+04  0.00000000000E+00 0.  1.
         21   -1    0    0  502  503 -0.00000000000E+00 -0.00000000000E+00 -0.29207403886E+03  0.29207403886E+03  0.00000000000E+00 0.  1.
    9000005    1    1    2  501    0  0.32221066258E+03 -0.89053960373E+02  0.62378165166E+03  0.81292918996E+03  0.40000000000E+03 0.  1.
   -9000005    1    1    2    0  503 -0.32221066258E+03  0.89053960373E+02  0.14648700601E+03  0.54148754544E+03  0.40000000000E+03 0.  1.
<mgrwt>
<rscale>  2 0.52129677E+03</rscale>
<asrwt>0</asrwt>
<pdfrwt beam="1">  1       21 0.16343734E+00 0.52129677E+03</pdfrwt>
<pdfrwt beam="2">  1       21 0.44934468E-01 0.52129677E+03</pdfrwt>
<totfact> 0.92320935E+02</totfact>
</mgrwt>
</event>
<event>
 4    1  0.4949719E-002  0.4431429E+03  0.7818608E-02  0.1029787E+00
         21   -1    0    0  501  502  0.00000000000E+00  0.00000000000E+00  0.19349497990E+04  0.19349497990E+04  0.00000000000E+00 0. -1.
         21   -1    0    0  502  503 -0.00000000000E+00 -0.00000000000E+00 -0.16164185440E+03  0.16164185440E+03  0.00000000000E+00 0. -1.
    9000005    1    1    2  501    0  0.97788476807E+02  0.16374683176E+03  0.15261472959E+04  0.15891825508E+04  0.40000000000E+03 0. -1.
   -9000005    1    1    2    0  503 -0.97788476807E+02 -0.16374683176E+03  0.24716064872E+03  0.50740910258E+03  0.40000000000E+03 0. -1.
<mgrwt>
<rscale>  2 0.44314288E+03</rscale>
<asrwt>0</asrwt>
<pdfrwt beam="1">  1       21 0.29768457E+00 0.44314288E+03</pdfrwt>
<pdfrwt beam="2">  1       21 0.24867979E-01 0.44314288E+03</pdfrwt>
<totfact> 0.43012166E+02</totfact>
</mgrwt>
</event>
<event>
 4    1  0.4949719E-002  0.4214934E+03  0.7818608E-02  0.1036581E+00
         21   -1    0    0  501  502  0.00000000000E+00  0.00000000000E+00  0.10648150187E+03  0.10648150187E+03  0.00000000000E+00 0.  1.
         21   -1    0    0  502  503 -0.00000000000E+00 -0.00000000000E+00 -0.21767197621E+04  0.21767197621E+04  0.00000000000E+00 0.  1.
    9000005    1    1    2  501    0  0.95471034321E+02 -0.92422626106E+02 -0.48346139423E+03  0.64139814462E+03  0.40000000000E+03 0. -1.
   -9000005    1    1    2    0  503 -0.95471034321E+02  0.92422626106E+02 -0.15867768660E+04  0.16418031193E+04  0.40000000000E+03 0. -1.
<mgrwt>
<rscale>  2 0.42149337E+03</rscale>
<asrwt>0</asrwt>
<pdfrwt beam="1">  1       21 0.16381771E-01 0.42149337E+03</pdfrwt>
<pdfrwt beam="2">  1       21 0.33487994E+00 0.42149337E+03</pdfrwt>
<totfact> 0.57587183E+02</totfact>
</mgrwt>
</event>
<event>
 4    1  0.4949719E-002  0.4245189E+03  0.7818608E-02  0.1035606E+00
         21   -1    0    0  503  502  0.00000000000E+00  0.00000000000E+00  0.67220301811E+03  0.67220301811E+03  0.00000000000E+00 0.  1.
         21   -1    0    0  501  503 -0.00000000000E+00 -0.00000000000E+00 -0.29313886495E+03  0.29313886495E+03  0.00000000000E+00 0.  1.
    9000005    1    1    2  501    0  0.23857217925E+02 -0.14016810791E+03  0.48460549938E+02  0.42727589474E+03  0.40000000000E+03 0.  1.
   -9000005    1    1    2    0  502 -0.23857217925E+02  0.14016810791E+03  0.33060360322E+03  0.53806598832E+03  0.40000000000E+03 0.  1.
<mgrwt>
<rscale>  2 0.42451886E+03</rscale>
<asrwt>0</asrwt>
<pdfrwt beam="1">  1       21 0.10341585E+00 0.42451886E+03</pdfrwt>
<pdfrwt beam="2">  1       21 0.45098287E-01 0.42451886E+03</pdfrwt>
<totfact> 0.31382660E+03</totfact>
</mgrwt>
</event>
<event>
 4    1  0.4949719E-002  0.4551630E+03  0.7818608E-02  0.1026193E+00
         21   -1    0    0  503  502  0.00000000000E+00  0.00000000000E+00  0.44836923041E+03  0.44836923041E+03  0.00000000000E+00 0. -1.
         21   -1    0    0  501  503 -0.00000000000E+00 -0.00000000000E+00 -0.77763303654E+03  0.77763303654E+03  0.00000000000E+00 0. -1.
    9000005    1    1    2  501    0  0.21252179136E+03 -0.44808858922E+02 -0.55513464438E+03  0.71787730082E+03  0.40000000000E+03 0. -1.
   -9000005    1    1    2    0  502 -0.21252179136E+03  0.44808858922E+02  0.22587083824E+03  0.50812496613E+03  0.40000000000E+03 0. -1.
<mgrwt>
<rscale>  2 0.45516299E+03</rscale>
<asrwt>0</asrwt>
<pdfrwt beam="1">  1       21 0.68979882E-01 0.45516299E+03</pdfrwt>
<pdfrwt beam="2">  1       21 0.11963585E+00 0.45516299E+03</pdfrwt>
<totfact> 0.85974252E+02</totfact>
</mgrwt>
</event>
<event>
 4    1  0.4949719E-002  0.4217838E+03  0.7818608E-02  0.1036487E+00
         21   -1    0    0  501  502  0.00000000000E+00  0.00000000000E+00  0.91982971019E+02  0.91982971019E+02  0.00000000000E+00 0. -1.
         21   -1    0    0  502  503 -0.00000000000E+00 -0.00000000000E+00 -0.21642102176E+04  0.21642102176E+04  0.00000000000E+00 0. -1.
    9000005    1    1    2  501    0  0.11504462210E+03  0.68310611371E+02 -0.66824580125E+03  0.79022405404E+03  0.40000000000E+03 0. -1.
   -9000005    1    1    2    0  503 -0.11504462210E+03 -0.68310611371E+02 -0.14039814454E+04  0.14659691346E+04  0.40000000000E+03 0. -1.
<mgrwt>
<rscale>  2 0.42178384E+03</rscale>
<asrwt>0</asrwt>
<pdfrwt beam="1">  1       21 0.14151227E-01 0.42178384E+03</pdfrwt>
<pdfrwt beam="2">  1       21 0.33295541E+00 0.42178384E+03</pdfrwt>
<totfact> 0.77592464E+02</totfact>
</mgrwt>
</event>
<event>
 4    1  0.4949719E-002  0.5140746E+03  0.7818608E-02  0.1010169E+00
         21   -1    0    0  503  502  0.00000000000E+00  0.00000000000E+00  0.57372372677E+03  0.57372372677E+03  0.00000000000E+00 0.  1.
         21   -1    0    0  501  503 -0.00000000000E+00 -0.00000000000E+00 -0.57243187605E+03  0.57243187605E+03  0.00000000000E+00 0. -1.
    9000005    1    1    2  501    0  0.29093329833E+03  0.14010898040E+03 -0.25262294418E+03  0.57279233793E+03  0.40000000000E+03 0. -1.
   -9000005    1    1    2    0  502 -0.29093329833E+03 -0.14010898040E+03  0.25391479489E+03  0.57336326489E+03  0.40000000000E+03 0. -1.
<mgrwt>
<rscale>  2 0.51407462E+03</rscale>
<asrwt>0</asrwt>
<pdfrwt beam="1">  1       21 0.88265189E-01 0.51407462E+03</pdfrwt>
<pdfrwt beam="2">  1       21 0.88066442E-01 0.51407462E+03</pdfrwt>
<totfact> 0.10080104E+03</totfact>
</mgrwt>
</event>
<event>
 4    1  0.4949719E-002  0.6294645E+03  0.7818608E-02  0.9846094E-01
         21   -1    0    0  501  502  0.00000000000E+00  0.00000000000E+00  0.30644882680E+03  0.30644882680E+03  0.00000000000E+00 0. -1.
         21   -1    0    0  502  503 -0.00000000000E+00 -0.00000000000E+00 -0.13199248020E+04  0.13199248020E+04  0.00000000000E+00 0. -1.
    9000005    1    1    2  501    0  0.13865947707E+03 -0.46583167020E+03 -0.39050565513E+03  0.74075654721E+03  0.40000000000E+03 0. -1.
   -9000005    1    1    2    0  503 -0.13865947707E+03  0.46583167020E+03 -0.62297032009E+03  0.88561708162E+03  0.40000000000E+03 0. -1.
<mgrwt>
<rscale>  2 0.62946453E+03</rscale>
<asrwt>0</asrwt>
<pdfrwt beam="1">  1       21 0.47145974E-01 0.62946453E+03</pdfrwt>
<pdfrwt beam="2">  1       21 0.20306535E+00 0.62946453E+03</pdfrwt>
<totfact> 0.42110240E+02</totfact>
</mgrwt>
</event>
<event>
 4    1  0.4949719E-002  0.4055235E+03  0.7818608E-02  0.1041884E+00
         21   -1    0    0  503  502  0.00000000000E+00  0.00000000000E+00  0.90754898595E+03  0.90754898595E+03  0.00000000000E+00 0.  1.
         21   -1    0    0  501  503 -0.00000000000E+00 -0.00000000000E+00 -0.40065275955E+03  0.40065275955E+03  0.00000000000E+00 0.  1.
    9000005    1    1    2  501    0  0.66275528396E+02  0.75408983833E+01 -0.23064579606E+03  0.46652630585E+03  0.40000000000E+03 0.  1.
   -9000005    1    1    2    0  502 -0.66275528396E+02 -0.75408983833E+01  0.73754202246E+03  0.84167543965E+03  0.40000000000E+03 0.  1.
<mgrwt>
<rscale>  2 0.40552350E+03</rscale>
<asrwt>0</asrwt>
<pdfrwt beam="1">  1       21 0.13962292E+00 0.40552350E+03</pdfrwt>
<pdfrwt beam="2">  1       21 0.61638887E-01 0.40552350E+03</pdfrwt>
<totfact> 0.75654914E+02</totfact>
</mgrwt>
</event>
<event>
 4    1  0.4949719E-002  0.4239818E+03  0.7818608E-02  0.1035778E+00
         21   -1    0    0  503  502  0.00000000000E+00  0.00000000000E+00  0.89130401425E+03  0.89130401425E+03  0.00000000000E+00 0.  1.
         21   -1    0    0  501  503 -0.00000000000E+00 -0.00000000000E+00 -0.20222336930E+03  0.20222336930E+03  0.00000000000E+00 0.  1.
    9000005    1    1    2  501    0  0.79103313371E+02 -0.11620338274E+03  0.37281305412E+03  0.56457960791E+03  0.40000000000E+03 0.  1.
   -9000005    1    1    2    0  502 -0.79103313371E+02  0.11620338274E+03  0.31626759082E+03  0.52894777564E+03  0.40000000000E+03 0.  1.
<mgrwt>
<rscale>  2 0.42398179E+03</rscale>
<asrwt>0</asrwt>
<pdfrwt beam="1">  1       21 0.13712369E+00 0.42398179E+03</pdfrwt>
<pdfrwt beam="2">  1       21 0.31111288E-01 0.42398179E+03</pdfrwt>
<totfact> 0.32779737E+03</totfact>
</mgrwt>
</event>
<event>
 4    1  0.4949719E-002  0.4096065E+03  0.7818608E-02  0.1040503E+00
         21   -1    0    0  503  502  0.00000000000E+00  0.00000000000E+00  0.86301346905E+03  0.86301346905E+03  0.00000000000E+00 0.  1.
         21   -1    0    0  501  503 -0.00000000000E+00 -0.00000000000E+00 -0.20448029105E+03  0.20448029105E+03  0.00000000000E+00 0.  1.
    9000005    1    1    2  501    0  0.49462201177E+02  0.73013350853E+02  0.44772212501E+03  0.60682168713E+03  0.40000000000E+03 0.  1.
   -9000005    1    1    2    0  502 -0.49462201177E+02 -0.73013350853E+02  0.21081105299E+03  0.46067207297E+03  0.40000000000E+03 0.  1.
<mgrwt>
<rscale>  2 0.40960647E+03</rscale>
<asrwt>0</asrwt>
<pdfrwt beam="1">  1       21 0.13277130E+00 0.40960647E+03</pdfrwt>
<pdfrwt beam="2">  1       21 0.31458507E-01 0.40960647E+03</pdfrwt>
<totfact> 0.35078419E+03</totfact>
</mgrwt>
</event>
<event>
 4    1  0.4949719E-002  0.4833854E+03  0.7818608E-02  0.1018209E+00
         21   -1    0    0  503  502  0.00000000000E+00  0.00000000000E+00  0.10927049492E+04  0.10927049492E+04  0.00000000000E+00 0.  1.
         21   -1    0    0  501  503 -0.00000000000E+00 -0.00000000000E+00 -0.22307948992E+03  0.22307948992E+03  0.00000000000E+00 0.  1.
    9000005    1    1    2  501    0 -0.26205334633E+03 -0.70636208283E+02  0.30090527429E+03  0.56939038834E+03  0.40000000000E+03 0.  1.
   -9000005    1    1    2    0  502  0.26205334633E+03  0.70636208283E+02  0.56872018502E+03  0.74639405081E+03  0.40000000000E+03 0.  1.
<mgrwt>
<rscale>  2 0.48338538E+03</rscale>
<asrwt>0</asrwt>
<pdfrwt beam="1">  1       21 0.16810845E+00 0.48338538E+03</pdfrwt>
<pdfrwt beam="2">  1       21 0.34319922E-01 0.48338538E+03</pdfrwt>
<totfact> 0.15066220E+03</totfact>
</mgrwt>
</event>
<event>
 4    1  0.4949719E-002  0.4786871E+03  0.7818608E-02  0.1019497E+00
         21   -1    0    0  503  502  0.00000000000E+00  0.00000000000E+00  0.46995571374E+03  0.46995571374E+03  0.00000000000E+00 0. -1.
         21   -1    0    0  501  503 -0.00000000000E+00 -0.00000000000E+00 -0.61970214740E+03  0.61970214740E+03  0.00000000000E+00 0. -1.
    9000005    1    1    2  501    0  0.45037471665E+02 -0.25906177576E+03 -0.32644108872E+03  0.57940069202E+03  0.40000000000E+03 0. -1.
   -9000005    1    1    2    0  502 -0.45037471665E+02  0.25906177576E+03  0.17669465505E+03  0.51025716912E+03  0.40000000000E+03 0. -1.
<mgrwt>
<rscale>  2 0.47868714E+03</rscale>
<asrwt>0</asrwt>
<pdfrwt beam="1">  1       21 0.72300879E-01 0.47868714E+03</pdfrwt>
<pdfrwt beam="2">  1       21 0.95338792E-01 0.47868714E+03</pdfrwt>
<totfact> 0.13414388E+03</totfact>
</mgrwt>
</event>
<event>
 4    1  0.4949719E-002  0.5813428E+03  0.7818608E-02  0.9944888E-01
         21   -1    0    0  501  502  0.00000000000E+00  0.00000000000E+00  0.11058610068E+04  0.11058610068E+04  0.00000000000E+00 0.  1.
         21   -1    0    0  502  503 -0.00000000000E+00 -0.00000000000E+00 -0.11933543293E+04  0.11933543293E+04  0.00000000000E+00 0.  1.
    9000005    1    1    2  501    0  0.38833634505E+03 -0.16478572636E+03  0.94779165787E+03  0.11118761079E+04  0.40000000000E+03 0.  1.
   -9000005    1    1    2    0  503 -0.38833634505E+03  0.16478572636E+03 -0.10352849803E+04  0.11873392283E+04  0.40000000000E+03 0.  1.
<mgrwt>
<rscale>  2 0.58134280E+03</rscale>
<asrwt>0</asrwt>
<pdfrwt beam="1">  1       21 0.17013246E+00 0.58134280E+03</pdfrwt>
<pdfrwt beam="2">  1       21 0.18359297E+00 0.58134280E+03</pdfrwt>
<totfact> 0.26185683E+01</totfact>
</mgrwt>
</event>
<event>
 4    1  0.4949719E-002  0.4475683E+03  0.7818608E-02  0.1028450E+00
         21   -1    0    0  501  502  0.00000000000E+00  0.00000000000E+00  0.63492904163E+03  0.63492904163E+03  0.00000000000E+00 0.  1.
         21   -1    0    0  502  503 -0.00000000000E+00 -0.00000000000E+00 -0.38464434116E+03  0.38464434116E+03  0.00000000000E+00 0.  1.
    9000005    1    1    2  501    0  0.20050242833E+03  0.10778881385E+02  0.34129000024E+03  0.56284657973E+03  0.40000000000E+03 0.  1.
   -9000005    1    1    2    0  503 -0.20050242833E+03 -0.10778881385E+02 -0.91005299762E+02  0.45672680306E+03  0.40000000000E+03 0.  1.
<mgrwt>
<rscale>  2 0.44756833E+03</rscale>
<asrwt>0</asrwt>
<pdfrwt beam="1">  1       21 0.97681391E-01 0.44756833E+03</pdfrwt>
<pdfrwt beam="2">  1       21 0.59176052E-01 0.44756833E+03</pdfrwt>
<totfact> 0.19998600E+03</totfact>
</mgrwt>
</event>
<event>
 4    1  0.4949719E-002  0.4171785E+03  0.7818608E-02  0.1037989E+00
         21   -1    0    0  501  502  0.00000000000E+00  0.00000000000E+00  0.30560456837E+03  0.30560456837E+03  0.00000000000E+00 0. -1.
         21   -1    0    0  502  503 -0.00000000000E+00 -0.00000000000E+00 -0.12661906892E+04  0.12661906892E+04  0.00000000000E+00 0. -1.
    9000005    1    1    2  501    0  0.10292623747E+03 -0.58686375229E+02  0.10266914848E+03  0.42962641335E+03  0.40000000000E+03 0. -1.
   -9000005    1    1    2    0  503 -0.10292623747E+03  0.58686375229E+02 -0.10632552693E+04  0.11421688443E+04  0.40000000000E+03 0. -1.
<mgrwt>
<rscale>  2 0.41717850E+03</rscale>
<asrwt>0</asrwt>
<pdfrwt beam="1">  1       21 0.47016088E-01 0.41717850E+03</pdfrwt>
<pdfrwt beam="2">  1       21 0.19479857E+00 0.41717850E+03</pdfrwt>
<totfact> 0.52691156E+02</totfact>
</mgrwt>
</event>
<event>
 4    1  0.4949719E-002  0.4129562E+03  0.7818608E-02  0.1039384E+00
         21   -1    0    0  501  502  0.00000000000E+00  0.00000000000E+00  0.36308071499E+03  0.36308071499E+03  0.00000000000E+00 0.  1.
         21   -1    0    0  502  503 -0.00000000000E+00 -0.00000000000E+00 -0.91904721479E+03  0.91904721479E+03  0.00000000000E+00 0.  1.
    9000005    1    1    2  501    0 -0.82513216001E+01 -0.10229710886E+03  0.17027859192E+03  0.44668510346E+03  0.40000000000E+03 0.  1.
   -9000005    1    1    2    0  503  0.82513216001E+01  0.10229710886E+03 -0.72624509172E+03  0.83544282631E+03  0.40000000000E+03 0.  1.
<mgrwt>
<rscale>  2 0.41295615E+03</rscale>
<asrwt>0</asrwt>
<pdfrwt beam="1">  1       21 0.55858572E-01 0.41295615E+03</pdfrwt>
<pdfrwt beam="2">  1       21 0.14139188E+00 0.41295615E+03</pdfrwt>
<totfact> 0.90348410E+02</totfact>
</mgrwt>
</event>
<event>
 4    1  0.4949719E-002  0.5963926E+03  0.7818608E-02  0.9912919E-01
         21   -1    0    0  501  502  0.00000000000E+00  0.00000000000E+00  0.22163038186E+04  0.22163038186E+04  0.00000000000E+00 0. -1.
         21   -1    0    0  502  503 -0.00000000000E+00 -0.00000000000E+00 -0.21822841531E+03  0.21822841531E+03  0.00000000000E+00 0.  1.
    9000005    1    1    2  501    0  0.42642093291E+03 -0.11768323358E+03  0.16251900828E+04  0.17311634702E+04  0.40000000000E+03 0. -1.
   -9000005    1    1    2    0  503 -0.42642093291E+03  0.11768323358E+03  0.37288532055E+03  0.70336876372E+03  0.40000000000E+03 0.  1.
<mgrwt>
<rscale>  2 0.59639262E+03</rscale>
<asrwt>0</asrwt>
<pdfrwt beam="1">  1       21 0.34096980E+00 0.59639262E+03</pdfrwt>
<pdfrwt beam="2">  1       21 0.33573604E-01 0.59639262E+03</pdfrwt>
<totfact> 0.11922387E+02</totfact>
</mgrwt>
</event>
<event>
 4    1  0.4949719E-002  0.4250596E+03  0.7818608E-02  0.1035432E+00
         21   -1    0    0  503  502  0.00000000000E+00  0.00000000000E+00  0.69862810893E+03  0.69862810893E+03  0.00000000000E+00 0.  1.
         21   -1    0    0  501  503 -0.00000000000E+00 -0.00000000000E+00 -0.37937113941E+03  0.37937113941E+03  0.00000000000E+00 0.  1.
    9000005    1    1    2  501    0 -0.13293111110E+03  0.54817538877E+02 -0.14446778764E+03  0.44893939962E+03  0.40000000000E+03 0.  1.
   -9000005    1    1    2    0  502  0.13293111110E+03 -0.54817538877E+02  0.46372475716E+03  0.62905984872E+03  0.40000000000E+03 0.  1.
<mgrwt>
<rscale>  2 0.42505958E+03</rscale>
<asrwt>0</asrwt>
<pdfrwt beam="1">  1       21 0.10748125E+00 0.42505958E+03</pdfrwt>
<pdfrwt beam="2">  1       21 0.58364791E-01 0.42505958E+03</pdfrwt>
<totfact> 0.16461584E+03</totfact>
</mgrwt>
</event>
<event>
 4    1  0.4949719E-002  0.5050035E+03  0.7818608E-02  0.1012481E+00
         21   -1    0    0  501  502  0.00000000000E+00  0.00000000000E+00  0.21364641262E+03  0.21364641262E+03  0.00000000000E+00 0.  1.
         21   -1    0    0  502  503 -0.00000000000E+00 -0.00000000000E+00 -0.11937492071E+04  0.11937492071E+04  0.00000000000E+00 0.  1.
    9000005    1    1    2  501    0  0.21833828589E+03 -0.21761651300E+03 -0.49481392888E+03  0.70701441147E+03  0.40000000000E+03 0.  1.
   -9000005    1    1    2    0  503 -0.21833828589E+03  0.21761651300E+03 -0.48528886564E+03  0.70038120830E+03  0.40000000000E+03 0.  1.
<mgrwt>
<rscale>  2 0.50500352E+03</rscale>
<asrwt>0</asrwt>
<pdfrwt beam="1">  1       21 0.32868679E-01 0.50500352E+03</pdfrwt>
<pdfrwt beam="2">  1       21 0.18365372E+00 0.50500352E+03</pdfrwt>
<totfact> 0.12612053E+03</totfact>
</mgrwt>
</event>
<event>
 4    1  0.4949719E-002  0.4124439E+03  0.7818608E-02  0.1039554E+00
         21   -1    0    0  503  502  0.00000000000E+00  0.00000000000E+00  0.56975511668E+03  0.56975511668E+03  0.00000000000E+00 0. -1.
         21   -1    0    0  501  503 -0.00000000000E+00 -0.00000000000E+00 -0.38943939718E+03  0.38943939718E+03  0.00000000000E+00 0. -1.
    9000005    1    1    2  501    0  0.99385827884E+02  0.15245391401E+02 -0.14151395838E+03  0.43604605853E+03  0.40000000000E+03 0. -1.
   -9000005    1    1    2    0  502 -0.99385827884E+02 -0.15245391401E+02  0.32182967789E+03  0.52314845533E+03  0.40000000000E+03 0. -1.
<mgrwt>
<rscale>  2 0.41244389E+03</rscale>
<asrwt>0</asrwt>
<pdfrwt beam="1">  1       21 0.87654633E-01 0.41244389E+03</pdfrwt>
<pdfrwt beam="2">  1       21 0.59913754E-01 0.41244389E+03</pdfrwt>
<totfact> 0.25532511E+03</totfact>
</mgrwt>
</event>
<event>
 4    1  0.4949719E-002  0.4327828E+03  0.7818608E-02  0.1032984E+00
         21   -1    0    0  501  502  0.00000000000E+00  0.00000000000E+00  0.84211562247E+03  0.84211562247E+03  0.00000000000E+00 0.  1.
         21   -1    0    0  502  503 -0.00000000000E+00 -0.00000000000E+00 -0.65187423251E+03  0.65187423251E+03  0.00000000000E+00 0.  1.
    9000005    1    1    2  501    0  0.16558083331E+02 -0.16439825622E+03  0.70143195002E+03  0.82420127231E+03  0.40000000000E+03 0.  1.
   -9000005    1    1    2    0  503 -0.16558083331E+02  0.16439825622E+03 -0.51119056007E+03  0.66978858267E+03  0.40000000000E+03 0.  1.
<mgrwt>
<rscale>  2 0.43278281E+03</rscale>
<asrwt>0</asrwt>
<pdfrwt beam="1">  1       21 0.12955625E+00 0.43278281E+03</pdfrwt>
<pdfrwt beam="2">  1       21 0.10028834E+00 0.43278281E+03</pdfrwt>
<totfact> 0.29593279E+02</totfact>
</mgrwt>
</event>
<event>
 4    1  0.4949719E-002  0.5895602E+03  0.7818608E-02  0.9927305E-01
         21   -1    0    0  501  502  0.00000000000E+00  0.00000000000E+00  0.12262266542E+04  0.12262266542E+04  0.00000000000E+00 0. -1.
         21   -1    0    0  502  503 -0.00000000000E+00 -0.00000000000E+00 -0.35487769987E+03  0.35487769987E+03  0.00000000000E+00 0. -1.
    9000005    1    1    2  501    0  0.32192575929E+03 -0.28973278178E+03  0.79032967786E+03  0.98600318409E+03  0.40000000000E+03 0. -1.
   -9000005    1    1    2    0  503 -0.32192575929E+03  0.28973278178E+03  0.81019276457E+02  0.59510116997E+03  0.40000000000E+03 0. -1.
<mgrwt>
<rscale>  2 0.58956024E+03</rscale>
<asrwt>0</asrwt>
<pdfrwt beam="1">  1       21 0.18865025E+00 0.58956024E+03</pdfrwt>
<pdfrwt beam="2">  1       21 0.54596570E-01 0.58956024E+03</pdfrwt>
<totfact> 0.39098904E+02</totfact>
</mgrwt>
</event>
<event>
 4    1  0.4949719E-002  0.4844125E+03  0.7818608E-02  0.1017929E+00
         21   -1    0    0  501  502  0.00000000000E+00  0.00000000000E+00  0.63792195322E+03  0.63792195322E+03  0.00000000000E+00 0.  1.
         21   -1    0    0  502  503 -0.00000000000E+00 -0.00000000000E+00 -0.36893462756E+03  0.36893462756E+03  0.00000000000E+00 0. -1.
    9000005    1    1    2  501    0  0.77436949874E+02 -0.26202856450E+03  0.10711584348E+03  0.49611415395E+03  0.40000000000E+03 0.  1.
   -9000005    1    1    2    0  503 -0.77436949874E+02  0.26202856450E+03  0.16187148219E+03  0.51074242683E+03  0.40000000000E+03 0.  1.
<mgrwt>
<rscale>  2 0.48441248E+03</rscale>
<asrwt>0</asrwt>
<pdfrwt beam="1">  1       21 0.98141839E-01 0.48441248E+03</pdfrwt>
<pdfrwt beam="2">  1       21 0.56759174E-01 0.48441248E+03</pdfrwt>
<totfact> 0.21366452E+03</totfact>
</mgrwt>
</event>
<event>
 4    1  0.4949719E-002  0.4228794E+03  0.7818608E-02  0.1036133E+00
         21   -1    0    0  501  502  0.00000000000E+00  0.00000000000E+00  0.17102030352E+04  0.17102030352E+04  0.00000000000E+00 0. -1.
         21   -1    0    0  502  503 -0.00000000000E+00 -0.00000000000E+00 -0.13402526929E+03  0.13402526929E+03  0.00000000000E+00 0. -1.
    9000005    1    1    2  501    0  0.11411834539E+03  0.76183773278E+02  0.12204150212E+04  0.12916035723E+04  0.40000000000E+03 0. -1.
   -9000005    1    1    2    0  503 -0.11411834539E+03 -0.76183773278E+02  0.35576274469E+03  0.55262473214E+03  0.40000000000E+03 0. -1.
<mgrwt>
<rscale>  2 0.42287937E+03</rscale>
<asrwt>0</asrwt>
<pdfrwt beam="1">  1       21 0.26310814E+00 0.42287937E+03</pdfrwt>
<pdfrwt beam="2">  1       21 0.20619273E-01 0.42287937E+03</pdfrwt>
<totfact> 0.10078294E+03</totfact>
</mgrwt>
</event>
<event>
 4    1  0.4949719E-002  0.5592084E+03  0.7818608E-02  0.9993847E-01
         21   -1    0    0  501  502  0.00000000000E+00  0.00000000000E+00  0.81571818293E+03  0.81571818293E+03  0.00000000000E+00 0.  1.
         21   -1    0    0  502  503 -0.00000000000E+00 -0.00000000000E+00 -0.55157584901E+03  0.55157584901E+03  0.00000000000E+00 0. -1.
    9000005    1    1    2  501    0  0.23954100154E+03 -0.30876229820E+03  0.50961053289E+03  0.75658241021E+03  0.40000000000E+03 0.  1.
   -9000005    1    1    2    0  503 -0.23954100154E+03  0.30876229820E+03 -0.24546819897E+03  0.61071162173E+03  0.40000000000E+03 0. -1.
<mgrwt>
<rscale>  2 0.55920841E+03</rscale>
<asrwt>0</asrwt>
<pdfrwt beam="1">  1       21 0.12549511E+00 0.55920841E+03</pdfrwt>
<pdfrwt beam="2">  1       21 0.84857823E-01 0.55920841E+03</pdfrwt>
<totfact> 0.45367650E+02</totfact>
</mgrwt>
</event>
<event>
 4    1  0.4949719E-002  0.4785500E+03  0.7818608E-02  0.1019534E+00
         21   -1    0    0  503  502  0.00000000000E+00  0.00000000000E+00  0.64552433278E+03  0.64552433278E+03  0.00000000000E+00 0.  1.
         21   -1    0    0  501  503 -0.00000000000E+00 -0.00000000000E+00 -0.43744241280E+03  0.43744241280E+03  0.00000000000E+00 0.  1.
    9000005    1    1    2  501    0 -0.19657995864E+03 -0.17425961328E+03 -0.13136392083E+03  0.49625252912E+03  0.40000000000E+03 0.  1.
   -9000005    1    1    2    0  502  0.19657995864E+03  0.17425961328E+03  0.33944584081E+03  0.58671421647E+03  0.40000000000E+03 0.  1.
<mgrwt>
<rscale>  2 0.47854999E+03</rscale>
<asrwt>0</asrwt>
<pdfrwt beam="1">  1       21 0.99311436E-01 0.47854999E+03</pdfrwt>
<pdfrwt beam="2">  1       21 0.67298832E-01 0.47854999E+03</pdfrwt>
<totfact> 0.14287939E+03</totfact>
</mgrwt>
</event>
<event>
 4    1  0.4949719E-002  0.4247901E+03  0.7818608E-02  0.1035518E+00
         21   -1    0    0  501  502  0.00000000000E+00  0.00000000000E+00  0.16284058612E+04  0.16284058612E+04  0.00000000000E+00 0. -1.
         21   -1    0    0  502  503 -0.00000000000E+00 -0.00000000000E+00 -0.13719269856E+03  0.13719269856E+03  0.00000000000E+00 0. -1.
    9000005    1    1    2  501    0 -0.11033828163E+03  0.90950979237E+02  0.11327225611E+04  0.12097549411E+04  0.40000000000E+03 0. -1.
   -9000005    1    1    2    0  503  0.11033828163E+03 -0.90950979237E+02  0.35849060147E+03  0.55584361862E+03  0.40000000000E+03 0. -1.
<mgrwt>
<rscale>  2 0.42479009E+03</rscale>
<asrwt>0</asrwt>
<pdfrwt beam="1">  1       21 0.25052397E+00 0.42479009E+03</pdfrwt>
<pdfrwt beam="2">  1       21 0.21106570E-01 0.42479009E+03</pdfrwt>
<totfact> 0.11487222E+03</totfact>
</mgrwt>
</event>
<event>
 4    1  0.4949719E-002  0.4410230E+03  0.7818608E-02  0.1030433E+00
         21   -1    0    0  501  502  0.00000000000E+00  0.00000000000E+00  0.13992803803E+04  0.13992803803E+04  0.00000000000E+00 0. -1.
         21   -1    0    0  502  503 -0.00000000000E+00 -0.00000000000E+00 -0.30667281959E+03  0.30667281959E+03  0.00000000000E+00 0.  1.
    9000005    1    1    2  501    0 -0.64198734760E+02  0.17429794065E+03  0.11770136486E+04  0.12569257649E+04  0.40000000000E+03 0. -1.
   -9000005    1    1    2    0  503  0.64198734760E+02 -0.17429794065E+03 -0.84406087860E+02  0.44902743494E+03  0.40000000000E+03 0.  1.
<mgrwt>
<rscale>  2 0.44102296E+03</rscale>
<asrwt>0</asrwt>
<pdfrwt beam="1">  1       21 0.21527390E+00 0.44102296E+03</pdfrwt>
<pdfrwt beam="2">  1       21 0.47180434E-01 0.44102296E+03</pdfrwt>
<totfact> 0.37873942E+02</totfact>
</mgrwt>
</event>
<event>
 4    1  0.4949719E-002  0.4278785E+03  0.7818608E-02  0.1034532E+00
         21   -1    0    0  501  502  0.00000000000E+00  0.00000000000E+00  0.54906779306E+03  0.54906779306E+03  0.00000000000E+00 0. -1.
         21   -1    0    0  502  503 -0.00000000000E+00 -0.00000000000E+00 -0.38145896588E+03  0.38145896588E+03  0.00000000000E+00 0. -1.
    9000005    1    1    2  501    0 -0.11281900623E+03  0.10174424734E+03  0.24888301771E+03  0.49499775407E+03  0.40000000000E+03 0.  1.
   -9000005    1    1    2    0  503  0.11281900623E+03 -0.10174424734E+03 -0.81274190533E+02  0.43552900487E+03  0.40000000000E+03 0.  1.
<mgrwt>
<rscale>  2 0.42787851E+03</rscale>
<asrwt>0</asrwt>
<pdfrwt beam="1">  1       21 0.84471968E-01 0.42787851E+03</pdfrwt>
<pdfrwt beam="2">  1       21 0.58685995E-01 0.42787851E+03</pdfrwt>
<totfact> 0.28958608E+03</totfact>
</mgrwt>
</event>
<event>
 4    1  0.4949719E-002  0.4303105E+03  0.7818608E-02  0.1033762E+00
         21   -1    0    0  501  502  0.00000000000E+00  0.00000000000E+00  0.22511556275E+03  0.22511556275E+03  0.00000000000E+00 0. -1.
         21   -1    0    0  502  503 -0.00000000000E+00 -0.00000000000E+00 -0.93770718778E+03  0.93770718778E+03  0.00000000000E+00 0.  1.
    9000005    1    1    2  501    0 -0.36271867346E+02 -0.15443918660E+03 -0.15254017749E+03  0.45654749640E+03  0.40000000000E+03 0. -1.
   -9000005    1    1    2    0  503  0.36271867346E+02  0.15443918660E+03 -0.56005144754E+03  0.70627525414E+03  0.40000000000E+03 0.  1.
<mgrwt>
<rscale>  2 0.43031048E+03</rscale>
<asrwt>0</asrwt>
<pdfrwt beam="1">  1       21 0.34633163E-01 0.43031048E+03</pdfrwt>
<pdfrwt beam="2">  1       21 0.14426265E+00 0.43031048E+03</pdfrwt>
<totfact> 0.23037714E+03</totfact>
</mgrwt>
</event>
<event>
 4    1  0.4949719E-002  0.4437490E+03  0.7818608E-02  0.1029603E+00
         21   -1    0    0  503  502  0.00000000000E+00  0.00000000000E+00  0.31152580017E+03  0.31152580017E+03  0.00000000000E+00 0. -1.
         21   -1    0    0  501  503 -0.00000000000E+00 -0.00000000000E+00 -0.85300267308E+03  0.85300267308E+03  0.00000000000E+00 0. -1.
    9000005    1    1    2  501    0 -0.72107012457E+02 -0.17808360384E+03  0.25575828214E+02  0.44448544880E+03  0.40000000000E+03 0. -1.
   -9000005    1    1    2    0  502  0.72107012457E+02  0.17808360384E+03 -0.56705270113E+03  0.72004302445E+03  0.40000000000E+03 0. -1.
<mgrwt>
<rscale>  2 0.44374902E+03</rscale>
<asrwt>0</asrwt>
<pdfrwt beam="1">  1       21 0.47927048E-01 0.44374902E+03</pdfrwt>
<pdfrwt beam="2">  1       21 0.13123118E+00 0.44374902E+03</pdfrwt>
<totfact> 0.15041828E+03</totfact>
</mgrwt>
</event>
<event>
 4    1  0.4949719E-002  0.4170243E+03  0.7818608E-02  0.1038039E+00
         21   -1    0    0  501  502  0.00000000000E+00  0.00000000000E+00  0.16177543937E+04  0.16177543937E+04  0.00000000000E+00 0.  1.
         21   -1    0    0  502  503 -0.00000000000E+00 -0.00000000000E+00 -0.10150079918E+04  0.10150079918E+04  0.00000000000E+00 0.  1.
    9000005    1    1    2  501    0 -0.11522881227E+03  0.25131169455E+02  0.15460943534E+04  0.16013484956E+04  0.40000000000E+03 0.  1.
   -9000005    1    1    2    0  503  0.11522881227E+03 -0.25131169455E+02 -0.94334795144E+03  0.10314138899E+04  0.40000000000E+03 0.  1.
<mgrwt>
<rscale>  2 0.41702429E+03</rscale>
<asrwt>0</asrwt>
<pdfrwt beam="1">  1       21 0.24888529E+00 0.41702429E+03</pdfrwt>
<pdfrwt beam="2">  1       21 0.15615508E+00 0.41702429E+03</pdfrwt>
<totfact> 0.13894091E+01</totfact>
</mgrwt>
</event>
<event>
 4    1  0.4949719E-002  0.4879837E+03  0.7818608E-02  0.1016964E+00
         21   -1    0    0  501  502  0.00000000000E+00  0.00000000000E+00  0.10110946054E+04  0.10110946054E+04  0.00000000000E+00 0. -1.
         21   -1    0    0  502  503 -0.00000000000E+00 -0.00000000000E+00 -0.24194023942E+03  0.24194023942E+03  0.00000000000E+00 0. -1.
    9000005    1    1    2  501    0  0.13569713321E+03 -0.24436522291E+03  0.48667570948E+03  0.68918888581E+03  0.40000000000E+03 0. -1.
   -9000005    1    1    2    0  503 -0.13569713321E+03  0.24436522291E+03  0.28247865654E+03  0.56384595905E+03  0.40000000000E+03 0. -1.
<mgrwt>
<rscale>  2 0.48798368E+03</rscale>
<asrwt>0</asrwt>
<pdfrwt beam="1">  1       21 0.15555301E+00 0.48798368E+03</pdfrwt>
<pdfrwt beam="2">  1       21 0.37221576E-01 0.48798368E+03</pdfrwt>
<totfact> 0.15854280E+03</totfact>
</mgrwt>
</event>
<event>
 4    1  0.4949719E-002  0.4322574E+03  0.7818608E-02  0.1033149E+00
         21   -1    0    0  503  502  0.00000000000E+00  0.00000000000E+00  0.23319586974E+04  0.23319586974E+04  0.00000000000E+00 0. -1.
         21   -1    0    0  501  503 -0.00000000000E+00 -0.00000000000E+00 -0.24965348509E+03  0.24965348509E+03  0.00000000000E+00 0. -1.
    9000005    1    1    2  501    0 -0.31823684254E+01 -0.16381800178E+03 -0.22535928213E+02  0.43284446772E+03  0.40000000000E+03 0. -1.
   -9000005    1    1    2    0  502  0.31823684254E+01  0.16381800178E+03  0.21048411405E+04  0.21487677147E+04  0.40000000000E+03 0. -1.
<mgrwt>
<rscale>  2 0.43225741E+03</rscale>
<asrwt>0</asrwt>
<pdfrwt beam="1">  1       21 0.35876286E+00 0.43225741E+03</pdfrwt>
<pdfrwt beam="2">  1       21 0.38408230E-01 0.43225741E+03</pdfrwt>
<totfact> 0.77640685E+01</totfact>
</mgrwt>
</event>
<event>
 4    1  0.4949719E-002  0.5162453E+03  0.7818608E-02  0.1009624E+00
         21   -1    0    0  503  502  0.00000000000E+00  0.00000000000E+00  0.29654197096E+03  0.29654197096E+03  0.00000000000E+00 0. -1.
         21   -1    0    0  501  503 -0.00000000000E+00 -0.00000000000E+00 -0.91470783463E+03  0.91470783463E+03  0.00000000000E+00 0.  1.
    9000005    1    1    2  501    0  0.22687473730E+03 -0.23459981834E+03 -0.38914200875E+03  0.64648335181E+03  0.40000000000E+03 0.  1.
   -9000005    1    1    2    0  502 -0.22687473730E+03  0.23459981834E+03 -0.22902385491E+03  0.56476645378E+03  0.40000000000E+03 0. -1.
<mgrwt>
<rscale>  2 0.51624531E+03</rscale>
<asrwt>0</asrwt>
<pdfrwt beam="1">  1       21 0.45621842E-01 0.51624531E+03</pdfrwt>
<pdfrwt beam="2">  1       21 0.14072428E+00 0.51624531E+03</pdfrwt>
<totfact> 0.13506882E+03</totfact>
</mgrwt>
</event>
<event>
 4    1  0.4949719E-002  0.4656605E+03  0.7818608E-02  0.1023152E+00
         21   -1    0    0  501  502  0.00000000000E+00  0.00000000000E+00  0.30658145118E+03  0.30658145118E+03  0.00000000000E+00 0.  1.
         21   -1    0    0  502  503 -0.00000000000E+00 -0.00000000000E+00 -0.93436600429E+03  0.93436600429E+03  0.00000000000E+00 0.  1.
    9000005    1    1    2  501    0 -0.25676361348E+02  0.23702417689E+03 -0.80077209669E+01  0.46572938447E+03  0.40000000000E+03 0.  1.
   -9000005    1    1    2    0  503  0.25676361348E+02 -0.23702417689E+03 -0.61977683214E+03  0.77521807101E+03  0.40000000000E+03 0.  1.
<mgrwt>
<rscale>  2 0.46566054E+03</rscale>
<asrwt>0</asrwt>
<pdfrwt beam="1">  1       21 0.47166377E-01 0.46566054E+03</pdfrwt>
<pdfrwt beam="2">  1       21 0.14374862E+00 0.46566054E+03</pdfrwt>
<totfact> 0.12122833E+03</totfact>
</mgrwt>
</event>
<event>
 4    1  0.4949719E-002  0.4718457E+03  0.7818608E-02  0.1021401E+00
         21   -1    0    0  501  502  0.00000000000E+00  0.00000000000E+00  0.80631281810E+03  0.80631281810E+03  0.00000000000E+00 0.  1.
         21   -1    0    0  502  503 -0.00000000000E+00 -0.00000000000E+00 -0.33766617334E+03  0.33766617334E+03  0.00000000000E+00 0. -1.
    9000005    1    1    2  501    0 -0.17170448349E+03 -0.18208772004E+03  0.47852463166E+03  0.67202990302E+03  0.40000000000E+03 0. -1.
   -9000005    1    1    2    0  503  0.17170448349E+03  0.18208772004E+03 -0.98779868997E+01  0.47194908843E+03  0.40000000000E+03 0. -1.
<mgrwt>
<rscale>  2 0.47184570E+03</rscale>
<asrwt>0</asrwt>
<pdfrwt beam="1">  1       21 0.12404812E+00 0.47184570E+03</pdfrwt>
<pdfrwt beam="2">  1       21 0.51948642E-01 0.47184570E+03</pdfrwt>
<totfact> 0.14495382E+03</totfact>
</mgrwt>
</event>
<event>
 4    1  0.4949719E-002  0.4187939E+03  0.7818608E-02  0.1037460E+00
         21   -1    0    0  503  502  0.00000000000E+00  0.00000000000E+00  0.34452434353E+03  0.34452434353E+03  0.00000000000E+00 0. -1.
         21   -1    0    0  501  503 -0.00000000000E+00 -0.00000000000E+00 -0.52111537354E+03  0.52111537354E+03  0.00000000000E+00 0. -1.
    9000005    1    1    2  501    0 -0.12267882876E+03 -0.18390303382E+02 -0.22502040214E+02  0.41939794956E+03  0.40000000000E+03 0. -1.
   -9000005    1    1    2    0  502  0.12267882876E+03  0.18390303382E+02 -0.15408898980E+03  0.44624176750E+03  0.40000000000E+03 0. -1.
<mgrwt>
<rscale>  2 0.41879386E+03</rscale>
<asrwt>0</asrwt>
<pdfrwt beam="1">  1       21 0.53003745E-01 0.41879386E+03</pdfrwt>
<pdfrwt beam="2">  1       21 0.80171596E-01 0.41879386E+03</pdfrwt>
<totfact> 0.40876242E+03</totfact>
</mgrwt>
</event>
<event>
 4    1  0.4949719E-002  0.4824327E+03  0.7818608E-02  0.1018469E+00
         21   -1    0    0  503  502  0.00000000000E+00  0.00000000000E+00  0.21297562639E+03  0.21297562639E+03  0.00000000000E+00 0.  1.
         21   -1    0    0  501  503 -0.00000000000E+00 -0.00000000000E+00 -0.10964254165E+04  0.10964254165E+04  0.00000000000E+00 0. -1.
    9000005    1    1    2  501    0  0.20523044544E+03  0.17499091256E+03 -0.40411654553E+03  0.62932625687E+03  0.40000000000E+03 0.  1.
   -9000005    1    1    2    0  502 -0.20523044544E+03 -0.17499091256E+03 -0.47933324459E+03  0.68007478602E+03  0.40000000000E+03 0. -1.
<mgrwt>
<rscale>  2 0.48243275E+03</rscale>
<asrwt>0</asrwt>
<pdfrwt beam="1">  1       21 0.32765480E-01 0.48243275E+03</pdfrwt>
<pdfrwt beam="2">  1       21 0.16868084E+00 0.48243275E+03</pdfrwt>
<totfact> 0.16389051E+03</totfact>
</mgrwt>
</event>
<event>
 4    1  0.4949719E-002  0.5215405E+03  0.7818608E-02  0.1008305E+00
         21   -1    0    0  503  502  0.00000000000E+00  0.00000000000E+00  0.12494602160E+04  0.12494602160E+04  0.00000000000E+00 0. -1.
         21   -1    0    0  501  503 -0.00000000000E+00 -0.00000000000E+00 -0.21936405286E+03  0.21936405286E+03  0.00000000000E+00 0. -1.
    9000005    1    1    2  501    0  0.30713848028E+03 -0.13293018537E+03  0.57905909171E+03  0.77930347871E+03  0.40000000000E+03 0. -1.
   -9000005    1    1    2    0  502 -0.30713848028E+03  0.13293018537E+03  0.45103707146E+03  0.68952079018E+03  0.40000000000E+03 0. -1.
<mgrwt>
<rscale>  2 0.52154049E+03</rscale>
<asrwt>0</asrwt>
<pdfrwt beam="1">  1       21 0.19222465E+00 0.52154049E+03</pdfrwt>
<pdfrwt beam="2">  1       21 0.33748316E-01 0.52154049E+03</pdfrwt>
<totfact> 0.10366901E+03</totfact>
</mgrwt>
</event>
<event>
 4    1  0.4949719E-002  0.4750107E+03  0.7818608E-02  0.1020515E+00
         21   -1    0    0  501  502  0.00000000000E+00  0.00000000000E+00  0.15905799378E+04  0.15905799378E+04  0.00000000000E+00 0.  1.
         21   -1    0    0  502  503 -0.00000000000E+00 -0.00000000000E+00 -0.14702970051E+03  0.14702970051E+03  0.00000000000E+00 0.  1.
    9000005    1    1    2  501    0  0.18643758321E+03 -0.17571612183E+03  0.88473184452E+03  0.10041840293E+04  0.40000000000E+03 0.  1.
   -9000005    1    1    2    0  503 -0.18643758321E+03  0.17571612183E+03  0.55881839276E+03  0.73342560904E+03  0.40000000000E+03 0.  1.
<mgrwt>
<rscale>  2 0.47501066E+03</rscale>
<asrwt>0</asrwt>
<pdfrwt beam="1">  1       21 0.24470459E+00 0.47501066E+03</pdfrwt>
<pdfrwt beam="2">  1       21 0.22619955E-01 0.47501066E+03</pdfrwt>
<totfact> 0.10655559E+03</totfact>
</mgrwt>
</event>
<event>
 4    1  0.4949719E-002  0.4392237E+03  0.7818608E-02  0.1030985E+00
         21   -1    0    0  503  502  0.00000000000E+00  0.00000000000E+00  0.90277732653E+03  0.90277732653E+03  0.00000000000E+00 0.  1.
         21   -1    0    0  501  503 -0.00000000000E+00 -0.00000000000E+00 -0.38584303851E+03  0.38584303851E+03  0.00000000000E+00 0.  1.
    9000005    1    1    2  501    0 -0.77735148076E+02 -0.16393504607E+03 -0.17190372088E+03  0.47166549781E+03  0.40000000000E+03 0.  1.
   -9000005    1    1    2    0  502  0.77735148076E+02  0.16393504607E+03  0.68883800890E+03  0.81695486722E+03  0.40000000000E+03 0.  1.
<mgrwt>
<rscale>  2 0.43922369E+03</rscale>
<asrwt>0</asrwt>
<pdfrwt beam="1">  1       21 0.13888882E+00 0.43922369E+03</pdfrwt>
<pdfrwt beam="2">  1       21 0.59360468E-01 0.43922369E+03</pdfrwt>
<totfact> 0.82027140E+02</totfact>
</mgrwt>
</event>
<event>
 4    1  0.4949719E-002  0.4602708E+03  0.7818608E-02  0.1024703E+00
         21   -1    0    0  501  502  0.00000000000E+00  0.00000000000E+00  0.22545319205E+03  0.22545319205E+03  0.00000000000E+00 0. -1.
         21   -1    0    0  502  503 -0.00000000000E+00 -0.00000000000E+00 -0.94043670479E+03  0.94043670479E+03  0.00000000000E+00 0.  1.
    9000005    1    1    2  501    0  0.20144874132E+03  0.10614918244E+03 -0.34073394278E+03  0.57266819719E+03  0.40000000000E+03 0. -1.
   -9000005    1    1    2    0  503 -0.20144874132E+03 -0.10614918244E+03 -0.37424956996E+03  0.59322169964E+03  0.40000000000E+03 0.  1.
<mgrwt>
<rscale>  2 0.46027084E+03</rscale>
<asrwt>0</asrwt>
<pdfrwt beam="1">  1       21 0.34685106E-01 0.46027084E+03</pdfrwt>
<pdfrwt beam="2">  1       21 0.14468257E+00 0.46027084E+03</pdfrwt>
<totfact> 0.22523679E+03</totfact>
</mgrwt>
</event>
<event>
 4    1  0.4949719E-002  0.4067923E+03  0.7818608E-02  0.1041453E+00
         21   -1    0    0  503  502  0.00000000000E+00  0.00000000000E+00  0.61790993250E+03  0.61790993250E+03  0.00000000000E+00 0. -1.
         21   -1    0    0  501  503 -0.00000000000E+00 -0.00000000000E+00 -0.28625619433E+03  0.28625619433E+03  0.00000000000E+00 0. -1.
    9000005    1    1    2  501    0 -0.50326529815E+02 -0.54288188072E+02  0.51053362157E+02  0.40998342985E+03  0.40000000000E+03 0. -1.
   -9000005    1    1    2    0  502  0.50326529815E+02  0.54288188072E+02  0.28060037601E+03  0.49418269697E+03  0.40000000000E+03 0. -1.
<mgrwt>
<rscale>  2 0.40679229E+03</rscale>
<asrwt>0</asrwt>
<pdfrwt beam="1">  1       21 0.95063066E-01 0.40679229E+03</pdfrwt>
<pdfrwt beam="2">  1       21 0.44039415E-01 0.40679229E+03</pdfrwt>
<totfact> 0.40705293E+03</totfact>
</mgrwt>
</event>
<event>
 4    1  0.4949719E-002  0.4438642E+03  0.7818608E-02  0.1029568E+00
         21   -1    0    0  501  502  0.00000000000E+00  0.00000000000E+00  0.13507583048E+04  0.13507583048E+04  0.00000000000E+00 0.  1.
         21   -1    0    0  502  503 -0.00000000000E+00 -0.00000000000E+00 -0.15206520438E+03  0.15206520438E+03  0.00000000000E+00 0.  1.
    9000005    1    1    2  501    0 -0.12959864578E+03 -0.14219556580E+03  0.44750097295E+03  0.63029557250E+03  0.40000000000E+03 0.  1.
   -9000005    1    1    2    0  503  0.12959864578E+03  0.14219556580E+03  0.75119212744E+03  0.87252793666E+03  0.40000000000E+03 0.  1.
<mgrwt>
<rscale>  2 0.44386415E+03</rscale>
<asrwt>0</asrwt>
<pdfrwt beam="1">  1       21 0.20780896E+00 0.44386415E+03</pdfrwt>
<pdfrwt beam="2">  1       21 0.23394648E-01 0.44386415E+03</pdfrwt>
<totfact> 0.17364364E+03</totfact>
</mgrwt>
</event>
<event>
 4    1  0.4949719E-002  0.4072347E+03  0.7818608E-02  0.1041303E+00
         21   -1    0    0  501  502  0.00000000000E+00  0.00000000000E+00  0.18433354160E+03  0.18433354160E+03  0.00000000000E+00 0.  1.
         21   -1    0    0  502  503 -0.00000000000E+00 -0.00000000000E+00 -0.96348519232E+03  0.96348519232E+03  0.00000000000E+00 0.  1.
    9000005    1    1    2  501    0 -0.62562859222E+02 -0.43885719045E+02 -0.53727216057E+03  0.67416722126E+03  0.40000000000E+03 0.  1.
   -9000005    1    1    2    0  503  0.62562859222E+02  0.43885719045E+02 -0.24187949015E+03  0.47365151266E+03  0.40000000000E+03 0.  1.
<mgrwt>
<rscale>  2 0.40723466E+03</rscale>
<asrwt>0</asrwt>
<pdfrwt beam="1">  1       21 0.28359007E-01 0.40723466E+03</pdfrwt>
<pdfrwt beam="2">  1       21 0.14822849E+00 0.40723466E+03</pdfrwt>
<totfact> 0.32207493E+03</totfact>
</mgrwt>
</event>
<event>
 4    1  0.4949719E-002  0.4368239E+03  0.7818608E-02  0.1031726E+00
         21   -1    0    0  501  502  0.00000000000E+00  0.00000000000E+00  0.32403483806E+03  0.32403483806E+03  0.00000000000E+00 0.  1.
         21   -1    0    0  502  503 -0.00000000000E+00 -0.00000000000E+00 -0.59154479542E+03  0.59154479542E+03  0.00000000000E+00 0. -1.
    9000005    1    1    2  501    0 -0.17166205832E+03 -0.36705362516E+02 -0.10298484336E+03  0.44879953639E+03  0.40000000000E+03 0.  1.
   -9000005    1    1    2    0  503  0.17166205832E+03  0.36705362516E+02 -0.16452511399E+03  0.46678009709E+03  0.40000000000E+03 0. -1.
<mgrwt>
<rscale>  2 0.43682393E+03</rscale>
<asrwt>0</asrwt>
<pdfrwt beam="1">  1       21 0.49851514E-01 0.43682393E+03</pdfrwt>
<pdfrwt beam="2">  1       21 0.91006891E-01 0.43682393E+03</pdfrwt>
<totfact> 0.34408886E+03</totfact>
</mgrwt>
</event>
<event>
 4    1  0.4949719E-002  0.4705354E+03  0.7818608E-02  0.1021769E+00
         21   -1    0    0  503  502  0.00000000000E+00  0.00000000000E+00  0.12303175823E+04  0.12303175823E+04  0.00000000000E+00 0. -1.
         21   -1    0    0  501  503 -0.00000000000E+00 -0.00000000000E+00 -0.18098698924E+03  0.18098698924E+03  0.00000000000E+00 0.  1.
    9000005    1    1    2  501    0  0.22679220091E+03 -0.99843988544E+02  0.57791407207E+03  0.74524371794E+03  0.40000000000E+03 0. -1.
   -9000005    1    1    2    0  502 -0.22679220091E+03  0.99843988544E+02  0.47141652102E+03  0.66606085362E+03  0.40000000000E+03 0.  1.
<mgrwt>
<rscale>  2 0.47053536E+03</rscale>
<asrwt>0</asrwt>
<pdfrwt beam="1">  1       21 0.18927962E+00 0.47053536E+03</pdfrwt>
<pdfrwt beam="2">  1       21 0.27844153E-01 0.47053536E+03</pdfrwt>
<totfact> 0.16267563E+03</totfact>
</mgrwt>
</event>
<event>
 4    1  0.4949719E-002  0.5645112E+03  0.7818608E-02  0.9981899E-01
         21   -1    0    0  501  502  0.00000000000E+00  0.00000000000E+00  0.15432027910E+04  0.15432027910E+04  0.00000000000E+00 0.  1.
         21   -1    0    0  502  503 -0.00000000000E+00 -0.00000000000E+00 -0.20725331354E+03  0.20725331354E+03  0.00000000000E+00 0. -1.
    9000005    1    1    2  501    0  0.32267185946E+03 -0.23357177761E+03  0.61524291393E+03  0.83498308206E+03  0.40000000000E+03 0.  1.
   -9000005    1    1    2    0  503 -0.32267185946E+03  0.23357177761E+03  0.72070656352E+03  0.91547302248E+03  0.40000000000E+03 0. -1.
<mgrwt>
<rscale>  2 0.56451121E+03</rscale>
<asrwt>0</asrwt>
<pdfrwt beam="1">  1       21 0.23741581E+00 0.56451121E+03</pdfrwt>
<pdfrwt beam="2">  1       21 0.31885126E-01 0.56451121E+03</pdfrwt>
<totfact> 0.57937447E+02</totfact>
</mgrwt>
</event>
<event>
 4    1  0.4949719E-002  0.4199300E+03  0.7818608E-02  0.1037089E+00
         21   -1    0    0  503  502  0.00000000000E+00  0.00000000000E+00  0.46218758567E+03  0.46218758567E+03  0.00000000000E+00 0. -1.
         21   -1    0    0  501  503 -0.00000000000E+00 -0.00000000000E+00 -0.87909561559E+03  0.87909561559E+03  0.00000000000E+00 0. -1.
    9000005    1    1    2  501    0 -0.97521517762E+02 -0.82648170194E+02 -0.71299334790E+03  0.82746642265E+03  0.40000000000E+03 0. -1.
   -9000005    1    1    2    0  502  0.97521517762E+02  0.82648170194E+02  0.29608531798E+03  0.51381677861E+03  0.40000000000E+03 0. -1.
<mgrwt>
<rscale>  2 0.41992995E+03</rscale>
<asrwt>0</asrwt>
<pdfrwt beam="1">  1       21 0.71105783E-01 0.41992995E+03</pdfrwt>
<pdfrwt beam="2">  1       21 0.13524548E+00 0.41992995E+03</pdfrwt>
<totfact> 0.59452673E+02</totfact>
</mgrwt>
</event>
<event>
 4    1  0.4949719E-002  0.4552919E+03  0.7818608E-02  0.1026156E+00
         21   -1    0    0  503  502  0.00000000000E+00  0.00000000000E+00  0.32600298234E+03  0.32600298234E+03  0.00000000000E+00 0.  1.
         21   -1    0    0  501  503 -0.00000000000E+00 -0.00000000000E+00 -0.63662170471E+03  0.63662170471E+03  0.00000000000E+00 0. -1.
    9000005    1    1    2  501    0  0.83600811221E+02  0.20075270473E+03 -0.17200865145E+03  0.48670085296E+03  0.40000000000E+03 0.  1.
   -9000005    1    1    2    0  502 -0.83600811221E+02 -0.20075270473E+03 -0.13861007092E+03  0.47592383409E+03  0.40000000000E+03 0. -1.
<mgrwt>
<rscale>  2 0.45529193E+03</rscale>
<asrwt>0</asrwt>
<pdfrwt beam="1">  1       21 0.50154305E-01 0.45529193E+03</pdfrwt>
<pdfrwt beam="2">  1       21 0.97941801E-01 0.45529193E+03</pdfrwt>
<totfact> 0.28306279E+03</totfact>
</mgrwt>
</event>
<event>
 4    1  0.4949719E-002  0.4340654E+03  0.7818608E-02  0.1032583E+00
         21   -1    0    0  501  502  0.00000000000E+00  0.00000000000E+00  0.87300315287E+03  0.87300315287E+03  0.00000000000E+00 0. -1.
         21   -1    0    0  502  503 -0.00000000000E+00 -0.00000000000E+00 -0.26838995341E+03  0.26838995341E+03  0.00000000000E+00 0.  1.
    9000005    1    1    2  501    0 -0.16855647746E+03 -0.12224499863E+01  0.55487851110E+03  0.70448771640E+03  0.40000000000E+03 0. -1.
   -9000005    1    1    2    0  503  0.16855647746E+03  0.12224499863E+01  0.49734688349E+02  0.43690538988E+03  0.40000000000E+03 0.  1.
<mgrwt>
<rscale>  2 0.43406541E+03</rscale>
<asrwt>0</asrwt>
<pdfrwt beam="1">  1       21 0.13430818E+00 0.43406541E+03</pdfrwt>
<pdfrwt beam="2">  1       21 0.41290762E-01 0.43406541E+03</pdfrwt>
<totfact> 0.19412940E+03</totfact>
</mgrwt>
</event>
<event>
 4    1  0.4949719E-002  0.4155055E+03  0.7818608E-02  0.1038539E+00
         21   -1    0    0  501  502  0.00000000000E+00  0.00000000000E+00  0.13611468613E+03  0.13611468613E+03  0.00000000000E+00 0.  1.
         21   -1    0    0  502  503 -0.00000000000E+00 -0.00000000000E+00 -0.13902418634E+04  0.13902418634E+04  0.00000000000E+00 0.  1.
    9000005    1    1    2  501    0  0.10809355530E+03 -0.30993771041E+02 -0.85301697245E+03  0.94883232757E+03  0.40000000000E+03 0.  1.
   -9000005    1    1    2    0  503 -0.10809355530E+03  0.30993771041E+02 -0.40111020480E+03  0.57752422195E+03  0.40000000000E+03 0.  1.
<mgrwt>
<rscale>  2 0.41550551E+03</rscale>
<asrwt>0</asrwt>
<pdfrwt beam="1">  1       21 0.20940722E-01 0.41550551E+03</pdfrwt>
<pdfrwt beam="2">  1       21 0.21388336E+00 0.41550551E+03</pdfrwt>
<totfact> 0.19871918E+03</totfact>
</mgrwt>
</event>
<event>
 4    1  0.4949719E-002  0.4268603E+03  0.7818608E-02  0.1034856E+00
         21   -1    0    0  503  502  0.00000000000E+00  0.00000000000E+00  0.17122427223E+03  0.17122427223E+03  0.00000000000E+00 0. -1.
         21   -1    0    0  501  503 -0.00000000000E+00 -0.00000000000E+00 -0.14179210974E+04  0.14179210974E+04  0.00000000000E+00 0. -1.
    9000005    1    1    2  501    0  0.53356954888E+01  0.14893373305E+03 -0.10202325056E+04  0.11059313234E+04  0.40000000000E+03 0. -1.
   -9000005    1    1    2    0  502 -0.53356954888E+01 -0.14893373305E+03 -0.22646431958E+03  0.48321404629E+03  0.40000000000E+03 0. -1.
<mgrwt>
<rscale>  2 0.42686031E+03</rscale>
<asrwt>0</asrwt>
<pdfrwt beam="1">  1       21 0.26342196E-01 0.42686031E+03</pdfrwt>
<pdfrwt beam="2">  1       21 0.21814171E+00 0.42686031E+03</pdfrwt>
<totfact> 0.11914111E+03</totfact>
</mgrwt>
</event>
<event>
 4    1  0.4949719E-002  0.7455731E+03  0.7818608E-02  0.9642321E-01
         21   -1    0    0  501  502  0.00000000000E+00  0.00000000000E+00  0.11475466961E+04  0.11475466961E+04  0.00000000000E+00 0.  1.
         21   -1    0    0  502  503 -0.00000000000E+00 -0.00000000000E+00 -0.60704566658E+03  0.60704566658E+03  0.00000000000E+00 0. -1.
    9000005    1    1    2  501    0 -0.16516822161E+03  0.60712325717E+03  0.66457158101E+03  0.99876652783E+03  0.40000000000E+03 0.  1.
   -9000005    1    1    2    0  503  0.16516822161E+03 -0.60712325717E+03 -0.12407055151E+03  0.75582583482E+03  0.40000000000E+03 0. -1.
<mgrwt>
<rscale>  2 0.74557306E+03</rscale>
<asrwt>0</asrwt>
<pdfrwt beam="1">  1       21 0.17654565E+00 0.74557306E+03</pdfrwt>
<pdfrwt beam="2">  1       21 0.93391641E-01 0.74557306E+03</pdfrwt>
<totfact> 0.13258242E+02</totfact>
</mgrwt>
</event>
<event>
 4    1  0.4949719E-002  0.4982573E+03  0.7818608E-02  0.1014235E+00
         21   -1    0    0  503  502  0.00000000000E+00  0.00000000000E+00  0.67248288223E+03  0.67248288223E+03  0.00000000000E+00 0.  1.
         21   -1    0    0  501  503 -0.00000000000E+00 -0.00000000000E+00 -0.36918582844E+03  0.36918582844E+03  0.00000000000E+00 0. -1.
    9000005    1    1    2  501    0 -0.51988074580E+02 -0.29250229591E+03  0.15508321652E+03  0.52183441536E+03  0.40000000000E+03 0. -1.
   -9000005    1    1    2    0  502  0.51988074580E+02  0.29250229591E+03  0.14821383728E+03  0.51983429530E+03  0.40000000000E+03 0.  1.
<mgrwt>
<rscale>  2 0.49825732E+03</rscale>
<asrwt>0</asrwt>
<pdfrwt beam="1">  1       21 0.10345890E+00 0.49825732E+03</pdfrwt>
<pdfrwt beam="2">  1       21 0.56797820E-01 0.49825732E+03</pdfrwt>
<totfact> 0.18666027E+03</totfact>
</mgrwt>
</event>
<event>
 4    1  0.4949719E-002  0.4479789E+03  0.7818608E-02  0.1028326E+00
         21   -1    0    0  501  502  0.00000000000E+00  0.00000000000E+00  0.24964046412E+03  0.24964046412E+03  0.00000000000E+00 0.  1.
         21   -1    0    0  502  503 -0.00000000000E+00 -0.00000000000E+00 -0.10046014283E+04  0.10046014283E+04  0.00000000000E+00 0.  1.
    9000005    1    1    2  501    0 -0.59045283779E+01  0.20161901655E+03 -0.97173802414E+02  0.45839703224E+03  0.40000000000E+03 0.  1.
   -9000005    1    1    2    0  503  0.59045283779E+01 -0.20161901655E+03 -0.65778716176E+03  0.79584486018E+03  0.40000000000E+03 0.  1.
<mgrwt>
<rscale>  2 0.44797890E+03</rscale>
<asrwt>0</asrwt>
<pdfrwt beam="1">  1       21 0.38406226E-01 0.44797890E+03</pdfrwt>
<pdfrwt beam="2">  1       21 0.15455406E+00 0.44797890E+03</pdfrwt>
<totfact> 0.15378456E+03</totfact>
</mgrwt>
</event>
<event>
 4    1  0.4949719E-002  0.4189537E+03  0.7818608E-02  0.1037407E+00
         21   -1    0    0  501  502  0.00000000000E+00  0.00000000000E+00  0.28200242034E+03  0.28200242034E+03  0.00000000000E+00 0. -1.
         21   -1    0    0  502  503 -0.00000000000E+00 -0.00000000000E+00 -0.96362557229E+03  0.96362557229E+03  0.00000000000E+00 0. -1.
    9000005    1    1    2  501    0  0.12410890602E+03 -0.10918295268E+02 -0.71142072582E+03  0.82561593907E+03  0.40000000000E+03 0. -1.
   -9000005    1    1    2    0  503 -0.12410890602E+03  0.10918295268E+02  0.29797573872E+02  0.42001205356E+03  0.40000000000E+03 0. -1.
<mgrwt>
<rscale>  2 0.41895373E+03</rscale>
<asrwt>0</asrwt>
<pdfrwt beam="1">  1       21 0.43384988E-01 0.41895373E+03</pdfrwt>
<pdfrwt beam="2">  1       21 0.14825009E+00 0.41895373E+03</pdfrwt>
<totfact> 0.13557555E+03</totfact>
</mgrwt>
</event>
<event>
 4    1  0.4949719E-002  0.4413274E+03  0.7818608E-02  0.1030340E+00
         21   -1    0    0  503  502  0.00000000000E+00  0.00000000000E+00  0.38059354911E+03  0.38059354911E+03  0.00000000000E+00 0. -1.
         21   -1    0    0  501  503 -0.00000000000E+00 -0.00000000000E+00 -0.54269700340E+03  0.54269700340E+03  0.00000000000E+00 0. -1.
    9000005    1    1    2  501    0 -0.14571485447E+03 -0.11634871333E+03  0.29183101399E+02  0.44229118837E+03  0.40000000000E+03 0. -1.
   -9000005    1    1    2    0  502  0.14571485447E+03  0.11634871333E+03 -0.19128655569E+03  0.48099936413E+03  0.40000000000E+03 0. -1.
<mgrwt>
<rscale>  2 0.44132736E+03</rscale>
<asrwt>0</asrwt>
<pdfrwt beam="1">  1       21 0.58552854E-01 0.44132736E+03</pdfrwt>
<pdfrwt beam="2">  1       21 0.83491846E-01 0.44132736E+03</pdfrwt>
<totfact> 0.29757939E+03</totfact>
</mgrwt>
</event>
<event>
 4    1  0.4949719E-002  0.4330553E+03  0.7818608E-02  0.1032899E+00
         21   -1    0    0  503  502  0.00000000000E+00  0.00000000000E+00  0.18944796345E+04  0.18944796345E+04  0.00000000000E+00 0. -1.
         21   -1    0    0  501  503 -0.00000000000E+00 -0.00000000000E+00 -0.14762719820E+03  0.14762719820E+03  0.00000000000E+00 0. -1.
    9000005    1    1    2  501    0  0.46962818820E+02  0.15915836684E+03  0.28736362401E+03  0.51972564348E+03  0.40000000000E+03 0. -1.
   -9000005    1    1    2    0  502 -0.46962818820E+02 -0.15915836684E+03  0.14594888123E+04  0.15223811892E+04  0.40000000000E+03 0. -1.
<mgrwt>
<rscale>  2 0.43305530E+03</rscale>
<asrwt>0</asrwt>
<pdfrwt beam="1">  1       21 0.29145839E+00 0.43305530E+03</pdfrwt>
<pdfrwt beam="2">  1       21 0.22711878E-01 0.43305530E+03</pdfrwt>
<totfact> 0.56197905E+02</totfact>
</mgrwt>
</event>
<event>
 4    1  0.4949719E-002  0.4280272E+03  0.7818608E-02  0.1034485E+00
         21   -1    0    0  503  502  0.00000000000E+00  0.00000000000E+00  0.10032288045E+04  0.10032288045E+04  0.00000000000E+00 0. -1.
         21   -1    0    0  501  503 -0.00000000000E+00 -0.00000000000E+00 -0.18506901354E+03  0.18506901354E+03  0.00000000000E+00 0. -1.
    9000005    1    1    2  501    0 -0.15233775037E+03  0.71226103142E+00  0.47746025122E+03  0.64122974744E+03  0.40000000000E+03 0. -1.
   -9000005    1    1    2    0  502  0.15233775037E+03 -0.71226103142E+00  0.34069953975E+03  0.54706807062E+03  0.40000000000E+03 0. -1.
<mgrwt>
<rscale>  2 0.42802722E+03</rscale>
<asrwt>0</asrwt>
<pdfrwt beam="1">  1       21 0.15434289E+00 0.42802722E+03</pdfrwt>
<pdfrwt beam="2">  1       21 0.28472157E-01 0.42802722E+03</pdfrwt>
<totfact> 0.28393579E+03</totfact>
</mgrwt>
</event>
<event>
 4    1  0.4949719E-002  0.4657444E+03  0.7818608E-02  0.1023128E+00
         21   -1    0    0  503  502  0.00000000000E+00  0.00000000000E+00  0.12393763858E+04  0.12393763858E+04  0.00000000000E+00 0. -1.
         21   -1    0    0  501  503 -0.00000000000E+00 -0.00000000000E+00 -0.19596614017E+03  0.19596614017E+03  0.00000000000E+00 0. -1.
    9000005    1    1    2  501    0  0.22810959818E+03 -0.69884834044E+02  0.28708328182E+03  0.54711487780E+03  0.40000000000E+03 0. -1.
   -9000005    1    1    2    0  502 -0.22810959818E+03  0.69884834044E+02  0.75632696385E+03  0.88822764822E+03  0.40000000000E+03 0. -1.
<mgrwt>
<rscale>  2 0.46574444E+03</rscale>
<asrwt>0</asrwt>
<pdfrwt beam="1">  1       21 0.19067329E+00 0.46574444E+03</pdfrwt>
<pdfrwt beam="2">  1       21 0.30148638E-01 0.46574444E+03</pdfrwt>
<totfact> 0.13622323E+03</totfact>
</mgrwt>
</event>
<event>
 4    1  0.4949719E-002  0.6219012E+03  0.7818608E-02  0.9860982E-01
         21   -1    0    0  501  502  0.00000000000E+00  0.00000000000E+00  0.11393904797E+04  0.11393904797E+04  0.00000000000E+00 0.  1.
         21   -1    0    0  502  503 -0.00000000000E+00 -0.00000000000E+00 -0.33950110425E+03  0.33950110425E+03  0.00000000000E+00 0.  1.
    9000005    1    1    2  501    0 -0.56454614419E+02  0.47283604953E+03  0.39048758607E+03  0.73433072120E+03  0.40000000000E+03 0.  1.
   -9000005    1    1    2    0  503  0.56454614419E+02 -0.47283604953E+03  0.40940178941E+03  0.74456086278E+03  0.40000000000E+03 0.  1.
<mgrwt>
<rscale>  2 0.62190116E+03</rscale>
<asrwt>0</asrwt>
<pdfrwt beam="1">  1       21 0.17529084E+00 0.62190116E+03</pdfrwt>
<pdfrwt beam="2">  1       21 0.52230940E-01 0.62190116E+03</pdfrwt>
<totfact> 0.52914157E+02</totfact>
</mgrwt>
</event>
<event>
 4    1  0.4949719E-002  0.4306432E+03  0.7818608E-02  0.1033657E+00
         21   -1    0    0  501  502  0.00000000000E+00  0.00000000000E+00  0.60007238324E+03  0.60007238324E+03  0.00000000000E+00 0.  1.
         21   -1    0    0  502  503 -0.00000000000E+00 -0.00000000000E+00 -0.46168592445E+03  0.46168592445E+03  0.00000000000E+00 0.  1.
    9000005    1    1    2  501    0 -0.15821057706E+03  0.20565638466E+02  0.37443782290E+03  0.57066383747E+03  0.40000000000E+03 0.  1.
   -9000005    1    1    2    0  503  0.15821057706E+03 -0.20565638466E+02 -0.23605136411E+03  0.49109447022E+03  0.40000000000E+03 0.  1.
<mgrwt>
<rscale>  2 0.43064316E+03</rscale>
<asrwt>0</asrwt>
<pdfrwt beam="1">  1       21 0.92318828E-01 0.43064316E+03</pdfrwt>
<pdfrwt beam="2">  1       21 0.71028604E-01 0.43064316E+03</pdfrwt>
<totfact> 0.15366429E+03</totfact>
</mgrwt>
</event>
<event>
 4    1  0.4949719E-002  0.4531596E+03  0.7818608E-02  0.1026784E+00
         21   -1    0    0  501  502  0.00000000000E+00  0.00000000000E+00  0.43963832988E+03  0.43963832988E+03  0.00000000000E+00 0.  1.
         21   -1    0    0  502  503 -0.00000000000E+00 -0.00000000000E+00 -0.12779143036E+04  0.12779143036E+04  0.00000000000E+00 0.  1.
    9000005    1    1    2  501    0 -0.60171162830E+02 -0.20428661452E+03  0.26491665167E+03  0.52491372819E+03  0.40000000000E+03 0.  1.
   -9000005    1    1    2    0  503  0.60171162830E+02  0.20428661452E+03 -0.11031926254E+04  0.11926389053E+04  0.40000000000E+03 0.  1.
<mgrwt>
<rscale>  2 0.45315956E+03</rscale>
<asrwt>0</asrwt>
<pdfrwt beam="1">  1       21 0.67636667E-01 0.45315956E+03</pdfrwt>
<pdfrwt beam="2">  1       21 0.19660220E+00 0.45315956E+03</pdfrwt>
<totfact> 0.22853840E+02</totfact>
</mgrwt>
</event>
<event>
 4    1  0.4949719E-002  0.5454755E+03  0.7818608E-02  0.1002547E+00
         21   -1    0    0  501  502  0.00000000000E+00  0.00000000000E+00  0.93423228281E+03  0.93423228281E+03  0.00000000000E+00 0. -1.
         21   -1    0    0  502  503 -0.00000000000E+00 -0.00000000000E+00 -0.36878739538E+03  0.36878739538E+03  0.00000000000E+00 0. -1.
    9000005    1    1    2  501    0 -0.29898785059E+03  0.21943070769E+03  0.52332820003E+03  0.75592061437E+03  0.40000000000E+03 0. -1.
   -9000005    1    1    2    0  503  0.29898785059E+03 -0.21943070769E+03  0.42116687389E+02  0.54709906382E+03  0.40000000000E+03 0. -1.
<mgrwt>
<rscale>  2 0.54547555E+03</rscale>
<asrwt>0</asrwt>
<pdfrwt beam="1">  1       21 0.14372804E+00 0.54547555E+03</pdfrwt>
<pdfrwt beam="2">  1       21 0.56736523E-01 0.54547555E+03</pdfrwt>
<totfact> 0.79194083E+02</totfact>
</mgrwt>
</event>
<event>
 4    1  0.4949719E-002  0.4953228E+03  0.7818608E-02  0.1015007E+00
         21   -1    0    0  503  502  0.00000000000E+00  0.00000000000E+00  0.62316683369E+03  0.62316683369E+03  0.00000000000E+00 0.  1.
         21   -1    0    0  501  503 -0.00000000000E+00 -0.00000000000E+00 -0.92444196303E+03  0.92444196303E+03  0.00000000000E+00 0. -1.
    9000005    1    1    2  501    0 -0.20885213870E+03  0.20426809259E+03 -0.73695192264E+03  0.88794301944E+03  0.40000000000E+03 0. -1.
   -9000005    1    1    2    0  502  0.20885213870E+03 -0.20426809259E+03  0.43567679330E+03  0.65966577727E+03  0.40000000000E+03 0.  1.
<mgrwt>
<rscale>  2 0.49532279E+03</rscale>
<asrwt>0</asrwt>
<pdfrwt beam="1">  1       21 0.95871821E-01 0.49532279E+03</pdfrwt>
<pdfrwt beam="2">  1       21 0.14222184E+00 0.49532279E+03</pdfrwt>
<totfact> 0.25050288E+02</totfact>
</mgrwt>
</event>
<event>
 4    1  0.4949719E-002  0.4249135E+03  0.7818608E-02  0.1035479E+00
         21   -1    0    0  501  502  0.00000000000E+00  0.00000000000E+00  0.82510525461E+03  0.82510525461E+03  0.00000000000E+00 0.  1.
         21   -1    0    0  502  503 -0.00000000000E+00 -0.00000000000E+00 -0.22873176468E+03  0.22873176468E+03  0.00000000000E+00 0.  1.
    9000005    1    1    2  501    0  0.11947551841E+03  0.79227934007E+02  0.18851257169E+03  0.46485315392E+03  0.40000000000E+03 0.  1.
   -9000005    1    1    2    0  503 -0.11947551841E+03 -0.79227934007E+02  0.40786091825E+03  0.58898386537E+03  0.40000000000E+03 0.  1.
<mgrwt>
<rscale>  2 0.42491348E+03</rscale>
<asrwt>0</asrwt>
<pdfrwt beam="1">  1       21 0.12693927E+00 0.42491348E+03</pdfrwt>
<pdfrwt beam="2">  1       21 0.35189503E-01 0.42491348E+03</pdfrwt>
<totfact> 0.31274081E+03</totfact>
</mgrwt>
</event>
<event>
 4    1  0.4949719E-002  0.4717489E+03  0.7818608E-02  0.1021428E+00
         21   -1    0    0  503  502  0.00000000000E+00  0.00000000000E+00  0.19548227385E+04  0.19548227385E+04  0.00000000000E+00 0. -1.
         21   -1    0    0  501  503 -0.00000000000E+00 -0.00000000000E+00 -0.45167858596E+03  0.45167858596E+03  0.00000000000E+00 0. -1.
    9000005    1    1    2  501    0 -0.17694566936E+03 -0.17674074464E+03 -0.28904915617E+03  0.55325986245E+03  0.40000000000E+03 0. -1.
   -9000005    1    1    2    0  502  0.17694566936E+03  0.17674074464E+03  0.17921933088E+04  0.18532414621E+04  0.40000000000E+03 0. -1.
<mgrwt>
<rscale>  2 0.47174894E+03</rscale>
<asrwt>0</asrwt>
<pdfrwt beam="1">  1       21 0.30074196E+00 0.47174894E+03</pdfrwt>
<pdfrwt beam="2">  1       21 0.69489014E-01 0.47174894E+03</pdfrwt>
<totfact> 0.47765258E+01</totfact>
</mgrwt>
</event>
<event>
 4    1  0.4949719E-002  0.4458343E+03  0.7818608E-02  0.1028972E+00
         21   -1    0    0  503  502  0.00000000000E+00  0.00000000000E+00  0.27779334786E+03  0.27779334786E+03  0.00000000000E+00 0. -1.
         21   -1    0    0  501  503 -0.00000000000E+00 -0.00000000000E+00 -0.10135884912E+04  0.10135884912E+04  0.00000000000E+00 0. -1.
    9000005    1    1    2  501    0 -0.10758414111E+02 -0.19660237474E+03 -0.71804249740E+03  0.84519421751E+03  0.40000000000E+03 0. -1.
   -9000005    1    1    2    0  502  0.10758414111E+02  0.19660237474E+03 -0.17752645973E+02  0.44618762160E+03  0.40000000000E+03 0. -1.
<mgrwt>
<rscale>  2 0.44583432E+03</rscale>
<asrwt>0</asrwt>
<pdfrwt beam="1">  1       21 0.42737438E-01 0.44583432E+03</pdfrwt>
<pdfrwt beam="2">  1       21 0.15593669E+00 0.44583432E+03</pdfrwt>
<totfact> 0.12047348E+03</totfact>
</mgrwt>
</event>
<event>
 4    1  0.4949719E-002  0.5979841E+03  0.7818608E-02  0.9909597E-01
         21   -1    0    0  503  502  0.00000000000E+00  0.00000000000E+00  0.52944640554E+03  0.52944640554E+03  0.00000000000E+00 0. -1.
         21   -1    0    0  501  503 -0.00000000000E+00 -0.00000000000E+00 -0.76513515631E+03  0.76513515631E+03  0.00000000000E+00 0.  1.
    9000005    1    1    2  501    0 -0.14860088398E+03  0.41893044192E+03 -0.33952417361E+03  0.68764933094E+03  0.40000000000E+03 0.  1.
   -9000005    1    1    2    0  502  0.14860088398E+03 -0.41893044192E+03  0.10383542283E+03  0.60693223091E+03  0.40000000000E+03 0. -1.
<mgrwt>
<rscale>  2 0.59798406E+03</rscale>
<asrwt>0</asrwt>
<pdfrwt beam="1">  1       21 0.81453293E-01 0.59798406E+03</pdfrwt>
<pdfrwt beam="2">  1       21 0.11771310E+00 0.59798406E+03</pdfrwt>
<totfact> 0.58084719E+02</totfact>
</mgrwt>
</event>
<event>
 4    1  0.4949719E-002  0.4336950E+03  0.7818608E-02  0.1032699E+00
         21   -1    0    0  503  502  0.00000000000E+00  0.00000000000E+00  0.17945120807E+03  0.17945120807E+03  0.00000000000E+00 0.  1.
         21   -1    0    0  501  503 -0.00000000000E+00 -0.00000000000E+00 -0.13030681089E+04  0.13030681089E+04  0.00000000000E+00 0.  1.
    9000005    1    1    2  501    0 -0.14939441873E+03  0.75977832579E+02 -0.23394776962E+03  0.49277061834E+03  0.40000000000E+03 0.  1.
   -9000005    1    1    2    0  502  0.14939441873E+03 -0.75977832579E+02 -0.88966913118E+03  0.98974869859E+03  0.40000000000E+03 0.  1.
<mgrwt>
<rscale>  2 0.43369497E+03</rscale>
<asrwt>0</asrwt>
<pdfrwt beam="1">  1       21 0.27607878E-01 0.43369497E+03</pdfrwt>
<pdfrwt beam="2">  1       21 0.20047202E+00 0.43369497E+03</pdfrwt>
<totfact> 0.14122719E+03</totfact>
</mgrwt>
</event>
<event>
 4    1  0.4949719E-002  0.4229522E+03  0.7818608E-02  0.1036110E+00
         21   -1    0    0  501  502  0.00000000000E+00  0.00000000000E+00  0.26323318925E+03  0.26323318925E+03  0.00000000000E+00 0.  1.
         21   -1    0    0  502  503 -0.00000000000E+00 -0.00000000000E+00 -0.79880027511E+03  0.79880027511E+03  0.00000000000E+00 0.  1.
    9000005    1    1    2  501    0  0.56582995056E+02 -0.12524763206E+03 -0.62638960119E+02  0.42756548503E+03  0.40000000000E+03 0.  1.
   -9000005    1    1    2    0  503 -0.56582995056E+02  0.12524763206E+03 -0.47292812575E+03  0.63446797933E+03  0.40000000000E+03 0.  1.
<mgrwt>
<rscale>  2 0.42295225E+03</rscale>
<asrwt>0</asrwt>
<pdfrwt beam="1">  1       21 0.40497414E-01 0.42295225E+03</pdfrwt>
<pdfrwt beam="2">  1       21 0.12289235E+00 0.42295225E+03</pdfrwt>
<totfact> 0.25532721E+03</totfact>
</mgrwt>
</event>
<event>
 4    1  0.4949719E-002  0.4248205E+03  0.7818608E-02  0.1035509E+00
         21   -1    0    0  501  502  0.00000000000E+00  0.00000000000E+00  0.33676282741E+03  0.33676282741E+03  0.00000000000E+00 0. -1.
         21   -1    0    0  502  503 -0.00000000000E+00 -0.00000000000E+00 -0.60669531966E+03  0.60669531966E+03  0.00000000000E+00 0.  1.
    9000005    1    1    2  501    0 -0.19161711410E+02 -0.14179313419E+03 -0.29610428500E+03  0.51783222349E+03  0.40000000000E+03 0.  1.
   -9000005    1    1    2    0  503  0.19161711410E+02  0.14179313419E+03  0.26171792747E+02  0.42562592358E+03  0.40000000000E+03 0. -1.
<mgrwt>
<rscale>  2 0.42482051E+03</rscale>
<asrwt>0</asrwt>
<pdfrwt beam="1">  1       21 0.51809666E-01 0.42482051E+03</pdfrwt>
<pdfrwt beam="2">  1       21 0.93337741E-01 0.42482051E+03</pdfrwt>
<totfact> 0.29979227E+03</totfact>
</mgrwt>
</event>
<event>
 4    1  0.4949719E-002  0.4037639E+03  0.7818608E-02  0.1042484E+00
         21   -1    0    0  501  502  0.00000000000E+00  0.00000000000E+00  0.65363126838E+03  0.65363126838E+03  0.00000000000E+00 0. -1.
         21   -1    0    0  502  503 -0.00000000000E+00 -0.00000000000E+00 -0.25815675735E+03  0.25815675735E+03  0.00000000000E+00 0. -1.
    9000005    1    1    2  501    0 -0.25428370585E+02 -0.48772118033E+02  0.11384417872E+03  0.41950663708E+03  0.40000000000E+03 0.  1.
   -9000005    1    1    2    0  503  0.25428370585E+02  0.48772118033E+02  0.28163033232E+03  0.49228138865E+03  0.40000000000E+03 0.  1.
<mgrwt>
<rscale>  2 0.40376394E+03</rscale>
<asrwt>0</asrwt>
<pdfrwt beam="1">  1       21 0.10055866E+00 0.40376394E+03</pdfrwt>
<pdfrwt beam="2">  1       21 0.39716424E-01 0.40376394E+03</pdfrwt>
<totfact> 0.44079337E+03</totfact>
</mgrwt>
</event>
<event>
 4    1  0.4949719E-002  0.5780324E+03  0.7818608E-02  0.9952060E-01
         21   -1    0    0  501  502  0.00000000000E+00  0.00000000000E+00  0.93828275932E+03  0.93828275932E+03  0.00000000000E+00 0. -1.
         21   -1    0    0  502  503 -0.00000000000E+00 -0.00000000000E+00 -0.64390987252E+03  0.64390987252E+03  0.00000000000E+00 0. -1.
    9000005    1    1    2  501    0 -0.30744103416E+02 -0.41614456101E+03  0.67608266421E+03  0.88949944598E+03  0.40000000000E+03 0. -1.
   -9000005    1    1    2    0  503  0.30744103416E+02  0.41614456101E+03 -0.38170977741E+03  0.69269318586E+03  0.40000000000E+03 0. -1.
<mgrwt>
<rscale>  2 0.57803243E+03</rscale>
<asrwt>0</asrwt>
<pdfrwt beam="1">  1       21 0.14435119E+00 0.57803243E+03</pdfrwt>
<pdfrwt beam="2">  1       21 0.99063057E-01 0.57803243E+03</pdfrwt>
<totfact> 0.21483417E+02</totfact>
</mgrwt>
</event>
<event>
 4    1  0.4949719E-002  0.4346910E+03  0.7818608E-02  0.1032388E+00
         21   -1    0    0  503  502  0.00000000000E+00  0.00000000000E+00  0.40261019696E+03  0.40261019696E+03  0.00000000000E+00 0.  1.
         21   -1    0    0  501  503 -0.00000000000E+00 -0.00000000000E+00 -0.47561043744E+03  0.47561043744E+03  0.00000000000E+00 0.  1.
    9000005    1    1    2  501    0 -0.16109780502E+03  0.54806979105E+02 -0.86966958437E+02  0.44330526683E+03  0.40000000000E+03 0.  1.
   -9000005    1    1    2    0  502  0.16109780502E+03 -0.54806979105E+02  0.13966717951E+02  0.43491536757E+03  0.40000000000E+03 0.  1.
<mgrwt>
<rscale>  2 0.43469105E+03</rscale>
<asrwt>0</asrwt>
<pdfrwt beam="1">  1       21 0.61940030E-01 0.43469105E+03</pdfrwt>
<pdfrwt beam="2">  1       21 0.73170837E-01 0.43469105E+03</pdfrwt>
<totfact> 0.35712023E+03</totfact>
</mgrwt>
</event>
<event>
 4    1  0.4949719E-002  0.4482841E+03  0.7818608E-02  0.1028235E+00
         21   -1    0    0  501  502  0.00000000000E+00  0.00000000000E+00  0.20128195288E+03  0.20128195288E+03  0.00000000000E+00 0.  1.
         21   -1    0    0  502  503 -0.00000000000E+00 -0.00000000000E+00 -0.10220796399E+04  0.10220796399E+04  0.00000000000E+00 0.  1.
    9000005    1    1    2  501    0  0.56504627423E+02  0.19433451020E+03 -0.50351518783E+03  0.67415593089E+03  0.40000000000E+03 0.  1.
   -9000005    1    1    2    0  503 -0.56504627423E+02 -0.19433451020E+03 -0.31728249922E+03  0.54920566193E+03  0.40000000000E+03 0.  1.
<mgrwt>
<rscale>  2 0.44828415E+03</rscale>
<asrwt>0</asrwt>
<pdfrwt beam="1">  1       21 0.30966455E-01 0.44828415E+03</pdfrwt>
<pdfrwt beam="2">  1       21 0.15724302E+00 0.44828415E+03</pdfrwt>
<totfact> 0.22651809E+03</totfact>
</mgrwt>
</event>
<event>
 4    1  0.4949719E-002  0.4872229E+03  0.7818608E-02  0.1017169E+00
         21   -1    0    0  501  502  0.00000000000E+00  0.00000000000E+00  0.91846173057E+03  0.91846173057E+03  0.00000000000E+00 0.  1.
         21   -1    0    0  502  503 -0.00000000000E+00 -0.00000000000E+00 -0.26300684501E+03  0.26300684501E+03  0.00000000000E+00 0.  1.
    9000005    1    1    2  501    0  0.33825882542E+02 -0.27611947722E+03  0.25006057402E+03  0.54764627882E+03  0.40000000000E+03 0.  1.
   -9000005    1    1    2    0  503 -0.33825882542E+02  0.27611947722E+03  0.40539431155E+03  0.63382229676E+03  0.40000000000E+03 0.  1.
<mgrwt>
<rscale>  2 0.48722290E+03</rscale>
<asrwt>0</asrwt>
<pdfrwt beam="1">  1       21 0.14130180E+00 0.48722290E+03</pdfrwt>
<pdfrwt beam="2">  1       21 0.40462592E-01 0.48722290E+03</pdfrwt>
<totfact> 0.17339308E+03</totfact>
</mgrwt>
</event>
<event>
 4    1  0.4949719E-002  0.4358127E+03  0.7818608E-02  0.1032039E+00
         21   -1    0    0  503  502  0.00000000000E+00  0.00000000000E+00  0.78446492196E+03  0.78446492196E+03  0.00000000000E+00 0. -1.
         21   -1    0    0  501  503 -0.00000000000E+00 -0.00000000000E+00 -0.34006447751E+03  0.34006447751E+03  0.00000000000E+00 0.  1.
    9000005    1    1    2  501    0 -0.11546347342E+03 -0.12884456815E+03 -0.79555531800E+02  0.44301446825E+03  0.40000000000E+03 0.  1.
   -9000005    1    1    2    0  502  0.11546347342E+03  0.12884456815E+03  0.52395597625E+03  0.68151493123E+03  0.40000000000E+03 0. -1.
<mgrwt>
<rscale>  2 0.43581273E+03</rscale>
<asrwt>0</asrwt>
<pdfrwt beam="1">  1       21 0.12068691E+00 0.43581273E+03</pdfrwt>
<pdfrwt beam="2">  1       21 0.52317612E-01 0.43581273E+03</pdfrwt>
<totfact> 0.15537297E+03</totfact>
</mgrwt>
</event>
<event>
 4    1  0.4949719E-002  0.4128973E+03  0.7818608E-02  0.1039403E+00
         21   -1    0    0  501  502  0.00000000000E+00  0.00000000000E+00  0.22798366826E+03  0.22798366826E+03  0.00000000000E+00 0.  1.
         21   -1    0    0  502  503 -0.00000000000E+00 -0.00000000000E+00 -0.82578570427E+03  0.82578570427E+03  0.00000000000E+00 0.  1.
    9000005    1    1    2  501    0 -0.63185273074E+02  0.80571858480E+02 -0.13697612255E+03  0.43502489729E+03  0.40000000000E+03 0. -1.
   -9000005    1    1    2    0  503  0.63185273074E+02 -0.80571858480E+02 -0.46082591347E+03  0.61874447524E+03  0.40000000000E+03 0. -1.
<mgrwt>
<rscale>  2 0.41289733E+03</rscale>
<asrwt>0</asrwt>
<pdfrwt beam="1">  1       21 0.35074411E-01 0.41289733E+03</pdfrwt>
<pdfrwt beam="2">  1       21 0.12704395E+00 0.41289733E+03</pdfrwt>
<totfact> 0.31562581E+03</totfact>
</mgrwt>
</event>
<event>
 4    1  0.4949719E-002  0.4309664E+03  0.7818608E-02  0.1033555E+00
         21   -1    0    0  501  502  0.00000000000E+00  0.00000000000E+00  0.72837180503E+03  0.72837180503E+03  0.00000000000E+00 0. -1.
         21   -1    0    0  502  503 -0.00000000000E+00 -0.00000000000E+00 -0.29282004302E+03  0.29282004302E+03  0.00000000000E+00 0. -1.
    9000005    1    1    2  501    0 -0.13148960281E+03  0.91883077921E+02  0.34265777110E+02  0.43232644973E+03  0.40000000000E+03 0. -1.
   -9000005    1    1    2    0  503  0.13148960281E+03 -0.91883077921E+02  0.40128598490E+03  0.58886539831E+03  0.40000000000E+03 0. -1.
<mgrwt>
<rscale>  2 0.43096637E+03</rscale>
<asrwt>0</asrwt>
<pdfrwt beam="1">  1       21 0.11205720E+00 0.43096637E+03</pdfrwt>
<pdfrwt beam="2">  1       21 0.45049237E-01 0.43096637E+03</pdfrwt>
<totfact> 0.25738110E+03</totfact>
</mgrwt>
</event>
<event>
 4    1  0.4949719E-002  0.5731375E+03  0.7818608E-02  0.9962760E-01
         21   -1    0    0  501  502  0.00000000000E+00  0.00000000000E+00  0.57709943648E+03  0.57709943648E+03  0.00000000000E+00 0.  1.
         21   -1    0    0  502  503 -0.00000000000E+00 -0.00000000000E+00 -0.86444910521E+03  0.86444910521E+03  0.00000000000E+00 0.  1.
    9000005    1    1    2  501    0  0.40954704860E+03 -0.27528076548E+02  0.27755763629E+03  0.63680830827E+03  0.40000000000E+03 0.  1.
   -9000005    1    1    2    0  503 -0.40954704860E+03  0.27528076548E+02 -0.56490730502E+03  0.80474023342E+03  0.40000000000E+03 0.  1.
<mgrwt>
<rscale>  2 0.57313749E+03</rscale>
<asrwt>0</asrwt>
<pdfrwt beam="1">  1       21 0.88784529E-01 0.57313749E+03</pdfrwt>
<pdfrwt beam="2">  1       21 0.13299217E+00 0.57313749E+03</pdfrwt>
<totfact> 0.34861878E+02</totfact>
</mgrwt>
</event>
<event>
 4    1  0.4949719E-002  0.4188186E+03  0.7818608E-02  0.1037451E+00
         21   -1    0    0  503  502  0.00000000000E+00  0.00000000000E+00  0.99143272404E+02  0.99143272404E+02  0.00000000000E+00 0. -1.
         21   -1    0    0  501  503 -0.00000000000E+00 -0.00000000000E+00 -0.20320779298E+04  0.20320779298E+04  0.00000000000E+00 0. -1.
    9000005    1    1    2  501    0  0.12412824046E+03  0.11019295417E+01 -0.13497028709E+04  0.14131903177E+04  0.40000000000E+03 0. -1.
   -9000005    1    1    2    0  502 -0.12412824046E+03 -0.11019295417E+01 -0.58323178653E+03  0.71803088453E+03  0.40000000000E+03 0. -1.
<mgrwt>
<rscale>  2 0.41881862E+03</rscale>
<asrwt>0</asrwt>
<pdfrwt beam="1">  1       21 0.15252812E-01 0.41881862E+03</pdfrwt>
<pdfrwt beam="2">  1       21 0.31262736E+00 0.41881862E+03</pdfrwt>
<totfact> 0.89717497E+02</totfact>
</mgrwt>
</event>
<event>
 4    1  0.4949719E-002  0.6094532E+03  0.7818608E-02  0.9885985E-01
         21   -1    0    0  503  502  0.00000000000E+00  0.00000000000E+00  0.14153584471E+04  0.14153584471E+04  0.00000000000E+00 0. -1.
         21   -1    0    0  501  503 -0.00000000000E+00 -0.00000000000E+00 -0.27322635050E+03  0.27322635050E+03  0.00000000000E+00 0. -1.
    9000005    1    1    2  501    0 -0.44070254401E+03  0.13120411412E+03  0.40323989614E+03  0.73077743923E+03  0.40000000000E+03 0. -1.
   -9000005    1    1    2    0  502  0.44070254401E+03 -0.13120411412E+03  0.73889220050E+03  0.95780735841E+03  0.40000000000E+03 0. -1.
<mgrwt>
<rscale>  2 0.60945324E+03</rscale>
<asrwt>0</asrwt>
<pdfrwt beam="1">  1       21 0.21774745E+00 0.60945324E+03</pdfrwt>
<pdfrwt beam="2">  1       21 0.42034824E-01 0.60945324E+03</pdfrwt>
<totfact> 0.43194832E+02</totfact>
</mgrwt>
</event>
<event>
 4    1  0.4949719E-002  0.5266457E+03  0.7818608E-02  0.1007049E+00
         21   -1    0    0  503  502  0.00000000000E+00  0.00000000000E+00  0.36111615270E+03  0.36111615270E+03  0.00000000000E+00 0.  1.
         21   -1    0    0  501  503 -0.00000000000E+00 -0.00000000000E+00 -0.33129212742E+04  0.33129212742E+04  0.00000000000E+00 0. -1.
    9000005    1    1    2  501    0 -0.33382454955E+03 -0.76921045377E+02 -0.30859580134E+04  0.31305738352E+04  0.40000000000E+03 0. -1.
   -9000005    1    1    2    0  502  0.33382454955E+03  0.76921045377E+02  0.13415289190E+03  0.54346359170E+03  0.40000000000E+03 0.  1.
<mgrwt>
<rscale>  2 0.52664568E+03</rscale>
<asrwt>0</asrwt>
<pdfrwt beam="1">  1       21 0.55556333E-01 0.52664568E+03</pdfrwt>
<pdfrwt beam="2">  1       21 0.50968018E+00 0.52664568E+03</pdfrwt>
<totfact> 0.32758970E+00</totfact>
</mgrwt>
</event>
<event>
 4    1  0.4949719E-002  0.4937987E+03  0.7818608E-02  0.1015410E+00
         21   -1    0    0  503  502  0.00000000000E+00  0.00000000000E+00  0.10348800222E+04  0.10348800222E+04  0.00000000000E+00 0.  1.
         21   -1    0    0  501  503 -0.00000000000E+00 -0.00000000000E+00 -0.48137202894E+03  0.48137202894E+03  0.00000000000E+00 0.  1.
    9000005    1    1    2  501    0  0.27352919175E+03 -0.94968270700E+02 -0.26493572443E+03  0.56038212789E+03  0.40000000000E+03 0.  1.
   -9000005    1    1    2    0  502 -0.27352919175E+03  0.94968270700E+02  0.81844371772E+03  0.95586992329E+03  0.40000000000E+03 0.  1.
<mgrwt>
<rscale>  2 0.49379874E+03</rscale>
<asrwt>0</asrwt>
<pdfrwt beam="1">  1       21 0.15921231E+00 0.49379874E+03</pdfrwt>
<pdfrwt beam="2">  1       21 0.74057236E-01 0.49379874E+03</pdfrwt>
<totfact> 0.33717274E+02</totfact>
</mgrwt>
</event>
<event>
 4    1  0.4949719E-002  0.4358269E+03  0.7818608E-02  0.1032035E+00
         21   -1    0    0  501  502  0.00000000000E+00  0.00000000000E+00  0.95131822562E+02  0.95131822562E+02  0.00000000000E+00 0. -1.
         21   -1    0    0  502  503 -0.00000000000E+00 -0.00000000000E+00 -0.20088722263E+04  0.20088722263E+04  0.00000000000E+00 0.  1.
    9000005    1    1    2  501    0  0.17270220881E+03 -0.10910286693E+02 -0.10389224711E+04  0.11266343632E+04  0.40000000000E+03 0.  1.
   -9000005    1    1    2    0  503 -0.17270220881E+03  0.10910286693E+02 -0.87481793263E+03  0.97736968570E+03  0.40000000000E+03 0.  1.
<mgrwt>
<rscale>  2 0.43582690E+03</rscale>
<asrwt>0</asrwt>
<pdfrwt beam="1">  1       21 0.14635666E-01 0.43582690E+03</pdfrwt>
<pdfrwt beam="2">  1       21 0.30905725E+00 0.43582690E+03</pdfrwt>
<totfact> 0.10076870E+03</totfact>
</mgrwt>
</event>
<event>
 4    1  0.4949719E-002  0.4297283E+03  0.7818608E-02  0.1033946E+00
         21   -1    0    0  503  502  0.00000000000E+00  0.00000000000E+00  0.19625549911E+03  0.19625549911E+03  0.00000000000E+00 0. -1.
         21   -1    0    0  501  503 -0.00000000000E+00 -0.00000000000E+00 -0.12523373963E+04  0.12523373963E+04  0.00000000000E+00 0. -1.
    9000005    1    1    2  501    0 -0.34181317008E+02  0.15329061376E+03 -0.88920709760E+03  0.98760095034E+03  0.40000000000E+03 0. -1.
   -9000005    1    1    2    0  502  0.34181317008E+02 -0.15329061376E+03 -0.16687479963E+03  0.46099194510E+03  0.40000000000E+03 0. -1.
<mgrwt>
<rscale>  2 0.42972826E+03</rscale>
<asrwt>0</asrwt>
<pdfrwt beam="1">  1       21 0.30193153E-01 0.42972826E+03</pdfrwt>
<pdfrwt beam="2">  1       21 0.19266730E+00 0.42972826E+03</pdfrwt>
<totfact> 0.13375718E+03</totfact>
</mgrwt>
</event>
<event>
 4    1  0.4949719E-002  0.4480758E+03  0.7818608E-02  0.1028297E+00
         21   -1    0    0  501  502  0.00000000000E+00  0.00000000000E+00  0.28010532121E+03  0.28010532121E+03  0.00000000000E+00 0. -1.
         21   -1    0    0  502  503 -0.00000000000E+00 -0.00000000000E+00 -0.74810915883E+03  0.74810915883E+03  0.00000000000E+00 0. -1.
    9000005    1    1    2  501    0 -0.67431003683E+02 -0.19032862459E+03 -0.12878289756E+03  0.46621557278E+03  0.40000000000E+03 0. -1.
   -9000005    1    1    2    0  503  0.67431003683E+02  0.19032862459E+03 -0.33922094005E+03  0.56199890727E+03  0.40000000000E+03 0. -1.
<mgrwt>
<rscale>  2 0.44807580E+03</rscale>
<asrwt>0</asrwt>
<pdfrwt beam="1">  1       21 0.43093126E-01 0.44807580E+03</pdfrwt>
<pdfrwt beam="2">  1       21 0.11509372E+00 0.44807580E+03</pdfrwt>
<totfact> 0.26246128E+03</totfact>
</mgrwt>
</event>
<event>
 4    1  0.4949719E-002  0.4173974E+03  0.7818608E-02  0.1037917E+00
         21   -1    0    0  503  502  0.00000000000E+00  0.00000000000E+00  0.21717625853E+03  0.21717625853E+03  0.00000000000E+00 0. -1.
         21   -1    0    0  501  503 -0.00000000000E+00 -0.00000000000E+00 -0.80999945244E+03  0.80999945244E+03  0.00000000000E+00 0.  1.
    9000005    1    1    2  501    0 -0.66928856671E+02 -0.98696912070E+02 -0.34678241329E+03  0.54265881959E+03  0.40000000000E+03 0.  1.
   -9000005    1    1    2    0  502  0.66928856671E+02  0.98696912070E+02 -0.24604078062E+03  0.48451689138E+03  0.40000000000E+03 0.  1.
<mgrwt>
<rscale>  2 0.41739736E+03</rscale>
<asrwt>0</asrwt>
<pdfrwt beam="1">  1       21 0.33411732E-01 0.41739736E+03</pdfrwt>
<pdfrwt beam="2">  1       21 0.12461530E+00 0.41739736E+03</pdfrwt>
<totfact> 0.36512952E+03</totfact>
</mgrwt>
</event>
<event>
 4    1  0.4949719E-002  0.6255231E+03  0.7818608E-02  0.9853824E-01
         21   -1    0    0  501  502  0.00000000000E+00  0.00000000000E+00  0.21301690001E+04  0.21301690001E+04  0.00000000000E+00 0.  1.
         21   -1    0    0  502  503 -0.00000000000E+00 -0.00000000000E+00 -0.11486379854E+04  0.11486379854E+04  0.00000000000E+00 0. -1.
    9000005    1    1    2  501    0  0.39037059742E+03  0.28087349122E+03  0.19933795684E+04  0.20892202434E+04  0.40000000000E+03 0.  1.
   -9000005    1    1    2    0  503 -0.39037059742E+03 -0.28087349122E+03 -0.10118485538E+04  0.11895867422E+04  0.40000000000E+03 0. -1.
<mgrwt>
<rscale>  2 0.62552308E+03</rscale>
<asrwt>0</asrwt>
<pdfrwt beam="1">  1       21 0.32771831E+00 0.62552308E+03</pdfrwt>
<pdfrwt beam="2">  1       21 0.17671354E+00 0.62552308E+03</pdfrwt>
<totfact> 0.28089656E+00</totfact>
</mgrwt>
</event>
<event>
 4    1  0.4949719E-002  0.4913344E+03  0.7818608E-02  0.1016066E+00
         21   -1    0    0  501  502  0.00000000000E+00  0.00000000000E+00  0.82425046554E+03  0.82425046554E+03  0.00000000000E+00 0. -1.
         21   -1    0    0  502  503 -0.00000000000E+00 -0.00000000000E+00 -0.61741410533E+03  0.61741410533E+03  0.00000000000E+00 0.  1.
    9000005    1    1    2  501    0  0.26923800017E+03  0.94447979531E+02  0.62602329536E+03  0.79581071110E+03  0.40000000000E+03 0. -1.
   -9000005    1    1    2    0  503 -0.26923800017E+03 -0.94447979531E+02 -0.41918693515E+03  0.64585385976E+03  0.40000000000E+03 0.  1.
<mgrwt>
<rscale>  2 0.49133443E+03</rscale>
<asrwt>0</asrwt>
<pdfrwt beam="1">  1       21 0.12680776E+00 0.49133443E+03</pdfrwt>
<pdfrwt beam="2">  1       21 0.94986786E-01 0.49133443E+03</pdfrwt>
<totfact> 0.34695509E+02</totfact>
</mgrwt>
</event>
<event>
 4    1  0.4949719E-002  0.6446279E+03  0.7818608E-02  0.9816912E-01
         21   -1    0    0  501  502  0.00000000000E+00  0.00000000000E+00  0.21509807294E+04  0.21509807294E+04  0.00000000000E+00 0. -1.
         21   -1    0    0  502  503 -0.00000000000E+00 -0.00000000000E+00 -0.23046201137E+03  0.23046201137E+03  0.00000000000E+00 0.  1.
    9000005    1    1    2  501    0 -0.29592911192E+03 -0.40984272968E+03  0.14391205577E+04  0.15768998325E+04  0.40000000000E+03 0. -1.
   -9000005    1    1    2    0  503  0.29592911192E+03  0.40984272968E+03  0.48139816031E+03  0.80454290818E+03  0.40000000000E+03 0.  1.
<mgrwt>
<rscale>  2 0.64462788E+03</rscale>
<asrwt>0</asrwt>
<pdfrwt beam="1">  1       21 0.33092010E+00 0.64462788E+03</pdfrwt>
<pdfrwt beam="2">  1       21 0.35455695E-01 0.64462788E+03</pdfrwt>
<totfact> 0.12039677E+02</totfact>
</mgrwt>
</event>
<event>
 4    1  0.4949719E-002  0.5170752E+03  0.7818608E-02  0.1009416E+00
         21   -1    0    0  501  502  0.00000000000E+00  0.00000000000E+00  0.13079823121E+04  0.13079823121E+04  0.00000000000E+00 0. -1.
         21   -1    0    0  502  503 -0.00000000000E+00 -0.00000000000E+00 -0.25052378769E+03  0.25052378769E+03  0.00000000000E+00 0. -1.
    9000005    1    1    2  501    0  0.30999769544E+03  0.10615167569E+03  0.86304892298E+03  0.10060915430E+04  0.40000000000E+03 0. -1.
   -9000005    1    1    2    0  503 -0.30999769544E+03 -0.10615167569E+03  0.19440960141E+03  0.55241455679E+03  0.40000000000E+03 0. -1.
<mgrwt>
<rscale>  2 0.51707519E+03</rscale>
<asrwt>0</asrwt>
<pdfrwt beam="1">  1       21 0.20122804E+00 0.51707519E+03</pdfrwt>
<pdfrwt beam="2">  1       21 0.38542122E-01 0.51707519E+03</pdfrwt>
<totfact> 0.68856040E+02</totfact>
</mgrwt>
</event>
<event>
 4    1  0.4949719E-002  0.4241563E+03  0.7818608E-02  0.1035722E+00
         21   -1    0    0  501  502  0.00000000000E+00  0.00000000000E+00  0.33477812644E+03  0.33477812644E+03  0.00000000000E+00 0.  1.
         21   -1    0    0  502  503 -0.00000000000E+00 -0.00000000000E+00 -0.71105854921E+03  0.71105854921E+03  0.00000000000E+00 0.  1.
    9000005    1    1    2  501    0  0.14085241250E+03 -0.83166508531E+01  0.70284323657E+02  0.42994005971E+03  0.40000000000E+03 0.  1.
   -9000005    1    1    2    0  503 -0.14085241250E+03  0.83166508531E+01 -0.44656474642E+03  0.61589661595E+03  0.40000000000E+03 0.  1.
<mgrwt>
<rscale>  2 0.42415630E+03</rscale>
<asrwt>0</asrwt>
<pdfrwt beam="1">  1       21 0.51504327E-01 0.42415630E+03</pdfrwt>
<pdfrwt beam="2">  1       21 0.10939362E+00 0.42415630E+03</pdfrwt>
<totfact> 0.20642085E+03</totfact>
</mgrwt>
</event>
<event>
 4    1  0.4949719E-002  0.4512218E+03  0.7818608E-02  0.1027358E+00
         21   -1    0    0  503  502  0.00000000000E+00  0.00000000000E+00  0.51384229642E+03  0.51384229642E+03  0.00000000000E+00 0.  1.
         21   -1    0    0  501  503 -0.00000000000E+00 -0.00000000000E+00 -0.43680548722E+03  0.43680548722E+03  0.00000000000E+00 0.  1.
    9000005    1    1    2  501    0 -0.15818127499E+03  0.13630759207E+03 -0.10634660273E+03  0.46358459350E+03  0.40000000000E+03 0. -1.
   -9000005    1    1    2    0  502  0.15818127499E+03 -0.13630759207E+03  0.18338341193E+03  0.48706319014E+03  0.40000000000E+03 0. -1.
<mgrwt>
<rscale>  2 0.45122176E+03</rscale>
<asrwt>0</asrwt>
<pdfrwt beam="1">  1       21 0.79052661E-01 0.45122176E+03</pdfrwt>
<pdfrwt beam="2">  1       21 0.67200844E-01 0.45122176E+03</pdfrwt>
<totfact> 0.24826082E+03</totfact>
</mgrwt>
</event>
<event>
 4    1  0.4949719E-002  0.4838525E+03  0.7818608E-02  0.1018082E+00
         21   -1    0    0  501  502  0.00000000000E+00  0.00000000000E+00  0.52133457930E+03  0.52133457930E+03  0.00000000000E+00 0. -1.
         21   -1    0    0  502  503 -0.00000000000E+00 -0.00000000000E+00 -0.51052055507E+03  0.51052055507E+03  0.00000000000E+00 0. -1.
    9000005    1    1    2  501    0  0.80294689390E+02  0.26012686700E+03  0.18441068264E+03  0.51780355730E+03  0.40000000000E+03 0. -1.
   -9000005    1    1    2    0  503 -0.80294689390E+02 -0.26012686700E+03 -0.17359665841E+03  0.51405157707E+03  0.40000000000E+03 0. -1.
<mgrwt>
<rscale>  2 0.48385248E+03</rscale>
<asrwt>0</asrwt>
<pdfrwt beam="1">  1       21 0.80205320E-01 0.48385248E+03</pdfrwt>
<pdfrwt beam="2">  1       21 0.78541624E-01 0.48385248E+03</pdfrwt>
<totfact> 0.16654946E+03</totfact>
</mgrwt>
</event>
<event>
 4    1  0.4949719E-002  0.4506933E+03  0.7818608E-02  0.1027516E+00
         21   -1    0    0  501  502  0.00000000000E+00  0.00000000000E+00  0.88590051539E+03  0.88590051539E+03  0.00000000000E+00 0. -1.
         21   -1    0    0  502  503 -0.00000000000E+00 -0.00000000000E+00 -0.33600486189E+03  0.33600486189E+03  0.00000000000E+00 0.  1.
    9000005    1    1    2  501    0  0.15678310666E+03 -0.13617444300E+03  0.61926268879E+03  0.76590515025E+03  0.40000000000E+03 0. -1.
   -9000005    1    1    2    0  503 -0.15678310666E+03  0.13617444300E+03 -0.69367035293E+02  0.45600022702E+03  0.40000000000E+03 0.  1.
<mgrwt>
<rscale>  2 0.45069327E+03</rscale>
<asrwt>0</asrwt>
<pdfrwt beam="1">  1       21 0.13629239E+00 0.45069327E+03</pdfrwt>
<pdfrwt beam="2">  1       21 0.51693056E-01 0.45069327E+03</pdfrwt>
<totfact> 0.11569586E+03</totfact>
</mgrwt>
</event>
<event>
 4    1  0.4949719E-002  0.4045513E+03  0.7818608E-02  0.1042215E+00
         21   -1    0    0  501  502  0.00000000000E+00  0.00000000000E+00  0.14777040543E+04  0.14777040543E+04  0.00000000000E+00 0. -1.
         21   -1    0    0  502  503 -0.00000000000E+00 -0.00000000000E+00 -0.14077718952E+03  0.14077718952E+03  0.00000000000E+00 0. -1.
    9000005    1    1    2  501    0 -0.14301395043E+02 -0.58798456499E+02  0.10421772814E+04  0.11179424289E+04  0.40000000000E+03 0. -1.
   -9000005    1    1    2    0  503  0.14301395043E+02  0.58798456499E+02  0.29474958340E+03  0.50053881498E+03  0.40000000000E+03 0. -1.
<mgrwt>
<rscale>  2 0.40455134E+03</rscale>
<asrwt>0</asrwt>
<pdfrwt beam="1">  1       21 0.22733907E+00 0.40455134E+03</pdfrwt>
<pdfrwt beam="2">  1       21 0.21658030E-01 0.40455134E+03</pdfrwt>
<totfact> 0.15382428E+03</totfact>
</mgrwt>
</event>
<event>
 4    1  0.4949719E-002  0.4279974E+03  0.7818608E-02  0.1034494E+00
         21   -1    0    0  501  502  0.00000000000E+00  0.00000000000E+00  0.60333926750E+03  0.60333926750E+03  0.00000000000E+00 0. -1.
         21   -1    0    0  502  503 -0.00000000000E+00 -0.00000000000E+00 -0.60246113875E+03  0.60246113875E+03  0.00000000000E+00 0. -1.
    9000005    1    1    2  501    0 -0.13759175888E+03  0.65193885090E+02  0.42506457351E+03  0.60320943827E+03  0.40000000000E+03 0. -1.
   -9000005    1    1    2    0  503  0.13759175888E+03 -0.65193885090E+02 -0.42418644476E+03  0.60259096797E+03  0.40000000000E+03 0. -1.
<mgrwt>
<rscale>  2 0.42799735E+03</rscale>
<asrwt>0</asrwt>
<pdfrwt beam="1">  1       21 0.92821426E-01 0.42799735E+03</pdfrwt>
<pdfrwt beam="2">  1       21 0.92686329E-01 0.42799735E+03</pdfrwt>
<totfact> 0.81996044E+02</totfact>
</mgrwt>
</event>
<event>
 4    1  0.4949719E-002  0.5606018E+03  0.7818608E-02  0.9990694E-01
         21   -1    0    0  503  502  0.00000000000E+00  0.00000000000E+00  0.33351842946E+03  0.33351842946E+03  0.00000000000E+00 0.  1.
         21   -1    0    0  501  503 -0.00000000000E+00 -0.00000000000E+00 -0.99039769645E+03  0.99039769645E+03  0.00000000000E+00 0. -1.
    9000005    1    1    2  501    0 -0.39263274053E+03 -0.10673980670E+02 -0.47431702335E+03  0.73433714426E+03  0.40000000000E+03 0. -1.
   -9000005    1    1    2    0  502  0.39263274053E+03  0.10673980670E+02 -0.18256224363E+03  0.58957898165E+03  0.40000000000E+03 0.  1.
<mgrwt>
<rscale>  2 0.56060182E+03</rscale>
<asrwt>0</asrwt>
<pdfrwt beam="1">  1       21 0.51310528E-01 0.56060182E+03</pdfrwt>
<pdfrwt beam="2">  1       21 0.15236888E+00 0.56060182E+03</pdfrwt>
<totfact> 0.83506998E+02</totfact>
</mgrwt>
</event>
<event>
 4    1  0.4949719E-002  0.5637366E+03  0.7818608E-02  0.9983635E-01
         21   -1    0    0  503  502  0.00000000000E+00  0.00000000000E+00  0.20830250063E+03  0.20830250063E+03  0.00000000000E+00 0. -1.
         21   -1    0    0  501  503 -0.00000000000E+00 -0.00000000000E+00 -0.15338296124E+04  0.15338296124E+04  0.00000000000E+00 0.  1.
    9000005    1    1    2  501    0  0.35509863458E+03  0.17805578585E+03 -0.72633311723E+03  0.91943390210E+03  0.40000000000E+03 0.  1.
   -9000005    1    1    2    0  502 -0.35509863458E+03 -0.17805578585E+03 -0.59919399454E+03  0.82269821092E+03  0.40000000000E+03 0. -1.
<mgrwt>
<rscale>  2 0.56373655E+03</rscale>
<asrwt>0</asrwt>
<pdfrwt beam="1">  1       21 0.32046539E-01 0.56373655E+03</pdfrwt>
<pdfrwt beam="2">  1       21 0.23597378E+00 0.56373655E+03</pdfrwt>
<totfact> 0.58582420E+02</totfact>
</mgrwt>
</event>
<event>
 4    1  0.4949719E-002  0.4266525E+03  0.7818608E-02  0.1034923E+00
         21   -1    0    0  501  502  0.00000000000E+00  0.00000000000E+00  0.12334991714E+04  0.12334991714E+04  0.00000000000E+00 0.  1.
         21   -1    0    0  502  503 -0.00000000000E+00 -0.00000000000E+00 -0.20239359166E+03  0.20239359166E+03  0.00000000000E+00 0.  1.
    9000005    1    1    2  501    0 -0.60233679558E+02 -0.13566222540E+03  0.88920001296E+03  0.98626010697E+03  0.40000000000E+03 0.  1.
   -9000005    1    1    2    0  503  0.60233679558E+02  0.13566222540E+03  0.14190556679E+03  0.44963265611E+03  0.40000000000E+03 0.  1.
<mgrwt>
<rscale>  2 0.42665248E+03</rscale>
<asrwt>0</asrwt>
<pdfrwt beam="1">  1       21 0.18976910E+00 0.42665248E+03</pdfrwt>
<pdfrwt beam="2">  1       21 0.31137477E-01 0.42665248E+03</pdfrwt>
<totfact> 0.13183579E+03</totfact>
</mgrwt>
</event>
<event>
 4    1  0.4949719E-002  0.4753988E+03  0.7818608E-02  0.1020407E+00
         21   -1    0    0  501  502  0.00000000000E+00  0.00000000000E+00  0.10014501321E+04  0.10014501321E+04  0.00000000000E+00 0.  1.
         21   -1    0    0  502  503 -0.00000000000E+00 -0.00000000000E+00 -0.59903735461E+03  0.59903735461E+03  0.00000000000E+00 0.  1.
    9000005    1    1    2  501    0 -0.11992823628E+03  0.22720312501E+03  0.83297720820E+03  0.95909075235E+03  0.40000000000E+03 0.  1.
   -9000005    1    1    2    0  503  0.11992823628E+03 -0.22720312501E+03 -0.43056443070E+03  0.64139673437E+03  0.40000000000E+03 0.  1.
<mgrwt>
<rscale>  2 0.47539882E+03</rscale>
<asrwt>0</asrwt>
<pdfrwt beam="1">  1       21 0.15406925E+00 0.47539882E+03</pdfrwt>
<pdfrwt beam="2">  1       21 0.92159593E-01 0.47539882E+03</pdfrwt>
<totfact> 0.22373312E+02</totfact>
</mgrwt>
</event>
<event>
 4    1  0.4949719E-002  0.4863381E+03  0.7818608E-02  0.1017408E+00
         21   -1    0    0  503  502  0.00000000000E+00  0.00000000000E+00  0.24083964326E+03  0.24083964326E+03  0.00000000000E+00 0.  1.
         21   -1    0    0  501  503 -0.00000000000E+00 -0.00000000000E+00 -0.99196222116E+03  0.99196222116E+03  0.00000000000E+00 0.  1.
    9000005    1    1    2  501    0 -0.15520129410E+03 -0.22899197773E+03 -0.43707252056E+03  0.65387854819E+03  0.40000000000E+03 0.  1.
   -9000005    1    1    2    0  502  0.15520129410E+03  0.22899197773E+03 -0.31405005734E+03  0.57892331623E+03  0.40000000000E+03 0.  1.
<mgrwt>
<rscale>  2 0.48633812E+03</rscale>
<asrwt>0</asrwt>
<pdfrwt beam="1">  1       21 0.37052253E-01 0.48633812E+03</pdfrwt>
<pdfrwt beam="2">  1       21 0.15260957E+00 0.48633812E+03</pdfrwt>
<totfact> 0.16875354E+03</totfact>
</mgrwt>
</event>
<event>
 4    1  0.4949719E-002  0.4784934E+03  0.7818608E-02  0.1019550E+00
         21   -1    0    0  503  502  0.00000000000E+00  0.00000000000E+00  0.38316523092E+03  0.38316523092E+03  0.00000000000E+00 0.  1.
         21   -1    0    0  501  503 -0.00000000000E+00 -0.00000000000E+00 -0.64562569745E+03  0.64562569745E+03  0.00000000000E+00 0.  1.
    9000005    1    1    2  501    0 -0.98865512454E+02 -0.24327264185E+03 -0.27161551307E+03  0.55020991882E+03  0.40000000000E+03 0.  1.
   -9000005    1    1    2    0  502  0.98865512454E+02  0.24327264185E+03  0.91550465437E+01  0.47858100955E+03  0.40000000000E+03 0.  1.
<mgrwt>
<rscale>  2 0.47849344E+03</rscale>
<asrwt>0</asrwt>
<pdfrwt beam="1">  1       21 0.58948498E-01 0.47849344E+03</pdfrwt>
<pdfrwt beam="2">  1       21 0.99327029E-01 0.47849344E+03</pdfrwt>
<totfact> 0.19149590E+03</totfact>
</mgrwt>
</event>
<event>
 4    1  0.4949719E-002  0.7001608E+03  0.7818608E-02  0.9716957E-01
         21   -1    0    0  501  502  0.00000000000E+00  0.00000000000E+00  0.29344239765E+03  0.29344239765E+03  0.00000000000E+00 0.  1.
         21   -1    0    0  502  503 -0.00000000000E+00 -0.00000000000E+00 -0.20176952498E+04  0.20176952498E+04  0.00000000000E+00 0.  1.
    9000005    1    1    2  501    0 -0.26218653660E+03 -0.51135450742E+03 -0.38284385638E+03  0.79799412942E+03  0.40000000000E+03 0.  1.
   -9000005    1    1    2    0  503  0.26218653660E+03  0.51135450742E+03 -0.13414089958E+04  0.15131435181E+04  0.40000000000E+03 0.  1.
<mgrwt>
<rscale>  2 0.70016085E+03</rscale>
<asrwt>0</asrwt>
<pdfrwt beam="1">  1       21 0.45144985E-01 0.70016085E+03</pdfrwt>
<pdfrwt beam="2">  1       21 0.31041465E+00 0.70016085E+03</pdfrwt>
<totfact> 0.95147491E+01</totfact>
</mgrwt>
</event>
<event>
 4    1  0.4949719E-002  0.5661844E+03  0.7818608E-02  0.9978158E-01
         21   -1    0    0  501  502  0.00000000000E+00  0.00000000000E+00  0.76418663182E+03  0.76418663182E+03  0.00000000000E+00 0. -1.
         21   -1    0    0  502  503 -0.00000000000E+00 -0.00000000000E+00 -0.68711291284E+03  0.68711291284E+03  0.00000000000E+00 0. -1.
    9000005    1    1    2  501    0 -0.40055132551E+03 -0.11106699388E+02 -0.41433863833E+03  0.70159905242E+03  0.40000000000E+03 0. -1.
   -9000005    1    1    2    0  503  0.40055132551E+03  0.11106699388E+02  0.49141235732E+03  0.74970049224E+03  0.40000000000E+03 0. -1.
<mgrwt>
<rscale>  2 0.56618435E+03</rscale>
<asrwt>0</asrwt>
<pdfrwt beam="1">  1       21 0.11756717E+00 0.56618435E+03</pdfrwt>
<pdfrwt beam="2">  1       21 0.10570968E+00 0.56618435E+03</pdfrwt>
<totfact> 0.31493516E+02</totfact>
</mgrwt>
</event>
<event>
 4    1  0.4949719E-002  0.4142389E+03  0.7818608E-02  0.1038958E+00
         21   -1    0    0  503  502  0.00000000000E+00  0.00000000000E+00  0.39665153427E+03  0.39665153427E+03  0.00000000000E+00 0. -1.
         21   -1    0    0  501  503 -0.00000000000E+00 -0.00000000000E+00 -0.12125329382E+04  0.12125329382E+04  0.00000000000E+00 0.  1.
    9000005    1    1    2  501    0  0.74714398319E+02 -0.77534668467E+02 -0.10532322886E+04  0.11317650462E+04  0.40000000000E+03 0.  1.
   -9000005    1    1    2    0  502 -0.74714398319E+02  0.77534668467E+02  0.23735088464E+03  0.47741942626E+03  0.40000000000E+03 0. -1.
<mgrwt>
<rscale>  2 0.41423890E+03</rscale>
<asrwt>0</asrwt>
<pdfrwt beam="1">  1       21 0.61023314E-01 0.41423890E+03</pdfrwt>
<pdfrwt beam="2">  1       21 0.18654353E+00 0.41423890E+03</pdfrwt>
<totfact> 0.34311480E+02</totfact>
</mgrwt>
</event>
<event>
 4    1  0.4949719E-002  0.4382842E+03  0.7818608E-02  0.1031275E+00
         21   -1    0    0  501  502  0.00000000000E+00  0.00000000000E+00  0.99268126982E+03  0.99268126982E+03  0.00000000000E+00 0. -1.
         21   -1    0    0  502  503 -0.00000000000E+00 -0.00000000000E+00 -0.23857319082E+03  0.23857319082E+03  0.00000000000E+00 0. -1.
    9000005    1    1    2  501    0 -0.16545281726E+03  0.68690746265E+02  0.64461414928E+03  0.77950013137E+03  0.40000000000E+03 0. -1.
   -9000005    1    1    2    0  503  0.16545281726E+03 -0.68690746265E+02  0.10949392972E+03  0.45175432926E+03  0.40000000000E+03 0. -1.
<mgrwt>
<rscale>  2 0.43828422E+03</rscale>
<asrwt>0</asrwt>
<pdfrwt beam="1">  1       21 0.15272019E+00 0.43828422E+03</pdfrwt>
<pdfrwt beam="2">  1       21 0.36703569E-01 0.43828422E+03</pdfrwt>
<totfact> 0.17499230E+03</totfact>
</mgrwt>
</event>
<event>
 4    1  0.4949719E-002  0.4186673E+03  0.7818608E-02  0.1037501E+00
         21   -1    0    0  501  502  0.00000000000E+00  0.00000000000E+00  0.34038732963E+03  0.34038732963E+03  0.00000000000E+00 0.  1.
         21   -1    0    0  502  503 -0.00000000000E+00 -0.00000000000E+00 -0.74624077765E+03  0.74624077765E+03  0.00000000000E+00 0.  1.
    9000005    1    1    2  501    0 -0.10419698897E+03 -0.66523186305E+02  0.99549266785E+02  0.43033986957E+03  0.40000000000E+03 0.  1.
   -9000005    1    1    2    0  503  0.10419698897E+03  0.66523186305E+02 -0.50540271480E+03  0.65628823771E+03  0.40000000000E+03 0.  1.
<mgrwt>
<rscale>  2 0.41866735E+03</rscale>
<asrwt>0</asrwt>
<pdfrwt beam="1">  1       21 0.52367282E-01 0.41866735E+03</pdfrwt>
<pdfrwt beam="2">  1       21 0.11480627E+00 0.41866735E+03</pdfrwt>
<totfact> 0.17708802E+03</totfact>
</mgrwt>
</event>
<event>
 4    1  0.4949719E-002  0.4031414E+03  0.7818608E-02  0.1042697E+00
         21   -1    0    0  503  502  0.00000000000E+00  0.00000000000E+00  0.26596382348E+03  0.26596382348E+03  0.00000000000E+00 0. -1.
         21   -1    0    0  501  503 -0.00000000000E+00 -0.00000000000E+00 -0.61206876052E+03  0.61206876052E+03  0.00000000000E+00 0. -1.
    9000005    1    1    2  501    0 -0.44950603015E+02 -0.22414359459E+02 -0.15533319875E+03  0.43203166881E+03  0.40000000000E+03 0. -1.
   -9000005    1    1    2    0  502  0.44950603015E+02  0.22414359459E+02 -0.19077173829E+03  0.44600091519E+03  0.40000000000E+03 0. -1.
<mgrwt>
<rscale>  2 0.40314137E+03</rscale>
<asrwt>0</asrwt>
<pdfrwt beam="1">  1       21 0.40917512E-01 0.40314137E+03</pdfrwt>
<pdfrwt beam="2">  1       21 0.94164424E-01 0.40314137E+03</pdfrwt>
<totfact> 0.48562870E+03</totfact>
</mgrwt>
</event>
<event>
 4    1  0.4949719E-002  0.5840024E+03  0.7818608E-02  0.9939163E-01
         21   -1    0    0  503  502  0.00000000000E+00  0.00000000000E+00  0.26941495001E+04  0.26941495001E+04  0.00000000000E+00 0.  1.
         21   -1    0    0  501  503 -0.00000000000E+00 -0.00000000000E+00 -0.17579176706E+03  0.17579176706E+03  0.00000000000E+00 0. -1.
    9000005    1    1    2  501    0  0.15057796526E+03 -0.39797616689E+03  0.50003573646E+03  0.76882669749E+03  0.40000000000E+03 0. -1.
   -9000005    1    1    2    0  502 -0.15057796526E+03  0.39797616689E+03  0.20183219966E+04  0.21011145697E+04  0.40000000000E+03 0.  1.
<mgrwt>
<rscale>  2 0.58400236E+03</rscale>
<asrwt>0</asrwt>
<pdfrwt beam="1">  1       21 0.41448451E+00 0.58400236E+03</pdfrwt>
<pdfrwt beam="2">  1       21 0.27044889E-01 0.58400236E+03</pdfrwt>
<totfact> 0.63156488E+01</totfact>
</mgrwt>
</event>
<event>
 4    1  0.4949719E-002  0.4131649E+03  0.7818608E-02  0.1039314E+00
         21   -1    0    0  501  502  0.00000000000E+00  0.00000000000E+00  0.78630143651E+03  0.78630143651E+03  0.00000000000E+00 0.  1.
         21   -1    0    0  502  503 -0.00000000000E+00 -0.00000000000E+00 -0.34817269488E+03  0.34817269488E+03  0.00000000000E+00 0.  1.
    9000005    1    1    2  501    0  0.98979019151E+02 -0.30139688532E+02  0.56710106610E+03  0.70164725199E+03  0.40000000000E+03 0.  1.
   -9000005    1    1    2    0  503 -0.98979019151E+02  0.30139688532E+02 -0.12897232447E+03  0.43282687941E+03  0.40000000000E+03 0.  1.
<mgrwt>
<rscale>  2 0.41316492E+03</rscale>
<asrwt>0</asrwt>
<pdfrwt beam="1">  1       21 0.12096945E+00 0.41316492E+03</pdfrwt>
<pdfrwt beam="2">  1       21 0.53565030E-01 0.41316492E+03</pdfrwt>
<totfact> 0.14824603E+03</totfact>
</mgrwt>
</event>
<event>
 4    1  0.4949719E-002  0.1078343E+04  0.7818608E-02  0.9226562E-01
         21   -1    0    0  503  502  0.00000000000E+00  0.00000000000E+00  0.13653250411E+04  0.13653250411E+04  0.00000000000E+00 0.  1.
         21   -1    0    0  501  503 -0.00000000000E+00 -0.00000000000E+00 -0.98461394653E+03  0.98461394653E+03  0.00000000000E+00 0.  1.
    9000005    1    1    2  501    0  0.93151595800E+03  0.36756033389E+03 -0.24137074689E+03  0.11050259800E+04  0.40000000000E+03 0.  1.
   -9000005    1    1    2    0  502 -0.93151595800E+03 -0.36756033389E+03  0.62208184145E+03  0.12449130076E+04  0.40000000000E+03 0.  1.
<mgrwt>
<rscale>  2 0.10783425E+04</rscale>
<asrwt>0</asrwt>
<pdfrwt beam="1">  1       21 0.21005001E+00 0.10783425E+04</pdfrwt>
<pdfrwt beam="2">  1       21 0.15147907E+00 0.10783425E+04</pdfrwt>
<totfact> 0.20113939E+01</totfact>
</mgrwt>
</event>
<event>
 4    1  0.4949719E-002  0.4329241E+03  0.7818608E-02  0.1032940E+00
         21   -1    0    0  503  502  0.00000000000E+00  0.00000000000E+00  0.96482169192E+03  0.96482169192E+03  0.00000000000E+00 0.  1.
         21   -1    0    0  501  503 -0.00000000000E+00 -0.00000000000E+00 -0.42959618100E+03  0.42959618100E+03  0.00000000000E+00 0.  1.
    9000005    1    1    2  501    0  0.13687784557E+03 -0.93207951851E+02 -0.24842318973E+03  0.49913660264E+03  0.40000000000E+03 0.  1.
   -9000005    1    1    2    0  502 -0.13687784557E+03  0.93207951851E+02  0.78364870065E+03  0.89528127028E+03  0.40000000000E+03 0.  1.
<mgrwt>
<rscale>  2 0.43292409E+03</rscale>
<asrwt>0</asrwt>
<pdfrwt beam="1">  1       21 0.14843411E+00 0.43292409E+03</pdfrwt>
<pdfrwt beam="2">  1       21 0.66091720E-01 0.43292409E+03</pdfrwt>
<totfact> 0.54320151E+02</totfact>
</mgrwt>
</event>
<event>
 4    1  0.4949719E-002  0.4496820E+03  0.7818608E-02  0.1027817E+00
         21   -1    0    0  501  502  0.00000000000E+00  0.00000000000E+00  0.16025408917E+04  0.16025408917E+04  0.00000000000E+00 0.  1.
         21   -1    0    0  502  503 -0.00000000000E+00 -0.00000000000E+00 -0.26801888219E+03  0.26801888219E+03  0.00000000000E+00 0.  1.
    9000005    1    1    2  501    0 -0.16025098090E+03  0.12858285484E+03  0.13476408953E+04  0.14206864222E+04  0.40000000000E+03 0.  1.
   -9000005    1    1    2    0  503  0.16025098090E+03 -0.12858285484E+03 -0.13118885772E+02  0.44987335174E+03  0.40000000000E+03 0.  1.
<mgrwt>
<rscale>  2 0.44968203E+03</rscale>
<asrwt>0</asrwt>
<pdfrwt beam="1">  1       21 0.24654475E+00 0.44968203E+03</pdfrwt>
<pdfrwt beam="2">  1       21 0.41233675E-01 0.44968203E+03</pdfrwt>
<totfact> 0.31760390E+02</totfact>
</mgrwt>
</event>
<event>
 4    1  0.4949719E-002  0.7059693E+03  0.7818608E-02  0.9707078E-01
         21   -1    0    0  503  502  0.00000000000E+00  0.00000000000E+00  0.13516011596E+04  0.13516011596E+04  0.00000000000E+00 0. -1.
         21   -1    0    0  501  503 -0.00000000000E+00 -0.00000000000E+00 -0.42715031925E+03  0.42715031925E+03  0.00000000000E+00 0.  1.
    9000005    1    1    2  501    0  0.42098360537E+03 -0.40145410191E+03  0.13335035053E+03  0.71845313551E+03  0.40000000000E+03 0.  1.
   -9000005    1    1    2    0  502 -0.42098360537E+03  0.40145410191E+03  0.79110048982E+03  0.10602983434E+04  0.40000000000E+03 0.  1.
<mgrwt>
<rscale>  2 0.70596926E+03</rscale>
<asrwt>0</asrwt>
<pdfrwt beam="1">  1       21 0.20793864E+00 0.70596926E+03</pdfrwt>
<pdfrwt beam="2">  1       21 0.65715435E-01 0.70596926E+03</pdfrwt>
<totfact> 0.18431678E+02</totfact>
</mgrwt>
</event>
<event>
 4    1  0.4949719E-002  0.4653339E+03  0.7818608E-02  0.1023245E+00
         21   -1    0    0  501  502  0.00000000000E+00  0.00000000000E+00  0.19876368225E+04  0.19876368225E+04  0.00000000000E+00 0. -1.
         21   -1    0    0  502  503 -0.00000000000E+00 -0.00000000000E+00 -0.12613524906E+03  0.12613524906E+03  0.00000000000E+00 0.  1.
    9000005    1    1    2  501    0  0.23443236150E+03  0.39713242700E+02  0.13209605756E+04  0.14005257999E+04  0.40000000000E+03 0.  1.
   -9000005    1    1    2    0  503 -0.23443236150E+03 -0.39713242700E+02  0.54054099785E+03  0.71324627172E+03  0.40000000000E+03 0.  1.
<mgrwt>
<rscale>  2 0.46533394E+03</rscale>
<asrwt>0</asrwt>
<pdfrwt beam="1">  1       21 0.30579026E+00 0.46533394E+03</pdfrwt>
<pdfrwt beam="2">  1       21 0.19405424E-01 0.46533394E+03</pdfrwt>
<totfact> 0.61141564E+02</totfact>
</mgrwt>
</event>
<event>
 4    1  0.4949719E-002  0.4700473E+03  0.7818608E-02  0.1021907E+00
         21   -1    0    0  501  502  0.00000000000E+00  0.00000000000E+00  0.13726297728E+04  0.13726297728E+04  0.00000000000E+00 0.  1.
         21   -1    0    0  502  503 -0.00000000000E+00 -0.00000000000E+00 -0.45022818237E+03  0.45022818237E+03  0.00000000000E+00 0.  1.
    9000005    1    1    2  501    0 -0.23623808319E+03 -0.71666336392E+02  0.11917568456E+04  0.12811045526E+04  0.40000000000E+03 0.  1.
   -9000005    1    1    2    0  503  0.23623808319E+03  0.71666336392E+02 -0.26935525515E+03  0.54175340257E+03  0.40000000000E+03 0.  1.
<mgrwt>
<rscale>  2 0.47004733E+03</rscale>
<asrwt>0</asrwt>
<pdfrwt beam="1">  1       21 0.21117381E+00 0.47004733E+03</pdfrwt>
<pdfrwt beam="2">  1       21 0.69265875E-01 0.47004733E+03</pdfrwt>
<totfact> 0.17197699E+02</totfact>
</mgrwt>
</event>
<event>
 4    1  0.4949719E-002  0.4178077E+03  0.7818608E-02  0.1037782E+00
         21   -1    0    0  501  502  0.00000000000E+00  0.00000000000E+00  0.66107008887E+03  0.66107008887E+03  0.00000000000E+00 0.  1.
         21   -1    0    0  502  503 -0.00000000000E+00 -0.00000000000E+00 -0.33848296185E+03  0.33848296185E+03  0.00000000000E+00 0.  1.
    9000005    1    1    2  501    0  0.81176624551E+01 -0.12040510471E+03  0.39563872300E+03  0.57540706011E+03  0.40000000000E+03 0.  1.
   -9000005    1    1    2    0  503 -0.81176624551E+01  0.12040510471E+03 -0.73051595977E+02  0.42414599062E+03  0.40000000000E+03 0.  1.
<mgrwt>
<rscale>  2 0.41780771E+03</rscale>
<asrwt>0</asrwt>
<pdfrwt beam="1">  1       21 0.10170309E+00 0.41780771E+03</pdfrwt>
<pdfrwt beam="2">  1       21 0.52074302E-01 0.41780771E+03</pdfrwt>
<totfact> 0.24180913E+03</totfact>
</mgrwt>
</event>
<event>
 4    1  0.4949719E-002  0.4513650E+03  0.7818608E-02  0.1027316E+00
         21   -1    0    0  503  502  0.00000000000E+00  0.00000000000E+00  0.26830540944E+03  0.26830540944E+03  0.00000000000E+00 0.  1.
         21   -1    0    0  501  503 -0.00000000000E+00 -0.00000000000E+00 -0.79904614835E+03  0.79904614835E+03  0.00000000000E+00 0. -1.
    9000005    1    1    2  501    0 -0.17820795995E+03  0.10941780493E+03 -0.38436192742E+03  0.59284435080E+03  0.40000000000E+03 0. -1.
   -9000005    1    1    2    0  502  0.17820795995E+03 -0.10941780493E+03 -0.14637881149E+03  0.47450720698E+03  0.40000000000E+03 0.  1.
<mgrwt>
<rscale>  2 0.45136497E+03</rscale>
<asrwt>0</asrwt>
<pdfrwt beam="1">  1       21 0.41277755E-01 0.45136497E+03</pdfrwt>
<pdfrwt beam="2">  1       21 0.12293018E+00 0.45136497E+03</pdfrwt>
<totfact> 0.24259937E+03</totfact>
</mgrwt>
</event>
<event>
 4    1  0.4949719E-002  0.4199150E+03  0.7818608E-02  0.1037094E+00
         21   -1    0    0  503  502  0.00000000000E+00  0.00000000000E+00  0.22913057546E+03  0.22913057546E+03  0.00000000000E+00 0. -1.
         21   -1    0    0  501  503 -0.00000000000E+00 -0.00000000000E+00 -0.10118761018E+04  0.10118761018E+04  0.00000000000E+00 0. -1.
    9000005    1    1    2  501    0 -0.10403015774E+03 -0.74204411952E+02 -0.69502474194E+03  0.81202706875E+03  0.40000000000E+03 0. -1.
   -9000005    1    1    2    0  502  0.10403015774E+03  0.74204411952E+02 -0.87720784367E+02  0.42897960847E+03  0.40000000000E+03 0. -1.
<mgrwt>
<rscale>  2 0.41991495E+03</rscale>
<asrwt>0</asrwt>
<pdfrwt beam="1">  1       21 0.35250859E-01 0.41991495E+03</pdfrwt>
<pdfrwt beam="2">  1       21 0.15567324E+00 0.41991495E+03</pdfrwt>
<totfact> 0.18163839E+03</totfact>
</mgrwt>
</event>
<event>
 4    1  0.4949719E-002  0.5016370E+03  0.7818608E-02  0.1013353E+00
         21   -1    0    0  501  502  0.00000000000E+00  0.00000000000E+00  0.43187620060E+03  0.43187620060E+03  0.00000000000E+00 0. -1.
         21   -1    0    0  502  503 -0.00000000000E+00 -0.00000000000E+00 -0.63724438379E+03  0.63724438379E+03  0.00000000000E+00 0.  1.
    9000005    1    1    2  501    0 -0.26683946576E+03 -0.14295583317E+03  0.53757840659E+02  0.50450924288E+03  0.40000000000E+03 0.  1.
   -9000005    1    1    2    0  503  0.26683946576E+03  0.14295583317E+03 -0.25912602385E+03  0.56461134150E+03  0.40000000000E+03 0. -1.
<mgrwt>
<rscale>  2 0.50163699E+03</rscale>
<asrwt>0</asrwt>
<pdfrwt beam="1">  1       21 0.66442493E-01 0.50163699E+03</pdfrwt>
<pdfrwt beam="2">  1       21 0.98037597E-01 0.50163699E+03</pdfrwt>
<totfact> 0.15045028E+03</totfact>
</mgrwt>
</event>
<event>
 4    1  0.4949719E-002  0.4399847E+03  0.7818608E-02  0.1030751E+00
         21   -1    0    0  501  502  0.00000000000E+00  0.00000000000E+00  0.11338908106E+03  0.11338908106E+03  0.00000000000E+00 0.  1.
         21   -1    0    0  502  503 -0.00000000000E+00 -0.00000000000E+00 -0.17400431431E+04  0.17400431431E+04  0.00000000000E+00 0.  1.
    9000005    1    1    2  501    0 -0.17623936123E+03 -0.50261677225E+02 -0.68615821627E+03  0.81510713799E+03  0.40000000000E+03 0.  1.
   -9000005    1    1    2    0  503  0.17623936123E+03  0.50261677225E+02 -0.94049584577E+03  0.10383250862E+04  0.40000000000E+03 0.  1.
<mgrwt>
<rscale>  2 0.43998471E+03</rscale>
<asrwt>0</asrwt>
<pdfrwt beam="1">  1       21 0.17444474E-01 0.43998471E+03</pdfrwt>
<pdfrwt beam="2">  1       21 0.26769894E+00 0.43998471E+03</pdfrwt>
<totfact> 0.12855565E+03</totfact>
</mgrwt>
</event>
<event>
 4    1  0.4949719E-002  0.4683641E+03  0.7818608E-02  0.1022383E+00
         21   -1    0    0  501  502  0.00000000000E+00  0.00000000000E+00  0.33091350829E+03  0.33091350829E+03  0.00000000000E+00 0. -1.
         21   -1    0    0  502  503 -0.00000000000E+00 -0.00000000000E+00 -0.10640777157E+04  0.10640777157E+04  0.00000000000E+00 0.  1.
    9000005    1    1    2  501    0  0.58213066238E+02 -0.23659284453E+03  0.61689548412E+02  0.47240928817E+03  0.40000000000E+03 0. -1.
   -9000005    1    1    2    0  503 -0.58213066238E+02  0.23659284453E+03 -0.79485375579E+03  0.92258193580E+03  0.40000000000E+03 0.  1.
<mgrwt>
<rscale>  2 0.46836411E+03</rscale>
<asrwt>0</asrwt>
<pdfrwt beam="1">  1       21 0.50909770E-01 0.46836411E+03</pdfrwt>
<pdfrwt beam="2">  1       21 0.16370427E+00 0.46836411E+03</pdfrwt>
<totfact> 0.72068313E+02</totfact>
</mgrwt>
</event>
<event>
 4    1  0.4949719E-002  0.4362994E+03  0.7818608E-02  0.1031888E+00
         21   -1    0    0  503  502  0.00000000000E+00  0.00000000000E+00  0.85326239045E+03  0.85326239045E+03  0.00000000000E+00 0. -1.
         21   -1    0    0  501  503 -0.00000000000E+00 -0.00000000000E+00 -0.29000048969E+03  0.29000048969E+03  0.00000000000E+00 0. -1.
    9000005    1    1    2  501    0  0.15271175283E+03  0.83882521764E+02  0.70610002749E+01  0.43635652239E+03  0.40000000000E+03 0. -1.
   -9000005    1    1    2    0  502 -0.15271175283E+03 -0.83882521764E+02  0.55620090049E+03  0.70690635774E+03  0.40000000000E+03 0. -1.
<mgrwt>
<rscale>  2 0.43629939E+03</rscale>
<asrwt>0</asrwt>
<pdfrwt beam="1">  1       21 0.13127114E+00 0.43629939E+03</pdfrwt>
<pdfrwt beam="2">  1       21 0.44615460E-01 0.43629939E+03</pdfrwt>
<totfact> 0.17523989E+03</totfact>
</mgrwt>
</event>
<event>
 4    1  0.4949719E-002  0.4444277E+03  0.7818608E-02  0.1029397E+00
         21   -1    0    0  501  502  0.00000000000E+00  0.00000000000E+00  0.21078882821E+04  0.21078882821E+04  0.00000000000E+00 0. -1.
         21   -1    0    0  502  503 -0.00000000000E+00 -0.00000000000E+00 -0.93746121878E+02  0.93746121878E+02  0.00000000000E+00 0. -1.
    9000005    1    1    2  501    0 -0.10078435533E+03 -0.16540412761E+03  0.10306082919E+04  0.11223499735E+04  0.40000000000E+03 0. -1.
   -9000005    1    1    2    0  503  0.10078435533E+03  0.16540412761E+03  0.98353386834E+03  0.10792844305E+04  0.40000000000E+03 0. -1.
<mgrwt>
<rscale>  2 0.44442774E+03</rscale>
<asrwt>0</asrwt>
<pdfrwt beam="1">  1       21 0.32429047E+00 0.44442774E+03</pdfrwt>
<pdfrwt beam="2">  1       21 0.14422482E-01 0.44442774E+03</pdfrwt>
<totfact> 0.83411751E+02</totfact>
</mgrwt>
</event>
<event>
 4    1  0.4949719E-002  0.4648188E+03  0.7818608E-02  0.1023393E+00
         21   -1    0    0  501  502  0.00000000000E+00  0.00000000000E+00  0.49418840058E+03  0.49418840058E+03  0.00000000000E+00 0.  1.
         21   -1    0    0  502  503 -0.00000000000E+00 -0.00000000000E+00 -0.71668843670E+03  0.71668843670E+03  0.00000000000E+00 0.  1.
    9000005    1    1    2  501    0  0.16599288368E+03 -0.16882785146E+03  0.26683626831E+03  0.53596462099E+03  0.40000000000E+03 0.  1.
   -9000005    1    1    2    0  503 -0.16599288368E+03  0.16882785146E+03 -0.48933630444E+03  0.67491221629E+03  0.40000000000E+03 0.  1.
<mgrwt>
<rscale>  2 0.46481876E+03</rscale>
<asrwt>0</asrwt>
<pdfrwt beam="1">  1       21 0.76028985E-01 0.46481876E+03</pdfrwt>
<pdfrwt beam="2">  1       21 0.11025976E+00 0.46481876E+03</pdfrwt>
<totfact> 0.84258421E+02</totfact>
</mgrwt>
</event>
<event>
 4    1  0.4949719E-002  0.4108688E+03  0.7818608E-02  0.1040080E+00
         21   -1    0    0  501  502  0.00000000000E+00  0.00000000000E+00  0.17413062953E+03  0.17413062953E+03  0.00000000000E+00 0.  1.
         21   -1    0    0  502  503 -0.00000000000E+00 -0.00000000000E+00 -0.10110057069E+04  0.10110057069E+04  0.00000000000E+00 0.  1.
    9000005    1    1    2  501    0 -0.93433288711E+02  0.91340354933E+01 -0.29831937515E+03  0.50774763380E+03  0.40000000000E+03 0.  1.
   -9000005    1    1    2    0  503  0.93433288711E+02 -0.91340354933E+01 -0.53855570222E+03  0.67738870262E+03  0.40000000000E+03 0.  1.
<mgrwt>
<rscale>  2 0.41086885E+03</rscale>
<asrwt>0</asrwt>
<pdfrwt beam="1">  1       21 0.26789328E-01 0.41086885E+03</pdfrwt>
<pdfrwt beam="2">  1       21 0.15553934E+00 0.41086885E+03</pdfrwt>
<totfact> 0.31553362E+03</totfact>
</mgrwt>
</event>
<event>
 4    1  0.4949719E-002  0.4629284E+03  0.7818608E-02  0.1023935E+00
         21   -1    0    0  501  502  0.00000000000E+00  0.00000000000E+00  0.55630220251E+03  0.55630220251E+03  0.00000000000E+00 0. -1.
         21   -1    0    0  502  503 -0.00000000000E+00 -0.00000000000E+00 -0.40938386485E+03  0.40938386485E+03  0.00000000000E+00 0. -1.
    9000005    1    1    2  501    0  0.23001889708E+03  0.37336894477E+02 -0.43830334298E+02  0.46499874721E+03  0.40000000000E+03 0. -1.
   -9000005    1    1    2    0  503 -0.23001889708E+03 -0.37336894477E+02  0.19074867196E+03  0.50068732015E+03  0.40000000000E+03 0. -1.
<mgrwt>
<rscale>  2 0.46292844E+03</rscale>
<asrwt>0</asrwt>
<pdfrwt beam="1">  1       21 0.85584954E-01 0.46292844E+03</pdfrwt>
<pdfrwt beam="2">  1       21 0.62982133E-01 0.46292844E+03</pdfrwt>
<totfact> 0.23742752E+03</totfact>
</mgrwt>
</event>
<event>
 4    1  0.4949719E-002  0.4584252E+03  0.7818608E-02  0.1025239E+00
         21   -1    0    0  503  502  0.00000000000E+00  0.00000000000E+00  0.25962282933E+03  0.25962282933E+03  0.00000000000E+00 0.  1.
         21   -1    0    0  501  503 -0.00000000000E+00 -0.00000000000E+00 -0.12521708830E+04  0.12521708830E+04  0.00000000000E+00 0.  1.
    9000005    1    1    2  501    0  0.22108131925E+03 -0.35731538154E+02 -0.94573498857E+03  0.10509844724E+04  0.40000000000E+03 0.  1.
   -9000005    1    1    2    0  502 -0.22108131925E+03  0.35731538154E+02 -0.46813065046E+02  0.46080923992E+03  0.40000000000E+03 0.  1.
<mgrwt>
<rscale>  2 0.45842523E+03</rscale>
<asrwt>0</asrwt>
<pdfrwt beam="1">  1       21 0.39941974E-01 0.45842523E+03</pdfrwt>
<pdfrwt beam="2">  1       21 0.19264168E+00 0.45842523E+03</pdfrwt>
<totfact> 0.75000166E+02</totfact>
</mgrwt>
</event>
<event>
 4    1  0.4949719E-002  0.4803029E+03  0.7818608E-02  0.1019052E+00
         21   -1    0    0  503  502  0.00000000000E+00  0.00000000000E+00  0.25046461437E+03  0.25046461437E+03  0.00000000000E+00 0.  1.
         21   -1    0    0  501  503 -0.00000000000E+00 -0.00000000000E+00 -0.15031090676E+04  0.15031090676E+04  0.00000000000E+00 0. -1.
    9000005    1    1    2  501    0  0.21916930930E+03 -0.15051819059E+03 -0.11719313105E+04  0.12665361852E+04  0.40000000000E+03 0. -1.
   -9000005    1    1    2    0  502 -0.21916930930E+03  0.15051819059E+03 -0.80713142688E+02  0.48703749675E+03  0.40000000000E+03 0.  1.
<mgrwt>
<rscale>  2 0.48030294E+03</rscale>
<asrwt>0</asrwt>
<pdfrwt beam="1">  1       21 0.38533017E-01 0.48030294E+03</pdfrwt>
<pdfrwt beam="2">  1       21 0.23124755E+00 0.48030294E+03</pdfrwt>
<totfact> 0.44755825E+02</totfact>
</mgrwt>
</event>
<event>
 4    1  0.4949719E-002  0.5032955E+03  0.7818608E-02  0.1012922E+00
         21   -1    0    0  501  502  0.00000000000E+00  0.00000000000E+00  0.51793068009E+03  0.51793068009E+03  0.00000000000E+00 0. -1.
         21   -1    0    0  502  503 -0.00000000000E+00 -0.00000000000E+00 -0.74458760278E+03  0.74458760278E+03  0.00000000000E+00 0. -1.
    9000005    1    1    2  501    0  0.28166199988E+03 -0.11820684611E+03  0.25646305059E+03  0.56487134549E+03  0.40000000000E+03 0. -1.
   -9000005    1    1    2    0  503 -0.28166199988E+03  0.11820684611E+03 -0.48311997328E+03  0.69764693738E+03  0.40000000000E+03 0. -1.
<mgrwt>
<rscale>  2 0.50329548E+03</rscale>
<asrwt>0</asrwt>
<pdfrwt beam="1">  1       21 0.79681643E-01 0.50329548E+03</pdfrwt>
<pdfrwt beam="2">  1       21 0.11455194E+00 0.50329548E+03</pdfrwt>
<totfact> 0.67707838E+02</totfact>
</mgrwt>
</event>
<event>
 4    1  0.4949719E-002  0.4487819E+03  0.7818608E-02  0.1028086E+00
         21   -1    0    0  501  502  0.00000000000E+00  0.00000000000E+00  0.29126152257E+03  0.29126152257E+03  0.00000000000E+00 0. -1.
         21   -1    0    0  502  503 -0.00000000000E+00 -0.00000000000E+00 -0.14079066889E+04  0.14079066889E+04  0.00000000000E+00 0. -1.
    9000005    1    1    2  501    0  0.73234355168E+02  0.18984705887E+03  0.47717729000E+02  0.45131159768E+03  0.40000000000E+03 0. -1.
   -9000005    1    1    2    0  503 -0.73234355168E+02 -0.18984705887E+03 -0.11643628953E+04  0.12478566138E+04  0.40000000000E+03 0. -1.
<mgrwt>
<rscale>  2 0.44878188E+03</rscale>
<asrwt>0</asrwt>
<pdfrwt beam="1">  1       21 0.44809464E-01 0.44878188E+03</pdfrwt>
<pdfrwt beam="2">  1       21 0.21660103E+00 0.44878188E+03</pdfrwt>
<totfact> 0.41216926E+02</totfact>
</mgrwt>
</event>
<event>
 4    1  0.4949719E-002  0.4395418E+03  0.7818608E-02  0.1030887E+00
         21   -1    0    0  501  502  0.00000000000E+00  0.00000000000E+00  0.14494693232E+03  0.14494693232E+03  0.00000000000E+00 0. -1.
         21   -1    0    0  502  503 -0.00000000000E+00 -0.00000000000E+00 -0.13476929697E+04  0.13476929697E+04  0.00000000000E+00 0. -1.
    9000005    1    1    2  501    0 -0.10709374405E+03 -0.14740405615E+03 -0.67961405477E+03  0.80936536201E+03  0.40000000000E+03 0. -1.
   -9000005    1    1    2    0  503  0.10709374405E+03  0.14740405615E+03 -0.52313198261E+03  0.68327454000E+03  0.40000000000E+03 0. -1.
<mgrwt>
<rscale>  2 0.43954184E+03</rscale>
<asrwt>0</asrwt>
<pdfrwt beam="1">  1       21 0.22299528E-01 0.43954184E+03</pdfrwt>
<pdfrwt beam="2">  1       21 0.20733738E+00 0.43954184E+03</pdfrwt>
<totfact> 0.19217974E+03</totfact>
</mgrwt>
</event>
<event>
 4    1  0.4949719E-002  0.4666727E+03  0.7818608E-02  0.1022864E+00
         21   -1    0    0  503  502  0.00000000000E+00  0.00000000000E+00  0.38263729665E+03  0.38263729665E+03  0.00000000000E+00 0.  1.
         21   -1    0    0  501  503 -0.00000000000E+00 -0.00000000000E+00 -0.17683335229E+04  0.17683335229E+04  0.00000000000E+00 0.  1.
    9000005    1    1    2  501    0 -0.11912950760E+03  0.20878587862E+03 -0.15784993229E+04  0.16460387283E+04  0.40000000000E+03 0.  1.
   -9000005    1    1    2    0  502  0.11912950760E+03 -0.20878587862E+03  0.19280309665E+03  0.50493209124E+03  0.40000000000E+03 0.  1.
<mgrwt>
<rscale>  2 0.46667267E+03</rscale>
<asrwt>0</asrwt>
<pdfrwt beam="1">  1       21 0.58867277E-01 0.46667267E+03</pdfrwt>
<pdfrwt beam="2">  1       21 0.27205131E+00 0.46667267E+03</pdfrwt>
<totfact> 0.10314037E+02</totfact>
</mgrwt>
</event>
<event>
 4    1  0.4949719E-002  0.5993088E+03  0.7818608E-02  0.9906841E-01
         21   -1    0    0  503  502  0.00000000000E+00  0.00000000000E+00  0.43132984029E+03  0.43132984029E+03  0.00000000000E+00 0. -1.
         21   -1    0    0  501  503 -0.00000000000E+00 -0.00000000000E+00 -0.17455604312E+04  0.17455604312E+04  0.00000000000E+00 0.  1.
    9000005    1    1    2  501    0 -0.40012719395E+03 -0.19765934777E+03  0.13000269497E+03  0.61324684247E+03  0.40000000000E+03 0. -1.
   -9000005    1    1    2    0  502  0.40012719395E+03  0.19765934777E+03 -0.14442332859E+04  0.15636434290E+04  0.40000000000E+03 0.  1.
<mgrwt>
<rscale>  2 0.59930876E+03</rscale>
<asrwt>0</asrwt>
<pdfrwt beam="1">  1       21 0.66358438E-01 0.59930876E+03</pdfrwt>
<pdfrwt beam="2">  1       21 0.26854776E+00 0.59930876E+03</pdfrwt>
<totfact> 0.77494689E+01</totfact>
</mgrwt>
</event>
<event>
 4    1  0.4949719E-002  0.5132506E+03  0.7818608E-02  0.1010377E+00
         21   -1    0    0  503  502  0.00000000000E+00  0.00000000000E+00  0.41077302031E+03  0.41077302031E+03  0.00000000000E+00 0.  1.
         21   -1    0    0  501  503 -0.00000000000E+00 -0.00000000000E+00 -0.77072149623E+03  0.77072149623E+03  0.00000000000E+00 0. -1.
    9000005    1    1    2  501    0 -0.10745332592E+03  0.30311706436E+03 -0.42205856170E+03  0.66449951201E+03  0.40000000000E+03 0.  1.
   -9000005    1    1    2    0  502  0.10745332592E+03 -0.30311706436E+03  0.62110085785E+02  0.51699500453E+03  0.40000000000E+03 0.  1.
<mgrwt>
<rscale>  2 0.51325059E+03</rscale>
<asrwt>0</asrwt>
<pdfrwt beam="1">  1       21 0.63195850E-01 0.51325059E+03</pdfrwt>
<pdfrwt beam="2">  1       21 0.11857254E+00 0.51325059E+03</pdfrwt>
<totfact> 0.10454996E+03</totfact>
</mgrwt>
</event>
<event>
 4    1  0.4949719E-002  0.7898402E+03  0.7818608E-02  0.9574841E-01
         21   -1    0    0  503  502  0.00000000000E+00  0.00000000000E+00  0.10582061310E+04  0.10582061310E+04  0.00000000000E+00 0.  1.
         21   -1    0    0  501  503 -0.00000000000E+00 -0.00000000000E+00 -0.65563726628E+03  0.65563726628E+03  0.00000000000E+00 0. -1.
    9000005    1    1    2  501    0  0.27542185087E+03 -0.62288864768E+03 -0.70812710375E+02  0.79300813571E+03  0.40000000000E+03 0.  1.
   -9000005    1    1    2    0  502 -0.27542185087E+03  0.62288864768E+03  0.47338157513E+03  0.92083526161E+03  0.40000000000E+03 0. -1.
<mgrwt>
<rscale>  2 0.78984015E+03</rscale>
<asrwt>0</asrwt>
<pdfrwt beam="1">  1       21 0.16280094E+00 0.78984015E+03</pdfrwt>
<pdfrwt beam="2">  1       21 0.10086727E+00 0.78984015E+03</pdfrwt>
<totfact> 0.13714058E+02</totfact>
</mgrwt>
</event>
<event>
 4    1  0.4949719E-002  0.4098456E+03  0.7818608E-02  0.1040423E+00
         21   -1    0    0  501  502  0.00000000000E+00  0.00000000000E+00  0.45135794895E+03  0.45135794895E+03  0.00000000000E+00 0. -1.
         21   -1    0    0  502  503 -0.00000000000E+00 -0.00000000000E+00 -0.77979809159E+03  0.77979809159E+03  0.00000000000E+00 0. -1.
    9000005    1    1    2  501    0 -0.59453091487E+02 -0.66624063557E+02  0.28085579768E+03  0.49684345122E+03  0.40000000000E+03 0. -1.
   -9000005    1    1    2    0  503  0.59453091487E+02  0.66624063557E+02 -0.60929594032E+03  0.73431258931E+03  0.40000000000E+03 0. -1.
<mgrwt>
<rscale>  2 0.40984562E+03</rscale>
<asrwt>0</asrwt>
<pdfrwt beam="1">  1       21 0.69439684E-01 0.40984562E+03</pdfrwt>
<pdfrwt beam="2">  1       21 0.11996894E+00 0.40984562E+03</pdfrwt>
<totfact> 0.85804899E+02</totfact>
</mgrwt>
</event>
<event>
 4    1  0.4949719E-002  0.6570766E+03  0.7818608E-02  0.9793590E-01
         21   -1    0    0  503  502  0.00000000000E+00  0.00000000000E+00  0.13604701187E+04  0.13604701187E+04  0.00000000000E+00 0. -1.
         21   -1    0    0  501  503 -0.00000000000E+00 -0.00000000000E+00 -0.40618132240E+03  0.40618132240E+03  0.00000000000E+00 0.  1.
    9000005    1    1    2  501    0  0.30956415754E+03  0.41942783485E+03  0.89022605306E+03  0.11064592635E+04  0.40000000000E+03 0. -1.
   -9000005    1    1    2    0  502 -0.30956415754E+03 -0.41942783485E+03  0.64062743253E+02  0.66019217759E+03  0.40000000000E+03 0.  1.
<mgrwt>
<rscale>  2 0.65707661E+03</rscale>
<asrwt>0</asrwt>
<pdfrwt beam="1">  1       21 0.20930309E+00 0.65707661E+03</pdfrwt>
<pdfrwt beam="2">  1       21 0.62489435E-01 0.65707661E+03</pdfrwt>
<totfact> 0.20548342E+02</totfact>
</mgrwt>
</event>
<event>
 4    1  0.4949719E-002  0.4189825E+03  0.7818608E-02  0.1037398E+00
         21   -1    0    0  501  502  0.00000000000E+00  0.00000000000E+00  0.31441566705E+04  0.31441566705E+04  0.00000000000E+00 0. -1.
         21   -1    0    0  502  503 -0.00000000000E+00 -0.00000000000E+00 -0.10384993120E+04  0.10384993120E+04  0.00000000000E+00 0. -1.
    9000005    1    1    2  501    0 -0.10478935030E+03 -0.67568502031E+02  0.30871622934E+04  0.31154642248E+04  0.40000000000E+03 0. -1.
   -9000005    1    1    2    0  503  0.10478935030E+03  0.67568502031E+02 -0.98150493492E+03  0.10671917577E+04  0.40000000000E+03 0. -1.
<mgrwt>
<rscale>  2 0.41898247E+03</rscale>
<asrwt>0</asrwt>
<pdfrwt beam="1">  1       21 0.48371640E+00 0.41898247E+03</pdfrwt>
<pdfrwt beam="2">  1       21 0.15976913E+00 0.41898247E+03</pdfrwt>
<totfact> 0.42738061E-01</totfact>
</mgrwt>
</event>
<event>
 4    1  0.4949719E-002  0.4424636E+03  0.7818608E-02  0.1029994E+00
         21   -1    0    0  501  502  0.00000000000E+00  0.00000000000E+00  0.29074549194E+03  0.29074549194E+03  0.00000000000E+00 0. -1.
         21   -1    0    0  502  503 -0.00000000000E+00 -0.00000000000E+00 -0.10890581427E+04  0.10890581427E+04  0.00000000000E+00 0. -1.
    9000005    1    1    2  501    0  0.18281105581E+03 -0.48520048974E+02  0.27084400644E+02  0.44329182491E+03  0.40000000000E+03 0. -1.
   -9000005    1    1    2    0  503 -0.18281105581E+03  0.48520048974E+02 -0.82539705141E+03  0.93651180973E+03  0.40000000000E+03 0. -1.
<mgrwt>
<rscale>  2 0.44246365E+03</rscale>
<asrwt>0</asrwt>
<pdfrwt beam="1">  1       21 0.44730075E-01 0.44246365E+03</pdfrwt>
<pdfrwt beam="2">  1       21 0.16754741E+00 0.44246365E+03</pdfrwt>
<totfact> 0.89757775E+02</totfact>
</mgrwt>
</event>
<event>
 4    1  0.4949719E-002  0.4799227E+03  0.7818608E-02  0.1019156E+00
         21   -1    0    0  501  502  0.00000000000E+00  0.00000000000E+00  0.67817085552E+03  0.67817085552E+03  0.00000000000E+00 0.  1.
         21   -1    0    0  502  503 -0.00000000000E+00 -0.00000000000E+00 -0.39257655053E+03  0.39257655053E+03  0.00000000000E+00 0.  1.
    9000005    1    1    2  501    0 -0.13380768964E+03 -0.22895697364E+03 -0.53820272068E+02  0.48293106679E+03  0.40000000000E+03 0.  1.
   -9000005    1    1    2    0  503  0.13380768964E+03  0.22895697364E+03  0.33941457706E+03  0.58781633926E+03  0.40000000000E+03 0.  1.
<mgrwt>
<rscale>  2 0.47992270E+03</rscale>
<asrwt>0</asrwt>
<pdfrwt beam="1">  1       21 0.10433398E+00 0.47992270E+03</pdfrwt>
<pdfrwt beam="2">  1       21 0.60396393E-01 0.47992270E+03</pdfrwt>
<totfact> 0.16088984E+03</totfact>
</mgrwt>
</event>
<event>
 4    1  0.4949719E-002  0.4604320E+03  0.7818608E-02  0.1024656E+00
         21   -1    0    0  503  502  0.00000000000E+00  0.00000000000E+00  0.45100610818E+03  0.45100610818E+03  0.00000000000E+00 0.  1.
         21   -1    0    0  501  503 -0.00000000000E+00 -0.00000000000E+00 -0.47130304756E+03  0.47130304756E+03  0.00000000000E+00 0. -1.
    9000005    1    1    2  501    0 -0.58498055185E+02 -0.22039876057E+03  0.13583152362E+02  0.46063232426E+03  0.40000000000E+03 0.  1.
   -9000005    1    1    2    0  502  0.58498055185E+02  0.22039876057E+03 -0.33880091743E+02  0.46167683149E+03  0.40000000000E+03 0.  1.
<mgrwt>
<rscale>  2 0.46043201E+03</rscale>
<asrwt>0</asrwt>
<pdfrwt beam="1">  1       21 0.69385556E-01 0.46043201E+03</pdfrwt>
<pdfrwt beam="2">  1       21 0.72508161E-01 0.46043201E+03</pdfrwt>
<totfact> 0.28062278E+03</totfact>
</mgrwt>
</event>
<event>
 4    1  0.4949719E-002  0.4442511E+03  0.7818608E-02  0.1029450E+00
         21   -1    0    0  501  502  0.00000000000E+00  0.00000000000E+00  0.12676665959E+04  0.12676665959E+04  0.00000000000E+00 0. -1.
         21   -1    0    0  502  503 -0.00000000000E+00 -0.00000000000E+00 -0.23227511363E+03  0.23227511363E+03  0.00000000000E+00 0. -1.
    9000005    1    1    2  501    0 -0.19257468936E+03 -0.16553015635E+02  0.94834546245E+03  0.10472431091E+04  0.40000000000E+03 0. -1.
   -9000005    1    1    2    0  503  0.19257468936E+03  0.16553015635E+02  0.87046019829E+02  0.45269860048E+03  0.40000000000E+03 0. -1.
<mgrwt>
<rscale>  2 0.44425107E+03</rscale>
<asrwt>0</asrwt>
<pdfrwt beam="1">  1       21 0.19502563E+00 0.44425107E+03</pdfrwt>
<pdfrwt beam="2">  1       21 0.35734634E-01 0.44425107E+03</pdfrwt>
<totfact> 0.91315538E+02</totfact>
</mgrwt>
</event>
<event>
 4    1  0.4949719E-002  0.4131294E+03  0.7818608E-02  0.1039326E+00
         21   -1    0    0  503  502  0.00000000000E+00  0.00000000000E+00  0.26284402219E+03  0.26284402219E+03  0.00000000000E+00 0. -1.
         21   -1    0    0  501  503 -0.00000000000E+00 -0.00000000000E+00 -0.87928103613E+03  0.87928103613E+03  0.00000000000E+00 0. -1.
    9000005    1    1    2  501    0  0.79218098086E+02  0.66335610510E+02 -0.60024700864E+03  0.72867852423E+03  0.40000000000E+03 0. -1.
   -9000005    1    1    2    0  502 -0.79218098086E+02 -0.66335610510E+02 -0.16190005293E+02  0.41344653410E+03  0.40000000000E+03 0. -1.
<mgrwt>
<rscale>  2 0.41312942E+03</rscale>
<asrwt>0</asrwt>
<pdfrwt beam="1">  1       21 0.40437542E-01 0.41312942E+03</pdfrwt>
<pdfrwt beam="2">  1       21 0.13527401E+00 0.41312942E+03</pdfrwt>
<totfact> 0.20064627E+03</totfact>
</mgrwt>
</event>
<event>
 4    1  0.4949719E-002  0.4127844E+03  0.7818608E-02  0.1039441E+00
         21   -1    0    0  501  502  0.00000000000E+00  0.00000000000E+00  0.83614048713E+03  0.83614048713E+03  0.00000000000E+00 0. -1.
         21   -1    0    0  502  503 -0.00000000000E+00 -0.00000000000E+00 -0.21530703201E+03  0.21530703201E+03  0.00000000000E+00 0. -1.
    9000005    1    1    2  501    0  0.57123075081E+02  0.84426798192E+02  0.43204574315E+03  0.59754033683E+03  0.40000000000E+03 0.  1.
   -9000005    1    1    2    0  503 -0.57123075081E+02 -0.84426798192E+02  0.18878771197E+03  0.45390718231E+03  0.40000000000E+03 0.  1.
<mgrwt>
<rscale>  2 0.41278436E+03</rscale>
<asrwt>0</asrwt>
<pdfrwt beam="1">  1       21 0.12863700E+00 0.41278436E+03</pdfrwt>
<pdfrwt beam="2">  1       21 0.33124159E-01 0.41278436E+03</pdfrwt>
<totfact> 0.34297865E+03</totfact>
</mgrwt>
</event>
<event>
 4    1  0.4949719E-002  0.4033383E+03  0.7818608E-02  0.1042630E+00
         21   -1    0    0  503  502  0.00000000000E+00  0.00000000000E+00  0.10075770794E+04  0.10075770794E+04  0.00000000000E+00 0. -1.
         21   -1    0    0  501  503 -0.00000000000E+00 -0.00000000000E+00 -0.48321561615E+03  0.48321561615E+03  0.00000000000E+00 0. -1.
    9000005    1    1    2  501    0 -0.48951625289E+02  0.16897308422E+02 -0.34606760443E+03  0.53145514155E+03  0.40000000000E+03 0. -1.
   -9000005    1    1    2    0  502  0.48951625289E+02 -0.16897308422E+02  0.87042906764E+03  0.95933755397E+03  0.40000000000E+03 0. -1.
<mgrwt>
<rscale>  2 0.40333830E+03</rscale>
<asrwt>0</asrwt>
<pdfrwt beam="1">  1       21 0.15501186E+00 0.40333830E+03</pdfrwt>
<pdfrwt beam="2">  1       21 0.74340864E-01 0.40333830E+03</pdfrwt>
<totfact> 0.37621159E+02</totfact>
</mgrwt>
</event>
<event>
 4    1  0.4949719E-002  0.6146140E+03  0.7818608E-02  0.9875542E-01
         21   -1    0    0  501  502  0.00000000000E+00  0.00000000000E+00  0.35621623945E+03  0.35621623945E+03  0.00000000000E+00 0. -1.
         21   -1    0    0  502  503 -0.00000000000E+00 -0.00000000000E+00 -0.12998883747E+04  0.12998883747E+04  0.00000000000E+00 0.  1.
    9000005    1    1    2  501    0  0.36629916111E+03  0.28909394208E+03 -0.11645081630E+03  0.62554869946E+03  0.40000000000E+03 0. -1.
   -9000005    1    1    2    0  503 -0.36629916111E+03 -0.28909394208E+03 -0.82722131893E+03  0.10305559147E+04  0.40000000000E+03 0.  1.
<mgrwt>
<rscale>  2 0.61461401E+03</rscale>
<asrwt>0</asrwt>
<pdfrwt beam="1">  1       21 0.54802499E-01 0.61461401E+03</pdfrwt>
<pdfrwt beam="2">  1       21 0.19998283E+00 0.61461401E+03</pdfrwt>
<totfact> 0.32141015E+02</totfact>
</mgrwt>
</event>
<event>
 4    1  0.4949719E-002  0.4641813E+03  0.7818608E-02  0.1023575E+00
         21   -1    0    0  503  502  0.00000000000E+00  0.00000000000E+00  0.67271281424E+03  0.67271281424E+03  0.00000000000E+00 0.  1.
         21   -1    0    0  501  503 -0.00000000000E+00 -0.00000000000E+00 -0.44079321161E+03  0.44079321161E+03  0.00000000000E+00 0.  1.
    9000005    1    1    2  501    0 -0.12538722032E+03 -0.19935468955E+03 -0.17513979192E+03  0.49612316412E+03  0.40000000000E+03 0.  1.
   -9000005    1    1    2    0  502  0.12538722032E+03  0.19935468955E+03  0.40705939455E+03  0.61738286173E+03  0.40000000000E+03 0.  1.
<mgrwt>
<rscale>  2 0.46418127E+03</rscale>
<asrwt>0</asrwt>
<pdfrwt beam="1">  1       21 0.10349428E+00 0.46418127E+03</pdfrwt>
<pdfrwt beam="2">  1       21 0.67814340E-01 0.46418127E+03</pdfrwt>
<totfact> 0.12767862E+03</totfact>
</mgrwt>
</event>
<event>
 4    1  0.4949719E-002  0.6619086E+03  0.7818608E-02  0.9784687E-01
         21   -1    0    0  501  502  0.00000000000E+00  0.00000000000E+00  0.50362286727E+03  0.50362286727E+03  0.00000000000E+00 0.  1.
         21   -1    0    0  502  503 -0.00000000000E+00 -0.00000000000E+00 -0.87458666583E+03  0.87458666583E+03  0.00000000000E+00 0. -1.
    9000005    1    1    2  501    0  0.27807064270E+03 -0.44810674891E+03 -0.13526646014E+03  0.67558859966E+03  0.40000000000E+03 0. -1.
   -9000005    1    1    2    0  503 -0.27807064270E+03  0.44810674891E+03 -0.23569733842E+03  0.70262093343E+03  0.40000000000E+03 0. -1.
<mgrwt>
<rscale>  2 0.66190856E+03</rscale>
<asrwt>0</asrwt>
<pdfrwt beam="1">  1       21 0.77480442E-01 0.66190856E+03</pdfrwt>
<pdfrwt beam="2">  1       21 0.13455179E+00 0.66190856E+03</pdfrwt>
<totfact> 0.45177217E+02</totfact>
</mgrwt>
</event>
<event>
 4    1  0.4949719E-002  0.5508654E+03  0.7818608E-02  0.1001294E+00
         21   -1    0    0  501  502  0.00000000000E+00  0.00000000000E+00  0.59071280526E+03  0.59071280526E+03  0.00000000000E+00 0. -1.
         21   -1    0    0  502  503 -0.00000000000E+00 -0.00000000000E+00 -0.13371385898E+04  0.13371385898E+04  0.00000000000E+00 0.  1.
    9000005    1    1    2  501    0 -0.18361358966E+03 -0.33126842314E+03  0.38321819704E+03  0.67105059796E+03  0.40000000000E+03 0. -1.
   -9000005    1    1    2    0  503  0.18361358966E+03  0.33126842314E+03 -0.11296439816E+04  0.12568007971E+04  0.40000000000E+03 0.  1.
<mgrwt>
<rscale>  2 0.55086543E+03</rscale>
<asrwt>0</asrwt>
<pdfrwt beam="1">  1       21 0.90878893E-01 0.55086543E+03</pdfrwt>
<pdfrwt beam="2">  1       21 0.20571363E+00 0.55086543E+03</pdfrwt>
<totfact> 0.95723705E+01</totfact>
</mgrwt>
</event>
<event>
 4    1  0.4949719E-002  0.5262568E+03  0.7818608E-02  0.1007144E+00
         21   -1    0    0  503  502  0.00000000000E+00  0.00000000000E+00  0.17422682749E+03  0.17422682749E+03  0.00000000000E+00 0.  1.
         21   -1    0    0  501  503 -0.00000000000E+00 -0.00000000000E+00 -0.16500753239E+04  0.16500753239E+04  0.00000000000E+00 0.  1.
    9000005    1    1    2  501    0  0.30418823262E+03  0.15625535007E+03 -0.91258762677E+03  0.10534526054E+04  0.40000000000E+03 0.  1.
   -9000005    1    1    2    0  502 -0.30418823262E+03 -0.15625535007E+03 -0.56326086962E+03  0.77084954598E+03  0.40000000000E+03 0.  1.
<mgrwt>
<rscale>  2 0.52625680E+03</rscale>
<asrwt>0</asrwt>
<pdfrwt beam="1">  1       21 0.26804127E-01 0.52625680E+03</pdfrwt>
<pdfrwt beam="2">  1       21 0.25385775E+00 0.52625680E+03</pdfrwt>
<totfact> 0.65692377E+02</totfact>
</mgrwt>
</event>
<event>
 4    1  0.4949719E-002  0.4065728E+03  0.7818608E-02  0.1041527E+00
         21   -1    0    0  501  502  0.00000000000E+00  0.00000000000E+00  0.28251929000E+03  0.28251929000E+03  0.00000000000E+00 0. -1.
         21   -1    0    0  502  503 -0.00000000000E+00 -0.00000000000E+00 -0.82445010958E+03  0.82445010958E+03  0.00000000000E+00 0. -1.
    9000005    1    1    2  501    0 -0.15466577594E+02  0.71149527392E+02  0.27258228213E+02  0.40748555959E+03  0.40000000000E+03 0. -1.
   -9000005    1    1    2    0  503  0.15466577594E+02 -0.71149527392E+02 -0.56918904780E+03  0.69948383999E+03  0.40000000000E+03 0. -1.
<mgrwt>
<rscale>  2 0.40657284E+03</rscale>
<asrwt>0</asrwt>
<pdfrwt beam="1">  1       21 0.43464507E-01 0.40657284E+03</pdfrwt>
<pdfrwt beam="2">  1       21 0.12683848E+00 0.40657284E+03</pdfrwt>
<totfact> 0.20475223E+03</totfact>
</mgrwt>
</event>
<event>
 4    1  0.4949719E-002  0.4473102E+03  0.7818608E-02  0.1028527E+00
         21   -1    0    0  503  502  0.00000000000E+00  0.00000000000E+00  0.36781162850E+03  0.36781162850E+03  0.00000000000E+00 0.  1.
         21   -1    0    0  501  503 -0.00000000000E+00 -0.00000000000E+00 -0.72713881843E+03  0.72713881843E+03  0.00000000000E+00 0. -1.
    9000005    1    1    2  501    0  0.78767942932E+02 -0.18407072309E+03 -0.45442518487E+03  0.63764305734E+03  0.40000000000E+03 0. -1.
   -9000005    1    1    2    0  502 -0.78767942932E+02  0.18407072309E+03  0.95097994945E+02  0.45730738959E+03  0.40000000000E+03 0.  1.
<mgrwt>
<rscale>  2 0.44731021E+03</rscale>
<asrwt>0</asrwt>
<pdfrwt beam="1">  1       21 0.56586405E-01 0.44731021E+03</pdfrwt>
<pdfrwt beam="2">  1       21 0.11186751E+00 0.44731021E+03</pdfrwt>
<totfact> 0.15803394E+03</totfact>
</mgrwt>
</event>
<event>
 4    1  0.4949719E-002  0.4735602E+03  0.7818608E-02  0.1020920E+00
         21   -1    0    0  503  502  0.00000000000E+00  0.00000000000E+00  0.10859716646E+04  0.10859716646E+04  0.00000000000E+00 0. -1.
         21   -1    0    0  501  503 -0.00000000000E+00 -0.00000000000E+00 -0.20842641784E+03  0.20842641784E+03  0.00000000000E+00 0.  1.
    9000005    1    1    2  501    0  0.16025238535E+03 -0.19641397008E+03  0.37664282502E+03  0.60507775723E+03  0.40000000000E+03 0.  1.
   -9000005    1    1    2    0  502 -0.16025238535E+03  0.19641397008E+03  0.50090242176E+03  0.68932032523E+03  0.40000000000E+03 0. -1.
<mgrwt>
<rscale>  2 0.47356021E+03</rscale>
<asrwt>0</asrwt>
<pdfrwt beam="1">  1       21 0.16707256E+00 0.47356021E+03</pdfrwt>
<pdfrwt beam="2">  1       21 0.32065603E-01 0.47356021E+03</pdfrwt>
<totfact> 0.17648444E+03</totfact>
</mgrwt>
</event>
<event>
 4    1  0.4949719E-002  0.5306992E+03  0.7818608E-02  0.1006063E+00
         21   -1    0    0  501  502  0.00000000000E+00  0.00000000000E+00  0.11662913397E+04  0.11662913397E+04  0.00000000000E+00 0. -1.
         21   -1    0    0  502  503 -0.00000000000E+00 -0.00000000000E+00 -0.26689600495E+03  0.26689600495E+03  0.00000000000E+00 0. -1.
    9000005    1    1    2  501    0 -0.59724903989E+02  0.34361986247E+03  0.67081065147E+03  0.85535291206E+03  0.40000000000E+03 0. -1.
   -9000005    1    1    2    0  503  0.59724903989E+02 -0.34361986247E+03  0.22858468325E+03  0.57783443257E+03  0.40000000000E+03 0. -1.
<mgrwt>
<rscale>  2 0.53069923E+03</rscale>
<asrwt>0</asrwt>
<pdfrwt beam="1">  1       21 0.17942943E+00 0.53069923E+03</pdfrwt>
<pdfrwt beam="2">  1       21 0.41060924E-01 0.53069923E+03</pdfrwt>
<totfact> 0.84903475E+02</totfact>
</mgrwt>
</event>
<event>
 4    1  0.4949719E-002  0.4129899E+03  0.7818608E-02  0.1039372E+00
         21   -1    0    0  501  502  0.00000000000E+00  0.00000000000E+00  0.95639897642E+03  0.95639897642E+03  0.00000000000E+00 0. -1.
         21   -1    0    0  502  503 -0.00000000000E+00 -0.00000000000E+00 -0.77116230215E+03  0.77116230215E+03  0.00000000000E+00 0. -1.
    9000005    1    1    2  501    0 -0.67316557807E+02  0.77647343190E+02  0.84996410346E+03  0.94498656394E+03  0.40000000000E+03 0. -1.
   -9000005    1    1    2    0  503  0.67316557807E+02 -0.77647343190E+02 -0.66472742919E+03  0.78257471463E+03  0.40000000000E+03 0. -1.
<mgrwt>
<rscale>  2 0.41298987E+03</rscale>
<asrwt>0</asrwt>
<pdfrwt beam="1">  1       21 0.14713830E+00 0.41298987E+03</pdfrwt>
<pdfrwt beam="2">  1       21 0.11864035E+00 0.41298987E+03</pdfrwt>
<totfact> 0.14105696E+02</totfact>
</mgrwt>
</event>
<event>
 4    1  0.4949719E-002  0.4135105E+03  0.7818608E-02  0.1039199E+00
         21   -1    0    0  501  502  0.00000000000E+00  0.00000000000E+00  0.13574519385E+04  0.13574519385E+04  0.00000000000E+00 0.  1.
         21   -1    0    0  502  503 -0.00000000000E+00 -0.00000000000E+00 -0.38015939233E+03  0.38015939233E+03  0.00000000000E+00 0.  1.
    9000005    1    1    2  501    0 -0.58648878242E+02  0.86897981889E+02  0.11990791787E+04  0.12683776358E+04  0.40000000000E+03 0.  1.
   -9000005    1    1    2    0  503  0.58648878242E+02 -0.86897981889E+02 -0.22178663254E+03  0.46923369503E+03  0.40000000000E+03 0.  1.
<mgrwt>
<rscale>  2 0.41351052E+03</rscale>
<asrwt>0</asrwt>
<pdfrwt beam="1">  1       21 0.20883876E+00 0.41351052E+03</pdfrwt>
<pdfrwt beam="2">  1       21 0.58486061E-01 0.41351052E+03</pdfrwt>
<totfact> 0.26718532E+02</totfact>
</mgrwt>
</event>
<event>
 4    1  0.4949719E-002  0.4293758E+03  0.7818608E-02  0.1034057E+00
         21   -1    0    0  503  502  0.00000000000E+00  0.00000000000E+00  0.47850561196E+03  0.47850561196E+03  0.00000000000E+00 0.  1.
         21   -1    0    0  501  503 -0.00000000000E+00 -0.00000000000E+00 -0.38647274517E+03  0.38647274517E+03  0.00000000000E+00 0. -1.
    9000005    1    1    2  501    0 -0.82647202376E+02  0.13241225684E+03  0.22093842162E+02  0.42994383782E+03  0.40000000000E+03 0. -1.
   -9000005    1    1    2    0  502  0.82647202376E+02 -0.13241225684E+03  0.69939024627E+02  0.43503451930E+03  0.40000000000E+03 0. -1.
<mgrwt>
<rscale>  2 0.42937579E+03</rscale>
<asrwt>0</asrwt>
<pdfrwt beam="1">  1       21 0.73616248E-01 0.42937579E+03</pdfrwt>
<pdfrwt beam="2">  1       21 0.59457346E-01 0.42937579E+03</pdfrwt>
<totfact> 0.38604235E+03</totfact>
</mgrwt>
</event>
<event>
 4    1  0.4949719E-002  0.4500429E+03  0.7818608E-02  0.1027709E+00
         21   -1    0    0  503  502  0.00000000000E+00  0.00000000000E+00  0.23618219894E+04  0.23618219894E+04  0.00000000000E+00 0.  1.
         21   -1    0    0  501  503 -0.00000000000E+00 -0.00000000000E+00 -0.89891488803E+02  0.89891488803E+02  0.00000000000E+00 0.  1.
    9000005    1    1    2  501    0  0.81202577544E+02  0.18959090999E+03  0.87300830625E+03  0.98218230208E+03  0.40000000000E+03 0.  1.
   -9000005    1    1    2    0  502 -0.81202577544E+02 -0.18959090999E+03  0.13989221944E+04  0.14695311762E+04  0.40000000000E+03 0.  1.
<mgrwt>
<rscale>  2 0.45004286E+03</rscale>
<asrwt>0</asrwt>
<pdfrwt beam="1">  1       21 0.36335718E+00 0.45004286E+03</pdfrwt>
<pdfrwt beam="2">  1       21 0.13829462E-01 0.45004286E+03</pdfrwt>
<totfact> 0.51835169E+02</totfact>
</mgrwt>
</event>
<event>
 4    1  0.4949719E-002  0.4943600E+03  0.7818608E-02  0.1015262E+00
         21   -1    0    0  501  502  0.00000000000E+00  0.00000000000E+00  0.48129566293E+03  0.48129566293E+03  0.00000000000E+00 0.  1.
         21   -1    0    0  502  503 -0.00000000000E+00 -0.00000000000E+00 -0.50778588933E+03  0.50778588933E+03  0.00000000000E+00 0. -1.
    9000005    1    1    2  501    0  0.23275857038E+03 -0.17382539267E+03 -0.11420449574E+02  0.49449190680E+03  0.40000000000E+03 0. -1.
   -9000005    1    1    2    0  503 -0.23275857038E+03  0.17382539267E+03 -0.15069776826E+02  0.49458964546E+03  0.40000000000E+03 0. -1.
<mgrwt>
<rscale>  2 0.49436001E+03</rscale>
<asrwt>0</asrwt>
<pdfrwt beam="1">  1       21 0.74045487E-01 0.49436001E+03</pdfrwt>
<pdfrwt beam="2">  1       21 0.78120906E-01 0.49436001E+03</pdfrwt>
<totfact> 0.20186688E+03</totfact>
</mgrwt>
</event>
<event>
 4    1  0.4949719E-002  0.4236884E+03  0.7818608E-02  0.1035873E+00
         21   -1    0    0  503  502  0.00000000000E+00  0.00000000000E+00  0.16298813064E+03  0.16298813064E+03  0.00000000000E+00 0. -1.
         21   -1    0    0  501  503 -0.00000000000E+00 -0.00000000000E+00 -0.11370274816E+04  0.11370274816E+04  0.00000000000E+00 0. -1.
    9000005    1    1    2  501    0 -0.11631500918E+03  0.77347688031E+02 -0.37192683522E+03  0.56377426064E+03  0.40000000000E+03 0. -1.
   -9000005    1    1    2    0  502  0.11631500918E+03 -0.77347688031E+02 -0.60211251576E+03  0.73624135163E+03  0.40000000000E+03 0. -1.
<mgrwt>
<rscale>  2 0.42368838E+03</rscale>
<asrwt>0</asrwt>
<pdfrwt beam="1">  1       21 0.25075097E-01 0.42368838E+03</pdfrwt>
<pdfrwt beam="2">  1       21 0.17492730E+00 0.42368838E+03</pdfrwt>
<totfact> 0.25666811E+03</totfact>
</mgrwt>
</event>
<event>
 4    1  0.4949719E-002  0.4300424E+03  0.7818608E-02  0.1033847E+00
         21   -1    0    0  501  502  0.00000000000E+00  0.00000000000E+00  0.39628134499E+03  0.39628134499E+03  0.00000000000E+00 0.  1.
         21   -1    0    0  502  503 -0.00000000000E+00 -0.00000000000E+00 -0.55131836934E+03  0.55131836934E+03  0.00000000000E+00 0.  1.
    9000005    1    1    2  501    0  0.54310432892E+02 -0.14827952020E+03  0.10812434193E+03  0.44342678375E+03  0.40000000000E+03 0.  1.
   -9000005    1    1    2    0  503 -0.54310432892E+02  0.14827952020E+03 -0.26316136628E+03  0.50417293058E+03  0.40000000000E+03 0.  1.
<mgrwt>
<rscale>  2 0.43004237E+03</rscale>
<asrwt>0</asrwt>
<pdfrwt beam="1">  1       21 0.60966361E-01 0.43004237E+03</pdfrwt>
<pdfrwt beam="2">  1       21 0.84818210E-01 0.43004237E+03</pdfrwt>
<totfact> 0.26366116E+03</totfact>
</mgrwt>
</event>
<event>
 4    1  0.4949719E-002  0.4139147E+03  0.7818608E-02  0.1039065E+00
         21   -1    0    0  503  502  0.00000000000E+00  0.00000000000E+00  0.10070412681E+04  0.10070412681E+04  0.00000000000E+00 0. -1.
         21   -1    0    0  501  503 -0.00000000000E+00 -0.00000000000E+00 -0.26212742813E+03  0.26212742813E+03  0.00000000000E+00 0. -1.
    9000005    1    1    2  501    0  0.40521871158E+02  0.98404207698E+02 -0.34902971937E+01  0.41392945330E+03  0.40000000000E+03 0. -1.
   -9000005    1    1    2    0  502 -0.40521871158E+02 -0.98404207698E+02  0.74840413715E+03  0.85523924293E+03  0.40000000000E+03 0. -1.
<mgrwt>
<rscale>  2 0.41391474E+03</rscale>
<asrwt>0</asrwt>
<pdfrwt beam="1">  1       21 0.15492942E+00 0.41391474E+03</pdfrwt>
<pdfrwt beam="2">  1       21 0.40327297E-01 0.41391474E+03</pdfrwt>
<totfact> 0.14024010E+03</totfact>
</mgrwt>
</event>
<event>
 4    1  0.4949719E-002  0.5773012E+03  0.7818608E-02  0.9953651E-01
         21   -1    0    0  503  502  0.00000000000E+00  0.00000000000E+00  0.61375688889E+03  0.61375688889E+03  0.00000000000E+00 0.  1.
         21   -1    0    0  501  503 -0.00000000000E+00 -0.00000000000E+00 -0.54381929572E+03  0.54381929572E+03  0.00000000000E+00 0. -1.
    9000005    1    1    2  501    0  0.77023173413E+02  0.40907719888E+03  0.12654389658E+02  0.57743991675E+03  0.40000000000E+03 0.  1.
   -9000005    1    1    2    0  502 -0.77023173413E+02 -0.40907719888E+03  0.57283203505E+02  0.58013626786E+03  0.40000000000E+03 0. -1.
<mgrwt>
<rscale>  2 0.57730124E+03</rscale>
<asrwt>0</asrwt>
<pdfrwt beam="1">  1       21 0.94424136E-01 0.57730124E+03</pdfrwt>
<pdfrwt beam="2">  1       21 0.83664507E-01 0.57730124E+03</pdfrwt>
<totfact> 0.94792504E+02</totfact>
</mgrwt>
</event>
<event>
 4    1  0.4949719E-002  0.5205385E+03  0.7818608E-02  0.1008553E+00
         21   -1    0    0  501  502  0.00000000000E+00  0.00000000000E+00  0.63326508610E+03  0.63326508610E+03  0.00000000000E+00 0.  1.
         21   -1    0    0  502  503 -0.00000000000E+00 -0.00000000000E+00 -0.49116900904E+03  0.49116900904E+03  0.00000000000E+00 0. -1.
    9000005    1    1    2  501    0  0.53169197256E+02 -0.32883643535E+03  0.27286545437E+03  0.58772095500E+03  0.40000000000E+03 0. -1.
   -9000005    1    1    2    0  503 -0.53169197256E+02  0.32883643535E+03 -0.13076937731E+03  0.53671314014E+03  0.40000000000E+03 0.  1.
<mgrwt>
<rscale>  2 0.52053853E+03</rscale>
<asrwt>0</asrwt>
<pdfrwt beam="1">  1       21 0.97425398E-01 0.52053853E+03</pdfrwt>
<pdfrwt beam="2">  1       21 0.75564463E-01 0.52053853E+03</pdfrwt>
<totfact> 0.11341443E+03</totfact>
</mgrwt>
</event>
<event>
 4    1  0.4949719E-002  0.5154085E+03  0.7818608E-02  0.1009834E+00
         21   -1    0    0  503  502  0.00000000000E+00  0.00000000000E+00  0.10867754277E+04  0.10867754277E+04  0.00000000000E+00 0.  1.
         21   -1    0    0  501  503 -0.00000000000E+00 -0.00000000000E+00 -0.25422568588E+03  0.25422568588E+03  0.00000000000E+00 0.  1.
    9000005    1    1    2  501    0  0.19732376002E+03  0.25828139066E+03  0.54785677415E+03  0.75219212174E+03  0.40000000000E+03 0.  1.
   -9000005    1    1    2    0  502 -0.19732376002E+03 -0.25828139066E+03  0.28469296768E+03  0.58880899185E+03  0.40000000000E+03 0.  1.
<mgrwt>
<rscale>  2 0.51540852E+03</rscale>
<asrwt>0</asrwt>
<pdfrwt beam="1">  1       21 0.16719622E+00 0.51540852E+03</pdfrwt>
<pdfrwt beam="2">  1       21 0.39111645E-01 0.51540852E+03</pdfrwt>
<totfact> 0.11578872E+03</totfact>
</mgrwt>
</event>
<event>
 4    1  0.4949719E-002  0.4403039E+03  0.7818608E-02  0.1030654E+00
         21   -1    0    0  501  502  0.00000000000E+00  0.00000000000E+00  0.11311704347E+03  0.11311704347E+03  0.00000000000E+00 0.  1.
         21   -1    0    0  502  503 -0.00000000000E+00 -0.00000000000E+00 -0.17382361334E+04  0.17382361334E+04  0.00000000000E+00 0. -1.
    9000005    1    1    2  501    0  0.73482483995E+02 -0.16872422811E+03 -0.92216371786E+03  0.10218872067E+04  0.40000000000E+03 0. -1.
   -9000005    1    1    2    0  503 -0.73482483995E+02  0.16872422811E+03 -0.70295537205E+03  0.82946597019E+03  0.40000000000E+03 0. -1.
<mgrwt>
<rscale>  2 0.44030392E+03</rscale>
<asrwt>0</asrwt>
<pdfrwt beam="1">  1       21 0.17402624E-01 0.44030392E+03</pdfrwt>
<pdfrwt beam="2">  1       21 0.26742092E+00 0.44030392E+03</pdfrwt>
<totfact> 0.12961738E+03</totfact>
</mgrwt>
</event>
<event>
 4    1  0.4949719E-002  0.5793990E+03  0.7818608E-02  0.9949093E-01
         21   -1    0    0  501  502  0.00000000000E+00  0.00000000000E+00  0.17813132564E+04  0.17813132564E+04  0.00000000000E+00 0.  1.
         21   -1    0    0  502  503 -0.00000000000E+00 -0.00000000000E+00 -0.39092451113E+03  0.39092451113E+03  0.00000000000E+00 0. -1.
    9000005    1    1    2  501    0 -0.16340738640E+03  0.38600675556E+03  0.14768352060E+04  0.15864253575E+04  0.40000000000E+03 0.  1.
   -9000005    1    1    2    0  503  0.16340738640E+03 -0.38600675556E+03 -0.86446460644E+02  0.58581241010E+03  0.40000000000E+03 0. -1.
<mgrwt>
<rscale>  2 0.57939899E+03</rscale>
<asrwt>0</asrwt>
<pdfrwt beam="1">  1       21 0.27404819E+00 0.57939899E+03</pdfrwt>
<pdfrwt beam="2">  1       21 0.60142233E-01 0.57939899E+03</pdfrwt>
<totfact> 0.90098583E+01</totfact>
</mgrwt>
</event>
<event>
 4    1  0.4949719E-002  0.5687822E+03  0.7818608E-02  0.9972377E-01
         21   -1    0    0  501  502  0.00000000000E+00  0.00000000000E+00  0.17939868723E+04  0.17939868723E+04  0.00000000000E+00 0. -1.
         21   -1    0    0  502  503 -0.00000000000E+00 -0.00000000000E+00 -0.33357345450E+03  0.33357345450E+03  0.00000000000E+00 0.  1.
    9000005    1    1    2  501    0  0.27596878898E+03  0.29555779160E+03  0.14512217530E+04  0.15587038709E+04  0.40000000000E+03 0. -1.
   -9000005    1    1    2    0  503 -0.27596878898E+03 -0.29555779160E+03  0.91916647228E+01  0.56885645585E+03  0.40000000000E+03 0.  1.
<mgrwt>
<rscale>  2 0.56878219E+03</rscale>
<asrwt>0</asrwt>
<pdfrwt beam="1">  1       21 0.27599797E+00 0.56878219E+03</pdfrwt>
<pdfrwt beam="2">  1       21 0.51318994E-01 0.56878219E+03</pdfrwt>
<totfact> 0.12441481E+02</totfact>
</mgrwt>
</event>
<event>
 4    1  0.4949719E-002  0.4073885E+03  0.7818608E-02  0.1041251E+00
         21   -1    0    0  503  502  0.00000000000E+00  0.00000000000E+00  0.24847308401E+03  0.24847308401E+03  0.00000000000E+00 0. -1.
         21   -1    0    0  501  503 -0.00000000000E+00 -0.00000000000E+00 -0.11451511238E+04  0.11451511238E+04  0.00000000000E+00 0. -1.
    9000005    1    1    2  501    0  0.76970602348E+02 -0.63941313994E+01 -0.89815938253E+03  0.98623305307E+03  0.40000000000E+03 0. -1.
   -9000005    1    1    2    0  502 -0.76970602348E+02  0.63941313994E+01  0.14813427941E+01  0.40739115469E+03  0.40000000000E+03 0. -1.
<mgrwt>
<rscale>  2 0.40738846E+03</rscale>
<asrwt>0</asrwt>
<pdfrwt beam="1">  1       21 0.38226627E-01 0.40738846E+03</pdfrwt>
<pdfrwt beam="2">  1       21 0.17617710E+00 0.40738846E+03</pdfrwt>
<totfact> 0.10938731E+03</totfact>
</mgrwt>
</event>
<event>
 4    1  0.4949719E-002  0.4222122E+03  0.7818608E-02  0.1036349E+00
         21   -1    0    0  501  502  0.00000000000E+00  0.00000000000E+00  0.13042777946E+04  0.13042777946E+04  0.00000000000E+00 0.  1.
         21   -1    0    0  502  503 -0.00000000000E+00 -0.00000000000E+00 -0.14006833994E+03  0.14006833994E+03  0.00000000000E+00 0.  1.
    9000005    1    1    2  501    0  0.13193668313E+03  0.29255071928E+02  0.69449711398E+03  0.81276650331E+03  0.40000000000E+03 0.  1.
   -9000005    1    1    2    0  503 -0.13193668313E+03 -0.29255071928E+02  0.46971234070E+03  0.63157963123E+03  0.40000000000E+03 0.  1.
<mgrwt>
<rscale>  2 0.42221221E+03</rscale>
<asrwt>0</asrwt>
<pdfrwt beam="1">  1       21 0.20065811E+00 0.42221221E+03</pdfrwt>
<pdfrwt beam="2">  1       21 0.21548976E-01 0.42221221E+03</pdfrwt>
<totfact> 0.22888482E+03</totfact>
</mgrwt>
</event>
<event>
 4    1  0.4949719E-002  0.4463872E+03  0.7818608E-02  0.1028805E+00
         21   -1    0    0  503  502  0.00000000000E+00  0.00000000000E+00  0.41470964291E+03  0.41470964291E+03  0.00000000000E+00 0. -1.
         21   -1    0    0  501  503 -0.00000000000E+00 -0.00000000000E+00 -0.51311197871E+03  0.51311197871E+03  0.00000000000E+00 0. -1.
    9000005    1    1    2  501    0 -0.56166793684E+02  0.19001805255E+03  0.67781078258E+02  0.45150397958E+03  0.40000000000E+03 0. -1.
   -9000005    1    1    2    0  502  0.56166793684E+02 -0.19001805255E+03 -0.16618341406E+03  0.47631764204E+03  0.40000000000E+03 0. -1.
<mgrwt>
<rscale>  2 0.44638724E+03</rscale>
<asrwt>0</asrwt>
<pdfrwt beam="1">  1       21 0.63801484E-01 0.44638724E+03</pdfrwt>
<pdfrwt beam="2">  1       21 0.78940304E-01 0.44638724E+03</pdfrwt>
<totfact> 0.28005982E+03</totfact>
</mgrwt>
</event>
<event>
 4    1  0.4949719E-002  0.6059502E+03  0.7818608E-02  0.9893138E-01
         21   -1    0    0  503  502  0.00000000000E+00  0.00000000000E+00  0.68265055386E+03  0.68265055386E+03  0.00000000000E+00 0. -1.
         21   -1    0    0  501  503 -0.00000000000E+00 -0.00000000000E+00 -0.54456715750E+03  0.54456715750E+03  0.00000000000E+00 0.  1.
    9000005    1    1    2  501    0  0.36571418198E+03  0.27097739645E+03  0.13710125021E+03  0.62126674231E+03  0.40000000000E+03 0.  1.
   -9000005    1    1    2    0  502 -0.36571418198E+03 -0.27097739645E+03  0.98214614643E+00  0.60595096905E+03  0.40000000000E+03 0.  1.
<mgrwt>
<rscale>  2 0.60595017E+03</rscale>
<asrwt>0</asrwt>
<pdfrwt beam="1">  1       21 0.10502316E+00 0.60595017E+03</pdfrwt>
<pdfrwt beam="2">  1       21 0.83779563E-01 0.60595017E+03</pdfrwt>
<totfact> 0.72190771E+02</totfact>
</mgrwt>
</event>
<event>
 4    1  0.4949719E-002  0.4245862E+03  0.7818608E-02  0.1035584E+00
         21   -1    0    0  501  502  0.00000000000E+00  0.00000000000E+00  0.97504877199E+03  0.97504877199E+03  0.00000000000E+00 0. -1.
         21   -1    0    0  502  503 -0.00000000000E+00 -0.00000000000E+00 -0.47866922549E+03  0.47866922549E+03  0.00000000000E+00 0. -1.
    9000005    1    1    2  501    0  0.18357969761E+02  0.14119646281E+03  0.81762649317E+03  0.92129611879E+03  0.40000000000E+03 0. -1.
   -9000005    1    1    2    0  503 -0.18357969761E+02 -0.14119646281E+03 -0.32124694667E+03  0.53242187869E+03  0.40000000000E+03 0. -1.
<mgrwt>
<rscale>  2 0.42458622E+03</rscale>
<asrwt>0</asrwt>
<pdfrwt beam="1">  1       21 0.15000750E+00 0.42458622E+03</pdfrwt>
<pdfrwt beam="2">  1       21 0.73641419E-01 0.42458622E+03</pdfrwt>
<totfact> 0.41564704E+02</totfact>
</mgrwt>
</event>
<event>
 4    1  0.4949719E-002  0.8929271E+03  0.7818608E-02  0.9434466E-01
         21   -1    0    0  503  502  0.00000000000E+00  0.00000000000E+00  0.13622027380E+04  0.13622027380E+04  0.00000000000E+00 0.  1.
         21   -1    0    0  501  503 -0.00000000000E+00 -0.00000000000E+00 -0.11505862495E+04  0.11505862495E+04  0.00000000000E+00 0. -1.
    9000005    1    1    2  501    0  0.28457506340E+03  0.74587924044E+03 -0.77482397254E+03  0.11822313633E+04  0.40000000000E+03 0. -1.
   -9000005    1    1    2    0  502 -0.28457506340E+03 -0.74587924044E+03  0.98644046107E+03  0.13305576242E+04  0.40000000000E+03 0.  1.
<mgrwt>
<rscale>  2 0.89292710E+03</rscale>
<asrwt>0</asrwt>
<pdfrwt beam="1">  1       21 0.20956965E+00 0.89292710E+03</pdfrwt>
<pdfrwt beam="2">  1       21 0.17701327E+00 0.89292710E+03</pdfrwt>
<totfact> 0.13647206E+01</totfact>
</mgrwt>
</event>
<event>
 4    1  0.4949719E-002  0.6309402E+03  0.7818608E-02  0.9843216E-01
         21   -1    0    0  503  502  0.00000000000E+00  0.00000000000E+00  0.44420263574E+03  0.44420263574E+03  0.00000000000E+00 0. -1.
         21   -1    0    0  501  503 -0.00000000000E+00 -0.00000000000E+00 -0.10243190419E+04  0.10243190419E+04  0.00000000000E+00 0.  1.
    9000005    1    1    2  501    0 -0.48695969889E+03 -0.30915981519E+02 -0.54975905354E+03  0.83685157776E+03  0.40000000000E+03 0.  1.
   -9000005    1    1    2    0  502  0.48695969889E+03  0.30915981519E+02 -0.30357352652E+02  0.63167009990E+03  0.40000000000E+03 0. -1.
<mgrwt>
<rscale>  2 0.63094021E+03</rscale>
<asrwt>0</asrwt>
<pdfrwt beam="1">  1       21 0.68338867E-01 0.63094021E+03</pdfrwt>
<pdfrwt beam="2">  1       21 0.15758755E+00 0.63094021E+03</pdfrwt>
<totfact> 0.39528202E+02</totfact>
</mgrwt>
</event>
<event>
 4    1  0.4949719E-002  0.4274371E+03  0.7818608E-02  0.1034673E+00
         21   -1    0    0  503  502  0.00000000000E+00  0.00000000000E+00  0.11492140795E+04  0.11492140795E+04  0.00000000000E+00 0.  1.
         21   -1    0    0  501  503 -0.00000000000E+00 -0.00000000000E+00 -0.19310613348E+03  0.19310613348E+03  0.00000000000E+00 0.  1.
    9000005    1    1    2  501    0 -0.31371768509E+02 -0.14737125484E+03  0.19591094962E+03  0.47019525178E+03  0.40000000000E+03 0.  1.
   -9000005    1    1    2    0  502  0.31371768509E+02  0.14737125484E+03  0.76019699638E+03  0.87212496118E+03  0.40000000000E+03 0.  1.
<mgrwt>
<rscale>  2 0.42743710E+03</rscale>
<asrwt>0</asrwt>
<pdfrwt beam="1">  1       21 0.17680216E+00 0.42743710E+03</pdfrwt>
<pdfrwt beam="2">  1       21 0.29708637E-01 0.42743710E+03</pdfrwt>
<totfact> 0.17813351E+03</totfact>
</mgrwt>
</event>
<event>
 4    1  0.4949719E-002  0.5276307E+03  0.7818608E-02  0.1006808E+00
         21   -1    0    0  501  502  0.00000000000E+00  0.00000000000E+00  0.94957718947E+03  0.94957718947E+03  0.00000000000E+00 0.  1.
         21   -1    0    0  502  503 -0.00000000000E+00 -0.00000000000E+00 -0.62635570372E+03  0.62635570372E+03  0.00000000000E+00 0.  1.
    9000005    1    1    2  501    0 -0.99525485250E+02  0.32937643221E+03  0.73630366406E+03  0.90583510752E+03  0.40000000000E+03 0.  1.
   -9000005    1    1    2    0  503  0.99525485250E+02 -0.32937643221E+03 -0.41308217832E+03  0.67009778567E+03  0.40000000000E+03 0.  1.
<mgrwt>
<rscale>  2 0.52763070E+03</rscale>
<asrwt>0</asrwt>
<pdfrwt beam="1">  1       21 0.14608880E+00 0.52763070E+03</pdfrwt>
<pdfrwt beam="2">  1       21 0.96362415E-01 0.52763070E+03</pdfrwt>
<totfact> 0.22699421E+02</totfact>
</mgrwt>
</event>
<event>
 4    1  0.4949719E-002  0.4609667E+03  0.7818608E-02  0.1024501E+00
         21   -1    0    0  503  502  0.00000000000E+00  0.00000000000E+00  0.20372397462E+03  0.20372397462E+03  0.00000000000E+00 0. -1.
         21   -1    0    0  501  503 -0.00000000000E+00 -0.00000000000E+00 -0.11120108405E+04  0.11120108405E+04  0.00000000000E+00 0. -1.
    9000005    1    1    2  501    0  0.22466748048E+03  0.44886346993E+02 -0.61799380286E+03  0.77097769183E+03  0.40000000000E+03 0. -1.
   -9000005    1    1    2    0  502 -0.22466748048E+03 -0.44886346993E+02 -0.29029306299E+03  0.54475712327E+03  0.40000000000E+03 0. -1.
<mgrwt>
<rscale>  2 0.46096666E+03</rscale>
<asrwt>0</asrwt>
<pdfrwt beam="1">  1       21 0.31342150E-01 0.46096666E+03</pdfrwt>
<pdfrwt beam="2">  1       21 0.17107859E+00 0.46096666E+03</pdfrwt>
<totfact> 0.17356100E+03</totfact>
</mgrwt>
</event>
<event>
 4    1  0.4949719E-002  0.4804694E+03  0.7818608E-02  0.1019006E+00
         21   -1    0    0  501  502  0.00000000000E+00  0.00000000000E+00  0.10976751194E+04  0.10976751194E+04  0.00000000000E+00 0. -1.
         21   -1    0    0  502  503 -0.00000000000E+00 -0.00000000000E+00 -0.22693838891E+03  0.22693838891E+03  0.00000000000E+00 0. -1.
    9000005    1    1    2  501    0  0.25961541209E+03 -0.58742607623E+02  0.25608312332E+03  0.54445332416E+03  0.40000000000E+03 0. -1.
   -9000005    1    1    2    0  503 -0.25961541209E+03  0.58742607623E+02  0.61465360719E+03  0.78016018418E+03  0.40000000000E+03 0. -1.
<mgrwt>
<rscale>  2 0.48046941E+03</rscale>
<asrwt>0</asrwt>
<pdfrwt beam="1">  1       21 0.16887309E+00 0.48046941E+03</pdfrwt>
<pdfrwt beam="2">  1       21 0.34913599E-01 0.48046941E+03</pdfrwt>
<totfact> 0.14382176E+03</totfact>
</mgrwt>
</event>
<event>
 4    1  0.4949719E-002  0.5378446E+03  0.7818608E-02  0.1004347E+00
         21   -1    0    0  501  502  0.00000000000E+00  0.00000000000E+00  0.23512672853E+03  0.23512672853E+03  0.00000000000E+00 0. -1.
         21   -1    0    0  502  503 -0.00000000000E+00 -0.00000000000E+00 -0.12837094084E+04  0.12837094084E+04  0.00000000000E+00 0. -1.
    9000005    1    1    2  501    0  0.34982938536E+03 -0.83043759409E+02 -0.67919035402E+03  0.86635812562E+03  0.40000000000E+03 0. -1.
   -9000005    1    1    2    0  503 -0.34982938536E+03  0.83043759409E+02 -0.36939232584E+03  0.65247801130E+03  0.40000000000E+03 0. -1.
<mgrwt>
<rscale>  2 0.53784465E+03</rscale>
<asrwt>0</asrwt>
<pdfrwt beam="1">  1       21 0.36173342E-01 0.53784465E+03</pdfrwt>
<pdfrwt beam="2">  1       21 0.19749376E+00 0.53784465E+03</pdfrwt>
<totfact> 0.82392742E+02</totfact>
</mgrwt>
</event>
<event>
 4    1  0.4949719E-002  0.5169651E+03  0.7818608E-02  0.1009443E+00
         21   -1    0    0  501  502  0.00000000000E+00  0.00000000000E+00  0.33870984311E+03  0.33870984311E+03  0.00000000000E+00 0. -1.
         21   -1    0    0  502  503 -0.00000000000E+00 -0.00000000000E+00 -0.89701078708E+03  0.89701078708E+03  0.00000000000E+00 0. -1.
    9000005    1    1    2  501    0 -0.32553361422E+03 -0.35787564791E+02 -0.64782047211E+02  0.52100825082E+03  0.40000000000E+03 0. -1.
   -9000005    1    1    2    0  503  0.32553361422E+03  0.35787564791E+02 -0.49351889676E+03  0.71471237938E+03  0.40000000000E+03 0. -1.
<mgrwt>
<rscale>  2 0.51696507E+03</rscale>
<asrwt>0</asrwt>
<pdfrwt beam="1">  1       21 0.52109207E-01 0.51696507E+03</pdfrwt>
<pdfrwt beam="2">  1       21 0.13800166E+00 0.51696507E+03</pdfrwt>
<totfact> 0.10724015E+03</totfact>
</mgrwt>
</event>
<event>
 4    1  0.4949719E-002  0.6384681E+03  0.7818608E-02  0.9828662E-01
         21   -1    0    0  503  502  0.00000000000E+00  0.00000000000E+00  0.15677474239E+04  0.15677474239E+04  0.00000000000E+00 0. -1.
         21   -1    0    0  501  503 -0.00000000000E+00 -0.00000000000E+00 -0.37538836915E+03  0.37538836915E+03  0.00000000000E+00 0.  1.
    9000005    1    1    2  501    0 -0.30232402777E+03  0.39527419834E+03  0.57561184426E+02  0.64105756340E+03  0.40000000000E+03 0.  1.
   -9000005    1    1    2    0  502  0.30232402777E+03 -0.39527419834E+03  0.11347978703E+04  0.13020782297E+04  0.40000000000E+03 0. -1.
<mgrwt>
<rscale>  2 0.63846810E+03</rscale>
<asrwt>0</asrwt>
<pdfrwt beam="1">  1       21 0.24119191E+00 0.63846810E+03</pdfrwt>
<pdfrwt beam="2">  1       21 0.57752058E-01 0.63846810E+03</pdfrwt>
<totfact> 0.15340337E+02</totfact>
</mgrwt>
</event>
<event>
 4    1  0.4949719E-002  0.5598260E+03  0.7818608E-02  0.9992449E-01
         21   -1    0    0  503  502  0.00000000000E+00  0.00000000000E+00  0.22869823149E+04  0.22869823149E+04  0.00000000000E+00 0.  1.
         21   -1    0    0  501  503 -0.00000000000E+00 -0.00000000000E+00 -0.29875215894E+03  0.29875215894E+03  0.00000000000E+00 0.  1.
    9000005    1    1    2  501    0  0.13163106525E+03 -0.36888801403E+03  0.42915881529E+02  0.56146850056E+03  0.40000000000E+03 0.  1.
   -9000005    1    1    2    0  502 -0.13163106525E+03  0.36888801403E+03  0.19453142745E+04  0.20242659733E+04  0.40000000000E+03 0.  1.
<mgrwt>
<rscale>  2 0.55982596E+03</rscale>
<asrwt>0</asrwt>
<pdfrwt beam="1">  1       21 0.35184342E+00 0.55982596E+03</pdfrwt>
<pdfrwt beam="2">  1       21 0.45961872E-01 0.55982596E+03</pdfrwt>
<totfact> 0.54407577E+01</totfact>
</mgrwt>
</event>
<event>
 4    1  0.4949719E-002  0.5017742E+03  0.7818608E-02  0.1013317E+00
         21   -1    0    0  503  502  0.00000000000E+00  0.00000000000E+00  0.60590831104E+03  0.60590831104E+03  0.00000000000E+00 0.  1.
         21   -1    0    0  501  503 -0.00000000000E+00 -0.00000000000E+00 -0.42838239508E+03  0.42838239508E+03  0.00000000000E+00 0. -1.
    9000005    1    1    2  501    0 -0.77235348949E+02  0.29293690798E+03  0.17831392745E+03  0.53251590390E+03  0.40000000000E+03 0.  1.
   -9000005    1    1    2    0  502  0.77235348949E+02 -0.29293690798E+03 -0.78801149100E+00  0.50177480222E+03  0.40000000000E+03 0. -1.
<mgrwt>
<rscale>  2 0.50177418E+03</rscale>
<asrwt>0</asrwt>
<pdfrwt beam="1">  1       21 0.93216664E-01 0.50177418E+03</pdfrwt>
<pdfrwt beam="2">  1       21 0.65904984E-01 0.50177418E+03</pdfrwt>
<totfact> 0.17296982E+03</totfact>
</mgrwt>
</event>
<event>
 4    1  0.4949719E-002  0.4617766E+03  0.7818608E-02  0.1024267E+00
         21   -1    0    0  501  502  0.00000000000E+00  0.00000000000E+00  0.21479658935E+03  0.21479658935E+03  0.00000000000E+00 0.  1.
         21   -1    0    0  502  503 -0.00000000000E+00 -0.00000000000E+00 -0.10036410788E+04  0.10036410788E+04  0.00000000000E+00 0.  1.
    9000005    1    1    2  501    0  0.11920584978E+03  0.19755407518E+03 -0.45790769751E+03  0.65032077214E+03  0.40000000000E+03 0.  1.
   -9000005    1    1    2    0  503 -0.11920584978E+03 -0.19755407518E+03 -0.33093679190E+03  0.56811689596E+03  0.40000000000E+03 0.  1.
<mgrwt>
<rscale>  2 0.46177662E+03</rscale>
<asrwt>0</asrwt>
<pdfrwt beam="1">  1       21 0.33045629E-01 0.46177662E+03</pdfrwt>
<pdfrwt beam="2">  1       21 0.15440632E+00 0.46177662E+03</pdfrwt>
<totfact> 0.20802145E+03</totfact>
</mgrwt>
</event>
<event>
 4    1  0.4949719E-002  0.4435580E+03  0.7818608E-02  0.1029661E+00
         21   -1    0    0  503  502  0.00000000000E+00  0.00000000000E+00  0.21016967258E+03  0.21016967258E+03  0.00000000000E+00 0. -1.
         21   -1    0    0  501  503 -0.00000000000E+00 -0.00000000000E+00 -0.11084016876E+04  0.11084016876E+04  0.00000000000E+00 0. -1.
    9000005    1    1    2  501    0 -0.83964124126E+02 -0.17231873690E+03 -0.70904007074E+03  0.83635013191E+03  0.40000000000E+03 0. -1.
   -9000005    1    1    2    0  502  0.83964124126E+02  0.17231873690E+03 -0.18919194430E+03  0.48222122829E+03  0.40000000000E+03 0. -1.
<mgrwt>
<rscale>  2 0.44355802E+03</rscale>
<asrwt>0</asrwt>
<pdfrwt beam="1">  1       21 0.32333795E-01 0.44355802E+03</pdfrwt>
<pdfrwt beam="2">  1       21 0.17052334E+00 0.44355802E+03</pdfrwt>
<totfact> 0.16578358E+03</totfact>
</mgrwt>
</event>
<event>
 4    1  0.4949719E-002  0.4141599E+03  0.7818608E-02  0.1038984E+00
         21   -1    0    0  503  502  0.00000000000E+00  0.00000000000E+00  0.11114083191E+04  0.11114083191E+04  0.00000000000E+00 0.  1.
         21   -1    0    0  501  503 -0.00000000000E+00 -0.00000000000E+00 -0.28431659567E+03  0.28431659567E+03  0.00000000000E+00 0.  1.
    9000005    1    1    2  501    0 -0.10552246007E+03  0.19835598521E+02 -0.58311579439E+02  0.41824476188E+03  0.40000000000E+03 0.  1.
   -9000005    1    1    2    0  502  0.10552246007E+03 -0.19835598521E+02  0.88540330291E+03  0.97748015292E+03  0.40000000000E+03 0.  1.
<mgrwt>
<rscale>  2 0.41415992E+03</rscale>
<asrwt>0</asrwt>
<pdfrwt beam="1">  1       21 0.17098589E+00 0.41415992E+03</pdfrwt>
<pdfrwt beam="2">  1       21 0.43741015E-01 0.41415992E+03</pdfrwt>
<totfact> 0.89957643E+02</totfact>
</mgrwt>
</event>
<event>
 4    1  0.4949719E-002  0.4564716E+03  0.7818608E-02  0.1025810E+00
         21   -1    0    0  503  502  0.00000000000E+00  0.00000000000E+00  0.14965008369E+04  0.14965008369E+04  0.00000000000E+00 0. -1.
         21   -1    0    0  501  503 -0.00000000000E+00 -0.00000000000E+00 -0.35659077831E+03  0.35659077831E+03  0.00000000000E+00 0. -1.
    9000005    1    1    2  501    0 -0.16525522406E+03  0.14511028726E+03 -0.15342543381E+03  0.48156582965E+03  0.40000000000E+03 0. -1.
   -9000005    1    1    2    0  502  0.16525522406E+03 -0.14511028726E+03  0.12933354924E+04  0.13715257856E+04  0.40000000000E+03 0. -1.
<mgrwt>
<rscale>  2 0.45647156E+03</rscale>
<asrwt>0</asrwt>
<pdfrwt beam="1">  1       21 0.23023090E+00 0.45647156E+03</pdfrwt>
<pdfrwt beam="2">  1       21 0.54860120E-01 0.45647156E+03</pdfrwt>
<totfact> 0.21869811E+02</totfact>
</mgrwt>
</event>
<event>
 4    1  0.4949719E-002  0.4388760E+03  0.7818608E-02  0.1031092E+00
         21   -1    0    0  501  502  0.00000000000E+00  0.00000000000E+00  0.19053749263E+04  0.19053749263E+04  0.00000000000E+00 0. -1.
         21   -1    0    0  502  503 -0.00000000000E+00 -0.00000000000E+00 -0.32528965697E+03  0.32528965697E+03  0.00000000000E+00 0. -1.
    9000005    1    1    2  501    0 -0.18058574770E+03  0.98234171320E+00  0.17159930398E+04  0.17712267754E+04  0.40000000000E+03 0. -1.
   -9000005    1    1    2    0  503  0.18058574770E+03 -0.98234171320E+00 -0.13590777044E+03  0.45943780790E+03  0.40000000000E+03 0. -1.
<mgrwt>
<rscale>  2 0.43887604E+03</rscale>
<asrwt>0</asrwt>
<pdfrwt beam="1">  1       21 0.29313460E+00 0.43887604E+03</pdfrwt>
<pdfrwt beam="2">  1       21 0.50044564E-01 0.43887604E+03</pdfrwt>
<totfact> 0.11114475E+02</totfact>
</mgrwt>
</event>
<event>
 4    1  0.4949719E-002  0.5475906E+03  0.7818608E-02  0.1002053E+00
         21   -1    0    0  501  502  0.00000000000E+00  0.00000000000E+00  0.29130504380E+03  0.29130504380E+03  0.00000000000E+00 0. -1.
         21   -1    0    0  502  503 -0.00000000000E+00 -0.00000000000E+00 -0.11753699464E+04  0.11753699464E+04  0.00000000000E+00 0. -1.
    9000005    1    1    2  501    0 -0.16600161449E+03 -0.33511031121E+03 -0.18355683538E+03  0.57753663824E+03  0.40000000000E+03 0. -1.
   -9000005    1    1    2    0  503  0.16600161449E+03  0.33511031121E+03 -0.70050806723E+03  0.88913835197E+03  0.40000000000E+03 0. -1.
<mgrwt>
<rscale>  2 0.54759059E+03</rscale>
<asrwt>0</asrwt>
<pdfrwt beam="1">  1       21 0.44816160E-01 0.54759059E+03</pdfrwt>
<pdfrwt beam="2">  1       21 0.18082615E+00 0.54759059E+03</pdfrwt>
<totfact> 0.68685494E+02</totfact>
</mgrwt>
</event>
<event>
 4    1  0.4949719E-002  0.4136096E+03  0.7818608E-02  0.1039166E+00
         21   -1    0    0  503  502  0.00000000000E+00  0.00000000000E+00  0.70422712578E+02  0.70422712578E+02  0.00000000000E+00 0. -1.
         21   -1    0    0  501  503 -0.00000000000E+00 -0.00000000000E+00 -0.24365032816E+04  0.24365032816E+04  0.00000000000E+00 0. -1.
    9000005    1    1    2  501    0  0.48738851203E+02  0.93260140239E+02 -0.11145531844E+04  0.11888236750E+04  0.40000000000E+03 0.  1.
   -9000005    1    1    2    0  502 -0.48738851203E+02 -0.93260140239E+02 -0.12515273846E+04  0.13181023192E+04  0.40000000000E+03 0.  1.
<mgrwt>
<rscale>  2 0.41360963E+03</rscale>
<asrwt>0</asrwt>
<pdfrwt beam="1">  1       21 0.10834263E-01 0.41360963E+03</pdfrwt>
<pdfrwt beam="2">  1       21 0.37484666E+00 0.41360963E+03</pdfrwt>
<totfact> 0.70216492E+02</totfact>
</mgrwt>
</event>
<event>
 4    1  0.4949719E-002  0.4831176E+03  0.7818608E-02  0.1018282E+00
         21   -1    0    0  501  502  0.00000000000E+00  0.00000000000E+00  0.87004102991E+03  0.87004102991E+03  0.00000000000E+00 0.  1.
         21   -1    0    0  502  503 -0.00000000000E+00 -0.00000000000E+00 -0.51019572406E+03  0.51019572406E+03  0.00000000000E+00 0.  1.
    9000005    1    1    2  501    0  0.25747024681E+03 -0.84330704847E+02 -0.29530272628E+03  0.56622106630E+03  0.40000000000E+03 0.  1.
   -9000005    1    1    2    0  503 -0.25747024681E+03  0.84330704847E+02  0.65514803213E+03  0.81401568767E+03  0.40000000000E+03 0.  1.
<mgrwt>
<rscale>  2 0.48311758E+03</rscale>
<asrwt>0</asrwt>
<pdfrwt beam="1">  1       21 0.13385247E+00 0.48311758E+03</pdfrwt>
<pdfrwt beam="2">  1       21 0.78491650E-01 0.48311758E+03</pdfrwt>
<totfact> 0.47383205E+02</totfact>
</mgrwt>
</event>
<event>
 4    1  0.4949719E-002  0.4595430E+03  0.7818608E-02  0.1024914E+00
         21   -1    0    0  501  502  0.00000000000E+00  0.00000000000E+00  0.33252567674E+03  0.33252567674E+03  0.00000000000E+00 0. -1.
         21   -1    0    0  502  503 -0.00000000000E+00 -0.00000000000E+00 -0.64125771857E+03  0.64125771857E+03  0.00000000000E+00 0. -1.
    9000005    1    1    2  501    0  0.10546705395E+03 -0.20014106781E+03 -0.10656910090E+03  0.47173797786E+03  0.40000000000E+03 0. -1.
   -9000005    1    1    2    0  503 -0.10546705395E+03  0.20014106781E+03 -0.20216294093E+03  0.50204541744E+03  0.40000000000E+03 0. -1.
<mgrwt>
<rscale>  2 0.45954298E+03</rscale>
<asrwt>0</asrwt>
<pdfrwt beam="1">  1       21 0.51157797E-01 0.45954298E+03</pdfrwt>
<pdfrwt beam="2">  1       21 0.98655032E-01 0.45954298E+03</pdfrwt>
<totfact> 0.26623514E+03</totfact>
</mgrwt>
</event>
<event>
 4    1  0.4949719E-002  0.4267683E+03  0.7818608E-02  0.1034886E+00
         21   -1    0    0  503  502  0.00000000000E+00  0.00000000000E+00  0.11662234113E+03  0.11662234113E+03  0.00000000000E+00 0. -1.
         21   -1    0    0  501  503 -0.00000000000E+00 -0.00000000000E+00 -0.16462122321E+04  0.16462122321E+04  0.00000000000E+00 0.  1.
    9000005    1    1    2  501    0 -0.13019859127E+03  0.71968734592E+02 -0.56510646709E+03  0.70815004841E+03  0.40000000000E+03 0. -1.
   -9000005    1    1    2    0  502  0.13019859127E+03 -0.71968734592E+02 -0.96448342392E+03  0.10546845248E+04  0.40000000000E+03 0.  1.
<mgrwt>
<rscale>  2 0.42676829E+03</rscale>
<asrwt>0</asrwt>
<pdfrwt beam="1">  1       21 0.17941900E-01 0.42676829E+03</pdfrwt>
<pdfrwt beam="2">  1       21 0.25326340E+00 0.42676829E+03</pdfrwt>
<totfact> 0.15024383E+03</totfact>
</mgrwt>
</event>
<event>
 4    1  0.4949719E-002  0.4545834E+03  0.7818608E-02  0.1026364E+00
         21   -1    0    0  501  502  0.00000000000E+00  0.00000000000E+00  0.93141582950E+03  0.93141582950E+03  0.00000000000E+00 0.  1.
         21   -1    0    0  502  503 -0.00000000000E+00 -0.00000000000E+00 -0.37235784964E+03  0.37235784964E+03  0.00000000000E+00 0.  1.
    9000005    1    1    2  501    0  0.12995596445E+03  0.17250364676E+03  0.69396146669E+03  0.82959543037E+03  0.40000000000E+03 0.  1.
   -9000005    1    1    2    0  503 -0.12995596445E+03 -0.17250364676E+03 -0.13490348684E+03  0.47417824877E+03  0.40000000000E+03 0.  1.
<mgrwt>
<rscale>  2 0.45458339E+03</rscale>
<asrwt>0</asrwt>
<pdfrwt beam="1">  1       21 0.14329474E+00 0.45458339E+03</pdfrwt>
<pdfrwt beam="2">  1       21 0.57285823E-01 0.45458339E+03</pdfrwt>
<totfact> 0.81012631E+02</totfact>
</mgrwt>
</event>
<event>
 4    1  0.4949719E-002  0.4019394E+03  0.7818608E-02  0.1043110E+00
         21   -1    0    0  501  502  0.00000000000E+00  0.00000000000E+00  0.10595534538E+04  0.10595534538E+04  0.00000000000E+00 0.  1.
         21   -1    0    0  502  503 -0.00000000000E+00 -0.00000000000E+00 -0.32484317607E+03  0.32484317607E+03  0.00000000000E+00 0.  1.
    9000005    1    1    2  501    0 -0.29439186398E+02  0.26241202426E+02  0.87157782406E+03  0.95979329534E+03  0.40000000000E+03 0.  1.
   -9000005    1    1    2    0  503  0.29439186398E+02 -0.26241202426E+02 -0.13686754637E+03  0.42460333448E+03  0.40000000000E+03 0.  1.
<mgrwt>
<rscale>  2 0.40193938E+03</rscale>
<asrwt>0</asrwt>
<pdfrwt beam="1">  1       21 0.16300822E+00 0.40193938E+03</pdfrwt>
<pdfrwt beam="2">  1       21 0.49975873E-01 0.40193938E+03</pdfrwt>
<totfact> 0.78257536E+02</totfact>
</mgrwt>
</event>
<event>
 4    1  0.4949719E-002  0.4056682E+03  0.7818608E-02  0.1041834E+00
         21   -1    0    0  503  502  0.00000000000E+00  0.00000000000E+00  0.34378867808E+03  0.34378867808E+03  0.00000000000E+00 0. -1.
         21   -1    0    0  501  503 -0.00000000000E+00 -0.00000000000E+00 -0.70956688502E+03  0.70956688502E+03  0.00000000000E+00 0. -1.
    9000005    1    1    2  501    0  0.31066073003E+02  0.60013037828E+02 -0.48331873093E+03  0.63100210877E+03  0.40000000000E+03 0. -1.
   -9000005    1    1    2    0  502 -0.31066073003E+02 -0.60013037828E+02  0.11754052400E+03  0.42235345433E+03  0.40000000000E+03 0. -1.
<mgrwt>
<rscale>  2 0.40566817E+03</rscale>
<asrwt>0</asrwt>
<pdfrwt beam="1">  1       21 0.52890566E-01 0.40566817E+03</pdfrwt>
<pdfrwt beam="2">  1       21 0.10916414E+00 0.40566817E+03</pdfrwt>
<totfact> 0.19754524E+03</totfact>
</mgrwt>
</event>
<event>
 4    1  0.4949719E-002  0.4912554E+03  0.7818608E-02  0.1016087E+00
         21   -1    0    0  503  502  0.00000000000E+00  0.00000000000E+00  0.28021642030E+03  0.28021642030E+03  0.00000000000E+00 0. -1.
         21   -1    0    0  501  503 -0.00000000000E+00 -0.00000000000E+00 -0.90170790422E+03  0.90170790422E+03  0.00000000000E+00 0.  1.
    9000005    1    1    2  501    0  0.28286857947E+03  0.36293841925E+02 -0.43594879095E+03  0.65679770443E+03  0.40000000000E+03 0. -1.
   -9000005    1    1    2    0  502 -0.28286857947E+03 -0.36293841925E+02 -0.18554269298E+03  0.52512662009E+03  0.40000000000E+03 0.  1.
<mgrwt>
<rscale>  2 0.49125541E+03</rscale>
<asrwt>0</asrwt>
<pdfrwt beam="1">  1       21 0.43110218E-01 0.49125541E+03</pdfrwt>
<pdfrwt beam="2">  1       21 0.13872430E+00 0.49125541E+03</pdfrwt>
<totfact> 0.15942571E+03</totfact>
</mgrwt>
</event>
<event>
 4    1  0.4949719E-002  0.6511182E+03  0.7818608E-02  0.9804683E-01
         21   -1    0    0  501  502  0.00000000000E+00  0.00000000000E+00  0.10653152794E+04  0.10653152794E+04  0.00000000000E+00 0. -1.
         21   -1    0    0  502  503 -0.00000000000E+00 -0.00000000000E+00 -0.43472157099E+03  0.43472157099E+03  0.00000000000E+00 0.  1.
    9000005    1    1    2  501    0  0.51345274040E+03  0.17923080601E+02  0.53339491709E+03  0.84170368362E+03  0.40000000000E+03 0.  1.
   -9000005    1    1    2    0  503 -0.51345274040E+03 -0.17923080601E+02  0.97198791336E+02  0.65833316678E+03  0.40000000000E+03 0. -1.
<mgrwt>
<rscale>  2 0.65111823E+03</rscale>
<asrwt>0</asrwt>
<pdfrwt beam="1">  1       21 0.16389466E+00 0.65111823E+03</pdfrwt>
<pdfrwt beam="2">  1       21 0.66880242E-01 0.65111823E+03</pdfrwt>
<totfact> 0.36900501E+02</totfact>
</mgrwt>
</event>
<event>
 4    1  0.4949719E-002  0.4273080E+03  0.7818608E-02  0.1034714E+00
         21   -1    0    0  503  502  0.00000000000E+00  0.00000000000E+00  0.52180632255E+03  0.52180632255E+03  0.00000000000E+00 0.  1.
         21   -1    0    0  501  503 -0.00000000000E+00 -0.00000000000E+00 -0.42416292328E+03  0.42416292328E+03  0.00000000000E+00 0.  1.
    9000005    1    1    2  501    0  0.12617020165E+03  0.81689654432E+02 -0.14905695422E+03  0.45255949336E+03  0.40000000000E+03 0.  1.
   -9000005    1    1    2    0  502 -0.12617020165E+03 -0.81689654432E+02  0.24670035350E+03  0.49340975248E+03  0.40000000000E+03 0.  1.
<mgrwt>
<rscale>  2 0.42730799E+03</rscale>
<asrwt>0</asrwt>
<pdfrwt beam="1">  1       21 0.80277896E-01 0.42730799E+03</pdfrwt>
<pdfrwt beam="2">  1       21 0.65255834E-01 0.42730799E+03</pdfrwt>
<totfact> 0.25809370E+03</totfact>
</mgrwt>
</event>
<event>
 4    1  0.4949719E-002  0.7539001E+03  0.7818608E-02  0.9629252E-01
         21   -1    0    0  503  502  0.00000000000E+00  0.00000000000E+00  0.31147560492E+03  0.31147560492E+03  0.00000000000E+00 0.  1.
         21   -1    0    0  501  503 -0.00000000000E+00 -0.00000000000E+00 -0.26012794154E+04  0.26012794154E+04  0.00000000000E+00 0. -1.
    9000005    1    1    2  501    0 -0.27614686312E+03 -0.57628835873E+03 -0.19406199210E+04  0.20819152337E+04  0.40000000000E+03 0. -1.
   -9000005    1    1    2    0  502  0.27614686312E+03  0.57628835873E+03 -0.34918388948E+03  0.83083978666E+03  0.40000000000E+03 0.  1.
<mgrwt>
<rscale>  2 0.75390010E+03</rscale>
<asrwt>0</asrwt>
<pdfrwt beam="1">  1       21 0.47919322E-01 0.75390010E+03</pdfrwt>
<pdfrwt beam="2">  1       21 0.40019685E+00 0.75390010E+03</pdfrwt>
<totfact> 0.22338160E+01</totfact>
</mgrwt>
</event>
<event>
 4    1  0.4949719E-002  0.6516023E+03  0.7818608E-02  0.9803777E-01
         21   -1    0    0  501  502  0.00000000000E+00  0.00000000000E+00  0.86362383886E+03  0.86362383886E+03  0.00000000000E+00 0. -1.
         21   -1    0    0  502  503 -0.00000000000E+00 -0.00000000000E+00 -0.70321030045E+03  0.70321030045E+03  0.00000000000E+00 0.  1.
    9000005    1    1    2  501    0  0.44864193612E+03 -0.25160671397E+03  0.50992669581E+03  0.82741208624E+03  0.40000000000E+03 0. -1.
   -9000005    1    1    2    0  503 -0.44864193612E+03  0.25160671397E+03 -0.34951315740E+03  0.73942205307E+03  0.40000000000E+03 0.  1.
<mgrwt>
<rscale>  2 0.65160228E+03</rscale>
<asrwt>0</asrwt>
<pdfrwt beam="1">  1       21 0.13286521E+00 0.65160228E+03</pdfrwt>
<pdfrwt beam="2">  1       21 0.10818620E+00 0.65160228E+03</pdfrwt>
<totfact> 0.21004487E+02</totfact>
</mgrwt>
</event>
<event>
 4    1  0.4949719E-002  0.4476875E+03  0.7818608E-02  0.1028414E+00
         21   -1    0    0  503  502  0.00000000000E+00  0.00000000000E+00  0.66006216924E+03  0.66006216924E+03  0.00000000000E+00 0. -1.
         21   -1    0    0  501  503 -0.00000000000E+00 -0.00000000000E+00 -0.31865630393E+03  0.31865630393E+03  0.00000000000E+00 0. -1.
    9000005    1    1    2  501    0 -0.15146941735E+03 -0.13221621369E+03  0.64487908963E+02  0.45230830410E+03  0.40000000000E+03 0. -1.
   -9000005    1    1    2    0  502  0.15146941735E+03  0.13221621369E+03  0.27691795635E+03  0.52641016907E+03  0.40000000000E+03 0. -1.
<mgrwt>
<rscale>  2 0.44768752E+03</rscale>
<asrwt>0</asrwt>
<pdfrwt beam="1">  1       21 0.10154803E+00 0.44768752E+03</pdfrwt>
<pdfrwt beam="2">  1       21 0.49024047E-01 0.44768752E+03</pdfrwt>
<totfact> 0.27287744E+03</totfact>
</mgrwt>
</event>
<event>
 4    1  0.4949719E-002  0.6224435E+03  0.7818608E-02  0.9859907E-01
         21   -1    0    0  503  502  0.00000000000E+00  0.00000000000E+00  0.19229184450E+04  0.19229184450E+04  0.00000000000E+00 0. -1.
         21   -1    0    0  501  503 -0.00000000000E+00 -0.00000000000E+00 -0.21567843950E+03  0.21567843950E+03  0.00000000000E+00 0. -1.
    9000005    1    1    2  501    0  0.20645570181E+03 -0.42989758708E+03  0.11279453208E+04  0.12882921016E+04  0.40000000000E+03 0. -1.
   -9000005    1    1    2    0  502 -0.20645570181E+03  0.42989758708E+03  0.57929468465E+03  0.85030478292E+03  0.40000000000E+03 0. -1.
<mgrwt>
<rscale>  2 0.62244349E+03</rscale>
<asrwt>0</asrwt>
<pdfrwt beam="1">  1       21 0.29583360E+00 0.62244349E+03</pdfrwt>
<pdfrwt beam="2">  1       21 0.33181300E-01 0.62244349E+03</pdfrwt>
<totfact> 0.22799085E+02</totfact>
</mgrwt>
</event>
<event>
 4    1  0.4949719E-002  0.4831930E+03  0.7818608E-02  0.1018261E+00
         21   -1    0    0  501  502  0.00000000000E+00  0.00000000000E+00  0.63020158593E+03  0.63020158593E+03  0.00000000000E+00 0. -1.
         21   -1    0    0  502  503 -0.00000000000E+00 -0.00000000000E+00 -0.44852169775E+03  0.44852169775E+03  0.00000000000E+00 0. -1.
    9000005    1    1    2  501    0  0.24338472361E+03 -0.11932877483E+03  0.31582763674E+03  0.57725434283E+03  0.40000000000E+03 0. -1.
   -9000005    1    1    2    0  503 -0.24338472361E+03  0.11932877483E+03 -0.13414774856E+03  0.50146894085E+03  0.40000000000E+03 0. -1.
<mgrwt>
<rscale>  2 0.48319301E+03</rscale>
<asrwt>0</asrwt>
<pdfrwt beam="1">  1       21 0.96954090E-01 0.48319301E+03</pdfrwt>
<pdfrwt beam="2">  1       21 0.69003338E-01 0.48319301E+03</pdfrwt>
<totfact> 0.14291502E+03</totfact>
</mgrwt>
</event>
<event>
 4    1  0.4949719E-002  0.4295821E+03  0.7818608E-02  0.1033992E+00
         21   -1    0    0  501  502  0.00000000000E+00  0.00000000000E+00  0.75505340463E+03  0.75505340463E+03  0.00000000000E+00 0. -1.
         21   -1    0    0  502  503 -0.00000000000E+00 -0.00000000000E+00 -0.29926891736E+03  0.29926891736E+03  0.00000000000E+00 0. -1.
    9000005    1    1    2  501    0 -0.15549349385E+03  0.19040408522E+02  0.21848137556E+01  0.42958763622E+03  0.40000000000E+03 0. -1.
   -9000005    1    1    2    0  503  0.15549349385E+03 -0.19040408522E+02  0.45359967352E+03  0.62473468577E+03  0.40000000000E+03 0. -1.
<mgrwt>
<rscale>  2 0.42958208E+03</rscale>
<asrwt>0</asrwt>
<pdfrwt beam="1">  1       21 0.11616206E+00 0.42958208E+03</pdfrwt>
<pdfrwt beam="2">  1       21 0.46041372E-01 0.42958208E+03</pdfrwt>
<totfact> 0.22490881E+03</totfact>
</mgrwt>
</event>
<event>
 4    1  0.4949719E-002  0.5245028E+03  0.7818608E-02  0.1007574E+00
         21   -1    0    0  501  502  0.00000000000E+00  0.00000000000E+00  0.59192668144E+03  0.59192668144E+03  0.00000000000E+00 0.  1.
         21   -1    0    0  502  503 -0.00000000000E+00 -0.00000000000E+00 -0.52000212377E+03  0.52000212377E+03  0.00000000000E+00 0.  1.
    9000005    1    1    2  501    0 -0.30371964310E+03  0.15118712141E+03  0.21717309103E+03  0.56768593320E+03  0.40000000000E+03 0.  1.
   -9000005    1    1    2    0  503  0.30371964310E+03 -0.15118712141E+03 -0.14524853336E+03  0.54424287201E+03  0.40000000000E+03 0.  1.
<mgrwt>
<rscale>  2 0.52450278E+03</rscale>
<asrwt>0</asrwt>
<pdfrwt beam="1">  1       21 0.91065643E-01 0.52450278E+03</pdfrwt>
<pdfrwt beam="2">  1       21 0.80000327E-01 0.52450278E+03</pdfrwt>
<totfact> 0.11678188E+03</totfact>
</mgrwt>
</event>
<event>
 4    1  0.4949719E-002  0.4882748E+03  0.7818608E-02  0.1016885E+00
         21   -1    0    0  501  502  0.00000000000E+00  0.00000000000E+00  0.57902070769E+03  0.57902070769E+03  0.00000000000E+00 0. -1.
         21   -1    0    0  502  503 -0.00000000000E+00 -0.00000000000E+00 -0.59271657863E+03  0.59271657863E+03  0.00000000000E+00 0. -1.
    9000005    1    1    2  501    0  0.16555003121E+03 -0.22584388624E+03  0.31687604661E+03  0.58208478996E+03  0.40000000000E+03 0. -1.
   -9000005    1    1    2    0  503 -0.16555003121E+03  0.22584388624E+03 -0.33057191756E+03  0.58965249636E+03  0.40000000000E+03 0. -1.
<mgrwt>
<rscale>  2 0.48827479E+03</rscale>
<asrwt>0</asrwt>
<pdfrwt beam="1">  1       21 0.89080109E-01 0.48827479E+03</pdfrwt>
<pdfrwt beam="2">  1       21 0.91187166E-01 0.48827479E+03</pdfrwt>
<totfact> 0.91672578E+02</totfact>
</mgrwt>
</event>
<event>
 4    1  0.4949719E-002  0.5635691E+03  0.7818608E-02  0.9984011E-01
         21   -1    0    0  503  502  0.00000000000E+00  0.00000000000E+00  0.68285957291E+03  0.68285957291E+03  0.00000000000E+00 0.  1.
         21   -1    0    0  501  503 -0.00000000000E+00 -0.00000000000E+00 -0.76900602341E+03  0.76900602341E+03  0.00000000000E+00 0.  1.
    9000005    1    1    2  501    0 -0.38524396519E+03  0.95901857552E+02 -0.49941323685E+03  0.75300973443E+03  0.40000000000E+03 0.  1.
   -9000005    1    1    2    0  502  0.38524396519E+03 -0.95901857552E+02  0.41326678635E+03  0.69885586189E+03  0.40000000000E+03 0.  1.
<mgrwt>
<rscale>  2 0.56356905E+03</rscale>
<asrwt>0</asrwt>
<pdfrwt beam="1">  1       21 0.10505532E+00 0.56356905E+03</pdfrwt>
<pdfrwt beam="2">  1       21 0.11830862E+00 0.56356905E+03</pdfrwt>
<totfact> 0.31508345E+02</totfact>
</mgrwt>
</event>
<event>
 4    1  0.4949719E-002  0.4469518E+03  0.7818608E-02  0.1028635E+00
         21   -1    0    0  501  502  0.00000000000E+00  0.00000000000E+00  0.67764175884E+03  0.67764175884E+03  0.00000000000E+00 0.  1.
         21   -1    0    0  502  503 -0.00000000000E+00 -0.00000000000E+00 -0.94493359308E+03  0.94493359308E+03  0.00000000000E+00 0.  1.
    9000005    1    1    2  501    0  0.16257148505E+03 -0.11548348617E+03  0.53929502393E+03  0.70043204251E+03  0.40000000000E+03 0.  1.
   -9000005    1    1    2    0  503 -0.16257148505E+03  0.11548348617E+03 -0.80658685818E+03  0.92214330942E+03  0.40000000000E+03 0.  1.
<mgrwt>
<rscale>  2 0.44695181E+03</rscale>
<asrwt>0</asrwt>
<pdfrwt beam="1">  1       21 0.10425258E+00 0.44695181E+03</pdfrwt>
<pdfrwt beam="2">  1       21 0.14537440E+00 0.44695181E+03</pdfrwt>
<totfact> 0.19718462E+02</totfact>
</mgrwt>
</event>
<event>
 4    1  0.4949719E-002  0.4034008E+03  0.7818608E-02  0.1042608E+00
         21   -1    0    0  503  502  0.00000000000E+00  0.00000000000E+00  0.23727267488E+03  0.23727267488E+03  0.00000000000E+00 0.  1.
         21   -1    0    0  501  503 -0.00000000000E+00 -0.00000000000E+00 -0.70560696968E+03  0.70560696968E+03  0.00000000000E+00 0.  1.
    9000005    1    1    2  501    0 -0.51650821349E+02 -0.80263335408E+01 -0.15526983928E+03  0.43225102934E+03  0.40000000000E+03 0. -1.
   -9000005    1    1    2    0  502  0.51650821349E+02  0.80263335408E+01 -0.31306445552E+03  0.51062861523E+03  0.40000000000E+03 0. -1.
<mgrwt>
<rscale>  2 0.40340083E+03</rscale>
<asrwt>0</asrwt>
<pdfrwt beam="1">  1       21 0.36503489E-01 0.40340083E+03</pdfrwt>
<pdfrwt beam="2">  1       21 0.10855492E+00 0.40340083E+03</pdfrwt>
<totfact> 0.43412373E+03</totfact>
</mgrwt>
</event>
<event>
 4    1  0.4949719E-002  0.4251032E+03  0.7818608E-02  0.1035418E+00
         21   -1    0    0  503  502  0.00000000000E+00  0.00000000000E+00  0.28034316362E+03  0.28034316362E+03  0.00000000000E+00 0. -1.
         21   -1    0    0  501  503 -0.00000000000E+00 -0.00000000000E+00 -0.71691516523E+03  0.71691516523E+03  0.00000000000E+00 0. -1.
    9000005    1    1    2  501    0 -0.14379429822E+03 -0.59955408366E+01 -0.37663689738E+03  0.56795078940E+03  0.40000000000E+03 0. -1.
   -9000005    1    1    2    0  502  0.14379429822E+03  0.59955408366E+01 -0.59935104242E+02  0.42930753945E+03  0.40000000000E+03 0. -1.
<mgrwt>
<rscale>  2 0.42510322E+03</rscale>
<asrwt>0</asrwt>
<pdfrwt beam="1">  1       21 0.43129718E-01 0.42510322E+03</pdfrwt>
<pdfrwt beam="2">  1       21 0.11029464E+00 0.42510322E+03</pdfrwt>
<totfact> 0.29383314E+03</totfact>
</mgrwt>
</event>
<event>
 4    1  0.4949719E-002  0.4079459E+03  0.7818608E-02  0.1041062E+00
         21   -1    0    0  501  502  0.00000000000E+00  0.00000000000E+00  0.14168680380E+03  0.14168680380E+03  0.00000000000E+00 0. -1.
         21   -1    0    0  502  503 -0.00000000000E+00 -0.00000000000E+00 -0.12062888128E+04  0.12062888128E+04  0.00000000000E+00 0. -1.
    9000005    1    1    2  501    0  0.78663054608E+02 -0.15232204690E+02 -0.64160637932E+03  0.76031483098E+03  0.40000000000E+03 0.  1.
   -9000005    1    1    2    0  503 -0.78663054608E+02  0.15232204690E+02 -0.42299562963E+03  0.58766078558E+03  0.40000000000E+03 0.  1.
<mgrwt>
<rscale>  2 0.40794595E+03</rscale>
<asrwt>0</asrwt>
<pdfrwt beam="1">  1       21 0.21797969E-01 0.40794595E+03</pdfrwt>
<pdfrwt beam="2">  1       21 0.18558290E+00 0.40794595E+03</pdfrwt>
<totfact> 0.28498653E+03</totfact>
</mgrwt>
</event>
<event>
 4    1  0.4949719E-002  0.4134075E+03  0.7818608E-02  0.1039234E+00
         21   -1    0    0  501  502  0.00000000000E+00  0.00000000000E+00  0.13584111794E+04  0.13584111794E+04  0.00000000000E+00 0.  1.
         21   -1    0    0  502  503 -0.00000000000E+00 -0.00000000000E+00 -0.14480005698E+03  0.14480005698E+03  0.00000000000E+00 0.  1.
    9000005    1    1    2  501    0 -0.80195775802E+00  0.10442761914E+03  0.87897202090E+03  0.97133803812E+03  0.40000000000E+03 0.  1.
   -9000005    1    1    2    0  503  0.80195775802E+00 -0.10442761914E+03  0.33463910155E+03  0.53187319829E+03  0.40000000000E+03 0.  1.
<mgrwt>
<rscale>  2 0.41340751E+03</rscale>
<asrwt>0</asrwt>
<pdfrwt beam="1">  1       21 0.20898633E+00 0.41340751E+03</pdfrwt>
<pdfrwt beam="2">  1       21 0.22276933E-01 0.41340751E+03</pdfrwt>
<totfact> 0.19009834E+03</totfact>
</mgrwt>
</event>
<event>
 4    1  0.4949719E-002  0.4491229E+03  0.7818608E-02  0.1027984E+00
         21   -1    0    0  503  502  0.00000000000E+00  0.00000000000E+00  0.98663624194E+03  0.98663624194E+03  0.00000000000E+00 0.  1.
         21   -1    0    0  501  503 -0.00000000000E+00 -0.00000000000E+00 -0.20446010027E+03  0.20446010027E+03  0.00000000000E+00 0.  1.
    9000005    1    1    2  501    0  0.13030230850E+03  0.15726634839E+03  0.38572664992E+03  0.59202740172E+03  0.40000000000E+03 0.  1.
   -9000005    1    1    2    0  502 -0.13030230850E+03 -0.15726634839E+03  0.39644949176E+03  0.59906894048E+03  0.40000000000E+03 0.  1.
<mgrwt>
<rscale>  2 0.44912292E+03</rscale>
<asrwt>0</asrwt>
<pdfrwt beam="1">  1       21 0.15179019E+00 0.44912292E+03</pdfrwt>
<pdfrwt beam="2">  1       21 0.31455401E-01 0.44912292E+03</pdfrwt>
<totfact> 0.24179887E+03</totfact>
</mgrwt>
</event>
<event>
 4    1  0.4949719E-002  0.4015048E+03  0.7818608E-02  0.1043260E+00
         21   -1    0    0  503  502  0.00000000000E+00  0.00000000000E+00  0.63676643648E+03  0.63676643648E+03  0.00000000000E+00 0. -1.
         21   -1    0    0  501  503 -0.00000000000E+00 -0.00000000000E+00 -0.28500669776E+03  0.28500669776E+03  0.00000000000E+00 0. -1.
    9000005    1    1    2  501    0 -0.17085400626E+02  0.30235061582E+02  0.21825394606E+02  0.40209752264E+03  0.40000000000E+03 0. -1.
   -9000005    1    1    2    0  502  0.17085400626E+02 -0.30235061582E+02  0.32993434411E+03  0.51967561160E+03  0.40000000000E+03 0. -1.
<mgrwt>
<rscale>  2 0.40150476E+03</rscale>
<asrwt>0</asrwt>
<pdfrwt beam="1">  1       21 0.97964067E-01 0.40150476E+03</pdfrwt>
<pdfrwt beam="2">  1       21 0.43847184E-01 0.40150476E+03</pdfrwt>
<totfact> 0.38299207E+03</totfact>
</mgrwt>
</event>
<event>
 4    1  0.4949719E-002  0.4616816E+03  0.7818608E-02  0.1024295E+00
         21   -1    0    0  503  502  0.00000000000E+00  0.00000000000E+00  0.42523050884E+03  0.42523050884E+03  0.00000000000E+00 0. -1.
         21   -1    0    0  501  503 -0.00000000000E+00 -0.00000000000E+00 -0.65720248601E+03  0.65720248601E+03  0.00000000000E+00 0.  1.
    9000005    1    1    2  501    0 -0.22325558237E+03  0.57505032043E+02 -0.37962365352E+03  0.59771565320E+03  0.40000000000E+03 0.  1.
   -9000005    1    1    2    0  502  0.22325558237E+03 -0.57505032043E+02  0.14765167635E+03  0.48471734165E+03  0.40000000000E+03 0.  1.
<mgrwt>
<rscale>  2 0.46168158E+03</rscale>
<asrwt>0</asrwt>
<pdfrwt beam="1">  1       21 0.65420078E-01 0.46168158E+03</pdfrwt>
<pdfrwt beam="2">  1       21 0.10110807E+00 0.46168158E+03</pdfrwt>
<totfact> 0.14663074E+03</totfact>
</mgrwt>
</event>
<event>
 4    1  0.4949719E-002  0.4998994E+03  0.7818608E-02  0.1013805E+00
         21   -1    0    0  503  502  0.00000000000E+00  0.00000000000E+00  0.37154306907E+03  0.37154306907E+03  0.00000000000E+00 0. -1.
         21   -1    0    0  501  503 -0.00000000000E+00 -0.00000000000E+00 -0.10940243931E+04  0.10940243931E+04  0.00000000000E+00 0.  1.
    9000005    1    1    2  501    0  0.46466783969E+02 -0.29620979213E+03 -0.81604311289E+03  0.95698786046E+03  0.40000000000E+03 0.  1.
   -9000005    1    1    2    0  502 -0.46466783969E+02  0.29620979213E+03  0.93561788838E+02  0.50857960173E+03  0.40000000000E+03 0. -1.
<mgrwt>
<rscale>  2 0.49989939E+03</rscale>
<asrwt>0</asrwt>
<pdfrwt beam="1">  1       21 0.57160472E-01 0.49989939E+03</pdfrwt>
<pdfrwt beam="2">  1       21 0.16831144E+00 0.49989939E+03</pdfrwt>
<totfact> 0.51206056E+02</totfact>
</mgrwt>
</event>
<event>
 4    1  0.4949719E-002  0.4237923E+03  0.7818608E-02  0.1035839E+00
         21   -1    0    0  503  502  0.00000000000E+00  0.00000000000E+00  0.44294539607E+03  0.44294539607E+03  0.00000000000E+00 0. -1.
         21   -1    0    0  501  503 -0.00000000000E+00 -0.00000000000E+00 -0.88141680605E+03  0.88141680605E+03  0.00000000000E+00 0. -1.
    9000005    1    1    2  501    0  0.79354952280E+01 -0.13977467733E+03 -0.70582942306E+03  0.82328312686E+03  0.40000000000E+03 0. -1.
   -9000005    1    1    2    0  502 -0.79354952280E+01  0.13977467733E+03  0.26735801308E+03  0.50107907526E+03  0.40000000000E+03 0. -1.
<mgrwt>
<rscale>  2 0.42379232E+03</rscale>
<asrwt>0</asrwt>
<pdfrwt beam="1">  1       21 0.68145446E-01 0.42379232E+03</pdfrwt>
<pdfrwt beam="2">  1       21 0.13560258E+00 0.42379232E+03</pdfrwt>
<totfact> 0.64843471E+02</totfact>
</mgrwt>
</event>
<event>
 4    1  0.4949719E-002  0.4853313E+03  0.7818608E-02  0.1017680E+00
         21   -1    0    0  501  502  0.00000000000E+00  0.00000000000E+00  0.90109987131E+03  0.90109987131E+03  0.00000000000E+00 0.  1.
         21   -1    0    0  502  503 -0.00000000000E+00 -0.00000000000E+00 -0.27215923326E+03  0.27215923326E+03  0.00000000000E+00 0.  1.
    9000005    1    1    2  501    0 -0.14451213722E+03  0.23380065673E+03  0.43111514829E+03  0.64915851375E+03  0.40000000000E+03 0.  1.
   -9000005    1    1    2    0  503  0.14451213722E+03 -0.23380065673E+03  0.19782548976E+03  0.52410059081E+03  0.40000000000E+03 0.  1.
<mgrwt>
<rscale>  2 0.48533134E+03</rscale>
<asrwt>0</asrwt>
<pdfrwt beam="1">  1       21 0.13863075E+00 0.48533134E+03</pdfrwt>
<pdfrwt beam="2">  1       21 0.41870652E-01 0.48533134E+03</pdfrwt>
<totfact> 0.17008622E+03</totfact>
</mgrwt>
</event>
<event>
 4    1  0.4949719E-002  0.4804732E+03  0.7818608E-02  0.1019005E+00
         21   -1    0    0  501  502  0.00000000000E+00  0.00000000000E+00  0.68213223471E+03  0.68213223471E+03  0.00000000000E+00 0.  1.
         21   -1    0    0  502  503 -0.00000000000E+00 -0.00000000000E+00 -0.33978688317E+03  0.33978688317E+03  0.00000000000E+00 0.  1.
    9000005    1    1    2  501    0  0.21382322587E+03  0.15853741520E+03  0.13889191600E+03  0.50014542712E+03  0.40000000000E+03 0.  1.
   -9000005    1    1    2    0  503 -0.21382322587E+03 -0.15853741520E+03  0.20345343554E+03  0.52177369076E+03  0.40000000000E+03 0.  1.
<mgrwt>
<rscale>  2 0.48047319E+03</rscale>
<asrwt>0</asrwt>
<pdfrwt beam="1">  1       21 0.10494342E+00 0.48047319E+03</pdfrwt>
<pdfrwt beam="2">  1       21 0.52274905E-01 0.48047319E+03</pdfrwt>
<totfact> 0.21693334E+03</totfact>
</mgrwt>
</event>
<event>
 4    1  0.4949719E-002  0.5028663E+03  0.7818608E-02  0.1013033E+00
         21   -1    0    0  501  502  0.00000000000E+00  0.00000000000E+00  0.14029933015E+03  0.14029933015E+03  0.00000000000E+00 0. -1.
         21   -1    0    0  502  503 -0.00000000000E+00 -0.00000000000E+00 -0.20233545450E+04  0.20233545450E+04  0.00000000000E+00 0. -1.
    9000005    1    1    2  501    0 -0.30057951828E+03  0.50263606704E+02 -0.58402392382E+03  0.77068697962E+03  0.40000000000E+03 0. -1.
   -9000005    1    1    2    0  503  0.30057951828E+03 -0.50263606704E+02 -0.12990312910E+04  0.13929668955E+04  0.40000000000E+03 0. -1.
<mgrwt>
<rscale>  2 0.50286626E+03</rscale>
<asrwt>0</asrwt>
<pdfrwt beam="1">  1       21 0.21584515E-01 0.50286626E+03</pdfrwt>
<pdfrwt beam="2">  1       21 0.31128528E+00 0.50286626E+03</pdfrwt>
<totfact> 0.45303212E+02</totfact>
</mgrwt>
</event>
<event>
 4    1  0.4949719E-002  0.4225764E+03  0.7818608E-02  0.1036231E+00
         21   -1    0    0  501  502  0.00000000000E+00  0.00000000000E+00  0.10632923215E+03  0.10632923215E+03  0.00000000000E+00 0. -1.
         21   -1    0    0  502  503 -0.00000000000E+00 -0.00000000000E+00 -0.18499682011E+04  0.18499682011E+04  0.00000000000E+00 0. -1.
    9000005    1    1    2  501    0  0.13430272086E+03  0.23100097345E+02 -0.57482146151E+03  0.71343573498E+03  0.40000000000E+03 0. -1.
   -9000005    1    1    2    0  503 -0.13430272086E+03 -0.23100097345E+02 -0.11688175074E+04  0.12428616983E+04  0.40000000000E+03 0. -1.
<mgrwt>
<rscale>  2 0.42257643E+03</rscale>
<asrwt>0</asrwt>
<pdfrwt beam="1">  1       21 0.16358344E-01 0.42257643E+03</pdfrwt>
<pdfrwt beam="2">  1       21 0.28461048E+00 0.42257643E+03</pdfrwt>
<totfact> 0.11573088E+03</totfact>
</mgrwt>
</event>
<event>
 4    1  0.4949719E-002  0.4430803E+03  0.7818608E-02  0.1029806E+00
         21   -1    0    0  501  502  0.00000000000E+00  0.00000000000E+00  0.17925689931E+03  0.17925689931E+03  0.00000000000E+00 0. -1.
         21   -1    0    0  502  503 -0.00000000000E+00 -0.00000000000E+00 -0.13242449868E+04  0.13242449868E+04  0.00000000000E+00 0. -1.
    9000005    1    1    2  501    0  0.51661979092E+02 -0.18344265322E+03 -0.25984239199E+03  0.51365186243E+03  0.40000000000E+03 0. -1.
   -9000005    1    1    2    0  503 -0.51661979092E+02  0.18344265322E+03 -0.88514569545E+03  0.98985002363E+03  0.40000000000E+03 0. -1.
<mgrwt>
<rscale>  2 0.44308032E+03</rscale>
<asrwt>0</asrwt>
<pdfrwt beam="1">  1       21 0.27577985E-01 0.44308032E+03</pdfrwt>
<pdfrwt beam="2">  1       21 0.20373000E+00 0.44308032E+03</pdfrwt>
<totfact> 0.13408741E+03</totfact>
</mgrwt>
</event>
<event>
 4    1  0.4949719E-002  0.4003433E+03  0.7818608E-02  0.1043661E+00
         21   -1    0    0  503  502  0.00000000000E+00  0.00000000000E+00  0.61704522329E+03  0.61704522329E+03  0.00000000000E+00 0.  1.
         21   -1    0    0  501  503 -0.00000000000E+00 -0.00000000000E+00 -0.27799616396E+03  0.27799616396E+03  0.00000000000E+00 0.  1.
    9000005    1    1    2  501    0  0.14711412420E+02  0.76377731872E+01  0.54859163881E+02  0.40408450737E+03  0.40000000000E+03 0.  1.
   -9000005    1    1    2    0  502 -0.14711412420E+02 -0.76377731872E+01  0.28418989545E+03  0.49095687989E+03  0.40000000000E+03 0.  1.
<mgrwt>
<rscale>  2 0.40034330E+03</rscale>
<asrwt>0</asrwt>
<pdfrwt beam="1">  1       21 0.94930034E-01 0.40034330E+03</pdfrwt>
<pdfrwt beam="2">  1       21 0.42768641E-01 0.40034330E+03</pdfrwt>
<totfact> 0.43513861E+03</totfact>
</mgrwt>
</event>
<event>
 4    1  0.4949719E-002  0.4156540E+03  0.7818608E-02  0.1038490E+00
         21   -1    0    0  503  502  0.00000000000E+00  0.00000000000E+00  0.96226291487E+03  0.96226291487E+03  0.00000000000E+00 0. -1.
         21   -1    0    0  501  503 -0.00000000000E+00 -0.00000000000E+00 -0.22370141175E+03  0.22370141175E+03  0.00000000000E+00 0. -1.
    9000005    1    1    2  501    0  0.96769269936E+02  0.58343488718E+02  0.10582329439E+03  0.42891353897E+03  0.40000000000E+03 0. -1.
   -9000005    1    1    2    0  502 -0.96769269936E+02 -0.58343488718E+02  0.63273820873E+03  0.75705078764E+03  0.40000000000E+03 0. -1.
<mgrwt>
<rscale>  2 0.41565401E+03</rscale>
<asrwt>0</asrwt>
<pdfrwt beam="1">  1       21 0.14804045E+00 0.41565401E+03</pdfrwt>
<pdfrwt beam="2">  1       21 0.34415602E-01 0.41565401E+03</pdfrwt>
<totfact> 0.21897440E+03</totfact>
</mgrwt>
</event>
<event>
 4    1  0.4949719E-002  0.5996534E+03  0.7818608E-02  0.9906125E-01
         21   -1    0    0  503  502  0.00000000000E+00  0.00000000000E+00  0.81473070530E+03  0.81473070530E+03  0.00000000000E+00 0.  1.
         21   -1    0    0  501  503 -0.00000000000E+00 -0.00000000000E+00 -0.72972309116E+03  0.72972309116E+03  0.00000000000E+00 0.  1.
    9000005    1    1    2  501    0 -0.42430924576E+03 -0.13980632931E+03 -0.44294194600E+03  0.74550768827E+03  0.40000000000E+03 0.  1.
   -9000005    1    1    2    0  502  0.42430924576E+03  0.13980632931E+03  0.52794956014E+03  0.79894610819E+03  0.40000000000E+03 0.  1.
<mgrwt>
<rscale>  2 0.59965335E+03</rscale>
<asrwt>0</asrwt>
<pdfrwt beam="1">  1       21 0.12534318E+00 0.59965335E+03</pdfrwt>
<pdfrwt beam="2">  1       21 0.11226509E+00 0.59965335E+03</pdfrwt>
<totfact> 0.22704084E+02</totfact>
</mgrwt>
</event>
<event>
 4    1  0.4949719E-002  0.4687711E+03  0.7818608E-02  0.1022268E+00
         21   -1    0    0  501  502  0.00000000000E+00  0.00000000000E+00  0.24039239104E+03  0.24039239104E+03  0.00000000000E+00 0.  1.
         21   -1    0    0  502  503 -0.00000000000E+00 -0.00000000000E+00 -0.13420357372E+04  0.13420357372E+04  0.00000000000E+00 0.  1.
    9000005    1    1    2  501    0 -0.69661442384E+02  0.23429392912E+03 -0.99760141622E+03  0.11022499478E+04  0.40000000000E+03 0.  1.
   -9000005    1    1    2    0  503  0.69661442384E+02 -0.23429392912E+03 -0.10404192993E+03  0.48017818043E+03  0.40000000000E+03 0.  1.
<mgrwt>
<rscale>  2 0.46877112E+03</rscale>
<asrwt>0</asrwt>
<pdfrwt beam="1">  1       21 0.36983445E-01 0.46877112E+03</pdfrwt>
<pdfrwt beam="2">  1       21 0.20646704E+00 0.46877112E+03</pdfrwt>
<totfact> 0.70634193E+02</totfact>
</mgrwt>
</event>
<event>
 4    1  0.4949719E-002  0.4849482E+03  0.7818608E-02  0.1017784E+00
         21   -1    0    0  503  502  0.00000000000E+00  0.00000000000E+00  0.29285488358E+03  0.29285488358E+03  0.00000000000E+00 0.  1.
         21   -1    0    0  501  503 -0.00000000000E+00 -0.00000000000E+00 -0.12802275735E+04  0.12802275735E+04  0.00000000000E+00 0.  1.
    9000005    1    1    2  501    0 -0.25676416493E+03  0.96160679952E+02 -0.97388578316E+03  0.10879467962E+04  0.40000000000E+03 0.  1.
   -9000005    1    1    2    0  502  0.25676416493E+03 -0.96160679952E+02 -0.13486906736E+02  0.48513566083E+03  0.40000000000E+03 0.  1.
<mgrwt>
<rscale>  2 0.48494815E+03</rscale>
<asrwt>0</asrwt>
<pdfrwt beam="1">  1       21 0.45054596E-01 0.48494815E+03</pdfrwt>
<pdfrwt beam="2">  1       21 0.19695809E+00 0.48494815E+03</pdfrwt>
<totfact> 0.53919618E+02</totfact>
</mgrwt>
</event>
<event>
 4    1  0.4949719E-002  0.4314956E+03  0.7818608E-02  0.1033389E+00
         21   -1    0    0  501  502  0.00000000000E+00  0.00000000000E+00  0.41599648835E+03  0.41599648835E+03  0.00000000000E+00 0. -1.
         21   -1    0    0  502  503 -0.00000000000E+00 -0.00000000000E+00 -0.90082399135E+03  0.90082399135E+03  0.00000000000E+00 0. -1.
    9000005    1    1    2  501    0  0.26144047850E+01 -0.16180730554E+03  0.22461798886E+03  0.48645830259E+03  0.40000000000E+03 0. -1.
   -9000005    1    1    2    0  503 -0.26144047850E+01  0.16180730554E+03 -0.70944549187E+03  0.83036217711E+03  0.40000000000E+03 0. -1.
<mgrwt>
<rscale>  2 0.43149558E+03</rscale>
<asrwt>0</asrwt>
<pdfrwt beam="1">  1       21 0.63999461E-01 0.43149558E+03</pdfrwt>
<pdfrwt beam="2">  1       21 0.13858830E+00 0.43149558E+03</pdfrwt>
<totfact> 0.70156124E+02</totfact>
</mgrwt>
</event>
<event>
 4    1  0.4949719E-002  0.5653273E+03  0.7818608E-02  0.9980072E-01
         21   -1    0    0  501  502  0.00000000000E+00  0.00000000000E+00  0.74439015976E+03  0.74439015976E+03  0.00000000000E+00 0. -1.
         21   -1    0    0  502  503 -0.00000000000E+00 -0.00000000000E+00 -0.76398722353E+03  0.76398722353E+03  0.00000000000E+00 0. -1.
    9000005    1    1    2  501    0  0.39080507833E+03  0.82863245528E+02  0.48935244774E+03  0.74770364772E+03  0.40000000000E+03 0. -1.
   -9000005    1    1    2    0  503 -0.39080507833E+03 -0.82863245528E+02 -0.50894951152E+03  0.76067373557E+03  0.40000000000E+03 0. -1.
<mgrwt>
<rscale>  2 0.56532727E+03</rscale>
<asrwt>0</asrwt>
<pdfrwt beam="1">  1       21 0.11452156E+00 0.56532727E+03</pdfrwt>
<pdfrwt beam="2">  1       21 0.11753650E+00 0.56532727E+03</pdfrwt>
<totfact> 0.25811957E+02</totfact>
</mgrwt>
</event>
<event>
 4    1  0.4949719E-002  0.4561916E+03  0.7818608E-02  0.1025892E+00
         21   -1    0    0  501  502  0.00000000000E+00  0.00000000000E+00  0.34327411392E+03  0.34327411392E+03  0.00000000000E+00 0. -1.
         21   -1    0    0  502  503 -0.00000000000E+00 -0.00000000000E+00 -0.61590962744E+03  0.61590962744E+03  0.00000000000E+00 0. -1.
    9000005    1    1    2  501    0  0.20765303878E+03  0.70647083598E+02 -0.19637106793E+03  0.49666124397E+03  0.40000000000E+03 0. -1.
   -9000005    1    1    2    0  503 -0.20765303878E+03 -0.70647083598E+02 -0.76264445589E+02  0.46252249740E+03  0.40000000000E+03 0. -1.
<mgrwt>
<rscale>  2 0.45619162E+03</rscale>
<asrwt>0</asrwt>
<pdfrwt beam="1">  1       21 0.52811402E-01 0.45619162E+03</pdfrwt>
<pdfrwt beam="2">  1       21 0.94755328E-01 0.45619162E+03</pdfrwt>
<totfact> 0.27439743E+03</totfact>
</mgrwt>
</event>
<event>
 4    1  0.4949719E-002  0.4929384E+03  0.7818608E-02  0.1015639E+00
         21   -1    0    0  501  502  0.00000000000E+00  0.00000000000E+00  0.81340536323E+03  0.81340536323E+03  0.00000000000E+00 0. -1.
         21   -1    0    0  502  503 -0.00000000000E+00 -0.00000000000E+00 -0.62125292824E+03  0.62125292824E+03  0.00000000000E+00 0.  1.
    9000005    1    1    2  501    0 -0.34926915104E+02  0.28595161956E+03  0.61292661265E+03  0.78655403542E+03  0.40000000000E+03 0. -1.
   -9000005    1    1    2    0  503  0.34926915104E+02 -0.28595161956E+03 -0.42077417767E+03  0.64810425606E+03  0.40000000000E+03 0.  1.
<mgrwt>
<rscale>  2 0.49293835E+03</rscale>
<asrwt>0</asrwt>
<pdfrwt beam="1">  1       21 0.12513929E+00 0.49293835E+03</pdfrwt>
<pdfrwt beam="2">  1       21 0.95577373E-01 0.49293835E+03</pdfrwt>
<totfact> 0.35347279E+02</totfact>
</mgrwt>
</event>
<event>
 4    1  0.4949719E-002  0.4168604E+03  0.7818608E-02  0.1038093E+00
         21   -1    0    0  501  502  0.00000000000E+00  0.00000000000E+00  0.19086188998E+03  0.19086188998E+03  0.00000000000E+00 0.  1.
         21   -1    0    0  502  503 -0.00000000000E+00 -0.00000000000E+00 -0.14812287822E+04  0.14812287822E+04  0.00000000000E+00 0.  1.
    9000005    1    1    2  501    0 -0.45933042880E+02  0.10799409564E+03 -0.12620662608E+03  0.43554641726E+03  0.40000000000E+03 0.  1.
   -9000005    1    1    2    0  503  0.45933042880E+02 -0.10799409564E+03 -0.11641602661E+04  0.12365442549E+04  0.40000000000E+03 0.  1.
<mgrwt>
<rscale>  2 0.41686037E+03</rscale>
<asrwt>0</asrwt>
<pdfrwt beam="1">  1       21 0.29363367E-01 0.41686037E+03</pdfrwt>
<pdfrwt beam="2">  1       21 0.22788136E+00 0.41686037E+03</pdfrwt>
<totfact> 0.83895332E+02</totfact>
</mgrwt>
</event>
<event>
 4    1  0.4949719E-002  0.4902685E+03  0.7818608E-02  0.1016351E+00
         21   -1    0    0  503  502  0.00000000000E+00  0.00000000000E+00  0.61124881547E+03  0.61124881547E+03  0.00000000000E+00 0.  1.
         21   -1    0    0  501  503 -0.00000000000E+00 -0.00000000000E+00 -0.46242538448E+03  0.46242538448E+03  0.00000000000E+00 0.  1.
    9000005    1    1    2  501    0 -0.22576043344E+03 -0.17145089509E+03 -0.13324737796E+03  0.50805319256E+03  0.40000000000E+03 0.  1.
   -9000005    1    1    2    0  502  0.22576043344E+03  0.17145089509E+03  0.28207080895E+03  0.56562100739E+03  0.40000000000E+03 0.  1.
<mgrwt>
<rscale>  2 0.49026848E+03</rscale>
<asrwt>0</asrwt>
<pdfrwt beam="1">  1       21 0.94038279E-01 0.49026848E+03</pdfrwt>
<pdfrwt beam="2">  1       21 0.71142367E-01 0.49026848E+03</pdfrwt>
<totfact> 0.14319393E+03</totfact>
</mgrwt>
</event>
<event>
 4    1  0.4949719E-002  0.4362843E+03  0.7818608E-02  0.1031893E+00
         21   -1    0    0  501  502  0.00000000000E+00  0.00000000000E+00  0.74491768982E+03  0.74491768982E+03  0.00000000000E+00 0. -1.
         21   -1    0    0  502  503 -0.00000000000E+00 -0.00000000000E+00 -0.26203498828E+03  0.26203498828E+03  0.00000000000E+00 0. -1.
    9000005    1    1    2  501    0 -0.10293286257E+02 -0.17389077867E+03  0.16207425660E+03  0.46541596374E+03  0.40000000000E+03 0. -1.
   -9000005    1    1    2    0  503  0.10293286257E+02  0.17389077867E+03  0.32080844494E+03  0.54153671436E+03  0.40000000000E+03 0. -1.
<mgrwt>
<rscale>  2 0.43628426E+03</rscale>
<asrwt>0</asrwt>
<pdfrwt beam="1">  1       21 0.11460272E+00 0.43628426E+03</pdfrwt>
<pdfrwt beam="2">  1       21 0.40313075E-01 0.43628426E+03</pdfrwt>
<totfact> 0.30591884E+03</totfact>
</mgrwt>
</event>
<event>
 4    1  0.4949719E-002  0.4783736E+03  0.7818608E-02  0.1019583E+00
         21   -1    0    0  503  502  0.00000000000E+00  0.00000000000E+00  0.83778310117E+03  0.83778310117E+03  0.00000000000E+00 0. -1.
         21   -1    0    0  501  503 -0.00000000000E+00 -0.00000000000E+00 -0.27357898236E+03  0.27357898236E+03  0.00000000000E+00 0. -1.
    9000005    1    1    2  501    0  0.18983707332E+03  0.18111659868E+03  0.30407913905E+03  0.56683812463E+03  0.40000000000E+03 0. -1.
   -9000005    1    1    2    0  502 -0.18983707332E+03 -0.18111659868E+03  0.26012497976E+03  0.54452395891E+03  0.40000000000E+03 0. -1.
<mgrwt>
<rscale>  2 0.47837364E+03</rscale>
<asrwt>0</asrwt>
<pdfrwt beam="1">  1       21 0.12888971E+00 0.47837364E+03</pdfrwt>
<pdfrwt beam="2">  1       21 0.42089075E-01 0.47837364E+03</pdfrwt>
<totfact> 0.20418105E+03</totfact>
</mgrwt>
</event>
<event>
 4    1  0.4949719E-002  0.4291226E+03  0.7818608E-02  0.1034137E+00
         21   -1    0    0  503  502  0.00000000000E+00  0.00000000000E+00  0.59531991753E+03  0.59531991753E+03  0.00000000000E+00 0. -1.
         21   -1    0    0  501  503 -0.00000000000E+00 -0.00000000000E+00 -0.55555323052E+03  0.55555323052E+03  0.00000000000E+00 0. -1.
    9000005    1    1    2  501    0 -0.14525767289E+03  0.55194164436E+02 -0.36321056192E+03  0.56219934153E+03  0.40000000000E+03 0. -1.
   -9000005    1    1    2    0  502  0.14525767289E+03 -0.55194164436E+02  0.40297724893E+03  0.58867380652E+03  0.40000000000E+03 0. -1.
<mgrwt>
<rscale>  2 0.42912258E+03</rscale>
<asrwt>0</asrwt>
<pdfrwt beam="1">  1       21 0.91587679E-01 0.42912258E+03</pdfrwt>
<pdfrwt beam="2">  1       21 0.85469728E-01 0.42912258E+03</pdfrwt>
<totfact> 0.10244250E+03</totfact>
</mgrwt>
</event>
<event>
 4    1  0.4949719E-002  0.6182522E+03  0.7818608E-02  0.9868246E-01
         21   -1    0    0  501  502  0.00000000000E+00  0.00000000000E+00  0.56329587586E+03  0.56329587586E+03  0.00000000000E+00 0. -1.
         21   -1    0    0  502  503 -0.00000000000E+00 -0.00000000000E+00 -0.14088344402E+04  0.14088344402E+04  0.00000000000E+00 0. -1.
    9000005    1    1    2  501    0 -0.26516293373E+03 -0.38977475932E+03  0.28716096112E+03  0.68168699711E+03  0.40000000000E+03 0. -1.
   -9000005    1    1    2    0  503  0.26516293373E+03  0.38977475932E+03 -0.11326995254E+04  0.12904433189E+04  0.40000000000E+03 0. -1.
<mgrwt>
<rscale>  2 0.61825217E+03</rscale>
<asrwt>0</asrwt>
<pdfrwt beam="1">  1       21 0.86660905E-01 0.61825217E+03</pdfrwt>
<pdfrwt beam="2">  1       21 0.21674376E+00 0.61825217E+03</pdfrwt>
<totfact> 0.88031376E+01</totfact>
</mgrwt>
</event>
<event>
 4    1  0.4949719E-002  0.5578320E+03  0.7818608E-02  0.9996972E-01
         21   -1    0    0  501  502  0.00000000000E+00  0.00000000000E+00  0.43605502825E+03  0.43605502825E+03  0.00000000000E+00 0.  1.
         21   -1    0    0  502  503 -0.00000000000E+00 -0.00000000000E+00 -0.75211613294E+03  0.75211613294E+03  0.00000000000E+00 0. -1.
    9000005    1    1    2  501    0  0.37119686145E+03  0.11571248407E+03 -0.29243986042E+03  0.62983931354E+03  0.40000000000E+03 0. -1.
   -9000005    1    1    2    0  503 -0.37119686145E+03 -0.11571248407E+03 -0.23621244275E+02  0.55833184765E+03  0.40000000000E+03 0.  1.
<mgrwt>
<rscale>  2 0.55783195E+03</rscale>
<asrwt>0</asrwt>
<pdfrwt beam="1">  1       21 0.67085390E-01 0.55783195E+03</pdfrwt>
<pdfrwt beam="2">  1       21 0.11571017E+00 0.55783195E+03</pdfrwt>
<totfact> 0.95842213E+02</totfact>
</mgrwt>
</event>
<event>
 4    1  0.4949719E-002  0.4631590E+03  0.7818608E-02  0.1023869E+00
         21   -1    0    0  503  502  0.00000000000E+00  0.00000000000E+00  0.49217498409E+03  0.49217498409E+03  0.00000000000E+00 0. -1.
         21   -1    0    0  501  503 -0.00000000000E+00 -0.00000000000E+00 -0.43813245416E+03  0.43813245416E+03  0.00000000000E+00 0. -1.
    9000005    1    1    2  501    0  0.35678643326E+02 -0.23074513144E+03  0.60567500961E+02  0.46710245498E+03  0.40000000000E+03 0. -1.
   -9000005    1    1    2    0  502 -0.35678643326E+02  0.23074513144E+03 -0.65249710338E+01  0.46320498327E+03  0.40000000000E+03 0. -1.
<mgrwt>
<rscale>  2 0.46315902E+03</rscale>
<asrwt>0</asrwt>
<pdfrwt beam="1">  1       21 0.75719229E-01 0.46315902E+03</pdfrwt>
<pdfrwt beam="2">  1       21 0.67404992E-01 0.46315902E+03</pdfrwt>
<totfact> 0.27106357E+03</totfact>
</mgrwt>
</event>
<event>
 4    1  0.4949719E-002  0.4220249E+03  0.7818608E-02  0.1036409E+00
         21   -1    0    0  503  502  0.00000000000E+00  0.00000000000E+00  0.44236808825E+03  0.44236808825E+03  0.00000000000E+00 0. -1.
         21   -1    0    0  501  503 -0.00000000000E+00 -0.00000000000E+00 -0.78282533399E+03  0.78282533399E+03  0.00000000000E+00 0. -1.
    9000005    1    1    2  501    0 -0.12828672256E+03  0.40590041079E+02 -0.59715489719E+03  0.73123115761E+03  0.40000000000E+03 0. -1.
   -9000005    1    1    2    0  502  0.12828672256E+03 -0.40590041079E+02  0.25669765146E+03  0.49396226463E+03  0.40000000000E+03 0. -1.
<mgrwt>
<rscale>  2 0.42202492E+03</rscale>
<asrwt>0</asrwt>
<pdfrwt beam="1">  1       21 0.68056630E-01 0.42202492E+03</pdfrwt>
<pdfrwt beam="2">  1       21 0.12043467E+00 0.42202492E+03</pdfrwt>
<totfact> 0.88387785E+02</totfact>
</mgrwt>
</event>
<event>
 4    1  0.4949719E-002  0.5567119E+03  0.7818608E-02  0.9999522E-01
         21   -1    0    0  503  502  0.00000000000E+00  0.00000000000E+00  0.52834481624E+03  0.52834481624E+03  0.00000000000E+00 0. -1.
         21   -1    0    0  501  503 -0.00000000000E+00 -0.00000000000E+00 -0.66389386410E+03  0.66389386410E+03  0.00000000000E+00 0. -1.
    9000005    1    1    2  501    0 -0.18243650178E+03  0.34153335754E+03 -0.27117447873E+03  0.61924446659E+03  0.40000000000E+03 0. -1.
   -9000005    1    1    2    0  502  0.18243650178E+03 -0.34153335754E+03  0.13562543087E+03  0.57299421375E+03  0.40000000000E+03 0. -1.
<mgrwt>
<rscale>  2 0.55671187E+03</rscale>
<asrwt>0</asrwt>
<pdfrwt beam="1">  1       21 0.81283818E-01 0.55671187E+03</pdfrwt>
<pdfrwt beam="2">  1       21 0.10213752E+00 0.55671187E+03</pdfrwt>
<totfact> 0.84343463E+02</totfact>
</mgrwt>
</event>
<event>
 4    1  0.4949719E-002  0.5055029E+03  0.7818608E-02  0.1012352E+00
         21   -1    0    0  503  502  0.00000000000E+00  0.00000000000E+00  0.92562316540E+03  0.92562316540E+03  0.00000000000E+00 0.  1.
         21   -1    0    0  501  503 -0.00000000000E+00 -0.00000000000E+00 -0.43120232112E+03  0.43120232112E+03  0.00000000000E+00 0.  1.
    9000005    1    1    2  501    0  0.21454040521E+03  0.22249842822E+03 -0.15971059260E+03  0.53013263380E+03  0.40000000000E+03 0.  1.
   -9000005    1    1    2    0  502 -0.21454040521E+03 -0.22249842822E+03  0.65413143688E+03  0.82669285272E+03  0.40000000000E+03 0.  1.
<mgrwt>
<rscale>  2 0.50550285E+03</rscale>
<asrwt>0</asrwt>
<pdfrwt beam="1">  1       21 0.14240356E+00 0.50550285E+03</pdfrwt>
<pdfrwt beam="2">  1       21 0.66338819E-01 0.50550285E+03</pdfrwt>
<totfact> 0.58355483E+02</totfact>
</mgrwt>
</event>
<event>
 4    1  0.4949719E-002  0.4275234E+03  0.7818608E-02  0.1034645E+00
         21   -1    0    0  501  502  0.00000000000E+00  0.00000000000E+00  0.42142716874E+03  0.42142716874E+03  0.00000000000E+00 0.  1.
         21   -1    0    0  502  503 -0.00000000000E+00 -0.00000000000E+00 -0.57388941397E+03  0.57388941397E+03  0.00000000000E+00 0. -1.
    9000005    1    1    2  501    0 -0.54272964211E+02  0.14082139192E+03  0.16972791194E+03  0.45998237266E+03  0.40000000000E+03 0.  1.
   -9000005    1    1    2    0  503  0.54272964211E+02 -0.14082139192E+03 -0.32219015717E+03  0.53533421005E+03  0.40000000000E+03 0. -1.
<mgrwt>
<rscale>  2 0.42752335E+03</rscale>
<asrwt>0</asrwt>
<pdfrwt beam="1">  1       21 0.64834949E-01 0.42752335E+03</pdfrwt>
<pdfrwt beam="2">  1       21 0.88290679E-01 0.42752335E+03</pdfrwt>
<totfact> 0.20970922E+03</totfact>
</mgrwt>
</event>
<event>
 4    1  0.4949719E-002  0.4307921E+03  0.7818608E-02  0.1033610E+00
         21   -1    0    0  501  502  0.00000000000E+00  0.00000000000E+00  0.25633932831E+03  0.25633932831E+03  0.00000000000E+00 0.  1.
         21   -1    0    0  502  503 -0.00000000000E+00 -0.00000000000E+00 -0.12217259700E+04  0.12217259700E+04  0.00000000000E+00 0.  1.
    9000005    1    1    2  501    0 -0.91086457873E+02  0.13147269820E+03 -0.10972276860E+02  0.43093178583E+03  0.40000000000E+03 0.  1.
   -9000005    1    1    2    0  503  0.91086457873E+02 -0.13147269820E+03 -0.95441436484E+03  0.10471335125E+04  0.40000000000E+03 0.  1.
<mgrwt>
<rscale>  2 0.43079208E+03</rscale>
<asrwt>0</asrwt>
<pdfrwt beam="1">  1       21 0.39436820E-01 0.43079208E+03</pdfrwt>
<pdfrwt beam="2">  1       21 0.18795784E+00 0.43079208E+03</pdfrwt>
<totfact> 0.83956714E+02</totfact>
</mgrwt>
</event>
<event>
 4    1  0.4949719E-002  0.4110036E+03  0.7818608E-02  0.1040035E+00
         21   -1    0    0  501  502  0.00000000000E+00  0.00000000000E+00  0.54225423530E+03  0.54225423530E+03  0.00000000000E+00 0. -1.
         21   -1    0    0  502  503 -0.00000000000E+00 -0.00000000000E+00 -0.33958870438E+03  0.33958870438E+03  0.00000000000E+00 0. -1.
    9000005    1    1    2  501    0  0.89185926673E+02  0.31141526723E+02  0.22809304484E+03  0.47005357281E+03  0.40000000000E+03 0. -1.
   -9000005    1    1    2    0  503 -0.89185926673E+02 -0.31141526723E+02 -0.25427513921E+02  0.41178936687E+03  0.40000000000E+03 0. -1.
<mgrwt>
<rscale>  2 0.41100356E+03</rscale>
<asrwt>0</asrwt>
<pdfrwt beam="1">  1       21 0.83423728E-01 0.41100356E+03</pdfrwt>
<pdfrwt beam="2">  1       21 0.52244416E-01 0.41100356E+03</pdfrwt>
<totfact> 0.38559347E+03</totfact>
</mgrwt>
</event>
<event>
 4    1  0.4949719E-002  0.4292676E+03  0.7818608E-02  0.1034092E+00
         21   -1    0    0  501  502  0.00000000000E+00  0.00000000000E+00  0.31184403431E+03  0.31184403431E+03  0.00000000000E+00 0. -1.
         21   -1    0    0  502  503 -0.00000000000E+00 -0.00000000000E+00 -0.16190843928E+04  0.16190843928E+04  0.00000000000E+00 0. -1.
    9000005    1    1    2  501    0 -0.13425726358E+03 -0.79029246160E+02  0.11575042706E+03  0.44459959057E+03  0.40000000000E+03 0. -1.
   -9000005    1    1    2    0  503  0.13425726358E+03  0.79029246160E+02 -0.14229907855E+04  0.14863288365E+04  0.40000000000E+03 0. -1.
<mgrwt>
<rscale>  2 0.42926756E+03</rscale>
<asrwt>0</asrwt>
<pdfrwt beam="1">  1       21 0.47976006E-01 0.42926756E+03</pdfrwt>
<pdfrwt beam="2">  1       21 0.24908990E+00 0.42926756E+03</pdfrwt>
<totfact> 0.22583575E+02</totfact>
</mgrwt>
</event>
<event>
 4    1  0.4949719E-002  0.4282136E+03  0.7818608E-02  0.1034426E+00
         21   -1    0    0  501  502  0.00000000000E+00  0.00000000000E+00  0.22156611546E+03  0.22156611546E+03  0.00000000000E+00 0. -1.
         21   -1    0    0  502  503 -0.00000000000E+00 -0.00000000000E+00 -0.90810667096E+03  0.90810667096E+03  0.00000000000E+00 0.  1.
    9000005    1    1    2  501    0 -0.56482149305E+01 -0.15275801431E+03 -0.17508621957E+03  0.46262522364E+03  0.40000000000E+03 0. -1.
   -9000005    1    1    2    0  503  0.56482149305E+01  0.15275801431E+03 -0.51145433594E+03  0.66704756278E+03  0.40000000000E+03 0.  1.
<mgrwt>
<rscale>  2 0.42821363E+03</rscale>
<asrwt>0</asrwt>
<pdfrwt beam="1">  1       21 0.34087095E-01 0.42821363E+03</pdfrwt>
<pdfrwt beam="2">  1       21 0.13970872E+00 0.42821363E+03</pdfrwt>
<totfact> 0.25935967E+03</totfact>
</mgrwt>
</event>
<event>
 4    1  0.4949719E-002  0.4315564E+03  0.7818608E-02  0.1033369E+00
         21   -1    0    0  501  502  0.00000000000E+00  0.00000000000E+00  0.39913171819E+03  0.39913171819E+03  0.00000000000E+00 0.  1.
         21   -1    0    0  502  503 -0.00000000000E+00 -0.00000000000E+00 -0.70216540961E+03  0.70216540961E+03  0.00000000000E+00 0.  1.
    9000005    1    1    2  501    0 -0.60666630444E+02 -0.15020150699E+03  0.16741400286E+03  0.46289132753E+03  0.40000000000E+03 0.  1.
   -9000005    1    1    2    0  503  0.60666630444E+02  0.15020150699E+03 -0.47044769428E+03  0.63840580026E+03  0.40000000000E+03 0.  1.
<mgrwt>
<rscale>  2 0.43155641E+03</rscale>
<asrwt>0</asrwt>
<pdfrwt beam="1">  1       21 0.61404880E-01 0.43155641E+03</pdfrwt>
<pdfrwt beam="2">  1       21 0.10802545E+00 0.43155641E+03</pdfrwt>
<totfact> 0.14508826E+03</totfact>
</mgrwt>
</event>
<event>
 4    1  0.4949719E-002  0.4319280E+03  0.7818608E-02  0.1033253E+00
         21   -1    0    0  501  502  0.00000000000E+00  0.00000000000E+00  0.32299081280E+03  0.32299081280E+03  0.00000000000E+00 0.  1.
         21   -1    0    0  502  503 -0.00000000000E+00 -0.00000000000E+00 -0.60996175487E+03  0.60996175487E+03  0.00000000000E+00 0.  1.
    9000005    1    1    2  501    0  0.78599396222E+02  0.14277235065E+03 -0.36050373009E+02  0.43342985429E+03  0.40000000000E+03 0.  1.
   -9000005    1    1    2    0  503 -0.78599396222E+02 -0.14277235065E+03 -0.25092056907E+03  0.49952271338E+03  0.40000000000E+03 0.  1.
<mgrwt>
<rscale>  2 0.43192801E+03</rscale>
<asrwt>0</asrwt>
<pdfrwt beam="1">  1       21 0.49690895E-01 0.43192801E+03</pdfrwt>
<pdfrwt beam="2">  1       21 0.93840269E-01 0.43192801E+03</pdfrwt>
<totfact> 0.32264803E+03</totfact>
</mgrwt>
</event>
<event>
 4    1  0.4949719E-002  0.4295341E+03  0.7818608E-02  0.1034007E+00
         21   -1    0    0  503  502  0.00000000000E+00  0.00000000000E+00  0.17808826044E+04  0.17808826044E+04  0.00000000000E+00 0. -1.
         21   -1    0    0  501  503 -0.00000000000E+00 -0.00000000000E+00 -0.68028492713E+03  0.68028492713E+03  0.00000000000E+00 0. -1.
    9000005    1    1    2  501    0  0.15252281097E+03 -0.35162091838E+02 -0.58271451164E+03  0.72391697220E+03  0.40000000000E+03 0. -1.
   -9000005    1    1    2    0  502 -0.15252281097E+03  0.35162091838E+02  0.16833121889E+04  0.17372505593E+04  0.40000000000E+03 0. -1.
<mgrwt>
<rscale>  2 0.42953414E+03</rscale>
<asrwt>0</asrwt>
<pdfrwt beam="1">  1       21 0.27398194E+00 0.42953414E+03</pdfrwt>
<pdfrwt beam="2">  1       21 0.10465922E+00 0.42953414E+03</pdfrwt>
<totfact> 0.27272356E+01</totfact>
</mgrwt>
</event>
<event>
 4    1  0.4949719E-002  0.5074397E+03  0.7818608E-02  0.1011855E+00
         21   -1    0    0  503  502  0.00000000000E+00  0.00000000000E+00  0.66271975665E+03  0.66271975665E+03  0.00000000000E+00 0. -1.
         21   -1    0    0  501  503 -0.00000000000E+00 -0.00000000000E+00 -0.65270603564E+03  0.65270603564E+03  0.00000000000E+00 0. -1.
    9000005    1    1    2  501    0  0.28561351432E+03  0.12617426378E+03 -0.41341434652E+03  0.65452765129E+03  0.40000000000E+03 0. -1.
   -9000005    1    1    2    0  502 -0.28561351432E+03 -0.12617426378E+03  0.42342806753E+03  0.66089814100E+03  0.40000000000E+03 0. -1.
<mgrwt>
<rscale>  2 0.50743968E+03</rscale>
<asrwt>0</asrwt>
<pdfrwt beam="1">  1       21 0.10195689E+00 0.50743968E+03</pdfrwt>
<pdfrwt beam="2">  1       21 0.10041631E+00 0.50743968E+03</pdfrwt>
<totfact> 0.52128482E+02</totfact>
</mgrwt>
</event>
<event>
 4    1  0.4949719E-002  0.4285446E+03  0.7818608E-02  0.1034321E+00
         21   -1    0    0  503  502  0.00000000000E+00  0.00000000000E+00  0.21788245844E+03  0.21788245844E+03  0.00000000000E+00 0.  1.
         21   -1    0    0  501  503 -0.00000000000E+00 -0.00000000000E+00 -0.12722057106E+04  0.12722057106E+04  0.00000000000E+00 0. -1.
    9000005    1    1    2  501    0 -0.14087050638E+03 -0.61692375196E+02 -0.95996719908E+03  0.10512789697E+04  0.40000000000E+03 0. -1.
   -9000005    1    1    2    0  502  0.14087050638E+03  0.61692375196E+02 -0.94356053090E+02  0.43880919940E+03  0.40000000000E+03 0.  1.
<mgrwt>
<rscale>  2 0.42854457E+03</rscale>
<asrwt>0</asrwt>
<pdfrwt beam="1">  1       21 0.33520378E-01 0.42854457E+03</pdfrwt>
<pdfrwt beam="2">  1       21 0.19572396E+00 0.42854457E+03</pdfrwt>
<totfact> 0.10355039E+03</totfact>
</mgrwt>
</event>
<event>
 4    1  0.4949719E-002  0.7208604E+03  0.7818608E-02  0.9682208E-01
         21   -1    0    0  501  502  0.00000000000E+00  0.00000000000E+00  0.28587143140E+04  0.28587143140E+04  0.00000000000E+00 0.  1.
         21   -1    0    0  502  503 -0.00000000000E+00 -0.00000000000E+00 -0.18860346452E+03  0.18860346452E+03  0.00000000000E+00 0.  1.
    9000005    1    1    2  501    0 -0.18220585983E+03 -0.57134998277E+03  0.10451155175E+04  0.12696086890E+04  0.40000000000E+03 0.  1.
   -9000005    1    1    2    0  503  0.18220585983E+03  0.57134998277E+03  0.16249953320E+04  0.17777090896E+04  0.40000000000E+03 0.  1.
<mgrwt>
<rscale>  2 0.72086044E+03</rscale>
<asrwt>0</asrwt>
<pdfrwt beam="1">  1       21 0.43980217E+00 0.72086044E+03</pdfrwt>
<pdfrwt beam="2">  1       21 0.29015920E-01 0.72086044E+03</pdfrwt>
<totfact> 0.34828385E+01</totfact>
</mgrwt>
</event>
<event>
 4    1  0.4949719E-002  0.5844999E+03  0.7818608E-02  0.9938096E-01
         21   -1    0    0  503  502  0.00000000000E+00  0.00000000000E+00  0.74837420067E+03  0.74837420067E+03  0.00000000000E+00 0.  1.
         21   -1    0    0  501  503 -0.00000000000E+00 -0.00000000000E+00 -0.52846945629E+03  0.52846945629E+03  0.00000000000E+00 0.  1.
    9000005    1    1    2  501    0 -0.42599789852E+03 -0.12880611283E+02 -0.12562982672E+03  0.59784862052E+03  0.40000000000E+03 0.  1.
   -9000005    1    1    2    0  502  0.42599789852E+03  0.12880611283E+02  0.34553457111E+03  0.67899503645E+03  0.40000000000E+03 0.  1.
<mgrwt>
<rscale>  2 0.58449989E+03</rscale>
<asrwt>0</asrwt>
<pdfrwt beam="1">  1       21 0.11513449E+00 0.58449989E+03</pdfrwt>
<pdfrwt beam="2">  1       21 0.81302993E-01 0.58449989E+03</pdfrwt>
<totfact> 0.61969064E+02</totfact>
</mgrwt>
</event>
<event>
 4    1  0.4949719E-002  0.4026521E+03  0.7818608E-02  0.1042865E+00
         21   -1    0    0  503  502  0.00000000000E+00  0.00000000000E+00  0.74378420989E+03  0.74378420989E+03  0.00000000000E+00 0. -1.
         21   -1    0    0  501  503 -0.00000000000E+00 -0.00000000000E+00 -0.22748907253E+03  0.22748907253E+03  0.00000000000E+00 0. -1.
    9000005    1    1    2  501    0  0.25985732057E+02 -0.38124211197E+02  0.15884916587E+03  0.43285305965E+03  0.40000000000E+03 0. -1.
   -9000005    1    1    2    0  502 -0.25985732057E+02  0.38124211197E+02  0.35744597149E+03  0.53842022277E+03  0.40000000000E+03 0. -1.
<mgrwt>
<rscale>  2 0.40265210E+03</rscale>
<asrwt>0</asrwt>
<pdfrwt beam="1">  1       21 0.11442834E+00 0.40265210E+03</pdfrwt>
<pdfrwt beam="2">  1       21 0.34998319E-01 0.40265210E+03</pdfrwt>
<totfact> 0.41497154E+03</totfact>
</mgrwt>
</event>
<event>
 4    1  0.4949719E-002  0.5817639E+03  0.7818608E-02  0.9943979E-01
         21   -1    0    0  501  502  0.00000000000E+00  0.00000000000E+00  0.58003297417E+03  0.58003297417E+03  0.00000000000E+00 0.  1.
         21   -1    0    0  502  503 -0.00000000000E+00 -0.00000000000E+00 -0.59143607397E+03  0.59143607397E+03  0.00000000000E+00 0. -1.
    9000005    1    1    2  501    0 -0.37797653437E+03  0.18863462703E+03 -0.73551223204E+02  0.58639497396E+03  0.40000000000E+03 0.  1.
   -9000005    1    1    2    0  503  0.37797653437E+03 -0.18863462703E+03  0.62148123406E+02  0.58507407419E+03  0.40000000000E+03 0. -1.
<mgrwt>
<rscale>  2 0.58176394E+03</rscale>
<asrwt>0</asrwt>
<pdfrwt beam="1">  1       21 0.89235842E-01 0.58176394E+03</pdfrwt>
<pdfrwt beam="2">  1       21 0.90990166E-01 0.58176394E+03</pdfrwt>
<totfact> 0.88838163E+02</totfact>
</mgrwt>
</event>
<event>
 4    1  0.4949719E-002  0.4945065E+03  0.7818608E-02  0.1015223E+00
         21   -1    0    0  501  502  0.00000000000E+00  0.00000000000E+00  0.29586177577E+04  0.29586177577E+04  0.00000000000E+00 0.  1.
         21   -1    0    0  502  503 -0.00000000000E+00 -0.00000000000E+00 -0.20383757413E+03  0.20383757413E+03  0.00000000000E+00 0.  1.
    9000005    1    1    2  501    0  0.28830876087E+03  0.37613534082E+02  0.25965961527E+04  0.26432647048E+04  0.40000000000E+03 0.  1.
   -9000005    1    1    2    0  503 -0.28830876087E+03 -0.37613534082E+02  0.15818403084E+03  0.51919062699E+03  0.40000000000E+03 0.  1.
<mgrwt>
<rscale>  2 0.49450654E+03</rscale>
<asrwt>0</asrwt>
<pdfrwt beam="1">  1       21 0.45517193E+00 0.49450654E+03</pdfrwt>
<pdfrwt beam="2">  1       21 0.31359629E-01 0.49450654E+03</pdfrwt>
<totfact> 0.26563631E+01</totfact>
</mgrwt>
</event>
<event>
 4    1  0.4949719E-002  0.4658571E+03  0.7818608E-02  0.1023096E+00
         21   -1    0    0  503  502  0.00000000000E+00  0.00000000000E+00  0.11195737008E+04  0.11195737008E+04  0.00000000000E+00 0. -1.
         21   -1    0    0  501  503 -0.00000000000E+00 -0.00000000000E+00 -0.45457958731E+03  0.45457958731E+03  0.00000000000E+00 0. -1.
    9000005    1    1    2  501    0 -0.59963972282E+02  0.23114321739E+03 -0.26359323924E+03  0.53526092767E+03  0.40000000000E+03 0. -1.
   -9000005    1    1    2    0  502  0.59963972282E+02 -0.23114321739E+03  0.92858735275E+03  0.10388923605E+04  0.40000000000E+03 0. -1.
<mgrwt>
<rscale>  2 0.46585713E+03</rscale>
<asrwt>0</asrwt>
<pdfrwt beam="1">  1       21 0.17224211E+00 0.46585713E+03</pdfrwt>
<pdfrwt beam="2">  1       21 0.69935321E-01 0.46585713E+03</pdfrwt>
<totfact> 0.31139465E+02</totfact>
</mgrwt>
</event>
<event>
 4    1  0.4949719E-002  0.6771440E+03  0.7818608E-02  0.9757138E-01
         21   -1    0    0  503  502  0.00000000000E+00  0.00000000000E+00  0.12000125757E+04  0.12000125757E+04  0.00000000000E+00 0.  1.
         21   -1    0    0  501  503 -0.00000000000E+00 -0.00000000000E+00 -0.47003359923E+03  0.47003359923E+03  0.00000000000E+00 0.  1.
    9000005    1    1    2  501    0 -0.36054863066E+03 -0.41052238258E+03  0.38181873328E+01  0.67715472399E+03  0.40000000000E+03 0.  1.
   -9000005    1    1    2    0  502  0.36054863066E+03  0.41052238258E+03  0.72616078916E+03  0.99289145096E+03  0.40000000000E+03 0.  1.
<mgrwt>
<rscale>  2 0.67714396E+03</rscale>
<asrwt>0</asrwt>
<pdfrwt beam="1">  1       21 0.18461732E+00 0.67714396E+03</pdfrwt>
<pdfrwt beam="2">  1       21 0.72312862E-01 0.67714396E+03</pdfrwt>
<totfact> 0.21644709E+02</totfact>
</mgrwt>
</event>
<event>
 4    1  0.4949719E-002  0.5079489E+03  0.7818608E-02  0.1011725E+00
         21   -1    0    0  501  502  0.00000000000E+00  0.00000000000E+00  0.55926357347E+03  0.55926357347E+03  0.00000000000E+00 0.  1.
         21   -1    0    0  502  503 -0.00000000000E+00 -0.00000000000E+00 -0.79140016543E+03  0.79140016543E+03  0.00000000000E+00 0.  1.
    9000005    1    1    2  501    0  0.24509764089E+03 -0.19477991101E+03  0.32005980860E+03  0.60037517302E+03  0.40000000000E+03 0.  1.
   -9000005    1    1    2    0  503 -0.24509764089E+03  0.19477991101E+03 -0.55219640056E+03  0.75028856588E+03  0.40000000000E+03 0.  1.
<mgrwt>
<rscale>  2 0.50794888E+03</rscale>
<asrwt>0</asrwt>
<pdfrwt beam="1">  1       21 0.86040550E-01 0.50794888E+03</pdfrwt>
<pdfrwt beam="2">  1       21 0.12175387E+00 0.50794888E+03</pdfrwt>
<totfact> 0.48410169E+02</totfact>
</mgrwt>
</event>
<event>
 4    1  0.4949719E-002  0.4420340E+03  0.7818608E-02  0.1030125E+00
         21   -1    0    0  501  502  0.00000000000E+00  0.00000000000E+00  0.18190394253E+03  0.18190394253E+03  0.00000000000E+00 0. -1.
         21   -1    0    0  502  503 -0.00000000000E+00 -0.00000000000E+00 -0.10950454434E+04  0.10950454434E+04  0.00000000000E+00 0. -1.
    9000005    1    1    2  501    0  0.10551570706E+03 -0.15575776963E+03 -0.36839619577E+03  0.57542141452E+03  0.40000000000E+03 0. -1.
   -9000005    1    1    2    0  503 -0.10551570706E+03  0.15575776963E+03 -0.54474530507E+03  0.70152797138E+03  0.40000000000E+03 0. -1.
<mgrwt>
<rscale>  2 0.44203399E+03</rscale>
<asrwt>0</asrwt>
<pdfrwt beam="1">  1       21 0.27985221E-01 0.44203399E+03</pdfrwt>
<pdfrwt beam="2">  1       21 0.16846853E+00 0.44203399E+03</pdfrwt>
<totfact> 0.22878041E+03</totfact>
</mgrwt>
</event>
<event>
 4    1  0.4949719E-002  0.4543374E+03  0.7818608E-02  0.1026436E+00
         21   -1    0    0  501  502  0.00000000000E+00  0.00000000000E+00  0.12895007242E+04  0.12895007242E+04  0.00000000000E+00 0. -1.
         21   -1    0    0  502  503 -0.00000000000E+00 -0.00000000000E+00 -0.16695780612E+03  0.16695780612E+03  0.00000000000E+00 0. -1.
    9000005    1    1    2  501    0  0.20852103928E+03  0.54235175869E+02  0.41345960632E+03  0.61430556255E+03  0.40000000000E+03 0. -1.
   -9000005    1    1    2    0  503 -0.20852103928E+03 -0.54235175869E+02  0.70908331180E+03  0.84215296781E+03  0.40000000000E+03 0. -1.
<mgrwt>
<rscale>  2 0.45433741E+03</rscale>
<asrwt>0</asrwt>
<pdfrwt beam="1">  1       21 0.19838472E+00 0.45433741E+03</pdfrwt>
<pdfrwt beam="2">  1       21 0.25685817E-01 0.45433741E+03</pdfrwt>
<totfact> 0.16643824E+03</totfact>
</mgrwt>
</event>
<event>
 4    1  0.4949719E-002  0.4268255E+03  0.7818608E-02  0.1034867E+00
         21   -1    0    0  503  502  0.00000000000E+00  0.00000000000E+00  0.14925515453E+04  0.14925515453E+04  0.00000000000E+00 0. -1.
         21   -1    0    0  501  503 -0.00000000000E+00 -0.00000000000E+00 -0.15075464104E+03  0.15075464104E+03  0.00000000000E+00 0. -1.
    9000005    1    1    2  501    0  0.79825297004E+02 -0.12572958426E+03  0.31242435315E+03  0.52895083216E+03  0.40000000000E+03 0.  1.
   -9000005    1    1    2    0  502 -0.79825297004E+02  0.12572958426E+03  0.10293725512E+04  0.11143553542E+04  0.40000000000E+03 0.  1.
<mgrwt>
<rscale>  2 0.42682550E+03</rscale>
<asrwt>0</asrwt>
<pdfrwt beam="1">  1       21 0.22962330E+00 0.42682550E+03</pdfrwt>
<pdfrwt beam="2">  1       21 0.23193023E-01 0.42682550E+03</pdfrwt>
<totfact> 0.12902291E+03</totfact>
</mgrwt>
</event>
<event>
 4    1  0.4949719E-002  0.6109988E+03  0.7818608E-02  0.9882846E-01
         21   -1    0    0  503  502  0.00000000000E+00  0.00000000000E+00  0.68220992685E+03  0.68220992685E+03  0.00000000000E+00 0.  1.
         21   -1    0    0  501  503 -0.00000000000E+00 -0.00000000000E+00 -0.66667642863E+03  0.66667642863E+03  0.00000000000E+00 0.  1.
    9000005    1    1    2  501    0 -0.45838441284E+03  0.56597105599E+02 -0.27772332764E+03  0.67115553266E+03  0.40000000000E+03 0.  1.
   -9000005    1    1    2    0  502  0.45838441284E+03 -0.56597105599E+02  0.29325682585E+03  0.67773082283E+03  0.40000000000E+03 0.  1.
<mgrwt>
<rscale>  2 0.61099877E+03</rscale>
<asrwt>0</asrwt>
<pdfrwt beam="1">  1       21 0.10495537E+00 0.61099877E+03</pdfrwt>
<pdfrwt beam="2">  1       21 0.10256560E+00 0.61099877E+03</pdfrwt>
<totfact> 0.44384812E+02</totfact>
</mgrwt>
</event>
<event>
 4    1  0.4949719E-002  0.4892966E+03  0.7818608E-02  0.1016611E+00
         21   -1    0    0  501  502  0.00000000000E+00  0.00000000000E+00  0.52994053307E+03  0.52994053307E+03  0.00000000000E+00 0.  1.
         21   -1    0    0  502  503 -0.00000000000E+00 -0.00000000000E+00 -0.51134574868E+03  0.51134574868E+03  0.00000000000E+00 0.  1.
    9000005    1    1    2  501    0 -0.25018095526E+03 -0.12969429536E+03  0.18701005116E+03  0.52381664718E+03  0.40000000000E+03 0.  1.
   -9000005    1    1    2    0  503  0.25018095526E+03  0.12969429536E+03 -0.16841526678E+03  0.51746963458E+03  0.40000000000E+03 0.  1.
<mgrwt>
<rscale>  2 0.48929656E+03</rscale>
<asrwt>0</asrwt>
<pdfrwt beam="1">  1       21 0.81529313E-01 0.48929656E+03</pdfrwt>
<pdfrwt beam="2">  1       21 0.78668576E-01 0.48929656E+03</pdfrwt>
<totfact> 0.15943525E+03</totfact>
</mgrwt>
</event>
<event>
 4    1  0.4949719E-002  0.5176482E+03  0.7818608E-02  0.1009272E+00
         21   -1    0    0  503  502  0.00000000000E+00  0.00000000000E+00  0.96950983508E+03  0.96950983508E+03  0.00000000000E+00 0. -1.
         21   -1    0    0  501  503 -0.00000000000E+00 -0.00000000000E+00 -0.38159806105E+03  0.38159806105E+03  0.00000000000E+00 0.  1.
    9000005    1    1    2  501    0 -0.34373251736E+02 -0.32676922116E+03 -0.60766201472E+02  0.52120262430E+03  0.40000000000E+03 0.  1.
   -9000005    1    1    2    0  502  0.34373251736E+02  0.32676922116E+03  0.64867797550E+03  0.82990527184E+03  0.40000000000E+03 0. -1.
<mgrwt>
<rscale>  2 0.51764819E+03</rscale>
<asrwt>0</asrwt>
<pdfrwt beam="1">  1       21 0.14915536E+00 0.51764819E+03</pdfrwt>
<pdfrwt beam="2">  1       21 0.58707394E-01 0.51764819E+03</pdfrwt>
<totfact> 0.67157775E+02</totfact>
</mgrwt>
</event>
<event>
 4    1  0.4949719E-002  0.6117379E+03  0.7818608E-02  0.9881348E-01
         21   -1    0    0  503  502  0.00000000000E+00  0.00000000000E+00  0.16506225676E+04  0.16506225676E+04  0.00000000000E+00 0.  1.
         21   -1    0    0  501  503 -0.00000000000E+00 -0.00000000000E+00 -0.42938144453E+03  0.42938144453E+03  0.00000000000E+00 0. -1.
    9000005    1    1    2  501    0  0.19140936477E+03  0.42140927015E+03 -0.10387887797E+03  0.62049507587E+03  0.40000000000E+03 0. -1.
   -9000005    1    1    2    0  502 -0.19140936477E+03 -0.42140927015E+03  0.13251200011E+04  0.14595089363E+04  0.40000000000E+03 0.  1.
<mgrwt>
<rscale>  2 0.61173795E+03</rscale>
<asrwt>0</asrwt>
<pdfrwt beam="1">  1       21 0.25394193E+00 0.61173795E+03</pdfrwt>
<pdfrwt beam="2">  1       21 0.66058685E-01 0.61173795E+03</pdfrwt>
<totfact> 0.95809726E+01</totfact>
</mgrwt>
</event>
<event>
 4    1  0.4949719E-002  0.4052513E+03  0.7818608E-02  0.1041976E+00
         21   -1    0    0  501  502  0.00000000000E+00  0.00000000000E+00  0.17042395034E+04  0.17042395034E+04  0.00000000000E+00 0.  1.
         21   -1    0    0  502  503 -0.00000000000E+00 -0.00000000000E+00 -0.15577897039E+03  0.15577897039E+03  0.00000000000E+00 0.  1.
    9000005    1    1    2  501    0 -0.38926870905E+02 -0.52089607397E+02  0.13485821071E+04  0.14081556477E+04  0.40000000000E+03 0.  1.
   -9000005    1    1    2    0  503  0.38926870905E+02  0.52089607397E+02  0.19987842589E+03  0.45186282610E+03  0.40000000000E+03 0.  1.
<mgrwt>
<rscale>  2 0.40525132E+03</rscale>
<asrwt>0</asrwt>
<pdfrwt beam="1">  1       21 0.26219068E+00 0.40525132E+03</pdfrwt>
<pdfrwt beam="2">  1       21 0.23965997E-01 0.40525132E+03</pdfrwt>
<totfact> 0.77235302E+02</totfact>
</mgrwt>
</event>
<event>
 4    1  0.4949719E-002  0.4197455E+03  0.7818608E-02  0.1037149E+00
         21   -1    0    0  501  502  0.00000000000E+00  0.00000000000E+00  0.19293809361E+04  0.19293809361E+04  0.00000000000E+00 0.  1.
         21   -1    0    0  502  503 -0.00000000000E+00 -0.00000000000E+00 -0.93151932762E+02  0.93151932762E+02  0.00000000000E+00 0.  1.
    9000005    1    1    2  501    0  0.90189964394E+02  0.89733413894E+02  0.10600255352E+04  0.11401054559E+04  0.40000000000E+03 0.  1.
   -9000005    1    1    2    0  503 -0.90189964394E+02 -0.89733413894E+02  0.77620346820E+03  0.88242741304E+03  0.40000000000E+03 0.  1.
<mgrwt>
<rscale>  2 0.41974554E+03</rscale>
<asrwt>0</asrwt>
<pdfrwt beam="1">  1       21 0.29682781E+00 0.41974554E+03</pdfrwt>
<pdfrwt beam="2">  1       21 0.14331068E-01 0.41974554E+03</pdfrwt>
<totfact> 0.12516541E+03</totfact>
</mgrwt>
</event>
<event>
 4    1  0.4949719E-002  0.5009485E+03  0.7818608E-02  0.1013532E+00
         21   -1    0    0  503  502  0.00000000000E+00  0.00000000000E+00  0.45679431882E+03  0.45679431882E+03  0.00000000000E+00 0.  1.
         21   -1    0    0  501  503 -0.00000000000E+00 -0.00000000000E+00 -0.59953488137E+03  0.59953488137E+03  0.00000000000E+00 0. -1.
    9000005    1    1    2  501    0 -0.56348376589E+02 -0.29626720698E+03  0.81407109789E+02  0.50751996512E+03  0.40000000000E+03 0.  1.
   -9000005    1    1    2    0  502  0.56348376589E+02  0.29626720698E+03 -0.22414767233E+03  0.54880923506E+03  0.40000000000E+03 0. -1.
<mgrwt>
<rscale>  2 0.50094850E+03</rscale>
<asrwt>0</asrwt>
<pdfrwt beam="1">  1       21 0.70276049E-01 0.50094850E+03</pdfrwt>
<pdfrwt beam="2">  1       21 0.92236135E-01 0.50094850E+03</pdfrwt>
<totfact> 0.15361357E+03</totfact>
</mgrwt>
</event>
<event>
 4    1  0.4949719E-002  0.4091663E+03  0.7818608E-02  0.1040651E+00
         21   -1    0    0  501  502  0.00000000000E+00  0.00000000000E+00  0.11387265724E+04  0.11387265724E+04  0.00000000000E+00 0.  1.
         21   -1    0    0  502  503 -0.00000000000E+00 -0.00000000000E+00 -0.23726583601E+03  0.23726583601E+03  0.00000000000E+00 0.  1.
    9000005    1    1    2  501    0 -0.73966413834E+02  0.44113460345E+02  0.87503616625E+03  0.96597376776E+03  0.40000000000E+03 0.  1.
   -9000005    1    1    2    0  503  0.73966413834E+02 -0.44113460345E+02  0.26424570128E+02  0.41001864063E+03  0.40000000000E+03 0.  1.
<mgrwt>
<rscale>  2 0.40916626E+03</rscale>
<asrwt>0</asrwt>
<pdfrwt beam="1">  1       21 0.17518870E+00 0.40916626E+03</pdfrwt>
<pdfrwt beam="2">  1       21 0.36502437E-01 0.40916626E+03</pdfrwt>
<totfact> 0.12202348E+03</totfact>
</mgrwt>
</event>
<event>
 4    1  0.4949719E-002  0.4803332E+03  0.7818608E-02  0.1019044E+00
         21   -1    0    0  503  502  0.00000000000E+00  0.00000000000E+00  0.71723215259E+03  0.71723215259E+03  0.00000000000E+00 0.  1.
         21   -1    0    0  501  503 -0.00000000000E+00 -0.00000000000E+00 -0.34030254272E+03  0.34030254272E+03  0.00000000000E+00 0.  1.
    9000005    1    1    2  501    0  0.25888266241E+03  0.60825390991E+02  0.31215628300E+03  0.57285382612E+03  0.40000000000E+03 0.  1.
   -9000005    1    1    2    0  502 -0.25888266241E+03 -0.60825390991E+02  0.64773326871E+02  0.48468086919E+03  0.40000000000E+03 0.  1.
<mgrwt>
<rscale>  2 0.48033318E+03</rscale>
<asrwt>0</asrwt>
<pdfrwt beam="1">  1       21 0.11034341E+00 0.48033318E+03</pdfrwt>
<pdfrwt beam="2">  1       21 0.52354237E-01 0.48033318E+03</pdfrwt>
<totfact> 0.19097251E+03</totfact>
</mgrwt>
</event>
<event>
 4    1  0.4949719E-002  0.6512620E+03  0.7818608E-02  0.9804414E-01
         21   -1    0    0  503  502  0.00000000000E+00  0.00000000000E+00  0.37234126717E+04  0.37234126717E+04  0.00000000000E+00 0.  1.
         21   -1    0    0  501  503 -0.00000000000E+00 -0.00000000000E+00 -0.34328020993E+03  0.34328020993E+03  0.00000000000E+00 0.  1.
    9000005    1    1    2  501    0  0.51390069746E+03 -0.69450562243E+01  0.27980536565E+02  0.65186277013E+03  0.40000000000E+03 0.  1.
   -9000005    1    1    2    0  502 -0.51390069746E+03  0.69450562243E+01  0.33521519252E+04  0.34148301115E+04  0.40000000000E+03 0.  1.
<mgrwt>
<rscale>  2 0.65126198E+03</rscale>
<asrwt>0</asrwt>
<pdfrwt beam="1">  1       21 0.57283269E+00 0.65126198E+03</pdfrwt>
<pdfrwt beam="2">  1       21 0.52812343E-01 0.65126198E+03</pdfrwt>
<totfact> 0.11442393E+00</totfact>
</mgrwt>
</event>
<event>
 4    1  0.4949719E-002  0.4532197E+03  0.7818608E-02  0.1026766E+00
         21   -1    0    0  503  502  0.00000000000E+00  0.00000000000E+00  0.11501282211E+04  0.11501282211E+04  0.00000000000E+00 0.  1.
         21   -1    0    0  501  503 -0.00000000000E+00 -0.00000000000E+00 -0.21905219885E+03  0.21905219885E+03  0.00000000000E+00 0.  1.
    9000005    1    1    2  501    0  0.15431032756E+03  0.14695718525E+03  0.17133278343E+03  0.48452349186E+03  0.40000000000E+03 0. -1.
   -9000005    1    1    2    0  502 -0.15431032756E+03 -0.14695718525E+03  0.75974323884E+03  0.88465692811E+03  0.40000000000E+03 0. -1.
<mgrwt>
<rscale>  2 0.45321969E+03</rscale>
<asrwt>0</asrwt>
<pdfrwt beam="1">  1       21 0.17694280E+00 0.45321969E+03</pdfrwt>
<pdfrwt beam="2">  1       21 0.33700339E-01 0.45321969E+03</pdfrwt>
<totfact> 0.13661164E+03</totfact>
</mgrwt>
</event>
<event>
 4    1  0.4949719E-002  0.4648103E+03  0.7818608E-02  0.1023395E+00
         21   -1    0    0  503  502  0.00000000000E+00  0.00000000000E+00  0.37971154104E+03  0.37971154104E+03  0.00000000000E+00 0. -1.
         21   -1    0    0  501  503 -0.00000000000E+00 -0.00000000000E+00 -0.58919679644E+03  0.58919679644E+03  0.00000000000E+00 0. -1.
    9000005    1    1    2  501    0  0.14165115815E+03 -0.18969338734E+03 -0.15006253585E+02  0.46505249107E+03  0.40000000000E+03 0. -1.
   -9000005    1    1    2    0  502 -0.14165115815E+03  0.18969338734E+03 -0.19447900182E+03  0.50385584641E+03  0.40000000000E+03 0. -1.
<mgrwt>
<rscale>  2 0.46481032E+03</rscale>
<asrwt>0</asrwt>
<pdfrwt beam="1">  1       21 0.58417160E-01 0.46481032E+03</pdfrwt>
<pdfrwt beam="2">  1       21 0.90645660E-01 0.46481032E+03</pdfrwt>
<totfact> 0.24444407E+03</totfact>
</mgrwt>
</event>
<event>
 4    1  0.4949719E-002  0.4206447E+03  0.7818608E-02  0.1036857E+00
         21   -1    0    0  503  502  0.00000000000E+00  0.00000000000E+00  0.15270724698E+03  0.15270724698E+03  0.00000000000E+00 0. -1.
         21   -1    0    0  501  503 -0.00000000000E+00 -0.00000000000E+00 -0.13177113939E+04  0.13177113939E+04  0.00000000000E+00 0. -1.
    9000005    1    1    2  501    0 -0.39885146584E+02  0.12389984056E+03 -0.83789802408E+03  0.93755804843E+03  0.40000000000E+03 0.  1.
   -9000005    1    1    2    0  502  0.39885146584E+02 -0.12389984056E+03 -0.32710612287E+03  0.53286059249E+03  0.40000000000E+03 0.  1.
<mgrwt>
<rscale>  2 0.42064474E+03</rscale>
<asrwt>0</asrwt>
<pdfrwt beam="1">  1       21 0.23493423E-01 0.42064474E+03</pdfrwt>
<pdfrwt beam="2">  1       21 0.20272483E+00 0.42064474E+03</pdfrwt>
<totfact> 0.18797393E+03</totfact>
</mgrwt>
</event>
<event>
 4    1  0.4949719E-002  0.5061877E+03  0.7818608E-02  0.1012176E+00
         21   -1    0    0  503  502  0.00000000000E+00  0.00000000000E+00  0.88392317548E+03  0.88392317548E+03  0.00000000000E+00 0. -1.
         21   -1    0    0  501  503 -0.00000000000E+00 -0.00000000000E+00 -0.31330390985E+03  0.31330390985E+03  0.00000000000E+00 0.  1.
    9000005    1    1    2  501    0  0.69143303969E+02  0.30239907675E+03  0.12160815769E+03  0.52059057053E+03  0.40000000000E+03 0. -1.
   -9000005    1    1    2    0  502 -0.69143303969E+02 -0.30239907675E+03  0.44901110795E+03  0.67663651480E+03  0.40000000000E+03 0.  1.
<mgrwt>
<rscale>  2 0.50618771E+03</rscale>
<asrwt>0</asrwt>
<pdfrwt beam="1">  1       21 0.13598818E+00 0.50618771E+03</pdfrwt>
<pdfrwt beam="2">  1       21 0.48200602E-01 0.50618771E+03</pdfrwt>
<totfact> 0.13219179E+03</totfact>
</mgrwt>
</event>
<event>
 4    1  0.4949719E-002  0.4106674E+03  0.7818608E-02  0.1040147E+00
         21   -1    0    0  501  502  0.00000000000E+00  0.00000000000E+00  0.15857002329E+04  0.15857002329E+04  0.00000000000E+00 0. -1.
         21   -1    0    0  502  503 -0.00000000000E+00 -0.00000000000E+00 -0.20019994290E+03  0.20019994290E+03  0.00000000000E+00 0. -1.
    9000005    1    1    2  501    0 -0.78194404788E+02  0.50332476190E+02  0.13041140694E+04  0.13672458554E+04  0.40000000000E+03 0. -1.
   -9000005    1    1    2    0  503  0.78194404788E+02 -0.50332476190E+02  0.81386220623E+02  0.41865432042E+03  0.40000000000E+03 0. -1.
<mgrwt>
<rscale>  2 0.41066741E+03</rscale>
<asrwt>0</asrwt>
<pdfrwt beam="1">  1       21 0.24395387E+00 0.41066741E+03</pdfrwt>
<pdfrwt beam="2">  1       21 0.30799992E-01 0.41066741E+03</pdfrwt>
<totfact> 0.60823173E+02</totfact>
</mgrwt>
</event>
<event>
 4    1  0.4949719E-002  0.4646456E+03  0.7818608E-02  0.1023442E+00
         21   -1    0    0  501  502  0.00000000000E+00  0.00000000000E+00  0.10247421186E+03  0.10247421186E+03  0.00000000000E+00 0. -1.
         21   -1    0    0  502  503 -0.00000000000E+00 -0.00000000000E+00 -0.22929409931E+04  0.22929409931E+04  0.00000000000E+00 0.  1.
    9000005    1    1    2  501    0 -0.15841363811E+03  0.17550101811E+03 -0.75400646654E+03  0.88567558377E+03  0.40000000000E+03 0.  1.
   -9000005    1    1    2    0  503  0.15841363811E+03 -0.17550101811E+03 -0.14364603147E+04  0.15097396212E+04  0.40000000000E+03 0. -1.
<mgrwt>
<rscale>  2 0.46464555E+03</rscale>
<asrwt>0</asrwt>
<pdfrwt beam="1">  1       21 0.15765263E-01 0.46464555E+03</pdfrwt>
<pdfrwt beam="2">  1       21 0.35276016E+00 0.46464555E+03</pdfrwt>
<totfact> 0.46860667E+02</totfact>
</mgrwt>
</event>
<event>
 4    1  0.4949719E-002  0.4191710E+03  0.7818608E-02  0.1037336E+00
         21   -1    0    0  503  502  0.00000000000E+00  0.00000000000E+00  0.11853712501E+03  0.11853712501E+03  0.00000000000E+00 0.  1.
         21   -1    0    0  501  503 -0.00000000000E+00 -0.00000000000E+00 -0.15469149656E+04  0.15469149656E+04  0.00000000000E+00 0. -1.
    9000005    1    1    2  501    0  0.11075622742E+03  0.58629378909E+02 -0.88441541879E+03  0.97872109356E+03  0.40000000000E+03 0. -1.
   -9000005    1    1    2    0  502 -0.11075622742E+03 -0.58629378909E+02 -0.54396242179E+03  0.68673099705E+03  0.40000000000E+03 0.  1.
<mgrwt>
<rscale>  2 0.41917102E+03</rscale>
<asrwt>0</asrwt>
<pdfrwt beam="1">  1       21 0.18236482E-01 0.41917102E+03</pdfrwt>
<pdfrwt beam="2">  1       21 0.23798690E+00 0.41917102E+03</pdfrwt>
<totfact> 0.18159962E+03</totfact>
</mgrwt>
</event>
<event>
 4    1  0.4949719E-002  0.4180043E+03  0.7818608E-02  0.1037718E+00
         21   -1    0    0  501  502  0.00000000000E+00  0.00000000000E+00  0.14112217944E+04  0.14112217944E+04  0.00000000000E+00 0.  1.
         21   -1    0    0  502  503 -0.00000000000E+00 -0.00000000000E+00 -0.31291845989E+03  0.31291845989E+03  0.00000000000E+00 0.  1.
    9000005    1    1    2  501    0  0.60902462628E+02 -0.10496879318E+03  0.12193125521E+04  0.12889727139E+04  0.40000000000E+03 0.  1.
   -9000005    1    1    2    0  503 -0.60902462628E+02  0.10496879318E+03 -0.12100921755E+03  0.43516754041E+03  0.40000000000E+03 0.  1.
<mgrwt>
<rscale>  2 0.41800426E+03</rscale>
<asrwt>0</asrwt>
<pdfrwt beam="1">  1       21 0.21711104E+00 0.41800426E+03</pdfrwt>
<pdfrwt beam="2">  1       21 0.48141302E-01 0.41800426E+03</pdfrwt>
<totfact> 0.35764923E+02</totfact>
</mgrwt>
</event>
<event>
 4    1  0.4949719E-002  0.4401984E+03  0.7818608E-02  0.1030686E+00
         21   -1    0    0  503  502  0.00000000000E+00  0.00000000000E+00  0.51966017681E+03  0.51966017681E+03  0.00000000000E+00 0. -1.
         21   -1    0    0  501  503 -0.00000000000E+00 -0.00000000000E+00 -0.37877907036E+03  0.37877907036E+03  0.00000000000E+00 0. -1.
    9000005    1    1    2  501    0 -0.15546906820E+03  0.97999886299E+02  0.12646707997E+03  0.45800494670E+03  0.40000000000E+03 0.  1.
   -9000005    1    1    2    0  502  0.15546906820E+03 -0.97999886299E+02  0.14414026477E+02  0.44043430048E+03  0.40000000000E+03 0.  1.
<mgrwt>
<rscale>  2 0.44019837E+03</rscale>
<asrwt>0</asrwt>
<pdfrwt beam="1">  1       21 0.79947720E-01 0.44019837E+03</pdfrwt>
<pdfrwt beam="2">  1       21 0.58273703E-01 0.44019837E+03</pdfrwt>
<totfact> 0.33265231E+03</totfact>
</mgrwt>
</event>
<event>
 4    1  0.4949719E-002  0.5173793E+03  0.7818608E-02  0.1009340E+00
         21   -1    0    0  503  502  0.00000000000E+00  0.00000000000E+00  0.63855499456E+03  0.63855499456E+03  0.00000000000E+00 0.  1.
         21   -1    0    0  501  503 -0.00000000000E+00 -0.00000000000E+00 -0.45443501347E+03  0.45443501347E+03  0.00000000000E+00 0. -1.
    9000005    1    1    2  501    0  0.17647555784E+03 -0.27665456969E+03 -0.60115958756E+02  0.52086015584E+03  0.40000000000E+03 0. -1.
   -9000005    1    1    2    0  502 -0.17647555784E+03  0.27665456969E+03  0.24423593985E+03  0.57212985219E+03  0.40000000000E+03 0.  1.
<mgrwt>
<rscale>  2 0.51737933E+03</rscale>
<asrwt>0</asrwt>
<pdfrwt beam="1">  1       21 0.98239230E-01 0.51737933E+03</pdfrwt>
<pdfrwt beam="2">  1       21 0.69913079E-01 0.51737933E+03</pdfrwt>
<totfact> 0.13280024E+03</totfact>
</mgrwt>
</event>
<event>
 4    1  0.4949719E-002  0.4628865E+03  0.7818608E-02  0.1023947E+00
         21   -1    0    0  501  502  0.00000000000E+00  0.00000000000E+00  0.26143810630E+03  0.26143810630E+03  0.00000000000E+00 0.  1.
         21   -1    0    0  502  503 -0.00000000000E+00 -0.00000000000E+00 -0.82760067898E+03  0.82760067898E+03  0.00000000000E+00 0.  1.
    9000005    1    1    2  501    0 -0.13047867292E+03 -0.19297463507E+03 -0.22940500737E+03  0.51661450935E+03  0.40000000000E+03 0.  1.
   -9000005    1    1    2    0  503  0.13047867292E+03  0.19297463507E+03 -0.33675756531E+03  0.57242427592E+03  0.40000000000E+03 0.  1.
<mgrwt>
<rscale>  2 0.46288648E+03</rscale>
<asrwt>0</asrwt>
<pdfrwt beam="1">  1       21 0.40221247E-01 0.46288648E+03</pdfrwt>
<pdfrwt beam="2">  1       21 0.12732318E+00 0.46288648E+03</pdfrwt>
<totfact> 0.23284071E+03</totfact>
</mgrwt>
</event>
<event>
 4    1  0.4949719E-002  0.4150212E+03  0.7818608E-02  0.1038699E+00
         21   -1    0    0  503  502  0.00000000000E+00  0.00000000000E+00  0.76193728231E+03  0.76193728231E+03  0.00000000000E+00 0.  1.
         21   -1    0    0  501  503 -0.00000000000E+00 -0.00000000000E+00 -0.35000724087E+03  0.35000724087E+03  0.00000000000E+00 0. -1.
    9000005    1    1    2  501    0 -0.56285735264E+02  0.95260434150E+02 -0.12488801882E+03  0.43340472027E+03  0.40000000000E+03 0. -1.
   -9000005    1    1    2    0  502  0.56285735264E+02 -0.95260434150E+02  0.53681806026E+03  0.67853980291E+03  0.40000000000E+03 0.  1.
<mgrwt>
<rscale>  2 0.41502125E+03</rscale>
<asrwt>0</asrwt>
<pdfrwt beam="1">  1       21 0.11722112E+00 0.41502125E+03</pdfrwt>
<pdfrwt beam="2">  1       21 0.53847268E-01 0.41502125E+03</pdfrwt>
<totfact> 0.15860437E+03</totfact>
</mgrwt>
</event>
<event>
 4    1  0.4949719E-002  0.4027515E+03  0.7818608E-02  0.1042831E+00
         21   -1    0    0  501  502  0.00000000000E+00  0.00000000000E+00  0.17643899509E+04  0.17643899509E+04  0.00000000000E+00 0. -1.
         21   -1    0    0  502  503 -0.00000000000E+00 -0.00000000000E+00 -0.25679360653E+03  0.25679360653E+03  0.00000000000E+00 0. -1.
    9000005    1    1    2  501    0 -0.66679000563E+01 -0.46522166985E+02  0.15635273358E+04  0.16145669706E+04  0.40000000000E+03 0. -1.
   -9000005    1    1    2    0  503  0.66679000563E+01  0.46522166985E+02 -0.55930991355E+02  0.40661658686E+03  0.40000000000E+03 0. -1.
<mgrwt>
<rscale>  2 0.40275150E+03</rscale>
<asrwt>0</asrwt>
<pdfrwt beam="1">  1       21 0.27144460E+00 0.40275150E+03</pdfrwt>
<pdfrwt beam="2">  1       21 0.39506710E-01 0.40275150E+03</pdfrwt>
<totfact> 0.25168159E+02</totfact>
</mgrwt>
</event>
<event>
 4    1  0.4949719E-002  0.4298514E+03  0.7818608E-02  0.1033907E+00
         21   -1    0    0  503  502  0.00000000000E+00  0.00000000000E+00  0.24789554696E+03  0.24789554696E+03  0.00000000000E+00 0. -1.
         21   -1    0    0  501  503 -0.00000000000E+00 -0.00000000000E+00 -0.74684994724E+03  0.74684994724E+03  0.00000000000E+00 0. -1.
    9000005    1    1    2  501    0 -0.14454262390E+03 -0.62287148254E+02 -0.27166732924E+03  0.50850309413E+03  0.40000000000E+03 0. -1.
   -9000005    1    1    2    0  502  0.14454262390E+03  0.62287148254E+02 -0.22728707104E+03  0.48624240007E+03  0.40000000000E+03 0. -1.
<mgrwt>
<rscale>  2 0.42985144E+03</rscale>
<asrwt>0</asrwt>
<pdfrwt beam="1">  1       21 0.38137777E-01 0.42985144E+03</pdfrwt>
<pdfrwt beam="2">  1       21 0.11489999E+00 0.42985144E+03</pdfrwt>
<totfact> 0.34141331E+03</totfact>
</mgrwt>
</event>
<event>
 4    1  0.4949719E-002  0.5022602E+03  0.7818608E-02  0.1013191E+00
         21   -1    0    0  501  502  0.00000000000E+00  0.00000000000E+00  0.14055591845E+03  0.14055591845E+03  0.00000000000E+00 0.  1.
         21   -1    0    0  502  503 -0.00000000000E+00 -0.00000000000E+00 -0.18392743479E+04  0.18392743479E+04  0.00000000000E+00 0. -1.
    9000005    1    1    2  501    0  0.62304169666E+02  0.29729361676E+03 -0.69537212349E+03  0.85779233748E+03  0.40000000000E+03 0.  1.
   -9000005    1    1    2    0  503 -0.62304169666E+02 -0.29729361676E+03 -0.10033463060E+04  0.11220379289E+04  0.40000000000E+03 0. -1.
<mgrwt>
<rscale>  2 0.50226020E+03</rscale>
<asrwt>0</asrwt>
<pdfrwt beam="1">  1       21 0.21623987E-01 0.50226020E+03</pdfrwt>
<pdfrwt beam="2">  1       21 0.28296529E+00 0.50226020E+03</pdfrwt>
<totfact> 0.66984704E+02</totfact>
</mgrwt>
</event>
<event>
 4    1  0.4949719E-002  0.4841786E+03  0.7818608E-02  0.1017993E+00
         21   -1    0    0  501  502  0.00000000000E+00  0.00000000000E+00  0.24445766435E+04  0.24445766435E+04  0.00000000000E+00 0.  1.
         21   -1    0    0  502  503 -0.00000000000E+00 -0.00000000000E+00 -0.12368875644E+03  0.12368875644E+03  0.00000000000E+00 0.  1.
    9000005    1    1    2  501    0  0.18462150153E+03 -0.20085781427E+03  0.55175090390E+03  0.73406949285E+03  0.40000000000E+03 0.  1.
   -9000005    1    1    2    0  503 -0.18462150153E+03  0.20085781427E+03  0.17691369831E+04  0.18341959071E+04  0.40000000000E+03 0.  1.
<mgrwt>
<rscale>  2 0.48417865E+03</rscale>
<asrwt>0</asrwt>
<pdfrwt beam="1">  1       21 0.37608868E+00 0.48417865E+03</pdfrwt>
<pdfrwt beam="2">  1       21 0.19029041E-01 0.48417865E+03</pdfrwt>
<totfact> 0.23278987E+02</totfact>
</mgrwt>
</event>
<event>
 4    1  0.4949719E-002  0.5233805E+03  0.7818608E-02  0.1007850E+00
         21   -1    0    0  501  502  0.00000000000E+00  0.00000000000E+00  0.31383734819E+03  0.31383734819E+03  0.00000000000E+00 0. -1.
         21   -1    0    0  502  503 -0.00000000000E+00 -0.00000000000E+00 -0.88270202011E+03  0.88270202011E+03  0.00000000000E+00 0.  1.
    9000005    1    1    2  501    0 -0.33672097228E+03 -0.23368581543E+02 -0.22116765402E+03  0.56819207577E+03  0.40000000000E+03 0.  1.
   -9000005    1    1    2    0  503  0.33672097228E+03  0.23368581543E+02 -0.34769701790E+03  0.62834729253E+03  0.40000000000E+03 0.  1.
<mgrwt>
<rscale>  2 0.52338046E+03</rscale>
<asrwt>0</asrwt>
<pdfrwt beam="1">  1       21 0.48282669E-01 0.52338046E+03</pdfrwt>
<pdfrwt beam="2">  1       21 0.13580031E+00 0.52338046E+03</pdfrwt>
<totfact> 0.13140075E+03</totfact>
</mgrwt>
</event>
<event>
 4    1  0.4949719E-002  0.5039319E+03  0.7818608E-02  0.1012758E+00
         21   -1    0    0  501  502  0.00000000000E+00  0.00000000000E+00  0.97500239230E+03  0.97500239230E+03  0.00000000000E+00 0. -1.
         21   -1    0    0  502  503 -0.00000000000E+00 -0.00000000000E+00 -0.44199988213E+03  0.44199988213E+03  0.00000000000E+00 0. -1.
    9000005    1    1    2  501    0 -0.22254317632E+03  0.21076507518E+03  0.72056584527E+03  0.87929660503E+03  0.40000000000E+03 0. -1.
   -9000005    1    1    2    0  503  0.22254317632E+03 -0.21076507518E+03 -0.18756333510E+03  0.53770566941E+03  0.40000000000E+03 0. -1.
<mgrwt>
<rscale>  2 0.50393192E+03</rscale>
<asrwt>0</asrwt>
<pdfrwt beam="1">  1       21 0.15000037E+00 0.50393192E+03</pdfrwt>
<pdfrwt beam="2">  1       21 0.67999982E-01 0.50393192E+03</pdfrwt>
<totfact> 0.47997947E+02</totfact>
</mgrwt>
</event>
<event>
 4    1  0.4949719E-002  0.5105615E+03  0.7818608E-02  0.1011058E+00
         21   -1    0    0  503  502  0.00000000000E+00  0.00000000000E+00  0.10544360271E+03  0.10544360271E+03  0.00000000000E+00 0.  1.
         21   -1    0    0  501  503 -0.00000000000E+00 -0.00000000000E+00 -0.31573548236E+04  0.31573548236E+04  0.00000000000E+00 0. -1.
    9000005    1    1    2  501    0  0.31696385420E+03  0.14384908802E+02 -0.22859439545E+04  0.23422665889E+04  0.40000000000E+03 0. -1.
   -9000005    1    1    2    0  502 -0.31696385420E+03 -0.14384908802E+02 -0.76596726643E+03  0.92053183742E+03  0.40000000000E+03 0.  1.
<mgrwt>
<rscale>  2 0.51056147E+03</rscale>
<asrwt>0</asrwt>
<pdfrwt beam="1">  1       21 0.16222092E-01 0.51056147E+03</pdfrwt>
<pdfrwt beam="2">  1       21 0.48574690E+00 0.51056147E+03</pdfrwt>
<totfact> 0.57669300E+01</totfact>
</mgrwt>
</event>
<event>
 4    1  0.4949719E-002  0.4236396E+03  0.7818608E-02  0.1035888E+00
         21   -1    0    0  503  502  0.00000000000E+00  0.00000000000E+00  0.68685060559E+03  0.68685060559E+03  0.00000000000E+00 0.  1.
         21   -1    0    0  501  503 -0.00000000000E+00 -0.00000000000E+00 -0.62703514855E+03  0.62703514855E+03  0.00000000000E+00 0.  1.
    9000005    1    1    2  501    0  0.13233679665E+03 -0.44243892391E+02 -0.47181994072E+03  0.63410141635E+03  0.40000000000E+03 0.  1.
   -9000005    1    1    2    0  502 -0.13233679665E+03  0.44243892391E+02  0.53163539775E+03  0.67978433779E+03  0.40000000000E+03 0.  1.
<mgrwt>
<rscale>  2 0.42363965E+03</rscale>
<asrwt>0</asrwt>
<pdfrwt beam="1">  1       21 0.10566932E+00 0.42363965E+03</pdfrwt>
<pdfrwt beam="2">  1       21 0.96466946E-01 0.42363965E+03</pdfrwt>
<totfact> 0.54557950E+02</totfact>
</mgrwt>
</event>
<event>
 4    1  0.4949719E-002  0.5302703E+03  0.7818608E-02  0.1006167E+00
         21   -1    0    0  503  502  0.00000000000E+00  0.00000000000E+00  0.18095902265E+03  0.18095902265E+03  0.00000000000E+00 0. -1.
         21   -1    0    0  501  503 -0.00000000000E+00 -0.00000000000E+00 -0.16531929523E+04  0.16531929523E+04  0.00000000000E+00 0. -1.
    9000005    1    1    2  501    0  0.27873455505E+02  0.34700094782E+03 -0.51133012224E+03  0.73664447410E+03  0.40000000000E+03 0. -1.
   -9000005    1    1    2    0  502 -0.27873455505E+02 -0.34700094782E+03 -0.96090380739E+03  0.10975075008E+04  0.40000000000E+03 0. -1.
<mgrwt>
<rscale>  2 0.53027030E+03</rscale>
<asrwt>0</asrwt>
<pdfrwt beam="1">  1       21 0.27839850E-01 0.53027030E+03</pdfrwt>
<pdfrwt beam="2">  1       21 0.25433737E+00 0.53027030E+03</pdfrwt>
<totfact> 0.60441078E+02</totfact>
</mgrwt>
</event>
<event>
 4    1  0.4949719E-002  0.4901622E+03  0.7818608E-02  0.1016379E+00
         21   -1    0    0  501  502  0.00000000000E+00  0.00000000000E+00  0.19886587797E+04  0.19886587797E+04  0.00000000000E+00 0. -1.
         21   -1    0    0  502  503 -0.00000000000E+00 -0.00000000000E+00 -0.13299111132E+03  0.13299111132E+03  0.00000000000E+00 0. -1.
    9000005    1    1    2  501    0  0.27206731626E+03  0.78982970384E+02  0.12488261080E+04  0.13415757833E+04  0.40000000000E+03 0.  1.
   -9000005    1    1    2    0  503 -0.27206731626E+03 -0.78982970384E+02  0.60684156034E+03  0.78007410773E+03  0.40000000000E+03 0.  1.
<mgrwt>
<rscale>  2 0.49016215E+03</rscale>
<asrwt>0</asrwt>
<pdfrwt beam="1">  1       21 0.30594748E+00 0.49016215E+03</pdfrwt>
<pdfrwt beam="2">  1       21 0.20460172E-01 0.49016215E+03</pdfrwt>
<totfact> 0.54419615E+02</totfact>
</mgrwt>
</event>
<event>
 4    1  0.4949719E-002  0.5292909E+03  0.7818608E-02  0.1006404E+00
         21   -1    0    0  503  502  0.00000000000E+00  0.00000000000E+00  0.43764596961E+03  0.43764596961E+03  0.00000000000E+00 0.  1.
         21   -1    0    0  501  503 -0.00000000000E+00 -0.00000000000E+00 -0.65382936850E+03  0.65382936850E+03  0.00000000000E+00 0.  1.
    9000005    1    1    2  501    0 -0.34114379316E+03  0.61398131632E+02 -0.18709699139E+03  0.56138587653E+03  0.40000000000E+03 0.  1.
   -9000005    1    1    2    0  502  0.34114379316E+03 -0.61398131632E+02 -0.29086407499E+02  0.53008946158E+03  0.40000000000E+03 0.  1.
<mgrwt>
<rscale>  2 0.52929086E+03</rscale>
<asrwt>0</asrwt>
<pdfrwt beam="1">  1       21 0.67330149E-01 0.52929086E+03</pdfrwt>
<pdfrwt beam="2">  1       21 0.10058913E+00 0.52929086E+03</pdfrwt>
<totfact> 0.13591936E+03</totfact>
</mgrwt>
</event>
<event>
 4    1  0.4949719E-002  0.4140429E+03  0.7818608E-02  0.1039023E+00
         21   -1    0    0  501  502  0.00000000000E+00  0.00000000000E+00  0.11970923666E+04  0.11970923666E+04  0.00000000000E+00 0. -1.
         21   -1    0    0  502  503 -0.00000000000E+00 -0.00000000000E+00 -0.15493260912E+03  0.15493260912E+03  0.00000000000E+00 0. -1.
    9000005    1    1    2  501    0 -0.10396156537E+03 -0.24969535134E+02  0.70705681090E+03  0.81936610779E+03  0.40000000000E+03 0. -1.
   -9000005    1    1    2    0  503  0.10396156537E+03  0.24969535134E+02  0.33510294653E+03  0.53265886788E+03  0.40000000000E+03 0. -1.
<mgrwt>
<rscale>  2 0.41404285E+03</rscale>
<asrwt>0</asrwt>
<pdfrwt beam="1">  1       21 0.18416805E+00 0.41404285E+03</pdfrwt>
<pdfrwt beam="2">  1       21 0.23835787E-01 0.41404285E+03</pdfrwt>
<totfact> 0.24476968E+03</totfact>
</mgrwt>
</event>
<event>
 4    1  0.4949719E-002  0.4027188E+03  0.7818608E-02  0.1042842E+00
         21   -1    0    0  503  502  0.00000000000E+00  0.00000000000E+00  0.20229110193E+04  0.20229110193E+04  0.00000000000E+00 0.  1.
         21   -1    0    0  501  503 -0.00000000000E+00 -0.00000000000E+00 -0.80350998769E+02  0.80350998769E+02  0.00000000000E+00 0.  1.
    9000005    1    1    2  501    0  0.34587986313E+01  0.46588572293E+02  0.10208032878E+04  0.10973704073E+04  0.40000000000E+03 0. -1.
   -9000005    1    1    2    0  502 -0.34587986313E+01 -0.46588572293E+02  0.92175673271E+03  0.10058916108E+04  0.40000000000E+03 0. -1.
<mgrwt>
<rscale>  2 0.40271883E+03</rscale>
<asrwt>0</asrwt>
<pdfrwt beam="1">  1       21 0.31121704E+00 0.40271883E+03</pdfrwt>
<pdfrwt beam="2">  1       21 0.12361694E-01 0.40271883E+03</pdfrwt>
<totfact> 0.13593877E+03</totfact>
</mgrwt>
</event>
<event>
 4    1  0.4949719E-002  0.5058632E+03  0.7818608E-02  0.1012260E+00
         21   -1    0    0  503  502  0.00000000000E+00  0.00000000000E+00  0.79249959075E+03  0.79249959075E+03  0.00000000000E+00 0. -1.
         21   -1    0    0  501  503 -0.00000000000E+00 -0.00000000000E+00 -0.33565864296E+03  0.33565864296E+03  0.00000000000E+00 0.  1.
    9000005    1    1    2  501    0 -0.59807416680E+02 -0.30384315115E+03  0.11844274824E+03  0.51954429282E+03  0.40000000000E+03 0.  1.
   -9000005    1    1    2    0  502  0.59807416680E+02  0.30384315115E+03  0.33839819955E+03  0.60861394089E+03  0.40000000000E+03 0. -1.
<mgrwt>
<rscale>  2 0.50586321E+03</rscale>
<asrwt>0</asrwt>
<pdfrwt beam="1">  1       21 0.12192301E+00 0.50586321E+03</pdfrwt>
<pdfrwt beam="2">  1       21 0.51639791E-01 0.50586321E+03</pdfrwt>
<totfact> 0.15158106E+03</totfact>
</mgrwt>
</event>
<event>
 4    1  0.4949719E-002  0.5619149E+03  0.7818608E-02  0.9987731E-01
         21   -1    0    0  501  502  0.00000000000E+00  0.00000000000E+00  0.70110350573E+03  0.70110350573E+03  0.00000000000E+00 0.  1.
         21   -1    0    0  502  503 -0.00000000000E+00 -0.00000000000E+00 -0.81837666795E+03  0.81837666795E+03  0.00000000000E+00 0. -1.
    9000005    1    1    2  501    0 -0.33600229591E+03  0.20700430635E+03  0.45083822568E+03  0.72041892774E+03  0.40000000000E+03 0.  1.
   -9000005    1    1    2    0  503  0.33600229591E+03 -0.20700430635E+03 -0.56811138791E+03  0.79906124594E+03  0.40000000000E+03 0. -1.
<mgrwt>
<rscale>  2 0.56191487E+03</rscale>
<asrwt>0</asrwt>
<pdfrwt beam="1">  1       21 0.10786208E+00 0.56191487E+03</pdfrwt>
<pdfrwt beam="2">  1       21 0.12590410E+00 0.56191487E+03</pdfrwt>
<totfact> 0.25160373E+02</totfact>
</mgrwt>
</event>
<event>
 4    1  0.4949719E-002  0.4534766E+03  0.7818608E-02  0.1026690E+00
         21   -1    0    0  501  502  0.00000000000E+00  0.00000000000E+00  0.26996916356E+03  0.26996916356E+03  0.00000000000E+00 0. -1.
         21   -1    0    0  502  503 -0.00000000000E+00 -0.00000000000E+00 -0.11160662575E+04  0.11160662575E+04  0.00000000000E+00 0. -1.
    9000005    1    1    2  501    0  0.21361320612E+03 -0.32247913102E+01 -0.32555715592E+02  0.45464367996E+03  0.40000000000E+03 0. -1.
   -9000005    1    1    2    0  503 -0.21361320612E+03  0.32247913102E+01 -0.81354137835E+03  0.93139174111E+03  0.40000000000E+03 0. -1.
<mgrwt>
<rscale>  2 0.45347657E+03</rscale>
<asrwt>0</asrwt>
<pdfrwt beam="1">  1       21 0.41533716E-01 0.45347657E+03</pdfrwt>
<pdfrwt beam="2">  1       21 0.17170251E+00 0.45347657E+03</pdfrwt>
<totfact> 0.97212771E+02</totfact>
</mgrwt>
</event>
<event>
 4    1  0.4949719E-002  0.4397935E+03  0.7818608E-02  0.1030810E+00
         21   -1    0    0  503  502  0.00000000000E+00  0.00000000000E+00  0.74785467688E+03  0.74785467688E+03  0.00000000000E+00 0. -1.
         21   -1    0    0  501  503 -0.00000000000E+00 -0.00000000000E+00 -0.26115961107E+03  0.26115961107E+03  0.00000000000E+00 0. -1.
    9000005    1    1    2  501    0  0.12447782057E+03 -0.13387896094E+03  0.19370354151E+03  0.48056151114E+03  0.40000000000E+03 0. -1.
   -9000005    1    1    2    0  502 -0.12447782057E+03  0.13387896094E+03  0.29299152430E+03  0.52845277680E+03  0.40000000000E+03 0. -1.
<mgrwt>
<rscale>  2 0.43979348E+03</rscale>
<asrwt>0</asrwt>
<pdfrwt beam="1">  1       21 0.11505456E+00 0.43979348E+03</pdfrwt>
<pdfrwt beam="2">  1       21 0.40178402E-01 0.43979348E+03</pdfrwt>
<totfact> 0.30462645E+03</totfact>
</mgrwt>
</event>
<event>
 4    1  0.4949719E-002  0.5011430E+03  0.7818608E-02  0.1013481E+00
         21   -1    0    0  501  502  0.00000000000E+00  0.00000000000E+00  0.89919316315E+03  0.89919316315E+03  0.00000000000E+00 0. -1.
         21   -1    0    0  502  503 -0.00000000000E+00 -0.00000000000E+00 -0.27992869581E+03  0.27992869581E+03  0.00000000000E+00 0.  1.
    9000005    1    1    2  501    0 -0.19767425613E+03  0.22818670572E+03  0.33758121012E+03  0.60423948699E+03  0.40000000000E+03 0. -1.
   -9000005    1    1    2    0  503  0.19767425613E+03 -0.22818670572E+03  0.28168325723E+03  0.57488237197E+03  0.40000000000E+03 0.  1.
<mgrwt>
<rscale>  2 0.50114298E+03</rscale>
<asrwt>0</asrwt>
<pdfrwt beam="1">  1       21 0.13833741E+00 0.50114298E+03</pdfrwt>
<pdfrwt beam="2">  1       21 0.43065954E-01 0.50114298E+03</pdfrwt>
<totfact> 0.16038966E+03</totfact>
</mgrwt>
</event>
<event>
 4    1  0.4949719E-002  0.4519505E+03  0.7818608E-02  0.1027142E+00
         21   -1    0    0  501  502  0.00000000000E+00  0.00000000000E+00  0.56735521995E+03  0.56735521995E+03  0.00000000000E+00 0. -1.
         21   -1    0    0  502  503 -0.00000000000E+00 -0.00000000000E+00 -0.38565817950E+03  0.38565817950E+03  0.00000000000E+00 0.  1.
    9000005    1    1    2  501    0  0.12536529438E+03 -0.16894604755E+03 -0.32011720986E+02  0.45308274553E+03  0.40000000000E+03 0.  1.
   -9000005    1    1    2    0  503 -0.12536529438E+03  0.16894604755E+03  0.21370876143E+03  0.49993065392E+03  0.40000000000E+03 0. -1.
<mgrwt>
<rscale>  2 0.45195047E+03</rscale>
<asrwt>0</asrwt>
<pdfrwt beam="1">  1       21 0.87285418E-01 0.45195047E+03</pdfrwt>
<pdfrwt beam="2">  1       21 0.59332028E-01 0.45195047E+03</pdfrwt>
<totfact> 0.25953954E+03</totfact>
</mgrwt>
</event>
<event>
 4    1  0.4949719E-002  0.1359896E+04  0.7818608E-02  0.8983371E-01
         21   -1    0    0  503  502  0.00000000000E+00  0.00000000000E+00  0.15182418570E+04  0.15182418570E+04  0.00000000000E+00 0. -1.
         21   -1    0    0  501  503 -0.00000000000E+00 -0.00000000000E+00 -0.17966544146E+04  0.17966544146E+04  0.00000000000E+00 0.  1.
    9000005    1    1    2  501    0  0.10947910476E+04  0.70053512265E+03  0.80136780215E+03  0.15784509021E+04  0.40000000000E+03 0. -1.
   -9000005    1    1    2    0  502 -0.10947910476E+04 -0.70053512265E+03 -0.10797803597E+04  0.17364453695E+04  0.40000000000E+03 0.  1.
<mgrwt>
<rscale>  2 0.13598959E+04</rscale>
<asrwt>0</asrwt>
<pdfrwt beam="1">  1       21 0.23357567E+00 0.13598959E+04</pdfrwt>
<pdfrwt beam="2">  1       21 0.27640837E+00 0.13598959E+04</pdfrwt>
<totfact> 0.18064675E+00</totfact>
</mgrwt>
</event>
<event>
 4    1  0.4949719E-002  0.6657765E+03  0.7818608E-02  0.9777618E-01
         21   -1    0    0  503  502  0.00000000000E+00  0.00000000000E+00  0.74943466428E+03  0.74943466428E+03  0.00000000000E+00 0. -1.
         21   -1    0    0  501  503 -0.00000000000E+00 -0.00000000000E+00 -0.11771661863E+04  0.11771661863E+04  0.00000000000E+00 0.  1.
    9000005    1    1    2  501    0 -0.21951474404E+03 -0.48484183705E+03 -0.89335706709E+03  0.11141567121E+04  0.40000000000E+03 0.  1.
   -9000005    1    1    2    0  502  0.21951474404E+03  0.48484183705E+03  0.46562554512E+03  0.81244413843E+03  0.40000000000E+03 0. -1.
<mgrwt>
<rscale>  2 0.66577649E+03</rscale>
<asrwt>0</asrwt>
<pdfrwt beam="1">  1       21 0.11529764E+00 0.66577649E+03</pdfrwt>
<pdfrwt beam="2">  1       21 0.18110249E+00 0.66577649E+03</pdfrwt>
<totfact> 0.74959558E+01</totfact>
</mgrwt>
</event>
<event>
 4    1  0.4949719E-002  0.4306117E+03  0.7818608E-02  0.1033667E+00
         21   -1    0    0  503  502  0.00000000000E+00  0.00000000000E+00  0.12299309262E+04  0.12299309262E+04  0.00000000000E+00 0.  1.
         21   -1    0    0  501  503 -0.00000000000E+00 -0.00000000000E+00 -0.21166448150E+03  0.21166448150E+03  0.00000000000E+00 0.  1.
    9000005    1    1    2  501    0  0.88774450672E+02 -0.13245957401E+03  0.12249207783E+03  0.44769493069E+03  0.40000000000E+03 0.  1.
   -9000005    1    1    2    0  502 -0.88774450672E+02  0.13245957401E+03  0.89577436685E+03  0.99390047698E+03  0.40000000000E+03 0.  1.
<mgrwt>
<rscale>  2 0.43061171E+03</rscale>
<asrwt>0</asrwt>
<pdfrwt beam="1">  1       21 0.18922014E+00 0.43061171E+03</pdfrwt>
<pdfrwt beam="2">  1       21 0.32563767E-01 0.43061171E+03</pdfrwt>
<totfact> 0.12137031E+03</totfact>
</mgrwt>
</event>
<event>
 4    1  0.4949719E-002  0.4904627E+03  0.7818608E-02  0.1016299E+00
         21   -1    0    0  501  502  0.00000000000E+00  0.00000000000E+00  0.58626154872E+03  0.58626154872E+03  0.00000000000E+00 0.  1.
         21   -1    0    0  502  503 -0.00000000000E+00 -0.00000000000E+00 -0.41051248505E+03  0.41051248505E+03  0.00000000000E+00 0. -1.
    9000005    1    1    2  501    0  0.18060940507E+03  0.21893803460E+03  0.98724641784E+02  0.50030008504E+03  0.40000000000E+03 0.  1.
   -9000005    1    1    2    0  503 -0.18060940507E+03 -0.21893803460E+03  0.77024421888E+02  0.49647394872E+03  0.40000000000E+03 0. -1.
<mgrwt>
<rscale>  2 0.49046266E+03</rscale>
<asrwt>0</asrwt>
<pdfrwt beam="1">  1       21 0.90194085E-01 0.49046266E+03</pdfrwt>
<pdfrwt beam="2">  1       21 0.63155767E-01 0.49046266E+03</pdfrwt>
<totfact> 0.20650433E+03</totfact>
</mgrwt>
</event>
<event>
 4    1  0.4949719E-002  0.5155710E+03  0.7818608E-02  0.1009793E+00
         21   -1    0    0  503  502  0.00000000000E+00  0.00000000000E+00  0.11596464140E+03  0.11596464140E+03  0.00000000000E+00 0. -1.
         21   -1    0    0  501  503 -0.00000000000E+00 -0.00000000000E+00 -0.27014496385E+04  0.27014496385E+04  0.00000000000E+00 0.  1.
    9000005    1    1    2  501    0 -0.27486285384E+03 -0.17396503279E+03 -0.18410444230E+04  0.19118729007E+04  0.40000000000E+03 0.  1.
   -9000005    1    1    2    0  502  0.27486285384E+03  0.17396503279E+03 -0.74444057412E+03  0.90554137920E+03  0.40000000000E+03 0.  1.
<mgrwt>
<rscale>  2 0.51557097E+03</rscale>
<asrwt>0</asrwt>
<pdfrwt beam="1">  1       21 0.17840716E-01 0.51557097E+03</pdfrwt>
<pdfrwt beam="2">  1       21 0.41560759E+00 0.51557097E+03</pdfrwt>
<totfact> 0.14403455E+02</totfact>
</mgrwt>
</event>
<event>
 4    1  0.4949719E-002  0.4196506E+03  0.7818608E-02  0.1037180E+00
         21   -1    0    0  503  502  0.00000000000E+00  0.00000000000E+00  0.14834343589E+03  0.14834343589E+03  0.00000000000E+00 0.  1.
         21   -1    0    0  501  503 -0.00000000000E+00 -0.00000000000E+00 -0.11900143012E+04  0.11900143012E+04  0.00000000000E+00 0.  1.
    9000005    1    1    2  501    0 -0.17441754309E+02 -0.12570763374E+03 -0.55363818174E+03  0.69470991087E+03  0.40000000000E+03 0.  1.
   -9000005    1    1    2    0  502  0.17441754309E+02  0.12570763374E+03 -0.48803268353E+03  0.64364782619E+03  0.40000000000E+03 0.  1.
<mgrwt>
<rscale>  2 0.41965060E+03</rscale>
<asrwt>0</asrwt>
<pdfrwt beam="1">  1       21 0.22822067E-01 0.41965060E+03</pdfrwt>
<pdfrwt beam="2">  1       21 0.18307913E+00 0.41965060E+03</pdfrwt>
<totfact> 0.27019595E+03</totfact>
</mgrwt>
</event>
<event>
 4    1  0.4949719E-002  0.4582944E+03  0.7818608E-02  0.1025277E+00
         21   -1    0    0  503  502  0.00000000000E+00  0.00000000000E+00  0.53101492840E+03  0.53101492840E+03  0.00000000000E+00 0. -1.
         21   -1    0    0  501  503 -0.00000000000E+00 -0.00000000000E+00 -0.39826413353E+03  0.39826413353E+03  0.00000000000E+00 0. -1.
    9000005    1    1    2  501    0 -0.42547238426E+02  0.21959842297E+03  0.10485502781E+03  0.47013648202E+03  0.40000000000E+03 0. -1.
   -9000005    1    1    2    0  502  0.42547238426E+02 -0.21959842297E+03  0.27895767049E+02  0.45914257991E+03  0.40000000000E+03 0. -1.
<mgrwt>
<rscale>  2 0.45829438E+03</rscale>
<asrwt>0</asrwt>
<pdfrwt beam="1">  1       21 0.81694605E-01 0.45829438E+03</pdfrwt>
<pdfrwt beam="2">  1       21 0.61271405E-01 0.45829438E+03</pdfrwt>
<totfact> 0.28168535E+03</totfact>
</mgrwt>
</event>
<event>
 4    1  0.4949719E-002  0.5390230E+03  0.7818608E-02  0.1004067E+00
         21   -1    0    0  503  502  0.00000000000E+00  0.00000000000E+00  0.10871854905E+04  0.10871854905E+04  0.00000000000E+00 0. -1.
         21   -1    0    0  501  503 -0.00000000000E+00 -0.00000000000E+00 -0.31464163373E+03  0.31464163373E+03  0.00000000000E+00 0. -1.
    9000005    1    1    2  501    0  0.31274890016E+03 -0.18092503460E+03  0.11423584753E+03  0.55099507398E+03  0.40000000000E+03 0. -1.
   -9000005    1    1    2    0  502 -0.31274890016E+03  0.18092503460E+03  0.65830800927E+03  0.85083205027E+03  0.40000000000E+03 0. -1.
<mgrwt>
<rscale>  2 0.53902295E+03</rscale>
<asrwt>0</asrwt>
<pdfrwt beam="1">  1       21 0.16725930E+00 0.53902295E+03</pdfrwt>
<pdfrwt beam="2">  1       21 0.48406406E-01 0.53902295E+03</pdfrwt>
<totfact> 0.73396322E+02</totfact>
</mgrwt>
</event>
<event>
 4    1  0.4949719E-002  0.5097132E+03  0.7818608E-02  0.1011274E+00
         21   -1    0    0  501  502  0.00000000000E+00  0.00000000000E+00  0.21728228673E+03  0.21728228673E+03  0.00000000000E+00 0.  1.
         21   -1    0    0  502  503 -0.00000000000E+00 -0.00000000000E+00 -0.24341867118E+04  0.24341867118E+04  0.00000000000E+00 0.  1.
    9000005    1    1    2  501    0 -0.69208269009E+02  0.30824950067E+03 -0.16281886035E+03  0.53508646072E+03  0.40000000000E+03 0.  1.
   -9000005    1    1    2    0  503  0.69208269009E+02 -0.30824950067E+03 -0.20540855647E+04  0.21163825378E+04  0.40000000000E+03 0.  1.
<mgrwt>
<rscale>  2 0.50971319E+03</rscale>
<asrwt>0</asrwt>
<pdfrwt beam="1">  1       21 0.33428040E-01 0.50971319E+03</pdfrwt>
<pdfrwt beam="2">  1       21 0.37449031E+00 0.50971319E+03</pdfrwt>
<totfact> 0.78012294E+01</totfact>
</mgrwt>
</event>
<event>
 4    1  0.4949719E-002  0.5062340E+03  0.7818608E-02  0.1012164E+00
         21   -1    0    0  503  502  0.00000000000E+00  0.00000000000E+00  0.62680298307E+03  0.62680298307E+03  0.00000000000E+00 0.  1.
         21   -1    0    0  501  503 -0.00000000000E+00 -0.00000000000E+00 -0.42250384292E+03  0.42250384292E+03  0.00000000000E+00 0.  1.
    9000005    1    1    2  501    0  0.27624158727E+03 -0.14129216226E+03  0.19644066251E+03  0.54301180792E+03  0.40000000000E+03 0.  1.
   -9000005    1    1    2    0  502 -0.27624158727E+03  0.14129216226E+03  0.78584776436E+01  0.50629501807E+03  0.40000000000E+03 0.  1.
<mgrwt>
<rscale>  2 0.50623403E+03</rscale>
<asrwt>0</asrwt>
<pdfrwt beam="1">  1       21 0.96431228E-01 0.50623403E+03</pdfrwt>
<pdfrwt beam="2">  1       21 0.65000591E-01 0.50623403E+03</pdfrwt>
<totfact> 0.16418140E+03</totfact>
</mgrwt>
</event>
<event>
 4    1  0.4949719E-002  0.4114751E+03  0.7818608E-02  0.1039877E+00
         21   -1    0    0  503  502  0.00000000000E+00  0.00000000000E+00  0.10390604976E+04  0.10390604976E+04  0.00000000000E+00 0. -1.
         21   -1    0    0  501  503 -0.00000000000E+00 -0.00000000000E+00 -0.18719706330E+03  0.18719706330E+03  0.00000000000E+00 0.  1.
    9000005    1    1    2  501    0 -0.49598423794E+02 -0.82775316639E+02  0.20525377776E+03  0.45982700005E+03  0.40000000000E+03 0.  1.
   -9000005    1    1    2    0  502  0.49598423794E+02  0.82775316639E+02  0.64660965657E+03  0.76643056088E+03  0.40000000000E+03 0. -1.
<mgrwt>
<rscale>  2 0.41147510E+03</rscale>
<asrwt>0</asrwt>
<pdfrwt beam="1">  1       21 0.15985546E+00 0.41147510E+03</pdfrwt>
<pdfrwt beam="2">  1       21 0.28799549E-01 0.41147510E+03</pdfrwt>
<totfact> 0.25369441E+03</totfact>
</mgrwt>
</event>
<event>
 4    1  0.4949719E-002  0.4918191E+03  0.7818608E-02  0.1015937E+00
         21   -1    0    0  503  502  0.00000000000E+00  0.00000000000E+00  0.23021388001E+04  0.23021388001E+04  0.00000000000E+00 0. -1.
         21   -1    0    0  501  503 -0.00000000000E+00 -0.00000000000E+00 -0.10948871753E+03  0.10948871753E+03  0.00000000000E+00 0. -1.
    9000005    1    1    2  501    0  0.54270876301E+02  0.28096385012E+03  0.13385603759E+04  0.14260539586E+04  0.40000000000E+03 0. -1.
   -9000005    1    1    2    0  502 -0.54270876301E+02 -0.28096385012E+03  0.85408970674E+03  0.98557355903E+03  0.40000000000E+03 0. -1.
<mgrwt>
<rscale>  2 0.49181909E+03</rscale>
<asrwt>0</asrwt>
<pdfrwt beam="1">  1       21 0.35417516E+00 0.49181909E+03</pdfrwt>
<pdfrwt beam="2">  1       21 0.16844420E-01 0.49181909E+03</pdfrwt>
<totfact> 0.39938142E+02</totfact>
</mgrwt>
</event>
<event>
 4    1  0.4949719E-002  0.4692391E+03  0.7818608E-02  0.1022135E+00
         21   -1    0    0  503  502  0.00000000000E+00  0.00000000000E+00  0.18918246406E+03  0.18918246406E+03  0.00000000000E+00 0. -1.
         21   -1    0    0  501  503 -0.00000000000E+00 -0.00000000000E+00 -0.12442735996E+04  0.12442735996E+04  0.00000000000E+00 0. -1.
    9000005    1    1    2  501    0 -0.87694114093E+02  0.22911795513E+03 -0.70973063214E+03  0.85082481464E+03  0.40000000000E+03 0. -1.
   -9000005    1    1    2    0  502  0.87694114093E+02 -0.22911795513E+03 -0.34536050335E+03  0.58263124898E+03  0.40000000000E+03 0. -1.
<mgrwt>
<rscale>  2 0.46923906E+03</rscale>
<asrwt>0</asrwt>
<pdfrwt beam="1">  1       21 0.29104995E-01 0.46923906E+03</pdfrwt>
<pdfrwt beam="2">  1       21 0.19142671E+00 0.46923906E+03</pdfrwt>
<totfact> 0.14416113E+03</totfact>
</mgrwt>
</event>
<event>
 4    1  0.4949719E-002  0.5557287E+03  0.7818608E-02  0.1000177E+00
         21   -1    0    0  503  502  0.00000000000E+00  0.00000000000E+00  0.29053237583E+03  0.29053237583E+03  0.00000000000E+00 0. -1.
         21   -1    0    0  501  503 -0.00000000000E+00 -0.00000000000E+00 -0.10649997968E+04  0.10649997968E+04  0.00000000000E+00 0.  1.
    9000005    1    1    2  501    0  0.19838631406E+03 -0.33087354983E+03 -0.41664068953E+03  0.69456741916E+03  0.40000000000E+03 0.  1.
   -9000005    1    1    2    0  502 -0.19838631406E+03  0.33087354983E+03 -0.35782673141E+03  0.66096475345E+03  0.40000000000E+03 0.  1.
<mgrwt>
<rscale>  2 0.55572874E+03</rscale>
<asrwt>0</asrwt>
<pdfrwt beam="1">  1       21 0.44697288E-01 0.55572874E+03</pdfrwt>
<pdfrwt beam="2">  1       21 0.16384612E+00 0.55572874E+03</pdfrwt>
<totfact> 0.91548975E+02</totfact>
</mgrwt>
</event>
<event>
 4    1  0.4949719E-002  0.4185726E+03  0.7818608E-02  0.1037532E+00
         21   -1    0    0  501  502  0.00000000000E+00  0.00000000000E+00  0.57669884734E+03  0.57669884734E+03  0.00000000000E+00 0.  1.
         21   -1    0    0  502  503 -0.00000000000E+00 -0.00000000000E+00 -0.31050975979E+03  0.31050975979E+03  0.00000000000E+00 0. -1.
    9000005    1    1    2  501    0  0.12267488271E+03 -0.12404772435E+02  0.67900905602E+02  0.42404426445E+03  0.40000000000E+03 0. -1.
   -9000005    1    1    2    0  503 -0.12267488271E+03  0.12404772435E+02  0.19828818195E+03  0.46316434268E+03  0.40000000000E+03 0. -1.
<mgrwt>
<rscale>  2 0.41857258E+03</rscale>
<asrwt>0</asrwt>
<pdfrwt beam="1">  1       21 0.88722899E-01 0.41857258E+03</pdfrwt>
<pdfrwt beam="2">  1       21 0.47770732E-01 0.41857258E+03</pdfrwt>
<totfact> 0.40257510E+03</totfact>
</mgrwt>
</event>
<event>
 4    1  0.4949719E-002  0.4252123E+03  0.7818608E-02  0.1035383E+00
         21   -1    0    0  503  502  0.00000000000E+00  0.00000000000E+00  0.91500784317E+03  0.91500784317E+03  0.00000000000E+00 0. -1.
         21   -1    0    0  501  503 -0.00000000000E+00 -0.00000000000E+00 -0.20210849402E+03  0.20210849402E+03  0.00000000000E+00 0. -1.
    9000005    1    1    2  501    0 -0.12641814043E+03  0.69454928923E+02  0.43987400666E+03  0.61179626929E+03  0.40000000000E+03 0. -1.
   -9000005    1    1    2    0  502  0.12641814043E+03 -0.69454928923E+02  0.27302534249E+03  0.50532006790E+03  0.40000000000E+03 0. -1.
<mgrwt>
<rscale>  2 0.42521234E+03</rscale>
<asrwt>0</asrwt>
<pdfrwt beam="1">  1       21 0.14077044E+00 0.42521234E+03</pdfrwt>
<pdfrwt beam="2">  1       21 0.31093615E-01 0.42521234E+03</pdfrwt>
<totfact> 0.30596066E+03</totfact>
</mgrwt>
</event>
<event>
 4    1  0.4949719E-002  0.4812593E+03  0.7818608E-02  0.1018790E+00
         21   -1    0    0  501  502  0.00000000000E+00  0.00000000000E+00  0.47774543904E+03  0.47774543904E+03  0.00000000000E+00 0.  1.
         21   -1    0    0  502  503 -0.00000000000E+00 -0.00000000000E+00 -0.48483056226E+03  0.48483056226E+03  0.00000000000E+00 0.  1.
    9000005    1    1    2  501    0  0.26012165618E+03 -0.62826743684E+02 -0.74303512754E+01  0.48131661706E+03  0.40000000000E+03 0.  1.
   -9000005    1    1    2    0  503 -0.26012165618E+03  0.62826743684E+02  0.34522805905E+00  0.48125938424E+03  0.40000000000E+03 0.  1.
<mgrwt>
<rscale>  2 0.48125926E+03</rscale>
<asrwt>0</asrwt>
<pdfrwt beam="1">  1       21 0.73499298E-01 0.48125926E+03</pdfrwt>
<pdfrwt beam="2">  1       21 0.74589317E-01 0.48125926E+03</pdfrwt>
<totfact> 0.22930963E+03</totfact>
</mgrwt>
</event>
<event>
 4    1  0.4949719E-002  0.4832952E+03  0.7818608E-02  0.1018233E+00
         21   -1    0    0  501  502  0.00000000000E+00  0.00000000000E+00  0.13392664253E+04  0.13392664253E+04  0.00000000000E+00 0. -1.
         21   -1    0    0  502  503 -0.00000000000E+00 -0.00000000000E+00 -0.41468808665E+03  0.41468808665E+03  0.00000000000E+00 0. -1.
    9000005    1    1    2  501    0 -0.27027981983E+03  0.22870515610E+02  0.11298479341E+04  0.12288737102E+04  0.40000000000E+03 0. -1.
   -9000005    1    1    2    0  503  0.27027981983E+03 -0.22870515610E+02 -0.20526959548E+03  0.52508080170E+03  0.40000000000E+03 0. -1.
<mgrwt>
<rscale>  2 0.48329519E+03</rscale>
<asrwt>0</asrwt>
<pdfrwt beam="1">  1       21 0.20604099E+00 0.48329519E+03</pdfrwt>
<pdfrwt beam="2">  1       21 0.63798168E-01 0.48329519E+03</pdfrwt>
<totfact> 0.22176935E+02</totfact>
</mgrwt>
</event>
<event>
 4    1  0.4949719E-002  0.4163371E+03  0.7818608E-02  0.1038265E+00
         21   -1    0    0  503  502  0.00000000000E+00  0.00000000000E+00  0.22323219263E+03  0.22323219263E+03  0.00000000000E+00 0. -1.
         21   -1    0    0  501  503 -0.00000000000E+00 -0.00000000000E+00 -0.15399049497E+04  0.15399049497E+04  0.00000000000E+00 0. -1.
    9000005    1    1    2  501    0  0.11232434728E+02 -0.11493670297E+03 -0.12790491545E+04  0.13451034729E+04  0.40000000000E+03 0. -1.
   -9000005    1    1    2    0  502 -0.11232434728E+02  0.11493670297E+03 -0.37623602581E+02  0.41803366940E+03  0.40000000000E+03 0. -1.
<mgrwt>
<rscale>  2 0.41633714E+03</rscale>
<asrwt>0</asrwt>
<pdfrwt beam="1">  1       21 0.34343415E-01 0.41633714E+03</pdfrwt>
<pdfrwt beam="2">  1       21 0.23690845E+00 0.41633714E+03</pdfrwt>
<totfact> 0.53894897E+02</totfact>
</mgrwt>
</event>
<event>
 4    1  0.4949719E-002  0.5768591E+03  0.7818608E-02  0.9954614E-01
         21   -1    0    0  501  502  0.00000000000E+00  0.00000000000E+00  0.27382588954E+03  0.27382588954E+03  0.00000000000E+00 0. -1.
         21   -1    0    0  502  503 -0.00000000000E+00 -0.00000000000E+00 -0.13268838057E+04  0.13268838057E+04  0.00000000000E+00 0. -1.
    9000005    1    1    2  501    0  0.33074480000E+03 -0.25174247084E+03 -0.29437949836E+03  0.64763082339E+03  0.40000000000E+03 0. -1.
   -9000005    1    1    2    0  503 -0.33074480000E+03  0.25174247084E+03 -0.75867841783E+03  0.95307887189E+03  0.40000000000E+03 0. -1.
<mgrwt>
<rscale>  2 0.57685908E+03</rscale>
<asrwt>0</asrwt>
<pdfrwt beam="1">  1       21 0.42127060E-01 0.57685908E+03</pdfrwt>
<pdfrwt beam="2">  1       21 0.20413597E+00 0.57685908E+03</pdfrwt>
<totfact> 0.53498708E+02</totfact>
</mgrwt>
</event>
<event>
 4    1  0.4949719E-002  0.4016538E+03  0.7818608E-02  0.1043209E+00
         21   -1    0    0  503  502  0.00000000000E+00  0.00000000000E+00  0.11766591029E+04  0.11766591029E+04  0.00000000000E+00 0. -1.
         21   -1    0    0  501  503 -0.00000000000E+00 -0.00000000000E+00 -0.17514734797E+03  0.17514734797E+03  0.00000000000E+00 0. -1.
    9000005    1    1    2  501    0 -0.32507227278E+02  0.16403670451E+02  0.18575148015E+03  0.44252617167E+03  0.40000000000E+03 0. -1.
   -9000005    1    1    2    0  502  0.32507227278E+02 -0.16403670451E+02  0.81576027477E+03  0.90928027919E+03  0.40000000000E+03 0. -1.
<mgrwt>
<rscale>  2 0.40165383E+03</rscale>
<asrwt>0</asrwt>
<pdfrwt beam="1">  1       21 0.18102447E+00 0.40165383E+03</pdfrwt>
<pdfrwt beam="2">  1       21 0.26945747E-01 0.40165383E+03</pdfrwt>
<totfact> 0.20396204E+03</totfact>
</mgrwt>
</event>
<event>
 4    1  0.4949719E-002  0.4618723E+03  0.7818608E-02  0.1024240E+00
         21   -1    0    0  501  502  0.00000000000E+00  0.00000000000E+00  0.10685736431E+04  0.10685736431E+04  0.00000000000E+00 0. -1.
         21   -1    0    0  502  503 -0.00000000000E+00 -0.00000000000E+00 -0.34650340282E+03  0.34650340282E+03  0.00000000000E+00 0. -1.
    9000005    1    1    2  501    0 -0.59913068953E+02  0.22301675529E+03  0.82167194838E+03  0.94258731146E+03  0.40000000000E+03 0. -1.
   -9000005    1    1    2    0  503  0.59913068953E+02 -0.22301675529E+03 -0.99601708056E+02  0.47248973451E+03  0.40000000000E+03 0. -1.
<mgrwt>
<rscale>  2 0.46187233E+03</rscale>
<asrwt>0</asrwt>
<pdfrwt beam="1">  1       21 0.16439594E+00 0.46187233E+03</pdfrwt>
<pdfrwt beam="2">  1       21 0.53308217E-01 0.46187233E+03</pdfrwt>
<totfact> 0.64715932E+02</totfact>
</mgrwt>
</event>
<event>
 4    1  0.4949719E-002  0.7050863E+03  0.7818608E-02  0.9708573E-01
         21   -1    0    0  501  502  0.00000000000E+00  0.00000000000E+00  0.56929819556E+03  0.56929819556E+03  0.00000000000E+00 0.  1.
         21   -1    0    0  502  503 -0.00000000000E+00 -0.00000000000E+00 -0.11030974302E+04  0.11030974302E+04  0.00000000000E+00 0. -1.
    9000005    1    1    2  501    0 -0.48038169897E+03  0.32615960430E+03  0.11478993773E+03  0.71436922805E+03  0.40000000000E+03 0.  1.
   -9000005    1    1    2    0  503  0.48038169897E+03 -0.32615960430E+03 -0.64858917239E+03  0.95802639771E+03  0.40000000000E+03 0. -1.
<mgrwt>
<rscale>  2 0.70508628E+03</rscale>
<asrwt>0</asrwt>
<pdfrwt beam="1">  1       21 0.87584339E-01 0.70508628E+03</pdfrwt>
<pdfrwt beam="2">  1       21 0.16970730E+00 0.70508628E+03</pdfrwt>
<totfact> 0.17581186E+02</totfact>
</mgrwt>
</event>
<event>
 4    1  0.4949719E-002  0.4481020E+03  0.7818608E-02  0.1028290E+00
         21   -1    0    0  501  502  0.00000000000E+00  0.00000000000E+00  0.68106252888E+03  0.68106252888E+03  0.00000000000E+00 0. -1.
         21   -1    0    0  502  503 -0.00000000000E+00 -0.00000000000E+00 -0.41412218980E+03  0.41412218980E+03  0.00000000000E+00 0. -1.
    9000005    1    1    2  501    0 -0.84032296320E+02  0.18366814237E+03  0.42737393703E+03  0.61922846786E+03  0.40000000000E+03 0. -1.
   -9000005    1    1    2    0  503  0.84032296320E+02 -0.18366814237E+03 -0.16043359795E+03  0.47595625082E+03  0.40000000000E+03 0. -1.
<mgrwt>
<rscale>  2 0.44810201E+03</rscale>
<asrwt>0</asrwt>
<pdfrwt beam="1">  1       21 0.10477885E+00 0.44810201E+03</pdfrwt>
<pdfrwt beam="2">  1       21 0.63711106E-01 0.44810201E+03</pdfrwt>
<totfact> 0.14324268E+03</totfact>
</mgrwt>
</event>
<event>
 4    1  0.4949719E-002  0.4839648E+03  0.7818608E-02  0.1018051E+00
         21   -1    0    0  503  502  0.00000000000E+00  0.00000000000E+00  0.11412708253E+04  0.11412708253E+04  0.00000000000E+00 0.  1.
         21   -1    0    0  501  503 -0.00000000000E+00 -0.00000000000E+00 -0.21222113768E+03  0.21222113768E+03  0.00000000000E+00 0. -1.
    9000005    1    1    2  501    0 -0.77582997673E+02 -0.26115674453E+03  0.34168656429E+03  0.59242862436E+03  0.40000000000E+03 0. -1.
   -9000005    1    1    2    0  502  0.77582997673E+02  0.26115674453E+03  0.58736312329E+03  0.76106333859E+03  0.40000000000E+03 0.  1.
<mgrwt>
<rscale>  2 0.48396484E+03</rscale>
<asrwt>0</asrwt>
<pdfrwt beam="1">  1       21 0.17558012E+00 0.48396484E+03</pdfrwt>
<pdfrwt beam="2">  1       21 0.32649407E-01 0.48396484E+03</pdfrwt>
<totfact> 0.14703104E+03</totfact>
</mgrwt>
</event>
<event>
 4    1  0.4949719E-002  0.5596138E+03  0.7818608E-02  0.9992929E-01
         21   -1    0    0  501  502  0.00000000000E+00  0.00000000000E+00  0.11626984406E+04  0.11626984406E+04  0.00000000000E+00 0.  1.
         21   -1    0    0  502  503 -0.00000000000E+00 -0.00000000000E+00 -0.60522799248E+03  0.60522799248E+03  0.00000000000E+00 0.  1.
    9000005    1    1    2  501    0 -0.38919131832E+03 -0.41203291499E+02  0.93725432051E+03  0.10916103952E+04  0.40000000000E+03 0.  1.
   -9000005    1    1    2    0  503  0.38919131832E+03  0.41203291499E+02 -0.37978387237E+03  0.67631603795E+03  0.40000000000E+03 0.  1.
<mgrwt>
<rscale>  2 0.55961379E+03</rscale>
<asrwt>0</asrwt>
<pdfrwt beam="1">  1       21 0.17887668E+00 0.55961379E+03</pdfrwt>
<pdfrwt beam="2">  1       21 0.93111999E-01 0.55961379E+03</pdfrwt>
<totfact> 0.13752148E+02</totfact>
</mgrwt>
</event>
<event>
 4    1  0.4949719E-002  0.4330141E+03  0.7818608E-02  0.1032912E+00
         21   -1    0    0  501  502  0.00000000000E+00  0.00000000000E+00  0.74749413701E+03  0.74749413701E+03  0.00000000000E+00 0. -1.
         21   -1    0    0  502  503 -0.00000000000E+00 -0.00000000000E+00 -0.26863424593E+03  0.26863424593E+03  0.00000000000E+00 0. -1.
    9000005    1    1    2  501    0  0.12578168572E+03 -0.10807480611E+03  0.37019192887E+03  0.56968698456E+03  0.40000000000E+03 0. -1.
   -9000005    1    1    2    0  503 -0.12578168572E+03  0.10807480611E+03  0.10866796221E+03  0.44644139838E+03  0.40000000000E+03 0. -1.
<mgrwt>
<rscale>  2 0.43301408E+03</rscale>
<asrwt>0</asrwt>
<pdfrwt beam="1">  1       21 0.11499910E+00 0.43301408E+03</pdfrwt>
<pdfrwt beam="2">  1       21 0.41328346E-01 0.43301408E+03</pdfrwt>
<totfact> 0.28846099E+03</totfact>
</mgrwt>
</event>
<event>
 4    1  0.4949719E-002  0.4284876E+03  0.7818608E-02  0.1034339E+00
         21   -1    0    0  503  502  0.00000000000E+00  0.00000000000E+00  0.97113520399E+02  0.97113520399E+02  0.00000000000E+00 0. -1.
         21   -1    0    0  501  503 -0.00000000000E+00 -0.00000000000E+00 -0.21259933463E+04  0.21259933463E+04  0.00000000000E+00 0. -1.
    9000005    1    1    2  501    0  0.15352955562E+03  0.55040534554E+01 -0.64456241708E+03  0.77399116827E+03  0.40000000000E+03 0. -1.
   -9000005    1    1    2    0  502 -0.15352955562E+03 -0.55040534554E+01 -0.13843174088E+04  0.14491156984E+04  0.40000000000E+03 0. -1.
<mgrwt>
<rscale>  2 0.42848759E+03</rscale>
<asrwt>0</asrwt>
<pdfrwt beam="1">  1       21 0.14940541E-01 0.42848759E+03</pdfrwt>
<pdfrwt beam="2">  1       21 0.32707592E+00 0.42848759E+03</pdfrwt>
<totfact> 0.75868246E+02</totfact>
</mgrwt>
</event>
<event>
 4    1  0.4949719E-002  0.4018922E+03  0.7818608E-02  0.1043126E+00
         21   -1    0    0  503  502  0.00000000000E+00  0.00000000000E+00  0.15338455672E+04  0.15338455672E+04  0.00000000000E+00 0.  1.
         21   -1    0    0  501  503 -0.00000000000E+00 -0.00000000000E+00 -0.10814292509E+03  0.10814292509E+03  0.00000000000E+00 0.  1.
    9000005    1    1    2  501    0 -0.11103613379E+02  0.37336502063E+02  0.84591393862E+03  0.93652960240E+03  0.40000000000E+03 0. -1.
   -9000005    1    1    2    0  502  0.11103613379E+02 -0.37336502063E+02  0.57978870345E+03  0.70545888985E+03  0.40000000000E+03 0. -1.
<mgrwt>
<rscale>  2 0.40189216E+03</rscale>
<asrwt>0</asrwt>
<pdfrwt beam="1">  1       21 0.23597623E+00 0.40189216E+03</pdfrwt>
<pdfrwt beam="2">  1       21 0.16637374E-01 0.40189216E+03</pdfrwt>
<totfact> 0.22392250E+03</totfact>
</mgrwt>
</event>
<event>
 4    1  0.4949719E-002  0.4471085E+03  0.7818608E-02  0.1028588E+00
         21   -1    0    0  501  502  0.00000000000E+00  0.00000000000E+00  0.44247840564E+03  0.44247840564E+03  0.00000000000E+00 0. -1.
         21   -1    0    0  502  503 -0.00000000000E+00 -0.00000000000E+00 -0.59020353064E+03  0.59020353064E+03  0.00000000000E+00 0. -1.
    9000005    1    1    2  501    0 -0.23009380549E+02  0.19843523549E+03  0.17618908703E+03  0.48057108597E+03  0.40000000000E+03 0. -1.
   -9000005    1    1    2    0  503  0.23009380549E+02 -0.19843523549E+03 -0.32391421203E+03  0.55211085031E+03  0.40000000000E+03 0. -1.
<mgrwt>
<rscale>  2 0.44710846E+03</rscale>
<asrwt>0</asrwt>
<pdfrwt beam="1">  1       21 0.68073601E-01 0.44710846E+03</pdfrwt>
<pdfrwt beam="2">  1       21 0.90800544E-01 0.44710846E+03</pdfrwt>
<totfact> 0.17471841E+03</totfact>
</mgrwt>
</event>
<event>
 4    1  0.4949719E-002  0.4278913E+03  0.7818608E-02  0.1034528E+00
         21   -1    0    0  501  502  0.00000000000E+00  0.00000000000E+00  0.42522902659E+03  0.42522902659E+03  0.00000000000E+00 0. -1.
         21   -1    0    0  502  503 -0.00000000000E+00 -0.00000000000E+00 -0.57529355410E+03  0.57529355410E+03  0.00000000000E+00 0. -1.
    9000005    1    1    2  501    0  0.40638891059E+02  0.14642214898E+03  0.17587971217E+03  0.46262796968E+03  0.40000000000E+03 0. -1.
   -9000005    1    1    2    0  503 -0.40638891059E+02 -0.14642214898E+03 -0.32594423968E+03  0.53789461102E+03  0.40000000000E+03 0. -1.
<mgrwt>
<rscale>  2 0.42789130E+03</rscale>
<asrwt>0</asrwt>
<pdfrwt beam="1">  1       21 0.65419851E-01 0.42789130E+03</pdfrwt>
<pdfrwt beam="2">  1       21 0.88506700E-01 0.42789130E+03</pdfrwt>
<totfact> 0.20435892E+03</totfact>
</mgrwt>
</event>
<event>
 4    1  0.4949719E-002  0.4772210E+03  0.7818608E-02  0.1019902E+00
         21   -1    0    0  503  502  0.00000000000E+00  0.00000000000E+00  0.12310546696E+03  0.12310546696E+03  0.00000000000E+00 0.  1.
         21   -1    0    0  501  503 -0.00000000000E+00 -0.00000000000E+00 -0.19273907502E+04  0.19273907502E+04  0.00000000000E+00 0.  1.
    9000005    1    1    2  501    0 -0.95545826710E+02 -0.24209683741E+03 -0.11076407343E+04  0.12060712583E+04  0.40000000000E+03 0.  1.
   -9000005    1    1    2    0  502  0.95545826710E+02  0.24209683741E+03 -0.69664454893E+03  0.84442495892E+03  0.40000000000E+03 0.  1.
<mgrwt>
<rscale>  2 0.47722100E+03</rscale>
<asrwt>0</asrwt>
<pdfrwt beam="1">  1       21 0.18939302E-01 0.47722100E+03</pdfrwt>
<pdfrwt beam="2">  1       21 0.29652167E+00 0.47722100E+03</pdfrwt>
<totfact> 0.72351995E+02</totfact>
</mgrwt>
</event>
<event>
 4    1  0.4949719E-002  0.4348962E+03  0.7818608E-02  0.1032324E+00
         21   -1    0    0  501  502  0.00000000000E+00  0.00000000000E+00  0.98302646657E+03  0.98302646657E+03  0.00000000000E+00 0. -1.
         21   -1    0    0  502  503 -0.00000000000E+00 -0.00000000000E+00 -0.44247780180E+03  0.44247780180E+03  0.00000000000E+00 0. -1.
    9000005    1    1    2  501    0  0.16324483620E+03 -0.49858152949E+02  0.80610798200E+03  0.91593929417E+03  0.40000000000E+03 0. -1.
   -9000005    1    1    2    0  503 -0.16324483620E+03  0.49858152949E+02 -0.26555931723E+03  0.50956497420E+03  0.40000000000E+03 0. -1.
<mgrwt>
<rscale>  2 0.43489621E+03</rscale>
<asrwt>0</asrwt>
<pdfrwt beam="1">  1       21 0.15123484E+00 0.43489621E+03</pdfrwt>
<pdfrwt beam="2">  1       21 0.68073508E-01 0.43489621E+03</pdfrwt>
<totfact> 0.48294358E+02</totfact>
</mgrwt>
</event>
<event>
 4    1  0.4949719E-002  0.4048621E+03  0.7818608E-02  0.1042109E+00
         21   -1    0    0  503  502  0.00000000000E+00  0.00000000000E+00  0.15486389133E+03  0.15486389133E+03  0.00000000000E+00 0.  1.
         21   -1    0    0  501  503 -0.00000000000E+00 -0.00000000000E+00 -0.11957178760E+04  0.11957178760E+04  0.00000000000E+00 0.  1.
    9000005    1    1    2  501    0 -0.48508854337E+02  0.39499795220E+02 -0.74924221564E+03  0.85163210394E+03  0.40000000000E+03 0.  1.
   -9000005    1    1    2    0  502  0.48508854337E+02 -0.39499795220E+02 -0.29161176908E+03  0.49894966343E+03  0.40000000000E+03 0.  1.
<mgrwt>
<rscale>  2 0.40486213E+03</rscale>
<asrwt>0</asrwt>
<pdfrwt beam="1">  1       21 0.23825213E-01 0.40486213E+03</pdfrwt>
<pdfrwt beam="2">  1       21 0.18395660E+00 0.40486213E+03</pdfrwt>
<totfact> 0.24682877E+03</totfact>
</mgrwt>
</event>
<event>
 4    1  0.4949719E-002  0.5754608E+03  0.7818608E-02  0.9957667E-01
         21   -1    0    0  503  502  0.00000000000E+00  0.00000000000E+00  0.35752223373E+03  0.35752223373E+03  0.00000000000E+00 0. -1.
         21   -1    0    0  501  503 -0.00000000000E+00 -0.00000000000E+00 -0.96145384716E+03  0.96145384716E+03  0.00000000000E+00 0.  1.
    9000005    1    1    2  501    0 -0.37106929790E+03  0.18292807733E+03 -0.42815885024E+03  0.71726920076E+03  0.40000000000E+03 0.  1.
   -9000005    1    1    2    0  502  0.37106929790E+03 -0.18292807733E+03 -0.17577276319E+03  0.60170688013E+03  0.40000000000E+03 0. -1.
<mgrwt>
<rscale>  2 0.57546078E+03</rscale>
<asrwt>0</asrwt>
<pdfrwt beam="1">  1       21 0.55003421E-01 0.57546078E+03</pdfrwt>
<pdfrwt beam="2">  1       21 0.14791597E+00 0.57546078E+03</pdfrwt>
<totfact> 0.77557747E+02</totfact>
</mgrwt>
</event>
<event>
 4    1  0.4949719E-002  0.4262644E+03  0.7818608E-02  0.1035047E+00
         21   -1    0    0  503  502  0.00000000000E+00  0.00000000000E+00  0.50210130787E+03  0.50210130787E+03  0.00000000000E+00 0. -1.
         21   -1    0    0  501  503 -0.00000000000E+00 -0.00000000000E+00 -0.58657309614E+03  0.58657309614E+03  0.00000000000E+00 0. -1.
    9000005    1    1    2  501    0 -0.20333243620E+02 -0.14590359675E+03 -0.37913520229E+03  0.57047769628E+03  0.40000000000E+03 0. -1.
   -9000005    1    1    2    0  502  0.20333243620E+02  0.14590359675E+03  0.29466341402E+03  0.51819670773E+03  0.40000000000E+03 0. -1.
<mgrwt>
<rscale>  2 0.42626435E+03</rscale>
<asrwt>0</asrwt>
<pdfrwt beam="1">  1       21 0.77246355E-01 0.42626435E+03</pdfrwt>
<pdfrwt beam="2">  1       21 0.90242015E-01 0.42626435E+03</pdfrwt>
<totfact> 0.13426227E+03</totfact>
</mgrwt>
</event>
<event>
 4    1  0.4949719E-002  0.4856457E+03  0.7818608E-02  0.1017595E+00
         21   -1    0    0  503  502  0.00000000000E+00  0.00000000000E+00  0.49123122381E+03  0.49123122381E+03  0.00000000000E+00 0.  1.
         21   -1    0    0  501  503 -0.00000000000E+00 -0.00000000000E+00 -0.56215258595E+03  0.56215258595E+03  0.00000000000E+00 0.  1.
    9000005    1    1    2  501    0 -0.26553272647E+03  0.73103768431E+02 -0.23665362433E+03  0.54023765853E+03  0.40000000000E+03 0.  1.
   -9000005    1    1    2    0  502  0.26553272647E+03 -0.73103768431E+02  0.16573226219E+03  0.51314615123E+03  0.40000000000E+03 0.  1.
<mgrwt>
<rscale>  2 0.48564575E+03</rscale>
<asrwt>0</asrwt>
<pdfrwt beam="1">  1       21 0.75574035E-01 0.48564575E+03</pdfrwt>
<pdfrwt beam="2">  1       21 0.86485013E-01 0.48564575E+03</pdfrwt>
<totfact> 0.15250199E+03</totfact>
</mgrwt>
</event>
<event>
 4    1  0.4949719E-002  0.4021768E+03  0.7818608E-02  0.1043029E+00
         21   -1    0    0  503  502  0.00000000000E+00  0.00000000000E+00  0.40493265743E+03  0.40493265743E+03  0.00000000000E+00 0. -1.
         21   -1    0    0  501  503 -0.00000000000E+00 -0.00000000000E+00 -0.41069511348E+03  0.41069511348E+03  0.00000000000E+00 0. -1.
    9000005    1    1    2  501    0 -0.55831042625E+01 -0.41412621137E+02 -0.70393559948E+02  0.40829086388E+03  0.40000000000E+03 0. -1.
   -9000005    1    1    2    0  502  0.55831042625E+01  0.41412621137E+02  0.64631103899E+02  0.40733690704E+03  0.40000000000E+03 0. -1.
<mgrwt>
<rscale>  2 0.40217680E+03</rscale>
<asrwt>0</asrwt>
<pdfrwt beam="1">  1       21 0.62297332E-01 0.40217680E+03</pdfrwt>
<pdfrwt beam="2">  1       21 0.63183864E-01 0.40217680E+03</pdfrwt>
<totfact> 0.49542555E+03</totfact>
</mgrwt>
</event>
<event>
 4    1  0.4949719E-002  0.4379889E+03  0.7818608E-02  0.1031366E+00
         21   -1    0    0  503  502  0.00000000000E+00  0.00000000000E+00  0.52691115950E+03  0.52691115950E+03  0.00000000000E+00 0.  1.
         21   -1    0    0  501  503 -0.00000000000E+00 -0.00000000000E+00 -0.37241344170E+03  0.37241344170E+03  0.00000000000E+00 0.  1.
    9000005    1    1    2  501    0 -0.17770008958E+03  0.16030089144E+02  0.99573182086E+01  0.43810208146E+03  0.40000000000E+03 0.  1.
   -9000005    1    1    2    0  502  0.17770008958E+03 -0.16030089144E+02  0.14454039960E+03  0.46122251974E+03  0.40000000000E+03 0.  1.
<mgrwt>
<rscale>  2 0.43798891E+03</rscale>
<asrwt>0</asrwt>
<pdfrwt beam="1">  1       21 0.81063255E-01 0.43798891E+03</pdfrwt>
<pdfrwt beam="2">  1       21 0.57294376E-01 0.43798891E+03</pdfrwt>
<totfact> 0.33453757E+03</totfact>
</mgrwt>
</event>
<event>
 4    1  0.4949719E-002  0.5084559E+03  0.7818608E-02  0.1011595E+00
         21   -1    0    0  501  502  0.00000000000E+00  0.00000000000E+00  0.41774405338E+03  0.41774405338E+03  0.00000000000E+00 0.  1.
         21   -1    0    0  502  503 -0.00000000000E+00 -0.00000000000E+00 -0.98191502269E+03  0.98191502269E+03  0.00000000000E+00 0. -1.
    9000005    1    1    2  501    0  0.29358511278E+03 -0.11106394670E+03  0.14345237016E+03  0.52830483739E+03  0.40000000000E+03 0.  1.
   -9000005    1    1    2    0  503 -0.29358511278E+03  0.11106394670E+03 -0.70762333947E+03  0.87135423868E+03  0.40000000000E+03 0. -1.
<mgrwt>
<rscale>  2 0.50845592E+03</rscale>
<asrwt>0</asrwt>
<pdfrwt beam="1">  1       21 0.64268317E-01 0.50845592E+03</pdfrwt>
<pdfrwt beam="2">  1       21 0.15106385E+00 0.50845592E+03</pdfrwt>
<totfact> 0.53314064E+02</totfact>
</mgrwt>
</event>
<event>
 4    1  0.4949719E-002  0.4086822E+03  0.7818608E-02  0.1040814E+00
         21   -1    0    0  503  502  0.00000000000E+00  0.00000000000E+00  0.31716727772E+03  0.31716727772E+03  0.00000000000E+00 0. -1.
         21   -1    0    0  501  503 -0.00000000000E+00 -0.00000000000E+00 -0.71749971807E+03  0.71749971807E+03  0.00000000000E+00 0. -1.
    9000005    1    1    2  501    0  0.82178406340E+02 -0.16367187484E+02  0.66678857379E+02  0.41408603613E+03  0.40000000000E+03 0. -1.
   -9000005    1    1    2    0  502 -0.82178406340E+02  0.16367187484E+02 -0.46701129772E+03  0.62058095966E+03  0.40000000000E+03 0. -1.
<mgrwt>
<rscale>  2 0.40868224E+03</rscale>
<asrwt>0</asrwt>
<pdfrwt beam="1">  1       21 0.48794966E-01 0.40868224E+03</pdfrwt>
<pdfrwt beam="2">  1       21 0.11038457E+00 0.40868224E+03</pdfrwt>
<totfact> 0.22784589E+03</totfact>
</mgrwt>
</event>
<event>
 4    1  0.4949719E-002  0.4265004E+03  0.7818608E-02  0.1034971E+00
         21   -1    0    0  503  502  0.00000000000E+00  0.00000000000E+00  0.26026472327E+03  0.26026472327E+03  0.00000000000E+00 0.  1.
         21   -1    0    0  501  503 -0.00000000000E+00 -0.00000000000E+00 -0.77991733192E+03  0.77991733192E+03  0.00000000000E+00 0.  1.
    9000005    1    1    2  501    0 -0.14755055106E+03  0.11464015172E+02 -0.42743912655E+03  0.60382679277E+03  0.40000000000E+03 0.  1.
   -9000005    1    1    2    0  502  0.14755055106E+03 -0.11464015172E+02 -0.92213482097E+02  0.43635526242E+03  0.40000000000E+03 0.  1.
<mgrwt>
<rscale>  2 0.42650040E+03</rscale>
<asrwt>0</asrwt>
<pdfrwt beam="1">  1       21 0.40040727E-01 0.42650040E+03</pdfrwt>
<pdfrwt beam="2">  1       21 0.11998728E+00 0.42650040E+03</pdfrwt>
<totfact> 0.27742092E+03</totfact>
</mgrwt>
</event>
<event>
 4    1  0.4949719E-002  0.5133226E+03  0.7818608E-02  0.1010359E+00
         21   -1    0    0  503  502  0.00000000000E+00  0.00000000000E+00  0.10974657496E+04  0.10974657496E+04  0.00000000000E+00 0.  1.
         21   -1    0    0  501  503 -0.00000000000E+00 -0.00000000000E+00 -0.29998093521E+03  0.29998093521E+03  0.00000000000E+00 0.  1.
    9000005    1    1    2  501    0  0.31290297559E+03  0.74778708186E+02  0.86560783550E+02  0.52056978070E+03  0.40000000000E+03 0.  1.
   -9000005    1    1    2    0  502 -0.31290297559E+03 -0.74778708186E+02  0.71092403081E+03  0.87687690409E+03  0.40000000000E+03 0.  1.
<mgrwt>
<rscale>  2 0.51332263E+03</rscale>
<asrwt>0</asrwt>
<pdfrwt beam="1">  1       21 0.16884088E+00 0.51332263E+03</pdfrwt>
<pdfrwt beam="2">  1       21 0.46150914E-01 0.51332263E+03</pdfrwt>
<totfact> 0.79820549E+02</totfact>
</mgrwt>
</event>
<event>
 4    1  0.4949719E-002  0.4168389E+03  0.7818608E-02  0.1038100E+00
         21   -1    0    0  503  502  0.00000000000E+00  0.00000000000E+00  0.41624773628E+03  0.41624773628E+03  0.00000000000E+00 0.  1.
         21   -1    0    0  501  503 -0.00000000000E+00 -0.00000000000E+00 -0.94158584283E+03  0.94158584283E+03  0.00000000000E+00 0. -1.
    9000005    1    1    2  501    0  0.11657339264E+03  0.12859010401E+02 -0.76921213591E+03  0.87489543378E+03  0.40000000000E+03 0. -1.
   -9000005    1    1    2    0  502 -0.11657339264E+03 -0.12859010401E+02  0.24387402935E+03  0.48293814533E+03  0.40000000000E+03 0.  1.
<mgrwt>
<rscale>  2 0.41683895E+03</rscale>
<asrwt>0</asrwt>
<pdfrwt beam="1">  1       21 0.64038114E-01 0.41683895E+03</pdfrwt>
<pdfrwt beam="2">  1       21 0.14485936E+00 0.41683895E+03</pdfrwt>
<totfact> 0.62696109E+02</totfact>
</mgrwt>
</event>
<event>
 4    1  0.4949719E-002  0.4296542E+03  0.7818608E-02  0.1033969E+00
         21   -1    0    0  503  502  0.00000000000E+00  0.00000000000E+00  0.91311792133E+03  0.91311792133E+03  0.00000000000E+00 0.  1.
         21   -1    0    0  501  503 -0.00000000000E+00 -0.00000000000E+00 -0.25993898634E+03  0.25993898634E+03  0.00000000000E+00 0.  1.
    9000005    1    1    2  501    0 -0.67718114343E+02 -0.14148151651E+03  0.50079898317E+02  0.43256301129E+03  0.40000000000E+03 0.  1.
   -9000005    1    1    2    0  502  0.67718114343E+02  0.14148151651E+03  0.60309903668E+03  0.74049389637E+03  0.40000000000E+03 0.  1.
<mgrwt>
<rscale>  2 0.42965424E+03</rscale>
<asrwt>0</asrwt>
<pdfrwt beam="1">  1       21 0.14047968E+00 0.42965424E+03</pdfrwt>
<pdfrwt beam="2">  1       21 0.39990614E-01 0.42965424E+03</pdfrwt>
<totfact> 0.18453825E+03</totfact>
</mgrwt>
</event>
<event>
 4    1  0.4949719E-002  0.4342185E+03  0.7818608E-02  0.1032536E+00
         21   -1    0    0  501  502  0.00000000000E+00  0.00000000000E+00  0.70245870638E+03  0.70245870638E+03  0.00000000000E+00 0. -1.
         21   -1    0    0  502  503 -0.00000000000E+00 -0.00000000000E+00 -0.13812722974E+04  0.13812722974E+04  0.00000000000E+00 0. -1.
    9000005    1    1    2  501    0 -0.10334653894E+03 -0.13366086922E+03  0.59576856722E+03  0.73721497595E+03  0.40000000000E+03 0. -1.
   -9000005    1    1    2    0  503  0.10334653894E+03  0.13366086922E+03 -0.12745821582E+04  0.13465160278E+04  0.40000000000E+03 0. -1.
<mgrwt>
<rscale>  2 0.43421853E+03</rscale>
<asrwt>0</asrwt>
<pdfrwt beam="1">  1       21 0.10807057E+00 0.43421853E+03</pdfrwt>
<pdfrwt beam="2">  1       21 0.21250343E+00 0.43421853E+03</pdfrwt>
<totfact> 0.60419334E+01</totfact>
</mgrwt>
</event>
<event>
 4    1  0.4949719E-002  0.4222033E+03  0.7818608E-02  0.1036352E+00
         21   -1    0    0  501  502  0.00000000000E+00  0.00000000000E+00  0.85640146751E+03  0.85640146751E+03  0.00000000000E+00 0. -1.
         21   -1    0    0  502  503 -0.00000000000E+00 -0.00000000000E+00 -0.21184271859E+03  0.21184271859E+03  0.00000000000E+00 0. -1.
    9000005    1    1    2  501    0 -0.11418592024E+03  0.72230387133E+02  0.25171219258E+03  0.49154316301E+03  0.40000000000E+03 0. -1.
   -9000005    1    1    2    0  503  0.11418592024E+03 -0.72230387133E+02  0.39284655634E+03  0.57670102309E+03  0.40000000000E+03 0. -1.
<mgrwt>
<rscale>  2 0.42220333E+03</rscale>
<asrwt>0</asrwt>
<pdfrwt beam="1">  1       21 0.13175407E+00 0.42220333E+03</pdfrwt>
<pdfrwt beam="2">  1       21 0.32591188E-01 0.42220333E+03</pdfrwt>
<totfact> 0.33180085E+03</totfact>
</mgrwt>
</event>
<event>
 4    1  0.4949719E-002  0.4197245E+03  0.7818608E-02  0.1037156E+00
         21   -1    0    0  503  502  0.00000000000E+00  0.00000000000E+00  0.92575368065E+03  0.92575368065E+03  0.00000000000E+00 0. -1.
         21   -1    0    0  501  503 -0.00000000000E+00 -0.00000000000E+00 -0.23152397256E+03  0.23152397256E+03  0.00000000000E+00 0. -1.
    9000005    1    1    2  501    0 -0.87396869567E+02 -0.92360189205E+02  0.10294185290E+03  0.43216390691E+03  0.40000000000E+03 0. -1.
   -9000005    1    1    2    0  502  0.87396869567E+02  0.92360189205E+02  0.59128785519E+03  0.72511374629E+03  0.40000000000E+03 0. -1.
<mgrwt>
<rscale>  2 0.41972445E+03</rscale>
<asrwt>0</asrwt>
<pdfrwt beam="1">  1       21 0.14242364E+00 0.41972445E+03</pdfrwt>
<pdfrwt beam="2">  1       21 0.35619073E-01 0.41972445E+03</pdfrwt>
<totfact> 0.22623944E+03</totfact>
</mgrwt>
</event>
<event>
 4    1  0.4949719E-002  0.4481649E+03  0.7818608E-02  0.1028271E+00
         21   -1    0    0  503  502  0.00000000000E+00  0.00000000000E+00  0.11132944595E+04  0.11132944595E+04  0.00000000000E+00 0.  1.
         21   -1    0    0  501  503 -0.00000000000E+00 -0.00000000000E+00 -0.22989263077E+03  0.22989263077E+03  0.00000000000E+00 0.  1.
    9000005    1    1    2  501    0  0.17794914518E+02 -0.20133327464E+03  0.13012682093E+03  0.46667412183E+03  0.40000000000E+03 0. -1.
   -9000005    1    1    2    0  502 -0.17794914518E+02  0.20133327464E+03  0.75327500784E+03  0.87651296847E+03  0.40000000000E+03 0. -1.
<mgrwt>
<rscale>  2 0.44816487E+03</rscale>
<asrwt>0</asrwt>
<pdfrwt beam="1">  1       21 0.17127607E+00 0.44816487E+03</pdfrwt>
<pdfrwt beam="2">  1       21 0.35368098E-01 0.44816487E+03</pdfrwt>
<totfact> 0.13637874E+03</totfact>
</mgrwt>
</event>
<event>
 4    1  0.4949719E-002  0.4663466E+03  0.7818608E-02  0.1022956E+00
         21   -1    0    0  503  502  0.00000000000E+00  0.00000000000E+00  0.16567617524E+03  0.16567617524E+03  0.00000000000E+00 0. -1.
         21   -1    0    0  501  503 -0.00000000000E+00 -0.00000000000E+00 -0.14777248587E+04  0.14777248587E+04  0.00000000000E+00 0. -1.
    9000005    1    1    2  501    0 -0.16616869446E+03 -0.17282098353E+03 -0.38141005603E+03  0.60245560683E+03  0.40000000000E+03 0. -1.
   -9000005    1    1    2    0  502  0.16616869446E+03  0.17282098353E+03 -0.93063862747E+03  0.10409454271E+04  0.40000000000E+03 0. -1.
<mgrwt>
<rscale>  2 0.46634657E+03</rscale>
<asrwt>0</asrwt>
<pdfrwt beam="1">  1       21 0.25488642E-01 0.46634657E+03</pdfrwt>
<pdfrwt beam="2">  1       21 0.22734229E+00 0.46634657E+03</pdfrwt>
<totfact> 0.10898052E+03</totfact>
</mgrwt>
</event>
<event>
 4    1  0.4949719E-002  0.4571601E+03  0.7818608E-02  0.1025608E+00
         21   -1    0    0  503  502  0.00000000000E+00  0.00000000000E+00  0.77310803428E+03  0.77310803428E+03  0.00000000000E+00 0.  1.
         21   -1    0    0  501  503 -0.00000000000E+00 -0.00000000000E+00 -0.76307733524E+03  0.76307733524E+03  0.00000000000E+00 0. -1.
    9000005    1    1    2  501    0  0.15429355353E+03 -0.15870999113E+03 -0.61220592309E+03  0.76406246748E+03  0.40000000000E+03 0. -1.
   -9000005    1    1    2    0  502 -0.15429355353E+03  0.15870999113E+03  0.62223662213E+03  0.77212290204E+03  0.40000000000E+03 0.  1.
<mgrwt>
<rscale>  2 0.45716011E+03</rscale>
<asrwt>0</asrwt>
<pdfrwt beam="1">  1       21 0.11893970E+00 0.45716011E+03</pdfrwt>
<pdfrwt beam="2">  1       21 0.11739651E+00 0.45716011E+03</pdfrwt>
<totfact> 0.24659358E+02</totfact>
</mgrwt>
</event>
<event>
 4    1  0.4949719E-002  0.4316132E+03  0.7818608E-02  0.1033352E+00
         21   -1    0    0  501  502  0.00000000000E+00  0.00000000000E+00  0.13457939359E+03  0.13457939359E+03  0.00000000000E+00 0. -1.
         21   -1    0    0  502  503 -0.00000000000E+00 -0.00000000000E+00 -0.17250390766E+04  0.17250390766E+04  0.00000000000E+00 0. -1.
    9000005    1    1    2  501    0 -0.93791766025E+02  0.13226147467E+03 -0.38194975914E+03  0.57634678065E+03  0.40000000000E+03 0. -1.
   -9000005    1    1    2    0  503  0.93791766025E+02 -0.13226147467E+03 -0.12085099239E+04  0.12832716895E+04  0.40000000000E+03 0. -1.
<mgrwt>
<rscale>  2 0.43161324E+03</rscale>
<asrwt>0</asrwt>
<pdfrwt beam="1">  1       21 0.20704522E-01 0.43161324E+03</pdfrwt>
<pdfrwt beam="2">  1       21 0.26539063E+00 0.43161324E+03</pdfrwt>
<totfact> 0.96411194E+02</totfact>
</mgrwt>
</event>
<event>
 4    1  0.4949719E-002  0.4348483E+03  0.7818608E-02  0.1032339E+00
         21   -1    0    0  501  502  0.00000000000E+00  0.00000000000E+00  0.66036041578E+03  0.66036041578E+03  0.00000000000E+00 0.  1.
         21   -1    0    0  502  503 -0.00000000000E+00 -0.00000000000E+00 -0.12830408758E+04  0.12830408758E+04  0.00000000000E+00 0.  1.
    9000005    1    1    2  501    0 -0.13520567484E+03  0.10398292258E+03  0.54509175102E+03  0.69729336705E+03  0.40000000000E+03 0.  1.
   -9000005    1    1    2    0  503  0.13520567484E+03 -0.10398292258E+03 -0.11677722110E+04  0.12461079245E+04  0.40000000000E+03 0.  1.
<mgrwt>
<rscale>  2 0.43484828E+03</rscale>
<asrwt>0</asrwt>
<pdfrwt beam="1">  1       21 0.10159391E+00 0.43484828E+03</pdfrwt>
<pdfrwt beam="2">  1       21 0.19739090E+00 0.43484828E+03</pdfrwt>
<totfact> 0.88403664E+01</totfact>
</mgrwt>
</event>
<event>
 4    1  0.4949719E-002  0.4270359E+03  0.7818608E-02  0.1034800E+00
         21   -1    0    0  501  502  0.00000000000E+00  0.00000000000E+00  0.61533970168E+03  0.61533970168E+03  0.00000000000E+00 0.  1.
         21   -1    0    0  502  503 -0.00000000000E+00 -0.00000000000E+00 -0.31543514707E+03  0.31543514707E+03  0.00000000000E+00 0.  1.
    9000005    1    1    2  501    0  0.12822358524E+03 -0.76930927489E+02  0.35496349839E+02  0.42850863033E+03  0.40000000000E+03 0.  1.
   -9000005    1    1    2    0  503 -0.12822358524E+03  0.76930927489E+02  0.26440820477E+03  0.50226621842E+03  0.40000000000E+03 0.  1.
<mgrwt>
<rscale>  2 0.42703589E+03</rscale>
<asrwt>0</asrwt>
<pdfrwt beam="1">  1       21 0.94667646E-01 0.42703589E+03</pdfrwt>
<pdfrwt beam="2">  1       21 0.48528484E-01 0.42703589E+03</pdfrwt>
<totfact> 0.33280348E+03</totfact>
</mgrwt>
</event>
<event>
 4    1  0.4949719E-002  0.4570358E+03  0.7818608E-02  0.1025644E+00
         21   -1    0    0  501  502  0.00000000000E+00  0.00000000000E+00  0.17720781544E+03  0.17720781544E+03  0.00000000000E+00 0.  1.
         21   -1    0    0  502  503 -0.00000000000E+00 -0.00000000000E+00 -0.11882911666E+04  0.11882911666E+04  0.00000000000E+00 0.  1.
    9000005    1    1    2  501    0  0.15136236566E+03 -0.16115561725E+03 -0.44432649108E+03  0.63742272424E+03  0.40000000000E+03 0.  1.
   -9000005    1    1    2    0  503 -0.15136236566E+03  0.16115561725E+03 -0.56675686011E+03  0.72807625781E+03  0.40000000000E+03 0.  1.
<mgrwt>
<rscale>  2 0.45703577E+03</rscale>
<asrwt>0</asrwt>
<pdfrwt beam="1">  1       21 0.27262742E-01 0.45703577E+03</pdfrwt>
<pdfrwt beam="2">  1       21 0.18281402E+00 0.45703577E+03</pdfrwt>
<totfact> 0.18904499E+03</totfact>
</mgrwt>
</event>
<event>
 4    1  0.4949719E-002  0.4012083E+03  0.7818608E-02  0.1043362E+00
         21   -1    0    0  501  502  0.00000000000E+00  0.00000000000E+00  0.90479645191E+03  0.90479645191E+03  0.00000000000E+00 0.  1.
         21   -1    0    0  502  503 -0.00000000000E+00 -0.00000000000E+00 -0.35069480683E+03  0.35069480683E+03  0.00000000000E+00 0.  1.
    9000005    1    1    2  501    0 -0.30395247441E+02  0.66489831335E+01  0.71768453202E+03  0.82221601027E+03  0.40000000000E+03 0.  1.
   -9000005    1    1    2    0  503  0.30395247441E+02 -0.66489831335E+01 -0.16358288693E+03  0.43327524847E+03  0.40000000000E+03 0.  1.
<mgrwt>
<rscale>  2 0.40120828E+03</rscale>
<asrwt>0</asrwt>
<pdfrwt beam="1">  1       21 0.13919945E+00 0.40120828E+03</pdfrwt>
<pdfrwt beam="2">  1       21 0.53953048E-01 0.40120828E+03</pdfrwt>
<totfact> 0.10205778E+03</totfact>
</mgrwt>
</event>
<event>
 4    1  0.4949719E-002  0.4993005E+03  0.7818608E-02  0.1013962E+00
         21   -1    0    0  503  502  0.00000000000E+00  0.00000000000E+00  0.36036142034E+03  0.36036142034E+03  0.00000000000E+00 0.  1.
         21   -1    0    0  501  503 -0.00000000000E+00 -0.00000000000E+00 -0.72354301888E+03  0.72354301888E+03  0.00000000000E+00 0.  1.
    9000005    1    1    2  501    0  0.18290821139E+03  0.23631668013E+03 -0.29509104537E+03  0.57998251022E+03  0.40000000000E+03 0. -1.
   -9000005    1    1    2    0  502 -0.18290821139E+03 -0.23631668013E+03 -0.68090553171E+02  0.50392192901E+03  0.40000000000E+03 0. -1.
<mgrwt>
<rscale>  2 0.49930050E+03</rscale>
<asrwt>0</asrwt>
<pdfrwt beam="1">  1       21 0.55440219E-01 0.49930050E+03</pdfrwt>
<pdfrwt beam="2">  1       21 0.11131431E+00 0.49930050E+03</pdfrwt>
<totfact> 0.16404175E+03</totfact>
</mgrwt>
</event>
<event>
 4    1  0.4949719E-002  0.4275448E+03  0.7818608E-02  0.1034638E+00
         21   -1    0    0  501  502  0.00000000000E+00  0.00000000000E+00  0.46823168546E+03  0.46823168546E+03  0.00000000000E+00 0.  1.
         21   -1    0    0  502  503 -0.00000000000E+00 -0.00000000000E+00 -0.39370944001E+03  0.39370944001E+03  0.00000000000E+00 0.  1.
    9000005    1    1    2  501    0 -0.27326721549E+02  0.14848490609E+03  0.76813768084E+02  0.43439023011E+03  0.40000000000E+03 0.  1.
   -9000005    1    1    2    0  503  0.27326721549E+02 -0.14848490609E+03 -0.22915226255E+01  0.42755089536E+03  0.40000000000E+03 0.  1.
<mgrwt>
<rscale>  2 0.42754475E+03</rscale>
<asrwt>0</asrwt>
<pdfrwt beam="1">  1       21 0.72035644E-01 0.42754475E+03</pdfrwt>
<pdfrwt beam="2">  1       21 0.60570683E-01 0.42754475E+03</pdfrwt>
<totfact> 0.38961598E+03</totfact>
</mgrwt>
</event>
<event>
 4    1  0.4949719E-002  0.4110873E+03  0.7818608E-02  0.1040007E+00
         21   -1    0    0  501  502  0.00000000000E+00  0.00000000000E+00  0.10339635880E+04  0.10339635880E+04  0.00000000000E+00 0.  1.
         21   -1    0    0  502  503 -0.00000000000E+00 -0.00000000000E+00 -0.72125720764E+03  0.72125720764E+03  0.00000000000E+00 0.  1.
    9000005    1    1    2  501    0  0.52269949107E+02 -0.79124199626E+02  0.92814819130E+03  0.10151117434E+04  0.40000000000E+03 0.  1.
   -9000005    1    1    2    0  503 -0.52269949107E+02  0.79124199626E+02 -0.61544181096E+03  0.74010905225E+03  0.40000000000E+03 0.  1.
<mgrwt>
<rscale>  2 0.41108732E+03</rscale>
<asrwt>0</asrwt>
<pdfrwt beam="1">  1       21 0.15907132E+00 0.41108732E+03</pdfrwt>
<pdfrwt beam="2">  1       21 0.11096265E+00 0.41108732E+03</pdfrwt>
<totfact> 0.13488627E+02</totfact>
</mgrwt>
</event>
<event>
 4    1  0.4949719E-002  0.4177050E+03  0.7818608E-02  0.1037816E+00
         21   -1    0    0  501  502  0.00000000000E+00  0.00000000000E+00  0.17088856255E+03  0.17088856255E+03  0.00000000000E+00 0. -1.
         21   -1    0    0  502  503 -0.00000000000E+00 -0.00000000000E+00 -0.12665083319E+04  0.12665083319E+04  0.00000000000E+00 0. -1.
    9000005    1    1    2  501    0 -0.11448194537E+03  0.37032032910E+02 -0.23138223345E+03  0.47750939806E+03  0.40000000000E+03 0. -1.
   -9000005    1    1    2    0  503  0.11448194537E+03 -0.37032032910E+02 -0.86423753593E+03  0.95988749642E+03  0.40000000000E+03 0. -1.
<mgrwt>
<rscale>  2 0.41770502E+03</rscale>
<asrwt>0</asrwt>
<pdfrwt beam="1">  1       21 0.26290548E-01 0.41770502E+03</pdfrwt>
<pdfrwt beam="2">  1       21 0.19484744E+00 0.41770502E+03</pdfrwt>
<totfact> 0.17075970E+03</totfact>
</mgrwt>
</event>
<event>
 4    1  0.4949719E-002  0.4037412E+03  0.7818608E-02  0.1042492E+00
         21   -1    0    0  501  502  0.00000000000E+00  0.00000000000E+00  0.96144719919E+03  0.96144719919E+03  0.00000000000E+00 0.  1.
         21   -1    0    0  502  503 -0.00000000000E+00 -0.00000000000E+00 -0.33974565102E+03  0.33974565102E+03  0.00000000000E+00 0.  1.
    9000005    1    1    2  501    0  0.51901021112E+02  0.17699318936E+02  0.77133783253E+03  0.87061417044E+03  0.40000000000E+03 0.  1.
   -9000005    1    1    2    0  503 -0.51901021112E+02 -0.17699318936E+02 -0.14963628435E+03  0.43057867978E+03  0.40000000000E+03 0.  1.
<mgrwt>
<rscale>  2 0.40374123E+03</rscale>
<asrwt>0</asrwt>
<pdfrwt beam="1">  1       21 0.14791495E+00 0.40374123E+03</pdfrwt>
<pdfrwt beam="2">  1       21 0.52268562E-01 0.40374123E+03</pdfrwt>
<totfact> 0.92760016E+02</totfact>
</mgrwt>
</event>
<event>
 4    1  0.4949719E-002  0.5156367E+03  0.7818608E-02  0.1009776E+00
         21   -1    0    0  503  502  0.00000000000E+00  0.00000000000E+00  0.28030134657E+03  0.28030134657E+03  0.00000000000E+00 0.  1.
         21   -1    0    0  501  503 -0.00000000000E+00 -0.00000000000E+00 -0.12790159905E+04  0.12790159905E+04  0.00000000000E+00 0.  1.
    9000005    1    1    2  501    0 -0.22336778540E+03  0.23661801818E+03 -0.10305501465E+03  0.52583418501E+03  0.40000000000E+03 0.  1.
   -9000005    1    1    2    0  502  0.22336778540E+03 -0.23661801818E+03 -0.89565962927E+03  0.10334831521E+04  0.40000000000E+03 0.  1.
<mgrwt>
<rscale>  2 0.51563675E+03</rscale>
<asrwt>0</asrwt>
<pdfrwt beam="1">  1       21 0.43123285E-01 0.51563675E+03</pdfrwt>
<pdfrwt beam="2">  1       21 0.19677168E+00 0.51563675E+03</pdfrwt>
<totfact> 0.58494132E+02</totfact>
</mgrwt>
</event>
<event>
 4    1  0.4949719E-002  0.4383197E+03  0.7818608E-02  0.1031264E+00
         21   -1    0    0  501  502  0.00000000000E+00  0.00000000000E+00  0.78337296992E+03  0.78337296992E+03  0.00000000000E+00 0. -1.
         21   -1    0    0  502  503 -0.00000000000E+00 -0.00000000000E+00 -0.26863393779E+03  0.26863393779E+03  0.00000000000E+00 0. -1.
    9000005    1    1    2  501    0 -0.13246681681E+02 -0.17874201820E+03  0.41255236195E+03  0.60193324796E+03  0.40000000000E+03 0. -1.
   -9000005    1    1    2    0  503  0.13246681681E+02  0.17874201820E+03  0.10218667018E+03  0.45007365976E+03  0.40000000000E+03 0. -1.
<mgrwt>
<rscale>  2 0.43831973E+03</rscale>
<asrwt>0</asrwt>
<pdfrwt beam="1">  1       21 0.12051892E+00 0.43831973E+03</pdfrwt>
<pdfrwt beam="2">  1       21 0.41328298E-01 0.43831973E+03</pdfrwt>
<totfact> 0.25580736E+03</totfact>
</mgrwt>
</event>
<event>
 4    1  0.4949719E-002  0.4095056E+03  0.7818608E-02  0.1040537E+00
         21   -1    0    0  501  502  0.00000000000E+00  0.00000000000E+00  0.24395665994E+03  0.24395665994E+03  0.00000000000E+00 0.  1.
         21   -1    0    0  502  503 -0.00000000000E+00 -0.00000000000E+00 -0.98469580033E+03  0.98469580033E+03  0.00000000000E+00 0.  1.
    9000005    1    1    2  501    0 -0.87616570559E+02 -0.42672155554E+01 -0.32814058175E+02  0.41081825054E+03  0.40000000000E+03 0. -1.
   -9000005    1    1    2    0  503  0.87616570559E+02  0.42672155554E+01 -0.70792508222E+03  0.81783420973E+03  0.40000000000E+03 0. -1.
<mgrwt>
<rscale>  2 0.40950564E+03</rscale>
<asrwt>0</asrwt>
<pdfrwt beam="1">  1       21 0.37531794E-01 0.40950564E+03</pdfrwt>
<pdfrwt beam="2">  1       21 0.15149166E+00 0.40950564E+03</pdfrwt>
<totfact> 0.17304853E+03</totfact>
</mgrwt>
</event>
<event>
 4    1  0.4949719E-002  0.6720616E+03  0.7818608E-02  0.9766241E-01
         21   -1    0    0  503  502  0.00000000000E+00  0.00000000000E+00  0.30538400179E+03  0.30538400179E+03  0.00000000000E+00 0.  1.
         21   -1    0    0  501  503 -0.00000000000E+00 -0.00000000000E+00 -0.16147139359E+04  0.16147139359E+04  0.00000000000E+00 0.  1.
    9000005    1    1    2  501    0  0.31266973916E+03  0.44034576040E+03 -0.37634919525E+03  0.77026324802E+03  0.40000000000E+03 0.  1.
   -9000005    1    1    2    0  502 -0.31266973916E+03 -0.44034576040E+03 -0.93298073888E+03  0.11498346897E+04  0.40000000000E+03 0.  1.
<mgrwt>
<rscale>  2 0.67206157E+03</rscale>
<asrwt>0</asrwt>
<pdfrwt beam="1">  1       21 0.46982155E-01 0.67206157E+03</pdfrwt>
<pdfrwt beam="2">  1       21 0.24841753E+00 0.67206157E+03</pdfrwt>
<totfact> 0.21301644E+02</totfact>
</mgrwt>
</event>
<event>
 4    1  0.4949719E-002  0.4071573E+03  0.7818608E-02  0.1041329E+00
         21   -1    0    0  501  502  0.00000000000E+00  0.00000000000E+00  0.22946474883E+03  0.22946474883E+03  0.00000000000E+00 0.  1.
         21   -1    0    0  502  503 -0.00000000000E+00 -0.00000000000E+00 -0.72778182837E+03  0.72778182837E+03  0.00000000000E+00 0.  1.
    9000005    1    1    2  501    0 -0.73762055713E+02  0.18337123285E+02 -0.29012052912E+03  0.49994700956E+03  0.40000000000E+03 0.  1.
   -9000005    1    1    2    0  503  0.73762055713E+02 -0.18337123285E+02 -0.20819655042E+03  0.45729956764E+03  0.40000000000E+03 0.  1.
<mgrwt>
<rscale>  2 0.40715733E+03</rscale>
<asrwt>0</asrwt>
<pdfrwt beam="1">  1       21 0.35302269E-01 0.40715733E+03</pdfrwt>
<pdfrwt beam="2">  1       21 0.11196644E+00 0.40715733E+03</pdfrwt>
<totfact> 0.42968556E+03</totfact>
</mgrwt>
</event>
<event>
 4    1  0.4949719E-002  0.4257208E+03  0.7818608E-02  0.1035220E+00
         21   -1    0    0  501  502  0.00000000000E+00  0.00000000000E+00  0.92225876971E+03  0.92225876971E+03  0.00000000000E+00 0. -1.
         21   -1    0    0  502  503 -0.00000000000E+00 -0.00000000000E+00 -0.30528087155E+03  0.30528087155E+03  0.00000000000E+00 0. -1.
    9000005    1    1    2  501    0 -0.11680392448E+03 -0.87149631673E+02  0.67484291906E+03  0.79790424268E+03  0.40000000000E+03 0. -1.
   -9000005    1    1    2    0  503  0.11680392448E+03  0.87149631673E+02 -0.57865020904E+02  0.42963539859E+03  0.40000000000E+03 0. -1.
<mgrwt>
<rscale>  2 0.42572082E+03</rscale>
<asrwt>0</asrwt>
<pdfrwt beam="1">  1       21 0.14188596E+00 0.42572082E+03</pdfrwt>
<pdfrwt beam="2">  1       21 0.46966288E-01 0.42572082E+03</pdfrwt>
<totfact> 0.12880468E+03</totfact>
</mgrwt>
</event>
<event>
 4    1  0.4949719E-002  0.4997282E+03  0.7818608E-02  0.1013850E+00
         21   -1    0    0  501  502  0.00000000000E+00  0.00000000000E+00  0.22854057898E+03  0.22854057898E+03  0.00000000000E+00 0.  1.
         21   -1    0    0  502  503 -0.00000000000E+00 -0.00000000000E+00 -0.10942967935E+04  0.10942967935E+04  0.00000000000E+00 0.  1.
    9000005    1    1    2  501    0 -0.25840661720E+02 -0.29843015910E+03 -0.40768193653E+03  0.64492857049E+03  0.40000000000E+03 0.  1.
   -9000005    1    1    2    0  503  0.25840661720E+02  0.29843015910E+03 -0.45807427798E+03  0.67790880199E+03  0.40000000000E+03 0.  1.
<mgrwt>
<rscale>  2 0.49972823E+03</rscale>
<asrwt>0</asrwt>
<pdfrwt beam="1">  1       21 0.35160089E-01 0.49972823E+03</pdfrwt>
<pdfrwt beam="2">  1       21 0.16835335E+00 0.49972823E+03</pdfrwt>
<totfact> 0.14197067E+03</totfact>
</mgrwt>
</event>
<event>
 4    1  0.4949719E-002  0.4894321E+03  0.7818608E-02  0.1016575E+00
         21   -1    0    0  501  502  0.00000000000E+00  0.00000000000E+00  0.14591952090E+03  0.14591952090E+03  0.00000000000E+00 0.  1.
         21   -1    0    0  502  503 -0.00000000000E+00 -0.00000000000E+00 -0.18498134632E+04  0.18498134632E+04  0.00000000000E+00 0. -1.
    9000005    1    1    2  501    0  0.17141933626E+03  0.22396244989E+03 -0.51717694758E+03  0.71205039352E+03  0.40000000000E+03 0.  1.
   -9000005    1    1    2    0  503 -0.17141933626E+03 -0.22396244989E+03 -0.11867169947E+04  0.12836825906E+04  0.40000000000E+03 0. -1.
<mgrwt>
<rscale>  2 0.48943209E+03</rscale>
<asrwt>0</asrwt>
<pdfrwt beam="1">  1       21 0.22449157E-01 0.48943209E+03</pdfrwt>
<pdfrwt beam="2">  1       21 0.28458668E+00 0.48943209E+03</pdfrwt>
<totfact> 0.61315768E+02</totfact>
</mgrwt>
</event>
<event>
 4    1  0.4949719E-002  0.5802688E+03  0.7818608E-02  0.9947209E-01
         21   -1    0    0  503  502  0.00000000000E+00  0.00000000000E+00  0.31738818695E+03  0.31738818695E+03  0.00000000000E+00 0. -1.
         21   -1    0    0  501  503 -0.00000000000E+00 -0.00000000000E+00 -0.10799847647E+04  0.10799847647E+04  0.00000000000E+00 0.  1.
    9000005    1    1    2  501    0  0.34733972862E+03  0.23678468280E+03 -0.47421743554E+03  0.74939578946E+03  0.40000000000E+03 0. -1.
   -9000005    1    1    2    0  502 -0.34733972862E+03 -0.23678468280E+03 -0.28837914225E+03  0.64797716223E+03  0.40000000000E+03 0.  1.
<mgrwt>
<rscale>  2 0.58026879E+03</rscale>
<asrwt>0</asrwt>
<pdfrwt beam="1">  1       21 0.48828951E-01 0.58026879E+03</pdfrwt>
<pdfrwt beam="2">  1       21 0.16615150E+00 0.58026879E+03</pdfrwt>
<totfact> 0.72347161E+02</totfact>
</mgrwt>
</event>
<event>
 4    1  0.4949719E-002  0.4233219E+03  0.7818608E-02  0.1035991E+00
         21   -1    0    0  501  502  0.00000000000E+00  0.00000000000E+00  0.85177808677E+03  0.85177808677E+03  0.00000000000E+00 0. -1.
         21   -1    0    0  502  503 -0.00000000000E+00 -0.00000000000E+00 -0.54369045328E+03  0.54369045328E+03  0.00000000000E+00 0. -1.
    9000005    1    1    2  501    0  0.13850261085E+03 -0.42939318378E+01  0.70034903708E+03  0.81834600556E+03  0.40000000000E+03 0. -1.
   -9000005    1    1    2    0  503 -0.13850261085E+03  0.42939318378E+01 -0.39226140360E+03  0.57712253449E+03  0.40000000000E+03 0. -1.
<mgrwt>
<rscale>  2 0.42332188E+03</rscale>
<asrwt>0</asrwt>
<pdfrwt beam="1">  1       21 0.13104278E+00 0.42332188E+03</pdfrwt>
<pdfrwt beam="2">  1       21 0.83644685E-01 0.42332188E+03</pdfrwt>
<totfact> 0.44422132E+02</totfact>
</mgrwt>
</event>
<event>
 4    1  0.4949719E-002  0.7750274E+03  0.7818608E-02  0.9596884E-01
         21   -1    0    0  501  502  0.00000000000E+00  0.00000000000E+00  0.18440064288E+04  0.18440064288E+04  0.00000000000E+00 0.  1.
         21   -1    0    0  502  503 -0.00000000000E+00 -0.00000000000E+00 -0.46625382347E+03  0.46625382347E+03  0.00000000000E+00 0.  1.
    9000005    1    1    2  501    0 -0.78344675966E+02 -0.65918852351E+03  0.13230067557E+04  0.15333017555E+04  0.40000000000E+03 0.  1.
   -9000005    1    1    2    0  503  0.78344675966E+02  0.65918852351E+03  0.54745849709E+02  0.77695849685E+03  0.40000000000E+03 0.  1.
<mgrwt>
<rscale>  2 0.77502735E+03</rscale>
<asrwt>0</asrwt>
<pdfrwt beam="1">  1       21 0.28369329E+00 0.77502735E+03</pdfrwt>
<pdfrwt beam="2">  1       21 0.71731358E-01 0.77502735E+03</pdfrwt>
<totfact> 0.48801938E+01</totfact>
</mgrwt>
</event>
<event>
 4    1  0.4949719E-002  0.5634907E+03  0.7818608E-02  0.9984187E-01
         21   -1    0    0  503  502  0.00000000000E+00  0.00000000000E+00  0.10643652921E+04  0.10643652921E+04  0.00000000000E+00 0.  1.
         21   -1    0    0  501  503 -0.00000000000E+00 -0.00000000000E+00 -0.29869525277E+03  0.29869525277E+03  0.00000000000E+00 0.  1.
    9000005    1    1    2  501    0 -0.35854975352E+03 -0.17018757377E+03  0.35868711045E+03  0.66796570213E+03  0.40000000000E+03 0.  1.
   -9000005    1    1    2    0  502  0.35854975352E+03  0.17018757377E+03  0.40698292889E+03  0.69509484276E+03  0.40000000000E+03 0.  1.
<mgrwt>
<rscale>  2 0.56349067E+03</rscale>
<asrwt>0</asrwt>
<pdfrwt beam="1">  1       21 0.16374851E+00 0.56349067E+03</pdfrwt>
<pdfrwt beam="2">  1       21 0.45953116E-01 0.56349067E+03</pdfrwt>
<totfact> 0.86268587E+02</totfact>
</mgrwt>
</event>
<event>
 4    1  0.4949719E-002  0.4680524E+03  0.7818608E-02  0.1022471E+00
         21   -1    0    0  501  502  0.00000000000E+00  0.00000000000E+00  0.64687724313E+03  0.64687724313E+03  0.00000000000E+00 0. -1.
         21   -1    0    0  502  503 -0.00000000000E+00 -0.00000000000E+00 -0.36909987406E+03  0.36909987406E+03  0.00000000000E+00 0. -1.
    9000005    1    1    2  501    0 -0.21321491208E+03  0.11667251039E+03 -0.69878619243E+01  0.46810458621E+03  0.40000000000E+03 0. -1.
   -9000005    1    1    2    0  503  0.21321491208E+03 -0.11667251039E+03  0.28476523100E+03  0.54787253098E+03  0.40000000000E+03 0. -1.
<mgrwt>
<rscale>  2 0.46805243E+03</rscale>
<asrwt>0</asrwt>
<pdfrwt beam="1">  1       21 0.99519576E-01 0.46805243E+03</pdfrwt>
<pdfrwt beam="2">  1       21 0.56784596E-01 0.46805243E+03</pdfrwt>
<totfact> 0.20757361E+03</totfact>
</mgrwt>
</event>
<event>
 4    1  0.4949719E-002  0.4592387E+03  0.7818608E-02  0.1025002E+00
         21   -1    0    0  501  502  0.00000000000E+00  0.00000000000E+00  0.37486566239E+03  0.37486566239E+03  0.00000000000E+00 0.  1.
         21   -1    0    0  502  503 -0.00000000000E+00 -0.00000000000E+00 -0.72823136946E+03  0.72823136946E+03  0.00000000000E+00 0.  1.
    9000005    1    1    2  501    0 -0.20689024594E+03  0.89981052286E+02  0.86354684110E+02  0.46728716557E+03  0.40000000000E+03 0.  1.
   -9000005    1    1    2    0  503  0.20689024594E+03 -0.89981052286E+02 -0.43972039118E+03  0.63580986628E+03  0.40000000000E+03 0.  1.
<mgrwt>
<rscale>  2 0.45923868E+03</rscale>
<asrwt>0</asrwt>
<pdfrwt beam="1">  1       21 0.57671641E-01 0.45923868E+03</pdfrwt>
<pdfrwt beam="2">  1       21 0.11203559E+00 0.45923868E+03</pdfrwt>
<totfact> 0.15037376E+03</totfact>
</mgrwt>
</event>
<event>
 4    1  0.4949719E-002  0.4668627E+03  0.7818608E-02  0.1022809E+00
         21   -1    0    0  501  502  0.00000000000E+00  0.00000000000E+00  0.71112422375E+03  0.71112422375E+03  0.00000000000E+00 0.  1.
         21   -1    0    0  502  503 -0.00000000000E+00 -0.00000000000E+00 -0.51019129613E+03  0.51019129613E+03  0.00000000000E+00 0.  1.
    9000005    1    1    2  501    0  0.24053791806E+03  0.10111939020E+02  0.48631410034E+03  0.67413807601E+03  0.40000000000E+03 0.  1.
   -9000005    1    1    2    0  503 -0.24053791806E+03 -0.10111939020E+02 -0.28538117273E+03  0.54717744387E+03  0.40000000000E+03 0.  1.
<mgrwt>
<rscale>  2 0.46686266E+03</rscale>
<asrwt>0</asrwt>
<pdfrwt beam="1">  1       21 0.10940373E+00 0.46686266E+03</pdfrwt>
<pdfrwt beam="2">  1       21 0.78490968E-01 0.46686266E+03</pdfrwt>
<totfact> 0.79776140E+02</totfact>
</mgrwt>
</event>
<event>
 4    1  0.4949719E-002  0.4705003E+03  0.7818608E-02  0.1021779E+00
         21   -1    0    0  501  502  0.00000000000E+00  0.00000000000E+00  0.21042222519E+04  0.21042222519E+04  0.00000000000E+00 0. -1.
         21   -1    0    0  502  503 -0.00000000000E+00 -0.00000000000E+00 -0.10893654506E+03  0.10893654506E+03  0.00000000000E+00 0.  1.
    9000005    1    1    2  501    0  0.17525689629E+03  0.17508716706E+03  0.12025025001E+04  0.12912717601E+04  0.40000000000E+03 0. -1.
   -9000005    1    1    2    0  503 -0.17525689629E+03 -0.17508716706E+03  0.79278320673E+03  0.92188703681E+03  0.40000000000E+03 0.  1.
<mgrwt>
<rscale>  2 0.47050026E+03</rscale>
<asrwt>0</asrwt>
<pdfrwt beam="1">  1       21 0.32372647E+00 0.47050026E+03</pdfrwt>
<pdfrwt beam="2">  1       21 0.16759470E-01 0.47050026E+03</pdfrwt>
<totfact> 0.62641547E+02</totfact>
</mgrwt>
</event>
<event>
 4    1  0.4949719E-002  0.4236798E+03  0.7818608E-02  0.1035875E+00
         21   -1    0    0  501  502  0.00000000000E+00  0.00000000000E+00  0.70037019848E+03  0.70037019848E+03  0.00000000000E+00 0. -1.
         21   -1    0    0  502  503 -0.00000000000E+00 -0.00000000000E+00 -0.70191952363E+03  0.70191952363E+03  0.00000000000E+00 0. -1.
    9000005    1    1    2  501    0 -0.88018051089E+02 -0.10843135942E+03  0.55788387360E+03  0.70052762504E+03  0.40000000000E+03 0. -1.
   -9000005    1    1    2    0  503  0.88018051089E+02  0.10843135942E+03 -0.55943319875E+03  0.70176209707E+03  0.40000000000E+03 0. -1.
<mgrwt>
<rscale>  2 0.42367976E+03</rscale>
<asrwt>0</asrwt>
<pdfrwt beam="1">  1       21 0.10774926E+00 0.42367976E+03</pdfrwt>
<pdfrwt beam="2">  1       21 0.10798762E+00 0.42367976E+03</pdfrwt>
<totfact> 0.39490368E+02</totfact>
</mgrwt>
</event>
<event>
 4    1  0.4949719E-002  0.4872622E+03  0.7818608E-02  0.1017158E+00
         21   -1    0    0  501  502  0.00000000000E+00  0.00000000000E+00  0.75425518420E+03  0.75425518420E+03  0.00000000000E+00 0.  1.
         21   -1    0    0  502  503 -0.00000000000E+00 -0.00000000000E+00 -0.33716110856E+03  0.33716110856E+03  0.00000000000E+00 0. -1.
    9000005    1    1    2  501    0 -0.56742244252E+02 -0.27240554381E+03  0.67948017225E+02  0.49197702754E+03  0.40000000000E+03 0. -1.
   -9000005    1    1    2    0  503  0.56742244252E+02  0.27240554381E+03  0.34914605842E+03  0.59943926522E+03  0.40000000000E+03 0.  1.
<mgrwt>
<rscale>  2 0.48726221E+03</rscale>
<asrwt>0</asrwt>
<pdfrwt beam="1">  1       21 0.11603926E+00 0.48726221E+03</pdfrwt>
<pdfrwt beam="2">  1       21 0.51870940E-01 0.48726221E+03</pdfrwt>
<totfact> 0.17135629E+03</totfact>
</mgrwt>
</event>
<event>
 4    1  0.4949719E-002  0.4153142E+03  0.7818608E-02  0.1038602E+00
         21   -1    0    0  503  502  0.00000000000E+00  0.00000000000E+00  0.14046839283E+03  0.14046839283E+03  0.00000000000E+00 0.  1.
         21   -1    0    0  501  503 -0.00000000000E+00 -0.00000000000E+00 -0.15095795817E+04  0.15095795817E+04  0.00000000000E+00 0.  1.
    9000005    1    1    2  501    0 -0.11163207053E+03  0.49128933170E+01 -0.10409167583E+04  0.11207111820E+04  0.40000000000E+03 0.  1.
   -9000005    1    1    2    0  502  0.11163207053E+03 -0.49128933170E+01 -0.32819443054E+03  0.52933679253E+03  0.40000000000E+03 0.  1.
<mgrwt>
<rscale>  2 0.41531417E+03</rscale>
<asrwt>0</asrwt>
<pdfrwt beam="1">  1       21 0.21610521E-01 0.41531417E+03</pdfrwt>
<pdfrwt beam="2">  1       21 0.23224303E+00 0.41531417E+03</pdfrwt>
<totfact> 0.14312123E+03</totfact>
</mgrwt>
</event>
<event>
 4    1  0.4949719E-002  0.5118011E+03  0.7818608E-02  0.1010744E+00
         21   -1    0    0  503  502  0.00000000000E+00  0.00000000000E+00  0.26585382823E+03  0.26585382823E+03  0.00000000000E+00 0. -1.
         21   -1    0    0  501  503 -0.00000000000E+00 -0.00000000000E+00 -0.16323380136E+04  0.16323380136E+04  0.00000000000E+00 0.  1.
    9000005    1    1    2  501    0 -0.11615615217E+03 -0.29740229760E+03 -0.12807955626E+04  0.13792670704E+04  0.40000000000E+03 0.  1.
   -9000005    1    1    2    0  502  0.11615615217E+03  0.29740229760E+03 -0.85688622726E+02  0.51892477140E+03  0.40000000000E+03 0. -1.
<mgrwt>
<rscale>  2 0.51180111E+03</rscale>
<asrwt>0</asrwt>
<pdfrwt beam="1">  1       21 0.40900588E-01 0.51180111E+03</pdfrwt>
<pdfrwt beam="2">  1       21 0.25112893E+00 0.51180111E+03</pdfrwt>
<totfact> 0.29306812E+02</totfact>
</mgrwt>
</event>
<event>
 4    1  0.4949719E-002  0.4434958E+03  0.7818608E-02  0.1029680E+00
         21   -1    0    0  501  502  0.00000000000E+00  0.00000000000E+00  0.21755283451E+04  0.21755283451E+04  0.00000000000E+00 0.  1.
         21   -1    0    0  502  503 -0.00000000000E+00 -0.00000000000E+00 -0.96690231308E+02  0.96690231308E+02  0.00000000000E+00 0.  1.
    9000005    1    1    2  501    0 -0.18864401779E+03  0.33195872406E+02  0.13289748814E+04  0.14010220436E+04  0.40000000000E+03 0.  1.
   -9000005    1    1    2    0  503  0.18864401779E+03 -0.33195872406E+02  0.74986323238E+03  0.87119653275E+03  0.40000000000E+03 0.  1.
<mgrwt>
<rscale>  2 0.44349581E+03</rscale>
<asrwt>0</asrwt>
<pdfrwt beam="1">  1       21 0.33469663E+00 0.44349581E+03</pdfrwt>
<pdfrwt beam="2">  1       21 0.14875422E-01 0.44349581E+03</pdfrwt>
<totfact> 0.68166120E+02</totfact>
</mgrwt>
</event>
<event>
 4    1  0.4949719E-002  0.5430142E+03  0.7818608E-02  0.1003124E+00
         21   -1    0    0  503  502  0.00000000000E+00  0.00000000000E+00  0.45626848075E+03  0.45626848075E+03  0.00000000000E+00 0.  1.
         21   -1    0    0  501  503 -0.00000000000E+00 -0.00000000000E+00 -0.70303773299E+03  0.70303773299E+03  0.00000000000E+00 0.  1.
    9000005    1    1    2  501    0 -0.35815405279E+03 -0.81179292070E+02 -0.28812444957E+03  0.61471953070E+03  0.40000000000E+03 0.  1.
   -9000005    1    1    2    0  502  0.35815405279E+03  0.81179292070E+02  0.41355197329E+02  0.54458668303E+03  0.40000000000E+03 0.  1.
<mgrwt>
<rscale>  2 0.54301418E+03</rscale>
<asrwt>0</asrwt>
<pdfrwt beam="1">  1       21 0.70195151E-01 0.54301418E+03</pdfrwt>
<pdfrwt beam="2">  1       21 0.10815965E+00 0.54301418E+03</pdfrwt>
<totfact> 0.10296497E+03</totfact>
</mgrwt>
</event>
<event>
 4    1  0.4949719E-002  0.6288211E+03  0.7818608E-02  0.9847352E-01
         21   -1    0    0  503  502  0.00000000000E+00  0.00000000000E+00  0.33366843113E+03  0.33366843113E+03  0.00000000000E+00 0.  1.
         21   -1    0    0  501  503 -0.00000000000E+00 -0.00000000000E+00 -0.12978986194E+04  0.12978986194E+04  0.00000000000E+00 0.  1.
    9000005    1    1    2  501    0 -0.22748637286E+03  0.42856257645E+03 -0.72265671234E+03  0.95793979752E+03  0.40000000000E+03 0.  1.
   -9000005    1    1    2    0  502  0.22748637286E+03 -0.42856257645E+03 -0.24157347597E+03  0.67362725306E+03  0.40000000000E+03 0.  1.
<mgrwt>
<rscale>  2 0.62882106E+03</rscale>
<asrwt>0</asrwt>
<pdfrwt beam="1">  1       21 0.51333603E-01 0.62882106E+03</pdfrwt>
<pdfrwt beam="2">  1       21 0.19967672E+00 0.62882106E+03</pdfrwt>
<totfact> 0.37010877E+02</totfact>
</mgrwt>
</event>
<event>
 4    1  0.4949719E-002  0.4091201E+03  0.7818608E-02  0.1040667E+00
         21   -1    0    0  501  502  0.00000000000E+00  0.00000000000E+00  0.45212936065E+03  0.45212936065E+03  0.00000000000E+00 0.  1.
         21   -1    0    0  502  503 -0.00000000000E+00 -0.00000000000E+00 -0.42206541458E+03  0.42206541458E+03  0.00000000000E+00 0.  1.
    9000005    1    1    2  501    0  0.23394963103E+02 -0.82655482671E+02  0.16825298617E+03  0.44236672622E+03  0.40000000000E+03 0.  1.
   -9000005    1    1    2    0  503 -0.23394963103E+02  0.82655482671E+02 -0.13818904010E+03  0.43182804902E+03  0.40000000000E+03 0.  1.
<mgrwt>
<rscale>  2 0.40912010E+03</rscale>
<asrwt>0</asrwt>
<pdfrwt beam="1">  1       21 0.69558363E-01 0.40912010E+03</pdfrwt>
<pdfrwt beam="2">  1       21 0.64933141E-01 0.40912010E+03</pdfrwt>
<totfact> 0.36409508E+03</totfact>
</mgrwt>
</event>
<event>
 4    1  0.4949719E-002  0.4211626E+03  0.7818608E-02  0.1036689E+00
         21   -1    0    0  503  502  0.00000000000E+00  0.00000000000E+00  0.14824250895E+04  0.14824250895E+04  0.00000000000E+00 0.  1.
         21   -1    0    0  501  503 -0.00000000000E+00 -0.00000000000E+00 -0.12184302829E+03  0.12184302829E+03  0.00000000000E+00 0.  1.
    9000005    1    1    2  501    0  0.10366102032E+03 -0.81438980665E+02  0.57277229641E+03  0.71094726826E+03  0.40000000000E+03 0.  1.
   -9000005    1    1    2    0  502 -0.10366102032E+03  0.81438980665E+02  0.78780976477E+03  0.89332084951E+03  0.40000000000E+03 0.  1.
<mgrwt>
<rscale>  2 0.42116258E+03</rscale>
<asrwt>0</asrwt>
<pdfrwt beam="1">  1       21 0.22806539E+00 0.42116258E+03</pdfrwt>
<pdfrwt beam="2">  1       21 0.18745082E-01 0.42116258E+03</pdfrwt>
<totfact> 0.19868698E+03</totfact>
</mgrwt>
</event>
<event>
 4    1  0.4949719E-002  0.4075254E+03  0.7818608E-02  0.1041205E+00
         21   -1    0    0  501  502  0.00000000000E+00  0.00000000000E+00  0.35027216574E+03  0.35027216574E+03  0.00000000000E+00 0. -1.
         21   -1    0    0  502  503 -0.00000000000E+00 -0.00000000000E+00 -0.53289572202E+03  0.53289572202E+03  0.00000000000E+00 0. -1.
    9000005    1    1    2  501    0  0.46200381532E+02 -0.62789432730E+02  0.55320096947E+02  0.41126305601E+03  0.40000000000E+03 0. -1.
   -9000005    1    1    2    0  503 -0.46200381532E+02  0.62789432730E+02 -0.23794365323E+03  0.47190483175E+03  0.40000000000E+03 0. -1.
<mgrwt>
<rscale>  2 0.40752544E+03</rscale>
<asrwt>0</asrwt>
<pdfrwt beam="1">  1       21 0.53888026E-01 0.40752544E+03</pdfrwt>
<pdfrwt beam="2">  1       21 0.81983957E-01 0.40752544E+03</pdfrwt>
<totfact> 0.37621285E+03</totfact>
</mgrwt>
</event>
<event>
 4    1  0.4949719E-002  0.4418949E+03  0.7818608E-02  0.1030167E+00
         21   -1    0    0  501  502  0.00000000000E+00  0.00000000000E+00  0.52807373384E+03  0.52807373384E+03  0.00000000000E+00 0.  1.
         21   -1    0    0  502  503 -0.00000000000E+00 -0.00000000000E+00 -0.36982609779E+03  0.36982609779E+03  0.00000000000E+00 0.  1.
    9000005    1    1    2  501    0  0.18293370241E+03  0.42501151852E+02  0.84137985874E+02  0.44983362264E+03  0.40000000000E+03 0.  1.
   -9000005    1    1    2    0  503 -0.18293370241E+03 -0.42501151852E+02  0.74109650174E+02  0.44806620899E+03  0.40000000000E+03 0.  1.
<mgrwt>
<rscale>  2 0.44189488E+03</rscale>
<asrwt>0</asrwt>
<pdfrwt beam="1">  1       21 0.81242113E-01 0.44189488E+03</pdfrwt>
<pdfrwt beam="2">  1       21 0.56896323E-01 0.44189488E+03</pdfrwt>
<totfact> 0.33744075E+03</totfact>
</mgrwt>
</event>
<event>
 4    1  0.4949719E-002  0.4104758E+03  0.7818608E-02  0.1040211E+00
         21   -1    0    0  503  502  0.00000000000E+00  0.00000000000E+00  0.43130320394E+03  0.43130320394E+03  0.00000000000E+00 0. -1.
         21   -1    0    0  501  503 -0.00000000000E+00 -0.00000000000E+00 -0.41885311270E+03  0.41885311270E+03  0.00000000000E+00 0. -1.
    9000005    1    1    2  501    0 -0.90681254602E+02 -0.16348985175E+02 -0.10406964659E+03  0.42346295067E+03  0.40000000000E+03 0.  1.
   -9000005    1    1    2    0  502  0.90681254602E+02  0.16348985175E+02  0.11651973783E+03  0.42669336596E+03  0.40000000000E+03 0.  1.
<mgrwt>
<rscale>  2 0.41047580E+03</rscale>
<asrwt>0</asrwt>
<pdfrwt beam="1">  1       21 0.66354339E-01 0.41047580E+03</pdfrwt>
<pdfrwt beam="2">  1       21 0.64438941E-01 0.41047580E+03</pdfrwt>
<totfact> 0.41126136E+03</totfact>
</mgrwt>
</event>
<event>
 4    1  0.4949719E-002  0.4309339E+03  0.7818608E-02  0.1033565E+00
         21   -1    0    0  503  502  0.00000000000E+00  0.00000000000E+00  0.18131884084E+03  0.18131884084E+03  0.00000000000E+00 0.  1.
         21   -1    0    0  501  503 -0.00000000000E+00 -0.00000000000E+00 -0.10242188067E+04  0.10242188067E+04  0.00000000000E+00 0.  1.
    9000005    1    1    2  501    0 -0.15526204956E+03 -0.39971590284E+02 -0.41798556262E+03  0.60034653544E+03  0.40000000000E+03 0. -1.
   -9000005    1    1    2    0  502  0.15526204956E+03  0.39971590284E+02 -0.42491440320E+03  0.60519111205E+03  0.40000000000E+03 0. -1.
<mgrwt>
<rscale>  2 0.43093391E+03</rscale>
<asrwt>0</asrwt>
<pdfrwt beam="1">  1       21 0.27895207E-01 0.43093391E+03</pdfrwt>
<pdfrwt beam="2">  1       21 0.15757212E+00 0.43093391E+03</pdfrwt>
<totfact> 0.27891279E+03</totfact>
</mgrwt>
</event>
<event>
 4    1  0.4949719E-002  0.4347522E+03  0.7818608E-02  0.1032369E+00
         21   -1    0    0  501  502  0.00000000000E+00  0.00000000000E+00  0.34427711075E+03  0.34427711075E+03  0.00000000000E+00 0. -1.
         21   -1    0    0  502  503 -0.00000000000E+00 -0.00000000000E+00 -0.20611309990E+04  0.20611309990E+04  0.00000000000E+00 0. -1.
    9000005    1    1    2  501    0 -0.48342641582E+02  0.16331709798E+03  0.17172223821E+03  0.46743770984E+03  0.40000000000E+03 0. -1.
   -9000005    1    1    2    0  503  0.48342641582E+02 -0.16331709798E+03 -0.18885761264E+04  0.19379703999E+04  0.40000000000E+03 0. -1.
<mgrwt>
<rscale>  2 0.43475221E+03</rscale>
<asrwt>0</asrwt>
<pdfrwt beam="1">  1       21 0.52965708E-01 0.43475221E+03</pdfrwt>
<pdfrwt beam="2">  1       21 0.31709708E+00 0.43475221E+03</pdfrwt>
<totfact> 0.70874960E+01</totfact>
</mgrwt>
</event>
<event>
 4    1  0.4949719E-002  0.4005174E+03  0.7818608E-02  0.1043601E+00
         21   -1    0    0  501  502  0.00000000000E+00  0.00000000000E+00  0.99421297646E+03  0.99421297646E+03  0.00000000000E+00 0. -1.
         21   -1    0    0  502  503 -0.00000000000E+00 -0.00000000000E+00 -0.19847706670E+03  0.19847706670E+03  0.00000000000E+00 0.  1.
    9000005    1    1    2  501    0  0.14983543740E+02  0.13772981491E+02  0.65579678101E+03  0.76842931984E+03  0.40000000000E+03 0. -1.
   -9000005    1    1    2    0  503 -0.14983543740E+02 -0.13772981491E+02  0.13993912875E+03  0.42426072333E+03  0.40000000000E+03 0.  1.
<mgrwt>
<rscale>  2 0.40051742E+03</rscale>
<asrwt>0</asrwt>
<pdfrwt beam="1">  1       21 0.15295584E+00 0.40051742E+03</pdfrwt>
<pdfrwt beam="2">  1       21 0.30534934E-01 0.40051742E+03</pdfrwt>
<totfact> 0.25632342E+03</totfact>
</mgrwt>
</event>
<event>
 4    1  0.4949719E-002  0.4707074E+03  0.7818608E-02  0.1021721E+00
         21   -1    0    0  501  502  0.00000000000E+00  0.00000000000E+00  0.14350937632E+04  0.14350937632E+04  0.00000000000E+00 0.  1.
         21   -1    0    0  502  503 -0.00000000000E+00 -0.00000000000E+00 -0.33102363010E+03  0.33102363010E+03  0.00000000000E+00 0.  1.
    9000005    1    1    2  501    0  0.92957127394E+02 -0.23005319943E+03  0.11970883526E+04  0.12863071274E+04  0.40000000000E+03 0.  1.
   -9000005    1    1    2    0  503 -0.92957127394E+02  0.23005319943E+03 -0.93018219500E+02  0.47981026590E+03  0.40000000000E+03 0.  1.
<mgrwt>
<rscale>  2 0.47070745E+03</rscale>
<asrwt>0</asrwt>
<pdfrwt beam="1">  1       21 0.22078365E+00 0.47070745E+03</pdfrwt>
<pdfrwt beam="2">  1       21 0.50926713E-01 0.47070745E+03</pdfrwt>
<totfact> 0.29231487E+02</totfact>
</mgrwt>
</event>
<event>
 4    1  0.4949719E-002  0.5722485E+03  0.7818608E-02  0.9964715E-01
         21   -1    0    0  501  502  0.00000000000E+00  0.00000000000E+00  0.73824787196E+03  0.73824787196E+03  0.00000000000E+00 0.  1.
         21   -1    0    0  502  503 -0.00000000000E+00 -0.00000000000E+00 -0.59513554202E+03  0.59513554202E+03  0.00000000000E+00 0. -1.
    9000005    1    1    2  501    0  0.40476567159E+03  0.60274713873E+02  0.40799816269E+03  0.70280209931E+03  0.40000000000E+03 0.  1.
   -9000005    1    1    2    0  503 -0.40476567159E+03 -0.60274713873E+02 -0.26488583275E+03  0.63058131468E+03  0.40000000000E+03 0. -1.
<mgrwt>
<rscale>  2 0.57224845E+03</rscale>
<asrwt>0</asrwt>
<pdfrwt beam="1">  1       21 0.11357660E+00 0.57224845E+03</pdfrwt>
<pdfrwt beam="2">  1       21 0.91559314E-01 0.57224845E+03</pdfrwt>
<totfact> 0.48643530E+02</totfact>
</mgrwt>
</event>
<event>
 4    1  0.4949719E-002  0.4359424E+03  0.7818608E-02  0.1031999E+00
         21   -1    0    0  501  502  0.00000000000E+00  0.00000000000E+00  0.26617843396E+03  0.26617843396E+03  0.00000000000E+00 0. -1.
         21   -1    0    0  502  503 -0.00000000000E+00 -0.00000000000E+00 -0.74833228134E+03  0.74833228134E+03  0.00000000000E+00 0. -1.
    9000005    1    1    2  501    0  0.11276890652E+03  0.13163932025E+03 -0.13239300191E+03  0.45560250643E+03  0.40000000000E+03 0. -1.
   -9000005    1    1    2    0  503 -0.11276890652E+03 -0.13163932025E+03 -0.34976084547E+03  0.55890820887E+03  0.40000000000E+03 0. -1.
<mgrwt>
<rscale>  2 0.43594236E+03</rscale>
<asrwt>0</asrwt>
<pdfrwt beam="1">  1       21 0.40950529E-01 0.43594236E+03</pdfrwt>
<pdfrwt beam="2">  1       21 0.11512804E+00 0.43594236E+03</pdfrwt>
<totfact> 0.29284498E+03</totfact>
</mgrwt>
</event>
<event>
 4    1  0.4949719E-002  0.4695385E+03  0.7818608E-02  0.1022051E+00
         21   -1    0    0  501  502  0.00000000000E+00  0.00000000000E+00  0.35592995508E+03  0.35592995508E+03  0.00000000000E+00 0. -1.
         21   -1    0    0  502  503 -0.00000000000E+00 -0.00000000000E+00 -0.71356879313E+03  0.71356879313E+03  0.00000000000E+00 0. -1.
    9000005    1    1    2  501    0  0.19361120390E+03  0.15159511114E+03  0.15431947126E+02  0.46979199758E+03  0.40000000000E+03 0. -1.
   -9000005    1    1    2    0  503 -0.19361120390E+03 -0.15159511114E+03 -0.37307078518E+03  0.59970675063E+03  0.40000000000E+03 0. -1.
<mgrwt>
<rscale>  2 0.46953847E+03</rscale>
<asrwt>0</asrwt>
<pdfrwt beam="1">  1       21 0.54758455E-01 0.46953847E+03</pdfrwt>
<pdfrwt beam="2">  1       21 0.10977981E+00 0.46953847E+03</pdfrwt>
<totfact> 0.17629813E+03</totfact>
</mgrwt>
</event>
<event>
 4    1  0.4949719E-002  0.7307610E+03  0.7818608E-02  0.9666026E-01
         21   -1    0    0  503  502  0.00000000000E+00  0.00000000000E+00  0.94153325300E+03  0.94153325300E+03  0.00000000000E+00 0.  1.
         21   -1    0    0  501  503 -0.00000000000E+00 -0.00000000000E+00 -0.57904653512E+03  0.57904653512E+03  0.00000000000E+00 0.  1.
    9000005    1    1    2  501    0  0.26275254669E+03 -0.55224330489E+03  0.72369017693E+02  0.73433564758E+03  0.40000000000E+03 0.  1.
   -9000005    1    1    2    0  502 -0.26275254669E+03  0.55224330489E+03  0.29011770019E+03  0.78624414055E+03  0.40000000000E+03 0.  1.
<mgrwt>
<rscale>  2 0.73076095E+03</rscale>
<asrwt>0</asrwt>
<pdfrwt beam="1">  1       21 0.14485127E+00 0.73076095E+03</pdfrwt>
<pdfrwt beam="2">  1       21 0.89084082E-01 0.73076095E+03</pdfrwt>
<totfact> 0.26128718E+02</totfact>
</mgrwt>
</event>
<event>
 4    1  0.4949719E-002  0.4291678E+03  0.7818608E-02  0.1034123E+00
         21   -1    0    0  503  502  0.00000000000E+00  0.00000000000E+00  0.38281324846E+03  0.38281324846E+03  0.00000000000E+00 0. -1.
         21   -1    0    0  501  503 -0.00000000000E+00 -0.00000000000E+00 -0.48758147181E+03  0.48758147181E+03  0.00000000000E+00 0.  1.
    9000005    1    1    2  501    0 -0.47032672509E+02  0.14823271024E+03 -0.10242326342E+03  0.44122050446E+03  0.40000000000E+03 0.  1.
   -9000005    1    1    2    0  502  0.47032672509E+02 -0.14823271024E+03 -0.23449599291E+01  0.42917421580E+03  0.40000000000E+03 0. -1.
<mgrwt>
<rscale>  2 0.42916781E+03</rscale>
<asrwt>0</asrwt>
<pdfrwt beam="1">  1       21 0.58894346E-01 0.42916781E+03</pdfrwt>
<pdfrwt beam="2">  1       21 0.75012534E-01 0.42916781E+03</pdfrwt>
<totfact> 0.37768669E+03</totfact>
</mgrwt>
</event>
<event>
 4    1  0.4949719E-002  0.4203949E+03  0.7818608E-02  0.1036938E+00
         21   -1    0    0  501  502  0.00000000000E+00  0.00000000000E+00  0.39063087974E+03  0.39063087974E+03  0.00000000000E+00 0. -1.
         21   -1    0    0  502  503 -0.00000000000E+00 -0.00000000000E+00 -0.46286653484E+03  0.46286653484E+03  0.00000000000E+00 0. -1.
    9000005    1    1    2  501    0 -0.79277707361E+02 -0.10221014376E+03 -0.10020773104E+03  0.43217294887E+03  0.40000000000E+03 0. -1.
   -9000005    1    1    2    0  503  0.79277707361E+02  0.10221014376E+03  0.27972075941E+02  0.42132446571E+03  0.40000000000E+03 0. -1.
<mgrwt>
<rscale>  2 0.42039490E+03</rscale>
<asrwt>0</asrwt>
<pdfrwt beam="1">  1       21 0.60097059E-01 0.42039490E+03</pdfrwt>
<pdfrwt beam="2">  1       21 0.71210236E-01 0.42039490E+03</pdfrwt>
<totfact> 0.40787215E+03</totfact>
</mgrwt>
</event>
<event>
 4    1  0.4949719E-002  0.4133975E+03  0.7818608E-02  0.1039237E+00
         21   -1    0    0  501  502  0.00000000000E+00  0.00000000000E+00  0.10223019009E+04  0.10223019009E+04  0.00000000000E+00 0. -1.
         21   -1    0    0  502  503 -0.00000000000E+00 -0.00000000000E+00 -0.16786359269E+03  0.16786359269E+03  0.00000000000E+00 0. -1.
    9000005    1    1    2  501    0 -0.89560135770E+02  0.53632993335E+02  0.46548959301E+03  0.62255768977E+03  0.40000000000E+03 0. -1.
   -9000005    1    1    2    0  503  0.89560135770E+02 -0.53632993335E+02  0.38894871520E+03  0.56760780381E+03  0.40000000000E+03 0. -1.
<mgrwt>
<rscale>  2 0.41339753E+03</rscale>
<asrwt>0</asrwt>
<pdfrwt beam="1">  1       21 0.15727721E+00 0.41339753E+03</pdfrwt>
<pdfrwt beam="2">  1       21 0.25825169E-01 0.41339753E+03</pdfrwt>
<totfact> 0.32838174E+03</totfact>
</mgrwt>
</event>
<event>
 4    1  0.4949719E-002  0.7043176E+03  0.7818608E-02  0.9709877E-01
         21   -1    0    0  501  502  0.00000000000E+00  0.00000000000E+00  0.63723017593E+03  0.63723017593E+03  0.00000000000E+00 0.  1.
         21   -1    0    0  502  503 -0.00000000000E+00 -0.00000000000E+00 -0.13032639113E+04  0.13032639113E+04  0.00000000000E+00 0.  1.
    9000005    1    1    2  501    0  0.36137246674E+03 -0.45329147782E+03  0.28267216115E+03  0.75892474875E+03  0.40000000000E+03 0.  1.
   -9000005    1    1    2    0  503 -0.36137246674E+03  0.45329147782E+03 -0.94870589656E+03  0.11815693385E+04  0.40000000000E+03 0.  1.
<mgrwt>
<rscale>  2 0.70431756E+03</rscale>
<asrwt>0</asrwt>
<pdfrwt beam="1">  1       21 0.98035411E-01 0.70431756E+03</pdfrwt>
<pdfrwt beam="2">  1       21 0.20050214E+00 0.70431756E+03</pdfrwt>
<totfact> 0.81171417E+01</totfact>
</mgrwt>
</event>
<event>
 4    1  0.4949719E-002  0.6304700E+03  0.7818608E-02  0.9844132E-01
         21   -1    0    0  503  502  0.00000000000E+00  0.00000000000E+00  0.22707030952E+03  0.22707030952E+03  0.00000000000E+00 0. -1.
         21   -1    0    0  501  503 -0.00000000000E+00 -0.00000000000E+00 -0.17569827334E+04  0.17569827334E+04  0.00000000000E+00 0.  1.
    9000005    1    1    2  501    0 -0.35522295093E+02 -0.48603554477E+03 -0.82509577142E+03  0.10384004123E+04  0.40000000000E+03 0. -1.
   -9000005    1    1    2    0  502  0.35522295093E+02  0.48603554477E+03 -0.70481665244E+03  0.94565263062E+03  0.40000000000E+03 0.  1.
<mgrwt>
<rscale>  2 0.63046997E+03</rscale>
<asrwt>0</asrwt>
<pdfrwt beam="1">  1       21 0.34933894E-01 0.63046997E+03</pdfrwt>
<pdfrwt beam="2">  1       21 0.27030503E+00 0.63046997E+03</pdfrwt>
<totfact> 0.29326591E+02</totfact>
</mgrwt>
</event>
<event>
 4    1  0.4949719E-002  0.4736859E+03  0.7818608E-02  0.1020885E+00
         21   -1    0    0  503  502  0.00000000000E+00  0.00000000000E+00  0.57804961211E+03  0.57804961211E+03  0.00000000000E+00 0. -1.
         21   -1    0    0  501  503 -0.00000000000E+00 -0.00000000000E+00 -0.46526559441E+03  0.46526559441E+03  0.00000000000E+00 0. -1.
    9000005    1    1    2  501    0  0.15965627839E+03  0.19720098233E+03 -0.15596434791E+03  0.49870154650E+03  0.40000000000E+03 0. -1.
   -9000005    1    1    2    0  502 -0.15965627839E+03 -0.19720098233E+03  0.26874836561E+03  0.54461366002E+03  0.40000000000E+03 0. -1.
<mgrwt>
<rscale>  2 0.47368592E+03</rscale>
<asrwt>0</asrwt>
<pdfrwt beam="1">  1       21 0.88930710E-01 0.47368592E+03</pdfrwt>
<pdfrwt beam="2">  1       21 0.71579322E-01 0.47368592E+03</pdfrwt>
<totfact> 0.16228783E+03</totfact>
</mgrwt>
</event>
<event>
 4    1  0.4949719E-002  0.9897389E+03  0.7818608E-02  0.9319871E-01
         21   -1    0    0  501  502  0.00000000000E+00  0.00000000000E+00  0.94780997631E+03  0.94780997631E+03  0.00000000000E+00 0.  1.
         21   -1    0    0  502  503 -0.00000000000E+00 -0.00000000000E+00 -0.10817133231E+04  0.10817133231E+04  0.00000000000E+00 0. -1.
    9000005    1    1    2  501    0 -0.80803316073E+03 -0.40824681922E+03 -0.28113692723E+03  0.10288931072E+04  0.40000000000E+03 0. -1.
   -9000005    1    1    2    0  503  0.80803316073E+03  0.40824681922E+03  0.14723358048E+03  0.10006301922E+04  0.40000000000E+03 0.  1.
<mgrwt>
<rscale>  2 0.98973888E+03</rscale>
<asrwt>0</asrwt>
<pdfrwt beam="1">  1       21 0.14581692E+00 0.98973888E+03</pdfrwt>
<pdfrwt beam="2">  1       21 0.16641743E+00 0.98973888E+03</pdfrwt>
<totfact> 0.46751040E+01</totfact>
</mgrwt>
</event>
<event>
 4    1  0.4949719E-002  0.4726296E+03  0.7818608E-02  0.1021181E+00
         21   -1    0    0  503  502  0.00000000000E+00  0.00000000000E+00  0.12243492415E+04  0.12243492415E+04  0.00000000000E+00 0. -1.
         21   -1    0    0  501  503 -0.00000000000E+00 -0.00000000000E+00 -0.18411481412E+03  0.18411481412E+03  0.00000000000E+00 0. -1.
    9000005    1    1    2  501    0 -0.16134950992E+03  0.19324869382E+03  0.45308888055E+03  0.65472761947E+03  0.40000000000E+03 0. -1.
   -9000005    1    1    2    0  502  0.16134950992E+03 -0.19324869382E+03  0.58714554684E+03  0.75373643616E+03  0.40000000000E+03 0. -1.
<mgrwt>
<rscale>  2 0.47262958E+03</rscale>
<asrwt>0</asrwt>
<pdfrwt beam="1">  1       21 0.18836142E+00 0.47262958E+03</pdfrwt>
<pdfrwt beam="2">  1       21 0.28325357E-01 0.47262958E+03</pdfrwt>
<totfact> 0.15942888E+03</totfact>
</mgrwt>
</event>
<event>
 4    1  0.4949719E-002  0.4108598E+03  0.7818608E-02  0.1040083E+00
         21   -1    0    0  501  502  0.00000000000E+00  0.00000000000E+00  0.75008514693E+03  0.75008514693E+03  0.00000000000E+00 0. -1.
         21   -1    0    0  502  503 -0.00000000000E+00 -0.00000000000E+00 -0.22816487957E+03  0.22816487957E+03  0.00000000000E+00 0. -1.
    9000005    1    1    2  501    0  0.78116767787E+02  0.51995587191E+02  0.31812102266E+03  0.51962174277E+03  0.40000000000E+03 0. -1.
   -9000005    1    1    2    0  503 -0.78116767787E+02 -0.51995587191E+02  0.20379924470E+03  0.45862828373E+03  0.40000000000E+03 0. -1.
<mgrwt>
<rscale>  2 0.41085979E+03</rscale>
<asrwt>0</asrwt>
<pdfrwt beam="1">  1       21 0.11539771E+00 0.41085979E+03</pdfrwt>
<pdfrwt beam="2">  1       21 0.35102290E-01 0.41085979E+03</pdfrwt>
<totfact> 0.40261295E+03</totfact>
</mgrwt>
</event>
<event>
 4    1  0.4949719E-002  0.4711800E+03  0.7818608E-02  0.1021588E+00
         21   -1    0    0  503  502  0.00000000000E+00  0.00000000000E+00  0.52793063956E+03  0.52793063956E+03  0.00000000000E+00 0.  1.
         21   -1    0    0  501  503 -0.00000000000E+00 -0.00000000000E+00 -0.44892849590E+03  0.44892849590E+03  0.00000000000E+00 0.  1.
    9000005    1    1    2  501    0  0.18924599346E+03  0.16185337146E+03 -0.83345389544E+02  0.47849452855E+03  0.40000000000E+03 0.  1.
   -9000005    1    1    2    0  502 -0.18924599346E+03 -0.16185337146E+03  0.16234753320E+03  0.49836460692E+03  0.40000000000E+03 0.  1.
<mgrwt>
<rscale>  2 0.47117997E+03</rscale>
<asrwt>0</asrwt>
<pdfrwt beam="1">  1       21 0.81220098E-01 0.47117997E+03</pdfrwt>
<pdfrwt beam="2">  1       21 0.69065922E-01 0.47117997E+03</pdfrwt>
<totfact> 0.21776031E+03</totfact>
</mgrwt>
</event>
<event>
 4    1  0.4949719E-002  0.6618807E+03  0.7818608E-02  0.9784738E-01
         21   -1    0    0  501  502  0.00000000000E+00  0.00000000000E+00  0.94071764029E+03  0.94071764029E+03  0.00000000000E+00 0. -1.
         21   -1    0    0  502  503 -0.00000000000E+00 -0.00000000000E+00 -0.48514674964E+03  0.48514674964E+03  0.00000000000E+00 0.  1.
    9000005    1    1    2  501    0  0.44452470924E+03  0.28369683914E+03  0.37054575074E+03  0.75854483523E+03  0.40000000000E+03 0. -1.
   -9000005    1    1    2    0  503 -0.44452470924E+03 -0.28369683914E+03  0.85025139916E+02  0.66731955470E+03  0.40000000000E+03 0.  1.
<mgrwt>
<rscale>  2 0.66188074E+03</rscale>
<asrwt>0</asrwt>
<pdfrwt beam="1">  1       21 0.14472579E+00 0.66188074E+03</pdfrwt>
<pdfrwt beam="2">  1       21 0.74637962E-01 0.66188074E+03</pdfrwt>
<totfact> 0.40483890E+02</totfact>
</mgrwt>
</event>
<event>
 4    1  0.4949719E-002  0.4833897E+03  0.7818608E-02  0.1018208E+00
         21   -1    0    0  501  502  0.00000000000E+00  0.00000000000E+00  0.35711980595E+03  0.35711980595E+03  0.00000000000E+00 0. -1.
         21   -1    0    0  502  503 -0.00000000000E+00 -0.00000000000E+00 -0.65855268931E+03  0.65855268931E+03  0.00000000000E+00 0.  1.
    9000005    1    1    2  501    0  0.27116461372E+03  0.11635622961E+02 -0.10993588532E+03  0.49573332986E+03  0.40000000000E+03 0.  1.
   -9000005    1    1    2    0  503 -0.27116461372E+03 -0.11635622961E+02 -0.19149699804E+03  0.51993916540E+03  0.40000000000E+03 0. -1.
<mgrwt>
<rscale>  2 0.48338973E+03</rscale>
<asrwt>0</asrwt>
<pdfrwt beam="1">  1       21 0.54941510E-01 0.48338973E+03</pdfrwt>
<pdfrwt beam="2">  1       21 0.10131580E+00 0.48338973E+03</pdfrwt>
<totfact> 0.21227267E+03</totfact>
</mgrwt>
</event>
<event>
 4    1  0.4949719E-002  0.4504516E+03  0.7818608E-02  0.1027587E+00
         21   -1    0    0  503  502  0.00000000000E+00  0.00000000000E+00  0.37886595070E+04  0.37886595070E+04  0.00000000000E+00 0. -1.
         21   -1    0    0  501  503 -0.00000000000E+00 -0.00000000000E+00 -0.89802506119E+02  0.89802506119E+02  0.00000000000E+00 0. -1.
    9000005    1    1    2  501    0 -0.13333683065E+03  0.15851784524E+03  0.61741194249E+03  0.76426705045E+03  0.40000000000E+03 0. -1.
   -9000005    1    1    2    0  502  0.13333683065E+03 -0.15851784524E+03  0.30814450584E+04  0.31141949627E+04  0.40000000000E+03 0. -1.
<mgrwt>
<rscale>  2 0.45045157E+03</rscale>
<asrwt>0</asrwt>
<pdfrwt beam="1">  1       21 0.58287057E+00 0.45045157E+03</pdfrwt>
<pdfrwt beam="2">  1       21 0.13815773E-01 0.45045157E+03</pdfrwt>
<totfact> 0.15537477E+01</totfact>
</mgrwt>
</event>
<event>
 4    1  0.4949719E-002  0.4271416E+03  0.7818608E-02  0.1034767E+00
         21   -1    0    0  503  502  0.00000000000E+00  0.00000000000E+00  0.13480903255E+03  0.13480903255E+03  0.00000000000E+00 0. -1.
         21   -1    0    0  501  503 -0.00000000000E+00 -0.00000000000E+00 -0.13549500756E+04  0.13549500756E+04  0.00000000000E+00 0. -1.
    9000005    1    1    2  501    0  0.13205618887E+03  0.70789488551E+02 -0.63529822994E+03  0.76554152707E+03  0.40000000000E+03 0. -1.
   -9000005    1    1    2    0  502 -0.13205618887E+03 -0.70789488551E+02 -0.58484281315E+03  0.72421758112E+03  0.40000000000E+03 0. -1.
<mgrwt>
<rscale>  2 0.42714165E+03</rscale>
<asrwt>0</asrwt>
<pdfrwt beam="1">  1       21 0.20739852E-01 0.42714165E+03</pdfrwt>
<pdfrwt beam="2">  1       21 0.20845385E+00 0.42714165E+03</pdfrwt>
<totfact> 0.21833959E+03</totfact>
</mgrwt>
</event>
<event>
 4    1  0.4949719E-002  0.5194938E+03  0.7818608E-02  0.1008812E+00
         21   -1    0    0  503  502  0.00000000000E+00  0.00000000000E+00  0.38154120878E+03  0.38154120878E+03  0.00000000000E+00 0.  1.
         21   -1    0    0  501  503 -0.00000000000E+00 -0.00000000000E+00 -0.10306794934E+04  0.10306794934E+04  0.00000000000E+00 0.  1.
    9000005    1    1    2  501    0 -0.15895182340E+03  0.29087470522E+03 -0.72007230680E+03  0.88790647217E+03  0.40000000000E+03 0.  1.
   -9000005    1    1    2    0  502  0.15895182340E+03 -0.29087470522E+03  0.70934022177E+02  0.52431423002E+03  0.40000000000E+03 0.  1.
<mgrwt>
<rscale>  2 0.51949377E+03</rscale>
<asrwt>0</asrwt>
<pdfrwt beam="1">  1       21 0.58698647E-01 0.51949377E+03</pdfrwt>
<pdfrwt beam="2">  1       21 0.15856608E+00 0.51949377E+03</pdfrwt>
<totfact> 0.56719769E+02</totfact>
</mgrwt>
</event>
<event>
 4    1  0.4949719E-002  0.9095531E+03  0.7818608E-02  0.9413718E-01
         21   -1    0    0  501  502  0.00000000000E+00  0.00000000000E+00  0.11720279126E+04  0.11720279126E+04  0.00000000000E+00 0.  1.
         21   -1    0    0  502  503 -0.00000000000E+00 -0.00000000000E+00 -0.81580792203E+03  0.81580792203E+03  0.00000000000E+00 0. -1.
    9000005    1    1    2  501    0  0.81296779442E+03  0.79814113343E+02  0.54299099115E+03  0.10593045567E+04  0.40000000000E+03 0.  1.
   -9000005    1    1    2    0  503 -0.81296779442E+03 -0.79814113343E+02 -0.18677100054E+03  0.92853127794E+03  0.40000000000E+03 0. -1.
<mgrwt>
<rscale>  2 0.90955315E+03</rscale>
<asrwt>0</asrwt>
<pdfrwt beam="1">  1       21 0.18031199E+00 0.90955315E+03</pdfrwt>
<pdfrwt beam="2">  1       21 0.12550891E+00 0.90955315E+03</pdfrwt>
<totfact> 0.56410635E+01</totfact>
</mgrwt>
</event>
<event>
 4    1  0.4949719E-002  0.4574986E+03  0.7818608E-02  0.1025509E+00
         21   -1    0    0  503  502  0.00000000000E+00  0.00000000000E+00  0.59270716008E+03  0.59270716008E+03  0.00000000000E+00 0.  1.
         21   -1    0    0  501  503 -0.00000000000E+00 -0.00000000000E+00 -0.49637954390E+03  0.49637954390E+03  0.00000000000E+00 0.  1.
    9000005    1    1    2  501    0  0.68482268859E+02 -0.21122293915E+03 -0.24436344725E+03  0.51866988106E+03  0.40000000000E+03 0.  1.
   -9000005    1    1    2    0  502 -0.68482268859E+02  0.21122293915E+03  0.34069106343E+03  0.57041682292E+03  0.40000000000E+03 0.  1.
<mgrwt>
<rscale>  2 0.45749858E+03</rscale>
<asrwt>0</asrwt>
<pdfrwt beam="1">  1       21 0.91185717E-01 0.45749858E+03</pdfrwt>
<pdfrwt beam="2">  1       21 0.76366084E-01 0.45749858E+03</pdfrwt>
<totfact> 0.13278923E+03</totfact>
</mgrwt>
</event>
<event>
 4    1  0.4949719E-002  0.4451307E+03  0.7818608E-02  0.1029184E+00
         21   -1    0    0  501  502  0.00000000000E+00  0.00000000000E+00  0.10193013079E+04  0.10193013079E+04  0.00000000000E+00 0.  1.
         21   -1    0    0  502  503 -0.00000000000E+00 -0.00000000000E+00 -0.28174324291E+03  0.28174324291E+03  0.00000000000E+00 0. -1.
    9000005    1    1    2  501    0  0.17592411415E+03 -0.84805996252E+02  0.73100240621E+03  0.85586556703E+03  0.40000000000E+03 0.  1.
   -9000005    1    1    2    0  503 -0.17592411415E+03  0.84805996252E+02  0.65556587748E+01  0.44517898378E+03  0.40000000000E+03 0. -1.
<mgrwt>
<rscale>  2 0.44513071E+03</rscale>
<asrwt>0</asrwt>
<pdfrwt beam="1">  1       21 0.15681558E+00 0.44513071E+03</pdfrwt>
<pdfrwt beam="2">  1       21 0.43345115E-01 0.44513071E+03</pdfrwt>
<totfact> 0.11521659E+03</totfact>
</mgrwt>
</event>
<event>
 4    1  0.4949719E-002  0.4311389E+03  0.7818608E-02  0.1033501E+00
         21   -1    0    0  501  502  0.00000000000E+00  0.00000000000E+00  0.13642097601E+04  0.13642097601E+04  0.00000000000E+00 0.  1.
         21   -1    0    0  502  503 -0.00000000000E+00 -0.00000000000E+00 -0.16856140294E+04  0.16856140294E+04  0.00000000000E+00 0.  1.
    9000005    1    1    2  501    0 -0.11612266216E+03  0.11133858286E+03  0.13012787054E+04  0.13708417202E+04  0.40000000000E+03 0.  1.
   -9000005    1    1    2    0  503  0.11612266216E+03 -0.11133858286E+03 -0.16226829747E+04  0.16789820693E+04  0.40000000000E+03 0.  1.
<mgrwt>
<rscale>  2 0.43113890E+03</rscale>
<asrwt>0</asrwt>
<pdfrwt beam="1">  1       21 0.20987842E+00 0.43113890E+03</pdfrwt>
<pdfrwt beam="2">  1       21 0.25932524E+00 0.43113890E+03</pdfrwt>
<totfact> 0.49866170E+00</totfact>
</mgrwt>
</event>
<event>
 4    1  0.4949719E-002  0.4168024E+03  0.7818608E-02  0.1038112E+00
         21   -1    0    0  501  502  0.00000000000E+00  0.00000000000E+00  0.10644134860E+04  0.10644134860E+04  0.00000000000E+00 0. -1.
         21   -1    0    0  502  503 -0.00000000000E+00 -0.00000000000E+00 -0.50386243935E+03  0.50386243935E+03  0.00000000000E+00 0. -1.
    9000005    1    1    2  501    0 -0.93313168609E+02  0.70829953577E+02  0.92502568215E+03  0.10145919093E+04  0.40000000000E+03 0. -1.
   -9000005    1    1    2    0  503  0.93313168609E+02 -0.70829953577E+02 -0.36447463547E+03  0.55368401608E+03  0.40000000000E+03 0. -1.
<mgrwt>
<rscale>  2 0.41680239E+03</rscale>
<asrwt>0</asrwt>
<pdfrwt beam="1">  1       21 0.16375592E+00 0.41680239E+03</pdfrwt>
<pdfrwt beam="2">  1       21 0.77517298E-01 0.41680239E+03</pdfrwt>
<totfact> 0.29154748E+02</totfact>
</mgrwt>
</event>
<event>
 4    1  0.4949719E-002  0.5744517E+03  0.7818608E-02  0.9959876E-01
         21   -1    0    0  501  502  0.00000000000E+00  0.00000000000E+00  0.41248234748E+03  0.41248234748E+03  0.00000000000E+00 0. -1.
         21   -1    0    0  502  503 -0.00000000000E+00 -0.00000000000E+00 -0.10694830580E+04  0.10694830580E+04  0.00000000000E+00 0.  1.
    9000005    1    1    2  501    0  0.19981259066E+03 -0.36065167846E+03  0.43436834503E+02  0.57609154061E+03  0.40000000000E+03 0.  1.
   -9000005    1    1    2    0  503 -0.19981259066E+03  0.36065167846E+03 -0.70043754500E+03  0.90587386485E+03  0.40000000000E+03 0. -1.
<mgrwt>
<rscale>  2 0.57445166E+03</rscale>
<asrwt>0</asrwt>
<pdfrwt beam="1">  1       21 0.63458822E-01 0.57445166E+03</pdfrwt>
<pdfrwt beam="2">  1       21 0.16453586E+00 0.57445166E+03</pdfrwt>
<totfact> 0.42140602E+02</totfact>
</mgrwt>
</event>
<event>
 4    1  0.4949719E-002  0.4065311E+03  0.7818608E-02  0.1041541E+00
         21   -1    0    0  503  502  0.00000000000E+00  0.00000000000E+00  0.10301655563E+03  0.10301655563E+03  0.00000000000E+00 0.  1.
         21   -1    0    0  501  503 -0.00000000000E+00 -0.00000000000E+00 -0.17614976753E+04  0.17614976753E+04  0.00000000000E+00 0.  1.
    9000005    1    1    2  501    0  0.57813473822E+02  0.43876290945E+02 -0.11077523950E+04  0.11799927522E+04  0.40000000000E+03 0.  1.
   -9000005    1    1    2    0  502 -0.57813473822E+02 -0.43876290945E+02 -0.55072872473E+03  0.68452147878E+03  0.40000000000E+03 0.  1.
<mgrwt>
<rscale>  2 0.40653109E+03</rscale>
<asrwt>0</asrwt>
<pdfrwt beam="1">  1       21 0.15848701E-01 0.40653109E+03</pdfrwt>
<pdfrwt beam="2">  1       21 0.27099964E+00 0.40653109E+03</pdfrwt>
<totfact> 0.14951340E+03</totfact>
</mgrwt>
</event>
<event>
 4    1  0.4949719E-002  0.5264610E+03  0.7818608E-02  0.1007094E+00
         21   -1    0    0  503  502  0.00000000000E+00  0.00000000000E+00  0.16418298168E+03  0.16418298168E+03  0.00000000000E+00 0. -1.
         21   -1    0    0  501  503 -0.00000000000E+00 -0.00000000000E+00 -0.18804106766E+04  0.18804106766E+04  0.00000000000E+00 0.  1.
    9000005    1    1    2  501    0  0.29522110619E+03 -0.17322155816E+03 -0.11850217413E+04  0.12967026402E+04  0.40000000000E+03 0.  1.
   -9000005    1    1    2    0  502 -0.29522110619E+03  0.17322155816E+03 -0.53120595362E+03  0.74789101807E+03  0.40000000000E+03 0. -1.
<mgrwt>
<rscale>  2 0.52646102E+03</rscale>
<asrwt>0</asrwt>
<pdfrwt beam="1">  1       21 0.25258919E-01 0.52646102E+03</pdfrwt>
<pdfrwt beam="2">  1       21 0.28929396E+00 0.52646102E+03</pdfrwt>
<totfact> 0.44866349E+02</totfact>
</mgrwt>
</event>
<event>
 4    1  0.4949719E-002  0.4739282E+03  0.7818608E-02  0.1020817E+00
         21   -1    0    0  503  502  0.00000000000E+00  0.00000000000E+00  0.52663728820E+03  0.52663728820E+03  0.00000000000E+00 0.  1.
         21   -1    0    0  501  503 -0.00000000000E+00 -0.00000000000E+00 -0.60774345056E+03  0.60774345056E+03  0.00000000000E+00 0.  1.
    9000005    1    1    2  501    0  0.13251912808E+03 -0.21690238349E+03 -0.35029952331E+03  0.58933667738E+03  0.40000000000E+03 0.  1.
   -9000005    1    1    2    0  502 -0.13251912808E+03  0.21690238349E+03  0.26919336095E+03  0.54504406139E+03  0.40000000000E+03 0.  1.
<mgrwt>
<rscale>  2 0.47392823E+03</rscale>
<asrwt>0</asrwt>
<pdfrwt beam="1">  1       21 0.81021121E-01 0.47392823E+03</pdfrwt>
<pdfrwt beam="2">  1       21 0.93498993E-01 0.47392823E+03</pdfrwt>
<totfact> 0.10844909E+03</totfact>
</mgrwt>
</event>
<event>
 4    1  0.4949719E-002  0.4098571E+03  0.7818608E-02  0.1040419E+00
         21   -1    0    0  501  502  0.00000000000E+00  0.00000000000E+00  0.63060546930E+03  0.63060546930E+03  0.00000000000E+00 0. -1.
         21   -1    0    0  502  503 -0.00000000000E+00 -0.00000000000E+00 -0.38405626584E+03  0.38405626584E+03  0.00000000000E+00 0. -1.
    9000005    1    1    2  501    0  0.46151120783E+02 -0.76504566498E+02  0.40409709510E+03  0.57556696997E+03  0.40000000000E+03 0. -1.
   -9000005    1    1    2    0  503 -0.46151120783E+02  0.76504566498E+02 -0.15754789165E+03  0.43909476518E+03  0.40000000000E+03 0. -1.
<mgrwt>
<rscale>  2 0.40985714E+03</rscale>
<asrwt>0</asrwt>
<pdfrwt beam="1">  1       21 0.97016226E-01 0.40985714E+03</pdfrwt>
<pdfrwt beam="2">  1       21 0.59085579E-01 0.40985714E+03</pdfrwt>
<totfact> 0.20703703E+03</totfact>
</mgrwt>
</event>
<event>
 4    1  0.4949719E-002  0.6262445E+03  0.7818608E-02  0.9852405E-01
         21   -1    0    0  501  502  0.00000000000E+00  0.00000000000E+00  0.18703147878E+04  0.18703147878E+04  0.00000000000E+00 0.  1.
         21   -1    0    0  502  503 -0.00000000000E+00 -0.00000000000E+00 -0.24664288409E+03  0.24664288409E+03  0.00000000000E+00 0.  1.
    9000005    1    1    2  501    0 -0.31348790595E+03 -0.36593366482E+03  0.12215541265E+04  0.13727259734E+04  0.40000000000E+03 0.  1.
   -9000005    1    1    2    0  503  0.31348790595E+03  0.36593366482E+03  0.40211777724E+03  0.74423169846E+03  0.40000000000E+03 0.  1.
<mgrwt>
<rscale>  2 0.62624445E+03</rscale>
<asrwt>0</asrwt>
<pdfrwt beam="1">  1       21 0.28774073E+00 0.62624445E+03</pdfrwt>
<pdfrwt beam="2">  1       21 0.37945060E-01 0.62624445E+03</pdfrwt>
<totfact> 0.19396075E+02</totfact>
</mgrwt>
</event>
<event>
 4    1  0.4949719E-002  0.4703475E+03  0.7818608E-02  0.1021822E+00
         21   -1    0    0  501  502  0.00000000000E+00  0.00000000000E+00  0.60025236157E+03  0.60025236157E+03  0.00000000000E+00 0.  1.
         21   -1    0    0  502  503 -0.00000000000E+00 -0.00000000000E+00 -0.54993464283E+03  0.54993464283E+03  0.00000000000E+00 0.  1.
    9000005    1    1    2  501    0 -0.15739272556E+03  0.19093018957E+03  0.35543378271E+03  0.58954217936E+03  0.40000000000E+03 0.  1.
   -9000005    1    1    2    0  503  0.15739272556E+03 -0.19093018957E+03 -0.30511606398E+03  0.56064482504E+03  0.40000000000E+03 0.  1.
<mgrwt>
<rscale>  2 0.47034754E+03</rscale>
<asrwt>0</asrwt>
<pdfrwt beam="1">  1       21 0.92346517E-01 0.47034754E+03</pdfrwt>
<pdfrwt beam="2">  1       21 0.84605330E-01 0.47034754E+03</pdfrwt>
<totfact> 0.10113584E+03</totfact>
</mgrwt>
</event>
<event>
 4    1  0.4949719E-002  0.5163679E+03  0.7818608E-02  0.1009593E+00
         21   -1    0    0  501  502  0.00000000000E+00  0.00000000000E+00  0.10818544523E+04  0.10818544523E+04  0.00000000000E+00 0.  1.
         21   -1    0    0  502  503 -0.00000000000E+00 -0.00000000000E+00 -0.38976649911E+03  0.38976649911E+03  0.00000000000E+00 0.  1.
    9000005    1    1    2  501    0 -0.28504231999E+03  0.15933199758E+03  0.79220734330E+03  0.94563644410E+03  0.40000000000E+03 0.  1.
   -9000005    1    1    2    0  503  0.28504231999E+03 -0.15933199758E+03 -0.10011939012E+03  0.52598450730E+03  0.40000000000E+03 0.  1.
<mgrwt>
<rscale>  2 0.51636790E+03</rscale>
<asrwt>0</asrwt>
<pdfrwt beam="1">  1       21 0.16643915E+00 0.51636790E+03</pdfrwt>
<pdfrwt beam="2">  1       21 0.59964077E-01 0.51636790E+03</pdfrwt>
<totfact> 0.47281637E+02</totfact>
</mgrwt>
</event>
<event>
 4    1  0.4949719E-002  0.4055797E+03  0.7818608E-02  0.1041865E+00
         21   -1    0    0  503  502  0.00000000000E+00  0.00000000000E+00  0.85756583643E+03  0.85756583643E+03  0.00000000000E+00 0.  1.
         21   -1    0    0  501  503 -0.00000000000E+00 -0.00000000000E+00 -0.19184328700E+03  0.19184328700E+03  0.00000000000E+00 0.  1.
    9000005    1    1    2  501    0  0.46795978975E+01  0.66880562321E+02  0.33911104547E+03  0.52866928170E+03  0.40000000000E+03 0.  1.
   -9000005    1    1    2    0  502 -0.46795978975E+01 -0.66880562321E+02  0.32661150396E+03  0.52073984173E+03  0.40000000000E+03 0.  1.
<mgrwt>
<rscale>  2 0.40557972E+03</rscale>
<asrwt>0</asrwt>
<pdfrwt beam="1">  1       21 0.13193320E+00 0.40557972E+03</pdfrwt>
<pdfrwt beam="2">  1       21 0.29514352E-01 0.40557972E+03</pdfrwt>
<totfact> 0.40543609E+03</totfact>
</mgrwt>
</event>
<event>
 4    1  0.4949719E-002  0.4087031E+03  0.7818608E-02  0.1040807E+00
         21   -1    0    0  503  502  0.00000000000E+00  0.00000000000E+00  0.25118887169E+03  0.25118887169E+03  0.00000000000E+00 0. -1.
         21   -1    0    0  501  503 -0.00000000000E+00 -0.00000000000E+00 -0.10752041354E+04  0.10752041354E+04  0.00000000000E+00 0. -1.
    9000005    1    1    2  501    0  0.11991218893E+01 -0.83885688788E+02 -0.82164705015E+03  0.91768301809E+03  0.40000000000E+03 0. -1.
   -9000005    1    1    2    0  502 -0.11991218893E+01  0.83885688788E+02 -0.23682135682E+01  0.40870998900E+03  0.40000000000E+03 0. -1.
<mgrwt>
<rscale>  2 0.40870313E+03</rscale>
<asrwt>0</asrwt>
<pdfrwt beam="1">  1       21 0.38644443E-01 0.40870313E+03</pdfrwt>
<pdfrwt beam="2">  1       21 0.16541602E+00 0.40870313E+03</pdfrwt>
<totfact> 0.12790324E+03</totfact>
</mgrwt>
</event>
<event>
 4    1  0.4949719E-002  0.4765992E+03  0.7818608E-02  0.1020074E+00
         21   -1    0    0  503  502  0.00000000000E+00  0.00000000000E+00  0.79804630671E+03  0.79804630671E+03  0.00000000000E+00 0.  1.
         21   -1    0    0  501  503 -0.00000000000E+00 -0.00000000000E+00 -0.48771772860E+03  0.48771772860E+03  0.00000000000E+00 0.  1.
    9000005    1    1    2  501    0  0.25912672582E+03 -0.37314270001E+00 -0.25968499976E+03  0.54275509981E+03  0.40000000000E+03 0.  1.
   -9000005    1    1    2    0  502 -0.25912672582E+03  0.37314270001E+00  0.57001357788E+03  0.74300893550E+03  0.40000000000E+03 0.  1.
<mgrwt>
<rscale>  2 0.47659920E+03</rscale>
<asrwt>0</asrwt>
<pdfrwt beam="1">  1       21 0.12277636E+00 0.47659920E+03</pdfrwt>
<pdfrwt beam="2">  1       21 0.75033497E-01 0.47659920E+03</pdfrwt>
<totfact> 0.65909095E+02</totfact>
</mgrwt>
</event>
<event>
 4    1  0.4949719E-002  0.4961763E+03  0.7818608E-02  0.1014782E+00
         21   -1    0    0  503  502  0.00000000000E+00  0.00000000000E+00  0.94908343063E+03  0.94908343063E+03  0.00000000000E+00 0.  1.
         21   -1    0    0  501  503 -0.00000000000E+00 -0.00000000000E+00 -0.25977940804E+03  0.25977940804E+03  0.00000000000E+00 0.  1.
    9000005    1    1    2  501    0 -0.20678807364E+03  0.20839765396E+03  0.32150942392E+03  0.59123531631E+03  0.40000000000E+03 0.  1.
   -9000005    1    1    2    0  502  0.20678807364E+03 -0.20839765396E+03  0.36779459867E+03  0.61762752237E+03  0.40000000000E+03 0.  1.
<mgrwt>
<rscale>  2 0.49617627E+03</rscale>
<asrwt>0</asrwt>
<pdfrwt beam="1">  1       21 0.14601283E+00 0.49617627E+03</pdfrwt>
<pdfrwt beam="2">  1       21 0.39966063E-01 0.49617627E+03</pdfrwt>
<totfact> 0.16232027E+03</totfact>
</mgrwt>
</event>
<event>
 4    1  0.4949719E-002  0.5845636E+03  0.7818608E-02  0.9937959E-01
         21   -1    0    0  501  502  0.00000000000E+00  0.00000000000E+00  0.16969024721E+04  0.16969024721E+04  0.00000000000E+00 0.  1.
         21   -1    0    0  502  503 -0.00000000000E+00 -0.00000000000E+00 -0.27924995844E+03  0.27924995844E+03  0.00000000000E+00 0.  1.
    9000005    1    1    2  501    0  0.38212402063E+03  0.18893351923E+03  0.12306109215E+04  0.13623941727E+04  0.40000000000E+03 0.  1.
   -9000005    1    1    2    0  503 -0.38212402063E+03 -0.18893351923E+03  0.18704159220E+03  0.61375825782E+03  0.40000000000E+03 0.  1.
<mgrwt>
<rscale>  2 0.58456363E+03</rscale>
<asrwt>0</asrwt>
<pdfrwt beam="1">  1       21 0.26106191E+00 0.58456363E+03</pdfrwt>
<pdfrwt beam="2">  1       21 0.42961533E-01 0.58456363E+03</pdfrwt>
<totfact> 0.22224701E+02</totfact>
</mgrwt>
</event>
<event>
 4    1  0.4949719E-002  0.5483254E+03  0.7818608E-02  0.1001882E+00
         21   -1    0    0  503  502  0.00000000000E+00  0.00000000000E+00  0.45534816018E+03  0.45534816018E+03  0.00000000000E+00 0.  1.
         21   -1    0    0  501  503 -0.00000000000E+00 -0.00000000000E+00 -0.10078689276E+04  0.10078689276E+04  0.00000000000E+00 0.  1.
    9000005    1    1    2  501    0  0.35095342360E+02  0.37340198513E+03 -0.70590065728E+03  0.89384364600E+03  0.40000000000E+03 0.  1.
   -9000005    1    1    2    0  502 -0.35095342360E+02 -0.37340198513E+03  0.15337988988E+03  0.56937344175E+03  0.40000000000E+03 0.  1.
<mgrwt>
<rscale>  2 0.54832538E+03</rscale>
<asrwt>0</asrwt>
<pdfrwt beam="1">  1       21 0.70053564E-01 0.54832538E+03</pdfrwt>
<pdfrwt beam="2">  1       21 0.15505676E+00 0.54832538E+03</pdfrwt>
<totfact> 0.40269884E+02</totfact>
</mgrwt>
</event>
<event>
 4    1  0.4949719E-002  0.4460112E+03  0.7818608E-02  0.1028918E+00
         21   -1    0    0  501  502  0.00000000000E+00  0.00000000000E+00  0.16704576104E+04  0.16704576104E+04  0.00000000000E+00 0.  1.
         21   -1    0    0  502  503 -0.00000000000E+00 -0.00000000000E+00 -0.14194478564E+03  0.14194478564E+03  0.00000000000E+00 0.  1.
    9000005    1    1    2  501    0 -0.28273338307E+01 -0.19727637363E+03  0.11279232789E+04  0.12129043179E+04  0.40000000000E+03 0.  1.
   -9000005    1    1    2    0  503  0.28273338307E+01  0.19727637363E+03  0.40058954592E+03  0.59949807815E+03  0.40000000000E+03 0.  1.
<mgrwt>
<rscale>  2 0.44601117E+03</rscale>
<asrwt>0</asrwt>
<pdfrwt beam="1">  1       21 0.25699346E+00 0.44601117E+03</pdfrwt>
<pdfrwt beam="2">  1       21 0.21837661E-01 0.44601117E+03</pdfrwt>
<totfact> 0.97188780E+02</totfact>
</mgrwt>
</event>
<event>
 4    1  0.4949719E-002  0.5508608E+03  0.7818608E-02  0.1001295E+00
         21   -1    0    0  503  502  0.00000000000E+00  0.00000000000E+00  0.99912912220E+03  0.99912912220E+03  0.00000000000E+00 0.  1.
         21   -1    0    0  501  503 -0.00000000000E+00 -0.00000000000E+00 -0.30393667924E+03  0.30393667924E+03  0.00000000000E+00 0. -1.
    9000005    1    1    2  501    0  0.28591294799E+03 -0.24839778674E+03  0.32988855019E+03  0.64208576517E+03  0.40000000000E+03 0.  1.
   -9000005    1    1    2    0  502 -0.28591294799E+03  0.24839778674E+03  0.36530389276E+03  0.66098003627E+03  0.40000000000E+03 0. -1.
<mgrwt>
<rscale>  2 0.55086085E+03</rscale>
<asrwt>0</asrwt>
<pdfrwt beam="1">  1       21 0.15371217E+00 0.55086085E+03</pdfrwt>
<pdfrwt beam="2">  1       21 0.46759490E-01 0.55086085E+03</pdfrwt>
<totfact> 0.99687375E+02</totfact>
</mgrwt>
</event>
<event>
 4    1  0.4949719E-002  0.4102200E+03  0.7818608E-02  0.1040297E+00
         21   -1    0    0  503  502  0.00000000000E+00  0.00000000000E+00  0.21137845453E+03  0.21137845453E+03  0.00000000000E+00 0.  1.
         21   -1    0    0  501  503 -0.00000000000E+00 -0.00000000000E+00 -0.81000511056E+03  0.81000511056E+03  0.00000000000E+00 0.  1.
    9000005    1    1    2  501    0 -0.74630504725E+02 -0.52065008240E+02 -0.23242539479E+03  0.47148917428E+03  0.40000000000E+03 0.  1.
   -9000005    1    1    2    0  502  0.74630504725E+02  0.52065008240E+02 -0.36620126124E+03  0.54989439082E+03  0.40000000000E+03 0.  1.
<mgrwt>
<rscale>  2 0.41022004E+03</rscale>
<asrwt>0</asrwt>
<pdfrwt beam="1">  1       21 0.32519762E-01 0.41022004E+03</pdfrwt>
<pdfrwt beam="2">  1       21 0.12461617E+00 0.41022004E+03</pdfrwt>
<totfact> 0.38654854E+03</totfact>
</mgrwt>
</event>
<event>
 4    1  0.4949719E-002  0.4859922E+03  0.7818608E-02  0.1017501E+00
         21   -1    0    0  501  502  0.00000000000E+00  0.00000000000E+00  0.14811604535E+04  0.14811604535E+04  0.00000000000E+00 0. -1.
         21   -1    0    0  502  503 -0.00000000000E+00 -0.00000000000E+00 -0.17665036335E+03  0.17665036335E+03  0.00000000000E+00 0. -1.
    9000005    1    1    2  501    0  0.27075159002E+03 -0.53683924982E+02  0.91081934346E+03  0.10323663418E+04  0.40000000000E+03 0. -1.
   -9000005    1    1    2    0  503 -0.27075159002E+03  0.53683924982E+02  0.39369074667E+03  0.62544447500E+03  0.40000000000E+03 0. -1.
<mgrwt>
<rscale>  2 0.48599217E+03</rscale>
<asrwt>0</asrwt>
<pdfrwt beam="1">  1       21 0.22787083E+00 0.48599217E+03</pdfrwt>
<pdfrwt beam="2">  1       21 0.27176980E-01 0.48599217E+03</pdfrwt>
<totfact> 0.94525809E+02</totfact>
</mgrwt>
</event>
<event>
 4    1  0.4949719E-002  0.4725777E+03  0.7818608E-02  0.1021195E+00
         21   -1    0    0  503  502  0.00000000000E+00  0.00000000000E+00  0.52585784977E+03  0.52585784977E+03  0.00000000000E+00 0. -1.
         21   -1    0    0  501  503 -0.00000000000E+00 -0.00000000000E+00 -0.57551354295E+03  0.57551354295E+03  0.00000000000E+00 0. -1.
    9000005    1    1    2  501    0  0.39899911257E+02  0.24847076023E+03  0.25707662395E+03  0.53797594016E+03  0.40000000000E+03 0. -1.
   -9000005    1    1    2    0  502 -0.39899911257E+02 -0.24847076023E+03 -0.30673231712E+03  0.56339545257E+03  0.40000000000E+03 0. -1.
<mgrwt>
<rscale>  2 0.47257774E+03</rscale>
<asrwt>0</asrwt>
<pdfrwt beam="1">  1       21 0.80901207E-01 0.47257774E+03</pdfrwt>
<pdfrwt beam="2">  1       21 0.88540546E-01 0.47257774E+03</pdfrwt>
<totfact> 0.12393674E+03</totfact>
</mgrwt>
</event>
<event>
 4    1  0.4949719E-002  0.4698382E+03  0.7818608E-02  0.1021966E+00
         21   -1    0    0  501  502  0.00000000000E+00  0.00000000000E+00  0.60415167811E+03  0.60415167811E+03  0.00000000000E+00 0. -1.
         21   -1    0    0  502  503 -0.00000000000E+00 -0.00000000000E+00 -0.37180939533E+03  0.37180939533E+03  0.00000000000E+00 0. -1.
    9000005    1    1    2  501    0  0.24506647377E+03  0.26273960368E+02  0.18031602087E+03  0.50325119467E+03  0.40000000000E+03 0. -1.
   -9000005    1    1    2    0  503 -0.24506647377E+03 -0.26273960368E+02  0.52026261915E+02  0.47270987877E+03  0.40000000000E+03 0. -1.
<mgrwt>
<rscale>  2 0.46983816E+03</rscale>
<asrwt>0</asrwt>
<pdfrwt beam="1">  1       21 0.92946412E-01 0.46983816E+03</pdfrwt>
<pdfrwt beam="2">  1       21 0.57201445E-01 0.46983816E+03</pdfrwt>
<totfact> 0.24065789E+03</totfact>
</mgrwt>
</event>
<event>
 4    1  0.4949719E-002  0.5867321E+03  0.7818608E-02  0.9933322E-01
         21   -1    0    0  501  502  0.00000000000E+00  0.00000000000E+00  0.19064958329E+03  0.19064958329E+03  0.00000000000E+00 0.  1.
         21   -1    0    0  502  503 -0.00000000000E+00 -0.00000000000E+00 -0.18463582900E+04  0.18463582900E+04  0.00000000000E+00 0.  1.
    9000005    1    1    2  501    0  0.77255529181E+02 -0.42223943550E+03 -0.97900790214E+03  0.11413636713E+04  0.40000000000E+03 0.  1.
   -9000005    1    1    2    0  503 -0.77255529181E+02  0.42223943550E+03 -0.67670080461E+03  0.89564420204E+03  0.40000000000E+03 0.  1.
<mgrwt>
<rscale>  2 0.58673210E+03</rscale>
<asrwt>0</asrwt>
<pdfrwt beam="1">  1       21 0.29330707E-01 0.58673210E+03</pdfrwt>
<pdfrwt beam="2">  1       21 0.28405511E+00 0.58673210E+03</pdfrwt>
<totfact> 0.34980675E+02</totfact>
</mgrwt>
</event>
<event>
 4    1  0.4949719E-002  0.4178068E+03  0.7818608E-02  0.1037782E+00
         21   -1    0    0  501  502  0.00000000000E+00  0.00000000000E+00  0.55123239859E+03  0.55123239859E+03  0.00000000000E+00 0. -1.
         21   -1    0    0  502  503 -0.00000000000E+00 -0.00000000000E+00 -0.49473145019E+03  0.49473145019E+03  0.00000000000E+00 0. -1.
    9000005    1    1    2  501    0 -0.65895238779E+02 -0.10109557386E+03  0.34199677309E+03  0.53992989392E+03  0.40000000000E+03 0. -1.
   -9000005    1    1    2    0  503  0.65895238779E+02  0.10109557386E+03 -0.28549582469E+03  0.50603395485E+03  0.40000000000E+03 0. -1.
<mgrwt>
<rscale>  2 0.41780677E+03</rscale>
<asrwt>0</asrwt>
<pdfrwt beam="1">  1       21 0.84804984E-01 0.41780677E+03</pdfrwt>
<pdfrwt beam="2">  1       21 0.76112531E-01 0.41780677E+03</pdfrwt>
<totfact> 0.16128830E+03</totfact>
</mgrwt>
</event>
<event>
 4    1  0.4949719E-002  0.4082127E+03  0.7818608E-02  0.1040972E+00
         21   -1    0    0  501  502  0.00000000000E+00  0.00000000000E+00  0.83230391843E+03  0.83230391843E+03  0.00000000000E+00 0. -1.
         21   -1    0    0  502  503 -0.00000000000E+00 -0.00000000000E+00 -0.36884158946E+03  0.36884158946E+03  0.00000000000E+00 0. -1.
    9000005    1    1    2  501    0 -0.33647383928E+02 -0.74198767248E+02  0.63781153818E+03  0.75725897931E+03  0.40000000000E+03 0. -1.
   -9000005    1    1    2    0  503  0.33647383928E+02  0.74198767248E+02 -0.17434920921E+03  0.44388652858E+03  0.40000000000E+03 0. -1.
<mgrwt>
<rscale>  2 0.40821269E+03</rscale>
<asrwt>0</asrwt>
<pdfrwt beam="1">  1       21 0.12804676E+00 0.40821269E+03</pdfrwt>
<pdfrwt beam="2">  1       21 0.56744860E-01 0.40821269E+03</pdfrwt>
<totfact> 0.11342152E+03</totfact>
</mgrwt>
</event>
<event>
 4    1  0.4949719E-002  0.4316500E+03  0.7818608E-02  0.1033340E+00
         21   -1    0    0  503  502  0.00000000000E+00  0.00000000000E+00  0.21931344739E+03  0.21931344739E+03  0.00000000000E+00 0.  1.
         21   -1    0    0  501  503 -0.00000000000E+00 -0.00000000000E+00 -0.94311696189E+03  0.94311696189E+03  0.00000000000E+00 0.  1.
    9000005    1    1    2  501    0 -0.60185370213E+02  0.15066340905E+03 -0.54495317462E+03  0.69519472390E+03  0.40000000000E+03 0.  1.
   -9000005    1    1    2    0  502  0.60185370213E+02 -0.15066340905E+03 -0.17885033988E+03  0.46723568538E+03  0.40000000000E+03 0.  1.
<mgrwt>
<rscale>  2 0.43165002E+03</rscale>
<asrwt>0</asrwt>
<pdfrwt beam="1">  1       21 0.33740531E-01 0.43165002E+03</pdfrwt>
<pdfrwt beam="2">  1       21 0.14509491E+00 0.43165002E+03</pdfrwt>
<totfact> 0.23898157E+03</totfact>
</mgrwt>
</event>
<event>
 4    1  0.4949719E-002  0.4224009E+03  0.7818608E-02  0.1036288E+00
         21   -1    0    0  501  502  0.00000000000E+00  0.00000000000E+00  0.39585173861E+03  0.39585173861E+03  0.00000000000E+00 0.  1.
         21   -1    0    0  502  503 -0.00000000000E+00 -0.00000000000E+00 -0.55874008903E+03  0.55874008903E+03  0.00000000000E+00 0.  1.
    9000005    1    1    2  501    0  0.11287389209E+03 -0.75379058769E+02  0.12840807088E+03  0.44148742981E+03  0.40000000000E+03 0.  1.
   -9000005    1    1    2    0  503 -0.11287389209E+03  0.75379058769E+02 -0.29129642130E+03  0.51310439783E+03  0.40000000000E+03 0.  1.
<mgrwt>
<rscale>  2 0.42240090E+03</rscale>
<asrwt>0</asrwt>
<pdfrwt beam="1">  1       21 0.60900267E-01 0.42240090E+03</pdfrwt>
<pdfrwt beam="2">  1       21 0.85960014E-01 0.42240090E+03</pdfrwt>
<totfact> 0.25689799E+03</totfact>
</mgrwt>
</event>
<event>
 4    1  0.4949719E-002  0.4617704E+03  0.7818608E-02  0.1024269E+00
         21   -1    0    0  503  502  0.00000000000E+00  0.00000000000E+00  0.11602257319E+04  0.11602257319E+04  0.00000000000E+00 0. -1.
         21   -1    0    0  501  503 -0.00000000000E+00 -0.00000000000E+00 -0.26739859720E+03  0.26739859720E+03  0.00000000000E+00 0.  1.
    9000005    1    1    2  501    0  0.18090732969E+03 -0.14319363901E+03  0.47256983164E+02  0.46418218691E+03  0.40000000000E+03 0.  1.
   -9000005    1    1    2    0  502 -0.18090732969E+03  0.14319363901E+03  0.84557015154E+03  0.96344214220E+03  0.40000000000E+03 0. -1.
<mgrwt>
<rscale>  2 0.46177038E+03</rscale>
<asrwt>0</asrwt>
<pdfrwt beam="1">  1       21 0.17849626E+00 0.46177038E+03</pdfrwt>
<pdfrwt beam="2">  1       21 0.41138246E-01 0.46177038E+03</pdfrwt>
<totfact> 0.88319416E+02</totfact>
</mgrwt>
</event>
<event>
 4    1  0.4949719E-002  0.4503989E+03  0.7818608E-02  0.1027603E+00
         21   -1    0    0  503  502  0.00000000000E+00  0.00000000000E+00  0.48661394363E+03  0.48661394363E+03  0.00000000000E+00 0. -1.
         21   -1    0    0  501  503 -0.00000000000E+00 -0.00000000000E+00 -0.15617944912E+04  0.15617944912E+04  0.00000000000E+00 0.  1.
    9000005    1    1    2  501    0 -0.45838571786E+02  0.20188606460E+03 -0.14145129956E+04  0.14844885221E+04  0.40000000000E+03 0.  1.
   -9000005    1    1    2    0  502  0.45838571786E+02 -0.20188606460E+03  0.33933244795E+03  0.56391991273E+03  0.40000000000E+03 0. -1.
<mgrwt>
<rscale>  2 0.45039889E+03</rscale>
<asrwt>0</asrwt>
<pdfrwt beam="1">  1       21 0.74863685E-01 0.45039889E+03</pdfrwt>
<pdfrwt beam="2">  1       21 0.24027607E+00 0.45039889E+03</pdfrwt>
<totfact> 0.95305813E+01</totfact>
</mgrwt>
</event>
<event>
 4    1  0.4949719E-002  0.6125656E+03  0.7818608E-02  0.9879674E-01
         21   -1    0    0  503  502  0.00000000000E+00  0.00000000000E+00  0.45053938446E+03  0.45053938446E+03  0.00000000000E+00 0. -1.
         21   -1    0    0  501  503 -0.00000000000E+00 -0.00000000000E+00 -0.10654804910E+04  0.10654804910E+04  0.00000000000E+00 0. -1.
    9000005    1    1    2  501    0  0.28053182972E+03 -0.36951120295E+03 -0.66165158082E+03  0.90167591239E+03  0.40000000000E+03 0. -1.
   -9000005    1    1    2    0  502 -0.28053182972E+03  0.36951120295E+03  0.46710474242E+02  0.61434396310E+03  0.40000000000E+03 0. -1.
<mgrwt>
<rscale>  2 0.61256562E+03</rscale>
<asrwt>0</asrwt>
<pdfrwt beam="1">  1       21 0.69313752E-01 0.61256562E+03</pdfrwt>
<pdfrwt beam="2">  1       21 0.16392007E+00 0.61256562E+03</pdfrwt>
<totfact> 0.34465243E+02</totfact>
</mgrwt>
</event>
<event>
 4    1  0.4949719E-002  0.4575801E+03  0.7818608E-02  0.1025485E+00
         21   -1    0    0  501  502  0.00000000000E+00  0.00000000000E+00  0.12375668510E+04  0.12375668510E+04  0.00000000000E+00 0. -1.
         21   -1    0    0  502  503 -0.00000000000E+00 -0.00000000000E+00 -0.16918974654E+03  0.16918974654E+03  0.00000000000E+00 0. -1.
    9000005    1    1    2  501    0  0.15292818485E+03 -0.16122199893E+03  0.53109157977E+03  0.70102626824E+03  0.40000000000E+03 0. -1.
   -9000005    1    1    2    0  503 -0.15292818485E+03  0.16122199893E+03  0.53728552469E+03  0.70573032931E+03  0.40000000000E+03 0. -1.
<mgrwt>
<rscale>  2 0.45758012E+03</rscale>
<asrwt>0</asrwt>
<pdfrwt beam="1">  1       21 0.19039489E+00 0.45758012E+03</pdfrwt>
<pdfrwt beam="2">  1       21 0.26029193E-01 0.45758012E+03</pdfrwt>
<totfact> 0.18343902E+03</totfact>
</mgrwt>
</event>
<event>
 4    1  0.4949719E-002  0.5568377E+03  0.7818608E-02  0.9999236E-01
         21   -1    0    0  503  502  0.00000000000E+00  0.00000000000E+00  0.23809562782E+03  0.23809562782E+03  0.00000000000E+00 0.  1.
         21   -1    0    0  501  503 -0.00000000000E+00 -0.00000000000E+00 -0.20504582755E+04  0.20504582755E+04  0.00000000000E+00 0. -1.
    9000005    1    1    2  501    0 -0.24878656346E+03 -0.29694011966E+03 -0.15973865166E+04  0.16916595025E+04  0.40000000000E+03 0. -1.
   -9000005    1    1    2    0  502  0.24878656346E+03  0.29694011966E+03 -0.21497613102E+03  0.59689440082E+03  0.40000000000E+03 0.  1.
<mgrwt>
<rscale>  2 0.55683767E+03</rscale>
<asrwt>0</asrwt>
<pdfrwt beam="1">  1       21 0.36630098E-01 0.55683767E+03</pdfrwt>
<pdfrwt beam="2">  1       21 0.31545511E+00 0.55683767E+03</pdfrwt>
<totfact> 0.14595573E+02</totfact>
</mgrwt>
</event>
<event>
 4    1  0.4949719E-002  0.4122427E+03  0.7818608E-02  0.1039621E+00
         21   -1    0    0  503  502  0.00000000000E+00  0.00000000000E+00  0.77355784066E+03  0.77355784066E+03  0.00000000000E+00 0. -1.
         21   -1    0    0  501  503 -0.00000000000E+00 -0.00000000000E+00 -0.27762784138E+03  0.27762784138E+03  0.00000000000E+00 0. -1.
    9000005    1    1    2  501    0 -0.70170699756E+02  0.70852564809E+02  0.78640918739E+01  0.41231766514E+03  0.40000000000E+03 0. -1.
   -9000005    1    1    2    0  502  0.70170699756E+02 -0.70852564809E+02  0.48806590741E+03  0.63886801690E+03  0.40000000000E+03 0. -1.
<mgrwt>
<rscale>  2 0.41224266E+03</rscale>
<asrwt>0</asrwt>
<pdfrwt beam="1">  1       21 0.11900890E+00 0.41224266E+03</pdfrwt>
<pdfrwt beam="2">  1       21 0.42711976E-01 0.41224266E+03</pdfrwt>
<totfact> 0.24925242E+03</totfact>
</mgrwt>
</event>
<event>
 4    1  0.4949719E-002  0.5264022E+03  0.7818608E-02  0.1007108E+00
         21   -1    0    0  501  502  0.00000000000E+00  0.00000000000E+00  0.26666905627E+04  0.26666905627E+04  0.00000000000E+00 0. -1.
         21   -1    0    0  502  503 -0.00000000000E+00 -0.00000000000E+00 -0.23434007842E+03  0.23434007842E+03  0.00000000000E+00 0.  1.
    9000005    1    1    2  501    0  0.33476220853E+03 -0.70947438643E+02  0.22983209793E+04  0.23578334546E+04  0.40000000000E+03 0. -1.
   -9000005    1    1    2    0  503 -0.33476220853E+03  0.70947438643E+02  0.13402950495E+03  0.54319718658E+03  0.40000000000E+03 0.  1.
<mgrwt>
<rscale>  2 0.52640220E+03</rscale>
<asrwt>0</asrwt>
<pdfrwt beam="1">  1       21 0.41026007E+00 0.52640220E+03</pdfrwt>
<pdfrwt beam="2">  1       21 0.36052322E-01 0.52640220E+03</pdfrwt>
<totfact> 0.39116857E+01</totfact>
</mgrwt>
</event>
<event>
 4    1  0.4949719E-002  0.8039028E+03  0.7818608E-02  0.9554385E-01
         21   -1    0    0  503  502  0.00000000000E+00  0.00000000000E+00  0.67326372678E+03  0.67326372678E+03  0.00000000000E+00 0.  1.
         21   -1    0    0  501  503 -0.00000000000E+00 -0.00000000000E+00 -0.10711501360E+04  0.10711501360E+04  0.00000000000E+00 0.  1.
    9000005    1    1    2  501    0  0.44208799979E+03  0.53927540765E+03  0.82157723901E+02  0.80809012892E+03  0.40000000000E+03 0.  1.
   -9000005    1    1    2    0  502 -0.44208799979E+03 -0.53927540765E+03 -0.48004413314E+03  0.93632373388E+03  0.40000000000E+03 0.  1.
<mgrwt>
<rscale>  2 0.80390283E+03</rscale>
<asrwt>0</asrwt>
<pdfrwt beam="1">  1       21 0.10357903E+00 0.80390283E+03</pdfrwt>
<pdfrwt beam="2">  1       21 0.16479233E+00 0.80390283E+03</pdfrwt>
<totfact> 0.12349393E+02</totfact>
</mgrwt>
</event>
<event>
 4    1  0.4949719E-002  0.4134717E+03  0.7818608E-02  0.1039212E+00
         21   -1    0    0  501  502  0.00000000000E+00  0.00000000000E+00  0.35369427447E+03  0.35369427447E+03  0.00000000000E+00 0. -1.
         21   -1    0    0  502  503 -0.00000000000E+00 -0.00000000000E+00 -0.64405256014E+03  0.64405256014E+03  0.00000000000E+00 0. -1.
    9000005    1    1    2  501    0  0.23673880934E+01  0.10465771675E+03  0.10401531263E+03  0.42635434496E+03  0.40000000000E+03 0. -1.
   -9000005    1    1    2    0  503 -0.23673880934E+01 -0.10465771675E+03 -0.39437359829E+03  0.57139248965E+03  0.40000000000E+03 0. -1.
<mgrwt>
<rscale>  2 0.41347169E+03</rscale>
<asrwt>0</asrwt>
<pdfrwt beam="1">  1       21 0.54414504E-01 0.41347169E+03</pdfrwt>
<pdfrwt beam="2">  1       21 0.99085009E-01 0.41347169E+03</pdfrwt>
<totfact> 0.23486003E+03</totfact>
</mgrwt>
</event>
<event>
 4    1  0.4949719E-002  0.4993945E+03  0.7818608E-02  0.1013937E+00
         21   -1    0    0  501  502  0.00000000000E+00  0.00000000000E+00  0.64610524093E+03  0.64610524093E+03  0.00000000000E+00 0. -1.
         21   -1    0    0  502  503 -0.00000000000E+00 -0.00000000000E+00 -0.38893840268E+03  0.38893840268E+03  0.00000000000E+00 0.  1.
    9000005    1    1    2  501    0  0.12979537206E+03 -0.26934749041E+03  0.17358625076E+03  0.52870322077E+03  0.40000000000E+03 0. -1.
   -9000005    1    1    2    0  503 -0.12979537206E+03  0.26934749041E+03  0.83580587491E+02  0.50634042284E+03  0.40000000000E+03 0. -1.
<mgrwt>
<rscale>  2 0.49939454E+03</rscale>
<asrwt>0</asrwt>
<pdfrwt beam="1">  1       21 0.99400806E-01 0.49939454E+03</pdfrwt>
<pdfrwt beam="2">  1       21 0.59836678E-01 0.49939454E+03</pdfrwt>
<totfact> 0.18363753E+03</totfact>
</mgrwt>
</event>
<event>
 4    1  0.4949719E-002  0.4013317E+03  0.7818608E-02  0.1043320E+00
         21   -1    0    0  503  502  0.00000000000E+00  0.00000000000E+00  0.63724173241E+03  0.63724173241E+03  0.00000000000E+00 0. -1.
         21   -1    0    0  501  503 -0.00000000000E+00 -0.00000000000E+00 -0.26061595380E+03  0.26061595380E+03  0.00000000000E+00 0. -1.
    9000005    1    1    2  501    0 -0.98419422479E+01 -0.31148636112E+02  0.11035351190E+03  0.41622710021E+03  0.40000000000E+03 0.  1.
   -9000005    1    1    2    0  502  0.98419422479E+01  0.31148636112E+02  0.26627226670E+03  0.48163058600E+03  0.40000000000E+03 0.  1.
<mgrwt>
<rscale>  2 0.40133166E+03</rscale>
<asrwt>0</asrwt>
<pdfrwt beam="1">  1       21 0.98037190E-01 0.40133166E+03</pdfrwt>
<pdfrwt beam="2">  1       21 0.40094762E-01 0.40133166E+03</pdfrwt>
<totfact> 0.46007788E+03</totfact>
</mgrwt>
</event>
<event>
 4    1  0.4949719E-002  0.4632516E+03  0.7818608E-02  0.1023842E+00
         21   -1    0    0  503  502  0.00000000000E+00  0.00000000000E+00  0.10402728743E+04  0.10402728743E+04  0.00000000000E+00 0. -1.
         21   -1    0    0  501  503 -0.00000000000E+00 -0.00000000000E+00 -0.20733727986E+03  0.20733727986E+03  0.00000000000E+00 0. -1.
    9000005    1    1    2  501    0  0.14634596926E+03  0.18216731262E+03  0.46071711518E+03  0.65334702320E+03  0.40000000000E+03 0. -1.
   -9000005    1    1    2    0  502 -0.14634596926E+03 -0.18216731262E+03  0.37221847923E+03  0.59426313093E+03  0.40000000000E+03 0. -1.
<mgrwt>
<rscale>  2 0.46325163E+03</rscale>
<asrwt>0</asrwt>
<pdfrwt beam="1">  1       21 0.16004198E+00 0.46325163E+03</pdfrwt>
<pdfrwt beam="2">  1       21 0.31898044E-01 0.46325163E+03</pdfrwt>
<totfact> 0.20207933E+03</totfact>
</mgrwt>
</event>
<event>
 4    1  0.4949719E-002  0.4530826E+03  0.7818608E-02  0.1026807E+00
         21   -1    0    0  503  502  0.00000000000E+00  0.00000000000E+00  0.99534159481E+03  0.99534159481E+03  0.00000000000E+00 0.  1.
         21   -1    0    0  501  503 -0.00000000000E+00 -0.00000000000E+00 -0.26600756062E+03  0.26600756062E+03  0.00000000000E+00 0.  1.
    9000005    1    1    2  501    0  0.12301656504E+02 -0.21244408642E+03  0.65733633593E+02  0.45782609274E+03  0.40000000000E+03 0.  1.
   -9000005    1    1    2    0  502 -0.12301656504E+02  0.21244408642E+03  0.66360040059E+03  0.80352306269E+03  0.40000000000E+03 0.  1.
<mgrwt>
<rscale>  2 0.45308258E+03</rscale>
<asrwt>0</asrwt>
<pdfrwt beam="1">  1       21 0.15312947E+00 0.45308258E+03</pdfrwt>
<pdfrwt beam="2">  1       21 0.40924241E-01 0.45308258E+03</pdfrwt>
<totfact> 0.13811909E+03</totfact>
</mgrwt>
</event>
<event>
 4    1  0.4949719E-002  0.4391602E+03  0.7818608E-02  0.1031005E+00
         21   -1    0    0  503  502  0.00000000000E+00  0.00000000000E+00  0.85257260476E+03  0.85257260476E+03  0.00000000000E+00 0. -1.
         21   -1    0    0  501  503 -0.00000000000E+00 -0.00000000000E+00 -0.40995733416E+03  0.40995733416E+03  0.00000000000E+00 0. -1.
    9000005    1    1    2  501    0  0.91402472810E+02 -0.15654804285E+03 -0.20131343601E+03  0.48310330290E+03  0.40000000000E+03 0. -1.
   -9000005    1    1    2    0  502 -0.91402472810E+02  0.15654804285E+03  0.64392870660E+03  0.77942663602E+03  0.40000000000E+03 0. -1.
<mgrwt>
<rscale>  2 0.43916022E+03</rscale>
<asrwt>0</asrwt>
<pdfrwt beam="1">  1       21 0.13116502E+00 0.43916022E+03</pdfrwt>
<pdfrwt beam="2">  1       21 0.63070359E-01 0.43916022E+03</pdfrwt>
<totfact> 0.83412007E+02</totfact>
</mgrwt>
</event>
<event>
 4    1  0.4949719E-002  0.4325056E+03  0.7818608E-02  0.1033071E+00
         21   -1    0    0  503  502  0.00000000000E+00  0.00000000000E+00  0.15825161613E+04  0.15825161613E+04  0.00000000000E+00 0.  1.
         21   -1    0    0  501  503 -0.00000000000E+00 -0.00000000000E+00 -0.19520012860E+03  0.19520012860E+03  0.00000000000E+00 0.  1.
    9000005    1    1    2  501    0 -0.33945157867E+02 -0.16096226052E+03  0.13541360105E+03  0.45320852420E+03  0.40000000000E+03 0.  1.
   -9000005    1    1    2    0  502  0.33945157867E+02  0.16096226052E+03  0.12519024317E+04  0.13245077657E+04  0.40000000000E+03 0.  1.
<mgrwt>
<rscale>  2 0.43250563E+03</rscale>
<asrwt>0</asrwt>
<pdfrwt beam="1">  1       21 0.24346402E+00 0.43250563E+03</pdfrwt>
<pdfrwt beam="2">  1       21 0.30030790E-01 0.43250563E+03</pdfrwt>
<totfact> 0.63642575E+02</totfact>
</mgrwt>
</event>
<event>
 4    1  0.4949719E-002  0.4516907E+03  0.7818608E-02  0.1027219E+00
         21   -1    0    0  501  502  0.00000000000E+00  0.00000000000E+00  0.19775179416E+03  0.19775179416E+03  0.00000000000E+00 0. -1.
         21   -1    0    0  502  503 -0.00000000000E+00 -0.00000000000E+00 -0.11902584079E+04  0.11902584079E+04  0.00000000000E+00 0. -1.
    9000005    1    1    2  501    0  0.20095578345E+03  0.60342644696E+02 -0.24296833987E+03  0.51289187540E+03  0.40000000000E+03 0.  1.
   -9000005    1    1    2    0  503 -0.20095578345E+03 -0.60342644696E+02 -0.74953827390E+03  0.87511832669E+03  0.40000000000E+03 0.  1.
<mgrwt>
<rscale>  2 0.45169067E+03</rscale>
<asrwt>0</asrwt>
<pdfrwt beam="1">  1       21 0.30423353E-01 0.45169067E+03</pdfrwt>
<pdfrwt beam="2">  1       21 0.18311668E+00 0.45169067E+03</pdfrwt>
<totfact> 0.15177137E+03</totfact>
</mgrwt>
</event>
<event>
 4    1  0.4949719E-002  0.7357134E+03  0.7818608E-02  0.9658034E-01
         21   -1    0    0  503  502  0.00000000000E+00  0.00000000000E+00  0.95873491313E+03  0.95873491313E+03  0.00000000000E+00 0. -1.
         21   -1    0    0  501  503 -0.00000000000E+00 -0.00000000000E+00 -0.88834650841E+03  0.88834650841E+03  0.00000000000E+00 0.  1.
    9000005    1    1    2  501    0  0.55902072300E+03  0.26224036702E+03 -0.52235945185E+03  0.90229350866E+03  0.40000000000E+03 0.  1.
   -9000005    1    1    2    0  502 -0.55902072300E+03 -0.26224036702E+03  0.59274785657E+03  0.94478791287E+03  0.40000000000E+03 0. -1.
<mgrwt>
<rscale>  2 0.73571338E+03</rscale>
<asrwt>0</asrwt>
<pdfrwt beam="1">  1       21 0.14749768E+00 0.73571338E+03</pdfrwt>
<pdfrwt beam="2">  1       21 0.13666869E+00 0.73571338E+03</pdfrwt>
<totfact> 0.84343447E+01</totfact>
</mgrwt>
</event>
<event>
 4    1  0.4949719E-002  0.4456816E+03  0.7818608E-02  0.1029018E+00
         21   -1    0    0  501  502  0.00000000000E+00  0.00000000000E+00  0.63501429018E+03  0.63501429018E+03  0.00000000000E+00 0. -1.
         21   -1    0    0  502  503 -0.00000000000E+00 -0.00000000000E+00 -0.32063860001E+03  0.32063860001E+03  0.00000000000E+00 0. -1.
    9000005    1    1    2  501    0  0.18831686886E+03 -0.56292867152E+02  0.23190087735E+03  0.50240436593E+03  0.40000000000E+03 0. -1.
   -9000005    1    1    2    0  503 -0.18831686886E+03  0.56292867152E+02  0.82474812821E+02  0.45324852426E+03  0.40000000000E+03 0. -1.
<mgrwt>
<rscale>  2 0.44568165E+03</rscale>
<asrwt>0</asrwt>
<pdfrwt beam="1">  1       21 0.97694506E-01 0.44568165E+03</pdfrwt>
<pdfrwt beam="2">  1       21 0.49329016E-01 0.44568165E+03</pdfrwt>
<totfact> 0.29603736E+03</totfact>
</mgrwt>
</event>
<event>
 4    1  0.4949719E-002  0.4348943E+03  0.7818608E-02  0.1032325E+00
         21   -1    0    0  501  502  0.00000000000E+00  0.00000000000E+00  0.13702229419E+04  0.13702229419E+04  0.00000000000E+00 0. -1.
         21   -1    0    0  502  503 -0.00000000000E+00 -0.00000000000E+00 -0.16644302790E+03  0.16644302790E+03  0.00000000000E+00 0.  1.
    9000005    1    1    2  501    0  0.10990716916E+03  0.13058905532E+03  0.91933507969E+03  0.10170103618E+04  0.40000000000E+03 0. -1.
   -9000005    1    1    2    0  503 -0.10990716916E+03 -0.13058905532E+03  0.28444483436E+03  0.51965560807E+03  0.40000000000E+03 0.  1.
<mgrwt>
<rscale>  2 0.43489434E+03</rscale>
<asrwt>0</asrwt>
<pdfrwt beam="1">  1       21 0.21080352E+00 0.43489434E+03</pdfrwt>
<pdfrwt beam="2">  1       21 0.25606621E-01 0.43489434E+03</pdfrwt>
<totfact> 0.13988444E+03</totfact>
</mgrwt>
</event>
<event>
 4    1  0.4949719E-002  0.4263927E+03  0.7818608E-02  0.1035006E+00
         21   -1    0    0  503  502  0.00000000000E+00  0.00000000000E+00  0.74629602886E+03  0.74629602886E+03  0.00000000000E+00 0.  1.
         21   -1    0    0  501  503 -0.00000000000E+00 -0.00000000000E+00 -0.24385759939E+03  0.24385759939E+03  0.00000000000E+00 0.  1.
    9000005    1    1    2  501    0  0.11486374302E+03 -0.92828123434E+02  0.23568319460E+03  0.48719329652E+03  0.40000000000E+03 0.  1.
   -9000005    1    1    2    0  502 -0.11486374302E+03  0.92828123434E+02  0.26675523487E+03  0.50296033173E+03  0.40000000000E+03 0.  1.
<mgrwt>
<rscale>  2 0.42639271E+03</rscale>
<asrwt>0</asrwt>
<pdfrwt beam="1">  1       21 0.11481477E+00 0.42639271E+03</pdfrwt>
<pdfrwt beam="2">  1       21 0.37516554E-01 0.42639271E+03</pdfrwt>
<totfact> 0.35416452E+03</totfact>
</mgrwt>
</event>
<event>
 4    1  0.4949719E-002  0.5259620E+03  0.7818608E-02  0.1007216E+00
         21   -1    0    0  503  502  0.00000000000E+00  0.00000000000E+00  0.16074579145E+03  0.16074579145E+03  0.00000000000E+00 0. -1.
         21   -1    0    0  501  503 -0.00000000000E+00 -0.00000000000E+00 -0.32109947061E+04  0.32109947061E+04  0.00000000000E+00 0. -1.
    9000005    1    1    2  501    0 -0.26777971560E+03  0.21196703000E+03 -0.26735517959E+04  0.27247963600E+04  0.40000000000E+03 0. -1.
   -9000005    1    1    2    0  502  0.26777971560E+03 -0.21196703000E+03 -0.37669711876E+03  0.64694413760E+03  0.40000000000E+03 0. -1.
<mgrwt>
<rscale>  2 0.52596197E+03</rscale>
<asrwt>0</asrwt>
<pdfrwt beam="1">  1       21 0.24730123E-01 0.52596197E+03</pdfrwt>
<pdfrwt beam="2">  1       21 0.49399917E+00 0.52596197E+03</pdfrwt>
<totfact> 0.22318233E+01</totfact>
</mgrwt>
</event>
<event>
 4    1  0.4949719E-002  0.4502252E+03  0.7818608E-02  0.1027655E+00
         21   -1    0    0  503  502  0.00000000000E+00  0.00000000000E+00  0.14634904185E+03  0.14634904185E+03  0.00000000000E+00 0. -1.
         21   -1    0    0  501  503 -0.00000000000E+00 -0.00000000000E+00 -0.14744075548E+04  0.14744075548E+04  0.00000000000E+00 0.  1.
    9000005    1    1    2  501    0 -0.17460301613E+03 -0.11052852773E+03 -0.86351459633E+03  0.97383788526E+03  0.40000000000E+03 0.  1.
   -9000005    1    1    2    0  502  0.17460301613E+03  0.11052852773E+03 -0.46454391661E+03  0.64691871139E+03  0.40000000000E+03 0. -1.
<mgrwt>
<rscale>  2 0.45022524E+03</rscale>
<asrwt>0</asrwt>
<pdfrwt beam="1">  1       21 0.22515237E-01 0.45022524E+03</pdfrwt>
<pdfrwt beam="2">  1       21 0.22683193E+00 0.45022524E+03</pdfrwt>
<totfact> 0.14067607E+03</totfact>
</mgrwt>
</event>
<event>
 4    1  0.4949719E-002  0.4214723E+03  0.7818608E-02  0.1036588E+00
         21   -1    0    0  501  502  0.00000000000E+00  0.00000000000E+00  0.28067523580E+03  0.28067523580E+03  0.00000000000E+00 0. -1.
         21   -1    0    0  502  503 -0.00000000000E+00 -0.00000000000E+00 -0.67751122312E+03  0.67751122312E+03  0.00000000000E+00 0.  1.
    9000005    1    1    2  501    0 -0.12680354350E+03 -0.39493987288E+02 -0.75478467372E+02  0.42817743135E+03  0.40000000000E+03 0. -1.
   -9000005    1    1    2    0  503  0.12680354350E+03  0.39493987288E+02 -0.32135751996E+03  0.53000902757E+03  0.40000000000E+03 0.  1.
<mgrwt>
<rscale>  2 0.42147232E+03</rscale>
<asrwt>0</asrwt>
<pdfrwt beam="1">  1       21 0.43180806E-01 0.42147232E+03</pdfrwt>
<pdfrwt beam="2">  1       21 0.10423250E+00 0.42147232E+03</pdfrwt>
<totfact> 0.33742570E+03</totfact>
</mgrwt>
</event>
<event>
 4    1  0.4949719E-002  0.4214936E+03  0.7818608E-02  0.1036581E+00
         21   -1    0    0  503  502  0.00000000000E+00  0.00000000000E+00  0.11284863643E+03  0.11284863643E+03  0.00000000000E+00 0. -1.
         21   -1    0    0  501  503 -0.00000000000E+00 -0.00000000000E+00 -0.18238289975E+04  0.18238289975E+04  0.00000000000E+00 0. -1.
    9000005    1    1    2  501    0  0.32594718100E+02 -0.12881932409E+03 -0.12136705384E+04  0.12847774164E+04  0.40000000000E+03 0. -1.
   -9000005    1    1    2    0  502 -0.32594718100E+02  0.12881932409E+03 -0.49730982274E+03  0.65190021760E+03  0.40000000000E+03 0. -1.
<mgrwt>
<rscale>  2 0.42149358E+03</rscale>
<asrwt>0</asrwt>
<pdfrwt beam="1">  1       21 0.17361329E-01 0.42149358E+03</pdfrwt>
<pdfrwt beam="2">  1       21 0.28058908E+00 0.42149358E+03</pdfrwt>
<totfact> 0.10952325E+03</totfact>
</mgrwt>
</event>
<event>
 4    1  0.4949719E-002  0.4669884E+03  0.7818608E-02  0.1022774E+00
         21   -1    0    0  503  502  0.00000000000E+00  0.00000000000E+00  0.37591039804E+03  0.37591039804E+03  0.00000000000E+00 0.  1.
         21   -1    0    0  501  503 -0.00000000000E+00 -0.00000000000E+00 -0.11559089270E+04  0.11559089270E+04  0.00000000000E+00 0. -1.
    9000005    1    1    2  501    0 -0.47185949269E+01  0.24094783637E+03  0.15055885224E+03  0.49065883563E+03  0.40000000000E+03 0.  1.
   -9000005    1    1    2    0  502  0.47185949269E+01 -0.24094783637E+03 -0.93055738123E+03  0.10411604894E+04  0.40000000000E+03 0. -1.
<mgrwt>
<rscale>  2 0.46698836E+03</rscale>
<asrwt>0</asrwt>
<pdfrwt beam="1">  1       21 0.57832370E-01 0.46698836E+03</pdfrwt>
<pdfrwt beam="2">  1       21 0.17783214E+00 0.46698836E+03</pdfrwt>
<totfact> 0.43236622E+02</totfact>
</mgrwt>
</event>
<event>
 4    1  0.4949719E-002  0.4030578E+03  0.7818608E-02  0.1042726E+00
         21   -1    0    0  501  502  0.00000000000E+00  0.00000000000E+00  0.13963281998E+03  0.13963281998E+03  0.00000000000E+00 0. -1.
         21   -1    0    0  502  503 -0.00000000000E+00 -0.00000000000E+00 -0.11636915557E+04  0.11636915557E+04  0.00000000000E+00 0. -1.
    9000005    1    1    2  501    0 -0.28412973692E+02 -0.40599043780E+02 -0.52144947493E+03  0.65906383176E+03  0.40000000000E+03 0.  1.
   -9000005    1    1    2    0  503  0.28412973692E+02  0.40599043780E+02 -0.50260926081E+03  0.64426054394E+03  0.40000000000E+03 0.  1.
<mgrwt>
<rscale>  2 0.40305779E+03</rscale>
<asrwt>0</asrwt>
<pdfrwt beam="1">  1       21 0.21481974E-01 0.40305779E+03</pdfrwt>
<pdfrwt beam="2">  1       21 0.17902946E+00 0.40305779E+03</pdfrwt>
<totfact> 0.32628895E+03</totfact>
</mgrwt>
</event>
<event>
 4    1  0.4949719E-002  0.4032741E+03  0.7818608E-02  0.1042652E+00
         21   -1    0    0  503  502  0.00000000000E+00  0.00000000000E+00  0.34277665548E+03  0.34277665548E+03  0.00000000000E+00 0.  1.
         21   -1    0    0  501  503 -0.00000000000E+00 -0.00000000000E+00 -0.82141960775E+03  0.82141960775E+03  0.00000000000E+00 0.  1.
    9000005    1    1    2  501    0 -0.28220868203E+02  0.42820470496E+02 -0.61764214876E+03  0.73763936583E+03  0.40000000000E+03 0.  1.
   -9000005    1    1    2    0  502  0.28220868203E+02 -0.42820470496E+02  0.13899919649E+03  0.42655689740E+03  0.40000000000E+03 0.  1.
<mgrwt>
<rscale>  2 0.40327411E+03</rscale>
<asrwt>0</asrwt>
<pdfrwt beam="1">  1       21 0.52734871E-01 0.40327411E+03</pdfrwt>
<pdfrwt beam="2">  1       21 0.12637225E+00 0.40327411E+03</pdfrwt>
<totfact> 0.13768943E+03</totfact>
</mgrwt>
</event>
<event>
 4    1  0.4949719E-002  0.4356637E+03  0.7818608E-02  0.1032086E+00
         21   -1    0    0  503  502  0.00000000000E+00  0.00000000000E+00  0.16836040274E+03  0.16836040274E+03  0.00000000000E+00 0. -1.
         21   -1    0    0  501  503 -0.00000000000E+00 -0.00000000000E+00 -0.11897432056E+04  0.11897432056E+04  0.00000000000E+00 0.  1.
    9000005    1    1    2  501    0 -0.16820220893E+03 -0.38869539482E+02 -0.66618384772E+03  0.79599230094E+03  0.40000000000E+03 0.  1.
   -9000005    1    1    2    0  502  0.16820220893E+03  0.38869539482E+02 -0.35519895519E+03  0.56211130744E+03  0.40000000000E+03 0. -1.
<mgrwt>
<rscale>  2 0.43566366E+03</rscale>
<asrwt>0</asrwt>
<pdfrwt beam="1">  1       21 0.25901599E-01 0.43566366E+03</pdfrwt>
<pdfrwt beam="2">  1       21 0.18303742E+00 0.43566366E+03</pdfrwt>
<totfact> 0.21011211E+03</totfact>
</mgrwt>
</event>
<event>
 4    1  0.4949719E-002  0.4151904E+03  0.7818608E-02  0.1038643E+00
         21   -1    0    0  501  502  0.00000000000E+00  0.00000000000E+00  0.57439833674E+03  0.57439833674E+03  0.00000000000E+00 0. -1.
         21   -1    0    0  502  503 -0.00000000000E+00 -0.00000000000E+00 -0.30294082699E+03  0.30294082699E+03  0.00000000000E+00 0. -1.
    9000005    1    1    2  501    0  0.44856240486E+02 -0.10183803541E+03  0.17812858697E+03  0.45178851387E+03  0.40000000000E+03 0. -1.
   -9000005    1    1    2    0  503 -0.44856240486E+02  0.10183803541E+03  0.93328922779E+02  0.42555064986E+03  0.40000000000E+03 0. -1.
<mgrwt>
<rscale>  2 0.41519040E+03</rscale>
<asrwt>0</asrwt>
<pdfrwt beam="1">  1       21 0.88368975E-01 0.41519040E+03</pdfrwt>
<pdfrwt beam="2">  1       21 0.46606281E-01 0.41519040E+03</pdfrwt>
<totfact> 0.42858724E+03</totfact>
</mgrwt>
</event>
<event>
 4    1  0.4949719E-002  0.4069554E+03  0.7818608E-02  0.1041398E+00
         21   -1    0    0  503  502  0.00000000000E+00  0.00000000000E+00  0.24646379172E+03  0.24646379172E+03  0.00000000000E+00 0.  1.
         21   -1    0    0  501  503 -0.00000000000E+00 -0.00000000000E+00 -0.98018405904E+03  0.98018405904E+03  0.00000000000E+00 0.  1.
    9000005    1    1    2  501    0 -0.41334384714E+02 -0.62483134396E+02 -0.71079214857E+03  0.81904709993E+03  0.40000000000E+03 0.  1.
   -9000005    1    1    2    0  502  0.41334384714E+02  0.62483134396E+02 -0.22928118749E+02  0.40760075082E+03  0.40000000000E+03 0.  1.
<mgrwt>
<rscale>  2 0.40695537E+03</rscale>
<asrwt>0</asrwt>
<pdfrwt beam="1">  1       21 0.37917507E-01 0.40695537E+03</pdfrwt>
<pdfrwt beam="2">  1       21 0.15079755E+00 0.40695537E+03</pdfrwt>
<totfact> 0.17180263E+03</totfact>
</mgrwt>
</event>
<event>
 4    1  0.4949719E-002  0.4100851E+03  0.7818608E-02  0.1040342E+00
         21   -1    0    0  503  502  0.00000000000E+00  0.00000000000E+00  0.33943812353E+03  0.33943812353E+03  0.00000000000E+00 0.  1.
         21   -1    0    0  501  503 -0.00000000000E+00 -0.00000000000E+00 -0.13738559722E+04  0.13738559722E+04  0.00000000000E+00 0.  1.
    9000005    1    1    2  501    0 -0.39361124225E+02 -0.81366492139E+02 -0.12021961392E+04  0.12702146910E+04  0.40000000000E+03 0.  1.
   -9000005    1    1    2    0  502  0.39361124225E+02  0.81366492139E+02  0.16777829051E+03  0.44307940475E+03  0.40000000000E+03 0.  1.
<mgrwt>
<rscale>  2 0.41008512E+03</rscale>
<asrwt>0</asrwt>
<pdfrwt beam="1">  1       21 0.52221249E-01 0.41008512E+03</pdfrwt>
<pdfrwt beam="2">  1       21 0.21136246E+00 0.41008512E+03</pdfrwt>
<totfact> 0.32914729E+02</totfact>
</mgrwt>
</event>
<event>
 4    1  0.4949719E-002  0.4169431E+03  0.7818608E-02  0.1038066E+00
         21   -1    0    0  503  502  0.00000000000E+00  0.00000000000E+00  0.16643699327E+04  0.16643699327E+04  0.00000000000E+00 0. -1.
         21   -1    0    0  501  503 -0.00000000000E+00 -0.00000000000E+00 -0.43732175830E+03  0.43732175830E+03  0.00000000000E+00 0.  1.
    9000005    1    1    2  501    0 -0.65912098344E+02 -0.97453120013E+02 -0.30328244298E+03  0.51557904877E+03  0.40000000000E+03 0.  1.
   -9000005    1    1    2    0  502  0.65912098344E+02  0.97453120013E+02  0.15303306174E+04  0.15861126422E+04  0.40000000000E+03 0. -1.
<mgrwt>
<rscale>  2 0.41694306E+03</rscale>
<asrwt>0</asrwt>
<pdfrwt beam="1">  1       21 0.25605691E+00 0.41694306E+03</pdfrwt>
<pdfrwt beam="2">  1       21 0.67280271E-01 0.41694306E+03</pdfrwt>
<totfact> 0.99068330E+01</totfact>
</mgrwt>
</event>
<event>
 4    1  0.4949719E-002  0.4261024E+03  0.7818608E-02  0.1035098E+00
         21   -1    0    0  503  502  0.00000000000E+00  0.00000000000E+00  0.96073124265E+03  0.96073124265E+03  0.00000000000E+00 0.  1.
         21   -1    0    0  501  503 -0.00000000000E+00 -0.00000000000E+00 -0.21722701576E+03  0.21722701576E+03  0.00000000000E+00 0.  1.
    9000005    1    1    2  501    0  0.12879813743E+03  0.70528383685E+02  0.15938098187E+03  0.45493462222E+03  0.40000000000E+03 0.  1.
   -9000005    1    1    2    0  502 -0.12879813743E+03 -0.70528383685E+02  0.58412324503E+03  0.72302363620E+03  0.40000000000E+03 0.  1.
<mgrwt>
<rscale>  2 0.42610235E+03</rscale>
<asrwt>0</asrwt>
<pdfrwt beam="1">  1       21 0.14780480E+00 0.42610235E+03</pdfrwt>
<pdfrwt beam="2">  1       21 0.33419541E-01 0.42610235E+03</pdfrwt>
<totfact> 0.23230351E+03</totfact>
</mgrwt>
</event>
<event>
 4    1  0.4949719E-002  0.5350164E+03  0.7818608E-02  0.1005023E+00
         21   -1    0    0  501  502  0.00000000000E+00  0.00000000000E+00  0.14745035299E+04  0.14745035299E+04  0.00000000000E+00 0.  1.
         21   -1    0    0  502  503 -0.00000000000E+00 -0.00000000000E+00 -0.37163948117E+03  0.37163948117E+03  0.00000000000E+00 0.  1.
    9000005    1    1    2  501    0 -0.33295273342E+03 -0.12403627495E+03  0.11893833793E+04  0.13041761166E+04  0.40000000000E+03 0.  1.
   -9000005    1    1    2    0  503  0.33295273342E+03  0.12403627495E+03 -0.86519330512E+02  0.54196689451E+03  0.40000000000E+03 0.  1.
<mgrwt>
<rscale>  2 0.53501637E+03</rscale>
<asrwt>0</asrwt>
<pdfrwt beam="1">  1       21 0.22684669E+00 0.53501637E+03</pdfrwt>
<pdfrwt beam="2">  1       21 0.57175306E-01 0.53501637E+03</pdfrwt>
<totfact> 0.20196333E+02</totfact>
</mgrwt>
</event>
<event>
 4    1  0.4949719E-002  0.4453058E+03  0.7818608E-02  0.1029131E+00
         21   -1    0    0  501  502  0.00000000000E+00  0.00000000000E+00  0.89454347002E+03  0.89454347002E+03  0.00000000000E+00 0.  1.
         21   -1    0    0  502  503 -0.00000000000E+00 -0.00000000000E+00 -0.54090814288E+03  0.54090814288E+03  0.00000000000E+00 0.  1.
    9000005    1    1    2  501    0  0.59466217322E+02  0.18644318109E+03  0.72819799530E+03  0.85356289231E+03  0.40000000000E+03 0.  1.
   -9000005    1    1    2    0  503 -0.59466217322E+02 -0.18644318109E+03 -0.37456266815E+03  0.58188872059E+03  0.40000000000E+03 0.  1.
<mgrwt>
<rscale>  2 0.44530584E+03</rscale>
<asrwt>0</asrwt>
<pdfrwt beam="1">  1       21 0.13762207E+00 0.44530584E+03</pdfrwt>
<pdfrwt beam="2">  1       21 0.83216637E-01 0.44530584E+03</pdfrwt>
<totfact> 0.39134647E+02</totfact>
</mgrwt>
</event>
<event>
 4    1  0.4949719E-002  0.4920588E+03  0.7818608E-02  0.1015873E+00
         21   -1    0    0  503  502  0.00000000000E+00  0.00000000000E+00  0.24482892348E+04  0.24482892348E+04  0.00000000000E+00 0.  1.
         21   -1    0    0  501  503 -0.00000000000E+00 -0.00000000000E+00 -0.77049420587E+03  0.77049420587E+03  0.00000000000E+00 0.  1.
    9000005    1    1    2  501    0  0.28288297214E+03  0.45815843161E+02 -0.66366442977E+03  0.82617936475E+03  0.40000000000E+03 0.  1.
   -9000005    1    1    2    0  502 -0.28288297214E+03 -0.45815843161E+02  0.23414594587E+04  0.23926040760E+04  0.40000000000E+03 0.  1.
<mgrwt>
<rscale>  2 0.49205880E+03</rscale>
<asrwt>0</asrwt>
<pdfrwt beam="1">  1       21 0.37665988E+00 0.49205880E+03</pdfrwt>
<pdfrwt beam="2">  1       21 0.11853757E+00 0.49205880E+03</pdfrwt>
<totfact> 0.45187041E+00</totfact>
</mgrwt>
</event>
<event>
 4    1  0.4949719E-002  0.4412176E+03  0.7818608E-02  0.1030374E+00
         21   -1    0    0  503  502  0.00000000000E+00  0.00000000000E+00  0.68474211525E+03  0.68474211525E+03  0.00000000000E+00 0. -1.
         21   -1    0    0  501  503 -0.00000000000E+00 -0.00000000000E+00 -0.45429112115E+03  0.45429112115E+03  0.00000000000E+00 0. -1.
    9000005    1    1    2  501    0  0.19008211237E+02 -0.18523408235E+03 -0.23315265774E+03  0.49903220253E+03  0.40000000000E+03 0. -1.
   -9000005    1    1    2    0  502 -0.19008211237E+02  0.18523408235E+03  0.46360365184E+03  0.64000103387E+03  0.40000000000E+03 0. -1.
<mgrwt>
<rscale>  2 0.44121761E+03</rscale>
<asrwt>0</asrwt>
<pdfrwt beam="1">  1       21 0.10534494E+00 0.44121761E+03</pdfrwt>
<pdfrwt beam="2">  1       21 0.69890942E-01 0.44121761E+03</pdfrwt>
<totfact> 0.11528860E+03</totfact>
</mgrwt>
</event>
<event>
 4    1  0.4949719E-002  0.4273474E+03  0.7818608E-02  0.1034701E+00
         21   -1    0    0  503  502  0.00000000000E+00  0.00000000000E+00  0.10518912825E+03  0.10518912825E+03  0.00000000000E+00 0. -1.
         21   -1    0    0  501  503 -0.00000000000E+00 -0.00000000000E+00 -0.20602247898E+04  0.20602247898E+04  0.00000000000E+00 0.  1.
    9000005    1    1    2  501    0  0.14413254536E+03  0.43030535999E+02 -0.54811456997E+03  0.69502186978E+03  0.40000000000E+03 0. -1.
   -9000005    1    1    2    0  502 -0.14413254536E+03 -0.43030535999E+02 -0.14069210916E+04  0.14703920482E+04  0.40000000000E+03 0.  1.
<mgrwt>
<rscale>  2 0.42734742E+03</rscale>
<asrwt>0</asrwt>
<pdfrwt beam="1">  1       21 0.16182942E-01 0.42734742E+03</pdfrwt>
<pdfrwt beam="2">  1       21 0.31695767E+00 0.42734742E+03</pdfrwt>
<totfact> 0.75312911E+02</totfact>
</mgrwt>
</event>
<event>
 4    1  0.4949719E-002  0.5148168E+03  0.7818608E-02  0.1009982E+00
         21   -1    0    0  501  502  0.00000000000E+00  0.00000000000E+00  0.13177745987E+04  0.13177745987E+04  0.00000000000E+00 0. -1.
         21   -1    0    0  502  503 -0.00000000000E+00 -0.00000000000E+00 -0.23863730905E+03  0.23863730905E+03  0.00000000000E+00 0.  1.
    9000005    1    1    2  501    0 -0.83284058002E+02 -0.31320930920E+03  0.84811267959E+03  0.99213478065E+03  0.40000000000E+03 0. -1.
   -9000005    1    1    2    0  503  0.83284058002E+02  0.31320930920E+03  0.23102461001E+03  0.56427712706E+03  0.40000000000E+03 0.  1.
<mgrwt>
<rscale>  2 0.51481677E+03</rscale>
<asrwt>0</asrwt>
<pdfrwt beam="1">  1       21 0.20273455E+00 0.51481677E+03</pdfrwt>
<pdfrwt beam="2">  1       21 0.36713433E-01 0.51481677E+03</pdfrwt>
<totfact> 0.74391072E+02</totfact>
</mgrwt>
</event>
<event>
 4    1  0.4949719E-002  0.4131674E+03  0.7818608E-02  0.1039313E+00
         21   -1    0    0  503  502  0.00000000000E+00  0.00000000000E+00  0.90763367541E+03  0.90763367541E+03  0.00000000000E+00 0.  1.
         21   -1    0    0  501  503 -0.00000000000E+00 -0.00000000000E+00 -0.31531843045E+03  0.31531843045E+03  0.00000000000E+00 0.  1.
    9000005    1    1    2  501    0 -0.13494120501E+02  0.10259233750E+03 -0.92274195140E+02  0.42334596501E+03  0.40000000000E+03 0.  1.
   -9000005    1    1    2    0  502  0.13494120501E+02 -0.10259233750E+03  0.68458944010E+03  0.79960614086E+03  0.40000000000E+03 0.  1.
<mgrwt>
<rscale>  2 0.41316737E+03</rscale>
<asrwt>0</asrwt>
<pdfrwt beam="1">  1       21 0.13963595E+00 0.41316737E+03</pdfrwt>
<pdfrwt beam="2">  1       21 0.48510528E-01 0.41316737E+03</pdfrwt>
<totfact> 0.12623157E+03</totfact>
</mgrwt>
</event>
<event>
 4    1  0.4949719E-002  0.4875439E+03  0.7818608E-02  0.1017082E+00
         21   -1    0    0  503  502  0.00000000000E+00  0.00000000000E+00  0.36274637229E+03  0.36274637229E+03  0.00000000000E+00 0. -1.
         21   -1    0    0  501  503 -0.00000000000E+00 -0.00000000000E+00 -0.65584203898E+03  0.65584203898E+03  0.00000000000E+00 0.  1.
    9000005    1    1    2  501    0 -0.26431196026E+03  0.88533599588E+02 -0.16150924088E+03  0.51359930440E+03  0.40000000000E+03 0. -1.
   -9000005    1    1    2    0  502  0.26431196026E+03 -0.88533599588E+02 -0.13158642582E+03  0.50498910687E+03  0.40000000000E+03 0. -1.
<mgrwt>
<rscale>  2 0.48754386E+03</rscale>
<asrwt>0</asrwt>
<pdfrwt beam="1">  1       21 0.55807135E-01 0.48754386E+03</pdfrwt>
<pdfrwt beam="2">  1       21 0.10089877E+00 0.48754386E+03</pdfrwt>
<totfact> 0.20699070E+03</totfact>
</mgrwt>
</event>
<event>
 4    1  0.4949719E-002  0.5081347E+03  0.7818608E-02  0.1011677E+00
         21   -1    0    0  501  502  0.00000000000E+00  0.00000000000E+00  0.57064521583E+03  0.57064521583E+03  0.00000000000E+00 0.  1.
         21   -1    0    0  502  503 -0.00000000000E+00 -0.00000000000E+00 -0.57656700756E+03  0.57656700756E+03  0.00000000000E+00 0.  1.
    9000005    1    1    2  501    0 -0.45434356407E+01 -0.31333723502E+03 -0.26907407804E+03  0.57497976062E+03  0.40000000000E+03 0.  1.
   -9000005    1    1    2    0  503  0.45434356407E+01  0.31333723502E+03  0.26315228630E+03  0.57223246276E+03  0.40000000000E+03 0.  1.
<mgrwt>
<rscale>  2 0.50813469E+03</rscale>
<asrwt>0</asrwt>
<pdfrwt beam="1">  1       21 0.87791572E-01 0.50813469E+03</pdfrwt>
<pdfrwt beam="2">  1       21 0.88702616E-01 0.50813469E+03</pdfrwt>
<totfact> 0.10057912E+03</totfact>
</mgrwt>
</event>
<event>
 4    1  0.4949719E-002  0.4890430E+03  0.7818608E-02  0.1016679E+00
         21   -1    0    0  501  502  0.00000000000E+00  0.00000000000E+00  0.28288987342E+03  0.28288987342E+03  0.00000000000E+00 0. -1.
         21   -1    0    0  502  503 -0.00000000000E+00 -0.00000000000E+00 -0.11604067960E+04  0.11604067960E+04  0.00000000000E+00 0. -1.
    9000005    1    1    2  501    0  0.26898900640E+03  0.82510166021E+02 -0.62781565423E+02  0.49305632337E+03  0.40000000000E+03 0.  1.
   -9000005    1    1    2    0  503 -0.26898900640E+03 -0.82510166021E+02 -0.81473535713E+03  0.95024034603E+03  0.40000000000E+03 0.  1.
<mgrwt>
<rscale>  2 0.48904296E+03</rscale>
<asrwt>0</asrwt>
<pdfrwt beam="1">  1       21 0.43521519E-01 0.48904296E+03</pdfrwt>
<pdfrwt beam="2">  1       21 0.17852412E+00 0.48904296E+03</pdfrwt>
<totfact> 0.77602749E+02</totfact>
</mgrwt>
</event>
<event>
 4    1  0.4949719E-002  0.4528832E+03  0.7818608E-02  0.1026866E+00
         21   -1    0    0  503  502  0.00000000000E+00  0.00000000000E+00  0.85014179737E+03  0.85014179737E+03  0.00000000000E+00 0.  1.
         21   -1    0    0  501  503 -0.00000000000E+00 -0.00000000000E+00 -0.29779230459E+03  0.29779230459E+03  0.00000000000E+00 0.  1.
    9000005    1    1    2  501    0  0.20562663203E+03  0.53111646538E+02  0.26089633592E+02  0.45363402405E+03  0.40000000000E+03 0.  1.
   -9000005    1    1    2    0  502 -0.20562663203E+03 -0.53111646538E+02  0.52625985918E+03  0.69430007791E+03  0.40000000000E+03 0.  1.
<mgrwt>
<rscale>  2 0.45288316E+03</rscale>
<asrwt>0</asrwt>
<pdfrwt beam="1">  1       21 0.13079104E+00 0.45288316E+03</pdfrwt>
<pdfrwt beam="2">  1       21 0.45814201E-01 0.45288316E+03</pdfrwt>
<totfact> 0.16624804E+03</totfact>
</mgrwt>
</event>
<event>
 4    1  0.4949719E-002  0.4827553E+03  0.7818608E-02  0.1018381E+00
         21   -1    0    0  503  502  0.00000000000E+00  0.00000000000E+00  0.40120191177E+03  0.40120191177E+03  0.00000000000E+00 0. -1.
         21   -1    0    0  501  503 -0.00000000000E+00 -0.00000000000E+00 -0.60951876037E+03  0.60951876037E+03  0.00000000000E+00 0. -1.
    9000005    1    1    2  501    0  0.25987180694E+03 -0.74292322484E+02  0.53724962130E+01  0.48278522030E+03  0.40000000000E+03 0. -1.
   -9000005    1    1    2    0  502 -0.25987180694E+03  0.74292322484E+02 -0.21368934482E+03  0.52793545184E+03  0.40000000000E+03 0. -1.
<mgrwt>
<rscale>  2 0.48275533E+03</rscale>
<asrwt>0</asrwt>
<pdfrwt beam="1">  1       21 0.61723371E-01 0.48275533E+03</pdfrwt>
<pdfrwt beam="2">  1       21 0.93772117E-01 0.48275533E+03</pdfrwt>
<totfact> 0.19853453E+03</totfact>
</mgrwt>
</event>
<event>
 4    1  0.4949719E-002  0.4102747E+03  0.7818608E-02  0.1040279E+00
         21   -1    0    0  503  502  0.00000000000E+00  0.00000000000E+00  0.21375610828E+03  0.21375610828E+03  0.00000000000E+00 0. -1.
         21   -1    0    0  501  503 -0.00000000000E+00 -0.00000000000E+00 -0.85253777702E+03  0.85253777702E+03  0.00000000000E+00 0. -1.
    9000005    1    1    2  501    0  0.65650262562E+02 -0.63366724455E+02 -0.46668725661E+03  0.62138739465E+03  0.40000000000E+03 0. -1.
   -9000005    1    1    2    0  502 -0.65650262562E+02  0.63366724455E+02 -0.17209441213E+03  0.44490649066E+03  0.40000000000E+03 0. -1.
<mgrwt>
<rscale>  2 0.41027466E+03</rscale>
<asrwt>0</asrwt>
<pdfrwt beam="1">  1       21 0.32885555E-01 0.41027466E+03</pdfrwt>
<pdfrwt beam="2">  1       21 0.13115966E+00 0.41027466E+03</pdfrwt>
<totfact> 0.33126381E+03</totfact>
</mgrwt>
</event>
<event>
 4    1  0.4949719E-002  0.4395898E+03  0.7818608E-02  0.1030873E+00
         21   -1    0    0  501  502  0.00000000000E+00  0.00000000000E+00  0.15794209290E+03  0.15794209290E+03  0.00000000000E+00 0. -1.
         21   -1    0    0  502  503 -0.00000000000E+00 -0.00000000000E+00 -0.13382596850E+04  0.13382596850E+04  0.00000000000E+00 0. -1.
    9000005    1    1    2  501    0 -0.48068675929E+02 -0.17586519859E+03 -0.37106988084E+03  0.57526691383E+03  0.40000000000E+03 0. -1.
   -9000005    1    1    2    0  503  0.48068675929E+02  0.17586519859E+03 -0.80924771127E+03  0.92093486408E+03  0.40000000000E+03 0. -1.
<mgrwt>
<rscale>  2 0.43958977E+03</rscale>
<asrwt>0</asrwt>
<pdfrwt beam="1">  1       21 0.24298784E-01 0.43958977E+03</pdfrwt>
<pdfrwt beam="2">  1       21 0.20588610E+00 0.43958977E+03</pdfrwt>
<totfact> 0.16642364E+03</totfact>
</mgrwt>
</event>
<event>
 4    1  0.4949719E-002  0.4824332E+03  0.7818608E-02  0.1018469E+00
         21   -1    0    0  503  502  0.00000000000E+00  0.00000000000E+00  0.31248484992E+03  0.31248484992E+03  0.00000000000E+00 0.  1.
         21   -1    0    0  501  503 -0.00000000000E+00 -0.00000000000E+00 -0.94521144718E+03  0.94521144718E+03  0.00000000000E+00 0.  1.
    9000005    1    1    2  501    0  0.15236970675E+03 -0.22254276558E+03 -0.60591880928E+03  0.77451882707E+03  0.40000000000E+03 0.  1.
   -9000005    1    1    2    0  502 -0.15236970675E+03  0.22254276558E+03 -0.26807787974E+02  0.48317747003E+03  0.40000000000E+03 0.  1.
<mgrwt>
<rscale>  2 0.48243322E+03</rscale>
<asrwt>0</asrwt>
<pdfrwt beam="1">  1       21 0.48074592E-01 0.48243322E+03</pdfrwt>
<pdfrwt beam="2">  1       21 0.14541715E+00 0.48243322E+03</pdfrwt>
<totfact> 0.11212103E+03</totfact>
</mgrwt>
</event>
<event>
 4    1  0.4949719E-002  0.4508661E+03  0.7818608E-02  0.1027464E+00
         21   -1    0    0  503  502  0.00000000000E+00  0.00000000000E+00  0.53085733061E+03  0.53085733061E+03  0.00000000000E+00 0.  1.
         21   -1    0    0  501  503 -0.00000000000E+00 -0.00000000000E+00 -0.45430828810E+03  0.45430828810E+03  0.00000000000E+00 0.  1.
    9000005    1    1    2  501    0 -0.17941042777E+03  0.10531918308E+03 -0.15697614270E+03  0.47741150101E+03  0.40000000000E+03 0.  1.
   -9000005    1    1    2    0  502  0.17941042777E+03 -0.10531918308E+03  0.23352518521E+03  0.50775411770E+03  0.40000000000E+03 0.  1.
<mgrwt>
<rscale>  2 0.45086609E+03</rscale>
<asrwt>0</asrwt>
<pdfrwt beam="1">  1       21 0.81670359E-01 0.45086609E+03</pdfrwt>
<pdfrwt beam="2">  1       21 0.69893583E-01 0.45086609E+03</pdfrwt>
<totfact> 0.21084901E+03</totfact>
</mgrwt>
</event>
<event>
 4    1  0.4949719E-002  0.4005314E+03  0.7818608E-02  0.1043596E+00
         21   -1    0    0  503  502  0.00000000000E+00  0.00000000000E+00  0.62198668419E+03  0.62198668419E+03  0.00000000000E+00 0.  1.
         21   -1    0    0  501  503 -0.00000000000E+00 -0.00000000000E+00 -0.54491384788E+03  0.54491384788E+03  0.00000000000E+00 0.  1.
    9000005    1    1    2  501    0 -0.53220864840E+01  0.19926846954E+02 -0.38488522451E+03  0.55548360901E+03  0.40000000000E+03 0.  1.
   -9000005    1    1    2    0  502  0.53220864840E+01 -0.19926846954E+02  0.46195806083E+03  0.61141692306E+03  0.40000000000E+03 0.  1.
<mgrwt>
<rscale>  2 0.40053140E+03</rscale>
<asrwt>0</asrwt>
<pdfrwt beam="1">  1       21 0.95690259E-01 0.40053140E+03</pdfrwt>
<pdfrwt beam="2">  1       21 0.83832900E-01 0.40053140E+03</pdfrwt>
<totfact> 0.97788900E+02</totfact>
</mgrwt>
</event>
<event>
 4    1  0.4949719E-002  0.5666107E+03  0.7818608E-02  0.9977207E-01
         21   -1    0    0  501  502  0.00000000000E+00  0.00000000000E+00  0.60080718230E+03  0.60080718230E+03  0.00000000000E+00 0.  1.
         21   -1    0    0  502  503 -0.00000000000E+00 -0.00000000000E+00 -0.54170826008E+03  0.54170826008E+03  0.00000000000E+00 0. -1.
    9000005    1    1    2  501    0 -0.38549737981E+03 -0.11153234173E+03  0.96080384975E+02  0.57469916780E+03  0.40000000000E+03 0. -1.
   -9000005    1    1    2    0  503  0.38549737981E+03  0.11153234173E+03 -0.36981462755E+02  0.56781627458E+03  0.40000000000E+03 0. -1.
<mgrwt>
<rscale>  2 0.56661071E+03</rscale>
<asrwt>0</asrwt>
<pdfrwt beam="1">  1       21 0.92431874E-01 0.56661071E+03</pdfrwt>
<pdfrwt beam="2">  1       21 0.83339732E-01 0.56661071E+03</pdfrwt>
<totfact> 0.10103591E+03</totfact>
</mgrwt>
</event>
<event>
 4    1  0.4949719E-002  0.4151605E+03  0.7818608E-02  0.1038653E+00
         21   -1    0    0  501  502  0.00000000000E+00  0.00000000000E+00  0.10360913672E+03  0.10360913672E+03  0.00000000000E+00 0.  1.
         21   -1    0    0  502  503 -0.00000000000E+00 -0.00000000000E+00 -0.19083696164E+04  0.19083696164E+04  0.00000000000E+00 0.  1.
    9000005    1    1    2  501    0 -0.92720911762E+02 -0.61327564883E+02 -0.54205755593E+03  0.68277714639E+03  0.40000000000E+03 0.  1.
   -9000005    1    1    2    0  503  0.92720911762E+02  0.61327564883E+02 -0.12627029237E+04  0.13292016067E+04  0.40000000000E+03 0.  1.
<mgrwt>
<rscale>  2 0.41516050E+03</rscale>
<asrwt>0</asrwt>
<pdfrwt beam="1">  1       21 0.15939870E-01 0.41516050E+03</pdfrwt>
<pdfrwt beam="2">  1       21 0.29359528E+00 0.41516050E+03</pdfrwt>
<totfact> 0.10772752E+03</totfact>
</mgrwt>
</event>
<event>
 4    1  0.4949719E-002  0.4061630E+03  0.7818608E-02  0.1041666E+00
         21   -1    0    0  503  502  0.00000000000E+00  0.00000000000E+00  0.35846219856E+03  0.35846219856E+03  0.00000000000E+00 0. -1.
         21   -1    0    0  501  503 -0.00000000000E+00 -0.00000000000E+00 -0.51547881794E+03  0.51547881794E+03  0.00000000000E+00 0. -1.
    9000005    1    1    2  501    0  0.36328851294E+02 -0.60403747221E+02  0.64572443008E+02  0.41126390373E+03  0.40000000000E+03 0.  1.
   -9000005    1    1    2    0  502 -0.36328851294E+02  0.60403747221E+02 -0.22158906238E+03  0.46267711277E+03  0.40000000000E+03 0.  1.
<mgrwt>
<rscale>  2 0.40616302E+03</rscale>
<asrwt>0</asrwt>
<pdfrwt beam="1">  1       21 0.55148031E-01 0.40616302E+03</pdfrwt>
<pdfrwt beam="2">  1       21 0.79304434E-01 0.40616302E+03</pdfrwt>
<totfact> 0.38670807E+03</totfact>
</mgrwt>
</event>
<event>
 4    1  0.4949719E-002  0.4491313E+03  0.7818608E-02  0.1027981E+00
         21   -1    0    0  503  502  0.00000000000E+00  0.00000000000E+00  0.91755453578E+03  0.91755453578E+03  0.00000000000E+00 0.  1.
         21   -1    0    0  501  503 -0.00000000000E+00 -0.00000000000E+00 -0.27340134730E+03  0.27340134730E+03  0.00000000000E+00 0. -1.
    9000005    1    1    2  501    0 -0.17943993207E+03  0.97571465974E+02  0.58519451714E+02  0.45292759512E+03  0.40000000000E+03 0.  1.
   -9000005    1    1    2    0  502  0.17943993207E+03 -0.97571465974E+02  0.58563373677E+03  0.73802828796E+03  0.40000000000E+03 0.  1.
<mgrwt>
<rscale>  2 0.44913125E+03</rscale>
<asrwt>0</asrwt>
<pdfrwt beam="1">  1       21 0.14116224E+00 0.44913125E+03</pdfrwt>
<pdfrwt beam="2">  1       21 0.42061746E-01 0.44913125E+03</pdfrwt>
<totfact> 0.16281882E+03</totfact>
</mgrwt>
</event>
<event>
 4    1  0.4949719E-002  0.5693142E+03  0.7818608E-02  0.9971197E-01
         21   -1    0    0  503  502  0.00000000000E+00  0.00000000000E+00  0.14171898552E+03  0.14171898552E+03  0.00000000000E+00 0.  1.
         21   -1    0    0  501  503 -0.00000000000E+00 -0.00000000000E+00 -0.25395924181E+04  0.25395924181E+04  0.00000000000E+00 0. -1.
    9000005    1    1    2  501    0 -0.24235425728E+03  0.32462751268E+03 -0.16217038225E+04  0.17187326423E+04  0.40000000000E+03 0. -1.
   -9000005    1    1    2    0  502  0.24235425728E+03 -0.32462751268E+03 -0.77616961016E+03  0.96257876132E+03  0.40000000000E+03 0.  1.
<mgrwt>
<rscale>  2 0.56931416E+03</rscale>
<asrwt>0</asrwt>
<pdfrwt beam="1">  1       21 0.21802922E-01 0.56931416E+03</pdfrwt>
<pdfrwt beam="2">  1       21 0.39070650E+00 0.56931416E+03</pdfrwt>
<totfact> 0.13818343E+02</totfact>
</mgrwt>
</event>
<event>
 4    1  0.4949719E-002  0.5072839E+03  0.7818608E-02  0.1011895E+00
         21   -1    0    0  501  502  0.00000000000E+00  0.00000000000E+00  0.44400984425E+03  0.44400984425E+03  0.00000000000E+00 0. -1.
         21   -1    0    0  502  503 -0.00000000000E+00 -0.00000000000E+00 -0.91781380021E+03  0.91781380021E+03  0.00000000000E+00 0.  1.
    9000005    1    1    2  501    0 -0.28239135963E+03  0.13263523995E+03  0.17645504655E+03  0.53709717028E+03  0.40000000000E+03 0. -1.
   -9000005    1    1    2    0  503  0.28239135963E+03 -0.13263523995E+03 -0.65025900250E+03  0.82472647418E+03  0.40000000000E+03 0.  1.
<mgrwt>
<rscale>  2 0.50728393E+03</rscale>
<asrwt>0</asrwt>
<pdfrwt beam="1">  1       21 0.68309207E-01 0.50728393E+03</pdfrwt>
<pdfrwt beam="2">  1       21 0.14120212E+00 0.50728393E+03</pdfrwt>
<totfact> 0.55865805E+02</totfact>
</mgrwt>
</event>
<event>
 4    1  0.4949719E-002  0.4251954E+03  0.7818608E-02  0.1035389E+00
         21   -1    0    0  501  502  0.00000000000E+00  0.00000000000E+00  0.27787727893E+04  0.27787727893E+04  0.00000000000E+00 0. -1.
         21   -1    0    0  502  503 -0.00000000000E+00 -0.00000000000E+00 -0.15674207914E+03  0.15674207914E+03  0.00000000000E+00 0. -1.
    9000005    1    1    2  501    0  0.30141395564E+02 -0.14100586878E+03  0.24335509809E+04  0.24704172796E+04  0.40000000000E+03 0. -1.
   -9000005    1    1    2    0  503 -0.30141395564E+02  0.14100586878E+03  0.18847972918E+03  0.46509758876E+03  0.40000000000E+03 0. -1.
<mgrwt>
<rscale>  2 0.42519544E+03</rscale>
<asrwt>0</asrwt>
<pdfrwt beam="1">  1       21 0.42750347E+00 0.42519544E+03</pdfrwt>
<pdfrwt beam="2">  1       21 0.24114168E-01 0.42519544E+03</pdfrwt>
<totfact> 0.71897404E+01</totfact>
</mgrwt>
</event>
<event>
 4    1  0.4949719E-002  0.5227714E+03  0.7818608E-02  0.1008000E+00
         21   -1    0    0  501  502  0.00000000000E+00  0.00000000000E+00  0.61234689219E+03  0.61234689219E+03  0.00000000000E+00 0. -1.
         21   -1    0    0  502  503 -0.00000000000E+00 -0.00000000000E+00 -0.81836568805E+03  0.81836568805E+03  0.00000000000E+00 0.  1.
    9000005    1    1    2  501    0  0.33317621556E+03  0.47786718806E+02  0.37933688951E+03  0.64589971114E+03  0.40000000000E+03 0.  1.
   -9000005    1    1    2    0  503 -0.33317621556E+03 -0.47786718806E+02 -0.58535568536E+03  0.78481286910E+03  0.40000000000E+03 0.  1.
<mgrwt>
<rscale>  2 0.52277142E+03</rscale>
<asrwt>0</asrwt>
<pdfrwt beam="1">  1       21 0.94207214E-01 0.52277142E+03</pdfrwt>
<pdfrwt beam="2">  1       21 0.12590241E+00 0.52277142E+03</pdfrwt>
<totfact> 0.35586124E+02</totfact>
</mgrwt>
</event>
<event>
 4    1  0.4949719E-002  0.5717087E+03  0.7818608E-02  0.9965905E-01
         21   -1    0    0  501  502  0.00000000000E+00  0.00000000000E+00  0.11260770138E+04  0.11260770138E+04  0.00000000000E+00 0.  1.
         21   -1    0    0  502  503 -0.00000000000E+00 -0.00000000000E+00 -0.29331226733E+03  0.29331226733E+03  0.00000000000E+00 0. -1.
    9000005    1    1    2  501    0 -0.33574175691E+03 -0.23265480892E+03  0.48882444593E+03  0.75219686677E+03  0.40000000000E+03 0.  1.
   -9000005    1    1    2    0  503  0.33574175691E+03  0.23265480892E+03  0.34394030053E+03  0.66719241436E+03  0.40000000000E+03 0. -1.
<mgrwt>
<rscale>  2 0.57170866E+03</rscale>
<asrwt>0</asrwt>
<pdfrwt beam="1">  1       21 0.17324261E+00 0.57170866E+03</pdfrwt>
<pdfrwt beam="2">  1       21 0.45124965E-01 0.57170866E+03</pdfrwt>
<totfact> 0.76070634E+02</totfact>
</mgrwt>
</event>
<event>
 4    1  0.4949719E-002  0.5550907E+03  0.7818608E-02  0.1000322E+00
         21   -1    0    0  501  502  0.00000000000E+00  0.00000000000E+00  0.54127189696E+03  0.54127189696E+03  0.00000000000E+00 0. -1.
         21   -1    0    0  502  503 -0.00000000000E+00 -0.00000000000E+00 -0.93253181333E+03  0.93253181333E+03  0.00000000000E+00 0. -1.
    9000005    1    1    2  501    0  0.29849433210E+03  0.24295434671E+03  0.26430063881E+03  0.61480119434E+03  0.40000000000E+03 0. -1.
   -9000005    1    1    2    0  503 -0.29849433210E+03 -0.24295434671E+03 -0.65556055519E+03  0.85900251595E+03  0.40000000000E+03 0. -1.
<mgrwt>
<rscale>  2 0.55509070E+03</rscale>
<asrwt>0</asrwt>
<pdfrwt beam="1">  1       21 0.83272600E-01 0.55509070E+03</pdfrwt>
<pdfrwt beam="2">  1       21 0.14346643E+00 0.55509070E+03</pdfrwt>
<totfact> 0.33359986E+02</totfact>
</mgrwt>
</event>
<event>
 4    1  0.4949719E-002  0.4292999E+03  0.7818608E-02  0.1034081E+00
         21   -1    0    0  503  502  0.00000000000E+00  0.00000000000E+00  0.20243358428E+03  0.20243358428E+03  0.00000000000E+00 0.  1.
         21   -1    0    0  501  503 -0.00000000000E+00 -0.00000000000E+00 -0.31718109558E+04  0.31718109558E+04  0.00000000000E+00 0.  1.
    9000005    1    1    2  501    0  0.47094533042E+02  0.14859522109E+03 -0.29092504423E+04  0.29407544221E+04  0.40000000000E+03 0.  1.
   -9000005    1    1    2    0  502 -0.47094533042E+02 -0.14859522109E+03 -0.60126929171E+02  0.43349011798E+03  0.40000000000E+03 0.  1.
<mgrwt>
<rscale>  2 0.42929994E+03</rscale>
<asrwt>0</asrwt>
<pdfrwt beam="1">  1       21 0.31143627E-01 0.42929994E+03</pdfrwt>
<pdfrwt beam="2">  1       21 0.48797094E+00 0.42929994E+03</pdfrwt>
<totfact> 0.16777626E+01</totfact>
</mgrwt>
</event>
<event>
 4    1  0.4949719E-002  0.4638045E+03  0.7818608E-02  0.1023684E+00
         21   -1    0    0  503  502  0.00000000000E+00  0.00000000000E+00  0.74734402800E+03  0.74734402800E+03  0.00000000000E+00 0. -1.
         21   -1    0    0  501  503 -0.00000000000E+00 -0.00000000000E+00 -0.30217338893E+03  0.30217338893E+03  0.00000000000E+00 0.  1.
    9000005    1    1    2  501    0  0.45403724662E+02 -0.23033263915E+03  0.10829120395E+03  0.47627891799E+03  0.40000000000E+03 0. -1.
   -9000005    1    1    2    0  502 -0.45403724662E+02  0.23033263915E+03  0.33687943512E+03  0.57323849894E+03  0.40000000000E+03 0.  1.
<mgrwt>
<rscale>  2 0.46380451E+03</rscale>
<asrwt>0</asrwt>
<pdfrwt beam="1">  1       21 0.11497600E+00 0.46380451E+03</pdfrwt>
<pdfrwt beam="2">  1       21 0.46488214E-01 0.46380451E+03</pdfrwt>
<totfact> 0.22320397E+03</totfact>
</mgrwt>
</event>
<event>
 4    1  0.4949719E-002  0.4981207E+03  0.7818608E-02  0.1014271E+00
         21   -1    0    0  503  502  0.00000000000E+00  0.00000000000E+00  0.14333056397E+03  0.14333056397E+03  0.00000000000E+00 0.  1.
         21   -1    0    0  501  503 -0.00000000000E+00 -0.00000000000E+00 -0.17880208176E+04  0.17880208176E+04  0.00000000000E+00 0. -1.
    9000005    1    1    2  501    0 -0.27487772693E+03  0.11210033782E+03 -0.99459350748E+03  0.11123580789E+04  0.40000000000E+03 0. -1.
   -9000005    1    1    2    0  502  0.27487772693E+03 -0.11210033782E+03 -0.65009674611E+03  0.81899330266E+03  0.40000000000E+03 0.  1.
<mgrwt>
<rscale>  2 0.49812072E+03</rscale>
<asrwt>0</asrwt>
<pdfrwt beam="1">  1       21 0.22050856E-01 0.49812072E+03</pdfrwt>
<pdfrwt beam="2">  1       21 0.27508012E+00 0.49812072E+03</pdfrwt>
<totfact> 0.72153119E+02</totfact>
</mgrwt>
</event>
<event>
 4    1  0.4949719E-002  0.4919038E+03  0.7818608E-02  0.1015914E+00
         21   -1    0    0  501  502  0.00000000000E+00  0.00000000000E+00  0.14852529927E+04  0.14852529927E+04  0.00000000000E+00 0.  1.
         21   -1    0    0  502  503 -0.00000000000E+00 -0.00000000000E+00 -0.16562014509E+03  0.16562014509E+03  0.00000000000E+00 0.  1.
    9000005    1    1    2  501    0  0.25763518713E+03 -0.12487392629E+03  0.55431579245E+03  0.74110416601E+03  0.40000000000E+03 0.  1.
   -9000005    1    1    2    0  503 -0.25763518713E+03  0.12487392629E+03  0.76531705517E+03  0.90976897180E+03  0.40000000000E+03 0.  1.
<mgrwt>
<rscale>  2 0.49190384E+03</rscale>
<asrwt>0</asrwt>
<pdfrwt beam="1">  1       21 0.22850045E+00 0.49190384E+03</pdfrwt>
<pdfrwt beam="2">  1       21 0.25480023E-01 0.49190384E+03</pdfrwt>
<totfact> 0.10599704E+03</totfact>
</mgrwt>
</event>
<event>
 4    1  0.4949719E-002  0.4945956E+03  0.7818608E-02  0.1015199E+00
         21   -1    0    0  501  502  0.00000000000E+00  0.00000000000E+00  0.91444063741E+03  0.91444063741E+03  0.00000000000E+00 0. -1.
         21   -1    0    0  502  503 -0.00000000000E+00 -0.00000000000E+00 -0.64602122836E+03  0.64602122836E+03  0.00000000000E+00 0.  1.
    9000005    1    1    2  501    0 -0.27666146097E+03 -0.89906723117E+02  0.73143393117E+03  0.88296114213E+03  0.40000000000E+03 0. -1.
   -9000005    1    1    2    0  503  0.27666146097E+03  0.89906723117E+02 -0.46301452212E+03  0.67750072364E+03  0.40000000000E+03 0.  1.
<mgrwt>
<rscale>  2 0.49459558E+03</rscale>
<asrwt>0</asrwt>
<pdfrwt beam="1">  1       21 0.14068317E+00 0.49459558E+03</pdfrwt>
<pdfrwt beam="2">  1       21 0.99387881E-01 0.49459558E+03</pdfrwt>
<totfact> 0.23647514E+02</totfact>
</mgrwt>
</event>
<event>
 4    1  0.4949719E-002  0.4973052E+03  0.7818608E-02  0.1014485E+00
         21   -1    0    0  503  502  0.00000000000E+00  0.00000000000E+00  0.36104778064E+03  0.36104778064E+03  0.00000000000E+00 0. -1.
         21   -1    0    0  501  503 -0.00000000000E+00 -0.00000000000E+00 -0.77397956843E+03  0.77397956843E+03  0.00000000000E+00 0. -1.
    9000005    1    1    2  501    0  0.28581330021E+03 -0.74988252422E+02 -0.39890450220E+03  0.63752433871E+03  0.40000000000E+03 0. -1.
   -9000005    1    1    2    0  502 -0.28581330021E+03  0.74988252422E+02 -0.14027285591E+02  0.49750301036E+03  0.40000000000E+03 0. -1.
<mgrwt>
<rscale>  2 0.49730522E+03</rscale>
<asrwt>0</asrwt>
<pdfrwt beam="1">  1       21 0.55545812E-01 0.49730522E+03</pdfrwt>
<pdfrwt beam="2">  1       21 0.11907378E+00 0.49730522E+03</pdfrwt>
<totfact> 0.13803214E+03</totfact>
</mgrwt>
</event>
<event>
 4    1  0.4949719E-002  0.8666555E+03  0.7818608E-02  0.9468251E-01
         21   -1    0    0  503  502  0.00000000000E+00  0.00000000000E+00  0.57561926153E+03  0.57561926153E+03  0.00000000000E+00 0.  1.
         21   -1    0    0  501  503 -0.00000000000E+00 -0.00000000000E+00 -0.20325983234E+04  0.20325983234E+04  0.00000000000E+00 0. -1.
    9000005    1    1    2  501    0 -0.75796209073E+03 -0.12878342518E+03 -0.15088248923E+04  0.17400127176E+04  0.40000000000E+03 0.  1.
   -9000005    1    1    2    0  502  0.75796209073E+03  0.12878342518E+03  0.51845830456E+02  0.86820486737E+03  0.40000000000E+03 0.  1.
<mgrwt>
<rscale>  2 0.86665547E+03</rscale>
<asrwt>0</asrwt>
<pdfrwt beam="1">  1       21 0.88556811E-01 0.86665547E+03</pdfrwt>
<pdfrwt beam="2">  1       21 0.31270743E+00 0.86665547E+03</pdfrwt>
<totfact> 0.19083206E+01</totfact>
</mgrwt>
</event>
<event>
 4    1  0.4949719E-002  0.5303369E+03  0.7818608E-02  0.1006150E+00
         21   -1    0    0  503  502  0.00000000000E+00  0.00000000000E+00  0.99971236044E+03  0.99971236044E+03  0.00000000000E+00 0.  1.
         21   -1    0    0  501  503 -0.00000000000E+00 -0.00000000000E+00 -0.37393109798E+03  0.37393109798E+03  0.00000000000E+00 0.  1.
    9000005    1    1    2  501    0 -0.32143575739E+03  0.13392639903E+03 -0.28881926737E+02  0.53112276563E+03  0.40000000000E+03 0.  1.
   -9000005    1    1    2    0  502  0.32143575739E+03 -0.13392639903E+03  0.65466318919E+03  0.84252069278E+03  0.40000000000E+03 0.  1.
<mgrwt>
<rscale>  2 0.53033690E+03</rscale>
<asrwt>0</asrwt>
<pdfrwt beam="1">  1       21 0.15380190E+00 0.53033690E+03</pdfrwt>
<pdfrwt beam="2">  1       21 0.57527862E-01 0.53033690E+03</pdfrwt>
<totfact> 0.64242971E+02</totfact>
</mgrwt>
</event>
<event>
 4    1  0.4949719E-002  0.4109141E+03  0.7818608E-02  0.1040065E+00
         21   -1    0    0  501  502  0.00000000000E+00  0.00000000000E+00  0.15394504667E+04  0.15394504667E+04  0.00000000000E+00 0. -1.
         21   -1    0    0  502  503 -0.00000000000E+00 -0.00000000000E+00 -0.11311637112E+03  0.11311637112E+03  0.00000000000E+00 0. -1.
    9000005    1    1    2  501    0  0.65476261708E+02  0.67551893178E+02  0.85713763446E+03  0.95054475093E+03  0.40000000000E+03 0. -1.
   -9000005    1    1    2    0  503 -0.65476261708E+02 -0.67551893178E+02  0.56919646111E+03  0.70202208687E+03  0.40000000000E+03 0. -1.
<mgrwt>
<rscale>  2 0.41091410E+03</rscale>
<asrwt>0</asrwt>
<pdfrwt beam="1">  1       21 0.23683852E+00 0.41091410E+03</pdfrwt>
<pdfrwt beam="2">  1       21 0.17402520E-01 0.41091410E+03</pdfrwt>
<totfact> 0.20239546E+03</totfact>
</mgrwt>
</event>
<event>
 4    1  0.4949719E-002  0.4143645E+03  0.7818608E-02  0.1038916E+00
         21   -1    0    0  503  502  0.00000000000E+00  0.00000000000E+00  0.32303435849E+03  0.32303435849E+03  0.00000000000E+00 0. -1.
         21   -1    0    0  501  503 -0.00000000000E+00 -0.00000000000E+00 -0.65421929189E+03  0.65421929189E+03  0.00000000000E+00 0.  1.
    9000005    1    1    2  501    0  0.44195746568E+02 -0.98715119110E+02 -0.37720612343E+03  0.56034132304E+03  0.40000000000E+03 0. -1.
   -9000005    1    1    2    0  502 -0.44195746568E+02  0.98715119110E+02  0.46021190025E+02  0.41691232734E+03  0.40000000000E+03 0. -1.
<mgrwt>
<rscale>  2 0.41436450E+03</rscale>
<asrwt>0</asrwt>
<pdfrwt beam="1">  1       21 0.49697594E-01 0.41436450E+03</pdfrwt>
<pdfrwt beam="2">  1       21 0.10064912E+00 0.41436450E+03</pdfrwt>
<totfact> 0.27433849E+03</totfact>
</mgrwt>
</event>
<event>
 4    1  0.4949719E-002  0.4279954E+03  0.7818608E-02  0.1034495E+00
         21   -1    0    0  503  502  0.00000000000E+00  0.00000000000E+00  0.31910257987E+04  0.31910257987E+04  0.00000000000E+00 0.  1.
         21   -1    0    0  501  503 -0.00000000000E+00 -0.00000000000E+00 -0.18277161897E+03  0.18277161897E+03  0.00000000000E+00 0.  1.
    9000005    1    1    2  501    0  0.66279071566E+02 -0.13706620714E+03  0.10703187843E+03  0.44117556989E+03  0.40000000000E+03 0.  1.
   -9000005    1    1    2    0  502 -0.66279071566E+02  0.13706620714E+03  0.29012223013E+04  0.29326218478E+04  0.40000000000E+03 0.  1.
<mgrwt>
<rscale>  2 0.42799540E+03</rscale>
<asrwt>0</asrwt>
<pdfrwt beam="1">  1       21 0.49092700E+00 0.42799540E+03</pdfrwt>
<pdfrwt beam="2">  1       21 0.28118713E-01 0.42799540E+03</pdfrwt>
<totfact> 0.19600870E+01</totfact>
</mgrwt>
</event>
<event>
 4    1  0.4949719E-002  0.4462293E+03  0.7818608E-02  0.1028853E+00
         21   -1    0    0  501  502  0.00000000000E+00  0.00000000000E+00  0.75911269710E+03  0.75911269710E+03  0.00000000000E+00 0. -1.
         21   -1    0    0  502  503 -0.00000000000E+00 -0.00000000000E+00 -0.60836461223E+03  0.60836461223E+03  0.00000000000E+00 0.  1.
    9000005    1    1    2  501    0 -0.19709799903E+03  0.16520821049E+02  0.59105652326E+03  0.74058650571E+03  0.40000000000E+03 0. -1.
   -9000005    1    1    2    0  503  0.19709799903E+03 -0.16520821049E+02 -0.44030843839E+03  0.62689080362E+03  0.40000000000E+03 0.  1.
<mgrwt>
<rscale>  2 0.44622927E+03</rscale>
<asrwt>0</asrwt>
<pdfrwt beam="1">  1       21 0.11678657E+00 0.44622927E+03</pdfrwt>
<pdfrwt beam="2">  1       21 0.93594556E-01 0.44622927E+03</pdfrwt>
<totfact> 0.45270490E+02</totfact>
</mgrwt>
</event>
<event>
 4    1  0.4949719E-002  0.4551186E+03  0.7818608E-02  0.1026207E+00
         21   -1    0    0  501  502  0.00000000000E+00  0.00000000000E+00  0.96582837241E+03  0.96582837241E+03  0.00000000000E+00 0. -1.
         21   -1    0    0  502  503 -0.00000000000E+00 -0.00000000000E+00 -0.37623881813E+03  0.37623881813E+03  0.00000000000E+00 0.  1.
    9000005    1    1    2  501    0 -0.34658572215E+02  0.21431685758E+03  0.73481372189E+03  0.86434029060E+03  0.40000000000E+03 0. -1.
   -9000005    1    1    2    0  503  0.34658572215E+02 -0.21431685758E+03 -0.14522416761E+03  0.47772689994E+03  0.40000000000E+03 0.  1.
<mgrwt>
<rscale>  2 0.45511859E+03</rscale>
<asrwt>0</asrwt>
<pdfrwt beam="1">  1       21 0.14858898E+00 0.45511859E+03</pdfrwt>
<pdfrwt beam="2">  1       21 0.57882895E-01 0.45511859E+03</pdfrwt>
<totfact> 0.71810824E+02</totfact>
</mgrwt>
</event>
<event>
 4    1  0.4949719E-002  0.4142258E+03  0.7818608E-02  0.1038962E+00
         21   -1    0    0  503  502  0.00000000000E+00  0.00000000000E+00  0.70522961397E+03  0.70522961397E+03  0.00000000000E+00 0.  1.
         21   -1    0    0  501  503 -0.00000000000E+00 -0.00000000000E+00 -0.28006992703E+03  0.28006992703E+03  0.00000000000E+00 0.  1.
    9000005    1    1    2  501    0 -0.25247270696E+02  0.10462131370E+03  0.34076750871E+02  0.41562515433E+03  0.40000000000E+03 0.  1.
   -9000005    1    1    2    0  502  0.25247270696E+02 -0.10462131370E+03  0.39108293606E+03  0.56967438668E+03  0.40000000000E+03 0.  1.
<mgrwt>
<rscale>  2 0.41422584E+03</rscale>
<asrwt>0</asrwt>
<pdfrwt beam="1">  1       21 0.10849686E+00 0.41422584E+03</pdfrwt>
<pdfrwt beam="2">  1       21 0.43087681E-01 0.41422584E+03</pdfrwt>
<totfact> 0.30793526E+03</totfact>
</mgrwt>
</event>
<event>
 4    1  0.4949719E-002  0.4889230E+03  0.7818608E-02  0.1016711E+00
         21   -1    0    0  503  502  0.00000000000E+00  0.00000000000E+00  0.76170882226E+03  0.76170882226E+03  0.00000000000E+00 0.  1.
         21   -1    0    0  501  503 -0.00000000000E+00 -0.00000000000E+00 -0.34746423819E+03  0.34746423819E+03  0.00000000000E+00 0.  1.
    9000005    1    1    2  501    0 -0.18308869325E+03 -0.21336416321E+03  0.34571701673E+02  0.49014379349E+03  0.40000000000E+03 0.  1.
   -9000005    1    1    2    0  502  0.18308869325E+03  0.21336416321E+03  0.37967288239E+03  0.61902926696E+03  0.40000000000E+03 0.  1.
<mgrwt>
<rscale>  2 0.48892304E+03</rscale>
<asrwt>0</asrwt>
<pdfrwt beam="1">  1       21 0.11718597E+00 0.48892304E+03</pdfrwt>
<pdfrwt beam="2">  1       21 0.53456037E-01 0.48892304E+03</pdfrwt>
<totfact> 0.15661223E+03</totfact>
</mgrwt>
</event>
<event>
 4    1  0.4949719E-002  0.4651201E+03  0.7818608E-02  0.1023307E+00
         21   -1    0    0  501  502  0.00000000000E+00  0.00000000000E+00  0.57079605113E+03  0.57079605113E+03  0.00000000000E+00 0.  1.
         21   -1    0    0  502  503 -0.00000000000E+00 -0.00000000000E+00 -0.65579527109E+03  0.65579527109E+03  0.00000000000E+00 0.  1.
    9000005    1    1    2  501    0 -0.17430985566E+03 -0.16109878415E+03  0.35593600971E+03  0.58568522864E+03  0.40000000000E+03 0.  1.
   -9000005    1    1    2    0  503  0.17430985566E+03  0.16109878415E+03 -0.44093522966E+03  0.64090609358E+03  0.40000000000E+03 0.  1.
<mgrwt>
<rscale>  2 0.46512014E+03</rscale>
<asrwt>0</asrwt>
<pdfrwt beam="1">  1       21 0.87814777E-01 0.46512014E+03</pdfrwt>
<pdfrwt beam="2">  1       21 0.10089158E+00 0.46512014E+03</pdfrwt>
<totfact> 0.75031223E+02</totfact>
</mgrwt>
</event>
<event>
 4    1  0.4949719E-002  0.6427709E+03  0.7818608E-02  0.9820439E-01
         21   -1    0    0  501  502  0.00000000000E+00  0.00000000000E+00  0.30580942402E+03  0.30580942402E+03  0.00000000000E+00 0. -1.
         21   -1    0    0  502  503 -0.00000000000E+00 -0.00000000000E+00 -0.22288171509E+04  0.22288171509E+04  0.00000000000E+00 0. -1.
    9000005    1    1    2  501    0 -0.46368424141E+03 -0.19532387085E+03 -0.16618006333E+03  0.66390534243E+03  0.40000000000E+03 0. -1.
   -9000005    1    1    2    0  503  0.46368424141E+03  0.19532387085E+03 -0.17568276635E+04  0.18707212324E+04  0.40000000000E+03 0. -1.
<mgrwt>
<rscale>  2 0.64277095E+03</rscale>
<asrwt>0</asrwt>
<pdfrwt beam="1">  1       21 0.47047603E-01 0.64277095E+03</pdfrwt>
<pdfrwt beam="2">  1       21 0.34289495E+00 0.64277095E+03</pdfrwt>
<totfact> 0.56399659E+01</totfact>
</mgrwt>
</event>
<event>
 4    1  0.4949719E-002  0.4335859E+03  0.7818608E-02  0.1032733E+00
         21   -1    0    0  503  502  0.00000000000E+00  0.00000000000E+00  0.22354918752E+03  0.22354918752E+03  0.00000000000E+00 0.  1.
         21   -1    0    0  501  503 -0.00000000000E+00 -0.00000000000E+00 -0.85555088743E+03  0.85555088743E+03  0.00000000000E+00 0.  1.
    9000005    1    1    2  501    0 -0.11727560468E+02 -0.16691066170E+03 -0.38645356415E+03  0.58081241542E+03  0.40000000000E+03 0.  1.
   -9000005    1    1    2    0  502  0.11727560468E+02  0.16691066170E+03 -0.24554813575E+03  0.49828765953E+03  0.40000000000E+03 0.  1.
<mgrwt>
<rscale>  2 0.43358587E+03</rscale>
<asrwt>0</asrwt>
<pdfrwt beam="1">  1       21 0.34392183E-01 0.43358587E+03</pdfrwt>
<pdfrwt beam="2">  1       21 0.13162321E+00 0.43358587E+03</pdfrwt>
<totfact> 0.29725645E+03</totfact>
</mgrwt>
</event>
<event>
 4    1  0.4949719E-002  0.5300618E+03  0.7818608E-02  0.1006217E+00
         21   -1    0    0  503  502  0.00000000000E+00  0.00000000000E+00  0.33896112427E+04  0.33896112427E+04  0.00000000000E+00 0.  1.
         21   -1    0    0  501  503 -0.00000000000E+00 -0.00000000000E+00 -0.90299523548E+02  0.90299523548E+02  0.00000000000E+00 0. -1.
    9000005    1    1    2  501    0  0.24874793199E+03  0.24308420513E+03  0.11512473654E+04  0.12674130979E+04  0.40000000000E+03 0. -1.
   -9000005    1    1    2    0  502 -0.24874793199E+03 -0.24308420513E+03  0.21480643537E+04  0.22124976683E+04  0.40000000000E+03 0.  1.
<mgrwt>
<rscale>  2 0.53006176E+03</rscale>
<asrwt>0</asrwt>
<pdfrwt beam="1">  1       21 0.52147855E+00 0.53006176E+03</pdfrwt>
<pdfrwt beam="2">  1       21 0.13892237E-01 0.53006176E+03</pdfrwt>
<totfact> 0.42143556E+01</totfact>
</mgrwt>
</event>
<event>
 4    1  0.4949719E-002  0.4090620E+03  0.7818608E-02  0.1040686E+00
         21   -1    0    0  503  502  0.00000000000E+00  0.00000000000E+00  0.13791829062E+04  0.13791829062E+04  0.00000000000E+00 0.  1.
         21   -1    0    0  501  503 -0.00000000000E+00 -0.00000000000E+00 -0.17506102317E+03  0.17506102317E+03  0.00000000000E+00 0.  1.
    9000005    1    1    2  501    0 -0.14052777602E+02 -0.84464437867E+02  0.17151419502E+03  0.44356379577E+03  0.40000000000E+03 0.  1.
   -9000005    1    1    2    0  502  0.14052777602E+02  0.84464437867E+02  0.10326076880E+04  0.11106801336E+04  0.40000000000E+03 0.  1.
<mgrwt>
<rscale>  2 0.40906200E+03</rscale>
<asrwt>0</asrwt>
<pdfrwt beam="1">  1       21 0.21218198E+00 0.40906200E+03</pdfrwt>
<pdfrwt beam="2">  1       21 0.26932466E-01 0.40906200E+03</pdfrwt>
<totfact> 0.12572039E+03</totfact>
</mgrwt>
</event>
<event>
 4    1  0.4949719E-002  0.4272005E+03  0.7818608E-02  0.1034748E+00
         21   -1    0    0  503  502  0.00000000000E+00  0.00000000000E+00  0.32103578214E+03  0.32103578214E+03  0.00000000000E+00 0. -1.
         21   -1    0    0  501  503 -0.00000000000E+00 -0.00000000000E+00 -0.93458560410E+03  0.93458560410E+03  0.00000000000E+00 0. -1.
    9000005    1    1    2  501    0  0.72459748453E+02 -0.13133854724E+03 -0.69971505835E+03  0.81981790175E+03  0.40000000000E+03 0. -1.
   -9000005    1    1    2    0  502 -0.72459748453E+02  0.13133854724E+03  0.86165236398E+02  0.43580348450E+03  0.40000000000E+03 0. -1.
<mgrwt>
<rscale>  2 0.42720046E+03</rscale>
<asrwt>0</asrwt>
<pdfrwt beam="1">  1       21 0.49390121E-01 0.42720046E+03</pdfrwt>
<pdfrwt beam="2">  1       21 0.14378240E+00 0.42720046E+03</pdfrwt>
<totfact> 0.11170201E+03</totfact>
</mgrwt>
</event>
<event>
 4    1  0.4949719E-002  0.5616888E+03  0.7818608E-02  0.9988241E-01
         21   -1    0    0  501  502  0.00000000000E+00  0.00000000000E+00  0.27763311711E+03  0.27763311711E+03  0.00000000000E+00 0.  1.
         21   -1    0    0  502  503 -0.00000000000E+00 -0.00000000000E+00 -0.11365651965E+04  0.11365651965E+04  0.00000000000E+00 0. -1.
    9000005    1    1    2  501    0 -0.27920038808E+03  0.27846264902E+03 -0.43870192761E+03  0.71270869568E+03  0.40000000000E+03 0.  1.
   -9000005    1    1    2    0  503  0.27920038808E+03 -0.27846264902E+03 -0.42023015178E+03  0.70148961794E+03  0.40000000000E+03 0.  1.
<mgrwt>
<rscale>  2 0.56168880E+03</rscale>
<asrwt>0</asrwt>
<pdfrwt beam="1">  1       21 0.42712787E-01 0.56168880E+03</pdfrwt>
<pdfrwt beam="2">  1       21 0.17485618E+00 0.56168880E+03</pdfrwt>
<totfact> 0.83389868E+02</totfact>
</mgrwt>
</event>
<event>
 4    1  0.4949719E-002  0.5698231E+03  0.7818608E-02  0.9970070E-01
         21   -1    0    0  501  502  0.00000000000E+00  0.00000000000E+00  0.34621717595E+03  0.34621717595E+03  0.00000000000E+00 0.  1.
         21   -1    0    0  502  503 -0.00000000000E+00 -0.00000000000E+00 -0.94071983822E+03  0.94071983822E+03  0.00000000000E+00 0.  1.
    9000005    1    1    2  501    0 -0.36200033812E+03 -0.18345052952E+03 -0.26168495183E+03  0.62703855989E+03  0.40000000000E+03 0.  1.
   -9000005    1    1    2    0  503  0.36200033812E+03  0.18345052952E+03 -0.33281771045E+03  0.65989845428E+03  0.40000000000E+03 0.  1.
<mgrwt>
<rscale>  2 0.56982308E+03</rscale>
<asrwt>0</asrwt>
<pdfrwt beam="1">  1       21 0.53264182E-01 0.56982308E+03</pdfrwt>
<pdfrwt beam="2">  1       21 0.14472613E+00 0.56982308E+03</pdfrwt>
<totfact> 0.88386347E+02</totfact>
</mgrwt>
</event>
<event>
 4    1  0.4949719E-002  0.4731844E+03  0.7818608E-02  0.1021025E+00
         21   -1    0    0  503  502  0.00000000000E+00  0.00000000000E+00  0.28993525900E+03  0.28993525900E+03  0.00000000000E+00 0. -1.
         21   -1    0    0  501  503 -0.00000000000E+00 -0.00000000000E+00 -0.94684601368E+03  0.94684601368E+03  0.00000000000E+00 0. -1.
    9000005    1    1    2  501    0  0.25225680965E+03 -0.16432259982E+02 -0.59399910163E+03  0.75943297922E+03  0.40000000000E+03 0. -1.
   -9000005    1    1    2    0  502 -0.25225680965E+03  0.16432259982E+02 -0.62911653048E+02  0.47734829346E+03  0.40000000000E+03 0. -1.
<mgrwt>
<rscale>  2 0.47318444E+03</rscale>
<asrwt>0</asrwt>
<pdfrwt beam="1">  1       21 0.44605424E-01 0.47318444E+03</pdfrwt>
<pdfrwt beam="2">  1       21 0.14566862E+00 0.47318444E+03</pdfrwt>
<totfact> 0.13114863E+03</totfact>
</mgrwt>
</event>
<event>
 4    1  0.4949719E-002  0.5532814E+03  0.7818608E-02  0.1000737E+00
         21   -1    0    0  501  502  0.00000000000E+00  0.00000000000E+00  0.61522899189E+03  0.61522899189E+03  0.00000000000E+00 0.  1.
         21   -1    0    0  502  503 -0.00000000000E+00 -0.00000000000E+00 -0.82622221183E+03  0.82622221183E+03  0.00000000000E+00 0.  1.
    9000005    1    1    2  501    0  0.37918016813E+03  0.48401233381E+02  0.34906101572E+03  0.65418947713E+03  0.40000000000E+03 0.  1.
   -9000005    1    1    2    0  503 -0.37918016813E+03 -0.48401233381E+02 -0.56005423566E+03  0.78726172660E+03  0.40000000000E+03 0.  1.
<mgrwt>
<rscale>  2 0.55328137E+03</rscale>
<asrwt>0</asrwt>
<pdfrwt beam="1">  1       21 0.94650614E-01 0.55328137E+03</pdfrwt>
<pdfrwt beam="2">  1       21 0.12711111E+00 0.55328137E+03</pdfrwt>
<totfact> 0.33919248E+02</totfact>
</mgrwt>
</event>
<event>
 4    1  0.4949719E-002  0.4872015E+03  0.7818608E-02  0.1017175E+00
         21   -1    0    0  501  502  0.00000000000E+00  0.00000000000E+00  0.40340146321E+03  0.40340146321E+03  0.00000000000E+00 0.  1.
         21   -1    0    0  502  503 -0.00000000000E+00 -0.00000000000E+00 -0.63642903639E+03  0.63642903639E+03  0.00000000000E+00 0.  1.
    9000005    1    1    2  501    0 -0.13349458397E+03  0.24401745663E+03  0.26298562191E+02  0.48791078843E+03  0.40000000000E+03 0.  1.
   -9000005    1    1    2    0  503  0.13349458397E+03 -0.24401745663E+03 -0.25932613537E+03  0.55191971117E+03  0.40000000000E+03 0.  1.
<mgrwt>
<rscale>  2 0.48720152E+03</rscale>
<asrwt>0</asrwt>
<pdfrwt beam="1">  1       21 0.62061763E-01 0.48720152E+03</pdfrwt>
<pdfrwt beam="2">  1       21 0.97912160E-01 0.48720152E+03</pdfrwt>
<totfact> 0.17650685E+03</totfact>
</mgrwt>
</event>
<event>
 4    1  0.4949719E-002  0.4883112E+03  0.7818608E-02  0.1016876E+00
         21   -1    0    0  503  502  0.00000000000E+00  0.00000000000E+00  0.11798333404E+04  0.11798333404E+04  0.00000000000E+00 0.  1.
         21   -1    0    0  501  503 -0.00000000000E+00 -0.00000000000E+00 -0.78815843274E+03  0.78815843274E+03  0.00000000000E+00 0.  1.
    9000005    1    1    2  501    0  0.13745611607E+03 -0.24403606882E+03 -0.65267044591E+03  0.81512360884E+03  0.40000000000E+03 0.  1.
   -9000005    1    1    2    0  502 -0.13745611607E+03  0.24403606882E+03  0.10443453535E+04  0.11528681643E+04  0.40000000000E+03 0.  1.
<mgrwt>
<rscale>  2 0.48831116E+03</rscale>
<asrwt>0</asrwt>
<pdfrwt beam="1">  1       21 0.18151282E+00 0.48831116E+03</pdfrwt>
<pdfrwt beam="2">  1       21 0.12125514E+00 0.48831116E+03</pdfrwt>
<totfact> 0.70921150E+01</totfact>
</mgrwt>
</event>
<event>
 4    1  0.4949719E-002  0.5413139E+03  0.7818608E-02  0.1003525E+00
         21   -1    0    0  501  502  0.00000000000E+00  0.00000000000E+00  0.15999162689E+04  0.15999162689E+04  0.00000000000E+00 0.  1.
         21   -1    0    0  502  503 -0.00000000000E+00 -0.00000000000E+00 -0.25168601467E+03  0.25168601467E+03  0.00000000000E+00 0. -1.
    9000005    1    1    2  501    0 -0.28152043294E+02  0.36363198619E+03  0.11572354736E+04  0.12775815826E+04  0.40000000000E+03 0.  1.
   -9000005    1    1    2    0  503  0.28152043294E+02 -0.36363198619E+03  0.19099478070E+03  0.57402070100E+03  0.40000000000E+03 0. -1.
<mgrwt>
<rscale>  2 0.54131392E+03</rscale>
<asrwt>0</asrwt>
<pdfrwt beam="1">  1       21 0.24614096E+00 0.54131392E+03</pdfrwt>
<pdfrwt beam="2">  1       21 0.38720926E-01 0.54131392E+03</pdfrwt>
<totfact> 0.34763610E+02</totfact>
</mgrwt>
</event>
<event>
 4    1  0.4949719E-002  0.4283017E+03  0.7818608E-02  0.1034398E+00
         21   -1    0    0  501  502  0.00000000000E+00  0.00000000000E+00  0.75705406617E+03  0.75705406617E+03  0.00000000000E+00 0. -1.
         21   -1    0    0  502  503 -0.00000000000E+00 -0.00000000000E+00 -0.42927896972E+03  0.42927896972E+03  0.00000000000E+00 0. -1.
    9000005    1    1    2  501    0 -0.54356715848E+02  0.14313527764E+03  0.55535051695E+03  0.70132485835E+03  0.40000000000E+03 0. -1.
   -9000005    1    1    2    0  503  0.54356715848E+02 -0.14313527764E+03 -0.22757542050E+03  0.48500817754E+03  0.40000000000E+03 0. -1.
<mgrwt>
<rscale>  2 0.42830172E+03</rscale>
<asrwt>0</asrwt>
<pdfrwt beam="1">  1       21 0.11646986E+00 0.42830172E+03</pdfrwt>
<pdfrwt beam="2">  1       21 0.66042918E-01 0.42830172E+03</pdfrwt>
<totfact> 0.10256284E+03</totfact>
</mgrwt>
</event>
<event>
 4    1  0.4949719E-002  0.4255036E+03  0.7818608E-02  0.1035290E+00
         21   -1    0    0  503  502  0.00000000000E+00  0.00000000000E+00  0.98568263474E+03  0.98568263474E+03  0.00000000000E+00 0.  1.
         21   -1    0    0  501  503 -0.00000000000E+00 -0.00000000000E+00 -0.18382956726E+03  0.18382956726E+03  0.00000000000E+00 0. -1.
    9000005    1    1    2  501    0 -0.13648469566E+03 -0.49246994544E+02  0.38442623024E+03  0.57344299204E+03  0.40000000000E+03 0. -1.
   -9000005    1    1    2    0  502  0.13648469566E+03  0.49246994544E+02  0.41742683724E+03  0.59606920997E+03  0.40000000000E+03 0. -1.
<mgrwt>
<rscale>  2 0.42550363E+03</rscale>
<asrwt>0</asrwt>
<pdfrwt beam="1">  1       21 0.15164348E+00 0.42550363E+03</pdfrwt>
<pdfrwt beam="2">  1       21 0.28281472E-01 0.42550363E+03</pdfrwt>
<totfact> 0.30220676E+03</totfact>
</mgrwt>
</event>
<event>
 4    1  0.4949719E-002  0.4272555E+03  0.7818608E-02  0.1034730E+00
         21   -1    0    0  501  502  0.00000000000E+00  0.00000000000E+00  0.15589932743E+04  0.15589932743E+04  0.00000000000E+00 0.  1.
         21   -1    0    0  502  503 -0.00000000000E+00 -0.00000000000E+00 -0.14643985074E+03  0.14643985074E+03  0.00000000000E+00 0.  1.
    9000005    1    1    2  501    0  0.12544846505E+03 -0.82522621314E+02  0.10880058679E+04  0.11688901013E+04  0.40000000000E+03 0.  1.
   -9000005    1    1    2    0  503 -0.12544846505E+03  0.82522621314E+02  0.32454755570E+03  0.53654302374E+03  0.40000000000E+03 0.  1.
<mgrwt>
<rscale>  2 0.42725554E+03</rscale>
<asrwt>0</asrwt>
<pdfrwt beam="1">  1       21 0.23984511E+00 0.42725554E+03</pdfrwt>
<pdfrwt beam="2">  1       21 0.22529209E-01 0.42725554E+03</pdfrwt>
<totfact> 0.11778681E+03</totfact>
</mgrwt>
</event>
<event>
 4    1  0.4949719E-002  0.4906099E+03  0.7818608E-02  0.1016259E+00
         21   -1    0    0  503  502  0.00000000000E+00  0.00000000000E+00  0.67598701000E+03  0.67598701000E+03  0.00000000000E+00 0. -1.
         21   -1    0    0  501  503 -0.00000000000E+00 -0.00000000000E+00 -0.39044245915E+03  0.39044245915E+03  0.00000000000E+00 0. -1.
    9000005    1    1    2  501    0 -0.83681178155E+02 -0.27146929291E+03 -0.15437868962E+02  0.49085277260E+03  0.40000000000E+03 0. -1.
   -9000005    1    1    2    0  502  0.83681178155E+02  0.27146929291E+03  0.30098241982E+03  0.57557669655E+03  0.40000000000E+03 0. -1.
<mgrwt>
<rscale>  2 0.49060994E+03</rscale>
<asrwt>0</asrwt>
<pdfrwt beam="1">  1       21 0.10399800E+00 0.49060994E+03</pdfrwt>
<pdfrwt beam="2">  1       21 0.60068071E-01 0.49060994E+03</pdfrwt>
<totfact> 0.16349136E+03</totfact>
</mgrwt>
</event>
<event>
 4    1  0.4949719E-002  0.4900957E+03  0.7818608E-02  0.1016397E+00
         21   -1    0    0  503  502  0.00000000000E+00  0.00000000000E+00  0.18287853067E+03  0.18287853067E+03  0.00000000000E+00 0. -1.
         21   -1    0    0  501  503 -0.00000000000E+00 -0.00000000000E+00 -0.13980561532E+04  0.13980561532E+04  0.00000000000E+00 0.  1.
    9000005    1    1    2  501    0  0.23605130918E+03  0.15644030000E+03 -0.41308187301E+03  0.64096054624E+03  0.40000000000E+03 0. -1.
   -9000005    1    1    2    0  502 -0.23605130918E+03 -0.15644030000E+03 -0.80209574955E+03  0.93997413766E+03  0.40000000000E+03 0. -1.
<mgrwt>
<rscale>  2 0.49009569E+03</rscale>
<asrwt>0</asrwt>
<pdfrwt beam="1">  1       21 0.28135157E-01 0.49009569E+03</pdfrwt>
<pdfrwt beam="2">  1       21 0.21508557E+00 0.49009569E+03</pdfrwt>
<totfact> 0.10639861E+03</totfact>
</mgrwt>
</event>
<event>
 4    1  0.4949719E-002  0.4399154E+03  0.7818608E-02  0.1030773E+00
         21   -1    0    0  501  502  0.00000000000E+00  0.00000000000E+00  0.29839878975E+03  0.29839878975E+03  0.00000000000E+00 0. -1.
         21   -1    0    0  502  503 -0.00000000000E+00 -0.00000000000E+00 -0.92518064109E+03  0.92518064109E+03  0.00000000000E+00 0. -1.
    9000005    1    1    2  501    0 -0.15506961093E+03 -0.97360148020E+02  0.21144065862E+02  0.44042326707E+03  0.40000000000E+03 0.  1.
   -9000005    1    1    2    0  503  0.15506961093E+03  0.97360148020E+02 -0.64792591720E+03  0.78315616376E+03  0.40000000000E+03 0.  1.
<mgrwt>
<rscale>  2 0.43991543E+03</rscale>
<asrwt>0</asrwt>
<pdfrwt beam="1">  1       21 0.45907507E-01 0.43991543E+03</pdfrwt>
<pdfrwt beam="2">  1       21 0.14233548E+00 0.43991543E+03</pdfrwt>
<totfact> 0.13318172E+03</totfact>
</mgrwt>
</event>
<event>
 4    1  0.4949719E-002  0.4468795E+03  0.7818608E-02  0.1028657E+00
         21   -1    0    0  501  502  0.00000000000E+00  0.00000000000E+00  0.11591550442E+04  0.11591550442E+04  0.00000000000E+00 0.  1.
         21   -1    0    0  502  503 -0.00000000000E+00 -0.00000000000E+00 -0.24965732015E+03  0.24965732015E+03  0.00000000000E+00 0. -1.
    9000005    1    1    2  501    0 -0.11400038510E+03 -0.16341735821E+03  0.84689937683E+03  0.95756977565E+03  0.40000000000E+03 0.  1.
   -9000005    1    1    2    0  503  0.11400038510E+03  0.16341735821E+03  0.62598347189E+02  0.45124258868E+03  0.40000000000E+03 0. -1.
<mgrwt>
<rscale>  2 0.44687954E+03</rscale>
<asrwt>0</asrwt>
<pdfrwt beam="1">  1       21 0.17833154E+00 0.44687954E+03</pdfrwt>
<pdfrwt beam="2">  1       21 0.38408819E-01 0.44687954E+03</pdfrwt>
<totfact> 0.10267813E+03</totfact>
</mgrwt>
</event>
<event>
 4    1  0.4949719E-002  0.4291044E+03  0.7818608E-02  0.1034143E+00
         21   -1    0    0  501  502  0.00000000000E+00  0.00000000000E+00  0.33612293210E+03  0.33612293210E+03  0.00000000000E+00 0. -1.
         21   -1    0    0  502  503 -0.00000000000E+00 -0.00000000000E+00 -0.79447985556E+03  0.79447985556E+03  0.00000000000E+00 0.  1.
    9000005    1    1    2  501    0  0.13175380898E+03 -0.82289139006E+02  0.85813230402E+02  0.43760082163E+03  0.40000000000E+03 0. -1.
   -9000005    1    1    2    0  503 -0.13175380898E+03  0.82289139006E+02 -0.54417015386E+03  0.69300196603E+03  0.40000000000E+03 0.  1.
<mgrwt>
<rscale>  2 0.42910438E+03</rscale>
<asrwt>0</asrwt>
<pdfrwt beam="1">  1       21 0.51711221E-01 0.42910438E+03</pdfrwt>
<pdfrwt beam="2">  1       21 0.12222767E+00 0.42910438E+03</pdfrwt>
<totfact> 0.15464661E+03</totfact>
</mgrwt>
</event>
<event>
 4    1  0.4949719E-002  0.4529005E+03  0.7818608E-02  0.1026861E+00
         21   -1    0    0  503  502  0.00000000000E+00  0.00000000000E+00  0.16337107863E+04  0.16337107863E+04  0.00000000000E+00 0. -1.
         21   -1    0    0  501  503 -0.00000000000E+00 -0.00000000000E+00 -0.14030639803E+03  0.14030639803E+03  0.00000000000E+00 0.  1.
    9000005    1    1    2  501    0 -0.20442071624E+03  0.57715114081E+02  0.45908096077E+03  0.64488308410E+03  0.40000000000E+03 0.  1.
   -9000005    1    1    2    0  502  0.20442071624E+03 -0.57715114081E+02  0.10343234275E+04  0.11291341002E+04  0.40000000000E+03 0. -1.
<mgrwt>
<rscale>  2 0.45290050E+03</rscale>
<asrwt>0</asrwt>
<pdfrwt beam="1">  1       21 0.25134011E+00 0.45290050E+03</pdfrwt>
<pdfrwt beam="2">  1       21 0.21585601E-01 0.45290050E+03</pdfrwt>
<totfact> 0.10724767E+03</totfact>
</mgrwt>
</event>
<event>
 4    1  0.4949719E-002  0.8407087E+03  0.7818608E-02  0.9502893E-01
         21   -1    0    0  501  502  0.00000000000E+00  0.00000000000E+00  0.66507440453E+03  0.66507440453E+03  0.00000000000E+00 0. -1.
         21   -1    0    0  502  503 -0.00000000000E+00 -0.00000000000E+00 -0.12551103311E+04  0.12551103311E+04  0.00000000000E+00 0. -1.
    9000005    1    1    2  501    0  0.73929798504E+03  0.15150115941E+02  0.80869909171E+02  0.84458923679E+03  0.40000000000E+03 0. -1.
   -9000005    1    1    2    0  503 -0.73929798504E+03 -0.15150115941E+02 -0.67090583577E+03  0.10755954989E+04  0.40000000000E+03 0. -1.
<mgrwt>
<rscale>  2 0.84070865E+03</rscale>
<asrwt>0</asrwt>
<pdfrwt beam="1">  1       21 0.10231914E+00 0.84070865E+03</pdfrwt>
<pdfrwt beam="2">  1       21 0.19309390E+00 0.84070865E+03</pdfrwt>
<totfact> 0.78596734E+01</totfact>
</mgrwt>
</event>
<event>
 4    1  0.4949719E-002  0.9909416E+03  0.7818608E-02  0.9318536E-01
         21   -1    0    0  503  502  0.00000000000E+00  0.00000000000E+00  0.66750482314E+03  0.66750482314E+03  0.00000000000E+00 0.  1.
         21   -1    0    0  501  503 -0.00000000000E+00 -0.00000000000E+00 -0.14726451766E+04  0.14726451766E+04  0.00000000000E+00 0. -1.
    9000005    1    1    2  501    0 -0.23123975100E+03 -0.87663755844E+03 -0.43725093892E+03  0.10831221607E+04  0.40000000000E+03 0. -1.
   -9000005    1    1    2    0  502  0.23123975100E+03  0.87663755844E+03 -0.36788941457E+03  0.10570278391E+04  0.40000000000E+03 0.  1.
<mgrwt>
<rscale>  2 0.99094159E+03</rscale>
<asrwt>0</asrwt>
<pdfrwt beam="1">  1       21 0.10269305E+00 0.99094159E+03</pdfrwt>
<pdfrwt beam="2">  1       21 0.22656080E+00 0.99094159E+03</pdfrwt>
<totfact> 0.44503817E+01</totfact>
</mgrwt>
</event>
<event>
 4    1  0.4949719E-002  0.4011976E+03  0.7818608E-02  0.1043366E+00
         21   -1    0    0  501  502  0.00000000000E+00  0.00000000000E+00  0.73519216431E+02  0.73519216431E+02  0.00000000000E+00 0. -1.
         21   -1    0    0  502  503 -0.00000000000E+00 -0.00000000000E+00 -0.21895927440E+04  0.21895927440E+04  0.00000000000E+00 0. -1.
    9000005    1    1    2  501    0  0.26594883345E+02  0.15881052155E+02 -0.10461891225E+04  0.11204781014E+04  0.40000000000E+03 0. -1.
   -9000005    1    1    2    0  503 -0.26594883345E+02 -0.15881052155E+02 -0.10698844051E+04  0.11426338590E+04  0.40000000000E+03 0. -1.
<mgrwt>
<rscale>  2 0.40119758E+03</rscale>
<asrwt>0</asrwt>
<pdfrwt beam="1">  1       21 0.11310652E-01 0.40119758E+03</pdfrwt>
<pdfrwt beam="2">  1       21 0.33686034E+00 0.40119758E+03</pdfrwt>
<totfact> 0.11208052E+03</totfact>
</mgrwt>
</event>
<event>
 4    1  0.4949719E-002  0.4547427E+03  0.7818608E-02  0.1026317E+00
         21   -1    0    0  503  502  0.00000000000E+00  0.00000000000E+00  0.37840689140E+03  0.37840689140E+03  0.00000000000E+00 0.  1.
         21   -1    0    0  501  503 -0.00000000000E+00 -0.00000000000E+00 -0.97181975851E+03  0.97181975851E+03  0.00000000000E+00 0.  1.
    9000005    1    1    2  501    0  0.18894394543E+03 -0.10531416277E+03  0.14992885768E+03  0.47882099970E+03  0.40000000000E+03 0.  1.
   -9000005    1    1    2    0  502 -0.18894394543E+03  0.10531416277E+03 -0.74334172478E+03  0.87140565020E+03  0.40000000000E+03 0.  1.
<mgrwt>
<rscale>  2 0.45474266E+03</rscale>
<asrwt>0</asrwt>
<pdfrwt beam="1">  1       21 0.58216445E-01 0.45474266E+03</pdfrwt>
<pdfrwt beam="2">  1       21 0.14951073E+00 0.45474266E+03</pdfrwt>
<totfact> 0.69749386E+02</totfact>
</mgrwt>
</event>
<event>
 4    1  0.4949719E-002  0.4782716E+03  0.7818608E-02  0.1019611E+00
         21   -1    0    0  501  502  0.00000000000E+00  0.00000000000E+00  0.71640921211E+03  0.71640921211E+03  0.00000000000E+00 0. -1.
         21   -1    0    0  502  503 -0.00000000000E+00 -0.00000000000E+00 -0.35230035210E+03  0.35230035210E+03  0.00000000000E+00 0.  1.
    9000005    1    1    2  501    0  0.20819205593E+03  0.15937307341E+03  0.18491349795E+02  0.47862891544E+03  0.40000000000E+03 0.  1.
   -9000005    1    1    2    0  503 -0.20819205593E+03 -0.15937307341E+03  0.34561751022E+03  0.59008064877E+03  0.40000000000E+03 0. -1.
<mgrwt>
<rscale>  2 0.47827158E+03</rscale>
<asrwt>0</asrwt>
<pdfrwt beam="1">  1       21 0.11021680E+00 0.47827158E+03</pdfrwt>
<pdfrwt beam="2">  1       21 0.54200054E-01 0.47827158E+03</pdfrwt>
<totfact> 0.17789726E+03</totfact>
</mgrwt>
</event>
<event>
 4    1  0.4949719E-002  0.4587794E+03  0.7818608E-02  0.1025136E+00
         21   -1    0    0  503  502  0.00000000000E+00  0.00000000000E+00  0.84327126763E+03  0.84327126763E+03  0.00000000000E+00 0.  1.
         21   -1    0    0  501  503 -0.00000000000E+00 -0.00000000000E+00 -0.45474922096E+03  0.45474922096E+03  0.00000000000E+00 0.  1.
    9000005    1    1    2  501    0 -0.17995476333E+03  0.13451691130E+03 -0.24165517428E+03  0.51853229362E+03  0.40000000000E+03 0.  1.
   -9000005    1    1    2    0  502  0.17995476333E+03 -0.13451691130E+03  0.63017722096E+03  0.77948819497E+03  0.40000000000E+03 0.  1.
<mgrwt>
<rscale>  2 0.45877938E+03</rscale>
<asrwt>0</asrwt>
<pdfrwt beam="1">  1       21 0.12973404E+00 0.45877938E+03</pdfrwt>
<pdfrwt beam="2">  1       21 0.69961419E-01 0.45877938E+03</pdfrwt>
<totfact> 0.67517659E+02</totfact>
</mgrwt>
</event>
<event>
 4    1  0.4949719E-002  0.4136191E+03  0.7818608E-02  0.1039163E+00
         21   -1    0    0  501  502  0.00000000000E+00  0.00000000000E+00  0.47117518192E+03  0.47117518192E+03  0.00000000000E+00 0. -1.
         21   -1    0    0  502  503 -0.00000000000E+00 -0.00000000000E+00 -0.36929071516E+03  0.36929071516E+03  0.00000000000E+00 0. -1.
    9000005    1    1    2  501    0 -0.66242782219E+02  0.81808662245E+02  0.10537939280E+03  0.42683202767E+03  0.40000000000E+03 0.  1.
   -9000005    1    1    2    0  503  0.66242782219E+02 -0.81808662245E+02 -0.34949260430E+01  0.41363386941E+03  0.40000000000E+03 0.  1.
<mgrwt>
<rscale>  2 0.41361910E+03</rscale>
<asrwt>0</asrwt>
<pdfrwt beam="1">  1       21 0.72488490E-01 0.41361910E+03</pdfrwt>
<pdfrwt beam="2">  1       21 0.56813956E-01 0.41361910E+03</pdfrwt>
<totfact> 0.44389328E+03</totfact>
</mgrwt>
</event>
<event>
 4    1  0.4949719E-002  0.4447290E+03  0.7818608E-02  0.1029306E+00
         21   -1    0    0  501  502  0.00000000000E+00  0.00000000000E+00  0.16732733380E+03  0.16732733380E+03  0.00000000000E+00 0.  1.
         21   -1    0    0  502  503 -0.00000000000E+00 -0.00000000000E+00 -0.12064673868E+04  0.12064673868E+04  0.00000000000E+00 0.  1.
    9000005    1    1    2  501    0 -0.19419704073E+03  0.84495028229E+01 -0.61735450766E+03  0.76086166473E+03  0.40000000000E+03 0.  1.
   -9000005    1    1    2    0  503  0.19419704073E+03 -0.84495028229E+01 -0.42178554535E+03  0.61293305588E+03  0.40000000000E+03 0.  1.
<mgrwt>
<rscale>  2 0.44472900E+03</rscale>
<asrwt>0</asrwt>
<pdfrwt beam="1">  1       21 0.25742668E-01 0.44472900E+03</pdfrwt>
<pdfrwt beam="2">  1       21 0.18561036E+00 0.44472900E+03</pdfrwt>
<totfact> 0.20329359E+03</totfact>
</mgrwt>
</event>
<event>
 4    1  0.4949719E-002  0.4990148E+03  0.7818608E-02  0.1014036E+00
         21   -1    0    0  501  502  0.00000000000E+00  0.00000000000E+00  0.26635048467E+04  0.26635048467E+04  0.00000000000E+00 0. -1.
         21   -1    0    0  502  503 -0.00000000000E+00 -0.00000000000E+00 -0.93509753999E+02  0.93509753999E+02  0.00000000000E+00 0.  1.
    9000005    1    1    2  501    0 -0.22151434965E+03  0.19986795627E+03  0.13041098288E+04  0.13963231190E+04  0.40000000000E+03 0.  1.
   -9000005    1    1    2    0  503  0.22151434965E+03 -0.19986795627E+03  0.12658852639E+04  0.13606914818E+04  0.40000000000E+03 0. -1.
<mgrwt>
<rscale>  2 0.49901484E+03</rscale>
<asrwt>0</asrwt>
<pdfrwt beam="1">  1       21 0.40976992E+00 0.49901484E+03</pdfrwt>
<pdfrwt beam="2">  1       21 0.14386118E-01 0.49901484E+03</pdfrwt>
<totfact> 0.23739221E+02</totfact>
</mgrwt>
</event>
<event>
 4    1  0.4949719E-002  0.4499224E+03  0.7818608E-02  0.1027745E+00
         21   -1    0    0  503  502  0.00000000000E+00  0.00000000000E+00  0.40887824521E+03  0.40887824521E+03  0.00000000000E+00 0.  1.
         21   -1    0    0  501  503 -0.00000000000E+00 -0.00000000000E+00 -0.59560043077E+03  0.59560043077E+03  0.00000000000E+00 0.  1.
    9000005    1    1    2  501    0  0.36438234777E+02  0.20273724744E+03  0.11296120073E+03  0.46388615987E+03  0.40000000000E+03 0.  1.
   -9000005    1    1    2    0  502 -0.36438234777E+02 -0.20273724744E+03 -0.29968338628E+03  0.54059251610E+03  0.40000000000E+03 0.  1.
<mgrwt>
<rscale>  2 0.44992237E+03</rscale>
<asrwt>0</asrwt>
<pdfrwt beam="1">  1       21 0.62904345E-01 0.44992237E+03</pdfrwt>
<pdfrwt beam="2">  1       21 0.91630835E-01 0.44992237E+03</pdfrwt>
<totfact> 0.20360535E+03</totfact>
</mgrwt>
</event>
<event>
 4    1  0.4949719E-002  0.4378023E+03  0.7818608E-02  0.1031423E+00
         21   -1    0    0  501  502  0.00000000000E+00  0.00000000000E+00  0.67382868149E+03  0.67382868149E+03  0.00000000000E+00 0. -1.
         21   -1    0    0  502  503 -0.00000000000E+00 -0.00000000000E+00 -0.43868568378E+03  0.43868568378E+03  0.00000000000E+00 0. -1.
    9000005    1    1    2  501    0 -0.13912328021E+03 -0.11097550529E+03  0.44740194678E+03  0.62597072763E+03  0.40000000000E+03 0. -1.
   -9000005    1    1    2    0  503  0.13912328021E+03  0.11097550529E+03 -0.21225894908E+03  0.48654363764E+03  0.40000000000E+03 0. -1.
<mgrwt>
<rscale>  2 0.43780230E+03</rscale>
<asrwt>0</asrwt>
<pdfrwt beam="1">  1       21 0.10366595E+00 0.43780230E+03</pdfrwt>
<pdfrwt beam="2">  1       21 0.67490105E-01 0.43780230E+03</pdfrwt>
<totfact> 0.12989538E+03</totfact>
</mgrwt>
</event>
<event>
 4    1  0.4949719E-002  0.4047935E+03  0.7818608E-02  0.1042132E+00
         21   -1    0    0  503  502  0.00000000000E+00  0.00000000000E+00  0.27940979730E+03  0.27940979730E+03  0.00000000000E+00 0.  1.
         21   -1    0    0  501  503 -0.00000000000E+00 -0.00000000000E+00 -0.58644482934E+03  0.58644482934E+03  0.00000000000E+00 0.  1.
    9000005    1    1    2  501    0  0.27724019267E+02  0.55579815914E+02 -0.15262673727E+03  0.43261144011E+03  0.40000000000E+03 0.  1.
   -9000005    1    1    2    0  502 -0.27724019267E+02 -0.55579815914E+02 -0.15440829477E+03  0.43324318653E+03  0.40000000000E+03 0.  1.
<mgrwt>
<rscale>  2 0.40479345E+03</rscale>
<asrwt>0</asrwt>
<pdfrwt beam="1">  1       21 0.42986123E-01 0.40479345E+03</pdfrwt>
<pdfrwt beam="2">  1       21 0.90222280E-01 0.40479345E+03</pdfrwt>
<totfact> 0.48507225E+03</totfact>
</mgrwt>
</event>
<event>
 4    1  0.4949719E-002  0.4003008E+03  0.7818608E-02  0.1043676E+00
         21   -1    0    0  503  502  0.00000000000E+00  0.00000000000E+00  0.36069968652E+03  0.36069968652E+03  0.00000000000E+00 0.  1.
         21   -1    0    0  501  503 -0.00000000000E+00 -0.00000000000E+00 -0.11894199238E+04  0.11894199238E+04  0.00000000000E+00 0.  1.
    9000005    1    1    2  501    0 -0.41873575846E+01 -0.14938676307E+02 -0.10278330156E+04  0.11030328218E+04  0.40000000000E+03 0.  1.
   -9000005    1    1    2    0  502  0.41873575846E+01  0.14938676307E+02  0.19911277829E+03  0.44708678855E+03  0.40000000000E+03 0.  1.
<mgrwt>
<rscale>  2 0.40030076E+03</rscale>
<asrwt>0</asrwt>
<pdfrwt beam="1">  1       21 0.55492259E-01 0.40030076E+03</pdfrwt>
<pdfrwt beam="2">  1       21 0.18298768E+00 0.40030076E+03</pdfrwt>
<totfact> 0.44993913E+02</totfact>
</mgrwt>
</event>
<event>
 4    1  0.4949719E-002  0.5217020E+03  0.7818608E-02  0.1008265E+00
         21   -1    0    0  501  502  0.00000000000E+00  0.00000000000E+00  0.51466341558E+03  0.51466341558E+03  0.00000000000E+00 0. -1.
         21   -1    0    0  502  503 -0.00000000000E+00 -0.00000000000E+00 -0.74826768511E+03  0.74826768511E+03  0.00000000000E+00 0. -1.
    9000005    1    1    2  501    0  0.21866456203E+03  0.25369024237E+03  0.22515375723E+03  0.56821399504E+03  0.40000000000E+03 0. -1.
   -9000005    1    1    2    0  503 -0.21866456203E+03 -0.25369024237E+03 -0.45875802677E+03  0.69471710565E+03  0.40000000000E+03 0. -1.
<mgrwt>
<rscale>  2 0.52170195E+03</rscale>
<asrwt>0</asrwt>
<pdfrwt beam="1">  1       21 0.79178987E-01 0.52170195E+03</pdfrwt>
<pdfrwt beam="2">  1       21 0.11511811E+00 0.52170195E+03</pdfrwt>
<totfact> 0.67394995E+02</totfact>
</mgrwt>
</event>
<event>
 4    1  0.4949719E-002  0.4006193E+03  0.7818608E-02  0.1043565E+00
         21   -1    0    0  501  502  0.00000000000E+00  0.00000000000E+00  0.45843015964E+03  0.45843015964E+03  0.00000000000E+00 0. -1.
         21   -1    0    0  502  503 -0.00000000000E+00 -0.00000000000E+00 -0.52521331319E+03  0.52521331319E+03  0.00000000000E+00 0. -1.
    9000005    1    1    2  501    0  0.19471528015E+02 -0.10800654519E+02  0.25059713193E+03  0.47254070414E+03  0.40000000000E+03 0.  1.
   -9000005    1    1    2    0  503 -0.19471528015E+02  0.10800654519E+02 -0.31738028548E+03  0.51110276868E+03  0.40000000000E+03 0.  1.
<mgrwt>
<rscale>  2 0.40061926E+03</rscale>
<asrwt>0</asrwt>
<pdfrwt beam="1">  1       21 0.70527717E-01 0.40061926E+03</pdfrwt>
<pdfrwt beam="2">  1       21 0.80802048E-01 0.40061926E+03</pdfrwt>
<totfact> 0.21601493E+03</totfact>
</mgrwt>
</event>
<event>
 4    1  0.4949719E-002  0.5134649E+03  0.7818608E-02  0.1010323E+00
         21   -1    0    0  503  502  0.00000000000E+00  0.00000000000E+00  0.63320062889E+03  0.63320062889E+03  0.00000000000E+00 0.  1.
         21   -1    0    0  501  503 -0.00000000000E+00 -0.00000000000E+00 -0.51196600931E+03  0.51196600931E+03  0.00000000000E+00 0. -1.
    9000005    1    1    2  501    0  0.27091604201E+03 -0.17392731417E+03 -0.18680356343E+03  0.54638977273E+03  0.40000000000E+03 0. -1.
   -9000005    1    1    2    0  502 -0.27091604201E+03  0.17392731417E+03  0.30803818301E+03  0.59877686547E+03  0.40000000000E+03 0.  1.
<mgrwt>
<rscale>  2 0.51346491E+03</rscale>
<asrwt>0</asrwt>
<pdfrwt beam="1">  1       21 0.97415481E-01 0.51346491E+03</pdfrwt>
<pdfrwt beam="2">  1       21 0.78764002E-01 0.51346491E+03</pdfrwt>
<totfact> 0.10337152E+03</totfact>
</mgrwt>
</event>
<event>
 4    1  0.4949719E-002  0.4392532E+03  0.7818608E-02  0.1030976E+00
         21   -1    0    0  503  502  0.00000000000E+00  0.00000000000E+00  0.10849692352E+04  0.10849692352E+04  0.00000000000E+00 0. -1.
         21   -1    0    0  501  503 -0.00000000000E+00 -0.00000000000E+00 -0.76876170580E+03  0.76876170580E+03  0.00000000000E+00 0. -1.
    9000005    1    1    2  501    0  0.12576033990E+03 -0.13087275648E+03 -0.65451785692E+03  0.78824930479E+03  0.40000000000E+03 0. -1.
   -9000005    1    1    2    0  502 -0.12576033990E+03  0.13087275648E+03  0.97072538635E+03  0.10654816362E+04  0.40000000000E+03 0. -1.
<mgrwt>
<rscale>  2 0.43925316E+03</rscale>
<asrwt>0</asrwt>
<pdfrwt beam="1">  1       21 0.16691834E+00 0.43925316E+03</pdfrwt>
<pdfrwt beam="2">  1       21 0.11827103E+00 0.43925316E+03</pdfrwt>
<totfact> 0.98903576E+01</totfact>
</mgrwt>
</event>
<event>
 4    1  0.4949719E-002  0.1017573E+04  0.7818608E-02  0.9289478E-01
         21   -1    0    0  503  502  0.00000000000E+00  0.00000000000E+00  0.28201418489E+04  0.28201418489E+04  0.00000000000E+00 0.  1.
         21   -1    0    0  501  503 -0.00000000000E+00 -0.00000000000E+00 -0.45124121594E+03  0.45124121594E+03  0.00000000000E+00 0. -1.
    9000005    1    1    2  501    0 -0.74202928878E+02  0.93271034678E+03  0.47839928610E+03  0.11244200917E+04  0.40000000000E+03 0. -1.
   -9000005    1    1    2    0  502  0.74202928878E+02 -0.93271034678E+03  0.18905013468E+04  0.21469629731E+04  0.40000000000E+03 0.  1.
<mgrwt>
<rscale>  2 0.10175729E+04</rscale>
<asrwt>0</asrwt>
<pdfrwt beam="1">  1       21 0.43386797E+00 0.10175729E+04</pdfrwt>
<pdfrwt beam="2">  1       21 0.69421727E-01 0.10175729E+04</pdfrwt>
<totfact> 0.53279482E+00</totfact>
</mgrwt>
</event>
<event>
 4    1  0.4949719E-002  0.4165298E+03  0.7818608E-02  0.1038202E+00
         21   -1    0    0  501  502  0.00000000000E+00  0.00000000000E+00  0.18225054863E+03  0.18225054863E+03  0.00000000000E+00 0. -1.
         21   -1    0    0  502  503 -0.00000000000E+00 -0.00000000000E+00 -0.10216500870E+04  0.10216500870E+04  0.00000000000E+00 0. -1.
    9000005    1    1    2  501    0 -0.93257662354E+02 -0.69282603578E+02 -0.57690378254E+03  0.71155818108E+03  0.40000000000E+03 0. -1.
   -9000005    1    1    2    0  503  0.93257662354E+02  0.69282603578E+02 -0.26249575586E+03  0.49234245459E+03  0.40000000000E+03 0. -1.
<mgrwt>
<rscale>  2 0.41652980E+03</rscale>
<asrwt>0</asrwt>
<pdfrwt beam="1">  1       21 0.28038546E-01 0.41652980E+03</pdfrwt>
<pdfrwt beam="2">  1       21 0.15717694E+00 0.41652980E+03</pdfrwt>
<totfact> 0.27966932E+03</totfact>
</mgrwt>
</event>
<event>
 4    1  0.4949719E-002  0.4095774E+03  0.7818608E-02  0.1040513E+00
         21   -1    0    0  503  502  0.00000000000E+00  0.00000000000E+00  0.14109676439E+04  0.14109676439E+04  0.00000000000E+00 0.  1.
         21   -1    0    0  501  503 -0.00000000000E+00 -0.00000000000E+00 -0.16434360340E+03  0.16434360340E+03  0.00000000000E+00 0.  1.
    9000005    1    1    2  501    0 -0.62518216947E+02 -0.62009127647E+02  0.20909155525E+03  0.45986186821E+03  0.40000000000E+03 0.  1.
   -9000005    1    1    2    0  502  0.62518216947E+02  0.62009127647E+02  0.10375324852E+04  0.11154493790E+04  0.40000000000E+03 0.  1.
<mgrwt>
<rscale>  2 0.40957742E+03</rscale>
<asrwt>0</asrwt>
<pdfrwt beam="1">  1       21 0.21707194E+00 0.40957742E+03</pdfrwt>
<pdfrwt beam="2">  1       21 0.25283632E-01 0.40957742E+03</pdfrwt>
<totfact> 0.13223081E+03</totfact>
</mgrwt>
</event>
<event>
 4    1  0.4949719E-002  0.4509997E+03  0.7818608E-02  0.1027424E+00
         21   -1    0    0  503  502  0.00000000000E+00  0.00000000000E+00  0.57194625582E+03  0.57194625582E+03  0.00000000000E+00 0.  1.
         21   -1    0    0  501  503 -0.00000000000E+00 -0.00000000000E+00 -0.70375859636E+03  0.70375859636E+03  0.00000000000E+00 0. -1.
    9000005    1    1    2  501    0 -0.43694881272E+02 -0.20369458854E+03 -0.51452631461E+03  0.68420615057E+03  0.40000000000E+03 0. -1.
   -9000005    1    1    2    0  502  0.43694881272E+02  0.20369458854E+03  0.38271397407E+03  0.59149870160E+03  0.40000000000E+03 0.  1.
<mgrwt>
<rscale>  2 0.45099970E+03</rscale>
<asrwt>0</asrwt>
<pdfrwt beam="1">  1       21 0.87991732E-01 0.45099970E+03</pdfrwt>
<pdfrwt beam="2">  1       21 0.10827055E+00 0.45099970E+03</pdfrwt>
<totfact> 0.63153013E+02</totfact>
</mgrwt>
</event>
<event>
 4    1  0.4949719E-002  0.4014067E+03  0.7818608E-02  0.1043294E+00
         21   -1    0    0  501  502  0.00000000000E+00  0.00000000000E+00  0.97222856262E+03  0.97222856262E+03  0.00000000000E+00 0. -1.
         21   -1    0    0  502  503 -0.00000000000E+00 -0.00000000000E+00 -0.34015677197E+03  0.34015677197E+03  0.00000000000E+00 0. -1.
    9000005    1    1    2  501    0  0.32294980378E+02 -0.91874120196E+01  0.78592834611E+03  0.88250254363E+03  0.40000000000E+03 0. -1.
   -9000005    1    1    2    0  503 -0.32294980378E+02  0.91874120196E+01 -0.15385655546E+03  0.42988279095E+03  0.40000000000E+03 0. -1.
<mgrwt>
<rscale>  2 0.40140674E+03</rscale>
<asrwt>0</asrwt>
<pdfrwt beam="1">  1       21 0.14957362E+00 0.40140674E+03</pdfrwt>
<pdfrwt beam="2">  1       21 0.52331812E-01 0.40140674E+03</pdfrwt>
<totfact> 0.89882534E+02</totfact>
</mgrwt>
</event>
<event>
 4    1  0.4949719E-002  0.4596336E+03  0.7818608E-02  0.1024888E+00
         21   -1    0    0  503  502  0.00000000000E+00  0.00000000000E+00  0.16630041148E+04  0.16630041148E+04  0.00000000000E+00 0.  1.
         21   -1    0    0  501  503 -0.00000000000E+00 -0.00000000000E+00 -0.13458964050E+03  0.13458964050E+03  0.00000000000E+00 0.  1.
    9000005    1    1    2  501    0  0.72707057998E+02 -0.21442193955E+03  0.97712143073E+03  0.10798284006E+04  0.40000000000E+03 0.  1.
   -9000005    1    1    2    0  502 -0.72707057998E+02  0.21442193955E+03  0.55129304354E+03  0.71776535463E+03  0.40000000000E+03 0.  1.
<mgrwt>
<rscale>  2 0.45963364E+03</rscale>
<asrwt>0</asrwt>
<pdfrwt beam="1">  1       21 0.25584677E+00 0.45963364E+03</pdfrwt>
<pdfrwt beam="2">  1       21 0.20706100E-01 0.45963364E+03</pdfrwt>
<totfact> 0.10862158E+03</totfact>
</mgrwt>
</event>
<event>
 4    1  0.4949719E-002  0.5748551E+03  0.7818608E-02  0.9958992E-01
         21   -1    0    0  503  502  0.00000000000E+00  0.00000000000E+00  0.47385593333E+03  0.47385593333E+03  0.00000000000E+00 0. -1.
         21   -1    0    0  501  503 -0.00000000000E+00 -0.00000000000E+00 -0.88060522798E+03  0.88060522798E+03  0.00000000000E+00 0.  1.
    9000005    1    1    2  501    0 -0.10751821320E+03 -0.39862041559E+03 -0.51228800482E+03  0.76999831284E+03  0.40000000000E+03 0.  1.
   -9000005    1    1    2    0  502  0.10751821320E+03  0.39862041559E+03  0.10553871017E+03  0.58446284847E+03  0.40000000000E+03 0. -1.
<mgrwt>
<rscale>  2 0.57485511E+03</rscale>
<asrwt>0</asrwt>
<pdfrwt beam="1">  1       21 0.72900914E-01 0.57485511E+03</pdfrwt>
<pdfrwt beam="2">  1       21 0.13547773E+00 0.57485511E+03</pdfrwt>
<totfact> 0.52496032E+02</totfact>
</mgrwt>
</event>
<event>
 4    1  0.4949719E-002  0.4404854E+03  0.7818608E-02  0.1030598E+00
         21   -1    0    0  501  502  0.00000000000E+00  0.00000000000E+00  0.46545544939E+03  0.46545544939E+03  0.00000000000E+00 0.  1.
         21   -1    0    0  502  503 -0.00000000000E+00 -0.00000000000E+00 -0.55258697052E+03  0.55258697052E+03  0.00000000000E+00 0. -1.
    9000005    1    1    2  501    0  0.10343056889E+03  0.15273994837E+03  0.20871075942E+03  0.48742953902E+03  0.40000000000E+03 0. -1.
   -9000005    1    1    2    0  503 -0.10343056889E+03 -0.15273994837E+03 -0.29584228054E+03  0.53061288089E+03  0.40000000000E+03 0. -1.
<mgrwt>
<rscale>  2 0.44048539E+03</rscale>
<asrwt>0</asrwt>
<pdfrwt beam="1">  1       21 0.71608531E-01 0.44048539E+03</pdfrwt>
<pdfrwt beam="2">  1       21 0.85013380E-01 0.44048539E+03</pdfrwt>
<totfact> 0.18253652E+03</totfact>
</mgrwt>
</event>
<event>
 4    1  0.4949719E-002  0.4017236E+03  0.7818608E-02  0.1043185E+00
         21   -1    0    0  503  502  0.00000000000E+00  0.00000000000E+00  0.56248106474E+03  0.56248106474E+03  0.00000000000E+00 0.  1.
         21   -1    0    0  501  503 -0.00000000000E+00 -0.00000000000E+00 -0.29026186711E+03  0.29026186711E+03  0.00000000000E+00 0.  1.
    9000005    1    1    2  501    0 -0.22686044433E+02  0.29447511417E+02  0.18192314273E+03  0.44099641994E+03  0.40000000000E+03 0.  1.
   -9000005    1    1    2    0  502  0.22686044433E+02 -0.29447511417E+02  0.90296054893E+02  0.41174651191E+03  0.40000000000E+03 0.  1.
<mgrwt>
<rscale>  2 0.40172355E+03</rscale>
<asrwt>0</asrwt>
<pdfrwt beam="1">  1       21 0.86535548E-01 0.40172355E+03</pdfrwt>
<pdfrwt beam="2">  1       21 0.44655672E-01 0.40172355E+03</pdfrwt>
<totfact> 0.49486298E+03</totfact>
</mgrwt>
</event>
<event>
 4    1  0.4949719E-002  0.4122942E+03  0.7818608E-02  0.1039604E+00
         21   -1    0    0  503  502  0.00000000000E+00  0.00000000000E+00  0.17883859286E+04  0.17883859286E+04  0.00000000000E+00 0. -1.
         21   -1    0    0  501  503 -0.00000000000E+00 -0.00000000000E+00 -0.11522363040E+03  0.11522363040E+03  0.00000000000E+00 0. -1.
    9000005    1    1    2  501    0 -0.60297402729E+02  0.79691584401E+02  0.12348409463E+04  0.13018520223E+04  0.40000000000E+03 0. -1.
   -9000005    1    1    2    0  502  0.60297402729E+02 -0.79691584401E+02  0.43832135193E+03  0.60175753668E+03  0.40000000000E+03 0. -1.
<mgrwt>
<rscale>  2 0.41229422E+03</rscale>
<asrwt>0</asrwt>
<pdfrwt beam="1">  1       21 0.27513628E+00 0.41229422E+03</pdfrwt>
<pdfrwt beam="2">  1       21 0.17726714E-01 0.41229422E+03</pdfrwt>
<totfact> 0.11415534E+03</totfact>
</mgrwt>
</event>
<event>
 4    1  0.4949719E-002  0.4534741E+03  0.7818608E-02  0.1026691E+00
         21   -1    0    0  501  502  0.00000000000E+00  0.00000000000E+00  0.10802640770E+04  0.10802640770E+04  0.00000000000E+00 0. -1.
         21   -1    0    0  502  503 -0.00000000000E+00 -0.00000000000E+00 -0.20102784673E+03  0.20102784673E+03  0.00000000000E+00 0. -1.
    9000005    1    1    2  501    0 -0.10399075834E+03  0.18661377606E+03  0.58720026731E+03  0.74191841409E+03  0.40000000000E+03 0. -1.
   -9000005    1    1    2    0  503  0.10399075834E+03 -0.18661377606E+03  0.29203596294E+03  0.53937350963E+03  0.40000000000E+03 0. -1.
<mgrwt>
<rscale>  2 0.45347412E+03</rscale>
<asrwt>0</asrwt>
<pdfrwt beam="1">  1       21 0.16619447E+00 0.45347412E+03</pdfrwt>
<pdfrwt beam="2">  1       21 0.30927362E-01 0.45347412E+03</pdfrwt>
<totfact> 0.19410806E+03</totfact>
</mgrwt>
</event>
<event>
 4    1  0.4949719E-002  0.4009182E+03  0.7818608E-02  0.1043462E+00
         21   -1    0    0  503  502  0.00000000000E+00  0.00000000000E+00  0.95015083931E+03  0.95015083931E+03  0.00000000000E+00 0.  1.
         21   -1    0    0  501  503 -0.00000000000E+00 -0.00000000000E+00 -0.20597061625E+03  0.20597061625E+03  0.00000000000E+00 0.  1.
    9000005    1    1    2  501    0 -0.24144588493E+02  0.12347176369E+02  0.12774236675E+03  0.42077728810E+03  0.40000000000E+03 0.  1.
   -9000005    1    1    2    0  502  0.24144588493E+02 -0.12347176369E+02  0.61643785632E+03  0.73534416746E+03  0.40000000000E+03 0.  1.
<mgrwt>
<rscale>  2 0.40091821E+03</rscale>
<asrwt>0</asrwt>
<pdfrwt beam="1">  1       21 0.14617705E+00 0.40091821E+03</pdfrwt>
<pdfrwt beam="2">  1       21 0.31687788E-01 0.40091821E+03</pdfrwt>
<totfact> 0.26907211E+03</totfact>
</mgrwt>
</event>
<event>
 4    1  0.4949719E-002  0.4703096E+03  0.7818608E-02  0.1021833E+00
         21   -1    0    0  501  502  0.00000000000E+00  0.00000000000E+00  0.14885057812E+04  0.14885057812E+04  0.00000000000E+00 0. -1.
         21   -1    0    0  502  503 -0.00000000000E+00 -0.00000000000E+00 -0.27633234900E+03  0.27633234900E+03  0.00000000000E+00 0. -1.
    9000005    1    1    2  501    0  0.13848031899E+03  0.20497396416E+03  0.12060303103E+04  0.12944884064E+04  0.40000000000E+03 0. -1.
   -9000005    1    1    2    0  503 -0.13848031899E+03 -0.20497396416E+03  0.61431218213E+01  0.47034972380E+03  0.40000000000E+03 0. -1.
<mgrwt>
<rscale>  2 0.47030961E+03</rscale>
<asrwt>0</asrwt>
<pdfrwt beam="1">  1       21 0.22900089E+00 0.47030961E+03</pdfrwt>
<pdfrwt beam="2">  1       21 0.42512670E-01 0.47030961E+03</pdfrwt>
<totfact> 0.37931785E+02</totfact>
</mgrwt>
</event>
<event>
 4    1  0.4949719E-002  0.6666862E+03  0.7818608E-02  0.9775963E-01
         21   -1    0    0  501  502  0.00000000000E+00  0.00000000000E+00  0.61189027233E+03  0.61189027233E+03  0.00000000000E+00 0. -1.
         21   -1    0    0  502  503 -0.00000000000E+00 -0.00000000000E+00 -0.72732888961E+03  0.72732888961E+03  0.00000000000E+00 0. -1.
    9000005    1    1    2  501    0 -0.40871701001E+03 -0.34266735182E+03 -0.81787298213E+02  0.67168420439E+03  0.40000000000E+03 0. -1.
   -9000005    1    1    2    0  503  0.40871701001E+03  0.34266735182E+03 -0.33651319072E+02  0.66753495755E+03  0.40000000000E+03 0. -1.
<mgrwt>
<rscale>  2 0.66668621E+03</rscale>
<asrwt>0</asrwt>
<pdfrwt beam="1">  1       21 0.94136966E-01 0.66668621E+03</pdfrwt>
<pdfrwt beam="2">  1       21 0.11189675E+00 0.66668621E+03</pdfrwt>
<totfact> 0.45827321E+02</totfact>
</mgrwt>
</event>
<event>
 4    1  0.4949719E-002  0.4095274E+03  0.7818608E-02  0.1040530E+00
         21   -1    0    0  501  502  0.00000000000E+00  0.00000000000E+00  0.13335586947E+03  0.13335586947E+03  0.00000000000E+00 0. -1.
         21   -1    0    0  502  503 -0.00000000000E+00 -0.00000000000E+00 -0.13407136376E+04  0.13407136376E+04  0.00000000000E+00 0. -1.
    9000005    1    1    2  501    0  0.11365801108E+02 -0.87083249730E+02 -0.42020628900E+03  0.58675889353E+03  0.40000000000E+03 0. -1.
   -9000005    1    1    2    0  503 -0.11365801108E+02  0.87083249730E+02 -0.78715147913E+03  0.88731061354E+03  0.40000000000E+03 0. -1.
<mgrwt>
<rscale>  2 0.40952738E+03</rscale>
<asrwt>0</asrwt>
<pdfrwt beam="1">  1       21 0.20516288E-01 0.40952738E+03</pdfrwt>
<pdfrwt beam="2">  1       21 0.20626363E+00 0.40952738E+03</pdfrwt>
<totfact> 0.23221764E+03</totfact>
</mgrwt>
</event>
<event>
 4    1  0.4949719E-002  0.4182104E+03  0.7818608E-02  0.1037650E+00
         21   -1    0    0  501  502  0.00000000000E+00  0.00000000000E+00  0.24523582832E+03  0.24523582832E+03  0.00000000000E+00 0.  1.
         21   -1    0    0  502  503 -0.00000000000E+00 -0.00000000000E+00 -0.71531751316E+03  0.71531751316E+03  0.00000000000E+00 0.  1.
    9000005    1    1    2  501    0  0.92666576174E+02  0.79453276871E+02 -0.20885271474E+03  0.46746055877E+03  0.40000000000E+03 0.  1.
   -9000005    1    1    2    0  503 -0.92666576174E+02 -0.79453276871E+02 -0.26122897010E+03  0.49309278272E+03  0.40000000000E+03 0.  1.
<mgrwt>
<rscale>  2 0.41821037E+03</rscale>
<asrwt>0</asrwt>
<pdfrwt beam="1">  1       21 0.37728589E-01 0.41821037E+03</pdfrwt>
<pdfrwt beam="2">  1       21 0.11004885E+00 0.41821037E+03</pdfrwt>
<totfact> 0.39022786E+03</totfact>
</mgrwt>
</event>
<event>
 4    1  0.4949719E-002  0.5000880E+03  0.7818608E-02  0.1013756E+00
         21   -1    0    0  501  502  0.00000000000E+00  0.00000000000E+00  0.58775628268E+03  0.58775628268E+03  0.00000000000E+00 0.  1.
         21   -1    0    0  502  503 -0.00000000000E+00 -0.00000000000E+00 -0.74158370334E+03  0.74158370334E+03  0.00000000000E+00 0.  1.
    9000005    1    1    2  501    0  0.28012627658E+03 -0.10778355662E+03  0.35702629754E+03  0.61445569656E+03  0.40000000000E+03 0.  1.
   -9000005    1    1    2    0  503 -0.28012627658E+03  0.10778355662E+03 -0.51085371820E+03  0.71488428945E+03  0.40000000000E+03 0.  1.
<mgrwt>
<rscale>  2 0.50008802E+03</rscale>
<asrwt>0</asrwt>
<pdfrwt beam="1">  1       21 0.90424044E-01 0.50008802E+03</pdfrwt>
<pdfrwt beam="2">  1       21 0.11408980E+00 0.50008802E+03</pdfrwt>
<totfact> 0.50903601E+02</totfact>
</mgrwt>
</event>
<event>
 4    1  0.4949719E-002  0.4236763E+03  0.7818608E-02  0.1035876E+00
         21   -1    0    0  503  502  0.00000000000E+00  0.00000000000E+00  0.12256615429E+03  0.12256615429E+03  0.00000000000E+00 0.  1.
         21   -1    0    0  501  503 -0.00000000000E+00 -0.00000000000E+00 -0.14921703414E+04  0.14921703414E+04  0.00000000000E+00 0. -1.
    9000005    1    1    2  501    0 -0.74121795906E+02  0.11835366229E+03 -0.79468893705E+03  0.90057322672E+03  0.40000000000E+03 0. -1.
   -9000005    1    1    2    0  502  0.74121795906E+02 -0.11835366229E+03 -0.57491525009E+03  0.71416326900E+03  0.40000000000E+03 0. -1.
<mgrwt>
<rscale>  2 0.42367633E+03</rscale>
<asrwt>0</asrwt>
<pdfrwt beam="1">  1       21 0.18856331E-01 0.42367633E+03</pdfrwt>
<pdfrwt beam="2">  1       21 0.22956467E+00 0.42367633E+03</pdfrwt>
<totfact> 0.19202914E+03</totfact>
</mgrwt>
</event>
<event>
 4    1  0.4949719E-002  0.4368206E+03  0.7818608E-02  0.1031727E+00
         21   -1    0    0  501  502  0.00000000000E+00  0.00000000000E+00  0.46140731917E+03  0.46140731917E+03  0.00000000000E+00 0.  1.
         21   -1    0    0  502  503 -0.00000000000E+00 -0.00000000000E+00 -0.80512729916E+03  0.80512729916E+03  0.00000000000E+00 0.  1.
    9000005    1    1    2  501    0  0.10228133684E+03 -0.14265624990E+03  0.26977839655E+03  0.51341275865E+03  0.40000000000E+03 0.  1.
   -9000005    1    1    2    0  503 -0.10228133684E+03  0.14265624990E+03 -0.61349837654E+03  0.75312185967E+03  0.40000000000E+03 0.  1.
<mgrwt>
<rscale>  2 0.43682065E+03</rscale>
<asrwt>0</asrwt>
<pdfrwt beam="1">  1       21 0.70985742E-01 0.43682065E+03</pdfrwt>
<pdfrwt beam="2">  1       21 0.12386574E+00 0.43682065E+03</pdfrwt>
<totfact> 0.74341741E+02</totfact>
</mgrwt>
</event>
<event>
 4    1  0.4949719E-002  0.6046089E+03  0.7818608E-02  0.9895890E-01
         21   -1    0    0  501  502  0.00000000000E+00  0.00000000000E+00  0.15128264404E+04  0.15128264404E+04  0.00000000000E+00 0. -1.
         21   -1    0    0  502  503 -0.00000000000E+00 -0.00000000000E+00 -0.38255872721E+03  0.38255872721E+03  0.00000000000E+00 0.  1.
    9000005    1    1    2  501    0  0.10268089871E+03  0.44159773507E+03 -0.10054881213E+02  0.60469250633E+03  0.40000000000E+03 0.  1.
   -9000005    1    1    2    0  503 -0.10268089871E+03 -0.44159773507E+03  0.11403225944E+04  0.12906926613E+04  0.40000000000E+03 0. -1.
<mgrwt>
<rscale>  2 0.60460890E+03</rscale>
<asrwt>0</asrwt>
<pdfrwt beam="1">  1       21 0.23274253E+00 0.60460890E+03</pdfrwt>
<pdfrwt beam="2">  1       21 0.58855190E-01 0.60460890E+03</pdfrwt>
<totfact> 0.16866945E+02</totfact>
</mgrwt>
</event>
<event>
 4    1  0.4949719E-002  0.4210433E+03  0.7818608E-02  0.1036727E+00
         21   -1    0    0  503  502  0.00000000000E+00  0.00000000000E+00  0.16580078517E+04  0.16580078517E+04  0.00000000000E+00 0.  1.
         21   -1    0    0  501  503 -0.00000000000E+00 -0.00000000000E+00 -0.20935497645E+03  0.20935497645E+03  0.00000000000E+00 0.  1.
    9000005    1    1    2  501    0 -0.53930400557E+02  0.11987047888E+03  0.71230341120E+02  0.42702597264E+03  0.40000000000E+03 0.  1.
   -9000005    1    1    2    0  502  0.53930400557E+02 -0.11987047888E+03  0.13774225342E+04  0.14403368555E+04  0.40000000000E+03 0.  1.
<mgrwt>
<rscale>  2 0.42104325E+03</rscale>
<asrwt>0</asrwt>
<pdfrwt beam="1">  1       21 0.25507812E+00 0.42104325E+03</pdfrwt>
<pdfrwt beam="2">  1       21 0.32208459E-01 0.42104325E+03</pdfrwt>
<totfact> 0.47278580E+02</totfact>
</mgrwt>
</event>
<event>
 4    1  0.4949719E-002  0.4736075E+03  0.7818608E-02  0.1020907E+00
         21   -1    0    0  501  502  0.00000000000E+00  0.00000000000E+00  0.79837316329E+03  0.79837316329E+03  0.00000000000E+00 0. -1.
         21   -1    0    0  502  503 -0.00000000000E+00 -0.00000000000E+00 -0.47698741467E+03  0.47698741467E+03  0.00000000000E+00 0. -1.
    9000005    1    1    2  501    0 -0.21479879274E+03  0.13477944901E+03  0.56949911425E+03  0.74069782122E+03  0.40000000000E+03 0. -1.
   -9000005    1    1    2    0  503  0.21479879274E+03 -0.13477944901E+03 -0.24811336563E+03  0.53466275673E+03  0.40000000000E+03 0. -1.
<mgrwt>
<rscale>  2 0.47360745E+03</rscale>
<asrwt>0</asrwt>
<pdfrwt beam="1">  1       21 0.12282664E+00 0.47360745E+03</pdfrwt>
<pdfrwt beam="2">  1       21 0.73382679E-01 0.47360745E+03</pdfrwt>
<totfact> 0.69351300E+02</totfact>
</mgrwt>
</event>
<event>
 4    1  0.4949719E-002  0.4230137E+03  0.7818608E-02  0.1036090E+00
         21   -1    0    0  501  502  0.00000000000E+00  0.00000000000E+00  0.39351844959E+03  0.39351844959E+03  0.00000000000E+00 0. -1.
         21   -1    0    0  502  503 -0.00000000000E+00 -0.00000000000E+00 -0.46830650507E+03  0.46830650507E+03  0.00000000000E+00 0. -1.
    9000005    1    1    2  501    0 -0.96128349495E+02 -0.98488147324E+02 -0.11079187475E+03  0.43728184761E+03  0.40000000000E+03 0.  1.
   -9000005    1    1    2    0  503  0.96128349495E+02  0.98488147324E+02  0.36003819267E+02  0.42454310705E+03  0.40000000000E+03 0.  1.
<mgrwt>
<rscale>  2 0.42301368E+03</rscale>
<asrwt>0</asrwt>
<pdfrwt beam="1">  1       21 0.60541300E-01 0.42301368E+03</pdfrwt>
<pdfrwt beam="2">  1       21 0.72047155E-01 0.42301368E+03</pdfrwt>
<totfact> 0.39052477E+03</totfact>
</mgrwt>
</event>
<event>
 4    1  0.4949719E-002  0.7592747E+03  0.7818608E-02  0.9620911E-01
         21   -1    0    0  501  502  0.00000000000E+00  0.00000000000E+00  0.17391666525E+04  0.17391666525E+04  0.00000000000E+00 0.  1.
         21   -1    0    0  502  503 -0.00000000000E+00 -0.00000000000E+00 -0.11800872650E+04  0.11800872650E+04  0.00000000000E+00 0. -1.
    9000005    1    1    2  501    0 -0.45745147570E+03 -0.45523212697E+03  0.15173050058E+04  0.16966769352E+04  0.40000000000E+03 0.  1.
   -9000005    1    1    2    0  503  0.45745147570E+03  0.45523212697E+03 -0.95822561822E+03  0.12225769822E+04  0.40000000000E+03 0. -1.
<mgrwt>
<rscale>  2 0.75927475E+03</rscale>
<asrwt>0</asrwt>
<pdfrwt beam="1">  1       21 0.26756410E+00 0.75927475E+03</pdfrwt>
<pdfrwt beam="2">  1       21 0.18155189E+00 0.75927475E+03</pdfrwt>
<totfact> 0.56628534E+00</totfact>
</mgrwt>
</event>
<event>
 4    1  0.4949719E-002  0.4779916E+03  0.7818608E-02  0.1019689E+00
         21   -1    0    0  501  502  0.00000000000E+00  0.00000000000E+00  0.19273239885E+03  0.19273239885E+03  0.00000000000E+00 0. -1.
         21   -1    0    0  502  503 -0.00000000000E+00 -0.00000000000E+00 -0.13553685938E+04  0.13553685938E+04  0.00000000000E+00 0. -1.
    9000005    1    1    2  501    0 -0.24221829481E+03 -0.99026410769E+02 -0.30725387178E+03  0.56822607657E+03  0.40000000000E+03 0. -1.
   -9000005    1    1    2    0  503  0.24221829481E+03  0.99026410769E+02 -0.85538232312E+03  0.97987491604E+03  0.40000000000E+03 0. -1.
<mgrwt>
<rscale>  2 0.47799156E+03</rscale>
<asrwt>0</asrwt>
<pdfrwt beam="1">  1       21 0.29651138E-01 0.47799156E+03</pdfrwt>
<pdfrwt beam="2">  1       21 0.20851825E+00 0.47799156E+03</pdfrwt>
<totfact> 0.10638616E+03</totfact>
</mgrwt>
</event>
<event>
 4    1  0.4949719E-002  0.4135205E+03  0.7818608E-02  0.1039196E+00
         21   -1    0    0  501  502  0.00000000000E+00  0.00000000000E+00  0.71317346190E+03  0.71317346190E+03  0.00000000000E+00 0.  1.
         21   -1    0    0  502  503 -0.00000000000E+00 -0.00000000000E+00 -0.24063923362E+03  0.24063923362E+03  0.00000000000E+00 0. -1.
    9000005    1    1    2  501    0 -0.83777796523E+02  0.63090825749E+02  0.20764067617E+03  0.46272434762E+03  0.40000000000E+03 0. -1.
   -9000005    1    1    2    0  503  0.83777796523E+02 -0.63090825749E+02  0.26489355211E+03  0.49108834789E+03  0.40000000000E+03 0.  1.
<mgrwt>
<rscale>  2 0.41352046E+03</rscale>
<asrwt>0</asrwt>
<pdfrwt beam="1">  1       21 0.10971899E+00 0.41352046E+03</pdfrwt>
<pdfrwt beam="2">  1       21 0.37021421E-01 0.41352046E+03</pdfrwt>
<totfact> 0.40930480E+03</totfact>
</mgrwt>
</event>
<event>
 4    1  0.4949719E-002  0.5805779E+03  0.7818608E-02  0.9946541E-01
         21   -1    0    0  503  502  0.00000000000E+00  0.00000000000E+00  0.10261110298E+04  0.10261110298E+04  0.00000000000E+00 0.  1.
         21   -1    0    0  501  503 -0.00000000000E+00 -0.00000000000E+00 -0.56807220034E+03  0.56807220034E+03  0.00000000000E+00 0. -1.
    9000005    1    1    2  501    0 -0.41962738917E+03  0.31360847305E+02 -0.28862402156E+03  0.64836291867E+03  0.40000000000E+03 0. -1.
   -9000005    1    1    2    0  502  0.41962738917E+03 -0.31360847305E+02  0.74666285104E+03  0.94582031148E+03  0.40000000000E+03 0.  1.
<mgrwt>
<rscale>  2 0.58057786E+03</rscale>
<asrwt>0</asrwt>
<pdfrwt beam="1">  1       21 0.15786323E+00 0.58057786E+03</pdfrwt>
<pdfrwt beam="2">  1       21 0.87395723E-01 0.58057786E+03</pdfrwt>
<totfact> 0.22678802E+02</totfact>
</mgrwt>
</event>
<event>
 4    1  0.4949719E-002  0.4604380E+03  0.7818608E-02  0.1024654E+00
         21   -1    0    0  503  502  0.00000000000E+00  0.00000000000E+00  0.55661307168E+03  0.55661307168E+03  0.00000000000E+00 0. -1.
         21   -1    0    0  501  503 -0.00000000000E+00 -0.00000000000E+00 -0.42534841491E+03  0.42534841491E+03  0.00000000000E+00 0. -1.
    9000005    1    1    2  501    0  0.20399825871E+03  0.10192102071E+03 -0.93117911017E+02  0.46975965064E+03  0.40000000000E+03 0.  1.
   -9000005    1    1    2    0  502 -0.20399825871E+03 -0.10192102071E+03  0.22438256779E+03  0.51220183595E+03  0.40000000000E+03 0.  1.
<mgrwt>
<rscale>  2 0.46043803E+03</rscale>
<asrwt>0</asrwt>
<pdfrwt beam="1">  1       21 0.85632781E-01 0.46043803E+03</pdfrwt>
<pdfrwt beam="2">  1       21 0.65438217E-01 0.46043803E+03</pdfrwt>
<totfact> 0.21801651E+03</totfact>
</mgrwt>
</event>
<event>
 4    1  0.4949719E-002  0.4298952E+03  0.7818608E-02  0.1033893E+00
         21   -1    0    0  501  502  0.00000000000E+00  0.00000000000E+00  0.36236369516E+03  0.36236369516E+03  0.00000000000E+00 0.  1.
         21   -1    0    0  502  503 -0.00000000000E+00 -0.00000000000E+00 -0.12206613792E+04  0.12206613792E+04  0.00000000000E+00 0. -1.
    9000005    1    1    2  501    0 -0.33144306061E+02 -0.15398475688E+03  0.17478292188E+03  0.46406779694E+03  0.40000000000E+03 0.  1.
   -9000005    1    1    2    0  503  0.33144306061E+02  0.15398475688E+03 -0.10330806059E+04  0.11189572774E+04  0.40000000000E+03 0. -1.
<mgrwt>
<rscale>  2 0.42989516E+03</rscale>
<asrwt>0</asrwt>
<pdfrwt beam="1">  1       21 0.55748260E-01 0.42989516E+03</pdfrwt>
<pdfrwt beam="2">  1       21 0.18779406E+00 0.42989516E+03</pdfrwt>
<totfact> 0.40622137E+02</totfact>
</mgrwt>
</event>
<event>
 4    1  0.4949719E-002  0.7909534E+03  0.7818608E-02  0.9573205E-01
         21   -1    0    0  501  502  0.00000000000E+00  0.00000000000E+00  0.11086296718E+04  0.11086296718E+04  0.00000000000E+00 0.  1.
         21   -1    0    0  502  503 -0.00000000000E+00 -0.00000000000E+00 -0.10456545975E+04  0.10456545975E+04  0.00000000000E+00 0. -1.
    9000005    1    1    2  501    0  0.46914156371E+03 -0.49549314337E+03  0.76230410364E+03  0.10985057161E+04  0.40000000000E+03 0.  1.
   -9000005    1    1    2    0  503 -0.46914156371E+03  0.49549314337E+03 -0.69932902933E+03  0.10557785531E+04  0.40000000000E+03 0. -1.
<mgrwt>
<rscale>  2 0.79095339E+03</rscale>
<asrwt>0</asrwt>
<pdfrwt beam="1">  1       21 0.17055841E+00 0.79095339E+03</pdfrwt>
<pdfrwt beam="2">  1       21 0.16086994E+00 0.79095339E+03</pdfrwt>
<totfact> 0.35046385E+01</totfact>
</mgrwt>
</event>
<event>
 4    1  0.4949719E-002  0.5347108E+03  0.7818608E-02  0.1005096E+00
         21   -1    0    0  503  502  0.00000000000E+00  0.00000000000E+00  0.11514090736E+04  0.11514090736E+04  0.00000000000E+00 0.  1.
         21   -1    0    0  501  503 -0.00000000000E+00 -0.00000000000E+00 -0.25995574437E+03  0.25995574437E+03  0.00000000000E+00 0.  1.
    9000005    1    1    2  501    0 -0.34891204993E+03  0.64621861708E+02  0.29641494274E+03  0.61137338990E+03  0.40000000000E+03 0.  1.
   -9000005    1    1    2    0  502  0.34891204993E+03 -0.64621861708E+02  0.59503838647E+03  0.79999142806E+03  0.40000000000E+03 0.  1.
<mgrwt>
<rscale>  2 0.53471077E+03</rscale>
<asrwt>0</asrwt>
<pdfrwt beam="1">  1       21 0.17713985E+00 0.53471077E+03</pdfrwt>
<pdfrwt beam="2">  1       21 0.39993192E-01 0.53471077E+03</pdfrwt>
<totfact> 0.92965922E+02</totfact>
</mgrwt>
</event>
<event>
 4    1  0.4949719E-002  0.4984223E+03  0.7818608E-02  0.1014192E+00
         21   -1    0    0  503  502  0.00000000000E+00  0.00000000000E+00  0.36508127235E+03  0.36508127235E+03  0.00000000000E+00 0.  1.
         21   -1    0    0  501  503 -0.00000000000E+00 -0.00000000000E+00 -0.14334419597E+04  0.14334419597E+04  0.00000000000E+00 0.  1.
    9000005    1    1    2  501    0  0.13727127355E+03 -0.26378292948E+03 -0.11859392807E+04  0.12864201545E+04  0.40000000000E+03 0.  1.
   -9000005    1    1    2    0  502 -0.13727127355E+03  0.26378292948E+03  0.11757859333E+03  0.51210307755E+03  0.40000000000E+03 0.  1.
<mgrwt>
<rscale>  2 0.49842235E+03</rscale>
<asrwt>0</asrwt>
<pdfrwt beam="1">  1       21 0.56166349E-01 0.49842235E+03</pdfrwt>
<pdfrwt beam="2">  1       21 0.22052953E+00 0.49842235E+03</pdfrwt>
<totfact> 0.23435751E+02</totfact>
</mgrwt>
</event>
<event>
 4    1  0.4949719E-002  0.8602890E+03  0.7818608E-02  0.9476631E-01
         21   -1    0    0  501  502  0.00000000000E+00  0.00000000000E+00  0.16056503842E+04  0.16056503842E+04  0.00000000000E+00 0. -1.
         21   -1    0    0  502  503 -0.00000000000E+00 -0.00000000000E+00 -0.10971419772E+04  0.10971419772E+04  0.00000000000E+00 0. -1.
    9000005    1    1    2  501    0  0.75580785192E+03  0.94083075253E+02 -0.77483066423E+03  0.11577822301E+04  0.40000000000E+03 0. -1.
   -9000005    1    1    2    0  503 -0.75580785192E+03 -0.94083075253E+02  0.12833390712E+04  0.15450101313E+04  0.40000000000E+03 0. -1.
<mgrwt>
<rscale>  2 0.86028898E+03</rscale>
<asrwt>0</asrwt>
<pdfrwt beam="1">  1       21 0.24702313E+00 0.86028898E+03</pdfrwt>
<pdfrwt beam="2">  1       21 0.16879107E+00 0.86028898E+03</pdfrwt>
<totfact> 0.90616387E+00</totfact>
</mgrwt>
</event>
<event>
 4    1  0.4949719E-002  0.4646298E+03  0.7818608E-02  0.1023447E+00
         21   -1    0    0  501  502  0.00000000000E+00  0.00000000000E+00  0.72962533231E+03  0.72962533231E+03  0.00000000000E+00 0. -1.
         21   -1    0    0  502  503 -0.00000000000E+00 -0.00000000000E+00 -0.47050554219E+03  0.47050554219E+03  0.00000000000E+00 0. -1.
    9000005    1    1    2  501    0  0.14517714409E+03  0.18655943834E+03  0.49513056565E+03  0.67899565849E+03  0.40000000000E+03 0. -1.
   -9000005    1    1    2    0  503 -0.14517714409E+03 -0.18655943834E+03 -0.23601077554E+03  0.52113521601E+03  0.40000000000E+03 0. -1.
<mgrwt>
<rscale>  2 0.46462977E+03</rscale>
<asrwt>0</asrwt>
<pdfrwt beam="1">  1       21 0.11225005E+00 0.46462977E+03</pdfrwt>
<pdfrwt beam="2">  1       21 0.72385468E-01 0.46462977E+03</pdfrwt>
<totfact> 0.90136648E+02</totfact>
</mgrwt>
</event>
<event>
 4    1  0.4949719E-002  0.4337164E+03  0.7818608E-02  0.1032692E+00
         21   -1    0    0  501  502  0.00000000000E+00  0.00000000000E+00  0.97033092809E+03  0.97033092809E+03  0.00000000000E+00 0.  1.
         21   -1    0    0  502  503 -0.00000000000E+00 -0.00000000000E+00 -0.34407074671E+03  0.34407074671E+03  0.00000000000E+00 0. -1.
    9000005    1    1    2  501    0 -0.16739712591E+03  0.93858549576E+01  0.74736270955E+03  0.86409542972E+03  0.40000000000E+03 0.  1.
   -9000005    1    1    2    0  503  0.16739712591E+03 -0.93858549576E+01 -0.12110252817E+03  0.45030624509E+03  0.40000000000E+03 0. -1.
<mgrwt>
<rscale>  2 0.43371637E+03</rscale>
<asrwt>0</asrwt>
<pdfrwt beam="1">  1       21 0.14928168E+00 0.43371637E+03</pdfrwt>
<pdfrwt beam="2">  1       21 0.52933961E-01 0.43371637E+03</pdfrwt>
<totfact> 0.86842326E+02</totfact>
</mgrwt>
</event>
<event>
 4    1  0.4949719E-002  0.4406620E+03  0.7818608E-02  0.1030544E+00
         21   -1    0    0  501  502  0.00000000000E+00  0.00000000000E+00  0.19814088865E+03  0.19814088865E+03  0.00000000000E+00 0.  1.
         21   -1    0    0  502  503 -0.00000000000E+00 -0.00000000000E+00 -0.11911590362E+04  0.11911590362E+04  0.00000000000E+00 0.  1.
    9000005    1    1    2  501    0 -0.11883689044E+03 -0.14163605507E+03 -0.20405309491E+03  0.48561367790E+03  0.40000000000E+03 0.  1.
   -9000005    1    1    2    0  503  0.11883689044E+03  0.14163605507E+03 -0.78896505260E+03  0.90368624691E+03  0.40000000000E+03 0.  1.
<mgrwt>
<rscale>  2 0.44066198E+03</rscale>
<asrwt>0</asrwt>
<pdfrwt beam="1">  1       21 0.30483213E-01 0.44066198E+03</pdfrwt>
<pdfrwt beam="2">  1       21 0.18325524E+00 0.44066198E+03</pdfrwt>
<totfact> 0.15156353E+03</totfact>
</mgrwt>
</event>
<event>
 4    1  0.4949719E-002  0.5046913E+03  0.7818608E-02  0.1012562E+00
         21   -1    0    0  503  502  0.00000000000E+00  0.00000000000E+00  0.64225327118E+03  0.64225327118E+03  0.00000000000E+00 0. -1.
         21   -1    0    0  501  503 -0.00000000000E+00 -0.00000000000E+00 -0.82459081582E+03  0.82459081582E+03  0.00000000000E+00 0. -1.
    9000005    1    1    2  501    0  0.30761040129E+03 -0.94418458903E+01 -0.61955971592E+03  0.79910421662E+03  0.40000000000E+03 0. -1.
   -9000005    1    1    2    0  502 -0.30761040129E+03  0.94418458903E+01  0.43722217128E+03  0.66773987038E+03  0.40000000000E+03 0. -1.
<mgrwt>
<rscale>  2 0.50469130E+03</rscale>
<asrwt>0</asrwt>
<pdfrwt beam="1">  1       21 0.98808196E-01 0.50469130E+03</pdfrwt>
<pdfrwt beam="2">  1       21 0.12686012E+00 0.50469130E+03</pdfrwt>
<totfact> 0.31332349E+02</totfact>
</mgrwt>
</event>
<event>
 4    1  0.4949719E-002  0.4873943E+03  0.7818608E-02  0.1017123E+00
         21   -1    0    0  503  502  0.00000000000E+00  0.00000000000E+00  0.28723832077E+03  0.28723832077E+03  0.00000000000E+00 0. -1.
         21   -1    0    0  501  503 -0.00000000000E+00 -0.00000000000E+00 -0.12400363994E+04  0.12400363994E+04  0.00000000000E+00 0. -1.
    9000005    1    1    2  501    0  0.24344892515E+03  0.13522491754E+03 -0.91710728908E+03  0.10385754364E+04  0.40000000000E+03 0. -1.
   -9000005    1    1    2    0  502 -0.24344892515E+03 -0.13522491754E+03 -0.35690789562E+02  0.48869928375E+03  0.40000000000E+03 0. -1.
<mgrwt>
<rscale>  2 0.48739425E+03</rscale>
<asrwt>0</asrwt>
<pdfrwt beam="1">  1       21 0.44190511E-01 0.48739425E+03</pdfrwt>
<pdfrwt beam="2">  1       21 0.19077483E+00 0.48739425E+03</pdfrwt>
<totfact> 0.61792268E+02</totfact>
</mgrwt>
</event>
<event>
 4    1  0.4949719E-002  0.9905629E+03  0.7818608E-02  0.9318956E-01
         21   -1    0    0  501  502  0.00000000000E+00  0.00000000000E+00  0.26879931396E+04  0.26879931396E+04  0.00000000000E+00 0.  1.
         21   -1    0    0  502  503 -0.00000000000E+00 -0.00000000000E+00 -0.47244159169E+03  0.47244159169E+03  0.00000000000E+00 0. -1.
    9000005    1    1    2  501    0 -0.21714963855E+03 -0.87980732952E+03  0.18612280229E+04  0.21084080857E+04  0.40000000000E+03 0.  1.
   -9000005    1    1    2    0  503  0.21714963855E+03  0.87980732952E+03  0.35432352496E+03  0.10520266455E+04  0.40000000000E+03 0. -1.
<mgrwt>
<rscale>  2 0.99056292E+03</rscale>
<asrwt>0</asrwt>
<pdfrwt beam="1">  1       21 0.41353740E+00 0.99056292E+03</pdfrwt>
<pdfrwt beam="2">  1       21 0.72683323E-01 0.99056292E+03</pdfrwt>
<totfact> 0.66224171E+00</totfact>
</mgrwt>
</event>
<event>
 4    1  0.4949719E-002  0.4559586E+03  0.7818608E-02  0.1025960E+00
         21   -1    0    0  503  502  0.00000000000E+00  0.00000000000E+00  0.78490711210E+03  0.78490711210E+03  0.00000000000E+00 0. -1.
         21   -1    0    0  501  503 -0.00000000000E+00 -0.00000000000E+00 -0.13182930183E+04  0.13182930183E+04  0.00000000000E+00 0. -1.
    9000005    1    1    2  501    0 -0.55318664990E+02  0.21175011732E+03 -0.12067323414E+04  0.12900004693E+04  0.40000000000E+03 0. -1.
   -9000005    1    1    2    0  502  0.55318664990E+02 -0.21175011732E+03  0.67334643528E+03  0.81319966108E+03  0.40000000000E+03 0. -1.
<mgrwt>
<rscale>  2 0.45595862E+03</rscale>
<asrwt>0</asrwt>
<pdfrwt beam="1">  1       21 0.12075494E+00 0.45595862E+03</pdfrwt>
<pdfrwt beam="2">  1       21 0.20281431E+00 0.45595862E+03</pdfrwt>
<totfact> 0.52259247E+01</totfact>
</mgrwt>
</event>
<event>
 4    1  0.4949719E-002  0.7704537E+03  0.7818608E-02  0.9603797E-01
         21   -1    0    0  501  502  0.00000000000E+00  0.00000000000E+00  0.16433033675E+04  0.16433033675E+04  0.00000000000E+00 0.  1.
         21   -1    0    0  502  503 -0.00000000000E+00 -0.00000000000E+00 -0.94265465539E+03  0.94265465539E+03  0.00000000000E+00 0. -1.
    9000005    1    1    2  501    0  0.27551342575E+03  0.59807293505E+03  0.13657883371E+04  0.15681124530E+04  0.40000000000E+03 0.  1.
   -9000005    1    1    2    0  503 -0.27551342575E+03 -0.59807293505E+03 -0.66513962501E+03  0.10178455699E+04  0.40000000000E+03 0. -1.
<mgrwt>
<rscale>  2 0.77045369E+03</rscale>
<asrwt>0</asrwt>
<pdfrwt beam="1">  1       21 0.25281590E+00 0.77045369E+03</pdfrwt>
<pdfrwt beam="2">  1       21 0.14502379E+00 0.77045369E+03</pdfrwt>
<totfact> 0.13222706E+01</totfact>
</mgrwt>
</event>
<event>
 4    1  0.4949719E-002  0.5482770E+03  0.7818608E-02  0.1001894E+00
         21   -1    0    0  501  502  0.00000000000E+00  0.00000000000E+00  0.65407632738E+03  0.65407632738E+03  0.00000000000E+00 0. -1.
         21   -1    0    0  502  503 -0.00000000000E+00 -0.00000000000E+00 -0.49833559373E+03  0.49833559373E+03  0.00000000000E+00 0. -1.
    9000005    1    1    2  501    0  0.36559296085E+03  0.83363574924E+02 -0.82794695281E+02  0.55449315614E+03  0.40000000000E+03 0. -1.
   -9000005    1    1    2    0  503 -0.36559296085E+03 -0.83363574924E+02  0.23853542893E+03  0.59791876497E+03  0.40000000000E+03 0. -1.
<mgrwt>
<rscale>  2 0.54827703E+03</rscale>
<asrwt>0</asrwt>
<pdfrwt beam="1">  1       21 0.10062713E+00 0.54827703E+03</pdfrwt>
<pdfrwt beam="2">  1       21 0.76667014E-01 0.54827703E+03</pdfrwt>
<totfact> 0.10045582E+03</totfact>
</mgrwt>
</event>
<event>
 4    1  0.4949719E-002  0.4147201E+03  0.7818608E-02  0.1038799E+00
         21   -1    0    0  501  502  0.00000000000E+00  0.00000000000E+00  0.67060176804E+03  0.67060176804E+03  0.00000000000E+00 0. -1.
         21   -1    0    0  502  503 -0.00000000000E+00 -0.00000000000E+00 -0.43474867551E+03  0.43474867551E+03  0.00000000000E+00 0. -1.
    9000005    1    1    2  501    0  0.29208521637E+02 -0.10554442780E+03  0.47183761927E+03  0.62819065811E+03  0.40000000000E+03 0. -1.
   -9000005    1    1    2    0  503 -0.29208521637E+02  0.10554442780E+03 -0.23598452675E+03  0.47715978544E+03  0.40000000000E+03 0. -1.
<mgrwt>
<rscale>  2 0.41472010E+03</rscale>
<asrwt>0</asrwt>
<pdfrwt beam="1">  1       21 0.10316950E+00 0.41472010E+03</pdfrwt>
<pdfrwt beam="2">  1       21 0.66884411E-01 0.41472010E+03</pdfrwt>
<totfact> 0.13541094E+03</totfact>
</mgrwt>
</event>
<event>
 4    1  0.4949719E-002  0.4903721E+03  0.7818608E-02  0.1016323E+00
         21   -1    0    0  501  502  0.00000000000E+00  0.00000000000E+00  0.37551624646E+03  0.37551624646E+03  0.00000000000E+00 0.  1.
         21   -1    0    0  502  503 -0.00000000000E+00 -0.00000000000E+00 -0.18629978320E+04  0.18629978320E+04  0.00000000000E+00 0.  1.
    9000005    1    1    2  501    0  0.17390561242E+03  0.22410185337E+03  0.16297868258E+03  0.51674641139E+03  0.40000000000E+03 0.  1.
   -9000005    1    1    2    0  503 -0.17390561242E+03 -0.22410185337E+03 -0.16504602681E+04  0.17217676671E+04  0.40000000000E+03 0.  1.
<mgrwt>
<rscale>  2 0.49037211E+03</rscale>
<asrwt>0</asrwt>
<pdfrwt beam="1">  1       21 0.57771731E-01 0.49037211E+03</pdfrwt>
<pdfrwt beam="2">  1       21 0.28661505E+00 0.49037211E+03</pdfrwt>
<totfact> 0.86494743E+01</totfact>
</mgrwt>
</event>
<event>
 4    1  0.4949719E-002  0.4488046E+03  0.7818608E-02  0.1028079E+00
         21   -1    0    0  503  502  0.00000000000E+00  0.00000000000E+00  0.23994617970E+03  0.23994617970E+03  0.00000000000E+00 0. -1.
         21   -1    0    0  501  503 -0.00000000000E+00 -0.00000000000E+00 -0.84409404724E+03  0.84409404724E+03  0.00000000000E+00 0. -1.
    9000005    1    1    2  501    0  0.19839802597E+03 -0.45429213456E+02 -0.26192001685E+03  0.51964188185E+03  0.40000000000E+03 0. -1.
   -9000005    1    1    2    0  502 -0.19839802597E+03  0.45429213456E+02 -0.34222785069E+03  0.56439834509E+03  0.40000000000E+03 0. -1.
<mgrwt>
<rscale>  2 0.44880462E+03</rscale>
<asrwt>0</asrwt>
<pdfrwt beam="1">  1       21 0.36914796E-01 0.44880462E+03</pdfrwt>
<pdfrwt beam="2">  1       21 0.12986062E+00 0.44880462E+03</pdfrwt>
<totfact> 0.26515912E+03</totfact>
</mgrwt>
</event>
<event>
 4    1  0.4949719E-002  0.4830116E+03  0.7818608E-02  0.1018311E+00
         21   -1    0    0  501  502  0.00000000000E+00  0.00000000000E+00  0.41975022356E+03  0.41975022356E+03  0.00000000000E+00 0.  1.
         21   -1    0    0  502  503 -0.00000000000E+00 -0.00000000000E+00 -0.69689638472E+03  0.69689638472E+03  0.00000000000E+00 0.  1.
    9000005    1    1    2  501    0 -0.27052853729E+03 -0.10699120045E+02  0.11264369838E+03  0.49597254304E+03  0.40000000000E+03 0.  1.
   -9000005    1    1    2    0  503  0.27052853729E+03  0.10699120045E+02 -0.38978985954E+03  0.62067406524E+03  0.40000000000E+03 0.  1.
<mgrwt>
<rscale>  2 0.48301155E+03</rscale>
<asrwt>0</asrwt>
<pdfrwt beam="1">  1       21 0.64576958E-01 0.48301155E+03</pdfrwt>
<pdfrwt beam="2">  1       21 0.10721483E+00 0.48301155E+03</pdfrwt>
<totfact> 0.12959234E+03</totfact>
</mgrwt>
</event>
<event>
 4    1  0.4949719E-002  0.4842356E+03  0.7818608E-02  0.1017978E+00
         21   -1    0    0  503  502  0.00000000000E+00  0.00000000000E+00  0.21660918500E+03  0.21660918500E+03  0.00000000000E+00 0.  1.
         21   -1    0    0  501  503 -0.00000000000E+00 -0.00000000000E+00 -0.11057100373E+04  0.11057100373E+04  0.00000000000E+00 0.  1.
    9000005    1    1    2  501    0  0.26316344120E+03  0.72312477038E+02 -0.54029689017E+03  0.72553760802E+03  0.40000000000E+03 0.  1.
   -9000005    1    1    2    0  502 -0.26316344120E+03 -0.72312477038E+02 -0.34880396209E+03  0.59678161424E+03  0.40000000000E+03 0.  1.
<mgrwt>
<rscale>  2 0.48423557E+03</rscale>
<asrwt>0</asrwt>
<pdfrwt beam="1">  1       21 0.33324490E-01 0.48423557E+03</pdfrwt>
<pdfrwt beam="2">  1       21 0.17010924E+00 0.48423557E+03</pdfrwt>
<totfact> 0.15453296E+03</totfact>
</mgrwt>
</event>
<event>
 4    1  0.4949719E-002  0.5889933E+03  0.7818608E-02  0.9928508E-01
         21   -1    0    0  503  502  0.00000000000E+00  0.00000000000E+00  0.10040058960E+04  0.10040058960E+04  0.00000000000E+00 0. -1.
         21   -1    0    0  501  503 -0.00000000000E+00 -0.00000000000E+00 -0.39827800356E+03  0.39827800356E+03  0.00000000000E+00 0.  1.
    9000005    1    1    2  501    0  0.35831138130E+03 -0.24192158754E+03  0.47699513783E+02  0.59092160572E+03  0.40000000000E+03 0.  1.
   -9000005    1    1    2    0  502 -0.35831138130E+03  0.24192158754E+03  0.55802837866E+03  0.81136229384E+03  0.40000000000E+03 0. -1.
<mgrwt>
<rscale>  2 0.58899329E+03</rscale>
<asrwt>0</asrwt>
<pdfrwt beam="1">  1       21 0.15446244E+00 0.58899329E+03</pdfrwt>
<pdfrwt beam="2">  1       21 0.61273539E-01 0.58899329E+03</pdfrwt>
<totfact> 0.54103702E+02</totfact>
</mgrwt>
</event>
<event>
 4    1  0.4949719E-002  0.4674145E+03  0.7818608E-02  0.1022652E+00
         21   -1    0    0  501  502  0.00000000000E+00  0.00000000000E+00  0.68090660408E+03  0.68090660408E+03  0.00000000000E+00 0. -1.
         21   -1    0    0  502  503 -0.00000000000E+00 -0.00000000000E+00 -0.54180868248E+03  0.54180868248E+03  0.00000000000E+00 0. -1.
    9000005    1    1    2  501    0 -0.77777313205E+02 -0.22896950768E+03  0.45995554349E+03  0.65577088063E+03  0.40000000000E+03 0. -1.
   -9000005    1    1    2    0  503  0.77777313205E+02  0.22896950768E+03 -0.32085762189E+03  0.56694440594E+03  0.40000000000E+03 0. -1.
<mgrwt>
<rscale>  2 0.46741453E+03</rscale>
<asrwt>0</asrwt>
<pdfrwt beam="1">  1       21 0.10475486E+00 0.46741453E+03</pdfrwt>
<pdfrwt beam="2">  1       21 0.83355182E-01 0.46741453E+03</pdfrwt>
<totfact> 0.77246444E+02</totfact>
</mgrwt>
</event>
<event>
 4    1  0.4949719E-002  0.4899859E+03  0.7818608E-02  0.1016426E+00
         21   -1    0    0  501  502  0.00000000000E+00  0.00000000000E+00  0.39904245200E+03  0.39904245200E+03  0.00000000000E+00 0.  1.
         21   -1    0    0  502  503 -0.00000000000E+00 -0.00000000000E+00 -0.61849862378E+03  0.61849862378E+03  0.00000000000E+00 0.  1.
    9000005    1    1    2  501    0  0.87164741992E+02  0.26923685254E+03 -0.19368588182E+03  0.52687797053E+03  0.40000000000E+03 0.  1.
   -9000005    1    1    2    0  503 -0.87164741992E+02 -0.26923685254E+03 -0.25770289963E+02  0.49066310525E+03  0.40000000000E+03 0.  1.
<mgrwt>
<rscale>  2 0.48998589E+03</rscale>
<asrwt>0</asrwt>
<pdfrwt beam="1">  1       21 0.61391147E-01 0.48998589E+03</pdfrwt>
<pdfrwt beam="2">  1       21 0.95153634E-01 0.48998589E+03</pdfrwt>
<totfact> 0.19349359E+03</totfact>
</mgrwt>
</event>
<event>
 4    1  0.4949719E-002  0.4807818E+03  0.7818608E-02  0.1018921E+00
         21   -1    0    0  501  502  0.00000000000E+00  0.00000000000E+00  0.46895432906E+03  0.46895432906E+03  0.00000000000E+00 0.  1.
         21   -1    0    0  502  503 -0.00000000000E+00 -0.00000000000E+00 -0.85688879757E+03  0.85688879757E+03  0.00000000000E+00 0.  1.
    9000005    1    1    2  501    0 -0.89346391245E+02 -0.25133314776E+03  0.23808814701E+03  0.53650451493E+03  0.40000000000E+03 0.  1.
   -9000005    1    1    2    0  503  0.89346391245E+02  0.25133314776E+03 -0.62602261551E+03  0.78933861170E+03  0.40000000000E+03 0.  1.
<mgrwt>
<rscale>  2 0.48078179E+03</rscale>
<asrwt>0</asrwt>
<pdfrwt beam="1">  1       21 0.72146820E-01 0.48078179E+03</pdfrwt>
<pdfrwt beam="2">  1       21 0.13182904E+00 0.48078179E+03</pdfrwt>
<totfact> 0.59846934E+02</totfact>
</mgrwt>
</event>
<event>
 4    1  0.4949719E-002  0.6173264E+03  0.7818608E-02  0.9870097E-01
         21   -1    0    0  503  502  0.00000000000E+00  0.00000000000E+00  0.18162123239E+04  0.18162123239E+04  0.00000000000E+00 0. -1.
         21   -1    0    0  501  503 -0.00000000000E+00 -0.00000000000E+00 -0.23522236668E+03  0.23522236668E+03  0.00000000000E+00 0. -1.
    9000005    1    1    2  501    0  0.57276982582E+02  0.46670252002E+03  0.45347277097E+03  0.76598266882E+03  0.40000000000E+03 0. -1.
   -9000005    1    1    2    0  502 -0.57276982582E+02 -0.46670252002E+03  0.11275171862E+04  0.12854520217E+04  0.40000000000E+03 0. -1.
<mgrwt>
<rscale>  2 0.61732641E+03</rscale>
<asrwt>0</asrwt>
<pdfrwt beam="1">  1       21 0.27941727E+00 0.61732641E+03</pdfrwt>
<pdfrwt beam="2">  1       21 0.36188058E-01 0.61732641E+03</pdfrwt>
<totfact> 0.24121679E+02</totfact>
</mgrwt>
</event>
<event>
 4    1  0.4949719E-002  0.4773448E+03  0.7818608E-02  0.1019867E+00
         21   -1    0    0  503  502  0.00000000000E+00  0.00000000000E+00  0.13316767533E+03  0.13316767533E+03  0.00000000000E+00 0.  1.
         21   -1    0    0  501  503 -0.00000000000E+00 -0.00000000000E+00 -0.18270463588E+04  0.18270463588E+04  0.00000000000E+00 0.  1.
    9000005    1    1    2  501    0  0.21648145362E+03 -0.14489263190E+03 -0.10938837473E+04  0.11934989515E+04  0.40000000000E+03 0.  1.
   -9000005    1    1    2    0  502 -0.21648145362E+03  0.14489263190E+03 -0.59999493608E+03  0.76671508259E+03  0.40000000000E+03 0.  1.
<mgrwt>
<rscale>  2 0.47734484E+03</rscale>
<asrwt>0</asrwt>
<pdfrwt beam="1">  1       21 0.20487336E-01 0.47734484E+03</pdfrwt>
<pdfrwt beam="2">  1       21 0.28108404E+00 0.47734484E+03</pdfrwt>
<totfact> 0.77202977E+02</totfact>
</mgrwt>
</event>
<event>
 4    1  0.4949719E-002  0.4195415E+03  0.7818608E-02  0.1037216E+00
         21   -1    0    0  501  502  0.00000000000E+00  0.00000000000E+00  0.15346040786E+04  0.15346040786E+04  0.00000000000E+00 0.  1.
         21   -1    0    0  502  503 -0.00000000000E+00 -0.00000000000E+00 -0.16760108798E+03  0.16760108798E+03  0.00000000000E+00 0.  1.
    9000005    1    1    2  501    0  0.11205706900E+03 -0.58806820819E+02  0.11616762575E+04  0.12351140660E+04  0.40000000000E+03 0.  1.
   -9000005    1    1    2    0  503 -0.11205706900E+03  0.58806820819E+02  0.20532673316E+03  0.46709110058E+03  0.40000000000E+03 0.  1.
<mgrwt>
<rscale>  2 0.41954145E+03</rscale>
<asrwt>0</asrwt>
<pdfrwt beam="1">  1       21 0.23609293E+00 0.41954145E+03</pdfrwt>
<pdfrwt beam="2">  1       21 0.25784784E-01 0.41954145E+03</pdfrwt>
<totfact> 0.96074421E+02</totfact>
</mgrwt>
</event>
<event>
 4    1  0.4949719E-002  0.4115744E+03  0.7818608E-02  0.1039844E+00
         21   -1    0    0  503  502  0.00000000000E+00  0.00000000000E+00  0.12794866224E+04  0.12794866224E+04  0.00000000000E+00 0. -1.
         21   -1    0    0  501  503 -0.00000000000E+00 -0.00000000000E+00 -0.13293625429E+03  0.13293625429E+03  0.00000000000E+00 0. -1.
    9000005    1    1    2  501    0 -0.93548413011E+02  0.25341029162E+02  0.52807776967E+03  0.66952192209E+03  0.40000000000E+03 0.  1.
   -9000005    1    1    2    0  502  0.93548413011E+02 -0.25341029162E+02  0.61847259849E+03  0.74290095465E+03  0.40000000000E+03 0.  1.
<mgrwt>
<rscale>  2 0.41157438E+03</rscale>
<asrwt>0</asrwt>
<pdfrwt beam="1">  1       21 0.19684409E+00 0.41157438E+03</pdfrwt>
<pdfrwt beam="2">  1       21 0.20451732E-01 0.41157438E+03</pdfrwt>
<totfact> 0.26943716E+03</totfact>
</mgrwt>
</event>
<event>
 4    1  0.4949719E-002  0.4462219E+03  0.7818608E-02  0.1028855E+00
         21   -1    0    0  501  502  0.00000000000E+00  0.00000000000E+00  0.13874710768E+04  0.13874710768E+04  0.00000000000E+00 0.  1.
         21   -1    0    0  502  503 -0.00000000000E+00 -0.00000000000E+00 -0.15194203640E+03  0.15194203640E+03  0.00000000000E+00 0.  1.
    9000005    1    1    2  501    0  0.19356235811E+03  0.40590519734E+02  0.79910281283E+03  0.91524820800E+03  0.40000000000E+03 0.  1.
   -9000005    1    1    2    0  503 -0.19356235811E+03 -0.40590519734E+02  0.43642622757E+03  0.62416490520E+03  0.40000000000E+03 0.  1.
<mgrwt>
<rscale>  2 0.44622189E+03</rscale>
<asrwt>0</asrwt>
<pdfrwt beam="1">  1       21 0.21345708E+00 0.44622189E+03</pdfrwt>
<pdfrwt beam="2">  1       21 0.23375699E-01 0.44622189E+03</pdfrwt>
<totfact> 0.15963029E+03</totfact>
</mgrwt>
</event>
<event>
 4    1  0.4949719E-002  0.4613943E+03  0.7818608E-02  0.1024378E+00
         21   -1    0    0  501  502  0.00000000000E+00  0.00000000000E+00  0.17289069156E+04  0.17289069156E+04  0.00000000000E+00 0. -1.
         21   -1    0    0  502  503 -0.00000000000E+00 -0.00000000000E+00 -0.16569454029E+03  0.16569454029E+03  0.00000000000E+00 0. -1.
    9000005    1    1    2  501    0  0.18897467375E+03 -0.13104677930E+03  0.12617206951E+04  0.13434373071E+04  0.40000000000E+03 0. -1.
   -9000005    1    1    2    0  503 -0.18897467375E+03  0.13104677930E+03  0.30149168022E+03  0.55116414880E+03  0.40000000000E+03 0. -1.
<mgrwt>
<rscale>  2 0.46139428E+03</rscale>
<asrwt>0</asrwt>
<pdfrwt beam="1">  1       21 0.26598567E+00 0.46139428E+03</pdfrwt>
<pdfrwt beam="2">  1       21 0.25491469E-01 0.46139428E+03</pdfrwt>
<totfact> 0.63017733E+02</totfact>
</mgrwt>
</event>
<event>
 4    1  0.4949719E-002  0.4991763E+03  0.7818608E-02  0.1013994E+00
         21   -1    0    0  503  502  0.00000000000E+00  0.00000000000E+00  0.51469520238E+03  0.51469520238E+03  0.00000000000E+00 0.  1.
         21   -1    0    0  501  503 -0.00000000000E+00 -0.00000000000E+00 -0.48569012139E+03  0.48569012139E+03  0.00000000000E+00 0.  1.
    9000005    1    1    2  501    0  0.14032913115E+03  0.26359959676E+03  0.42893392109E+02  0.50101582365E+03  0.40000000000E+03 0.  1.
   -9000005    1    1    2    0  502 -0.14032913115E+03 -0.26359959676E+03 -0.13888311120E+02  0.49936950012E+03  0.40000000000E+03 0.  1.
<mgrwt>
<rscale>  2 0.49917633E+03</rscale>
<asrwt>0</asrwt>
<pdfrwt beam="1">  1       21 0.79183878E-01 0.49917633E+03</pdfrwt>
<pdfrwt beam="2">  1       21 0.74721557E-01 0.49917633E+03</pdfrwt>
<totfact> 0.19134238E+03</totfact>
</mgrwt>
</event>
<event>
 4    1  0.4949719E-002  0.5306804E+03  0.7818608E-02  0.1006067E+00
         21   -1    0    0  503  502  0.00000000000E+00  0.00000000000E+00  0.36925084833E+03  0.36925084833E+03  0.00000000000E+00 0. -1.
         21   -1    0    0  501  503 -0.00000000000E+00 -0.00000000000E+00 -0.80454220525E+03  0.80454220525E+03  0.00000000000E+00 0. -1.
    9000005    1    1    2  501    0  0.22928888576E+03 -0.26277043880E+03 -0.35151395409E+03  0.63654045948E+03  0.40000000000E+03 0. -1.
   -9000005    1    1    2    0  502 -0.22928888576E+03  0.26277043880E+03 -0.83777402842E+02  0.53725259410E+03  0.40000000000E+03 0. -1.
<mgrwt>
<rscale>  2 0.53068041E+03</rscale>
<asrwt>0</asrwt>
<pdfrwt beam="1">  1       21 0.56807824E-01 0.53068041E+03</pdfrwt>
<pdfrwt beam="2">  1       21 0.12377572E+00 0.53068041E+03</pdfrwt>
<totfact> 0.11765374E+03</totfact>
</mgrwt>
</event>
<event>
 4    1  0.4949719E-002  0.6532309E+03  0.7818608E-02  0.9800735E-01
         21   -1    0    0  501  502  0.00000000000E+00  0.00000000000E+00  0.14248330294E+03  0.14248330294E+03  0.00000000000E+00 0.  1.
         21   -1    0    0  502  503 -0.00000000000E+00 -0.00000000000E+00 -0.31595145055E+04  0.31595145055E+04  0.00000000000E+00 0.  1.
    9000005    1    1    2  501    0  0.44752025620E+03 -0.25775228701E+03 -0.11315623521E+04  0.13065771994E+04  0.40000000000E+03 0.  1.
   -9000005    1    1    2    0  503 -0.44752025620E+03  0.25775228701E+03 -0.18854688504E+04  0.19954206090E+04  0.40000000000E+03 0.  1.
<mgrwt>
<rscale>  2 0.65323091E+03</rscale>
<asrwt>0</asrwt>
<pdfrwt beam="1">  1       21 0.21920509E-01 0.65323091E+03</pdfrwt>
<pdfrwt beam="2">  1       21 0.48607913E+00 0.65323091E+03</pdfrwt>
<totfact> 0.29872412E+01</totfact>
</mgrwt>
</event>
<event>
 4    1  0.4949719E-002  0.4912464E+03  0.7818608E-02  0.1016089E+00
         21   -1    0    0  501  502  0.00000000000E+00  0.00000000000E+00  0.53261291121E+03  0.53261291121E+03  0.00000000000E+00 0.  1.
         21   -1    0    0  502  503 -0.00000000000E+00 -0.00000000000E+00 -0.54077527894E+03  0.54077527894E+03  0.00000000000E+00 0.  1.
    9000005    1    1    2  501    0 -0.22029412326E+03  0.18108988405E+03  0.21202885623E+03  0.53505072911E+03  0.40000000000E+03 0.  1.
   -9000005    1    1    2    0  503  0.22029412326E+03 -0.18108988405E+03 -0.22019122396E+03  0.53833746104E+03  0.40000000000E+03 0.  1.
<mgrwt>
<rscale>  2 0.49124642E+03</rscale>
<asrwt>0</asrwt>
<pdfrwt beam="1">  1       21 0.81940448E-01 0.49124642E+03</pdfrwt>
<pdfrwt beam="2">  1       21 0.83196196E-01 0.49124642E+03</pdfrwt>
<totfact> 0.13829659E+03</totfact>
</mgrwt>
</event>
<event>
 4    1  0.4949719E-002  0.5248833E+03  0.7818608E-02  0.1007481E+00
         21   -1    0    0  501  502  0.00000000000E+00  0.00000000000E+00  0.49831575462E+03  0.49831575462E+03  0.00000000000E+00 0. -1.
         21   -1    0    0  502  503 -0.00000000000E+00 -0.00000000000E+00 -0.99687107989E+03  0.99687107989E+03  0.00000000000E+00 0. -1.
    9000005    1    1    2  501    0 -0.11162334448E+03 -0.32100262713E+03  0.24965200791E+03  0.58123023210E+03  0.40000000000E+03 0. -1.
   -9000005    1    1    2    0  503  0.11162334448E+03  0.32100262713E+03 -0.74820733317E+03  0.91395660240E+03  0.40000000000E+03 0. -1.
<mgrwt>
<rscale>  2 0.52488328E+03</rscale>
<asrwt>0</asrwt>
<pdfrwt beam="1">  1       21 0.76663963E-01 0.52488328E+03</pdfrwt>
<pdfrwt beam="2">  1       21 0.15336478E+00 0.52488328E+03</pdfrwt>
<totfact> 0.34105660E+02</totfact>
</mgrwt>
</event>
<event>
 4    1  0.4949719E-002  0.4265151E+03  0.7818608E-02  0.1034967E+00
         21   -1    0    0  503  502  0.00000000000E+00  0.00000000000E+00  0.40503890495E+03  0.40503890495E+03  0.00000000000E+00 0.  1.
         21   -1    0    0  501  503 -0.00000000000E+00 -0.00000000000E+00 -0.10438715196E+04  0.10438715196E+04  0.00000000000E+00 0.  1.
    9000005    1    1    2  501    0 -0.14390975855E+03  0.34714419851E+02 -0.86624608813E+03  0.96555548508E+03  0.40000000000E+03 0.  1.
   -9000005    1    1    2    0  502  0.14390975855E+03 -0.34714419851E+02  0.22741347351E+03  0.48335493945E+03  0.40000000000E+03 0.  1.
<mgrwt>
<rscale>  2 0.42651508E+03</rscale>
<asrwt>0</asrwt>
<pdfrwt beam="1">  1       21 0.62313678E-01 0.42651508E+03</pdfrwt>
<pdfrwt beam="2">  1       21 0.16059562E+00 0.42651508E+03</pdfrwt>
<totfact> 0.50022086E+02</totfact>
</mgrwt>
</event>
<event>
 4    1  0.4949719E-002  0.4548756E+03  0.7818608E-02  0.1026278E+00
         21   -1    0    0  501  502  0.00000000000E+00  0.00000000000E+00  0.41369056248E+03  0.41369056248E+03  0.00000000000E+00 0. -1.
         21   -1    0    0  502  503 -0.00000000000E+00 -0.00000000000E+00 -0.85580059040E+03  0.85580059040E+03  0.00000000000E+00 0. -1.
    9000005    1    1    2  501    0  0.10391318666E+03  0.19003655072E+03  0.18812885873E+03  0.49224415533E+03  0.40000000000E+03 0. -1.
   -9000005    1    1    2    0  503 -0.10391318666E+03 -0.19003655072E+03 -0.63023888665E+03  0.77724699756E+03  0.40000000000E+03 0. -1.
<mgrwt>
<rscale>  2 0.45487563E+03</rscale>
<asrwt>0</asrwt>
<pdfrwt beam="1">  1       21 0.63644703E-01 0.45487563E+03</pdfrwt>
<pdfrwt beam="2">  1       21 0.13166163E+00 0.45487563E+03</pdfrwt>
<totfact> 0.80405949E+02</totfact>
</mgrwt>
</event>
<event>
 4    1  0.4949719E-002  0.5487553E+03  0.7818608E-02  0.1001782E+00
         21   -1    0    0  503  502  0.00000000000E+00  0.00000000000E+00  0.52382267641E+03  0.52382267641E+03  0.00000000000E+00 0.  1.
         21   -1    0    0  501  503 -0.00000000000E+00 -0.00000000000E+00 -0.59386769104E+03  0.59386769104E+03  0.00000000000E+00 0. -1.
    9000005    1    1    2  501    0 -0.32393340894E+03  0.19026165693E+03 -0.13496369109E+03  0.56510844042E+03  0.40000000000E+03 0. -1.
   -9000005    1    1    2    0  502  0.32393340894E+03 -0.19026165693E+03  0.64918676456E+02  0.55258192703E+03  0.40000000000E+03 0.  1.
<mgrwt>
<rscale>  2 0.54875527E+03</rscale>
<asrwt>0</asrwt>
<pdfrwt beam="1">  1       21 0.80588105E-01 0.54875527E+03</pdfrwt>
<pdfrwt beam="2">  1       21 0.91364260E-01 0.54875527E+03</pdfrwt>
<totfact> 0.11300293E+03</totfact>
</mgrwt>
</event>
<event>
 4    1  0.4949719E-002  0.4603345E+03  0.7818608E-02  0.1024684E+00
         21   -1    0    0  501  502  0.00000000000E+00  0.00000000000E+00  0.26441337301E+03  0.26441337301E+03  0.00000000000E+00 0. -1.
         21   -1    0    0  502  503 -0.00000000000E+00 -0.00000000000E+00 -0.85728233286E+03  0.85728233286E+03  0.00000000000E+00 0.  1.
    9000005    1    1    2  501    0  0.70670016673E+02  0.21659550782E+03 -0.43959315405E+03  0.63651394828E+03  0.40000000000E+03 0. -1.
   -9000005    1    1    2    0  503 -0.70670016673E+02 -0.21659550782E+03 -0.15327580579E+03  0.48518175760E+03  0.40000000000E+03 0.  1.
<mgrwt>
<rscale>  2 0.46033451E+03</rscale>
<asrwt>0</asrwt>
<pdfrwt beam="1">  1       21 0.40678981E-01 0.46033451E+03</pdfrwt>
<pdfrwt beam="2">  1       21 0.13188959E+00 0.46033451E+03</pdfrwt>
<totfact> 0.20778700E+03</totfact>
</mgrwt>
</event>
<event>
 4    1  0.4949719E-002  0.4741551E+03  0.7818608E-02  0.1020754E+00
         21   -1    0    0  503  502  0.00000000000E+00  0.00000000000E+00  0.81090039448E+03  0.81090039448E+03  0.00000000000E+00 0. -1.
         21   -1    0    0  501  503 -0.00000000000E+00 -0.00000000000E+00 -0.27725786182E+03  0.27725786182E+03  0.00000000000E+00 0. -1.
    9000005    1    1    2  501    0 -0.24190286041E+03 -0.79411016543E+02  0.26948922101E+03  0.54538751696E+03  0.40000000000E+03 0. -1.
   -9000005    1    1    2    0  502  0.24190286041E+03  0.79411016543E+02  0.26415331166E+03  0.54277073934E+03  0.40000000000E+03 0. -1.
<mgrwt>
<rscale>  2 0.47415515E+03</rscale>
<asrwt>0</asrwt>
<pdfrwt beam="1">  1       21 0.12475391E+00 0.47415515E+03</pdfrwt>
<pdfrwt beam="2">  1       21 0.42655056E-01 0.47415515E+03</pdfrwt>
<totfact> 0.21638397E+03</totfact>
</mgrwt>
</event>
<event>
 4    1  0.4949719E-002  0.4437226E+03  0.7818608E-02  0.1029611E+00
         21   -1    0    0  503  502  0.00000000000E+00  0.00000000000E+00  0.25565539807E+03  0.25565539807E+03  0.00000000000E+00 0.  1.
         21   -1    0    0  501  503 -0.00000000000E+00 -0.00000000000E+00 -0.10004095439E+04  0.10004095439E+04  0.00000000000E+00 0.  1.
    9000005    1    1    2  501    0 -0.17125158698E+03 -0.86963528187E+02 -0.67368736731E+03  0.80668731870E+03  0.40000000000E+03 0.  1.
   -9000005    1    1    2    0  502  0.17125158698E+03  0.86963528187E+02 -0.71066778516E+02  0.44937762326E+03  0.40000000000E+03 0.  1.
<mgrwt>
<rscale>  2 0.44372262E+03</rscale>
<asrwt>0</asrwt>
<pdfrwt beam="1">  1       21 0.39331599E-01 0.44372262E+03</pdfrwt>
<pdfrwt beam="2">  1       21 0.15390916E+00 0.44372262E+03</pdfrwt>
<totfact> 0.14840533E+03</totfact>
</mgrwt>
</event>
<event>
 4    1  0.4949719E-002  0.4693099E+03  0.7818608E-02  0.1022115E+00
         21   -1    0    0  501  502  0.00000000000E+00  0.00000000000E+00  0.12983750032E+04  0.12983750032E+04  0.00000000000E+00 0.  1.
         21   -1    0    0  502  503 -0.00000000000E+00 -0.00000000000E+00 -0.17565879729E+03  0.17565879729E+03  0.00000000000E+00 0.  1.
    9000005    1    1    2  501    0 -0.13039144348E+03  0.20796600627E+03  0.69782385429E+03  0.84095773967E+03  0.40000000000E+03 0.  1.
   -9000005    1    1    2    0  503  0.13039144348E+03 -0.20796600627E+03  0.42489235160E+03  0.63307606079E+03  0.40000000000E+03 0.  1.
<mgrwt>
<rscale>  2 0.46930991E+03</rscale>
<asrwt>0</asrwt>
<pdfrwt beam="1">  1       21 0.19975000E+00 0.46930991E+03</pdfrwt>
<pdfrwt beam="2">  1       21 0.27024431E-01 0.46930991E+03</pdfrwt>
<totfact> 0.14660060E+03</totfact>
</mgrwt>
</event>
<event>
 4    1  0.4949719E-002  0.5500311E+03  0.7818608E-02  0.1001487E+00
         21   -1    0    0  503  502  0.00000000000E+00  0.00000000000E+00  0.28678474065E+03  0.28678474065E+03  0.00000000000E+00 0.  1.
         21   -1    0    0  501  503 -0.00000000000E+00 -0.00000000000E+00 -0.10612112894E+04  0.10612112894E+04  0.00000000000E+00 0. -1.
    9000005    1    1    2  501    0  0.33809981358E+03  0.16799607457E+03 -0.43911992531E+03  0.70381849494E+03  0.40000000000E+03 0.  1.
   -9000005    1    1    2    0  502 -0.33809981358E+03 -0.16799607457E+03 -0.33530662341E+03  0.64417753509E+03  0.40000000000E+03 0.  1.
<mgrwt>
<rscale>  2 0.55003106E+03</rscale>
<asrwt>0</asrwt>
<pdfrwt beam="1">  1       21 0.44120729E-01 0.55003106E+03</pdfrwt>
<pdfrwt beam="2">  1       21 0.16326328E+00 0.55003106E+03</pdfrwt>
<totfact> 0.95223606E+02</totfact>
</mgrwt>
</event>
<event>
 4    1  0.4949719E-002  0.4690498E+03  0.7818608E-02  0.1022189E+00
         21   -1    0    0  503  502  0.00000000000E+00  0.00000000000E+00  0.11337448389E+04  0.11337448389E+04  0.00000000000E+00 0.  1.
         21   -1    0    0  501  503 -0.00000000000E+00 -0.00000000000E+00 -0.20317892090E+03  0.20317892090E+03  0.00000000000E+00 0.  1.
    9000005    1    1    2  501    0  0.24408371379E+03  0.20757518080E+02  0.60694438327E+03  0.76706532856E+03  0.40000000000E+03 0.  1.
   -9000005    1    1    2    0  502 -0.24408371379E+03 -0.20757518080E+02  0.32362153470E+03  0.56985843121E+03  0.40000000000E+03 0.  1.
<mgrwt>
<rscale>  2 0.46904982E+03</rscale>
<asrwt>0</asrwt>
<pdfrwt beam="1">  1       21 0.17442228E+00 0.46904982E+03</pdfrwt>
<pdfrwt beam="2">  1       21 0.31258296E-01 0.46904982E+03</pdfrwt>
<totfact> 0.16452242E+03</totfact>
</mgrwt>
</event>
<event>
 4    1  0.4949719E-002  0.4012673E+03  0.7818608E-02  0.1043342E+00
         21   -1    0    0  503  502  0.00000000000E+00  0.00000000000E+00  0.31715243011E+03  0.31715243011E+03  0.00000000000E+00 0.  1.
         21   -1    0    0  501  503 -0.00000000000E+00 -0.00000000000E+00 -0.10678571021E+04  0.10678571021E+04  0.00000000000E+00 0.  1.
    9000005    1    1    2  501    0  0.15779154178E+02 -0.27685714997E+02 -0.87691425154E+03  0.96436200935E+03  0.40000000000E+03 0.  1.
   -9000005    1    1    2    0  502 -0.15779154178E+02  0.27685714997E+02  0.12620957955E+03  0.42064752286E+03  0.40000000000E+03 0.  1.
<mgrwt>
<rscale>  2 0.40126734E+03</rscale>
<asrwt>0</asrwt>
<pdfrwt beam="1">  1       21 0.48792682E-01 0.40126734E+03</pdfrwt>
<pdfrwt beam="2">  1       21 0.16428571E+00 0.40126734E+03</pdfrwt>
<totfact> 0.80581137E+02</totfact>
</mgrwt>
</event>
<event>
 4    1  0.4949719E-002  0.5641228E+03  0.7818608E-02  0.9982769E-01
         21   -1    0    0  501  502  0.00000000000E+00  0.00000000000E+00  0.11742714811E+03  0.11742714811E+03  0.00000000000E+00 0.  1.
         21   -1    0    0  502  503 -0.00000000000E+00 -0.00000000000E+00 -0.27133907095E+04  0.27133907095E+04  0.00000000000E+00 0.  1.
    9000005    1    1    2  501    0 -0.36702419387E+03  0.15338764846E+03 -0.12483862357E+04  0.13699279992E+04  0.40000000000E+03 0.  1.
   -9000005    1    1    2    0  503  0.36702419387E+03 -0.15338764846E+03 -0.13475773258E+04  0.14608898584E+04  0.40000000000E+03 0.  1.
<mgrwt>
<rscale>  2 0.56412280E+03</rscale>
<asrwt>0</asrwt>
<pdfrwt beam="1">  1       21 0.18065716E-01 0.56412280E+03</pdfrwt>
<pdfrwt beam="2">  1       21 0.41744471E+00 0.56412280E+03</pdfrwt>
<totfact> 0.13312690E+02</totfact>
</mgrwt>
</event>
<event>
 4    1  0.4949719E-002  0.4345988E+03  0.7818608E-02  0.1032417E+00
         21   -1    0    0  501  502  0.00000000000E+00  0.00000000000E+00  0.53425627491E+03  0.53425627491E+03  0.00000000000E+00 0.  1.
         21   -1    0    0  502  503 -0.00000000000E+00 -0.00000000000E+00 -0.13006238031E+04  0.13006238031E+04  0.00000000000E+00 0.  1.
    9000005    1    1    2  501    0 -0.12658065440E+03  0.11337296556E+03  0.39970153200E+03  0.59045525323E+03  0.40000000000E+03 0.  1.
   -9000005    1    1    2    0  503  0.12658065440E+03 -0.11337296556E+03 -0.11660690601E+04  0.12444248247E+04  0.40000000000E+03 0.  1.
<mgrwt>
<rscale>  2 0.43459877E+03</rscale>
<asrwt>0</asrwt>
<pdfrwt beam="1">  1       21 0.82193274E-01 0.43459877E+03</pdfrwt>
<pdfrwt beam="2">  1       21 0.20009597E+00 0.43459877E+03</pdfrwt>
<totfact> 0.14031892E+02</totfact>
</mgrwt>
</event>
<event>
 4    1  0.4949719E-002  0.4268968E+03  0.7818608E-02  0.1034845E+00
         21   -1    0    0  503  502  0.00000000000E+00  0.00000000000E+00  0.39553696934E+03  0.39553696934E+03  0.00000000000E+00 0. -1.
         21   -1    0    0  501  503 -0.00000000000E+00 -0.00000000000E+00 -0.79088734908E+03  0.79088734908E+03  0.00000000000E+00 0. -1.
    9000005    1    1    2  501    0  0.14528823305E+03 -0.33648843429E+02 -0.58094500889E+03  0.72092858085E+03  0.40000000000E+03 0. -1.
   -9000005    1    1    2    0  502 -0.14528823305E+03  0.33648843429E+02  0.18559462915E+03  0.46549573757E+03  0.40000000000E+03 0. -1.
<mgrwt>
<rscale>  2 0.42689684E+03</rscale>
<asrwt>0</asrwt>
<pdfrwt beam="1">  1       21 0.60851842E-01 0.42689684E+03</pdfrwt>
<pdfrwt beam="2">  1       21 0.12167498E+00 0.42689684E+03</pdfrwt>
<totfact> 0.11009939E+03</totfact>
</mgrwt>
</event>
<event>
 4    1  0.4949719E-002  0.4911056E+03  0.7818608E-02  0.1016127E+00
         21   -1    0    0  503  502  0.00000000000E+00  0.00000000000E+00  0.20347450409E+03  0.20347450409E+03  0.00000000000E+00 0.  1.
         21   -1    0    0  501  503 -0.00000000000E+00 -0.00000000000E+00 -0.12652001833E+04  0.12652001833E+04  0.00000000000E+00 0.  1.
    9000005    1    1    2  501    0  0.73329496917E+02 -0.27533166080E+03 -0.34635948730E+03  0.60095726387E+03  0.40000000000E+03 0.  1.
   -9000005    1    1    2    0  502 -0.73329496917E+02  0.27533166080E+03 -0.71536619190E+03  0.86771742351E+03  0.40000000000E+03 0.  1.
<mgrwt>
<rscale>  2 0.49110563E+03</rscale>
<asrwt>0</asrwt>
<pdfrwt beam="1">  1       21 0.31303769E-01 0.49110563E+03</pdfrwt>
<pdfrwt beam="2">  1       21 0.19464619E+00 0.49110563E+03</pdfrwt>
<totfact> 0.11748269E+03</totfact>
</mgrwt>
</event>
<event>
 4    1  0.4949719E-002  0.5263448E+03  0.7818608E-02  0.1007122E+00
         21   -1    0    0  503  502  0.00000000000E+00  0.00000000000E+00  0.30619137107E+03  0.30619137107E+03  0.00000000000E+00 0.  1.
         21   -1    0    0  501  503 -0.00000000000E+00 -0.00000000000E+00 -0.11092171182E+04  0.11092171182E+04  0.00000000000E+00 0. -1.
    9000005    1    1    2  501    0  0.11067374530E+03 -0.32371309437E+03 -0.70533047375E+03  0.88007381654E+03  0.40000000000E+03 0. -1.
   -9000005    1    1    2    0  502 -0.11067374530E+03  0.32371309437E+03 -0.97695273353E+02  0.53533467271E+03  0.40000000000E+03 0.  1.
<mgrwt>
<rscale>  2 0.52634480E+03</rscale>
<asrwt>0</asrwt>
<pdfrwt beam="1">  1       21 0.47106365E-01 0.52634480E+03</pdfrwt>
<pdfrwt beam="2">  1       21 0.17064879E+00 0.52634480E+03</pdfrwt>
<totfact> 0.73776852E+02</totfact>
</mgrwt>
</event>
<event>
 4    1  0.4949719E-002  0.5837957E+03  0.7818608E-02  0.9939607E-01
         21   -1    0    0  503  502  0.00000000000E+00  0.00000000000E+00  0.56896006944E+03  0.56896006944E+03  0.00000000000E+00 0. -1.
         21   -1    0    0  501  503 -0.00000000000E+00 -0.00000000000E+00 -0.60717199050E+03  0.60717199050E+03  0.00000000000E+00 0. -1.
    9000005    1    1    2  501    0  0.12166058321E+03 -0.40745073072E+03 -0.87253774768E+02  0.59028011714E+03  0.40000000000E+03 0. -1.
   -9000005    1    1    2    0  502 -0.12166058321E+03  0.40745073072E+03  0.49041853713E+02  0.58585194281E+03  0.40000000000E+03 0. -1.
<mgrwt>
<rscale>  2 0.58379568E+03</rscale>
<asrwt>0</asrwt>
<pdfrwt beam="1">  1       21 0.87532318E-01 0.58379568E+03</pdfrwt>
<pdfrwt beam="2">  1       21 0.93411076E-01 0.58379568E+03</pdfrwt>
<totfact> 0.87269768E+02</totfact>
</mgrwt>
</event>
<event>
 4    1  0.4949719E-002  0.4311294E+03  0.7818608E-02  0.1033504E+00
         21   -1    0    0  503  502  0.00000000000E+00  0.00000000000E+00  0.24584384860E+03  0.24584384860E+03  0.00000000000E+00 0.  1.
         21   -1    0    0  501  503 -0.00000000000E+00 -0.00000000000E+00 -0.11513724131E+04  0.11513724131E+04  0.00000000000E+00 0.  1.
    9000005    1    1    2  501    0  0.14558082586E+03 -0.68401692111E+02 -0.86211565070E+03  0.96390661556E+03  0.40000000000E+03 0.  1.
   -9000005    1    1    2    0  502 -0.14558082586E+03  0.68401692111E+02 -0.43412913774E+02  0.43330964612E+03  0.40000000000E+03 0.  1.
<mgrwt>
<rscale>  2 0.43112941E+03</rscale>
<asrwt>0</asrwt>
<pdfrwt beam="1">  1       21 0.37822131E-01 0.43112941E+03</pdfrwt>
<pdfrwt beam="2">  1       21 0.17713422E+00 0.43112941E+03</pdfrwt>
<totfact> 0.10882766E+03</totfact>
</mgrwt>
</event>
<event>
 4    1  0.4949719E-002  0.4744954E+03  0.7818608E-02  0.1020659E+00
         21   -1    0    0  501  502  0.00000000000E+00  0.00000000000E+00  0.95038503363E+03  0.95038503363E+03  0.00000000000E+00 0.  1.
         21   -1    0    0  502  503 -0.00000000000E+00 -0.00000000000E+00 -0.24174517527E+03  0.24174517527E+03  0.00000000000E+00 0.  1.
    9000005    1    1    2  501    0  0.16443320794E+02  0.25470660813E+03  0.43870920105E+03  0.64622875370E+03  0.40000000000E+03 0.  1.
   -9000005    1    1    2    0  503 -0.16443320794E+02 -0.25470660813E+03  0.26993065732E+03  0.54590145520E+03  0.40000000000E+03 0.  1.
<mgrwt>
<rscale>  2 0.47449535E+03</rscale>
<asrwt>0</asrwt>
<pdfrwt beam="1">  1       21 0.14621308E+00 0.47449535E+03</pdfrwt>
<pdfrwt beam="2">  1       21 0.37191566E-01 0.47449535E+03</pdfrwt>
<totfact> 0.18897794E+03</totfact>
</mgrwt>
</event>
<event>
 4    1  0.4949719E-002  0.6544481E+03  0.7818608E-02  0.9798468E-01
         21   -1    0    0  501  502  0.00000000000E+00  0.00000000000E+00  0.60149517828E+03  0.60149517828E+03  0.00000000000E+00 0.  1.
         21   -1    0    0  502  503 -0.00000000000E+00 -0.00000000000E+00 -0.83205737267E+03  0.83205737267E+03  0.00000000000E+00 0. -1.
    9000005    1    1    2  501    0  0.44772717558E+03 -0.26046619848E+03  0.15691883809E+03  0.67299761222E+03  0.40000000000E+03 0.  1.
   -9000005    1    1    2    0  503 -0.44772717558E+03  0.26046619848E+03 -0.38748103248E+03  0.76055493873E+03  0.40000000000E+03 0. -1.
<mgrwt>
<rscale>  2 0.65444806E+03</rscale>
<asrwt>0</asrwt>
<pdfrwt beam="1">  1       21 0.92537720E-01 0.65444806E+03</pdfrwt>
<pdfrwt beam="2">  1       21 0.12800883E+00 0.65444806E+03</pdfrwt>
<totfact> 0.33951601E+02</totfact>
</mgrwt>
</event>
<event>
 4    1  0.4949719E-002  0.5670459E+03  0.7818608E-02  0.9976237E-01
         21   -1    0    0  501  502  0.00000000000E+00  0.00000000000E+00  0.56067267391E+03  0.56067267391E+03  0.00000000000E+00 0.  1.
         21   -1    0    0  502  503 -0.00000000000E+00 -0.00000000000E+00 -0.20028357755E+04  0.20028357755E+04  0.00000000000E+00 0.  1.
    9000005    1    1    2  501    0 -0.33637421789E+03  0.21998497643E+03  0.36172409868E+03  0.67259596184E+03  0.40000000000E+03 0.  1.
   -9000005    1    1    2    0  503  0.33637421789E+03 -0.21998497643E+03 -0.18038872003E+04  0.18909124876E+04  0.40000000000E+03 0.  1.
<mgrwt>
<rscale>  2 0.56704586E+03</rscale>
<asrwt>0</asrwt>
<pdfrwt beam="1">  1       21 0.86257333E-01 0.56704586E+03</pdfrwt>
<pdfrwt beam="2">  1       21 0.30812859E+00 0.56704586E+03</pdfrwt>
<totfact> 0.24733832E+01</totfact>
</mgrwt>
</event>
<event>
 4    1  0.4949719E-002  0.4015296E+03  0.7818608E-02  0.1043251E+00
         21   -1    0    0  501  502  0.00000000000E+00  0.00000000000E+00  0.66693316768E+02  0.66693316768E+02  0.00000000000E+00 0.  1.
         21   -1    0    0  502  503 -0.00000000000E+00 -0.00000000000E+00 -0.25838121867E+04  0.25838121867E+04  0.00000000000E+00 0.  1.
    9000005    1    1    2  501    0  0.90608950744E+01  0.33821449332E+02 -0.92225688530E+03  0.10058746208E+04  0.40000000000E+03 0.  1.
   -9000005    1    1    2    0  503 -0.90608950744E+01 -0.33821449332E+02 -0.15948619847E+04  0.16446308827E+04  0.40000000000E+03 0.  1.
<mgrwt>
<rscale>  2 0.40152956E+03</rscale>
<asrwt>0</asrwt>
<pdfrwt beam="1">  1       21 0.10260511E-01 0.40152956E+03</pdfrwt>
<pdfrwt beam="2">  1       21 0.39750953E+00 0.40152956E+03</pdfrwt>
<totfact> 0.56198304E+02</totfact>
</mgrwt>
</event>
<event>
 4    1  0.4949719E-002  0.4171953E+03  0.7818608E-02  0.1037983E+00
         21   -1    0    0  501  502  0.00000000000E+00  0.00000000000E+00  0.26364349078E+03  0.26364349078E+03  0.00000000000E+00 0. -1.
         21   -1    0    0  502  503 -0.00000000000E+00 -0.00000000000E+00 -0.77876584037E+03  0.77876584037E+03  0.00000000000E+00 0. -1.
    9000005    1    1    2  501    0  0.11807666231E+03 -0.10480573268E+02 -0.54174363351E+02  0.42069799410E+03  0.40000000000E+03 0. -1.
   -9000005    1    1    2    0  503 -0.11807666231E+03  0.10480573268E+02 -0.46094798623E+03  0.62171133704E+03  0.40000000000E+03 0. -1.
<mgrwt>
<rscale>  2 0.41719533E+03</rscale>
<asrwt>0</asrwt>
<pdfrwt beam="1">  1       21 0.40560538E-01 0.41719533E+03</pdfrwt>
<pdfrwt beam="2">  1       21 0.11981013E+00 0.41719533E+03</pdfrwt>
<totfact> 0.27215140E+03</totfact>
</mgrwt>
</event>
<event>
 4    1  0.4949719E-002  0.5761250E+03  0.7818608E-02  0.9956216E-01
         21   -1    0    0  501  502  0.00000000000E+00  0.00000000000E+00  0.35227626061E+03  0.35227626061E+03  0.00000000000E+00 0. -1.
         21   -1    0    0  502  503 -0.00000000000E+00 -0.00000000000E+00 -0.15130806494E+04  0.15130806494E+04  0.00000000000E+00 0.  1.
    9000005    1    1    2  501    0  0.29149957176E+02 -0.41360640689E+03 -0.75166571930E+01  0.57617400146E+03  0.40000000000E+03 0. -1.
   -9000005    1    1    2    0  503 -0.29149957176E+02  0.41360640689E+03 -0.11532877316E+04  0.12891829085E+04  0.40000000000E+03 0.  1.
<mgrwt>
<rscale>  2 0.57612497E+03</rscale>
<asrwt>0</asrwt>
<pdfrwt beam="1">  1       21 0.54196348E-01 0.57612497E+03</pdfrwt>
<pdfrwt beam="2">  1       21 0.23278164E+00 0.57612497E+03</pdfrwt>
<totfact> 0.20423181E+02</totfact>
</mgrwt>
</event>
<event>
 4    1  0.4949719E-002  0.4960074E+03  0.7818608E-02  0.1014826E+00
         21   -1    0    0  503  502  0.00000000000E+00  0.00000000000E+00  0.16159064738E+03  0.16159064738E+03  0.00000000000E+00 0. -1.
         21   -1    0    0  501  503 -0.00000000000E+00 -0.00000000000E+00 -0.16514584984E+04  0.16514584984E+04  0.00000000000E+00 0.  1.
    9000005    1    1    2  501    0 -0.28674648946E+03 -0.61642508212E+02 -0.99824500778E+03  0.11146822164E+04  0.40000000000E+03 0.  1.
   -9000005    1    1    2    0  502  0.28674648946E+03  0.61642508212E+02 -0.49162284328E+03  0.69836692939E+03  0.40000000000E+03 0.  1.
<mgrwt>
<rscale>  2 0.49600741E+03</rscale>
<asrwt>0</asrwt>
<pdfrwt beam="1">  1       21 0.24860100E-01 0.49600741E+03</pdfrwt>
<pdfrwt beam="2">  1       21 0.25407053E+00 0.49600741E+03</pdfrwt>
<totfact> 0.76917104E+02</totfact>
</mgrwt>
</event>
<event>
 4    1  0.4949719E-002  0.4508861E+03  0.7818608E-02  0.1027458E+00
         21   -1    0    0  503  502  0.00000000000E+00  0.00000000000E+00  0.17021215544E+04  0.17021215544E+04  0.00000000000E+00 0. -1.
         21   -1    0    0  501  503 -0.00000000000E+00 -0.00000000000E+00 -0.14956757962E+03  0.14956757962E+03  0.00000000000E+00 0.  1.
    9000005    1    1    2  501    0  0.19742019261E+03 -0.65753474176E+02  0.36073511253E+03  0.57743231052E+03  0.40000000000E+03 0. -1.
   -9000005    1    1    2    0  502 -0.19742019261E+03  0.65753474176E+02  0.11918188623E+04  0.12742568235E+04  0.40000000000E+03 0. -1.
<mgrwt>
<rscale>  2 0.45088607E+03</rscale>
<asrwt>0</asrwt>
<pdfrwt beam="1">  1       21 0.26186484E+00 0.45088607E+03</pdfrwt>
<pdfrwt beam="2">  1       21 0.23010398E-01 0.45088607E+03</pdfrwt>
<totfact> 0.81873385E+02</totfact>
</mgrwt>
</event>
<event>
 4    1  0.4949719E-002  0.4035838E+03  0.7818608E-02  0.1042546E+00
         21   -1    0    0  501  502  0.00000000000E+00  0.00000000000E+00  0.47306140149E+03  0.47306140149E+03  0.00000000000E+00 0. -1.
         21   -1    0    0  502  503 -0.00000000000E+00 -0.00000000000E+00 -0.63726355420E+03  0.63726355420E+03  0.00000000000E+00 0. -1.
    9000005    1    1    2  501    0  0.52735159971E+02  0.99427174169E+01  0.29430776813E+03  0.49949666376E+03  0.40000000000E+03 0. -1.
   -9000005    1    1    2    0  503 -0.52735159971E+02 -0.99427174169E+01 -0.45850992084E+03  0.61082829194E+03  0.40000000000E+03 0. -1.
<mgrwt>
<rscale>  2 0.40358376E+03</rscale>
<asrwt>0</asrwt>
<pdfrwt beam="1">  1       21 0.72778677E-01 0.40358376E+03</pdfrwt>
<pdfrwt beam="2">  1       21 0.98040547E-01 0.40358376E+03</pdfrwt>
<totfact> 0.12741411E+03</totfact>
</mgrwt>
</event>
<event>
 4    1  0.4949719E-002  0.5729983E+03  0.7818608E-02  0.9963066E-01
         21   -1    0    0  503  502  0.00000000000E+00  0.00000000000E+00  0.32111622707E+03  0.32111622707E+03  0.00000000000E+00 0.  1.
         21   -1    0    0  501  503 -0.00000000000E+00 -0.00000000000E+00 -0.20988517689E+04  0.20988517689E+04  0.00000000000E+00 0.  1.
    9000005    1    1    2  501    0 -0.32328815466E+03 -0.25260993238E+03 -0.17553803311E+04  0.18465338111E+04  0.40000000000E+03 0.  1.
   -9000005    1    1    2    0  502  0.32328815466E+03  0.25260993238E+03 -0.22355210727E+02  0.57343418483E+03  0.40000000000E+03 0.  1.
<mgrwt>
<rscale>  2 0.57299826E+03</rscale>
<asrwt>0</asrwt>
<pdfrwt beam="1">  1       21 0.49402499E-01 0.57299826E+03</pdfrwt>
<pdfrwt beam="2">  1       21 0.32290026E+00 0.57299826E+03</pdfrwt>
<totfact> 0.69808857E+01</totfact>
</mgrwt>
</event>
<event>
 4    1  0.4949719E-002  0.4396535E+03  0.7818608E-02  0.1030853E+00
         21   -1    0    0  501  502  0.00000000000E+00  0.00000000000E+00  0.12587641494E+04  0.12587641494E+04  0.00000000000E+00 0. -1.
         21   -1    0    0  502  503 -0.00000000000E+00 -0.00000000000E+00 -0.33223635701E+03  0.33223635701E+03  0.00000000000E+00 0. -1.
    9000005    1    1    2  501    0  0.17468768546E+03 -0.52720451781E+02  0.10466429849E+04  0.11352342363E+04  0.40000000000E+03 0. -1.
   -9000005    1    1    2    0  503 -0.17468768546E+03  0.52720451781E+02 -0.12011519250E+03  0.45576627009E+03  0.40000000000E+03 0. -1.
<mgrwt>
<rscale>  2 0.43965354E+03</rscale>
<asrwt>0</asrwt>
<pdfrwt beam="1">  1       21 0.19365602E+00 0.43965354E+03</pdfrwt>
<pdfrwt beam="2">  1       21 0.51113286E-01 0.43965354E+03</pdfrwt>
<totfact> 0.44419641E+02</totfact>
</mgrwt>
</event>
<event>
 4    1  0.4949719E-002  0.6118892E+03  0.7818608E-02  0.9881042E-01
         21   -1    0    0  501  502  0.00000000000E+00  0.00000000000E+00  0.14329196397E+04  0.14329196397E+04  0.00000000000E+00 0.  1.
         21   -1    0    0  502  503 -0.00000000000E+00 -0.00000000000E+00 -0.30379209405E+03  0.30379209405E+03  0.00000000000E+00 0.  1.
    9000005    1    1    2  501    0 -0.11536336110E+03  0.44844138794E+03  0.88936060287E+03  0.10795233510E+04  0.40000000000E+03 0.  1.
   -9000005    1    1    2    0  503  0.11536336110E+03 -0.44844138794E+03  0.23976694276E+03  0.65718838269E+03  0.40000000000E+03 0.  1.
<mgrwt>
<rscale>  2 0.61188919E+03</rscale>
<asrwt>0</asrwt>
<pdfrwt beam="1">  1       21 0.22044917E+00 0.61188919E+03</pdfrwt>
<pdfrwt beam="2">  1       21 0.46737246E-01 0.61188919E+03</pdfrwt>
<totfact> 0.33159997E+02</totfact>
</mgrwt>
</event>
<event>
 4    1  0.4949719E-002  0.4734172E+03  0.7818608E-02  0.1020960E+00
         21   -1    0    0  503  502  0.00000000000E+00  0.00000000000E+00  0.12853098210E+04  0.12853098210E+04  0.00000000000E+00 0.  1.
         21   -1    0    0  501  503 -0.00000000000E+00 -0.00000000000E+00 -0.22136094638E+03  0.22136094638E+03  0.00000000000E+00 0.  1.
    9000005    1    1    2  501    0 -0.23711115721E+03 -0.88894094636E+02  0.18489475907E+03  0.50824200226E+03  0.40000000000E+03 0.  1.
   -9000005    1    1    2    0  502  0.23711115721E+03  0.88894094636E+02  0.87905411550E+03  0.99842876507E+03  0.40000000000E+03 0.  1.
<mgrwt>
<rscale>  2 0.47341722E+03</rscale>
<asrwt>0</asrwt>
<pdfrwt beam="1">  1       21 0.19773997E+00 0.47341722E+03</pdfrwt>
<pdfrwt beam="2">  1       21 0.34055531E-01 0.47341722E+03</pdfrwt>
<totfact> 0.95238908E+02</totfact>
</mgrwt>
</event>
<event>
 4    1  0.4949719E-002  0.7907174E+03  0.7818608E-02  0.9573551E-01
         21   -1    0    0  503  502  0.00000000000E+00  0.00000000000E+00  0.40970266358E+03  0.40970266358E+03  0.00000000000E+00 0.  1.
         21   -1    0    0  501  503 -0.00000000000E+00 -0.00000000000E+00 -0.16566888992E+04  0.16566888992E+04  0.00000000000E+00 0. -1.
    9000005    1    1    2  501    0 -0.60631102162E+03 -0.31244357574E+03 -0.91360719871E+03  0.12082682469E+04  0.40000000000E+03 0. -1.
   -9000005    1    1    2    0  502  0.60631102162E+03  0.31244357574E+03 -0.33337903687E+03  0.85812331584E+03  0.40000000000E+03 0.  1.
<mgrwt>
<rscale>  2 0.79071742E+03</rscale>
<asrwt>0</asrwt>
<pdfrwt beam="1">  1       21 0.63031179E-01 0.79071742E+03</pdfrwt>
<pdfrwt beam="2">  1       21 0.25487521E+00 0.79071742E+03</pdfrwt>
<totfact> 0.98192747E+01</totfact>
</mgrwt>
</event>
<event>
 4    1  0.4949719E-002  0.4010200E+03  0.7818608E-02  0.1043427E+00
         21   -1    0    0  501  502  0.00000000000E+00  0.00000000000E+00  0.66904639988E+03  0.66904639988E+03  0.00000000000E+00 0.  1.
         21   -1    0    0  502  503 -0.00000000000E+00 -0.00000000000E+00 -0.40449998291E+03  0.40449998291E+03  0.00000000000E+00 0.  1.
    9000005    1    1    2  501    0 -0.28551300444E+02  0.13542335073E+01  0.47419661592E+03  0.62103095032E+03  0.40000000000E+03 0.  1.
   -9000005    1    1    2    0  503  0.28551300444E+02 -0.13542335073E+01 -0.20965019895E+03  0.45251543247E+03  0.40000000000E+03 0.  1.
<mgrwt>
<rscale>  2 0.40101996E+03</rscale>
<asrwt>0</asrwt>
<pdfrwt beam="1">  1       21 0.10293022E+00 0.40101996E+03</pdfrwt>
<pdfrwt beam="2">  1       21 0.62230766E-01 0.40101996E+03</pdfrwt>
<totfact> 0.16072778E+03</totfact>
</mgrwt>
</event>
<event>
 4    1  0.4949719E-002  0.4527716E+03  0.7818608E-02  0.1026899E+00
         21   -1    0    0  501  502  0.00000000000E+00  0.00000000000E+00  0.86883670666E+03  0.86883670666E+03  0.00000000000E+00 0. -1.
         21   -1    0    0  502  503 -0.00000000000E+00 -0.00000000000E+00 -0.27869323500E+03  0.27869323500E+03  0.00000000000E+00 0. -1.
    9000005    1    1    2  501    0  0.15225154091E+03 -0.14772141513E+03  0.51977209527E+03  0.68932226079E+03  0.40000000000E+03 0.  1.
   -9000005    1    1    2    0  503 -0.15225154091E+03  0.14772141513E+03  0.70371376397E+02  0.45820768088E+03  0.40000000000E+03 0.  1.
<mgrwt>
<rscale>  2 0.45277163E+03</rscale>
<asrwt>0</asrwt>
<pdfrwt beam="1">  1       21 0.13366718E+00 0.45277163E+03</pdfrwt>
<pdfrwt beam="2">  1       21 0.42875883E-01 0.45277163E+03</pdfrwt>
<totfact> 0.18044639E+03</totfact>
</mgrwt>
</event>
<event>
 4    1  0.4949719E-002  0.4563661E+03  0.7818608E-02  0.1025840E+00
         21   -1    0    0  501  502  0.00000000000E+00  0.00000000000E+00  0.16247777509E+04  0.16247777509E+04  0.00000000000E+00 0.  1.
         21   -1    0    0  502  503 -0.00000000000E+00 -0.00000000000E+00 -0.17217295132E+03  0.17217295132E+03  0.00000000000E+00 0.  1.
    9000005    1    1    2  501    0  0.13328053626E+03  0.17466049491E+03  0.11804500731E+04  0.12655956562E+04  0.40000000000E+03 0.  1.
   -9000005    1    1    2    0  503 -0.13328053626E+03 -0.17466049491E+03  0.27215472648E+03  0.53135504606E+03  0.40000000000E+03 0.  1.
<mgrwt>
<rscale>  2 0.45636607E+03</rscale>
<asrwt>0</asrwt>
<pdfrwt beam="1">  1       21 0.24996580E+00 0.45636607E+03</pdfrwt>
<pdfrwt beam="2">  1       21 0.26488147E-01 0.45636607E+03</pdfrwt>
<totfact> 0.73426658E+02</totfact>
</mgrwt>
</event>
<event>
 4    1  0.4949719E-002  0.5311742E+03  0.7818608E-02  0.1005948E+00
         21   -1    0    0  503  502  0.00000000000E+00  0.00000000000E+00  0.12272626432E+04  0.12272626432E+04  0.00000000000E+00 0.  1.
         21   -1    0    0  501  503 -0.00000000000E+00 -0.00000000000E+00 -0.24491363432E+03  0.24491363432E+03  0.00000000000E+00 0.  1.
    9000005    1    1    2  501    0 -0.21272833833E+03  0.27729535060E+03  0.30891700960E+03  0.61447194908E+03  0.40000000000E+03 0.  1.
   -9000005    1    1    2    0  502  0.21272833833E+03 -0.27729535060E+03  0.67343199933E+03  0.85770432849E+03  0.40000000000E+03 0.  1.
<mgrwt>
<rscale>  2 0.53117423E+03</rscale>
<asrwt>0</asrwt>
<pdfrwt beam="1">  1       21 0.18880963E+00 0.53117423E+03</pdfrwt>
<pdfrwt beam="2">  1       21 0.37679022E-01 0.53117423E+03</pdfrwt>
<totfact> 0.87123317E+02</totfact>
</mgrwt>
</event>
<event>
 4    1  0.4949719E-002  0.5929726E+03  0.7818608E-02  0.9920094E-01
         21   -1    0    0  501  502  0.00000000000E+00  0.00000000000E+00  0.70376631687E+03  0.70376631687E+03  0.00000000000E+00 0.  1.
         21   -1    0    0  502  503 -0.00000000000E+00 -0.00000000000E+00 -0.81275803512E+03  0.81275803512E+03  0.00000000000E+00 0.  1.
    9000005    1    1    2  501    0  0.63724674809E+02  0.43307700243E+03  0.41616261527E+03  0.72443622670E+03  0.40000000000E+03 0.  1.
   -9000005    1    1    2    0  503 -0.63724674809E+02 -0.43307700243E+03 -0.52515433351E+03  0.79208812528E+03  0.40000000000E+03 0.  1.
<mgrwt>
<rscale>  2 0.59297262E+03</rscale>
<asrwt>0</asrwt>
<pdfrwt beam="1">  1       21 0.10827174E+00 0.59297262E+03</pdfrwt>
<pdfrwt beam="2">  1       21 0.12503970E+00 0.59297262E+03</pdfrwt>
<totfact> 0.25075102E+02</totfact>
</mgrwt>
</event>
<event>
 4    1  0.4949719E-002  0.4148432E+03  0.7818608E-02  0.1038758E+00
         21   -1    0    0  503  502  0.00000000000E+00  0.00000000000E+00  0.39535172041E+03  0.39535172041E+03  0.00000000000E+00 0. -1.
         21   -1    0    0  501  503 -0.00000000000E+00 -0.00000000000E+00 -0.12349439474E+04  0.12349439474E+04  0.00000000000E+00 0. -1.
    9000005    1    1    2  501    0  0.34635955246E+02 -0.10438003817E+03 -0.10757333615E+04  0.11529514763E+04  0.40000000000E+03 0. -1.
   -9000005    1    1    2    0  502 -0.34635955246E+02  0.10438003817E+03  0.23614113447E+03  0.47734419150E+03  0.40000000000E+03 0. -1.
<mgrwt>
<rscale>  2 0.41484315E+03</rscale>
<asrwt>0</asrwt>
<pdfrwt beam="1">  1       21 0.60823343E-01 0.41484315E+03</pdfrwt>
<pdfrwt beam="2">  1       21 0.18999137E+00 0.41484315E+03</pdfrwt>
<totfact> 0.32720021E+02</totfact>
</mgrwt>
</event>
<event>
 4    1  0.4949719E-002  0.5200804E+03  0.7818608E-02  0.1008667E+00
         21   -1    0    0  501  502  0.00000000000E+00  0.00000000000E+00  0.35741736013E+03  0.35741736013E+03  0.00000000000E+00 0. -1.
         21   -1    0    0  502  503 -0.00000000000E+00 -0.00000000000E+00 -0.82950213329E+03  0.82950213329E+03  0.00000000000E+00 0.  1.
    9000005    1    1    2  501    0 -0.86563225435E+02 -0.32092118947E+03 -0.60315408614E+02  0.52356618528E+03  0.40000000000E+03 0.  1.
   -9000005    1    1    2    0  503  0.86563225435E+02  0.32092118947E+03 -0.41176936454E+03  0.66335330814E+03  0.40000000000E+03 0.  1.
<mgrwt>
<rscale>  2 0.52008038E+03</rscale>
<asrwt>0</asrwt>
<pdfrwt beam="1">  1       21 0.54987286E-01 0.52008038E+03</pdfrwt>
<pdfrwt beam="2">  1       21 0.12761571E+00 0.52008038E+03</pdfrwt>
<totfact> 0.11710944E+03</totfact>
</mgrwt>
</event>
