<event>
11    0  0.3467594E-009  0.9118800E+02  0.7816531E-02  0.1126479E+00
         25   -1    0    0    0    0  0.00000000000E+00  0.00000000000E+00  0.99999998245E-14  0.12500000000E+03  0.12500000000E+03 0.  0.
    3000001    1    3    3    0    0 -0.63990773011E+01  0.52054081379E+01  0.49704300695E+02  0.50394066831E+02  0.10000000000E+01 0. -1.
    1000022    2    1    0    0    0 -0.47365342851E+01  0.27992970141E+01  0.61448992791E+02  0.62500003899E+02  0.10000047581E+02 0.  0.
    3000022    2    3    3    0    0  0.16625430160E+01 -0.24061111238E+01  0.11744692096E+02  0.12105937069E+02  0.24999972492E+00 0.  0.
    1000022    2    1    0    0    0  0.47365342851E+01 -0.27992970141E+01 -0.61448992791E+02  0.62499996101E+02  0.99999988386E+01 0.  0.
    3000022    2    5    5    0    0 -0.27029022016E+01 -0.29756860641E-01 -0.26901527729E+02  0.27038144625E+02  0.25000962693E+00 0.  0.
        -13    1    4    4    0    0  0.62474298349E+00 -0.85917278152E+00  0.44940003503E+01  0.46190416552E+01  0.10500000000E+00 0.  1.
         13    1    4    4    0    0  0.10378000325E+01 -0.15469383423E+01  0.72506917458E+01  0.74868954136E+01  0.10500000000E+00 0. -1.
    3000001    1    5    5    0    0  0.74394364867E+01 -0.27695401535E+01 -0.34547465061E+02  0.35461851475E+02  0.10000000000E+01 0.  1.
        -13    1    6    6    0    0 -0.19087946970E+01  0.18575516748E-01 -0.18746597525E+02  0.18843826204E+02  0.10500000000E+00 0.  1.
         13    1    6    6    0    0 -0.79410750457E+00 -0.48332377389E-01 -0.81549302047E+01  0.81943184213E+01  0.10500000000E+00 0. -1.
</event>
<event>
11    0  0.3467594E-009  0.9118800E+02  0.7816531E-02  0.1126479E+00
         25   -1    0    0    0    0  0.00000000000E+00  0.00000000000E+00  0.99999998245E-14  0.12500000000E+03  0.12500000000E+03 0.  0.
    3000001    1    3    3    0    0 -0.45153383344E+02  0.19808349431E+02  0.36847604662E+02  0.61562526783E+02  0.10000000000E+01 0.  1.
    1000022    2    1    0    0    0 -0.44984022004E+02  0.20694712912E+02  0.36802387973E+02  0.62499993000E+02  0.99999993186E+01 0.  0.
    3000022    2    3    3    0    0  0.16936133983E+00  0.88636348084E+00 -0.45216688999E-01  0.93746621741E+00  0.24994974740E+00 0.  0.
    1000022    2    1    0    0    0  0.44984022004E+02 -0.20694712912E+02 -0.36802387973E+02  0.62500007000E+02  0.10000086812E+02 0.  0.
    3000022    2    5    5    0    0  0.26044509845E+02 -0.16005823747E+02 -0.26256539406E+02  0.40298526769E+02  0.25002257735E+00 0.  0.
        -13    1    4    4    0    0  0.12365954975E+00  0.40680826006E+00 -0.71354816874E-01  0.44373545564E+00  0.10500000000E+00 0.  1.
         13    1    4    4    0    0  0.45701790083E-01  0.47955522078E+00  0.26138127874E-01  0.49373076177E+00  0.10500000000E+00 0. -1.
    3000001    1    5    5    0    0  0.18939512159E+02 -0.46888891644E+01 -0.10545848568E+02  0.22201480231E+02  0.10000000000E+01 0. -1.
        -13    1    6    6    0    0  0.16461289306E+02 -0.10169711638E+02 -0.16569122477E+02  0.25474377815E+02  0.10500000000E+00 0.  1.
         13    1    6    6    0    0  0.95832205390E+01 -0.58361121095E+01 -0.96874169288E+01  0.14824148954E+02  0.10500000000E+00 0. -1.
</event>
<event>
11    0  0.3467594E-009  0.9118800E+02  0.7816531E-02  0.1126479E+00
         25   -1    0    0    0    0  0.00000000000E+00  0.00000000000E+00  0.99999998245E-14  0.12500000000E+03  0.12500000000E+03 0.  0.
    3000001    1    3    3    0    0  0.16675628047E+02  0.29251309096E+02 -0.26327462053E+02  0.42753373115E+02  0.10000000000E+01 0. -1.
    1000022    2    1    0    0    0  0.28833739977E+02  0.43087234975E+02 -0.33441827099E+02  0.62499998763E+02  0.99999833365E+01 0.  0.
    3000022    2    3    3    0    0  0.12158111930E+02  0.13835925879E+02 -0.71143650464E+01  0.19746625648E+02  0.25000760995E+00 0.  0.
    1000022    2    1    0    0    0 -0.28833739977E+02 -0.43087234975E+02  0.33441827099E+02  0.62500001237E+02  0.99999988007E+01 0.  0.
    3000022    2    5    5    0    0 -0.13701408326E+02 -0.29107210692E+02  0.20059881444E+02  0.37913317652E+02  0.25001499998E+00 0.  0.
        -13    1    4    4    0    0  0.80599210154E+01  0.92326355486E+01 -0.46949739177E+01  0.13124697750E+02  0.10500000000E+00 0. -1.
         13    1    4    4    0    0  0.40981909149E+01  0.46032903308E+01 -0.24193911288E+01  0.66219278974E+01  0.10500000000E+00 0.  1.
    3000001    1    5    5    0    0 -0.15132331651E+02 -0.13980024283E+02  0.13381945656E+02  0.24586683585E+02  0.10000000000E+01 0. -1.
        -13    1    6    6    0    0 -0.96173951891E+01 -0.20535256258E+02  0.14143318038E+02  0.26725184938E+02  0.10500000000E+00 0.  1.
         13    1    6    6    0    0 -0.40840131371E+01 -0.85719544337E+01  0.59165634052E+01  0.11188132715E+02  0.10500000000E+00 0. -1.
</event>
<event>
11    0  0.3467594E-009  0.9118800E+02  0.7816531E-02  0.1126479E+00
         25   -1    0    0    0    0  0.00000000000E+00  0.00000000000E+00  0.99999998245E-14  0.12500000000E+03  0.12500000000E+03 0.  0.
    3000001    1    3    3    0    0  0.25340658818E-01 -0.37648283139E+00  0.25280189426E-01  0.10691213960E+01  0.10000000000E+01 0. -1.
    1000022    2    1    0    0    0  0.20276669199E+02 -0.39170376038E+02  0.43136855047E+02  0.62499999978E+02  0.10000003054E+02 0.  0.
    3000022    2    3    3    0    0  0.20251328540E+02 -0.38793893207E+02  0.43111574858E+02  0.61430878582E+02  0.24999765510E+00 0.  0.
    1000022    2    1    0    0    0 -0.20276669199E+02  0.39170376038E+02 -0.43136855047E+02  0.62500000022E+02  0.10000003334E+02 0.  0.
    3000022    2    5    5    0    0 -0.96645552287E+01  0.18858794998E+02 -0.13923768339E+02  0.25357279036E+02  0.24999760413E+00 0.  0.
        -13    1    4    4    0    0  0.88596755402E+01 -0.16941711566E+02  0.18744031899E+02  0.26774338429E+02  0.10500000000E+00 0. -1.
         13    1    4    4    0    0  0.11391653000E+02 -0.21852181641E+02  0.24367542958E+02  0.34656540153E+02  0.10500000000E+00 0.  1.
    3000001    1    5    5    0    0 -0.10612113970E+02  0.20311581040E+02 -0.29213086708E+02  0.37142720987E+02  0.10000000000E+01 0. -1.
        -13    1    6    6    0    0 -0.22713030704E+01  0.44233201085E+01 -0.32514557220E+01  0.59420171434E+01  0.10500000000E+00 0. -1.
         13    1    6    6    0    0 -0.73932521583E+01  0.14435474890E+02 -0.10672312617E+02  0.19415261892E+02  0.10500000000E+00 0.  1.
</event>
<event>
11    0  0.3467594E-009  0.9118800E+02  0.7816531E-02  0.1126479E+00
         25   -1    0    0    0    0  0.00000000000E+00  0.00000000000E+00  0.99999998245E-14  0.12500000000E+03  0.12500000000E+03 0.  0.
    3000001    1    3    3    0    0  0.48228920874E+01  0.27463269518E+01 -0.14114455782E+02  0.15199357283E+02  0.10000000000E+01 0. -1.
    1000022    2    1    0    0    0  0.31892161944E+02  0.95708786198E-01 -0.52812221148E+02  0.62499998847E+02  0.99999999838E+01 0.  0.
    3000022    2    3    3    0    0  0.27069269857E+02 -0.26506181656E+01 -0.38697765366E+02  0.47300641564E+02  0.25000154753E+00 0.  0.
    1000022    2    1    0    0    0 -0.31892161944E+02 -0.95708786198E-01  0.52812221148E+02  0.62500001153E+02  0.10000014397E+02 0.  0.
    3000022    2    5    5    0    0 -0.22574227168E+02 -0.34922022595E+01  0.41882912390E+02  0.47707777982E+02  0.25004182383E+00 0.  0.
        -13    1    4    4    0    0  0.13717471209E+02 -0.13997032742E+01 -0.19552167693E+02  0.23925435673E+02  0.10500000000E+00 0.  1.
         13    1    4    4    0    0  0.13351798647E+02 -0.12509148914E+01 -0.19145597673E+02  0.23375205891E+02  0.10500000000E+00 0. -1.
    3000001    1    5    5    0    0 -0.93179347759E+01  0.33964934733E+01  0.10929308758E+02  0.14792223171E+02  0.10000000000E+01 0. -1.
        -13    1    6    6    0    0 -0.11002944267E+02 -0.16360165918E+01  0.20358138723E+02  0.23199270896E+02  0.10500000000E+00 0.  1.
         13    1    6    6    0    0 -0.11571282901E+02 -0.18561856677E+01  0.21524773666E+02  0.24508507086E+02  0.10500000000E+00 0. -1.
</event>
<event>
11    0  0.3467594E-009  0.9118800E+02  0.7816531E-02  0.1126479E+00
         25   -1    0    0    0    0  0.00000000000E+00  0.00000000000E+00  0.99999998245E-14  0.12500000000E+03  0.12500000000E+03 0.  0.
    3000001    1    3    3    0    0 -0.21595881191E+01 -0.22504363646E+02 -0.51799124896E+01  0.23215117862E+02  0.10000000000E+01 0.  1.
    1000022    2    1    0    0    0 -0.70465870243E+01 -0.61279361464E+02 -0.11979061634E+01  0.62500001539E+02  0.10000034149E+02 0.  0.
    3000022    2    3    3    0    0 -0.48869989052E+01 -0.38774997818E+02  0.39820063263E+01  0.39284883676E+02  0.24999395616E+00 0.  0.
    1000022    2    1    0    0    0  0.70465870243E+01  0.61279361464E+02  0.11979061634E+01  0.62499998461E+02  0.10000014918E+02 0.  0.
    3000022    2    5    5    0    0  0.66367719949E+01  0.18572923825E+02 -0.70825947029E+00  0.19737383579E+02  0.24987423810E+00 0.  0.
        -13    1    4    4    0    0 -0.14714258930E+01 -0.11953292508E+02  0.12602583822E+01  0.12109730473E+02  0.10500000000E+00 0. -1.
         13    1    4    4    0    0 -0.34155730122E+01 -0.26821705310E+02  0.27217479441E+01  0.27175153203E+02  0.10500000000E+00 0.  1.
    3000001    1    5    5    0    0  0.40981502943E+00  0.42706437639E+02  0.19061656337E+01  0.42762614882E+02  0.10000000000E+01 0. -1.
        -13    1    6    6    0    0  0.24290421069E+01  0.68399436007E+01 -0.31809905834E+00  0.72661740984E+01  0.10500000000E+00 0. -1.
         13    1    6    6    0    0  0.42077298880E+01  0.11732980225E+02 -0.39016041195E+00  0.12471209481E+02  0.10500000000E+00 0.  1.
</event>
<event>
11    0  0.3467594E-009  0.9118800E+02  0.7816531E-02  0.1126479E+00
         25   -1    0    0    0    0  0.00000000000E+00  0.00000000000E+00  0.99999998245E-14  0.12500000000E+03  0.12500000000E+03 0.  0.
    3000001    1    3    3    0    0  0.48742757607E+02 -0.32804593583E+01 -0.98797796118E+01  0.49852059917E+02  0.10000000000E+01 0.  1.
    1000022    2    1    0    0    0  0.60127831930E+02 -0.87198081784E+01 -0.10717242092E+02  0.62499995652E+02  0.99999475607E+01 0.  0.
    3000022    2    3    3    0    0  0.11385074323E+02 -0.54393488202E+01 -0.83746247974E+00  0.12647935735E+02  0.25000408840E+00 0.  0.
    1000022    2    1    0    0    0 -0.60127831930E+02  0.87198081784E+01  0.10717242092E+02  0.62500004348E+02  0.10000001907E+02 0.  0.
    3000022    2    5    5    0    0 -0.19663282894E+02  0.52578472119E+01  0.77003814806E+01  0.21763456257E+02  0.25000363610E+00 0.  0.
        -13    1    4    4    0    0  0.60948483029E+01 -0.29337951537E+01 -0.38454676256E+00  0.67759302720E+01  0.10500000000E+00 0. -1.
         13    1    4    4    0    0  0.52902260197E+01 -0.25055536664E+01 -0.45291571718E+00  0.58720054634E+01  0.10500000000E+00 0.  1.
    3000001    1    5    5    0    0 -0.40464549036E+02  0.34619609665E+01  0.30168606110E+01  0.40736548091E+02  0.10000000000E+01 0.  1.
        -13    1    6    6    0    0 -0.93722261912E+01  0.25223873610E+01  0.37421608128E+01  0.10402684958E+02  0.10500000000E+00 0.  1.
         13    1    6    6    0    0 -0.10291056703E+02  0.27354598509E+01  0.39582206678E+01  0.11360771299E+02  0.10500000000E+00 0. -1.
</event>
<event>
11    0  0.3467594E-009  0.9118800E+02  0.7816531E-02  0.1126479E+00
         25   -1    0    0    0    0  0.00000000000E+00  0.00000000000E+00  0.99999998245E-14  0.12500000000E+03  0.12500000000E+03 0.  0.
    3000001    1    3    3    0    0 -0.12923599776E+02  0.26572630149E+02  0.22632191635E+02  0.37233589707E+02  0.10000000000E+01 0. -1.
    1000022    2    1    0    0    0 -0.17068185557E+02  0.49199761745E+02  0.33080361820E+02  0.62499999100E+02  0.10000001767E+02 0.  0.
    3000022    2    3    3    0    0 -0.41445857807E+01  0.22627131597E+02  0.10448170185E+02  0.25266409394E+02  0.25001571558E+00 0.  0.
    1000022    2    1    0    0    0  0.17068185557E+02 -0.49199761745E+02 -0.33080361820E+02  0.62500000900E+02  0.10000013013E+02 0.  0.
    3000022    2    5    5    0    0  0.10417933290E+01 -0.10700444250E+02 -0.33079951251E+01  0.11251230045E+02  0.25001058619E+00 0.  0.
        -13    1    4    4    0    0 -0.21441233925E+01  0.12019858133E+02  0.55052761197E+01  0.13393780079E+02  0.10500000000E+00 0.  1.
         13    1    4    4    0    0 -0.20004623882E+01  0.10607273464E+02  0.49428940652E+01  0.11872629314E+02  0.10500000000E+00 0. -1.
    3000001    1    5    5    0    0  0.16026392228E+02 -0.38499317496E+02 -0.29772366695E+02  0.51248770855E+02  0.10000000000E+01 0.  1.
        -13    1    6    6    0    0  0.57290287155E+00 -0.63431133380E+01 -0.19115931726E+01  0.66504524641E+01  0.10500000000E+00 0. -1.
         13    1    6    6    0    0  0.46889045750E+00 -0.43573309116E+01 -0.13964019524E+01  0.46007775807E+01  0.10500000000E+00 0.  1.
</event>
<event>
11    0  0.3467594E-009  0.9118800E+02  0.7816531E-02  0.1126479E+00
         25   -1    0    0    0    0  0.00000000000E+00  0.00000000000E+00  0.99999998245E-14  0.12500000000E+03  0.12500000000E+03 0.  0.
    3000001    1    3    3    0    0  0.32616254022E+02 -0.46022704709E+01 -0.41948830665E+02  0.53345152677E+02  0.10000000000E+01 0.  1.
    1000022    2    1    0    0    0  0.40815270630E+02 -0.51620215302E+01 -0.45975180554E+02  0.62499999829E+02  0.99999984411E+01 0.  0.
    3000022    2    3    3    0    0  0.81990166080E+01 -0.55975105931E+00 -0.40263498888E+01  0.91548471528E+01  0.25007674230E+00 0.  0.
    1000022    2    1    0    0    0 -0.40815270630E+02  0.51620215302E+01  0.45975180554E+02  0.62500000171E+02  0.10000000573E+02 0.  0.
    3000022    2    5    5    0    0 -0.88811030474E+01 -0.15302211121E+01  0.57370396001E+01  0.10686052645E+02  0.25005951545E+00 0.  0.
        -13    1    4    4    0    0  0.30566948444E+01 -0.15214183389E+00 -0.14771313749E+01  0.33999224415E+01  0.10500000000E+00 0.  1.
         13    1    4    4    0    0  0.51423217636E+01 -0.40760922542E+00 -0.25492185139E+01  0.57549247113E+01  0.10500000000E+00 0. -1.
    3000001    1    5    5    0    0 -0.31934167583E+02  0.66922426424E+01  0.40238140954E+02  0.51813947526E+02  0.10000000000E+01 0. -1.
        -13    1    6    6    0    0 -0.53735578613E+01 -0.93678351176E+00  0.35450029582E+01  0.65062092197E+01  0.10500000000E+00 0. -1.
         13    1    6    6    0    0 -0.35075451861E+01 -0.59343760039E+00  0.21920366418E+01  0.41798434250E+01  0.10500000000E+00 0.  1.
</event>
<event>
11    0  0.3467594E-009  0.9118800E+02  0.7816531E-02  0.1126479E+00
         25   -1    0    0    0    0  0.00000000000E+00  0.00000000000E+00  0.99999998245E-14  0.12500000000E+03  0.12500000000E+03 0.  0.
    3000001    1    3    3    0    0 -0.23873006011E+02  0.26961537379E+01 -0.99450401739E+01  0.26021020061E+02  0.10000000000E+01 0. -1.
    1000022    2    1    0    0    0 -0.57796097971E+02  0.14809977487E+02 -0.15701134836E+02  0.62500000635E+02  0.10000003519E+02 0.  0.
    3000022    2    3    3    0    0 -0.33923091960E+02  0.12113823749E+02 -0.57560946626E+01  0.36478980574E+02  0.25000792515E+00 0.  0.
    1000022    2    1    0    0    0  0.57796097971E+02 -0.14809977487E+02  0.15701134836E+02  0.62499999365E+02  0.99999955794E+01 0.  0.
    3000022    2    5    5    0    0  0.24329590964E+02 -0.47147983472E+01  0.17353764686E+01  0.24844161306E+02  0.24999915009E+00 0.  0.
        -13    1    4    4    0    0 -0.17660922987E+02  0.62364196964E+01 -0.29785902582E+01  0.18965340923E+02  0.10500000000E+00 0. -1.
         13    1    4    4    0    0 -0.16262168973E+02  0.58774040530E+01 -0.27775044044E+01  0.17513639651E+02  0.10500000000E+00 0.  1.
    3000001    1    5    5    0    0  0.33466507007E+02 -0.10095179140E+02  0.13965758368E+02  0.37655838059E+02  0.10000000000E+01 0.  1.
        -13    1    6    6    0    0  0.15450835911E+02 -0.30356335340E+01  0.10600765816E+01  0.15782211147E+02  0.10500000000E+00 0. -1.
         13    1    6    6    0    0  0.88787550528E+01 -0.16791648132E+01  0.67529988697E+00  0.90619501596E+01  0.10500000000E+00 0.  1.
</event>
<event>
11    0  0.3467594E-009  0.9118800E+02  0.7816531E-02  0.1126479E+00
         25   -1    0    0    0    0  0.00000000000E+00  0.00000000000E+00  0.99999998245E-14  0.12500000000E+03  0.12500000000E+03 0.  0.
    3000001    1    3    3    0    0  0.25990385130E+01  0.21389865383E+01  0.12140078742E+01  0.37153841957E+01  0.10000000000E+01 0.  1.
    1000022    2    1    0    0    0  0.56832971614E+02  0.23510915751E+01  0.23890075650E+02  0.62499999847E+02  0.99999986087E+01 0.  0.
    3000022    2    3    3    0    0  0.54233933101E+02  0.21210503680E+00  0.22676067776E+02  0.58784615651E+02  0.24999857172E+00 0.  0.
    1000022    2    1    0    0    0 -0.56832971614E+02 -0.23510915751E+01 -0.23890075650E+02  0.62500000153E+02  0.10000000525E+02 0.  0.
    3000022    2    5    5    0    0 -0.33046611150E+02  0.22154438006E+01 -0.10183199171E+02  0.34651792809E+02  0.24999958740E+00 0.  0.
        -13    1    4    4    0    0  0.29634621688E+02  0.50076806611E-01  0.12403060639E+02  0.32125694522E+02  0.10500000000E+00 0.  1.
         13    1    4    4    0    0  0.24599311413E+02  0.16202823019E+00  0.10273007137E+02  0.26658921129E+02  0.10500000000E+00 0. -1.
    3000001    1    5    5    0    0 -0.23786360464E+02 -0.45665353757E+01 -0.13706876480E+02  0.27848207344E+02  0.10000000000E+01 0. -1.
        -13    1    6    6    0    0 -0.10631648748E+02  0.66190082679E+00 -0.32687470555E+01  0.11142970884E+02  0.10500000000E+00 0.  1.
         13    1    6    6    0    0 -0.22414962402E+02  0.15535429738E+01 -0.69144521152E+01  0.23508821925E+02  0.10500000000E+00 0. -1.
</event>
<event>
11    0  0.3467594E-009  0.9118800E+02  0.7816531E-02  0.1126479E+00
         25   -1    0    0    0    0  0.00000000000E+00  0.00000000000E+00  0.99999998245E-14  0.12500000000E+03  0.12500000000E+03 0.  0.
    3000001    1    3    3    0    0 -0.29898747920E+01 -0.85792570462E+01  0.12010287644E+02  0.15092713872E+02  0.10000000000E+01 0. -1.
    1000022    2    1    0    0    0 -0.16008593455E+02 -0.19838851005E+02  0.56181802957E+02  0.62499999773E+02  0.99999957271E+01 0.  0.
    3000022    2    3    3    0    0 -0.13018718663E+02 -0.11259593959E+02  0.44171515313E+02  0.47407285901E+02  0.24999941461E+00 0.  0.
    1000022    2    1    0    0    0  0.16008593455E+02  0.19838851005E+02 -0.56181802957E+02  0.62500000227E+02  0.99999985601E+01 0.  0.
    3000022    2    5    5    0    0  0.16922806889E+02  0.18274635961E+02 -0.48213700555E+02  0.54267551575E+02  0.25004047885E+00 0.  0.
        -13    1    4    4    0    0 -0.83306676092E+01 -0.72799193685E+01  0.28419420846E+02  0.30497077812E+02  0.10500000000E+00 0.  1.
         13    1    4    4    0    0 -0.46880510535E+01 -0.39796745903E+01  0.15752094467E+02  0.16910208089E+02  0.10500000000E+00 0. -1.
    3000001    1    5    5    0    0 -0.91421343425E+00  0.15642150439E+01 -0.79681024019E+01  0.82324486512E+01  0.10000000000E+01 0. -1.
        -13    1    6    6    0    0  0.10219583358E+02  0.11072722529E+02 -0.29042694612E+02  0.32719018988E+02  0.10500000000E+00 0.  1.
         13    1    6    6    0    0  0.67032235307E+01  0.72019134318E+01 -0.19171005944E+02  0.21548532588E+02  0.10500000000E+00 0. -1.
</event>
<event>
11    0  0.3467594E-009  0.9118800E+02  0.7816531E-02  0.1126479E+00
         25   -1    0    0    0    0  0.00000000000E+00  0.00000000000E+00  0.99999998245E-14  0.12500000000E+03  0.12500000000E+03 0.  0.
    3000001    1    3    3    0    0 -0.62496698347E+01 -0.20116252952E+01  0.39205813087E+01  0.77120663358E+01  0.10000000000E+01 0. -1.
    1000022    2    1    0    0    0 -0.52671268640E+02  0.91395260082E+01  0.30797011730E+02  0.62500003152E+02  0.10000049330E+02 0.  0.
    3000022    2    3    3    0    0 -0.46421598806E+02  0.11151151303E+02  0.26876430422E+02  0.54787936816E+02  0.24999451737E+00 0.  0.
    1000022    2    1    0    0    0  0.52671268640E+02 -0.91395260082E+01 -0.30797011730E+02  0.62499996848E+02  0.10000009933E+02 0.  0.
    3000022    2    5    5    0    0  0.12558207420E+01  0.11468949354E+00 -0.31129674231E+01  0.33679827074E+01  0.25000384821E+00 0.  0.
        -13    1    4    4    0    0 -0.29432177638E+02  0.71179476947E+01  0.17004942372E+02  0.34728912306E+02  0.10500000000E+00 0. -1.
         13    1    4    4    0    0 -0.16989421168E+02  0.40332036087E+01  0.98714880497E+01  0.20059024510E+02  0.10500000000E+00 0.  1.
    3000001    1    5    5    0    0  0.51415447898E+02 -0.92542155017E+01 -0.27684044307E+02  0.59132014141E+02  0.10000000000E+01 0.  1.
        -13    1    6    6    0    0  0.72130313597E+00  0.12171051776E+00 -0.18797094015E+01  0.20197584257E+01  0.10500000000E+00 0.  1.
         13    1    6    6    0    0  0.53451760607E+00 -0.70210242132E-02 -0.12332580216E+01  0.13482242817E+01  0.10500000000E+00 0.  1.
</event>
<event>
11    0  0.3467594E-009  0.9118800E+02  0.7816531E-02  0.1126479E+00
         25   -1    0    0    0    0  0.00000000000E+00  0.00000000000E+00  0.99999998245E-14  0.12500000000E+03  0.12500000000E+03 0.  0.
    3000001    1    3    3    0    0 -0.55514844793E+00  0.69372602855E+01  0.26270921101E+02  0.27195497156E+02  0.10000000000E+01 0.  1.
    1000022    2    1    0    0    0 -0.27420898962E+01  0.26130950116E+02  0.55820287591E+02  0.62500001098E+02  0.10000000975E+02 0.  0.
    3000022    2    3    3    0    0 -0.21869414482E+01  0.19193689831E+02  0.29549366490E+02  0.35304503942E+02  0.24999279738E+00 0.  0.
    1000022    2    1    0    0    0  0.27420898962E+01 -0.26130950116E+02 -0.55820287591E+02  0.62499998902E+02  0.99999872499E+01 0.  0.
    3000022    2    5    5    0    0  0.44610790046E+01 -0.17588948394E+02 -0.45322066536E+02  0.48820329231E+02  0.24999928433E+00 0.  0.
        -13    1    4    4    0    0 -0.16112929706E+01  0.13846178282E+02  0.21284272562E+02  0.25442959764E+02  0.10500000000E+00 0. -1.
         13    1    4    4    0    0 -0.57564847759E+00  0.53475115485E+01  0.82650939286E+01  0.98615441783E+01  0.10500000000E+00 0.  1.
    3000001    1    5    5    0    0 -0.17189891084E+01 -0.85420017223E+01 -0.10498221055E+02  0.13679669671E+02  0.10000000000E+01 0. -1.
        -13    1    6    6    0    0  0.19530488558E+01 -0.79458045624E+01 -0.20359908767E+02  0.21942814769E+02  0.10500000000E+00 0.  1.
         13    1    6    6    0    0  0.25080301488E+01 -0.96431438312E+01 -0.24962157769E+02  0.26877514462E+02  0.10500000000E+00 0. -1.
</event>
<event>
11    0  0.3467594E-009  0.9118800E+02  0.7816531E-02  0.1126479E+00
         25   -1    0    0    0    0  0.00000000000E+00  0.00000000000E+00  0.99999998245E-14  0.12500000000E+03  0.12500000000E+03 0.  0.
    3000001    1    3    3    0    0  0.14925071012E+02  0.24434402371E+02 -0.32360043192E+02  0.43220020354E+02  0.10000000000E+01 0.  1.
    1000022    2    1    0    0    0  0.19746815346E+02  0.29952030228E+02 -0.50191523745E+02  0.62500000716E+02  0.10000010130E+02 0.  0.
    3000022    2    3    3    0    0  0.48217443341E+01  0.55176278561E+01 -0.17831480552E+02  0.19279980362E+02  0.25001699463E+00 0.  0.
    1000022    2    1    0    0    0 -0.19746815346E+02 -0.29952030228E+02  0.50191523745E+02  0.62499999284E+02  0.10000001184E+02 0.  0.
    3000022    2    5    5    0    0 -0.11141160814E+02 -0.13097446966E+02  0.31464266843E+02  0.35857093702E+02  0.24999885861E+00 0.  0.
        -13    1    4    4    0    0  0.32976874052E+01  0.38080957331E+01 -0.12140182055E+02  0.13144252762E+02  0.10500000000E+00 0. -1.
         13    1    4    4    0    0  0.15240569288E+01  0.17095321230E+01 -0.56912984971E+01  0.61357276003E+01  0.10500000000E+00 0.  1.
    3000001    1    5    5    0    0 -0.86056545317E+01 -0.16854583262E+02  0.18727256901E+02  0.26642905583E+02  0.10000000000E+01 0. -1.
        -13    1    6    6    0    0 -0.60096258993E+01 -0.71675363774E+01  0.17099641856E+02  0.19490971186E+02  0.10500000000E+00 0. -1.
         13    1    6    6    0    0 -0.51315349146E+01 -0.59299105886E+01  0.14364624987E+02  0.16366122515E+02  0.10500000000E+00 0.  1.
</event>
<event>
11    0  0.3467594E-009  0.9118800E+02  0.7816531E-02  0.1126479E+00
         25   -1    0    0    0    0  0.00000000000E+00  0.00000000000E+00  0.99999998245E-14  0.12500000000E+03  0.12500000000E+03 0.  0.
    3000001    1    3    3    0    0  0.18296943829E+01  0.49426557236E+01  0.10623165931E+02  0.11900810121E+02  0.10000000000E+01 0.  1.
    1000022    2    1    0    0    0  0.23135042717E+02  0.35734081712E+02  0.44655292799E+02  0.62499999296E+02  0.99999969856E+01 0.  0.
    3000022    2    3    3    0    0  0.21305348334E+02  0.30791425988E+02  0.34032126868E+02  0.50599189175E+02  0.25000796203E+00 0.  0.
    1000022    2    1    0    0    0 -0.23135042717E+02 -0.35734081712E+02 -0.44655292799E+02  0.62500000704E+02  0.10000005787E+02 0.  0.
    3000022    2    5    5    0    0 -0.13794929060E+02 -0.13387224618E+02 -0.16382988298E+02  0.25258317781E+02  0.24992167092E+00 0.  0.
        -13    1    4    4    0    0  0.70834132742E+01  0.10144463797E+02  0.11240199819E+02  0.16716399322E+02  0.10500000000E+00 0. -1.
         13    1    4    4    0    0  0.14221935060E+02  0.20646962191E+02  0.22791927050E+02  0.33882789853E+02  0.10500000000E+00 0.  1.
    3000001    1    5    5    0    0 -0.93401136573E+01 -0.22346857094E+02 -0.28272304501E+02  0.37241682923E+02  0.10000000000E+01 0. -1.
        -13    1    6    6    0    0 -0.44229905242E+01 -0.43222200140E+01 -0.53318791472E+01  0.81660511428E+01  0.10500000000E+00 0. -1.
         13    1    6    6    0    0 -0.93719385357E+01 -0.90650046039E+01 -0.11051109151E+02  0.17092266639E+02  0.10500000000E+00 0.  1.
</event>
<event>
11    0  0.3467594E-009  0.9118800E+02  0.7816531E-02  0.1126479E+00
         25   -1    0    0    0    0  0.00000000000E+00  0.00000000000E+00  0.99999998245E-14  0.12500000000E+03  0.12500000000E+03 0.  0.
    3000001    1    3    3    0    0  0.46365174000E+01  0.38286185074E+01 -0.29578831270E+01  0.67752996885E+01  0.10000000000E+01 0. -1.
    1000022    2    1    0    0    0  0.53848103810E+02  0.29970461318E+02 -0.28988679166E+01  0.62499999489E+02  0.99999832691E+01 0.  0.
    3000022    2    3    3    0    0  0.49211586410E+02  0.26141842810E+02  0.59015210394E-01  0.55724699801E+02  0.25000508677E+00 0.  0.
    1000022    2    1    0    0    0 -0.53848103810E+02 -0.29970461318E+02  0.28988679166E+01  0.62500000511E+02  0.99999896538E+01 0.  0.
    3000022    2    5    5    0    0 -0.39442682703E+02 -0.21630530565E+02  0.64653482631E+01  0.45447423453E+02  0.24999807849E+00 0.  0.
        -13    1    4    4    0    0  0.23156070910E+02  0.12355722429E+02  0.74661409971E-01  0.26246601609E+02  0.10500000000E+00 0. -1.
         13    1    4    4    0    0  0.26055515501E+02  0.13786120382E+02 -0.15646199577E-01  0.29478098192E+02  0.10500000000E+00 0.  1.
    3000001    1    5    5    0    0 -0.14405421108E+02 -0.83399307532E+01 -0.35664803466E+01  0.17052577058E+02  0.10000000000E+01 0. -1.
        -13    1    6    6    0    0 -0.26623239884E+02 -0.14650001096E+02  0.43955418408E+01  0.30704254544E+02  0.10500000000E+00 0.  1.
         13    1    6    6    0    0 -0.12819442818E+02 -0.69805294688E+01  0.20698064223E+01  0.14743168908E+02  0.10500000000E+00 0. -1.
</event>
<event>
11    0  0.3467594E-009  0.9118800E+02  0.7816531E-02  0.1126479E+00
         25   -1    0    0    0    0  0.00000000000E+00  0.00000000000E+00  0.99999998245E-14  0.12500000000E+03  0.12500000000E+03 0.  0.
    3000001    1    3    3    0    0 -0.31473374221E+01  0.39247950499E+01 -0.15173312662E+02  0.16016840081E+02  0.10000000000E+01 0.  1.
    1000022    2    1    0    0    0 -0.18158450038E+02 -0.30681049150E+00 -0.58961228382E+02  0.62499998688E+02  0.99999971571E+01 0.  0.
    3000022    2    3    3    0    0 -0.15011112616E+02 -0.42316055414E+01 -0.43787915721E+02  0.46483158607E+02  0.24996703941E+00 0.  0.
    1000022    2    1    0    0    0  0.18158450038E+02  0.30681049150E+00  0.58961228382E+02  0.62500001312E+02  0.10000013562E+02 0.  0.
    3000022    2    5    5    0    0  0.66989831830E+01 -0.46277265709E+01  0.25787118362E+02  0.27043117464E+02  0.24999967355E+00 0.  0.
        -13    1    4    4    0    0 -0.59264408248E+01 -0.16069883230E+01 -0.17274968219E+02  0.18334139311E+02  0.10500000000E+00 0. -1.
         13    1    4    4    0    0 -0.90846717908E+01 -0.26246172184E+01 -0.26512947502E+02  0.28149019296E+02  0.10500000000E+00 0.  1.
    3000001    1    5    5    0    0  0.11459466855E+02  0.49345370624E+01  0.33174110020E+02  0.35456883848E+02  0.10000000000E+01 0.  1.
        -13    1    6    6    0    0  0.27760928443E+01 -0.18424657228E+01  0.10605216660E+02  0.11116789862E+02  0.10500000000E+00 0. -1.
         13    1    6    6    0    0  0.39228903387E+01 -0.27852608481E+01  0.15181901702E+02  0.15926327603E+02  0.10500000000E+00 0.  1.
</event>
<event>
11    0  0.3467594E-009  0.9118800E+02  0.7816531E-02  0.1126479E+00
         25   -1    0    0    0    0  0.00000000000E+00  0.00000000000E+00  0.99999998245E-14  0.12500000000E+03  0.12500000000E+03 0.  0.
    3000001    1    3    3    0    0  0.14948133966E+02  0.38970671951E+02  0.18540007687E+02  0.45682511604E+02  0.10000000000E+01 0. -1.
    1000022    2    1    0    0    0  0.17956931726E+02  0.55420245305E+02  0.20307510228E+02  0.62499999887E+02  0.10000001377E+02 0.  0.
    3000022    2    3    3    0    0  0.30087977599E+01  0.16449573354E+02  0.17675025410E+01  0.16817488283E+02  0.25003888120E+00 0.  0.
    1000022    2    1    0    0    0 -0.17956931726E+02 -0.55420245305E+02 -0.20307510228E+02  0.62500000113E+02  0.10000002790E+02 0.  0.
    3000022    2    5    5    0    0 -0.17245289323E+02 -0.53586386953E+02 -0.21153373454E+02  0.60136748970E+02  0.24999552386E+00 0.  0.
        -13    1    4    4    0    0  0.13931308658E+01  0.77628906760E+01  0.89610134272E+00  0.79383441518E+01  0.10500000000E+00 0. -1.
         13    1    4    4    0    0  0.16156668941E+01  0.86866826779E+01  0.87140119832E+00  0.88791441315E+01  0.10500000000E+00 0.  1.
    3000001    1    5    5    0    0 -0.71164240364E+00 -0.18338583519E+01  0.84586322619E+00  0.23632511426E+01  0.10000000000E+01 0. -1.
        -13    1    6    6    0    0 -0.42291950361E+01 -0.13206821870E+02 -0.52253107567E+01  0.14819619835E+02  0.10500000000E+00 0.  1.
         13    1    6    6    0    0 -0.13016094286E+02 -0.40379565083E+02 -0.15928062698E+02  0.45317129135E+02  0.10500000000E+00 0. -1.
</event>
<event>
11    0  0.3467594E-009  0.9118800E+02  0.7816531E-02  0.1126479E+00
         25   -1    0    0    0    0  0.00000000000E+00  0.00000000000E+00  0.99999998245E-14  0.12500000000E+03  0.12500000000E+03 0.  0.
    3000001    1    3    3    0    0 -0.10070386220E+02  0.24290085278E+02  0.20465632632E+02  0.33335612196E+02  0.10000000000E+01 0.  1.
    1000022    2    1    0    0    0 -0.27124371986E+02  0.41872148201E+02  0.36293824657E+02  0.62500000224E+02  0.99999984573E+01 0.  0.
    3000022    2    3    3    0    0 -0.17053985766E+02  0.17582062924E+02  0.15828192024E+02  0.29164388028E+02  0.24999828699E+00 0.  0.
    1000022    2    1    0    0    0  0.27124371986E+02 -0.41872148201E+02 -0.36293824657E+02  0.62499999776E+02  0.99999956569E+01 0.  0.
    3000022    2    5    5    0    0  0.21982674059E+02 -0.39311148799E+02 -0.32541787198E+02  0.55566489799E+02  0.24999164180E+00 0.  0.
        -13    1    4    4    0    0 -0.50338794710E+01  0.51365891667E+01  0.46193682723E+01  0.85483377935E+01  0.10500000000E+00 0. -1.
         13    1    4    4    0    0 -0.12020106295E+02  0.12445473757E+02  0.11208823752E+02  0.20616050235E+02  0.10500000000E+00 0.  1.
    3000001    1    5    5    0    0  0.51416979270E+01 -0.25609994021E+01 -0.37520374587E+01  0.69335099770E+01  0.10000000000E+01 0.  1.
        -13    1    6    6    0    0  0.15462226459E+02 -0.27605394472E+02 -0.22909007209E+02  0.39063690139E+02  0.10500000000E+00 0.  1.
         13    1    6    6    0    0  0.65204476001E+01 -0.11705754328E+02 -0.96327799895E+01  0.16502799660E+02  0.10500000000E+00 0. -1.
</event>
<event>
11    0  0.3467594E-009  0.9118800E+02  0.7816531E-02  0.1126479E+00
         25   -1    0    0    0    0  0.00000000000E+00  0.00000000000E+00  0.99999998245E-14  0.12500000000E+03  0.12500000000E+03 0.  0.
    3000001    1    3    3    0    0  0.51208278656E+02  0.95272014450E+01  0.93663591864E+01  0.52931881269E+02  0.10000000000E+01 0.  1.
    1000022    2    1    0    0    0  0.59040795406E+02  0.10019198028E+02  0.14834083887E+02  0.62499999813E+02  0.10000004026E+02 0.  0.
    3000022    2    3    3    0    0  0.78325167497E+01  0.49199658333E+00  0.54677247010E+01  0.95681185434E+01  0.24999956403E+00 0.  0.
    1000022    2    1    0    0    0 -0.59040795406E+02 -0.10019198028E+02 -0.14834083887E+02  0.62500000187E+02  0.10000006366E+02 0.  0.
    3000022    2    5    5    0    0 -0.45330248695E+02 -0.11717689611E+02 -0.10469874453E+02  0.47977249458E+02  0.24999573279E+00 0.  0.
        -13    1    4    4    0    0  0.39790705417E+01  0.30505178398E+00  0.28283620248E+01  0.48925162963E+01  0.10500000000E+00 0.  1.
         13    1    4    4    0    0  0.38534462080E+01  0.18694479936E+00  0.26393626762E+01  0.46756022471E+01  0.10500000000E+00 0. -1.
    3000001    1    5    5    0    0 -0.13710546711E+02  0.16984915830E+01 -0.43642094346E+01  0.14522750729E+02  0.10000000000E+01 0. -1.
        -13    1    6    6    0    0 -0.23046675770E+02 -0.60200407274E+01 -0.53577328603E+01  0.24415291946E+02  0.10500000000E+00 0.  1.
         13    1    6    6    0    0 -0.22283572926E+02 -0.56976488840E+01 -0.51121415925E+01  0.23561957512E+02  0.10500000000E+00 0. -1.
</event>
<event>
11    0  0.3467594E-009  0.9118800E+02  0.7816531E-02  0.1126479E+00
         25   -1    0    0    0    0  0.00000000000E+00  0.00000000000E+00  0.99999998245E-14  0.12500000000E+03  0.12500000000E+03 0.  0.
    3000001    1    3    3    0    0 -0.36013921263E+02  0.39939048994E+02  0.82196907416E+01  0.54412254825E+02  0.10000000000E+01 0. -1.
    1000022    2    1    0    0    0 -0.42476940749E+02  0.43139661689E+02  0.11871347876E+02  0.62500001210E+02  0.10000017240E+02 0.  0.
    3000022    2    3    3    0    0 -0.64630194862E+01  0.32006126951E+01  0.36516571344E+01  0.80877463849E+01  0.24999851042E+00 0.  0.
    1000022    2    1    0    0    0  0.42476940749E+02 -0.43139661689E+02 -0.11871347876E+02  0.62499998790E+02  0.10000002119E+02 0.  0.
    3000022    2    5    5    0    0  0.19385432739E+02 -0.20525959055E+02 -0.10538332923E+02  0.30136837358E+02  0.25001516009E+00 0.  0.
        -13    1    4    4    0    0 -0.15391921026E+01  0.78218848669E+00  0.88238557566E+00  0.19417931047E+01  0.10500000000E+00 0. -1.
         13    1    4    4    0    0 -0.49238273836E+01  0.24184242084E+01  0.27692715587E+01  0.61459532801E+01  0.10500000000E+00 0.  1.
    3000001    1    5    5    0    0  0.23091508010E+02 -0.22613702634E+02 -0.13330149531E+01  0.32363161432E+02  0.10000000000E+01 0.  1.
        -13    1    6    6    0    0  0.13621499157E+02 -0.14487478870E+02 -0.74167645877E+01  0.21223847560E+02  0.10500000000E+00 0. -1.
         13    1    6    6    0    0  0.57639335817E+01 -0.60384801849E+01 -0.31215683352E+01  0.89129897985E+01  0.10500000000E+00 0.  1.
</event>
<event>
11    0  0.3467594E-009  0.9118800E+02  0.7816531E-02  0.1126479E+00
         25   -1    0    0    0    0  0.00000000000E+00  0.00000000000E+00  0.99999998245E-14  0.12500000000E+03  0.12500000000E+03 0.  0.
    3000001    1    3    3    0    0 -0.31406501584E+01 -0.31711719338E+01  0.19960978849E+01  0.49904330090E+01  0.10000000000E+01 0. -1.
    1000022    2    1    0    0    0 -0.11445594462E+02 -0.54843762932E+02  0.25834281342E+02  0.62499999625E+02  0.99999947797E+01 0.  0.
    3000022    2    3    3    0    0 -0.83049443035E+01 -0.51672590998E+02  0.23838183458E+02  0.57509566616E+02  0.25000305815E+00 0.  0.
    1000022    2    1    0    0    0  0.11445594462E+02  0.54843762932E+02 -0.25834281342E+02  0.62500000375E+02  0.99999994617E+01 0.  0.
    3000022    2    5    5    0    0  0.10661219518E+02  0.43925311612E+02 -0.24536515911E+02  0.51431485641E+02  0.25000087229E+00 0.  0.
        -13    1    4    4    0    0 -0.41593103253E+01 -0.25710398165E+02  0.11794473659E+02  0.28590996311E+02  0.10500000000E+00 0. -1.
         13    1    4    4    0    0 -0.41456339782E+01 -0.25962192833E+02  0.12043709798E+02  0.28918570305E+02  0.10500000000E+00 0.  1.
    3000001    1    5    5    0    0  0.78437494363E+00  0.10918451320E+02 -0.12977654314E+01  0.11068514733E+02  0.10000000000E+01 0. -1.
        -13    1    6    6    0    0  0.63682657017E+01  0.26123799964E+02 -0.14530638164E+02  0.30564001752E+02  0.10500000000E+00 0.  1.
         13    1    6    6    0    0  0.42929538166E+01  0.17801511648E+02 -0.10005877747E+02  0.20867483890E+02  0.10500000000E+00 0. -1.
</event>
<event>
11    0  0.3467594E-009  0.9118800E+02  0.7816531E-02  0.1126479E+00
         25   -1    0    0    0    0  0.00000000000E+00  0.00000000000E+00  0.99999998245E-14  0.12500000000E+03  0.12500000000E+03 0.  0.
    3000001    1    3    3    0    0  0.14404653267E+01 -0.85629870291E+00  0.10156332265E+00  0.19540990084E+01  0.10000000000E+01 0.  1.
    1000022    2    1    0    0    0  0.47603260099E+02 -0.81633838597E+01 -0.38386698571E+02  0.62499998321E+02  0.99999977425E+01 0.  0.
    3000022    2    3    3    0    0  0.46162794772E+02 -0.73070851568E+01 -0.38488261894E+02  0.60545899313E+02  0.25001059912E+00 0.  0.
    1000022    2    1    0    0    0 -0.47603260099E+02  0.81633838597E+01  0.38386698571E+02  0.62500001679E+02  0.10000018725E+02 0.  0.
    3000022    2    5    5    0    0 -0.43769482852E+02  0.85138289244E+01  0.37845421469E+02  0.58485821734E+02  0.25001134518E+00 0.  0.
        -13    1    4    4    0    0  0.18335594154E+02 -0.29033489482E+01 -0.15206247749E+02  0.23997175744E+02  0.10500000000E+00 0.  1.
         13    1    4    4    0    0  0.27827200618E+02 -0.44037362086E+01 -0.23282014145E+02  0.36548723569E+02  0.10500000000E+00 0. -1.
    3000001    1    5    5    0    0 -0.38337772470E+01 -0.35044506468E+00  0.54127710231E+00  0.40141799442E+01  0.10000000000E+01 0. -1.
        -13    1    6    6    0    0 -0.31163376173E+02  0.61040821961E+01  0.26962367218E+02  0.41658085709E+02  0.10500000000E+00 0.  1.
         13    1    6    6    0    0 -0.12606106679E+02  0.24097467282E+01  0.10883054251E+02  0.16827736025E+02  0.10500000000E+00 0. -1.
</event>
<event>
11    0  0.3467594E-009  0.9118800E+02  0.7816531E-02  0.1126479E+00
         25   -1    0    0    0    0  0.00000000000E+00  0.00000000000E+00  0.99999998245E-14  0.12500000000E+03  0.12500000000E+03 0.  0.
    3000001    1    3    3    0    0 -0.16792144996E+02 -0.61863987871E+01 -0.72068972818E+01  0.19318049383E+02  0.10000000000E+01 0.  1.
    1000022    2    1    0    0    0 -0.53478439398E+02 -0.69343088884E+01 -0.29970352358E+02  0.62500000825E+02  0.99999981183E+01 0.  0.
    3000022    2    3    3    0    0 -0.36686294402E+02 -0.74791010125E+00 -0.22763455076E+02  0.43181951442E+02  0.24995365300E+00 0.  0.
    1000022    2    1    0    0    0  0.53478439398E+02  0.69343088884E+01  0.29970352358E+02  0.62499999175E+02  0.99999878088E+01 0.  0.
    3000022    2    5    5    0    0  0.26116382366E+02  0.80146915382E+01  0.12860849707E+02  0.30195441096E+02  0.24999892504E+00 0.  0.
        -13    1    4    4    0    0 -0.18644910298E+02 -0.39639589000E+00 -0.11491776679E+02  0.21905747327E+02  0.10500000000E+00 0. -1.
         13    1    4    4    0    0 -0.18041384104E+02 -0.35151421125E+00 -0.11271678397E+02  0.21276204115E+02  0.10500000000E+00 0.  1.
    3000001    1    5    5    0    0  0.27362057033E+02 -0.10803826498E+01  0.17109502651E+02  0.32304558079E+02  0.10000000000E+01 0.  1.
        -13    1    6    6    0    0  0.10698766145E+02  0.32571511554E+01  0.51999897615E+01  0.12333837569E+02  0.10500000000E+00 0. -1.
         13    1    6    6    0    0  0.15417616221E+02  0.47575403828E+01  0.76608599457E+01  0.17861603527E+02  0.10500000000E+00 0.  1.
</event>
<event>
11    0  0.3467594E-009  0.9118800E+02  0.7816531E-02  0.1126479E+00
         25   -1    0    0    0    0  0.00000000000E+00  0.00000000000E+00  0.99999998245E-14  0.12500000000E+03  0.12500000000E+03 0.  0.
    3000001    1    3    3    0    0  0.15617792054E+02  0.29144527391E+02  0.39728915229E+01  0.33318204822E+02  0.10000000000E+01 0.  1.
    1000022    2    1    0    0    0  0.36243900393E+02  0.49785017278E+02  0.37525529945E+01  0.62500000891E+02  0.10000009815E+02 0.  0.
    3000022    2    3    3    0    0  0.20626108339E+02  0.20640489886E+02 -0.22033852846E+00  0.29181796069E+02  0.25000952341E+00 0.  0.
    1000022    2    1    0    0    0 -0.36243900393E+02 -0.49785017278E+02 -0.37525529945E+01  0.62499999109E+02  0.99999986800E+01 0.  0.
    3000022    2    5    5    0    0 -0.30777984950E+02 -0.35349288320E+02 -0.38757002905E+01  0.47031267183E+02  0.24999538534E+00 0.  0.
        -13    1    4    4    0    0  0.13342565007E+02  0.13406661385E+02 -0.18439598303E+00  0.18915803903E+02  0.10500000000E+00 0.  1.
         13    1    4    4    0    0  0.72835433321E+01  0.72338285020E+01 -0.35942545427E-01  0.10265992165E+02  0.10500000000E+00 0. -1.
    3000001    1    5    5    0    0 -0.54659154429E+01 -0.14435728957E+02  0.12314729609E+00  0.15468731927E+02  0.10000000000E+01 0. -1.
        -13    1    6    6    0    0 -0.11593613151E+02 -0.13406028259E+02 -0.14775272630E+01  0.17785600113E+02  0.10500000000E+00 0. -1.
         13    1    6    6    0    0 -0.19184371800E+02 -0.21943260062E+02 -0.23981730275E+01  0.29245667070E+02  0.10500000000E+00 0.  1.
</event>
<event>
11    0  0.3467594E-009  0.9118800E+02  0.7816531E-02  0.1126479E+00
         25   -1    0    0    0    0  0.00000000000E+00  0.00000000000E+00  0.99999998245E-14  0.12500000000E+03  0.12500000000E+03 0.  0.
    3000001    1    3    3    0    0 -0.15079848440E+01  0.12975774985E+01 -0.81618696298E+01  0.84601324758E+01  0.10000000000E+01 0.  1.
    1000022    2    1    0    0    0 -0.58743074794E+01 -0.14143564916E+02 -0.59763720236E+02  0.62499998680E+02  0.99999830790E+01 0.  0.
    3000022    2    3    3    0    0 -0.43663226354E+01 -0.15441142414E+02 -0.51601850607E+02  0.54039866204E+02  0.25000179068E+00 0.  0.
    1000022    2    1    0    0    0  0.58743074794E+01  0.14143564916E+02  0.59763720236E+02  0.62500001320E+02  0.99999995823E+01 0.  0.
    3000022    2    5    5    0    0  0.29386143674E+01 -0.65654625324E+00  0.13245005382E+02  0.13585254910E+02  0.24995203604E+00 0.  0.
        -13    1    4    4    0    0 -0.32697870657E+01 -0.11547998555E+02 -0.38683955365E+02  0.40503175255E+02  0.10500000000E+00 0. -1.
         13    1    4    4    0    0 -0.10965355697E+01 -0.38931438594E+01 -0.12917895242E+02  0.13536690949E+02  0.10500000000E+00 0.  1.
    3000001    1    5    5    0    0  0.29356931120E+01  0.14800111169E+02  0.46518714855E+02  0.48914746411E+02  0.10000000000E+01 0.  1.
        -13    1    6    6    0    0  0.22019498269E+01 -0.51027283957E+00  0.98322740447E+01  0.10089281407E+02  0.10500000000E+00 0. -1.
         13    1    6    6    0    0  0.73666454049E+00 -0.14627341367E+00  0.34127313369E+01  0.34959735031E+01  0.10500000000E+00 0.  1.
</event>
<event>
11    0  0.3467594E-009  0.9118800E+02  0.7816531E-02  0.1126479E+00
         25   -1    0    0    0    0  0.00000000000E+00  0.00000000000E+00  0.99999998245E-14  0.12500000000E+03  0.12500000000E+03 0.  0.
    3000001    1    3    3    0    0  0.41674906933E+01  0.45848339957E+01  0.94340463822E+01  0.11330927261E+02  0.10000000000E+01 0.  1.
    1000022    2    1    0    0    0  0.17121582699E+02  0.42153537198E+02  0.41667501068E+02  0.62500000553E+02  0.10000006573E+02 0.  0.
    3000022    2    3    3    0    0  0.12954092006E+02  0.37568703202E+02  0.32233454686E+02  0.51169073292E+02  0.25000123064E+00 0.  0.
    1000022    2    1    0    0    0 -0.17121582699E+02 -0.42153537198E+02 -0.41667501068E+02  0.62499999447E+02  0.99999996610E+01 0.  0.
    3000022    2    5    5    0    0 -0.83447053094E+01 -0.10218778362E+02 -0.14913787834E+02  0.19913339911E+02  0.25000190890E+00 0.  0.
        -13    1    4    4    0    0  0.64803426535E+01  0.18999583385E+02  0.16295742143E+02  0.25856164578E+02  0.10500000000E+00 0. -1.
         13    1    4    4    0    0  0.64737493526E+01  0.18569119817E+02  0.15937712543E+02  0.25312908714E+02  0.10500000000E+00 0.  1.
    3000001    1    5    5    0    0 -0.87768773900E+01 -0.31934758835E+02 -0.26753713234E+02  0.42586659536E+02  0.10000000000E+01 0.  1.
        -13    1    6    6    0    0 -0.63254551624E+01 -0.77746670021E+01 -0.11340175166E+02  0.15134973663E+02  0.10500000000E+00 0. -1.
         13    1    6    6    0    0 -0.20192501470E+01 -0.24441113603E+01 -0.35736126683E+01  0.47783662481E+01  0.10500000000E+00 0.  1.
</event>
<event>
11    0  0.3467594E-009  0.9118800E+02  0.7816531E-02  0.1126479E+00
         25   -1    0    0    0    0  0.00000000000E+00  0.00000000000E+00  0.99999998245E-14  0.12500000000E+03  0.12500000000E+03 0.  0.
    3000001    1    3    3    0    0 -0.31596631674E+02 -0.43352554958E+01  0.51530120274E+02  0.60609362881E+02  0.10000000000E+01 0. -1.
    1000022    2    1    0    0    0 -0.33364216436E+02 -0.49444206637E+01  0.51658802905E+02  0.62500000364E+02  0.99999946926E+01 0.  0.
    3000022    2    3    3    0    0 -0.17675847617E+01 -0.60916516790E+00  0.12868263113E+00  0.18906374834E+01  0.25002556328E+00 0.  0.
    1000022    2    1    0    0    0  0.33364216436E+02  0.49444206637E+01 -0.51658802905E+02  0.62499999636E+02  0.99999901421E+01 0.  0.
    3000022    2    5    5    0    0  0.20414953418E+02 -0.60822166255E+00 -0.36161626886E+02  0.41531506269E+02  0.24999459785E+00 0.  0.
        -13    1    4    4    0    0 -0.87962487854E+00 -0.24114046585E+00  0.96756001378E-01  0.92318761637E+00  0.10500000000E+00 0. -1.
         13    1    4    4    0    0 -0.88795988318E+00 -0.36802470205E+00  0.31926629749E-01  0.96744986700E+00  0.10500000000E+00 0.  1.
    3000001    1    5    5    0    0  0.12949263018E+02  0.55526423263E+01 -0.15497176019E+02  0.20968493367E+02  0.10000000000E+01 0. -1.
        -13    1    6    6    0    0  0.13761632946E+02 -0.37322980993E+00 -0.24448383094E+02  0.28058088009E+02  0.10500000000E+00 0. -1.
         13    1    6    6    0    0  0.66533204720E+01 -0.23499185262E+00 -0.11713243792E+02  0.13473418260E+02  0.10500000000E+00 0.  1.
</event>
<event>
11    0  0.3467594E-009  0.9118800E+02  0.7816531E-02  0.1126479E+00
         25   -1    0    0    0    0  0.00000000000E+00  0.00000000000E+00  0.99999998245E-14  0.12500000000E+03  0.12500000000E+03 0.  0.
    3000001    1    3    3    0    0  0.90031431232E+01 -0.16828654663E+02 -0.27531534292E+02  0.33514856174E+02  0.10000000000E+01 0. -1.
    1000022    2    1    0    0    0  0.24317101766E+02 -0.26188265110E+02 -0.50290190886E+02  0.62500000386E+02  0.10000004059E+02 0.  0.
    3000022    2    3    3    0    0  0.15313958642E+02 -0.93596104463E+01 -0.22758656595E+02  0.28985144213E+02  0.24999608122E+00 0.  0.
    1000022    2    1    0    0    0 -0.24317101766E+02  0.26188265110E+02  0.50290190886E+02  0.62499999614E+02  0.99999992305E+01 0.  0.
    3000022    2    5    5    0    0  0.84814762872E+00  0.14747100660E+01  0.14631790730E+01  0.22577663999E+01  0.24998387573E+00 0.  0.
        -13    1    4    4    0    0  0.66165465647E+01 -0.41209998485E+01 -0.98814179912E+01  0.12586293128E+02  0.10500000000E+00 0.  1.
         13    1    4    4    0    0  0.86974120777E+01 -0.52386105978E+01 -0.12877238603E+02  0.16398851085E+02  0.10500000000E+00 0. -1.
    3000001    1    5    5    0    0 -0.25165249394E+02  0.24713555044E+02  0.48827011813E+02  0.60242233214E+02  0.10000000000E+01 0. -1.
        -13    1    6    6    0    0  0.58395604361E+00  0.10637284817E+01  0.99071036132E+00  0.15700493507E+01  0.10500000000E+00 0. -1.
         13    1    6    6    0    0  0.26419158511E+00  0.41098158439E+00  0.47246871166E+00  0.68771704926E+00  0.10500000000E+00 0. -1.
</event>
<event>
11    0  0.3467594E-009  0.9118800E+02  0.7816531E-02  0.1126479E+00
         25   -1    0    0    0    0  0.00000000000E+00  0.00000000000E+00  0.99999998245E-14  0.12500000000E+03  0.12500000000E+03 0.  0.
    3000001    1    3    3    0    0  0.43214058116E+02  0.19862297286E+02 -0.20091946557E+02  0.51639635831E+02  0.10000000000E+01 0. -1.
    1000022    2    1    0    0    0  0.50487775396E+02  0.21890240210E+02 -0.27893580217E+02  0.62499999618E+02  0.10000002702E+02 0.  0.
    3000022    2    3    3    0    0  0.72737172802E+01  0.20279429243E+01 -0.78016336600E+01  0.10860363787E+02  0.24999649086E+00 0.  0.
    1000022    2    1    0    0    0 -0.50487775396E+02 -0.21890240210E+02  0.27893580217E+02  0.62500000382E+02  0.10000007479E+02 0.  0.
    3000022    2    5    5    0    0 -0.19817586680E+02 -0.46988122827E+01  0.13823100990E+02  0.24616177242E+02  0.24996467767E+00 0.  0.
        -13    1    4    4    0    0  0.17890612767E+01  0.49024357751E+00 -0.19506276910E+01  0.26938916841E+01  0.10500000000E+00 0. -1.
         13    1    4    4    0    0  0.54846560034E+01  0.15376993468E+01 -0.58510059691E+01  0.81664721029E+01  0.10500000000E+00 0.  1.
    3000001    1    5    5    0    0 -0.30670188716E+02 -0.17191427928E+02  0.14070479227E+02  0.37883823140E+02  0.10000000000E+01 0.  1.
        -13    1    6    6    0    0 -0.61435697375E+01 -0.15045848124E+01  0.42769837577E+01  0.76361534585E+01  0.10500000000E+00 0. -1.
         13    1    6    6    0    0 -0.13674016942E+02 -0.31942274703E+01  0.95461172321E+01  0.16980023783E+02  0.10500000000E+00 0.  1.
</event>
<event>
11    0  0.3467594E-009  0.9118800E+02  0.7816531E-02  0.1126479E+00
         25   -1    0    0    0    0  0.00000000000E+00  0.00000000000E+00  0.99999998245E-14  0.12500000000E+03  0.12500000000E+03 0.  0.
    3000001    1    3    3    0    0 -0.21581648914E+02 -0.31387052214E+01  0.12372061070E+02  0.25093563626E+02  0.10000000000E+01 0.  1.
    1000022    2    1    0    0    0 -0.58033204906E+02 -0.27459427855E+01  0.20757092974E+02  0.62499999637E+02  0.99999986246E+01 0.  0.
    3000022    2    3    3    0    0 -0.36451555992E+02  0.39276243597E+00  0.83850319032E+01  0.37406436011E+02  0.24999696985E+00 0.  0.
    1000022    2    1    0    0    0  0.58033204906E+02  0.27459427855E+01 -0.20757092974E+02  0.62500000363E+02  0.10000003160E+02 0.  0.
    3000022    2    5    5    0    0  0.67207565689E+00  0.73609278653E+00  0.66956275597E+00  0.12265132620E+01  0.25000443737E+00 0.  0.
        -13    1    4    4    0    0 -0.12445019254E+02  0.15488357283E+00  0.29151489653E+01  0.12783255127E+02  0.10500000000E+00 0.  1.
         13    1    4    4    0    0 -0.24006536738E+02  0.23787886314E+00  0.54698829379E+01  0.24623180885E+02  0.10500000000E+00 0. -1.
    3000001    1    5    5    0    0  0.57361129249E+02  0.20098499989E+01 -0.21426655730E+02  0.61273487101E+02  0.10000000000E+01 0.  1.
        -13    1    6    6    0    0  0.32740944807E+00  0.38277940213E+00  0.41654736157E+00  0.66200734271E+00  0.10500000000E+00 0.  1.
         13    1    6    6    0    0  0.34466620882E+00  0.35331338440E+00  0.25301539440E+00  0.56450591928E+00  0.10500000000E+00 0. -1.
</event>
<event>
11    0  0.3467594E-009  0.9118800E+02  0.7816531E-02  0.1126479E+00
         25   -1    0    0    0    0  0.00000000000E+00  0.00000000000E+00  0.99999998245E-14  0.12500000000E+03  0.12500000000E+03 0.  0.
    3000001    1    3    3    0    0 -0.90717787401E+01 -0.18068699269E+02 -0.68004768898E+01  0.21354661053E+02  0.10000000000E+01 0. -1.
    1000022    2    1    0    0    0 -0.34666812247E+02 -0.50190759275E+02 -0.92384911990E+01  0.62499999671E+02  0.10000002567E+02 0.  0.
    3000022    2    3    3    0    0 -0.25595033507E+02 -0.32122060006E+02 -0.24380143092E+01  0.41145338618E+02  0.24999393471E+00 0.  0.
    1000022    2    1    0    0    0  0.34666812247E+02  0.50190759275E+02  0.92384911990E+01  0.62500000329E+02  0.10000006677E+02 0.  0.
    3000022    2    5    5    0    0  0.14734619649E+02  0.25439507590E+02  0.34450171478E-01  0.29399681102E+02  0.24999885913E+00 0.  0.
        -13    1    4    4    0    0 -0.14054219982E+02 -0.17743731259E+02 -0.13330207291E+01  0.22674855403E+02  0.10500000000E+00 0. -1.
         13    1    4    4    0    0 -0.11540813525E+02 -0.14378328747E+02 -0.11049935801E+01  0.18470483214E+02  0.10500000000E+00 0.  1.
    3000001    1    5    5    0    0  0.19932192598E+02  0.24751251684E+02  0.92040410275E+01  0.33100319227E+02  0.10000000000E+01 0.  1.
        -13    1    6    6    0    0  0.72898550482E+01  0.12668799956E+02 -0.36521747036E-01  0.14616868262E+02  0.10500000000E+00 0.  1.
         13    1    6    6    0    0  0.74447646009E+01  0.12770707635E+02  0.70971918515E-01  0.14782812840E+02  0.10500000000E+00 0. -1.
</event>
<event>
11    0  0.3467594E-009  0.9118800E+02  0.7816531E-02  0.1126479E+00
         25   -1    0    0    0    0  0.00000000000E+00  0.00000000000E+00  0.99999998245E-14  0.12500000000E+03  0.12500000000E+03 0.  0.
    3000001    1    3    3    0    0 -0.33515201385E+02 -0.23782095205E+02  0.45649224764E+00  0.41110402107E+02  0.10000000000E+01 0. -1.
    1000022    2    1    0    0    0 -0.54052782650E+02 -0.29741246591E+02  0.71119187446E-01  0.62499996365E+02  0.99999713332E+01 0.  0.
    3000022    2    3    3    0    0 -0.20537581265E+02 -0.59591513868E+01 -0.38537306019E+00  0.21389594258E+02  0.25000135049E+00 0.  0.
    1000022    2    1    0    0    0  0.54052782650E+02  0.29741246591E+02 -0.71119187446E-01  0.62500003635E+02  0.10000016776E+02 0.  0.
    3000022    2    5    5    0    0  0.10544704406E+02  0.97729134302E+01  0.22868126549E+01  0.14559967713E+02  0.25003951073E+00 0.  0.
        -13    1    4    4    0    0 -0.87972351156E+01 -0.25690137176E+01 -0.22867236966E+00  0.91681237564E+01  0.10500000000E+00 0. -1.
         13    1    4    4    0    0 -0.11740346149E+02 -0.33901376693E+01 -0.15670069053E+00  0.12221470502E+02  0.10500000000E+00 0.  1.
    3000001    1    5    5    0    0  0.43508078244E+02  0.19968333161E+02 -0.23579318423E+01  0.47940035923E+02  0.10000000000E+01 0. -1.
        -13    1    6    6    0    0  0.27632152662E+01  0.25586679692E+01  0.56620335096E+00  0.38096918010E+01  0.10500000000E+00 0. -1.
         13    1    6    6    0    0  0.77814891395E+01  0.72142454610E+01  0.17206093039E+01  0.10750275912E+02  0.10500000000E+00 0.  1.
</event>
<event>
11    0  0.3467594E-009  0.9118800E+02  0.7816531E-02  0.1126479E+00
         25   -1    0    0    0    0  0.00000000000E+00  0.00000000000E+00  0.99999998245E-14  0.12500000000E+03  0.12500000000E+03 0.  0.
    3000001    1    3    3    0    0 -0.35379575644E+02 -0.19585112291E+02 -0.27488378698E+02  0.48907074740E+02  0.10000000000E+01 0.  1.
    1000022    2    1    0    0    0 -0.41238766671E+02 -0.24924653552E+02 -0.38527597747E+02  0.62500002092E+02  0.10000012106E+02 0.  0.
    3000022    2    3    3    0    0 -0.58591910270E+01 -0.53395412613E+01 -0.11039219048E+02  0.13592927352E+02  0.24999282900E+00 0.  0.
    1000022    2    1    0    0    0  0.41238766671E+02  0.24924653552E+02  0.38527597747E+02  0.62499997908E+02  0.99999859545E+01 0.  0.
    3000022    2    5    5    0    0  0.39511709644E+02  0.20966149480E+02  0.35821881629E+02  0.57306407610E+02  0.25005350797E+00 0.  0.
        -13    1    4    4    0    0 -0.35137099604E+01 -0.32415493793E+01 -0.65608286272E+01  0.81184541226E+01  0.10500000000E+00 0. -1.
         13    1    4    4    0    0 -0.23454810666E+01 -0.20979918820E+01 -0.44783904213E+01  0.54744732291E+01  0.10500000000E+00 0.  1.
    3000001    1    5    5    0    0  0.17270570270E+01  0.39585040728E+01  0.27057161175E+01  0.51935902974E+01  0.10000000000E+01 0. -1.
        -13    1    6    6    0    0  0.26945675142E+02  0.14343144488E+02  0.24485498027E+02  0.39132414202E+02  0.10500000000E+00 0. -1.
         13    1    6    6    0    0  0.12566034503E+02  0.66230049918E+01  0.11336383603E+02  0.18173993409E+02  0.10500000000E+00 0.  1.
</event>
<event>
11    0  0.3467594E-009  0.9118800E+02  0.7816531E-02  0.1126479E+00
         25   -1    0    0    0    0  0.00000000000E+00  0.00000000000E+00  0.99999998245E-14  0.12500000000E+03  0.12500000000E+03 0.  0.
    3000001    1    3    3    0    0  0.48056922526E+01  0.99256018790E+01 -0.27406085891E+01  0.11407155041E+02  0.10000000000E+01 0.  1.
    1000022    2    1    0    0    0  0.10165847854E+02  0.54165196202E+02 -0.27731493791E+02  0.62500009914E+02  0.10000127459E+02 0.  0.
    3000022    2    3    3    0    0  0.53601556013E+01  0.44239594323E+02 -0.24990885202E+02  0.51092854874E+02  0.25000399440E+00 0.  0.
    1000022    2    1    0    0    0 -0.10165847854E+02 -0.54165196202E+02  0.27731493791E+02  0.62499990086E+02  0.10000003530E+02 0.  0.
    3000022    2    5    5    0    0  0.13148053055E+01 -0.33481230806E+01  0.31331967672E+00  0.36192921500E+01  0.24993057731E+00 0.  0.
        -13    1    4    4    0    0  0.33353433333E+01  0.27122953188E+02 -0.15368233109E+02  0.31352395740E+02  0.10500000000E+00 0. -1.
         13    1    4    4    0    0  0.20248122680E+01  0.17116641136E+02 -0.96226520926E+01  0.19740459133E+02  0.10500000000E+00 0.  1.
    3000001    1    5    5    0    0 -0.11480653159E+02 -0.50817073122E+02  0.27418174114E+02  0.58880697936E+02  0.10000000000E+01 0.  1.
        -13    1    6    6    0    0  0.65296403020E+00 -0.14874225810E+01  0.15986193785E+00  0.16356554645E+01  0.10500000000E+00 0.  1.
         13    1    6    6    0    0  0.66184127526E+00 -0.18607004995E+01  0.15345773887E+00  0.19836366856E+01  0.10500000000E+00 0. -1.
</event>
<event>
11    0  0.3467594E-009  0.9118800E+02  0.7816531E-02  0.1126479E+00
         25   -1    0    0    0    0  0.00000000000E+00  0.00000000000E+00  0.99999998245E-14  0.12500000000E+03  0.12500000000E+03 0.  0.
    3000001    1    3    3    0    0  0.20745121491E+02 -0.33714352040E+02  0.24383952036E+02  0.46503706476E+02  0.10000000000E+01 0. -1.
    1000022    2    1    0    0    0  0.28288668591E+02 -0.47493229545E+02  0.27393325986E+02  0.62499999837E+02  0.10000002390E+02 0.  0.
    3000022    2    3    3    0    0  0.75435471001E+01 -0.13778877505E+02  0.30093739502E+01  0.15996293361E+02  0.25000313586E+00 0.  0.
    1000022    2    1    0    0    0 -0.28288668591E+02  0.47493229545E+02 -0.27393325986E+02  0.62500000163E+02  0.10000004430E+02 0.  0.
    3000022    2    5    5    0    0 -0.72044237202E+01  0.19853694588E+02 -0.13392183830E+02  0.25009718008E+02  0.24999437342E+00 0.  0.
        -13    1    4    4    0    0  0.27488704059E+01 -0.51404142675E+01  0.11336519202E+01  0.59393887755E+01  0.10500000000E+00 0. -1.
         13    1    4    4    0    0  0.47946766941E+01 -0.86384632371E+01  0.18757220300E+01  0.10056904585E+02  0.10500000000E+00 0.  1.
    3000001    1    5    5    0    0 -0.21084244871E+02  0.27639534957E+02 -0.14001142156E+02  0.37490282155E+02  0.10000000000E+01 0.  1.
        -13    1    6    6    0    0 -0.33691869910E+01  0.94732827073E+01 -0.63509817670E+01  0.11892876046E+02  0.10500000000E+00 0. -1.
         13    1    6    6    0    0 -0.38352367293E+01  0.10380411880E+02 -0.70412020625E+01  0.13116841962E+02  0.10500000000E+00 0.  1.
</event>
<event>
11    0  0.3467594E-009  0.9118800E+02  0.7816531E-02  0.1126479E+00
         25   -1    0    0    0    0  0.00000000000E+00  0.00000000000E+00  0.99999998245E-14  0.12500000000E+03  0.12500000000E+03 0.  0.
    3000001    1    3    3    0    0  0.14456413247E+01 -0.89018338047E+01  0.34182561246E+02  0.35366368449E+02  0.10000000000E+01 0. -1.
    1000022    2    1    0    0    0  0.10041487815E+02 -0.11392059337E+02  0.59796653514E+02  0.62500001094E+02  0.99999935908E+01 0.  0.
    3000022    2    3    3    0    0  0.85958464900E+01 -0.24902255323E+01  0.25614092268E+02  0.27133632645E+02  0.24999545722E+00 0.  0.
    1000022    2    1    0    0    0 -0.10041487815E+02  0.11392059337E+02 -0.59796653514E+02  0.62499998906E+02  0.99999799194E+01 0.  0.
    3000022    2    5    5    0    0 -0.11318985614E+02  0.90902980620E+01 -0.55461055152E+02  0.57330132491E+02  0.24999745114E+00 0.  0.
        -13    1    4    4    0    0  0.25149916255E+01 -0.77397700857E+00  0.75557353469E+01  0.80015239123E+01  0.10500000000E+00 0. -1.
         13    1    4    4    0    0  0.60808548645E+01 -0.17162485237E+01  0.18058356921E+02  0.19132108733E+02  0.10500000000E+00 0.  1.
    3000001    1    5    5    0    0  0.12774977994E+01  0.23017612750E+01 -0.43355983620E+01  0.51698664152E+01  0.10000000000E+01 0.  1.
        -13    1    6    6    0    0 -0.78922651512E+01  0.63753882732E+01 -0.38898138533E+02  0.40199622276E+02  0.10500000000E+00 0. -1.
         13    1    6    6    0    0 -0.34267204630E+01  0.27149097888E+01 -0.16562916619E+02  0.17130510215E+02  0.10500000000E+00 0.  1.
</event>
<event>
11    0  0.3467594E-009  0.9118800E+02  0.7816531E-02  0.1126479E+00
         25   -1    0    0    0    0  0.00000000000E+00  0.00000000000E+00  0.99999998245E-14  0.12500000000E+03  0.12500000000E+03 0.  0.
    3000001    1    3    3    0    0  0.34133236450E+02  0.84199977331E+01  0.31782428487E+02  0.47403554222E+02  0.10000000000E+01 0. -1.
    1000022    2    1    0    0    0  0.44756737102E+02  0.55118782155E+01  0.42103486237E+02  0.62499999346E+02  0.10000002370E+02 0.  0.
    3000022    2    3    3    0    0  0.10623500652E+02 -0.29081195176E+01  0.10321057750E+02  0.15096445123E+02  0.24999409534E+00 0.  0.
    1000022    2    1    0    0    0 -0.44756737102E+02 -0.55118782155E+01 -0.42103486237E+02  0.62500000654E+02  0.10000010547E+02 0.  0.
    3000022    2    5    5    0    0 -0.17379151835E+02 -0.11837142714E+00 -0.10405316804E+02  0.20257888539E+02  0.24999991656E+00 0.  0.
        -13    1    4    4    0    0  0.55067179143E+01 -0.14522462172E+01  0.52789111964E+01  0.77660086069E+01  0.10500000000E+00 0.  1.
         13    1    4    4    0    0  0.51167827377E+01 -0.14558733004E+01  0.50421465540E+01  0.73304365166E+01  0.10500000000E+00 0. -1.
    3000001    1    5    5    0    0 -0.27377585267E+02 -0.53935067884E+01 -0.31698169433E+02  0.42242112115E+02  0.10000000000E+01 0.  1.
        -13    1    6    6    0    0 -0.12613028765E+02 -0.57297042306E-01 -0.75226442045E+01  0.14686489656E+02  0.10500000000E+00 0. -1.
         13    1    6    6    0    0 -0.47661230704E+01 -0.61074384830E-01 -0.28826725993E+01  0.55713988833E+01  0.10500000000E+00 0.  1.
</event>
<event>
11    0  0.3467594E-009  0.9118800E+02  0.7816531E-02  0.1126479E+00
         25   -1    0    0    0    0  0.00000000000E+00  0.00000000000E+00  0.99999998245E-14  0.12500000000E+03  0.12500000000E+03 0.  0.
    3000001    1    3    3    0    0 -0.10828829930E+02  0.20427445031E+02  0.24832801928E+01  0.23274680420E+02  0.10000000000E+01 0.  1.
    1000022    2    1    0    0    0 -0.34940257083E+02  0.48278930342E+02  0.15955362319E+02  0.62499999435E+02  0.99999831391E+01 0.  0.
    3000022    2    3    3    0    0 -0.24111427153E+02  0.27851485311E+02  0.13472082126E+02  0.39225319015E+02  0.25000339745E+00 0.  0.
    1000022    2    1    0    0    0  0.34940257083E+02 -0.48278930342E+02 -0.15955362319E+02  0.62500000565E+02  0.99999901969E+01 0.  0.
    3000022    2    5    5    0    0  0.32999139965E+02 -0.45099250064E+02 -0.12374889927E+02  0.57237103560E+02  0.25005697049E+00 0.  0.
        -13    1    4    4    0    0 -0.11648762925E+02  0.13544442767E+02  0.64961762861E+01  0.19009390808E+02  0.10500000000E+00 0.  1.
         13    1    4    4    0    0 -0.12462664228E+02  0.14307042543E+02  0.69759058397E+01  0.20215928207E+02  0.10500000000E+00 0. -1.
    3000001    1    5    5    0    0  0.19411171177E+01 -0.31796802779E+01 -0.35804723919E+01  0.52628970049E+01  0.10000000000E+01 0.  1.
        -13    1    6    6    0    0  0.75967346357E+01 -0.10395059422E+02 -0.28487824161E+01  0.13186895911E+02  0.10500000000E+00 0.  1.
         13    1    6    6    0    0  0.25402405329E+02 -0.34704190642E+02 -0.95261075105E+01  0.44050207649E+02  0.10500000000E+00 0. -1.
</event>
<event>
11    0  0.3467594E-009  0.9118800E+02  0.7816531E-02  0.1126479E+00
         25   -1    0    0    0    0  0.00000000000E+00  0.00000000000E+00  0.99999998245E-14  0.12500000000E+03  0.12500000000E+03 0.  0.
    3000001    1    3    3    0    0  0.21852121371E+02  0.29110043467E+02 -0.21401198431E+02  0.42236490543E+02  0.10000000000E+01 0.  1.
    1000022    2    1    0    0    0  0.35543868268E+02  0.37398914012E+02 -0.33826093605E+02  0.62499999971E+02  0.10000002356E+02 0.  0.
    3000022    2    3    3    0    0  0.13691746896E+02  0.82888705448E+01 -0.12424895174E+02  0.20263509428E+02  0.24997258072E+00 0.  0.
    1000022    2    1    0    0    0 -0.35543868268E+02 -0.37398914012E+02  0.33826093605E+02  0.62500000029E+02  0.10000002717E+02 0.  0.
    3000022    2    5    5    0    0 -0.34638869088E+02 -0.37022042637E+02  0.34061863676E+02  0.61079914442E+02  0.24999673455E+00 0.  0.
        -13    1    4    4    0    0  0.64975623980E+01  0.38628996531E+01 -0.58301934745E+01  0.95468576923E+01  0.10500000000E+00 0. -1.
         13    1    4    4    0    0  0.71941844983E+01  0.44259708917E+01 -0.65947016991E+01  0.10716651736E+02  0.10500000000E+00 0.  1.
    3000001    1    5    5    0    0 -0.90499918007E+00 -0.37687137449E+00 -0.23577007131E+00  0.14200855873E+01  0.10000000000E+01 0.  1.
        -13    1    6    6    0    0 -0.18716795090E+02 -0.19948109009E+02  0.18443474243E+02  0.32991184256E+02  0.10500000000E+00 0. -1.
         13    1    6    6    0    0 -0.15922073997E+02 -0.17073933629E+02  0.15618389433E+02  0.28088730185E+02  0.10500000000E+00 0.  1.
</event>
<event>
11    0  0.3467594E-009  0.9118800E+02  0.7816531E-02  0.1126479E+00
         25   -1    0    0    0    0  0.00000000000E+00  0.00000000000E+00  0.99999998245E-14  0.12500000000E+03  0.12500000000E+03 0.  0.
    3000001    1    3    3    0    0 -0.86348117895E+00 -0.10457105228E+02  0.17661763369E+01  0.10687189918E+02  0.10000000000E+01 0. -1.
    1000022    2    1    0    0    0  0.72046042397E+01 -0.60853000282E+02 -0.71593235266E+01  0.62500000023E+02  0.10000006202E+02 0.  0.
    3000022    2    3    3    0    0  0.80680854187E+01 -0.50395895054E+02 -0.89254998635E+01  0.51812810105E+02  0.25000519013E+00 0.  0.
    1000022    2    1    0    0    0 -0.72046042397E+01  0.60853000282E+02  0.71593235266E+01  0.62499999977E+02  0.10000005910E+02 0.  0.
    3000022    2    5    5    0    0  0.11269205676E+01  0.25089346026E+02  0.22814456835E+00  0.25116922079E+02  0.24998162522E+00 0.  0.
        -13    1    4    4    0    0  0.51318565697E+01 -0.32359467046E+02 -0.57622895719E+01  0.33266891431E+02  0.10500000000E+00 0. -1.
         13    1    4    4    0    0  0.29362288490E+01 -0.18036428008E+02 -0.31632102916E+01  0.18545918675E+02  0.10500000000E+00 0.  1.
    3000001    1    5    5    0    0 -0.83315248073E+01  0.35763654256E+02  0.69311789582E+01  0.37383077898E+02  0.10000000000E+01 0. -1.
        -13    1    6    6    0    0  0.73275487234E+00  0.16889135781E+02  0.19893750766E+00  0.16906520584E+02  0.10500000000E+00 0.  1.
         13    1    6    6    0    0  0.39416569521E+00  0.82002102443E+01  0.29207060688E-01  0.82104014943E+01  0.10500000000E+00 0. -1.
</event>
<event>
11    0  0.3467594E-009  0.9118800E+02  0.7816531E-02  0.1126479E+00
         25   -1    0    0    0    0  0.00000000000E+00  0.00000000000E+00  0.99999998245E-14  0.12500000000E+03  0.12500000000E+03 0.  0.
    3000001    1    3    3    0    0 -0.20189667114E+02 -0.26613412418E+02  0.23612313057E+02  0.40919893775E+02  0.10000000000E+01 0.  1.
    1000022    2    1    0    0    0 -0.34161429798E+02 -0.34564717386E+02  0.38006934363E+02  0.62500000950E+02  0.10000004261E+02 0.  0.
    3000022    2    3    3    0    0 -0.13971762684E+02 -0.79513049681E+01  0.14394621306E+02  0.21580107175E+02  0.24999981419E+00 0.  0.
    1000022    2    1    0    0    0  0.34161429798E+02  0.34564717386E+02 -0.38006934363E+02  0.62499999050E+02  0.99999923914E+01 0.  0.
    3000022    2    5    5    0    0  0.29418442311E+02  0.32630960630E+02 -0.31033548307E+02  0.53790035872E+02  0.24999781535E+00 0.  0.
        -13    1    4    4    0    0 -0.35577611490E+01 -0.20515151196E+01  0.37022059448E+01  0.55302561005E+01  0.10500000000E+00 0.  1.
         13    1    4    4    0    0 -0.10414001535E+02 -0.58997898485E+01  0.10692415361E+02  0.16049851074E+02  0.10500000000E+00 0. -1.
    3000001    1    5    5    0    0  0.47429874872E+01  0.19337567560E+01 -0.69733860557E+01  0.87099631789E+01  0.10000000000E+01 0. -1.
        -13    1    6    6    0    0  0.18833048848E+02  0.20852978685E+02 -0.19912187845E+02  0.34438883529E+02  0.10500000000E+00 0. -1.
         13    1    6    6    0    0  0.10585393463E+02  0.11777981945E+02 -0.11121360463E+02  0.19351152343E+02  0.10500000000E+00 0.  1.
</event>
<event>
11    0  0.3467594E-009  0.9118800E+02  0.7816531E-02  0.1126479E+00
         25   -1    0    0    0    0  0.00000000000E+00  0.00000000000E+00  0.99999998245E-14  0.12500000000E+03  0.12500000000E+03 0.  0.
    3000001    1    3    3    0    0  0.30382251683E+02 -0.13350508135E+02  0.19261862516E+02  0.38384067429E+02  0.10000000000E+01 0.  1.
    1000022    2    1    0    0    0  0.50837973210E+02 -0.14030494472E+02  0.32013991540E+02  0.62500000366E+02  0.10000004814E+02 0.  0.
    3000022    2    3    3    0    0  0.20455721527E+02 -0.67998633637E+00  0.12752129024E+02  0.24115932938E+02  0.25000439985E+00 0.  0.
    1000022    2    1    0    0    0 -0.50837973210E+02  0.14030494472E+02 -0.32013991540E+02  0.62499999634E+02  0.10000000235E+02 0.  0.
    3000022    2    5    5    0    0 -0.46710255530E+01 -0.13430620676E+01 -0.42919552000E+01  0.64888882768E+01  0.24999239090E+00 0.  0.
        -13    1    4    4    0    0  0.11269450166E+02 -0.33806478912E+00  0.69588953285E+01  0.13249605430E+02  0.10500000000E+00 0.  1.
         13    1    4    4    0    0  0.91862713611E+01 -0.34192154725E+00  0.57932336955E+01  0.10866327508E+02  0.10500000000E+00 0. -1.
    3000001    1    5    5    0    0 -0.46166947657E+02  0.15373556539E+02 -0.27722036340E+02  0.56011111357E+02  0.10000000000E+01 0.  1.
        -13    1    6    6    0    0 -0.14076195347E+01 -0.39282905268E+00 -0.13522426661E+01  0.19938135939E+01  0.10500000000E+00 0. -1.
         13    1    6    6    0    0 -0.32634060183E+01 -0.95023301493E+00 -0.29397125339E+01  0.44950746829E+01  0.10500000000E+00 0.  1.
</event>
<event>
11    0  0.3467594E-009  0.9118800E+02  0.7816531E-02  0.1126479E+00
         25   -1    0    0    0    0  0.00000000000E+00  0.00000000000E+00  0.99999998245E-14  0.12500000000E+03  0.12500000000E+03 0.  0.
    3000001    1    3    3    0    0 -0.10681145999E+02 -0.46170696114E+02 -0.31825066052E+02  0.57093387434E+02  0.10000000000E+01 0. -1.
    1000022    2    1    0    0    0 -0.11112108167E+02 -0.48267309885E+02 -0.36783642363E+02  0.62500003376E+02  0.10000096252E+02 0.  0.
    3000022    2    3    3    0    0 -0.43096216757E+00 -0.20966137709E+01 -0.49585763110E+01  0.54066159416E+01  0.24999842644E+00 0.  0.
    1000022    2    1    0    0    0  0.11112108167E+02  0.48267309885E+02  0.36783642363E+02  0.62499996624E+02  0.10000054054E+02 0.  0.
    3000022    2    5    5    0    0  0.15993099718E+01  0.60862453019E+01  0.10257530199E+01  0.63808181809E+01  0.24999428015E+00 0.  0.
        -13    1    4    4    0    0 -0.30298481591E+00 -0.13509290466E+01 -0.33263685979E+01  0.36045196818E+01  0.10500000000E+00 0. -1.
         13    1    4    4    0    0 -0.12797735166E+00 -0.74568472428E+00 -0.16322077131E+01  0.18020962597E+01  0.10500000000E+00 0.  1.
    3000001    1    5    5    0    0  0.95127981951E+01  0.42181064583E+02  0.35757889343E+02  0.56119178443E+02  0.10000000000E+01 0. -1.
        -13    1    6    6    0    0  0.70824451296E+00  0.29246793176E+01  0.52510324205E+00  0.30564878236E+01  0.10500000000E+00 0. -1.
         13    1    6    6    0    0  0.89106545880E+00  0.31615659842E+01  0.50064977783E+00  0.33243303573E+01  0.10500000000E+00 0.  1.
</event>
<event>
11    0  0.3467594E-009  0.9118800E+02  0.7816531E-02  0.1126479E+00
         25   -1    0    0    0    0  0.00000000000E+00  0.00000000000E+00  0.99999998245E-14  0.12500000000E+03  0.12500000000E+03 0.  0.
    3000001    1    3    3    0    0  0.15009240203E+02 -0.31128177457E+02  0.23015846752E+02  0.41532757253E+02  0.10000000000E+01 0.  1.
    1000022    2    1    0    0    0  0.28631649271E+02 -0.43791100685E+02  0.32692785631E+02  0.62500001228E+02  0.10000004102E+02 0.  0.
    3000022    2    3    3    0    0  0.13622409067E+02 -0.12662923228E+02  0.96769388786E+01  0.20967243975E+02  0.25004077699E+00 0.  0.
    1000022    2    1    0    0    0 -0.28631649271E+02  0.43791100685E+02 -0.32692785631E+02  0.62499998772E+02  0.99999887504E+01 0.  0.
    3000022    2    5    5    0    0 -0.83007444291E+01  0.61283932956E+01 -0.46386837468E+01  0.11315451767E+02  0.24999864682E+00 0.  0.
        -13    1    4    4    0    0  0.74627419693E+01 -0.70265450128E+01  0.53190509976E+01  0.11548514235E+02  0.10500000000E+00 0.  1.
         13    1    4    4    0    0  0.61596670979E+01 -0.56363782150E+01  0.43578878810E+01  0.94187297404E+01  0.10500000000E+00 0. -1.
    3000001    1    5    5    0    0 -0.20330904842E+02  0.37662707390E+02 -0.28054101884E+02  0.51184547005E+02  0.10000000000E+01 0.  1.
        -13    1    6    6    0    0 -0.61466964681E+01  0.45616136237E+01 -0.34671437982E+01  0.84037079578E+01  0.10500000000E+00 0. -1.
         13    1    6    6    0    0 -0.21540479610E+01  0.15667796719E+01 -0.11715399487E+01  0.29117438091E+01  0.10500000000E+00 0.  1.
</event>
<event>
11    0  0.3467594E-009  0.9118800E+02  0.7816531E-02  0.1126479E+00
         25   -1    0    0    0    0  0.00000000000E+00  0.00000000000E+00  0.99999998245E-14  0.12500000000E+03  0.12500000000E+03 0.  0.
    3000001    1    3    3    0    0 -0.15423737787E+01  0.15857545774E+02 -0.17995543191E+02  0.24055773726E+02  0.10000000000E+01 0.  1.
    1000022    2    1    0    0    0  0.48031688360E+01  0.33721574435E+02 -0.51439624323E+02  0.62499999493E+02  0.99999986433E+01 0.  0.
    3000022    2    3    3    0    0  0.63455426147E+01  0.17864028662E+02 -0.33444081133E+02  0.38444225767E+02  0.25000184935E+00 0.  0.
    1000022    2    1    0    0    0 -0.48031688360E+01 -0.33721574435E+02  0.51439624323E+02  0.62500000507E+02  0.10000004977E+02 0.  0.
    3000022    2    5    5    0    0 -0.24395841129E+01 -0.98268049423E+00  0.43795603140E+01  0.51147120279E+01  0.24999797294E+00 0.  0.
        -13    1    4    4    0    0  0.24850189231E+01  0.69124935100E+01 -0.12847712707E+02  0.14799751091E+02  0.10500000000E+00 0. -1.
         13    1    4    4    0    0  0.38605236915E+01  0.10951535152E+02 -0.20596368426E+02  0.23644474676E+02  0.10500000000E+00 0.  1.
    3000001    1    5    5    0    0 -0.23635847231E+01 -0.32738893941E+02  0.47060064009E+02  0.57385288479E+02  0.10000000000E+01 0. -1.
        -13    1    6    6    0    0 -0.82645443919E+00 -0.28354024348E+00  0.15125677473E+01  0.17499451991E+01  0.10500000000E+00 0.  1.
         13    1    6    6    0    0 -0.16131296737E+01 -0.69914025075E+00  0.28669925667E+01  0.33647668288E+01  0.10500000000E+00 0. -1.
</event>
<event>
11    0  0.3467594E-009  0.9118800E+02  0.7816531E-02  0.1126479E+00
         25   -1    0    0    0    0  0.00000000000E+00  0.00000000000E+00  0.99999998245E-14  0.12500000000E+03  0.12500000000E+03 0.  0.
    3000001    1    3    3    0    0  0.16628280401E+02  0.84449215491E+01 -0.29456188868E+02  0.34878123110E+02  0.10000000000E+01 0. -1.
    1000022    2    1    0    0    0  0.31179066966E+02  0.22547490093E+02 -0.48225786615E+02  0.62499999732E+02  0.99999972762E+01 0.  0.
    3000022    2    3    3    0    0  0.14550786565E+02  0.14102568544E+02 -0.18769597748E+02  0.27621876622E+02  0.24987865658E+00 0.  0.
    1000022    2    1    0    0    0 -0.31179066966E+02 -0.22547490093E+02  0.48225786615E+02  0.62500000268E+02  0.10000000622E+02 0.  0.
    3000022    2    5    5    0    0 -0.62723934685E+01 -0.74079751681E+01  0.18282845487E+02  0.20701351722E+02  0.25001617174E+00 0.  0.
        -13    1    4    4    0    0  0.89124026420E+01  0.86591578194E+01 -0.11428620025E+02  0.16883018559E+02  0.10500000000E+00 0.  1.
         13    1    4    4    0    0  0.56383839226E+01  0.54434107245E+01 -0.73409777225E+01  0.10738858063E+02  0.10500000000E+00 0. -1.
    3000001    1    5    5    0    0 -0.24906673497E+02 -0.15139514925E+02  0.29942941128E+02  0.41798648546E+02  0.10000000000E+01 0. -1.
        -13    1    6    6    0    0 -0.45931987973E+01 -0.54311802769E+01  0.13468543229E+02  0.15231804755E+02  0.10500000000E+00 0. -1.
         13    1    6    6    0    0 -0.16791946712E+01 -0.19767948912E+01  0.48143022589E+01  0.54695469671E+01  0.10500000000E+00 0.  1.
</event>
<event>
11    0  0.3467594E-009  0.9118800E+02  0.7816531E-02  0.1126479E+00
         25   -1    0    0    0    0  0.00000000000E+00  0.00000000000E+00  0.99999998245E-14  0.12500000000E+03  0.12500000000E+03 0.  0.
    3000001    1    3    3    0    0  0.20272497225E+02  0.70472295651E+01 -0.26019375765E+02  0.33743821708E+02  0.10000000000E+01 0. -1.
    1000022    2    1    0    0    0  0.43889464707E+02  0.11675502440E+02 -0.41757008138E+02  0.62499997451E+02  0.99999741584E+01 0.  0.
    3000022    2    3    3    0    0  0.23616967482E+02  0.46282728750E+01 -0.15737632373E+02  0.28756175742E+02  0.25001550190E+00 0.  0.
    1000022    2    1    0    0    0 -0.43889464707E+02 -0.11675502440E+02  0.41757008138E+02  0.62500002549E+02  0.10000006027E+02 0.  0.
    3000022    2    5    5    0    0 -0.19944275663E+02 -0.34910595008E+01  0.24825440657E+02  0.32036333008E+02  0.25000120743E+00 0.  0.
        -13    1    4    4    0    0  0.12537360717E+02  0.25250810257E+01 -0.83527814787E+01  0.15275517384E+02  0.10500000000E+00 0.  1.
         13    1    4    4    0    0  0.11079606766E+02  0.21031918493E+01 -0.73848508942E+01  0.13480658358E+02  0.10500000000E+00 0. -1.
    3000001    1    5    5    0    0 -0.23945189045E+02 -0.81844429393E+01  0.16931567481E+02  0.30463669542E+02  0.10000000000E+01 0. -1.
        -13    1    6    6    0    0 -0.14267010537E+02 -0.25328564529E+01  0.17731196370E+02  0.22899111362E+02  0.10500000000E+00 0.  1.
         13    1    6    6    0    0 -0.56772651262E+01 -0.95820304783E+00  0.70942442870E+01  0.91372216454E+01  0.10500000000E+00 0. -1.
</event>
<event>
11    0  0.3467594E-009  0.9118800E+02  0.7816531E-02  0.1126479E+00
         25   -1    0    0    0    0  0.00000000000E+00  0.00000000000E+00  0.99999998245E-14  0.12500000000E+03  0.12500000000E+03 0.  0.
    3000001    1    3    3    0    0 -0.11828999546E+01  0.91052390397E+00  0.33095097213E-01  0.17970535239E+01  0.10000000000E+01 0. -1.
    1000022    2    1    0    0    0 -0.55530775181E+01  0.60277237049E+02  0.11919221870E+02  0.62499999034E+02  0.10000002653E+02 0.  0.
    3000022    2    3    3    0    0 -0.43701775634E+01  0.59366713145E+02  0.11886126773E+02  0.60702945510E+02  0.25000466092E+00 0.  0.
    1000022    2    1    0    0    0  0.55530775181E+01 -0.60277237049E+02 -0.11919221870E+02  0.62500000966E+02  0.10000014728E+02 0.  0.
    3000022    2    5    5    0    0  0.84064051861E+01 -0.44763518121E+02 -0.87252365674E+01  0.46374911947E+02  0.25000438997E+00 0.  0.
        -13    1    4    4    0    0 -0.23339400037E+01  0.32416208081E+02  0.64468406876E+01  0.33133526859E+02  0.10500000000E+00 0. -1.
         13    1    4    4    0    0 -0.20362375597E+01  0.26950505064E+02  0.54392860853E+01  0.27569418651E+02  0.10500000000E+00 0.  1.
    3000001    1    5    5    0    0 -0.28533276680E+01 -0.15513718928E+02 -0.31939853027E+01  0.16125089020E+02  0.10000000000E+01 0. -1.
        -13    1    6    6    0    0  0.48591214923E+01 -0.26200654387E+02 -0.50814946180E+01  0.27127807957E+02  0.10500000000E+00 0.  1.
         13    1    6    6    0    0  0.35472836938E+01 -0.18562863734E+02 -0.36437419494E+01  0.19247103990E+02  0.10500000000E+00 0. -1.
</event>
<event>
11    0  0.3467594E-009  0.9118800E+02  0.7816531E-02  0.1126479E+00
         25   -1    0    0    0    0  0.00000000000E+00  0.00000000000E+00  0.99999998245E-14  0.12500000000E+03  0.12500000000E+03 0.  0.
    3000001    1    3    3    0    0 -0.69837976928E+01 -0.29440560616E+02  0.28991182920E+02  0.41916687926E+02  0.10000000000E+01 0. -1.
    1000022    2    1    0    0    0 -0.83472303967E+01 -0.38683945512E+02  0.47329970070E+02  0.62499999781E+02  0.10000000503E+02 0.  0.
    3000022    2    3    3    0    0 -0.13634327040E+01 -0.92433848966E+01  0.18338787150E+02  0.20583311855E+02  0.24999937191E+00 0.  0.
    1000022    2    1    0    0    0  0.83472303967E+01  0.38683945512E+02 -0.47329970070E+02  0.62500000219E+02  0.10000003242E+02 0.  0.
    3000022    2    5    5    0    0  0.77070419857E+01  0.38610397393E+02 -0.46898009339E+02  0.61234361803E+02  0.25000486416E+00 0.  0.
        -13    1    4    4    0    0 -0.33783585208E+00 -0.25363175228E+01  0.50008019807E+01  0.56183703233E+01  0.10500000000E+00 0.  1.
         13    1    4    4    0    0 -0.10255968519E+01 -0.67070673738E+01  0.13337985170E+02  0.14964941532E+02  0.10500000000E+00 0. -1.
    3000001    1    5    5    0    0  0.64018841107E+00  0.73548119557E-01 -0.43196073125E+00  0.12656384163E+01  0.10000000000E+01 0.  1.
        -13    1    6    6    0    0  0.45032689805E+01  0.22227948473E+02 -0.27018681672E+02  0.35275789277E+02  0.10500000000E+00 0. -1.
         13    1    6    6    0    0  0.32037730051E+01  0.16382448920E+02 -0.19879327667E+02  0.25958572526E+02  0.10500000000E+00 0.  1.
</event>
<event>
11    0  0.3467594E-009  0.9118800E+02  0.7816531E-02  0.1126479E+00
         25   -1    0    0    0    0  0.00000000000E+00  0.00000000000E+00  0.99999998245E-14  0.12500000000E+03  0.12500000000E+03 0.  0.
    3000001    1    3    3    0    0  0.20211871293E+02 -0.16041317907E+02 -0.49689253243E+02  0.55998799176E+02  0.10000000000E+01 0. -1.
    1000022    2    1    0    0    0  0.23484555440E+02 -0.14671647586E+02 -0.55131374464E+02  0.62500000858E+02  0.10000003494E+02 0.  0.
    3000022    2    3    3    0    0  0.32726841472E+01  0.13696703208E+01 -0.54421212210E+01  0.65012016819E+01  0.24996321684E+00 0.  0.
    1000022    2    1    0    0    0 -0.23484555440E+02  0.14671647586E+02  0.55131374464E+02  0.62499999142E+02  0.99999927650E+01 0.  0.
    3000022    2    5    5    0    0 -0.86996551937E+01  0.20134749968E+01  0.25632863650E+02  0.27144875767E+02  0.24999890811E+00 0.  0.
        -13    1    4    4    0    0  0.20900176697E+01  0.93670226737E+00 -0.35022729440E+01  0.41859916115E+01  0.10500000000E+00 0. -1.
         13    1    4    4    0    0  0.11826664775E+01  0.43296805342E+00 -0.19398482770E+01  0.23152100704E+01  0.10500000000E+00 0.  1.
    3000001    1    5    5    0    0 -0.14784900246E+02  0.12658172589E+02  0.29498510815E+02  0.35355123375E+02  0.10000000000E+01 0. -1.
        -13    1    6    6    0    0 -0.31157947199E+01  0.76296912097E+00  0.93356581935E+01  0.98719723218E+01  0.10500000000E+00 0.  1.
         13    1    6    6    0    0 -0.55838604738E+01  0.12505058759E+01  0.16297205456E+02  0.17272903445E+02  0.10500000000E+00 0. -1.
</event>
<event>
11    0  0.3467594E-009  0.9118800E+02  0.7816531E-02  0.1126479E+00
         25   -1    0    0    0    0  0.00000000000E+00  0.00000000000E+00  0.99999998245E-14  0.12500000000E+03  0.12500000000E+03 0.  0.
    3000001    1    3    3    0    0  0.43451545784E+01 -0.52109350543E+01 -0.50447379894E+01  0.85137297251E+01  0.10000000000E+01 0.  1.
    1000022    2    1    0    0    0  0.43023264756E+02 -0.17059939158E+02 -0.40794700452E+02  0.62500000329E+02  0.99999810905E+01 0.  0.
    3000022    2    3    3    0    0  0.38678110177E+02 -0.11849004103E+02 -0.35749962463E+02  0.53986270603E+02  0.24998494595E+00 0.  0.
    1000022    2    1    0    0    0 -0.43023264756E+02  0.17059939158E+02  0.40794700452E+02  0.62499999671E+02  0.99999769829E+01 0.  0.
    3000022    2    5    5    0    0 -0.22289147614E+01  0.79491308661E+00 -0.23399367493E+00  0.23910668386E+01  0.24999951496E+00 0.  0.
        -13    1    4    4    0    0  0.22395752211E+02 -0.68820204798E+01 -0.20623365729E+02  0.31213236967E+02  0.10500000000E+00 0. -1.
         13    1    4    4    0    0  0.16282357967E+02 -0.49669836235E+01 -0.15126596734E+02  0.22773033637E+02  0.10500000000E+00 0.  1.
    3000001    1    5    5    0    0 -0.40794349994E+02  0.16265026071E+02  0.41028694127E+02  0.60108932833E+02  0.10000000000E+01 0. -1.
        -13    1    6    6    0    0 -0.10699181153E+01  0.43328978615E+00 -0.66757673493E-01  0.11610109384E+01  0.10500000000E+00 0. -1.
         13    1    6    6    0    0 -0.11589966461E+01  0.36162330047E+00 -0.16723600144E+00  0.12300559001E+01  0.10500000000E+00 0.  1.
</event>
<event>
11    0  0.3467594E-009  0.9118800E+02  0.7816531E-02  0.1126479E+00
         25   -1    0    0    0    0  0.00000000000E+00  0.00000000000E+00  0.99999998245E-14  0.12500000000E+03  0.12500000000E+03 0.  0.
    3000001    1    3    3    0    0 -0.28994597073E+02 -0.16259442828E+02  0.36564502146E+01  0.33457820740E+02  0.10000000000E+01 0. -1.
    1000022    2    1    0    0    0 -0.53108470283E+02 -0.31313325535E+02 -0.22838702740E+01  0.62500000010E+02  0.99999982972E+01 0.  0.
    3000022    2    3    3    0    0 -0.24113873210E+02 -0.15053882707E+02 -0.59403204886E+01  0.29042179269E+02  0.25000697799E+00 0.  0.
    1000022    2    1    0    0    0  0.53108470283E+02  0.31313325535E+02  0.22838702740E+01  0.62499999990E+02  0.99999981773E+01 0.  0.
    3000022    2    5    5    0    0  0.12793929572E+02  0.12031303007E+02  0.28666847754E+01  0.17796552045E+02  0.24999428697E+00 0.  0.
        -13    1    4    4    0    0 -0.17974796155E+02 -0.11207523304E+02 -0.43991876617E+01  0.21634827305E+02  0.10500000000E+00 0.  1.
         13    1    4    4    0    0 -0.61390770547E+01 -0.38463594031E+01 -0.15411328269E+01  0.74073519649E+01  0.10500000000E+00 0. -1.
    3000001    1    5    5    0    0  0.40314540710E+02  0.19282022528E+02 -0.58281450145E+00  0.44703447945E+02  0.10000000000E+01 0.  1.
        -13    1    6    6    0    0  0.62044306143E+01  0.57480928163E+01  0.13555723734E+01  0.85664538598E+01  0.10500000000E+00 0.  1.
         13    1    6    6    0    0  0.65894989579E+01  0.62832101907E+01  0.15111124020E+01  0.92300981852E+01  0.10500000000E+00 0. -1.
</event>
<event>
11    0  0.3467594E-009  0.9118800E+02  0.7816531E-02  0.1126479E+00
         25   -1    0    0    0    0  0.00000000000E+00  0.00000000000E+00  0.99999998245E-14  0.12500000000E+03  0.12500000000E+03 0.  0.
    3000001    1    3    3    0    0  0.26879342167E+01 -0.89145252117E+01  0.37309731511E+01  0.10080372551E+02  0.10000000000E+01 0. -1.
    1000022    2    1    0    0    0  0.41542981497E+01 -0.61265641091E+02  0.59592828495E+01  0.62500000737E+02  0.10000003433E+02 0.  0.
    3000022    2    3    3    0    0  0.14663639330E+01 -0.52351115879E+02  0.22283096983E+01  0.52419628187E+02  0.24999624743E+00 0.  0.
    1000022    2    1    0    0    0 -0.41542981497E+01  0.61265641091E+02 -0.59592828495E+01  0.62499999263E+02  0.99999942194E+01 0.  0.
    3000022    2    5    5    0    0 -0.21582881771E+01  0.58778799149E+01 -0.31054408441E+01  0.69938504315E+01  0.25000174592E+00 0.  0.
        -13    1    4    4    0    0  0.97515460369E+00 -0.35604735178E+02  0.15611454660E+01  0.35652437416E+02  0.10500000000E+00 0.  1.
         13    1    4    4    0    0  0.49120932929E+00 -0.16746380702E+02  0.66716423230E+00  0.16767190770E+02  0.10500000000E+00 0. -1.
    3000001    1    5    5    0    0 -0.19960099726E+01  0.55387761176E+02 -0.28538420054E+01  0.55506148831E+02  0.10000000000E+01 0.  1.
        -13    1    6    6    0    0 -0.14625036521E+01  0.39786008328E+01 -0.21587856495E+01  0.47581048748E+01  0.10500000000E+00 0.  1.
         13    1    6    6    0    0 -0.69578452493E+00  0.18992790821E+01 -0.94665519458E+00  0.22357455567E+01  0.10500000000E+00 0. -1.
</event>
<event>
11    0  0.3467594E-009  0.9118800E+02  0.7816531E-02  0.1126479E+00
         25   -1    0    0    0    0  0.00000000000E+00  0.00000000000E+00  0.99999998245E-14  0.12500000000E+03  0.12500000000E+03 0.  0.
    3000001    1    3    3    0    0  0.19843142867E+02 -0.14174608243E+02 -0.76714644850E+01  0.25583612041E+02  0.10000000000E+01 0. -1.
    1000022    2    1    0    0    0  0.43572134520E+02 -0.42246025720E+02 -0.11090196998E+02  0.62500000788E+02  0.10000001663E+02 0.  0.
    3000022    2    3    3    0    0  0.23728991653E+02 -0.28071417477E+02 -0.34187325129E+01  0.36916388747E+02  0.25000426492E+00 0.  0.
    1000022    2    1    0    0    0 -0.43572134520E+02  0.42246025720E+02  0.11090196998E+02  0.62499999212E+02  0.99999918134E+01 0.  0.
    3000022    2    5    5    0    0 -0.12748349579E+01  0.40217007345E+01 -0.67503404822E+00  0.42798890058E+01  0.24999593514E+00 0.  0.
        -13    1    4    4    0    0  0.13638857134E+02 -0.16033646079E+02 -0.19549945538E+01  0.21140701483E+02  0.10500000000E+00 0. -1.
         13    1    4    4    0    0  0.10090134519E+02 -0.12037771398E+02 -0.14637379591E+01  0.15775687264E+02  0.10500000000E+00 0.  1.
    3000001    1    5    5    0    0 -0.42297299562E+02  0.38224324986E+02  0.11765231046E+02  0.58220110206E+02  0.10000000000E+01 0.  1.
        -13    1    6    6    0    0 -0.50606294831E+00  0.17732082966E+01 -0.25585763274E+00  0.18646328054E+01  0.10500000000E+00 0.  1.
         13    1    6    6    0    0 -0.76877200956E+00  0.22484924379E+01 -0.41917641548E+00  0.24152562004E+01  0.10500000000E+00 0. -1.
</event>
<event>
11    0  0.3467594E-009  0.9118800E+02  0.7816531E-02  0.1126479E+00
         25   -1    0    0    0    0  0.00000000000E+00  0.00000000000E+00  0.99999998245E-14  0.12500000000E+03  0.12500000000E+03 0.  0.
    3000001    1    3    3    0    0  0.12736267998E+02  0.20633662182E+02 -0.23685659694E+01  0.24383819272E+02  0.10000000000E+01 0.  1.
    1000022    2    1    0    0    0  0.28453641668E+02  0.51827179153E+02 -0.17623384235E+02  0.62500000993E+02  0.10000011453E+02 0.  0.
    3000022    2    3    3    0    0  0.15717373670E+02  0.31193516971E+02 -0.15254818266E+02  0.38116181720E+02  0.24998502726E+00 0.  0.
    1000022    2    1    0    0    0 -0.28453641668E+02 -0.51827179153E+02  0.17623384235E+02  0.62499999007E+02  0.99999990452E+01 0.  0.
    3000022    2    5    5    0    0 -0.14699393759E+02 -0.16846454735E+02  0.62385117608E+01  0.23213287035E+02  0.24990390026E+00 0.  0.
        -13    1    4    4    0    0  0.39601562411E+01  0.79170597917E+01 -0.38786306458E+01  0.96652715371E+01  0.10500000000E+00 0. -1.
         13    1    4    4    0    0  0.11757217429E+02  0.23276457179E+02 -0.11376187620E+02  0.28450910183E+02  0.10500000000E+00 0.  1.
    3000001    1    5    5    0    0 -0.13754247909E+02 -0.34980724418E+02  0.11384872474E+02  0.39286711972E+02  0.10000000000E+01 0.  1.
        -13    1    6    6    0    0 -0.99695989067E+01 -0.11411496242E+02  0.41758265217E+01  0.15718260113E+02  0.10500000000E+00 0.  1.
         13    1    6    6    0    0 -0.47297948524E+01 -0.54349584934E+01  0.20626852392E+01  0.74950269224E+01  0.10500000000E+00 0. -1.
</event>
<event>
11    0  0.3467594E-009  0.9118800E+02  0.7816531E-02  0.1126479E+00
         25   -1    0    0    0    0  0.00000000000E+00  0.00000000000E+00  0.99999998245E-14  0.12500000000E+03  0.12500000000E+03 0.  0.
    3000001    1    3    3    0    0 -0.15768739469E+02 -0.12989442843E+02 -0.23646677625E+02  0.31265702175E+02  0.10000000000E+01 0. -1.
    1000022    2    1    0    0    0 -0.30618175248E+02 -0.16796506157E+02 -0.50859164935E+02  0.62500001300E+02  0.10000011501E+02 0.  0.
    3000022    2    3    3    0    0 -0.14849435780E+02 -0.38070633143E+01 -0.27212487310E+02  0.31234299126E+02  0.25000439199E+00 0.  0.
    1000022    2    1    0    0    0  0.30618175248E+02  0.16796506157E+02  0.50859164935E+02  0.62499998700E+02  0.99999952481E+01 0.  0.
    3000022    2    5    5    0    0  0.47716025482E+01 -0.78414622503E+00  0.93293223695E+01  0.10511033697E+02  0.24999465858E+00 0.  0.
        -13    1    4    4    0    0 -0.72739407182E+01 -0.18483342929E+01 -0.13188554424E+02  0.15174832653E+02  0.10500000000E+00 0. -1.
         13    1    4    4    0    0 -0.75754950615E+01 -0.19587290214E+01 -0.14023932886E+02  0.16059466473E+02  0.10500000000E+00 0.  1.
    3000001    1    5    5    0    0  0.25846572700E+02  0.17580652382E+02  0.41529842566E+02  0.51988965003E+02  0.10000000000E+01 0.  1.
        -13    1    6    6    0    0  0.21074655918E+01 -0.28298685671E+00  0.40553731331E+01  0.45802367876E+01  0.10500000000E+00 0. -1.
         13    1    6    6    0    0  0.26641369564E+01 -0.50115936832E+00  0.52739492364E+01  0.59307969096E+01  0.10500000000E+00 0.  1.
</event>
<event>
11    0  0.3467594E-009  0.9118800E+02  0.7816531E-02  0.1126479E+00
         25   -1    0    0    0    0  0.00000000000E+00  0.00000000000E+00  0.99999998245E-14  0.12500000000E+03  0.12500000000E+03 0.  0.
    3000001    1    3    3    0    0 -0.54574744983E+02  0.94140841203E+01  0.15737731910E+02  0.57582149799E+02  0.10000000000E+01 0. -1.
    1000022    2    1    0    0    0 -0.59122340580E+02  0.75680051229E+01  0.15922442129E+02  0.62499999405E+02  0.99999952512E+01 0.  0.
    3000022    2    3    3    0    0 -0.45475955966E+01 -0.18460789974E+01  0.18471021936E+00  0.49178496055E+01  0.24998700398E+00 0.  0.
    1000022    2    1    0    0    0  0.59122340580E+02 -0.75680051229E+01 -0.15922442129E+02  0.62500000595E+02  0.10000002694E+02 0.  0.
    3000022    2    5    5    0    0  0.45623202600E+02 -0.66624354063E+01 -0.80207571612E+01  0.46800210532E+02  0.24999869097E+00 0.  0.
        -13    1    4    4    0    0 -0.16395585091E+01 -0.62555029903E+00  0.21827806329E-01  0.17581145396E+01  0.10500000000E+00 0.  1.
         13    1    4    4    0    0 -0.29080370875E+01 -0.12205286984E+01  0.16288241303E+00  0.31597350659E+01  0.10500000000E+00 0. -1.
    3000001    1    5    5    0    0  0.13499137980E+02 -0.90556971657E+00 -0.79016849679E+01  0.15699790064E+02  0.10000000000E+01 0. -1.
        -13    1    6    6    0    0  0.17399756198E+02 -0.25996367626E+01 -0.30793672903E+01  0.17860659421E+02  0.10500000000E+00 0. -1.
         13    1    6    6    0    0  0.28223446403E+02 -0.40627986437E+01 -0.49413898709E+01  0.28939551111E+02  0.10500000000E+00 0.  1.
</event>
<event>
11    0  0.3467594E-009  0.9118800E+02  0.7816531E-02  0.1126479E+00
         25   -1    0    0    0    0  0.00000000000E+00  0.00000000000E+00  0.99999998245E-14  0.12500000000E+03  0.12500000000E+03 0.  0.
    3000001    1    3    3    0    0  0.89815362445E+01 -0.99171440022E+00 -0.39511402033E+01  0.99127695257E+01  0.10000000000E+01 0. -1.
    1000022    2    1    0    0    0  0.60409924275E+02 -0.11965076261E+02 -0.37051415544E+01  0.62499999725E+02  0.99999945428E+01 0.  0.
    3000022    2    3    3    0    0  0.51428388030E+02 -0.10973361861E+02  0.24599864892E+00  0.52587230199E+02  0.24999753989E+00 0.  0.
    1000022    2    1    0    0    0 -0.60409924275E+02  0.11965076261E+02  0.37051415544E+01  0.62500000275E+02  0.99999979823E+01 0.  0.
    3000022    2    5    5    0    0 -0.50252115776E+02  0.12821179264E+02  0.53047092593E+01  0.52133100898E+02  0.24998250243E+00 0.  0.
        -13    1    4    4    0    0  0.13895105671E+02 -0.29950508410E+01  0.45799518210E-01  0.14214690069E+02  0.10500000000E+00 0.  1.
         13    1    4    4    0    0  0.37533282359E+02 -0.79783110200E+01  0.20019913071E+00  0.38372540130E+02  0.10500000000E+00 0. -1.
    3000001    1    5    5    0    0 -0.10157808499E+02 -0.85610300311E+00 -0.15995677049E+01  0.10366899377E+02  0.10000000000E+01 0.  1.
        -13    1    6    6    0    0 -0.21983774300E+02  0.55985581386E+01  0.22548396977E+01  0.22797489177E+02  0.10500000000E+00 0. -1.
         13    1    6    6    0    0 -0.28268341475E+02  0.72226211256E+01  0.30498695616E+01  0.29335611721E+02  0.10500000000E+00 0.  1.
</event>
<event>
11    0  0.3467594E-009  0.9118800E+02  0.7816531E-02  0.1126479E+00
         25   -1    0    0    0    0  0.00000000000E+00  0.00000000000E+00  0.99999998245E-14  0.12500000000E+03  0.12500000000E+03 0.  0.
    3000001    1    3    3    0    0 -0.19611573318E+00  0.75372757566E+01 -0.44805631086E+01  0.88274816897E+01  0.10000000000E+01 0.  1.
    1000022    2    1    0    0    0  0.16207141713E+02  0.57269372768E+02 -0.16241856673E+02  0.62499996507E+02  0.99999577716E+01 0.  0.
    3000022    2    3    3    0    0  0.16403257446E+02  0.49732097011E+02 -0.11761293564E+02  0.53672514817E+02  0.24998499388E+00 0.  0.
    1000022    2    1    0    0    0 -0.16207141713E+02 -0.57269372768E+02  0.16241856673E+02  0.62500003493E+02  0.10000001440E+02 0.  0.
    3000022    2    5    5    0    0 -0.21386722648E+01 -0.14684415862E+01 -0.27614121543E+00  0.26208751801E+01  0.24998598074E+00 0.  0.
        -13    1    4    4    0    0  0.11224639938E+02  0.34188058631E+02 -0.80816835400E+01  0.36880083087E+02  0.10500000000E+00 0. -1.
         13    1    4    4    0    0  0.51786175088E+01  0.15544038380E+02 -0.36796100239E+01  0.16792431730E+02  0.10500000000E+00 0.  1.
    3000001    1    5    5    0    0 -0.14068469448E+02 -0.55800931182E+02  0.16517997888E+02  0.59879128313E+02  0.10000000000E+01 0.  1.
        -13    1    6    6    0    0 -0.13139793829E+01 -0.89599802415E+00 -0.10716403651E+00  0.15974552916E+01  0.10500000000E+00 0.  1.
         13    1    6    6    0    0 -0.82469288185E+00 -0.57244356201E+00 -0.16897717892E+00  0.10234198884E+01  0.10500000000E+00 0. -1.
</event>
<event>
11    0  0.3467594E-009  0.9118800E+02  0.7816531E-02  0.1126479E+00
         25   -1    0    0    0    0  0.00000000000E+00  0.00000000000E+00  0.99999998245E-14  0.12500000000E+03  0.12500000000E+03 0.  0.
    3000001    1    3    3    0    0  0.27458492244E+02  0.28077927907E+02  0.40964691177E+02  0.56757772640E+02  0.10000000000E+01 0. -1.
    1000022    2    1    0    0    0  0.32456992297E+02  0.29880933437E+02  0.43126830570E+02  0.62500000077E+02  0.99999981320E+01 0.  0.
    3000022    2    3    3    0    0  0.49985000536E+01  0.18030055292E+01  0.21621393928E+01  0.57422274370E+01  0.24999491893E+00 0.  0.
    1000022    2    1    0    0    0 -0.32456992297E+02 -0.29880933437E+02 -0.43126830570E+02  0.62499999923E+02  0.99999971661E+01 0.  0.
    3000022    2    5    5    0    0 -0.13058271722E+02 -0.69504822602E+01 -0.10500964946E+02  0.18142778878E+02  0.24999320865E+00 0.  0.
        -13    1    4    4    0    0  0.21373367784E+01  0.79282499111E+00  0.86079929576E+00  0.24390121768E+01  0.10500000000E+00 0.  1.
         13    1    4    4    0    0  0.28611632752E+01  0.10101805381E+01  0.13013400971E+01  0.33032152602E+01  0.10500000000E+00 0. -1.
    3000001    1    5    5    0    0 -0.19398720575E+02 -0.22930451176E+02 -0.32625865624E+02  0.44357221045E+02  0.10000000000E+01 0.  1.
        -13    1    6    6    0    0 -0.42948727864E+01 -0.23455511102E+01 -0.34826750499E+01  0.60072949624E+01  0.10500000000E+00 0. -1.
         13    1    6    6    0    0 -0.87633989355E+01 -0.46049311501E+01 -0.70182898960E+01  0.12135483916E+02  0.10500000000E+00 0.  1.
</event>
<event>
11    0  0.3467594E-009  0.9118800E+02  0.7816531E-02  0.1126479E+00
         25   -1    0    0    0    0  0.00000000000E+00  0.00000000000E+00  0.99999998245E-14  0.12500000000E+03  0.12500000000E+03 0.  0.
    3000001    1    3    3    0    0  0.47962812367E+02  0.80498923154E+01 -0.21112744240E+01  0.48689728036E+02  0.10000000000E+01 0. -1.
    1000022    2    1    0    0    0  0.60235002259E+02  0.10823969313E+02 -0.77997710091E+01  0.62500000908E+02  0.99999938427E+01 0.  0.
    3000022    2    3    3    0    0  0.12272189891E+02  0.27740769980E+01 -0.56884965850E+01  0.13810272872E+02  0.24999096818E+00 0.  0.
    1000022    2    1    0    0    0 -0.60235002259E+02 -0.10823969313E+02  0.77997710091E+01  0.62499999092E+02  0.99999824980E+01 0.  0.
    3000022    2    5    5    0    0 -0.22697056934E+01 -0.10704980318E+01 -0.15680601533E+01  0.29696533129E+01  0.24999636737E+00 0.  0.
        -13    1    4    4    0    0  0.69276212270E+01  0.15132995362E+01 -0.32511057171E+01  0.78014565778E+01  0.10500000000E+00 0.  1.
         13    1    4    4    0    0  0.53445686642E+01  0.12607774618E+01 -0.24373908680E+01  0.60088162942E+01  0.10500000000E+00 0. -1.
    3000001    1    5    5    0    0 -0.57965296565E+02 -0.97534712817E+01  0.93678311624E+01  0.59530345780E+02  0.10000000000E+01 0. -1.
        -13    1    6    6    0    0 -0.16675870808E+01 -0.80154109320E+00 -0.11165008302E+01  0.21635419802E+01  0.10500000000E+00 0. -1.
         13    1    6    6    0    0 -0.60211861256E+00 -0.26895693857E+00 -0.45155932316E+00  0.80611133271E+00  0.10500000000E+00 0.  1.
</event>
<event>
11    0  0.3467594E-009  0.9118800E+02  0.7816531E-02  0.1126479E+00
         25   -1    0    0    0    0  0.00000000000E+00  0.00000000000E+00  0.99999998245E-14  0.12500000000E+03  0.12500000000E+03 0.  0.
    3000001    1    3    3    0    0  0.26414275659E+01 -0.70586058888E+01 -0.24317768556E+01  0.79821422785E+01  0.10000000000E+01 0.  1.
    1000022    2    1    0    0    0  0.17447259927E+01 -0.61550214438E+02 -0.38441329063E+01  0.62499999250E+02  0.99999791161E+01 0.  0.
    3000022    2    3    3    0    0 -0.89670157322E+00 -0.54491608549E+02 -0.14123560507E+01  0.54517856972E+02  0.25000636027E+00 0.  0.
    1000022    2    1    0    0    0 -0.17447259927E+01  0.61550214438E+02  0.38441329063E+01  0.62500000750E+02  0.99999884886E+01 0.  0.
    3000022    2    5    5    0    0  0.18453920726E+01  0.44854869993E+02 -0.31823295411E+00  0.44894638970E+02  0.25000399531E+00 0.  0.
        -13    1    4    4    0    0 -0.55147735004E+00 -0.29586107972E+02 -0.74920884981E+00  0.29600916390E+02  0.10500000000E+00 0. -1.
         13    1    4    4    0    0 -0.34522422318E+00 -0.24905500577E+02 -0.66314720087E+00  0.24916940582E+02  0.10500000000E+00 0.  1.
    3000001    1    5    5    0    0 -0.35901180653E+01  0.16695344445E+02  0.41623658604E+01  0.17605361780E+02  0.10000000000E+01 0. -1.
        -13    1    6    6    0    0  0.14138142720E+01  0.34259325152E+02 -0.22780150183E+00  0.34289402870E+02  0.10500000000E+00 0.  1.
         13    1    6    6    0    0  0.43157780061E+00  0.10595544841E+02 -0.90431452280E-01  0.10605236099E+02  0.10500000000E+00 0. -1.
</event>
<event>
11    0  0.3467594E-009  0.9118800E+02  0.7816531E-02  0.1126479E+00
         25   -1    0    0    0    0  0.00000000000E+00  0.00000000000E+00  0.99999998245E-14  0.12500000000E+03  0.12500000000E+03 0.  0.
    3000001    1    3    3    0    0  0.74266271655E+01 -0.79065610701E+00  0.26370263467E+02  0.27425731047E+02  0.10000000000E+01 0.  1.
    1000022    2    1    0    0    0  0.26365820232E+02 -0.56129591916E+01  0.55494037049E+02  0.62499999798E+02  0.10000001968E+02 0.  0.
    3000022    2    3    3    0    0  0.18939193066E+02 -0.48223030846E+01  0.29123773582E+02  0.35074268751E+02  0.24999944677E+00 0.  0.
    1000022    2    1    0    0    0 -0.26365820232E+02  0.56129591916E+01 -0.55494037049E+02  0.62500000202E+02  0.10000004494E+02 0.  0.
    3000022    2    5    5    0    0 -0.31738698396E+01  0.23173372044E+01 -0.16811671702E+02  0.17266681994E+02  0.25000038397E+00 0.  0.
        -13    1    4    4    0    0  0.12121203587E+02 -0.31250220040E+01  0.18732387405E+02  0.22530039987E+02  0.10500000000E+00 0. -1.
         13    1    4    4    0    0  0.68179894795E+01 -0.16972810806E+01  0.10391386177E+02  0.12544228764E+02  0.10500000000E+00 0.  1.
    3000001    1    5    5    0    0 -0.23191950392E+02  0.32956219873E+01 -0.38682365347E+02  0.45233318208E+02  0.10000000000E+01 0. -1.
        -13    1    6    6    0    0 -0.19015673249E+01  0.14389477736E+01 -0.99859323760E+01  0.10267248872E+02  0.10500000000E+00 0. -1.
         13    1    6    6    0    0 -0.12723025147E+01  0.87838943078E+00 -0.68257393255E+01  0.69994331214E+01  0.10500000000E+00 0.  1.
</event>
<event>
11    0  0.3467594E-009  0.9118800E+02  0.7816531E-02  0.1126479E+00
         25   -1    0    0    0    0  0.00000000000E+00  0.00000000000E+00  0.99999998245E-14  0.12500000000E+03  0.12500000000E+03 0.  0.
    3000001    1    3    3    0    0 -0.12439022807E+02 -0.38620658109E+02  0.14326404334E+01  0.40612029988E+02  0.10000000000E+01 0.  1.
    1000022    2    1    0    0    0 -0.25593033042E+02 -0.56112124712E+02  0.16359040701E+01  0.62499999394E+02  0.99999931111E+01 0.  0.
    3000022    2    3    3    0    0 -0.13154010235E+02 -0.17491466603E+02  0.20326363667E+00  0.21887969406E+02  0.24999887966E+00 0.  0.
    1000022    2    1    0    0    0  0.25593033042E+02  0.56112124712E+02 -0.16359040701E+01  0.62500000606E+02  0.10000000684E+02 0.  0.
    3000022    2    5    5    0    0  0.13886538274E+02  0.32577966877E+02 -0.57420266850E+01  0.35877475413E+02  0.25000093553E+00 0.  0.
        -13    1    4    4    0    0 -0.38063053471E+01 -0.50064444227E+01  0.32284663056E-01  0.62900328658E+01  0.10500000000E+00 0. -1.
         13    1    4    4    0    0 -0.93477048877E+01 -0.12485022180E+02  0.17097897361E+00  0.15597936540E+02  0.10500000000E+00 0.  1.
    3000001    1    5    5    0    0  0.11706494768E+02  0.23534157835E+02  0.41061226149E+01  0.26622525193E+02  0.10000000000E+01 0. -1.
        -13    1    6    6    0    0  0.93506351199E+01  0.21808999368E+02 -0.38644890003E+01  0.24041882846E+02  0.10500000000E+00 0.  1.
         13    1    6    6    0    0  0.45359031539E+01  0.10768967510E+02 -0.18775376846E+01  0.11835592567E+02  0.10500000000E+00 0. -1.
</event>
<event>
11    0  0.3467594E-009  0.9118800E+02  0.7816531E-02  0.1126479E+00
         25   -1    0    0    0    0  0.00000000000E+00  0.00000000000E+00  0.99999998245E-14  0.12500000000E+03  0.12500000000E+03 0.  0.
    3000001    1    3    3    0    0  0.37431570139E+01 -0.25784200089E+01  0.79300997511E+01  0.91948875053E+01  0.10000000000E+01 0. -1.
    1000022    2    1    0    0    0  0.10943989642E+02 -0.69462994209E+00  0.60712407009E+02  0.62500000872E+02  0.10000016208E+02 0.  0.
    3000022    2    3    3    0    0  0.72008326282E+01  0.18837900668E+01  0.52782307258E+02  0.53305113367E+02  0.24999207523E+00 0.  0.
    1000022    2    1    0    0    0 -0.10943989642E+02  0.69462994209E+00 -0.60712407009E+02  0.62499999128E+02  0.10000005303E+02 0.  0.
    3000022    2    5    5    0    0 -0.69995585965E+01  0.11904362516E+01 -0.55066196895E+02  0.55522603566E+02  0.25001448841E+00 0.  0.
        -13    1    4    4    0    0  0.43054354979E+01  0.11315634710E+01  0.31111372839E+02  0.31428422736E+02  0.10500000000E+00 0.  1.
         13    1    4    4    0    0  0.28953971303E+01  0.75222659580E+00  0.21670934419E+02  0.21876690631E+02  0.10500000000E+00 0. -1.
    3000001    1    5    5    0    0 -0.39444310456E+01 -0.49580630948E+00 -0.56462101141E+01  0.69773955616E+01  0.10000000000E+01 0.  1.
        -13    1    6    6    0    0 -0.25866070006E+01  0.43033241460E+00 -0.19886744518E+02  0.20059146400E+02  0.10500000000E+00 0. -1.
         13    1    6    6    0    0 -0.44129515958E+01  0.76010383698E+00 -0.35179452377E+02  0.35463457166E+02  0.10500000000E+00 0.  1.
</event>
<event>
11    0  0.3467594E-009  0.9118800E+02  0.7816531E-02  0.1126479E+00
         25   -1    0    0    0    0  0.00000000000E+00  0.00000000000E+00  0.99999998245E-14  0.12500000000E+03  0.12500000000E+03 0.  0.
    3000001    1    3    3    0    0 -0.90447328170E+01  0.95133728451E+01  0.80657676378E+01  0.15439172977E+02  0.10000000000E+01 0. -1.
    1000022    2    1    0    0    0 -0.21707754239E+02  0.41042395978E+02  0.40626902311E+02  0.62499999558E+02  0.99999945803E+01 0.  0.
    3000022    2    3    3    0    0 -0.12663021422E+02  0.31529023133E+02  0.32561134673E+02  0.47060826581E+02  0.24999202819E+00 0.  0.
    1000022    2    1    0    0    0  0.21707754239E+02 -0.41042395978E+02 -0.40626902311E+02  0.62500000442E+02  0.10000000106E+02 0.  0.
    3000022    2    5    5    0    0  0.59559426190E+01 -0.70328671369E+01 -0.38837266266E+01  0.10004014112E+02  0.24998641175E+00 0.  0.
        -13    1    4    4    0    0 -0.73525602346E+01  0.18335374405E+02  0.18842967990E+02  0.27300449891E+02  0.10500000000E+00 0.  1.
         13    1    4    4    0    0 -0.53104611869E+01  0.13193648729E+02  0.13718166684E+02  0.19760376690E+02  0.10500000000E+00 0. -1.
    3000001    1    5    5    0    0  0.15751811620E+02 -0.34009528841E+02 -0.36743175685E+02  0.52495986330E+02  0.10000000000E+01 0. -1.
        -13    1    6    6    0    0  0.27853577679E+01 -0.33887027449E+01 -0.18703628863E+01  0.47697805521E+01  0.10500000000E+00 0.  1.
         13    1    6    6    0    0  0.31705848511E+01 -0.36441643920E+01 -0.20133637403E+01  0.52342335604E+01  0.10500000000E+00 0. -1.
</event>
<event>
11    0  0.3467594E-009  0.9118800E+02  0.7816531E-02  0.1126479E+00
         25   -1    0    0    0    0  0.00000000000E+00  0.00000000000E+00  0.99999998245E-14  0.12500000000E+03  0.12500000000E+03 0.  0.
    3000001    1    3    3    0    0  0.22188894588E+01  0.56413840971E+01 -0.41594611681E+02  0.42045932096E+02  0.10000000000E+01 0. -1.
    1000022    2    1    0    0    0  0.59407086714E+01  0.20105776221E+01 -0.61375201999E+02  0.62500001261E+02  0.10000014767E+02 0.  0.
    3000022    2    3    3    0    0  0.37218192126E+01 -0.36308064750E+01 -0.19780590318E+02  0.20454069165E+02  0.24999631384E+00 0.  0.
    1000022    2    1    0    0    0 -0.59407086714E+01 -0.20105776221E+01  0.61375201999E+02  0.62499998739E+02  0.99999990069E+01 0.  0.
    3000022    2    5    5    0    0  0.17461597557E+00 -0.27149442154E+01  0.43167430879E+02  0.43253797635E+02  0.25001648116E+00 0.  0.
        -13    1    4    4    0    0  0.14369626365E+01 -0.13267005420E+01 -0.75507606129E+01  0.78006414339E+01  0.10500000000E+00 0. -1.
         13    1    4    4    0    0  0.22848565761E+01 -0.23041059331E+01 -0.12229829705E+02  0.12653427731E+02  0.10500000000E+00 0.  1.
    3000001    1    5    5    0    0 -0.61153246470E+01  0.70436659327E+00  0.18207771119E+02  0.19246201105E+02  0.10000000000E+01 0. -1.
        -13    1    6    6    0    0  0.77338854233E-01 -0.82838450152E+00  0.12616079597E+02  0.12643919154E+02  0.10500000000E+00 0.  1.
         13    1    6    6    0    0  0.97277121341E-01 -0.18865597139E+01  0.30551351282E+02  0.30609878480E+02  0.10500000000E+00 0. -1.
</event>
<event>
11    0  0.3467594E-009  0.9118800E+02  0.7816531E-02  0.1126479E+00
         25   -1    0    0    0    0  0.00000000000E+00  0.00000000000E+00  0.99999998245E-14  0.12500000000E+03  0.12500000000E+03 0.  0.
    3000001    1    3    3    0    0  0.51707129460E+00  0.11497118191E+02  0.14210533254E+02  0.18313665520E+02  0.10000000000E+01 0.  1.
    1000022    2    1    0    0    0  0.57541825787E+01  0.48804261655E+02  0.37299910949E+02  0.62499999938E+02  0.10000003131E+02 0.  0.
    3000022    2    3    3    0    0  0.52371112841E+01  0.37307143464E+02  0.23089377695E+02  0.44186334418E+02  0.24999779304E+00 0.  0.
    1000022    2    1    0    0    0 -0.57541825787E+01 -0.48804261655E+02 -0.37299910949E+02  0.62500000062E+02  0.10000003900E+02 0.  0.
    3000022    2    5    5    0    0 -0.84114345371E-01 -0.34622659869E+02 -0.28500676926E+02  0.44845141739E+02  0.25000145556E+00 0.  0.
        -13    1    4    4    0    0  0.27447615938E+01  0.19187908493E+02  0.11932400055E+02  0.22761870411E+02  0.10500000000E+00 0.  1.
         13    1    4    4    0    0  0.24923496903E+01  0.18119234971E+02  0.11156977640E+02  0.21424464007E+02  0.10500000000E+00 0. -1.
    3000001    1    5    5    0    0 -0.56700682333E+01 -0.14181601786E+02 -0.87992340237E+01  0.17654858322E+02  0.10000000000E+01 0.  1.
        -13    1    6    6    0    0 -0.15669857454E-01 -0.11773518876E+02 -0.97608869578E+01  0.15293852735E+02  0.10500000000E+00 0. -1.
         13    1    6    6    0    0 -0.68444487917E-01 -0.22849140994E+02 -0.18739789968E+02  0.29551289005E+02  0.10500000000E+00 0.  1.
</event>
<event>
11    0  0.3467594E-009  0.9118800E+02  0.7816531E-02  0.1126479E+00
         25   -1    0    0    0    0  0.00000000000E+00  0.00000000000E+00  0.99999998245E-14  0.12500000000E+03  0.12500000000E+03 0.  0.
    3000001    1    3    3    0    0 -0.34451753556E+01 -0.20905952710E+02 -0.16227149262E+02  0.26706711986E+02  0.10000000000E+01 0. -1.
    1000022    2    1    0    0    0 -0.14517489707E+02 -0.52377024385E+02 -0.29191431018E+02  0.62500001849E+02  0.10000019770E+02 0.  0.
    3000022    2    3    3    0    0 -0.11072314351E+02 -0.31471071675E+02 -0.12964281756E+02  0.35793289863E+02  0.25000054657E+00 0.  0.
    1000022    2    1    0    0    0  0.14517489707E+02  0.52377024385E+02  0.29191431018E+02  0.62499998151E+02  0.99999966551E+01 0.  0.
    3000022    2    5    5    0    0  0.20823480131E+01  0.13100476684E+02  0.11853229410E+02  0.17791014900E+02  0.25000228079E+00 0.  0.
        -13    1    4    4    0    0 -0.71872150649E+01 -0.20490542397E+02 -0.84942790899E+01  0.23316993597E+02  0.10500000000E+00 0. -1.
         13    1    4    4    0    0 -0.38850992861E+01 -0.10980529278E+02 -0.44700026663E+01  0.12476296266E+02  0.10500000000E+00 0.  1.
    3000001    1    5    5    0    0  0.12435141694E+02  0.39276547702E+02  0.17338201608E+02  0.44708983251E+02  0.10000000000E+01 0. -1.
        -13    1    6    6    0    0  0.14123994207E+01  0.91606772137E+01  0.83035474717E+01  0.12444790265E+02  0.10500000000E+00 0.  1.
         13    1    6    6    0    0  0.66994859234E+00  0.39397994700E+01  0.35496819383E+01  0.53462246346E+01  0.10500000000E+00 0. -1.
</event>
<event>
11    0  0.3467594E-009  0.9118800E+02  0.7816531E-02  0.1126479E+00
         25   -1    0    0    0    0  0.00000000000E+00  0.00000000000E+00  0.99999998245E-14  0.12500000000E+03  0.12500000000E+03 0.  0.
    3000001    1    3    3    0    0 -0.24718555562E+01 -0.27849062676E+01  0.17477635455E+01  0.42332552747E+01  0.10000000000E+01 0. -1.
    1000022    2    1    0    0    0 -0.55741886231E+02 -0.12933356522E+02  0.23061229125E+02  0.62499999892E+02  0.10000005312E+02 0.  0.
    3000022    2    3    3    0    0 -0.53270030674E+02 -0.10148450255E+02  0.21313465580E+02  0.58266744617E+02  0.25000527961E+00 0.  0.
    1000022    2    1    0    0    0  0.55741886231E+02  0.12933356522E+02 -0.23061229125E+02  0.62500000108E+02  0.10000006664E+02 0.  0.
    3000022    2    5    5    0    0  0.34104769328E+02  0.39746782130E+01 -0.10496876829E+02  0.35905156745E+02  0.24999976556E+00 0.  0.
        -13    1    4    4    0    0 -0.30353430917E+02 -0.58350674941E+01  0.12104792978E+02  0.33195117399E+02  0.10500000000E+00 0. -1.
         13    1    4    4    0    0 -0.22916599757E+02 -0.43133827606E+01  0.92086726012E+01  0.25071627218E+02  0.10500000000E+00 0.  1.
    3000001    1    5    5    0    0  0.21637116902E+02  0.89586783093E+01 -0.12564352296E+02  0.26594843363E+02  0.10000000000E+01 0.  1.
        -13    1    6    6    0    0  0.23979454585E+02  0.28133923741E+01 -0.74237990876E+01  0.25259715690E+02  0.10500000000E+00 0.  1.
         13    1    6    6    0    0  0.10125314744E+02  0.11612858389E+01 -0.30730777417E+01  0.10645441056E+02  0.10500000000E+00 0. -1.
</event>
<event>
11    0  0.3467594E-009  0.9118800E+02  0.7816531E-02  0.1126479E+00
         25   -1    0    0    0    0  0.00000000000E+00  0.00000000000E+00  0.99999998245E-14  0.12500000000E+03  0.12500000000E+03 0.  0.
    3000001    1    3    3    0    0 -0.13721066935E+02  0.24086777519E+02 -0.16261501239E+02  0.32153957013E+02  0.10000000000E+01 0. -1.
    1000022    2    1    0    0    0 -0.33600565712E+02  0.40222626210E+02 -0.32548301279E+02  0.62500001971E+02  0.10000032742E+02 0.  0.
    3000022    2    3    3    0    0 -0.19879498776E+02  0.16135848691E+02 -0.16286800039E+02  0.30346044957E+02  0.25000886710E+00 0.  0.
    1000022    2    1    0    0    0  0.33600565712E+02 -0.40222626210E+02  0.32548301279E+02  0.62499998029E+02  0.10000008110E+02 0.  0.
    3000022    2    5    5    0    0  0.16893562414E+01 -0.60265649032E-01  0.25430563748E+01  0.30638539973E+01  0.25001826380E+00 0.  0.
        -13    1    4    4    0    0 -0.13379860744E+02  0.10853778468E+02 -0.11020631642E+02  0.20452152145E+02  0.10500000000E+00 0.  1.
         13    1    4    4    0    0 -0.64996380321E+01  0.52820702238E+01 -0.52661683970E+01  0.98938928124E+01  0.10500000000E+00 0. -1.
    3000001    1    5    5    0    0  0.31911209470E+02 -0.40162360561E+02  0.30005244904E+02  0.59436144032E+02  0.10000000000E+01 0. -1.
        -13    1    6    6    0    0  0.72993928123E+00 -0.56089504771E-01  0.12089893228E+01  0.14172641142E+01  0.10500000000E+00 0.  1.
         13    1    6    6    0    0  0.95941696017E+00 -0.41761442612E-02  0.13340670520E+01  0.16465898831E+01  0.10500000000E+00 0. -1.
</event>
<event>
11    0  0.3467594E-009  0.9118800E+02  0.7816531E-02  0.1126479E+00
         25   -1    0    0    0    0  0.00000000000E+00  0.00000000000E+00  0.99999998245E-14  0.12500000000E+03  0.12500000000E+03 0.  0.
    3000001    1    3    3    0    0  0.43835560648E+01  0.18807078337E+01  0.27355649454E+01  0.55889123539E+01  0.10000000000E+01 0.  1.
    1000022    2    1    0    0    0  0.25722577027E+02  0.30438108530E+02  0.47096928203E+02  0.62500000905E+02  0.10000002360E+02 0.  0.
    3000022    2    3    3    0    0  0.21339020962E+02  0.28557400696E+02  0.44361363258E+02  0.56911088551E+02  0.24999976456E+00 0.  0.
    1000022    2    1    0    0    0 -0.25722577027E+02 -0.30438108530E+02 -0.47096928203E+02  0.62499999095E+02  0.99999910473E+01 0.  0.
    3000022    2    5    5    0    0 -0.18361197673E+02 -0.19778752226E+02 -0.24585276025E+02  0.36507956725E+02  0.24997475083E+00 0.  0.
        -13    1    4    4    0    0  0.72070538650E+01  0.97349586390E+01  0.15088250164E+02  0.19348833638E+02  0.10500000000E+00 0. -1.
         13    1    4    4    0    0  0.14131967097E+02  0.18822442057E+02  0.29273113093E+02  0.37562254914E+02  0.10500000000E+00 0.  1.
    3000001    1    5    5    0    0 -0.73613793538E+01 -0.10659356304E+02 -0.22511652178E+02  0.25992042370E+02  0.10000000000E+01 0. -1.
        -13    1    6    6    0    0 -0.74883659370E+01 -0.80679998208E+01 -0.99417193255E+01  0.14832971842E+02  0.10500000000E+00 0.  1.
         13    1    6    6    0    0 -0.10872831736E+02 -0.11710752405E+02 -0.14643556700E+02  0.21674984883E+02  0.10500000000E+00 0. -1.
</event>
<event>
11    0  0.3467594E-009  0.9118800E+02  0.7816531E-02  0.1126479E+00
         25   -1    0    0    0    0  0.00000000000E+00  0.00000000000E+00  0.99999998245E-14  0.12500000000E+03  0.12500000000E+03 0.  0.
    3000001    1    3    3    0    0 -0.11243948648E+02 -0.35354052341E+02 -0.13533336325E+02  0.39502994700E+02  0.10000000000E+01 0.  1.
    1000022    2    1    0    0    0 -0.23500126849E+02 -0.51730848289E+02 -0.24039833373E+02  0.62500001852E+02  0.10000000814E+02 0.  0.
    3000022    2    3    3    0    0 -0.12256178201E+02 -0.16376795948E+02 -0.10506497048E+02  0.22997007153E+02  0.25001629255E+00 0.  0.
    1000022    2    1    0    0    0  0.23500126849E+02  0.51730848289E+02  0.24039833373E+02  0.62499998148E+02  0.99999776588E+01 0.  0.
    3000022    2    5    5    0    0  0.16585400567E+02  0.40660164225E+02  0.14299579109E+02  0.46182950671E+02  0.25000653496E+00 0.  0.
        -13    1    4    4    0    0 -0.54763030441E+01 -0.73234789890E+01 -0.46223748423E+01  0.10246980712E+02  0.10500000000E+00 0. -1.
         13    1    4    4    0    0 -0.67798751567E+01 -0.90533169590E+01 -0.58841222061E+01  0.12750026441E+02  0.10500000000E+00 0.  1.
    3000001    1    5    5    0    0  0.69147262821E+01  0.11070684065E+02  0.97402542638E+01  0.16317047476E+02  0.10000000000E+01 0.  1.
        -13    1    6    6    0    0  0.78584564242E+01  0.19157026764E+02  0.67990545149E+01  0.21794154701E+02  0.10500000000E+00 0. -1.
         13    1    6    6    0    0  0.87269441430E+01  0.21503137460E+02  0.75005245945E+01  0.24388795971E+02  0.10500000000E+00 0.  1.
</event>
<event>
11    0  0.3467594E-009  0.9118800E+02  0.7816531E-02  0.1126479E+00
         25   -1    0    0    0    0  0.00000000000E+00  0.00000000000E+00  0.99999998245E-14  0.12500000000E+03  0.12500000000E+03 0.  0.
    3000001    1    3    3    0    0 -0.17654791719E+01 -0.30044175110E+01 -0.17543119827E+01  0.40275366937E+01  0.10000000000E+01 0. -1.
    1000022    2    1    0    0    0 -0.45602955377E+02 -0.18446857560E+02 -0.37233503060E+02  0.62499998348E+02  0.99999975195E+01 0.  0.
    3000022    2    3    3    0    0 -0.43837476205E+02 -0.15442440049E+02 -0.35479191078E+02  0.58472461654E+02  0.24999534651E+00 0.  0.
    1000022    2    1    0    0    0  0.45602955377E+02  0.18446857560E+02  0.37233503060E+02  0.62500001652E+02  0.10000018171E+02 0.  0.
    3000022    2    5    5    0    0  0.40466539365E+02  0.15049469656E+02  0.35827934748E+02  0.56104641123E+02  0.25000429944E+00 0.  0.
        -13    1    4    4    0    0 -0.31277338888E+02 -0.11062151935E+02 -0.25322532940E+02  0.41735893819E+02  0.10500000000E+00 0.  1.
         13    1    4    4    0    0 -0.12560137317E+02 -0.43802881132E+01 -0.10156658138E+02  0.16736567836E+02  0.10500000000E+00 0. -1.
    3000001    1    5    5    0    0  0.51364160118E+01  0.33973879035E+01  0.14055683127E+01  0.63953605289E+01  0.10000000000E+01 0.  1.
        -13    1    6    6    0    0  0.30556381604E+02  0.11387652916E+02  0.27053084982E+02  0.42370408633E+02  0.10500000000E+00 0. -1.
         13    1    6    6    0    0  0.99101577607E+01  0.36618167404E+01  0.87748497657E+01  0.13734232490E+02  0.10500000000E+00 0.  1.
</event>
<event>
11    0  0.3467594E-009  0.9118800E+02  0.7816531E-02  0.1126479E+00
         25   -1    0    0    0    0  0.00000000000E+00  0.00000000000E+00  0.99999998245E-14  0.12500000000E+03  0.12500000000E+03 0.  0.
    3000001    1    3    3    0    0 -0.22214789011E+01 -0.17516111261E+02  0.17512667917E+02  0.24888605018E+02  0.10000000000E+01 0.  1.
    1000022    2    1    0    0    0  0.52349545443E+01 -0.39475642888E+02  0.47122367080E+02  0.62499989111E+02  0.10000001454E+02 0.  0.
    3000022    2    3    3    0    0  0.74564334454E+01 -0.21959531628E+02  0.29609699164E+02  0.37611384093E+02  0.24999951601E+00 0.  0.
    1000022    2    1    0    0    0 -0.52349545443E+01  0.39475642888E+02 -0.47122367080E+02  0.62500010889E+02  0.10000137565E+02 0.  0.
    3000022    2    5    5    0    0  0.14639860026E+01  0.17952507379E+02 -0.25716566824E+02  0.31398090510E+02  0.25000456514E+00 0.  0.
        -13    1    4    4    0    0  0.30212981250E+01 -0.90353607598E+01  0.12239366880E+02  0.15510612916E+02  0.10500000000E+00 0.  1.
         13    1    4    4    0    0  0.44351353204E+01 -0.12924170868E+02  0.17370332284E+02  0.22100771177E+02  0.10500000000E+00 0. -1.
    3000001    1    5    5    0    0 -0.66989405469E+01  0.21523135510E+02 -0.21405800257E+02  0.31101920379E+02  0.10000000000E+01 0.  1.
        -13    1    6    6    0    0  0.73125768834E+00  0.96650991584E+01 -0.13775582228E+02  0.16844185058E+02  0.10500000000E+00 0.  1.
         13    1    6    6    0    0  0.73272831426E+00  0.82874082203E+01 -0.11940984596E+02  0.14553905452E+02  0.10500000000E+00 0. -1.
</event>
<event>
11    0  0.3467594E-009  0.9118800E+02  0.7816531E-02  0.1126479E+00
         25   -1    0    0    0    0  0.00000000000E+00  0.00000000000E+00  0.99999998245E-14  0.12500000000E+03  0.12500000000E+03 0.  0.
    3000001    1    3    3    0    0 -0.48573109574E+02 -0.16491523038E+02  0.32440822566E+02  0.60701929743E+02  0.10000000000E+01 0. -1.
    1000022    2    1    0    0    0 -0.49843997835E+02 -0.17576564726E+02  0.31825939515E+02  0.62499998732E+02  0.99999833861E+01 0.  0.
    3000022    2    3    3    0    0 -0.12708882609E+01 -0.10850416883E+01 -0.61488305077E+00  0.17980689886E+01  0.24999696941E+00 0.  0.
    1000022    2    1    0    0    0  0.49843997835E+02  0.17576564726E+02 -0.31825939515E+02  0.62500001268E+02  0.99999992385E+01 0.  0.
    3000022    2    5    5    0    0  0.34191596588E+02  0.81072007045E+01 -0.24132636821E+02  0.42629082162E+02  0.25001112655E+00 0.  0.
        -13    1    4    4    0    0 -0.68811670109E+00 -0.62494671846E+00 -0.40493881290E+00  0.10193446117E+01  0.10500000000E+00 0.  1.
         13    1    4    4    0    0 -0.58277155979E+00 -0.46009496986E+00 -0.20994423787E+00  0.77872437692E+00  0.10500000000E+00 0. -1.
    3000001    1    5    5    0    0  0.15652401247E+02  0.94693640218E+01 -0.76933026937E+01  0.19870919106E+02  0.10000000000E+01 0.  1.
        -13    1    6    6    0    0  0.13022523817E+02  0.30355303894E+01 -0.92239189464E+01  0.16244761526E+02  0.10500000000E+00 0. -1.
         13    1    6    6    0    0  0.21169072771E+02  0.50716703150E+01 -0.14908717875E+02  0.26384320636E+02  0.10500000000E+00 0.  1.
</event>
<event>
11    0  0.3467594E-009  0.9118800E+02  0.7816531E-02  0.1126479E+00
         25   -1    0    0    0    0  0.00000000000E+00  0.00000000000E+00  0.99999998245E-14  0.12500000000E+03  0.12500000000E+03 0.  0.
    3000001    1    3    3    0    0 -0.16399399930E+02  0.21563408081E+01  0.18551924883E+02  0.24874968153E+02  0.10000000000E+01 0.  1.
    1000022    2    1    0    0    0 -0.32983240946E+02 -0.16148137051E+01  0.52112841201E+02  0.62499999792E+02  0.99999974659E+01 0.  0.
    3000022    2    3    3    0    0 -0.16583841016E+02 -0.37711545132E+01  0.33560916318E+02  0.37625031639E+02  0.25002501006E+00 0.  0.
    1000022    2    1    0    0    0  0.32983240946E+02  0.16148137051E+01 -0.52112841201E+02  0.62500000208E+02  0.10000000067E+02 0.  0.
    3000022    2    5    5    0    0  0.52490863052E+01  0.99408859850E+00 -0.31260775069E+01  0.61948348096E+01  0.24999711703E+00 0.  0.
        -13    1    4    4    0    0 -0.55590469070E+01 -0.12105366730E+01  0.11255738279E+02  0.12612338037E+02  0.10500000000E+00 0. -1.
         13    1    4    4    0    0 -0.11024794109E+02 -0.25606178401E+01  0.22305178039E+02  0.25012693602E+02  0.10500000000E+00 0.  1.
    3000001    1    5    5    0    0  0.27734154640E+02  0.62072510658E+00 -0.48986763695E+02  0.56305165398E+02  0.10000000000E+01 0.  1.
        -13    1    6    6    0    0  0.14829910317E+01  0.29382120938E+00 -0.93094676142E+00  0.17785612656E+01  0.10500000000E+00 0. -1.
         13    1    6    6    0    0  0.37660952735E+01  0.70026738911E+00 -0.21951307455E+01  0.44162735440E+01  0.10500000000E+00 0.  1.
</event>
<event>
11    0  0.3467594E-009  0.9118800E+02  0.7816531E-02  0.1126479E+00
         25   -1    0    0    0    0  0.00000000000E+00  0.00000000000E+00  0.99999998245E-14  0.12500000000E+03  0.12500000000E+03 0.  0.
    3000001    1    3    3    0    0 -0.46283088437E+02 -0.23089054065E+02 -0.14602486552E+02  0.53753709699E+02  0.10000000000E+01 0. -1.
    1000022    2    1    0    0    0 -0.53217204009E+02 -0.24103076271E+02 -0.19829812045E+02  0.62500002050E+02  0.99999861120E+01 0.  0.
    3000022    2    3    3    0    0 -0.69341155721E+01 -0.10140222061E+01 -0.52273254929E+01  0.87462923512E+01  0.24999656422E+00 0.  0.
    1000022    2    1    0    0    0  0.53217204009E+02  0.24103076271E+02  0.19829812045E+02  0.62499997950E+02  0.99999604822E+01 0.  0.
    3000022    2    5    5    0    0  0.38927456104E+02  0.21034189599E+02  0.17869604420E+02  0.47719694349E+02  0.24999154037E+00 0.  0.
        -13    1    4    4    0    0 -0.22303957282E+01 -0.34938346056E+00 -0.17422031001E+01  0.28535995776E+01  0.10500000000E+00 0. -1.
         13    1    4    4    0    0 -0.47037198439E+01 -0.66463874553E+00 -0.34851223927E+01  0.58926927736E+01  0.10500000000E+00 0.  1.
    3000001    1    5    5    0    0  0.14289747905E+02  0.30688866725E+01  0.19602076244E+01  0.14780303601E+02  0.10000000000E+01 0.  1.
        -13    1    6    6    0    0  0.16524263302E+02  0.88702338743E+01  0.75313248081E+01  0.20210497397E+02  0.10500000000E+00 0. -1.
         13    1    6    6    0    0  0.22403192802E+02  0.12163955725E+02  0.10338279612E+02  0.27509196952E+02  0.10500000000E+00 0.  1.
</event>
<event>
11    0  0.3467594E-009  0.9118800E+02  0.7816531E-02  0.1126479E+00
         25   -1    0    0    0    0  0.00000000000E+00  0.00000000000E+00  0.99999998245E-14  0.12500000000E+03  0.12500000000E+03 0.  0.
    3000001    1    3    3    0    0  0.26495885998E+02 -0.83193866975E+01  0.25963094823E+02  0.38030599031E+02  0.10000000000E+01 0. -1.
    1000022    2    1    0    0    0  0.37946366838E+02 -0.10685515325E+02  0.47456739971E+02  0.62499995507E+02  0.10000013787E+02 0.  0.
    3000022    2    3    3    0    0  0.11450480840E+02 -0.23661286276E+01  0.21493645148E+02  0.24469396476E+02  0.25001204860E+00 0.  0.
    1000022    2    1    0    0    0 -0.37946366838E+02  0.10685515325E+02 -0.47456739971E+02  0.62500004493E+02  0.10000069949E+02 0.  0.
    3000022    2    5    5    0    0 -0.11125120531E+02  0.74712670892E+01 -0.18988555679E+02  0.23242544538E+02  0.24998222460E+00 0.  0.
        -13    1    4    4    0    0  0.44443689321E+01 -0.98115090667E+00  0.83512020175E+01  0.95115021129E+01  0.10500000000E+00 0.  1.
         13    1    4    4    0    0  0.70061119076E+01 -0.13849777210E+01  0.13142443130E+02  0.14957894363E+02  0.10500000000E+00 0. -1.
    3000001    1    5    5    0    0 -0.26821246307E+02  0.32142482359E+01 -0.28468184293E+02  0.39257459955E+02  0.10000000000E+01 0.  1.
        -13    1    6    6    0    0 -0.30865743407E+01  0.20674885743E+01 -0.51988057171E+01  0.63906225088E+01  0.10500000000E+00 0.  1.
         13    1    6    6    0    0 -0.80385461899E+01  0.54037785149E+01 -0.13789749961E+02  0.16851922029E+02  0.10500000000E+00 0. -1.
</event>
<event>
11    0  0.3467594E-009  0.9118800E+02  0.7816531E-02  0.1126479E+00
         25   -1    0    0    0    0  0.00000000000E+00  0.00000000000E+00  0.99999998245E-14  0.12500000000E+03  0.12500000000E+03 0.  0.
    3000001    1    3    3    0    0  0.38574857294E+02 -0.33419804544E+02  0.13383496515E+02  0.52773297509E+02  0.10000000000E+01 0. -1.
    1000022    2    1    0    0    0  0.47247361216E+02 -0.35811090151E+02  0.17073440367E+02  0.62500000774E+02  0.10000020557E+02 0.  0.
    3000022    2    3    3    0    0  0.86725039211E+01 -0.23912856069E+01  0.36899438516E+01  0.97267032644E+01  0.24999929960E+00 0.  0.
    1000022    2    1    0    0    0 -0.47247361216E+02  0.35811090151E+02 -0.17073440367E+02  0.62499999226E+02  0.10000010886E+02 0.  0.
    3000022    2    5    5    0    0 -0.31655517860E+02  0.28667796561E+02 -0.96465186584E+01  0.43783926225E+02  0.25000558444E+00 0.  0.
        -13    1    4    4    0    0  0.50583471846E+01 -0.13334473095E+01  0.21168312341E+01  0.56441967933E+01  0.10500000000E+00 0.  1.
         13    1    4    4    0    0  0.36141567365E+01 -0.10578382975E+01  0.15731126175E+01  0.40825064711E+01  0.10500000000E+00 0. -1.
    3000001    1    5    5    0    0 -0.15591843355E+02  0.71432935895E+01 -0.74269217082E+01  0.18716073001E+02  0.10000000000E+01 0.  1.
        -13    1    6    6    0    0 -0.23740142225E+02  0.21533154284E+02 -0.72317281960E+01  0.32856962793E+02  0.10500000000E+00 0.  1.
         13    1    6    6    0    0 -0.79153756356E+01  0.71346422770E+01 -0.24147904624E+01  0.10926963432E+02  0.10500000000E+00 0. -1.
</event>
<event>
11    0  0.3467594E-009  0.9118800E+02  0.7816531E-02  0.1126479E+00
         25   -1    0    0    0    0  0.00000000000E+00  0.00000000000E+00  0.99999998245E-14  0.12500000000E+03  0.12500000000E+03 0.  0.
    3000001    1    3    3    0    0  0.66374942947E+01 -0.21386519973E+02  0.22446307507E+02  0.31721858202E+02  0.10000000000E+01 0.  1.
    1000022    2    1    0    0    0  0.35210009651E+01 -0.41127987564E+02  0.45851294760E+02  0.62499999963E+02  0.99999977716E+01 0.  0.
    3000022    2    3    3    0    0 -0.31164933296E+01 -0.19741467590E+02  0.23404987253E+02  0.30778141761E+02  0.25001738136E+00 0.  0.
    1000022    2    1    0    0    0 -0.35210009651E+01  0.41127987564E+02 -0.45851294760E+02  0.62500000037E+02  0.99999982288E+01 0.  0.
    3000022    2    5    5    0    0 -0.73090343868E+00  0.36993562626E+02 -0.37231130681E+02  0.52490737201E+02  0.25000896847E+00 0.  0.
        -13    1    4    4    0    0 -0.19673859031E+01 -0.12065946968E+02  0.14316745978E+02  0.18826521823E+02  0.10500000000E+00 0.  1.
         13    1    4    4    0    0 -0.11491074265E+01 -0.76755206222E+01  0.90882412742E+01  0.11951619939E+02  0.10500000000E+00 0. -1.
    3000001    1    5    5    0    0 -0.27900975264E+01  0.41344249379E+01 -0.86201640788E+01  0.10009262836E+02  0.10000000000E+01 0. -1.
        -13    1    6    6    0    0 -0.54733197220E+00  0.25275325545E+02 -0.25458517433E+02  0.35878806956E+02  0.10500000000E+00 0. -1.
         13    1    6    6    0    0 -0.18357146649E+00  0.11718237081E+02 -0.11772613249E+02  0.16611930245E+02  0.10500000000E+00 0.  1.
</event>
<event>
11    0  0.3467594E-009  0.9118800E+02  0.7816531E-02  0.1126479E+00
         25   -1    0    0    0    0  0.00000000000E+00  0.00000000000E+00  0.99999998245E-14  0.12500000000E+03  0.12500000000E+03 0.  0.
    3000001    1    3    3    0    0  0.81260282877E+01 -0.15441209590E+02  0.16566785881E+02  0.24081563150E+02  0.10000000000E+01 0.  1.
    1000022    2    1    0    0    0  0.25385853083E+02 -0.45709625634E+02  0.32748108325E+02  0.62499999559E+02  0.99999966799E+01 0.  0.
    3000022    2    3    3    0    0  0.17259824795E+02 -0.30268416045E+02  0.16181322445E+02  0.38418436409E+02  0.24999648496E+00 0.  0.
    1000022    2    1    0    0    0 -0.25385853083E+02  0.45709625634E+02 -0.32748108325E+02  0.62500000441E+02  0.10000002193E+02 0.  0.
    3000022    2    5    5    0    0 -0.18259688184E+02  0.29946452379E+02 -0.16564264272E+02  0.38789735458E+02  0.25000660253E+00 0.  0.
        -13    1    4    4    0    0  0.42122593212E+01 -0.73662431428E+01  0.39624701358E+01  0.93657280126E+01  0.10500000000E+00 0.  1.
         13    1    4    4    0    0  0.13047565474E+02 -0.22902172902E+02  0.12218852309E+02  0.29052708396E+02  0.10500000000E+00 0. -1.
    3000001    1    5    5    0    0 -0.71261648984E+01  0.15763173255E+02 -0.16183844054E+02  0.23710264983E+02  0.10000000000E+01 0. -1.
        -13    1    6    6    0    0 -0.11570014394E+02  0.19015898331E+02 -0.10572796931E+02  0.24642740967E+02  0.10500000000E+00 0. -1.
         13    1    6    6    0    0 -0.66896737903E+01  0.10930554048E+02 -0.59914673401E+01  0.14146994490E+02  0.10500000000E+00 0.  1.
</event>
<event>
11    0  0.3467594E-009  0.9118800E+02  0.7816531E-02  0.1126479E+00
         25   -1    0    0    0    0  0.00000000000E+00  0.00000000000E+00  0.99999998245E-14  0.12500000000E+03  0.12500000000E+03 0.  0.
    3000001    1    3    3    0    0  0.21851500195E+02 -0.15048737663E+02  0.13222792698E+02  0.29661335317E+02  0.10000000000E+01 0. -1.
    1000022    2    1    0    0    0  0.37989580059E+02 -0.37597185941E+02  0.30813851246E+02  0.62500001280E+02  0.10000007383E+02 0.  0.
    3000022    2    3    3    0    0  0.16138079863E+02 -0.22548448278E+02  0.17591058549E+02  0.32838665963E+02  0.24999994651E+00 0.  0.
    1000022    2    1    0    0    0 -0.37989580059E+02  0.37597185941E+02 -0.30813851246E+02  0.62499998720E+02  0.99999913831E+01 0.  0.
    3000022    2    5    5    0    0 -0.28677243715E+02  0.22205301609E+02 -0.22248564387E+02  0.42550215502E+02  0.24999066190E+00 0.  0.
        -13    1    4    4    0    0  0.85700331495E+01 -0.11964778425E+02  0.92571779580E+01  0.17386999732E+02  0.10500000000E+00 0. -1.
         13    1    4    4    0    0  0.75680467136E+01 -0.10583669852E+02  0.83338805909E+01  0.15451666231E+02  0.10500000000E+00 0.  1.
    3000001    1    5    5    0    0 -0.93123363436E+01  0.15391884333E+02 -0.85652868592E+01  0.19949783218E+02  0.10000000000E+01 0. -1.
        -13    1    6    6    0    0 -0.11162941634E+02  0.85689710588E+01 -0.86113571861E+01  0.16498637172E+02  0.10500000000E+00 0.  1.
         13    1    6    6    0    0 -0.17514302081E+02  0.13636330550E+02 -0.13637207201E+02  0.26051578330E+02  0.10500000000E+00 0. -1.
</event>
<event>
11    0  0.3467594E-009  0.9118800E+02  0.7816531E-02  0.1126479E+00
         25   -1    0    0    0    0  0.00000000000E+00  0.00000000000E+00  0.99999998245E-14  0.12500000000E+03  0.12500000000E+03 0.  0.
    3000001    1    3    3    0    0  0.19058517842E+02 -0.14294764586E+02  0.67175422065E-01  0.23844745950E+02  0.10000000000E+01 0.  1.
    1000022    2    1    0    0    0  0.55571579185E+02 -0.26646552027E+02 -0.28303714429E+01  0.62499998860E+02  0.99999853477E+01 0.  0.
    3000022    2    3    3    0    0  0.36513061344E+02 -0.12351787441E+02 -0.28975468650E+01  0.38655252910E+02  0.24999608904E+00 0.  0.
    1000022    2    1    0    0    0 -0.55571579185E+02  0.26646552027E+02  0.28303714429E+01  0.62500001140E+02  0.99999995984E+01 0.  0.
    3000022    2    5    5    0    0 -0.37211265008E+02  0.15330208929E+02  0.59548134095E+01  0.40684344025E+02  0.24999330211E+00 0.  0.
        -13    1    4    4    0    0  0.25742537333E+02 -0.87532412407E+01 -0.20561718782E+01  0.27267862556E+02  0.10500000000E+00 0.  1.
         13    1    4    4    0    0  0.10770524010E+02 -0.35985462005E+01 -0.84137498682E+00  0.11387390354E+02  0.10500000000E+00 0. -1.
    3000001    1    5    5    0    0 -0.18360314177E+02  0.11316343098E+02 -0.31244419666E+01  0.21815657115E+02  0.10000000000E+01 0. -1.
        -13    1    6    6    0    0 -0.12372765176E+02  0.50926910541E+01  0.19260113955E+01  0.13518186460E+02  0.10500000000E+00 0.  1.
         13    1    6    6    0    0 -0.24838499832E+02  0.10237517875E+02  0.40288020140E+01  0.27166157564E+02  0.10500000000E+00 0. -1.
</event>
<event>
11    0  0.3467594E-009  0.9118800E+02  0.7816531E-02  0.1126479E+00
         25   -1    0    0    0    0  0.00000000000E+00  0.00000000000E+00  0.99999998245E-14  0.12500000000E+03  0.12500000000E+03 0.  0.
    3000001    1    3    3    0    0 -0.22599844032E+02 -0.38250857986E+01  0.40394105725E+02  0.46455010590E+02  0.10000000000E+01 0.  1.
    1000022    2    1    0    0    0 -0.25734224358E+02 -0.84620749649E+01  0.55429170748E+02  0.62500000269E+02  0.10000002386E+02 0.  0.
    3000022    2    3    3    0    0 -0.31343803266E+01 -0.46369891663E+01  0.15035065023E+02  0.16044989678E+02  0.25000993586E+00 0.  0.
    1000022    2    1    0    0    0  0.25734224358E+02  0.84620749649E+01 -0.55429170748E+02  0.62499999731E+02  0.99999990295E+01 0.  0.
    3000022    2    5    5    0    0  0.26470246332E+01 -0.12787855062E+01 -0.22703708572E+01  0.37227833999E+01  0.25000126654E+00 0.  0.
        -13    1    4    4    0    0 -0.23909597583E+01 -0.34985260791E+01  0.11384122710E+02  0.12147660193E+02  0.10500000000E+00 0.  1.
         13    1    4    4    0    0 -0.74342056826E+00 -0.11384630872E+01  0.36509423136E+01  0.38973294856E+01  0.10500000000E+00 0. -1.
    3000001    1    5    5    0    0  0.23087199725E+02  0.97408604711E+01 -0.53158799891E+02  0.58777216332E+02  0.10000000000E+01 0. -1.
        -13    1    6    6    0    0  0.12137551857E+01 -0.62823464294E+00 -0.11259620457E+01  0.17738928789E+01  0.10500000000E+00 0. -1.
         13    1    6    6    0    0  0.14332694475E+01 -0.65055086331E+00 -0.11444088115E+01  0.19488905210E+01  0.10500000000E+00 0.  1.
</event>
<event>
11    0  0.3467594E-009  0.9118800E+02  0.7816531E-02  0.1126479E+00
         25   -1    0    0    0    0  0.00000000000E+00  0.00000000000E+00  0.99999998245E-14  0.12500000000E+03  0.12500000000E+03 0.  0.
    3000001    1    3    3    0    0  0.37092909765E+02 -0.24696591784E+02  0.21836103018E+02  0.49634876807E+02  0.10000000000E+01 0.  1.
    1000022    2    1    0    0    0  0.48689203393E+02 -0.30149990663E+02  0.22947539628E+02  0.62499999506E+02  0.99999949614E+01 0.  0.
    3000022    2    3    3    0    0  0.11596293628E+02 -0.54533988792E+01  0.11114366093E+01  0.12865122699E+02  0.25001097526E+00 0.  0.
    1000022    2    1    0    0    0 -0.48689203393E+02  0.30149990663E+02 -0.22947539628E+02  0.62500000494E+02  0.10000001138E+02 0.  0.
    3000022    2    5    5    0    0 -0.26767388691E+02  0.14296440923E+02 -0.72316553449E+01  0.31196805482E+02  0.25002567286E+00 0.  0.
        -13    1    4    4    0    0  0.27931930280E+01 -0.13342203337E+01  0.27746864530E+00  0.31096760345E+01  0.10500000000E+00 0.  1.
         13    1    4    4    0    0  0.88031005997E+01 -0.41191785455E+01  0.83396796398E+00  0.97554466645E+01  0.10500000000E+00 0. -1.
    3000001    1    5    5    0    0 -0.21921814702E+02  0.15853549740E+02 -0.15715884283E+02  0.31303195012E+02  0.10000000000E+01 0.  1.
        -13    1    6    6    0    0 -0.97354959546E+01  0.51335400317E+01 -0.26270486371E+01  0.11315720228E+02  0.10500000000E+00 0.  1.
         13    1    6    6    0    0 -0.17031892737E+02  0.91629008914E+01 -0.46046067078E+01  0.19881085254E+02  0.10500000000E+00 0. -1.
</event>
<event>
11    0  0.3467594E-009  0.9118800E+02  0.7816531E-02  0.1126479E+00
         25   -1    0    0    0    0  0.00000000000E+00  0.00000000000E+00  0.99999998245E-14  0.12500000000E+03  0.12500000000E+03 0.  0.
    3000001    1    3    3    0    0 -0.28394519023E+02  0.31579526475E+02 -0.11015576754E+02  0.43884600193E+02  0.10000000000E+01 0. -1.
    1000022    2    1    0    0    0 -0.38751371285E+02  0.42890054625E+02 -0.21564424009E+02  0.62500000110E+02  0.10000003436E+02 0.  0.
    3000022    2    3    3    0    0 -0.10356852262E+02  0.11310528150E+02 -0.10548847255E+02  0.18615399917E+02  0.24999965975E+00 0.  0.
    1000022    2    1    0    0    0  0.38751371285E+02 -0.42890054625E+02  0.21564424009E+02  0.62499999890E+02  0.10000002059E+02 0.  0.
    3000022    2    5    5    0    0  0.34389905008E+02 -0.37889804361E+02  0.15527596149E+02  0.53474027288E+02  0.25002264325E+00 0.  0.
        -13    1    4    4    0    0 -0.65691647028E+01  0.70870835682E+01 -0.66348174559E+01  0.11722308052E+02  0.10500000000E+00 0.  1.
         13    1    4    4    0    0 -0.37876875593E+01  0.42234445819E+01 -0.39140297993E+01  0.68930918646E+01  0.10500000000E+00 0. -1.
    3000001    1    5    5    0    0  0.43614662771E+01 -0.50002502646E+01  0.60368278601E+01  0.90259726017E+01  0.10000000000E+01 0. -1.
        -13    1    6    6    0    0  0.20549896176E+02 -0.22564794918E+02  0.92225824325E+01  0.31883150005E+02  0.10500000000E+00 0. -1.
         13    1    6    6    0    0  0.13840008832E+02 -0.15325009443E+02  0.63050137162E+01  0.21590877283E+02  0.10500000000E+00 0.  1.
</event>
<event>
11    0  0.3467594E-009  0.9118800E+02  0.7816531E-02  0.1126479E+00
         25   -1    0    0    0    0  0.00000000000E+00  0.00000000000E+00  0.99999998245E-14  0.12500000000E+03  0.12500000000E+03 0.  0.
    3000001    1    3    3    0    0  0.34625930510E+02 -0.31504608810E+02  0.14264525466E+02  0.48948668284E+02  0.10000000000E+01 0. -1.
    1000022    2    1    0    0    0  0.39969218681E+02 -0.43264804021E+02  0.18353945682E+02  0.62500006880E+02  0.10000091450E+02 0.  0.
    3000022    2    3    3    0    0  0.53432881709E+01 -0.11760195210E+02  0.40894202154E+01  0.13551338596E+02  0.25000038001E+00 0.  0.
    1000022    2    1    0    0    0 -0.39969218681E+02  0.43264804021E+02 -0.18353945682E+02  0.62499993120E+02  0.10000005452E+02 0.  0.
    3000022    2    5    5    0    0 -0.34523546537E+02  0.31472322635E+02 -0.14392515250E+02  0.48883426248E+02  0.25001792815E+00 0.  0.
        -13    1    4    4    0    0  0.40752881391E+01 -0.90042189599E+01  0.31293726030E+01  0.10367638612E+02  0.10500000000E+00 0.  1.
         13    1    4    4    0    0  0.12680000318E+01 -0.27559762505E+01  0.96004761243E+00  0.31836999847E+01  0.10500000000E+00 0. -1.
    3000001    1    5    5    0    0 -0.54456721441E+01  0.11792481386E+02 -0.39614304314E+01  0.13616566873E+02  0.10000000000E+01 0. -1.
        -13    1    6    6    0    0 -0.20048125313E+02  0.18239026911E+02 -0.82886954871E+01  0.28342599194E+02  0.10500000000E+00 0. -1.
         13    1    6    6    0    0 -0.14475421224E+02  0.13233295724E+02 -0.61038197633E+01  0.20540827053E+02  0.10500000000E+00 0.  1.
</event>
<event>
11    0  0.3467594E-009  0.9118800E+02  0.7816531E-02  0.1126479E+00
         25   -1    0    0    0    0  0.00000000000E+00  0.00000000000E+00  0.99999998245E-14  0.12500000000E+03  0.12500000000E+03 0.  0.
    3000001    1    3    3    0    0 -0.33786738571E+01 -0.16613816857E+02  0.11205191081E+01  0.17020279394E+02  0.10000000000E+01 0. -1.
    1000022    2    1    0    0    0 -0.17119805960E+00 -0.61377688761E+02 -0.62449798059E+01  0.62500002354E+02  0.10000026754E+02 0.  0.
    3000022    2    3    3    0    0  0.32074757975E+01 -0.44763871903E+02 -0.73654989141E+01  0.45479722959E+02  0.24999485495E+00 0.  0.
    1000022    2    1    0    0    0  0.17119805960E+00  0.61377688761E+02  0.62449798059E+01  0.62499997646E+02  0.99999973309E+01 0.  0.
    3000022    2    5    5    0    0  0.14381050568E+01  0.12612123134E+02  0.51341074457E+01  0.13695085171E+02  0.25000499278E+00 0.  0.
        -13    1    4    4    0    0  0.14467241387E+01 -0.21125218205E+02 -0.34847058592E+01  0.21459777605E+02  0.10500000000E+00 0.  1.
         13    1    4    4    0    0  0.17607516588E+01 -0.23638653699E+02 -0.38807930548E+01  0.24019945355E+02  0.10500000000E+00 0. -1.
    3000001    1    5    5    0    0 -0.12669069972E+01  0.48765565627E+02  0.11108723602E+01  0.48804912475E+02  0.10000000000E+01 0.  1.
        -13    1    6    6    0    0  0.62568291258E+00  0.49681825531E+01  0.20481587870E+01  0.54111270919E+01  0.10500000000E+00 0. -1.
         13    1    6    6    0    0  0.81242214418E+00  0.76439405804E+01  0.30859486587E+01  0.82839580794E+01  0.10500000000E+00 0.  1.
</event>
<event>
11    0  0.3467594E-009  0.9118800E+02  0.7816531E-02  0.1126479E+00
         25   -1    0    0    0    0  0.00000000000E+00  0.00000000000E+00  0.99999998245E-14  0.12500000000E+03  0.12500000000E+03 0.  0.
    3000001    1    3    3    0    0 -0.18779876277E+02 -0.74534693807E+01  0.30685700545E+01  0.20461038121E+02  0.10000000000E+01 0.  1.
    1000022    2    1    0    0    0 -0.60633516919E+02 -0.93448323949E+01  0.65192636520E+01  0.62499999527E+02  0.99999937903E+01 0.  0.
    3000022    2    3    3    0    0 -0.41853640642E+02 -0.18913630142E+01  0.34506935975E+01  0.42038961406E+02  0.25000152111E+00 0.  0.
    1000022    2    1    0    0    0  0.60633516919E+02  0.93448323949E+01 -0.65192636520E+01  0.62500000473E+02  0.99999997033E+01 0.  0.
    3000022    2    5    5    0    0  0.47974957361E+02  0.43400460262E+01 -0.23503922627E+01  0.48228823039E+02  0.24998931795E+00 0.  0.
        -13    1    4    4    0    0 -0.28128394080E+02 -0.13119501466E+01  0.23522769165E+01  0.28257246830E+02  0.10500000000E+00 0.  1.
         13    1    4    4    0    0 -0.13725246562E+02 -0.57941286760E+00  0.10984166810E+01  0.13781714576E+02  0.10500000000E+00 0. -1.
    3000001    1    5    5    0    0  0.12658559559E+02  0.50047863687E+01 -0.41688713892E+01  0.14271177434E+02  0.10000000000E+01 0. -1.
        -13    1    6    6    0    0  0.34874770822E+02  0.31319366575E+01 -0.17377743814E+01  0.35058373492E+02  0.10500000000E+00 0.  1.
         13    1    6    6    0    0  0.13100186539E+02  0.12081093687E+01 -0.61261788128E+00  0.13170449547E+02  0.10500000000E+00 0. -1.
</event>
<event>
11    0  0.3467594E-009  0.9118800E+02  0.7816531E-02  0.1126479E+00
         25   -1    0    0    0    0  0.00000000000E+00  0.00000000000E+00  0.99999998245E-14  0.12500000000E+03  0.12500000000E+03 0.  0.
    3000001    1    3    3    0    0 -0.25915348539E+02  0.19772179524E+02  0.47891640393E+02  0.57940949186E+02  0.10000000000E+01 0.  1.
    1000022    2    1    0    0    0 -0.25353870343E+02  0.22303775341E+02  0.51633058834E+02  0.62500000490E+02  0.10000008043E+02 0.  0.
    3000022    2    3    3    0    0  0.56147819641E+00  0.25315958170E+01  0.37414184417E+01  0.45590513045E+01  0.25000339116E+00 0.  0.
    1000022    2    1    0    0    0  0.25353870343E+02 -0.22303775341E+02 -0.51633058834E+02  0.62499999510E+02  0.10000001915E+02 0.  0.
    3000022    2    5    5    0    0  0.12152569849E+02 -0.14641258162E+02 -0.35431319286E+02  0.40218059095E+02  0.24999306697E+00 0.  0.
        -13    1    4    4    0    0  0.25007417058E+00  0.10342745605E+01  0.16444616795E+01  0.19615147649E+01  0.10500000000E+00 0.  1.
         13    1    4    4    0    0  0.31140402583E+00  0.14973212565E+01  0.20969567621E+01  0.25975365396E+01  0.10500000000E+00 0. -1.
    3000001    1    5    5    0    0  0.13201300494E+02 -0.76625171786E+01 -0.16201739549E+02  0.22281940415E+02  0.10000000000E+01 0. -1.
        -13    1    6    6    0    0  0.83254685960E+01 -0.10032040703E+02 -0.24379185823E+02  0.27646175041E+02  0.10500000000E+00 0. -1.
         13    1    6    6    0    0  0.38271012529E+01 -0.46092174592E+01 -0.11052133463E+02  0.12571884054E+02  0.10500000000E+00 0.  1.
</event>
<event>
11    0  0.3467594E-009  0.9118800E+02  0.7816531E-02  0.1126479E+00
         25   -1    0    0    0    0  0.00000000000E+00  0.00000000000E+00  0.99999998245E-14  0.12500000000E+03  0.12500000000E+03 0.  0.
    3000001    1    3    3    0    0 -0.25363724232E+01  0.20072632177E+02  0.10917981179E+02  0.23011867821E+02  0.10000000000E+01 0. -1.
    1000022    2    1    0    0    0  0.91582835875E+00  0.48561047116E+02  0.38042555159E+02  0.62499998838E+02  0.99999906545E+01 0.  0.
    3000022    2    3    3    0    0  0.34522007820E+01  0.28488414939E+02  0.27124573979E+02  0.39488131016E+02  0.25000324952E+00 0.  0.
    1000022    2    1    0    0    0 -0.91582835875E+00 -0.48561047116E+02 -0.38042555159E+02  0.62500001162E+02  0.10000005184E+02 0.  0.
    3000022    2    5    5    0    0 -0.34322577176E+00 -0.29879363984E+02 -0.29268890387E+02  0.41828514716E+02  0.25000568575E+00 0.  0.
        -13    1    4    4    0    0  0.21812522131E+01  0.17914811897E+02  0.16977179886E+02  0.24777691748E+02  0.10500000000E+00 0.  1.
         13    1    4    4    0    0  0.12709485689E+01  0.10573603043E+02  0.10147394094E+02  0.14710439268E+02  0.10500000000E+00 0. -1.
    3000001    1    5    5    0    0 -0.57260258700E+00 -0.18681683132E+02 -0.87736647722E+01  0.20671486447E+02  0.10000000000E+01 0.  1.
        -13    1    6    6    0    0 -0.24924716401E+00 -0.20105915618E+02 -0.19763518927E+02  0.28194284391E+02  0.10500000000E+00 0. -1.
         13    1    6    6    0    0 -0.93978607751E-01 -0.97734483661E+01 -0.95053714599E+01  0.13634230324E+02  0.10500000000E+00 0.  1.
</event>
<event>
11    0  0.3467594E-009  0.9118800E+02  0.7816531E-02  0.1126479E+00
         25   -1    0    0    0    0  0.00000000000E+00  0.00000000000E+00  0.99999998245E-14  0.12500000000E+03  0.12500000000E+03 0.  0.
    3000001    1    3    3    0    0  0.24903781825E+02  0.61831823209E+00 -0.13275055206E+02  0.28245490920E+02  0.10000000000E+01 0.  1.
    1000022    2    1    0    0    0  0.57576123649E+02  0.76182065006E+01 -0.20813525733E+02  0.62500000024E+02  0.10000003243E+02 0.  0.
    3000022    2    3    3    0    0  0.32672341824E+02  0.69998882685E+01 -0.75384705272E+01  0.34254509103E+02  0.25000001236E+00 0.  0.
    1000022    2    1    0    0    0 -0.57576123649E+02 -0.76182065006E+01  0.20813525733E+02  0.62499999976E+02  0.10000002945E+02 0.  0.
    3000022    2    5    5    0    0 -0.25810538543E+02 -0.58582667721E+01  0.49163164053E+01  0.26920918350E+02  0.24997670754E+00 0.  0.
        -13    1    4    4    0    0  0.16261196285E+02  0.35502476750E+01 -0.37348663197E+01  0.17058458740E+02  0.10500000000E+00 0.  1.
         13    1    4    4    0    0  0.16411145539E+02  0.34496405935E+01 -0.38036042075E+01  0.17196050363E+02  0.10500000000E+00 0. -1.
    3000001    1    5    5    0    0 -0.31765585105E+02 -0.17599397285E+01  0.15897209328E+02  0.35579081626E+02  0.10000000000E+01 0. -1.
        -13    1    6    6    0    0 -0.13883934302E+02 -0.31302328458E+01  0.27087173225E+01  0.14488276775E+02  0.10500000000E+00 0. -1.
         13    1    6    6    0    0 -0.11926604242E+02 -0.27280339262E+01  0.22075990828E+01  0.12432641576E+02  0.10500000000E+00 0.  1.
</event>
<event>
11    0  0.3467594E-009  0.9118800E+02  0.7816531E-02  0.1126479E+00
         25   -1    0    0    0    0  0.00000000000E+00  0.00000000000E+00  0.99999998245E-14  0.12500000000E+03  0.12500000000E+03 0.  0.
    3000001    1    3    3    0    0 -0.98162474639E+01  0.76021086469E+01 -0.56204923434E+02  0.57568604190E+02  0.10000000000E+01 0.  1.
    1000022    2    1    0    0    0 -0.11097434718E+02  0.10806569332E+02 -0.59718631974E+02  0.62499999363E+02  0.99999958764E+01 0.  0.
    3000022    2    3    3    0    0 -0.12811872538E+01  0.32044606850E+01 -0.35137085398E+01  0.49313951732E+01  0.25000318107E+00 0.  0.
    1000022    2    1    0    0    0  0.11097434718E+02 -0.10806569332E+02  0.59718631974E+02  0.62500000637E+02  0.10000003834E+02 0.  0.
    3000022    2    5    5    0    0  0.11821010678E+02 -0.11711729147E+02  0.50960005610E+02  0.53608633349E+02  0.25000935773E+00 0.  0.
        -13    1    4    4    0    0 -0.64619204236E+00  0.14785478164E+01 -0.15801711740E+01  0.22608922443E+01  0.10500000000E+00 0.  1.
         13    1    4    4    0    0 -0.63499521148E+00  0.17259128686E+01 -0.19335373657E+01  0.26705029289E+01  0.10500000000E+00 0. -1.
    3000001    1    5    5    0    0 -0.72357596055E+00  0.90515981543E+00  0.87586263637E+01  0.88913672875E+01  0.10000000000E+01 0. -1.
        -13    1    6    6    0    0  0.53608776613E+01 -0.53887496177E+01  0.23400999171E+02  0.24604784473E+02  0.10500000000E+00 0.  1.
         13    1    6    6    0    0  0.64601330170E+01 -0.63229795296E+01  0.27559006439E+02  0.29003848876E+02  0.10500000000E+00 0. -1.
</event>
<event>
11    0  0.3467594E-009  0.9118800E+02  0.7816531E-02  0.1126479E+00
         25   -1    0    0    0    0  0.00000000000E+00  0.00000000000E+00  0.99999998245E-14  0.12500000000E+03  0.12500000000E+03 0.  0.
    3000001    1    3    3    0    0 -0.12985922646E+02 -0.88887418613E+01 -0.47294635968E+02  0.49854052094E+02  0.10000000000E+01 0. -1.
    1000022    2    1    0    0    0 -0.11564354730E+02 -0.95835357791E+01 -0.59838713454E+02  0.62499998840E+02  0.99999884379E+01 0.  0.
    3000022    2    3    3    0    0  0.14215679159E+01 -0.69479391776E+00 -0.12544077486E+02  0.12645946746E+02  0.24999037800E+00 0.  0.
    1000022    2    1    0    0    0  0.11564354730E+02  0.95835357791E+01  0.59838713454E+02  0.62500001160E+02  0.10000002944E+02 0.  0.
    3000022    2    5    5    0    0  0.42959557418E+01  0.60905760997E+01  0.44704712951E+02  0.45322447132E+02  0.25000210787E+00 0.  0.
        -13    1    4    4    0    0  0.37128407877E+00 -0.20470618689E+00 -0.31952316235E+01  0.32249475372E+01  0.10500000000E+00 0. -1.
         13    1    4    4    0    0  0.10502838371E+01 -0.49008773087E+00 -0.93488458629E+01  0.94209992088E+01  0.10500000000E+00 0.  1.
    3000001    1    5    5    0    0  0.72683989878E+01  0.34929596794E+01  0.15134000503E+02  0.17177554028E+02  0.10000000000E+01 0.  1.
        -13    1    6    6    0    0  0.25586443218E+01  0.36180595160E+01  0.26189809531E+02  0.26562269551E+02  0.10500000000E+00 0.  1.
         13    1    6    6    0    0  0.17373114200E+01  0.24725165836E+01  0.18514903420E+02  0.18760177582E+02  0.10500000000E+00 0. -1.
</event>
<event>
11    0  0.3467594E-009  0.9118800E+02  0.7816531E-02  0.1126479E+00
         25   -1    0    0    0    0  0.00000000000E+00  0.00000000000E+00  0.99999998245E-14  0.12500000000E+03  0.12500000000E+03 0.  0.
    3000001    1    3    3    0    0  0.53429360368E+02  0.24762895806E+02 -0.44420593362E+01  0.59064620960E+02  0.10000000000E+01 0.  1.
    1000022    2    1    0    0    0  0.55203272306E+02  0.27371631272E+02 -0.31052495258E+01  0.62500000903E+02  0.10000003319E+02 0.  0.
    3000022    2    3    3    0    0  0.17739119386E+01  0.26087354658E+01  0.13368098104E+01  0.34353799424E+01  0.25002116603E+00 0.  0.
    1000022    2    1    0    0    0 -0.55203272306E+02 -0.27371631272E+02  0.31052495258E+01  0.62499999097E+02  0.99999920375E+01 0.  0.
    3000022    2    5    5    0    0 -0.43976906339E+02 -0.21372823752E+02 -0.15213984939E+01  0.48919761383E+02  0.25002813130E+00 0.  0.
        -13    1    4    4    0    0  0.50947556318E+00  0.69839440355E+00  0.39479401270E+00  0.95614193761E+00  0.10500000000E+00 0. -1.
         13    1    4    4    0    0  0.12644363754E+01  0.19103410622E+01  0.94201579768E+00  0.24792380048E+01  0.10500000000E+00 0.  1.
    3000001    1    5    5    0    0 -0.11226365967E+02 -0.59988075203E+01  0.46266480197E+01  0.13580237715E+02  0.10000000000E+01 0.  1.
        -13    1    6    6    0    0 -0.10878768724E+02 -0.52960765040E+01 -0.39997771786E+00  0.12106487618E+02  0.10500000000E+00 0. -1.
         13    1    6    6    0    0 -0.33098137616E+02 -0.16076747248E+02 -0.11214207760E+01  0.36813273764E+02  0.10500000000E+00 0.  1.
</event>
<event>
11    0  0.3467594E-009  0.9118800E+02  0.7816531E-02  0.1126479E+00
         25   -1    0    0    0    0  0.00000000000E+00  0.00000000000E+00  0.99999998245E-14  0.12500000000E+03  0.12500000000E+03 0.  0.
    3000001    1    3    3    0    0 -0.39701901955E+01  0.48444075645E+00  0.20053445108E+01  0.45845937271E+01  0.10000000000E+01 0. -1.
    1000022    2    1    0    0    0 -0.43116828173E+02 -0.22699988503E+02  0.37840450087E+02  0.62500000285E+02  0.10000001154E+02 0.  0.
    3000022    2    3    3    0    0 -0.39146637977E+02 -0.23184429259E+02  0.35835105576E+02  0.57915406557E+02  0.25000013367E+00 0.  0.
    1000022    2    1    0    0    0  0.43116828173E+02  0.22699988503E+02 -0.37840450087E+02  0.62499999715E+02  0.99999975971E+01 0.  0.
    3000022    2    5    5    0    0  0.19388631742E+02  0.11113726110E+02 -0.11283905766E+02  0.25036433036E+02  0.25000188701E+00 0.  0.
        -13    1    4    4    0    0 -0.97379864665E+01 -0.57573506089E+01  0.89411218091E+01  0.14419783308E+02  0.10500000000E+00 0. -1.
         13    1    4    4    0    0 -0.29408651511E+02 -0.17427078650E+02  0.26893983767E+02  0.43495623249E+02  0.10500000000E+00 0.  1.
    3000001    1    5    5    0    0  0.23728196431E+02  0.11586262393E+02 -0.26556544321E+02  0.37463566680E+02  0.10000000000E+01 0.  1.
        -13    1    6    6    0    0  0.10575142129E+02  0.59849844753E+01 -0.61426764677E+01  0.13616062919E+02  0.10500000000E+00 0.  1.
         13    1    6    6    0    0  0.88134896131E+01  0.51287416348E+01 -0.51412292983E+01  0.11420370117E+02  0.10500000000E+00 0. -1.
</event>
<event>
11    0  0.3467594E-009  0.9118800E+02  0.7816531E-02  0.1126479E+00
         25   -1    0    0    0    0  0.00000000000E+00  0.00000000000E+00  0.99999998245E-14  0.12500000000E+03  0.12500000000E+03 0.  0.
    3000001    1    3    3    0    0  0.35086327720E+02  0.16216913250E+02  0.48515905772E+01  0.38968918376E+02  0.10000000000E+01 0. -1.
    1000022    2    1    0    0    0  0.56769513785E+02  0.20362151810E+02  0.12994426360E+02  0.62500001021E+02  0.10000004474E+02 0.  0.
    3000022    2    3    3    0    0  0.21683186065E+02  0.41452385593E+01  0.81428357831E+01  0.23531082646E+02  0.25003043594E+00 0.  0.
    1000022    2    1    0    0    0 -0.56769513785E+02 -0.20362151810E+02 -0.12994426360E+02  0.62499998979E+02  0.99999917080E+01 0.  0.
    3000022    2    5    5    0    0 -0.34633558174E+02 -0.11899833409E+02 -0.29464342993E+01  0.36740078404E+02  0.24999823799E+00 0.  0.
        -13    1    4    4    0    0  0.90868539425E+01  0.17027939455E+01  0.34690365510E+01  0.98750018423E+01  0.10500000000E+00 0. -1.
         13    1    4    4    0    0  0.12596332123E+02  0.24424446139E+01  0.46737992322E+01  0.13656080803E+02  0.10500000000E+00 0.  1.
    3000001    1    5    5    0    0 -0.22135955611E+02 -0.84623184012E+01 -0.10047992061E+02  0.25759920574E+02  0.10000000000E+01 0. -1.
        -13    1    6    6    0    0 -0.13876178492E+02 -0.48016991663E+01 -0.11268659095E+01  0.14727032837E+02  0.10500000000E+00 0. -1.
         13    1    6    6    0    0 -0.20757379683E+02 -0.70981342423E+01 -0.18195683898E+01  0.22013045567E+02  0.10500000000E+00 0.  1.
</event>
<event>
11    0  0.3467594E-009  0.9118800E+02  0.7816531E-02  0.1126479E+00
         25   -1    0    0    0    0  0.00000000000E+00  0.00000000000E+00  0.99999998245E-14  0.12500000000E+03  0.12500000000E+03 0.  0.
    3000001    1    3    3    0    0 -0.83956128166E+01  0.48417177221E+01  0.51647663521E+02  0.52558630997E+02  0.10000000000E+01 0.  1.
    1000022    2    1    0    0    0 -0.59717714074E+01  0.72815520770E+01  0.60971853354E+02  0.62499999616E+02  0.99999998073E+01 0.  0.
    3000022    2    3    3    0    0  0.24238414091E+01  0.24398343549E+01  0.93241898328E+01  0.99413686188E+01  0.24999024201E+00 0.  0.
    1000022    2    1    0    0    0  0.59717714074E+01 -0.72815520770E+01 -0.60971853354E+02  0.62500000384E+02  0.10000004612E+02 0.  0.
    3000022    2    5    5    0    0  0.17429791003E+01  0.80687061204E+00 -0.18806262862E+01  0.26996794626E+01  0.24999528745E+00 0.  0.
        -13    1    4    4    0    0  0.12220626406E+01  0.11345595303E+01  0.45378956424E+01  0.48357196245E+01  0.10500000000E+00 0.  1.
         13    1    4    4    0    0  0.12017787685E+01  0.13052748245E+01  0.47862941904E+01  0.51056489944E+01  0.10500000000E+00 0. -1.
    3000001    1    5    5    0    0  0.42287923072E+01 -0.80884226890E+01 -0.59091227068E+02  0.59800320922E+02  0.10000000000E+01 0.  1.
        -13    1    6    6    0    0  0.88300645065E+00  0.44463711276E+00 -0.88426448831E+00  0.13305454668E+01  0.10500000000E+00 0.  1.
         13    1    6    6    0    0  0.85997264962E+00  0.36223349928E+00 -0.99636179789E+00  0.13691339958E+01  0.10500000000E+00 0. -1.
</event>
<event>
11    0  0.3467594E-009  0.9118800E+02  0.7816531E-02  0.1126479E+00
         25   -1    0    0    0    0  0.00000000000E+00  0.00000000000E+00  0.99999998245E-14  0.12500000000E+03  0.12500000000E+03 0.  0.
    3000001    1    3    3    0    0 -0.28343023202E+01 -0.22461591537E+02  0.60207934547E+00  0.22669778639E+02  0.10000000000E+01 0.  1.
    1000022    2    1    0    0    0 -0.20306742034E+02 -0.58254015672E+02  0.59638252141E+00  0.62499997227E+02  0.99999933624E+01 0.  0.
    3000022    2    3    3    0    0 -0.17472439714E+02 -0.35792424135E+02 -0.56968240692E-02  0.39830218587E+02  0.25001046094E+00 0.  0.
    1000022    2    1    0    0    0  0.20306742034E+02  0.58254015672E+02 -0.59638252141E+00  0.62500002773E+02  0.10000028028E+02 0.  0.
    3000022    2    5    5    0    0  0.96287989788E+01  0.14265843316E+02  0.26491069541E+00  0.17215131115E+02  0.25001265374E+00 0.  0.
        -13    1    4    4    0    0 -0.12433334448E+02 -0.25375905118E+02  0.87152278790E-02  0.28258369858E+02  0.10500000000E+00 0.  1.
         13    1    4    4    0    0 -0.50391052658E+01 -0.10416519017E+02 -0.14412051948E-01  0.11571848730E+02  0.10500000000E+00 0. -1.
    3000001    1    5    5    0    0  0.10677943055E+02  0.43988172356E+02 -0.86129321681E+00  0.45284871659E+02  0.10000000000E+01 0. -1.
        -13    1    6    6    0    0  0.67347283780E+01  0.98939535449E+01  0.18584848563E+00  0.11970482352E+02  0.10500000000E+00 0. -1.
         13    1    6    6    0    0  0.28940706008E+01  0.43718897709E+01  0.79062209773E-01  0.52446487628E+01  0.10500000000E+00 0.  1.
</event>
<event>
11    0  0.3467594E-009  0.9118800E+02  0.7816531E-02  0.1126479E+00
         25   -1    0    0    0    0  0.00000000000E+00  0.00000000000E+00  0.99999998245E-14  0.12500000000E+03  0.12500000000E+03 0.  0.
    3000001    1    3    3    0    0 -0.89720700779E+01 -0.42595395099E+02 -0.31502942369E+02  0.53742916771E+02  0.10000000000E+01 0.  1.
    1000022    2    1    0    0    0 -0.11860117604E+02 -0.50706392549E+02 -0.33082461791E+02  0.62499998777E+02  0.99999966996E+01 0.  0.
    3000022    2    3    3    0    0 -0.28880475259E+01 -0.81109974498E+01 -0.15795194222E+01  0.87570820056E+01  0.25001101014E+00 0.  0.
    1000022    2    1    0    0    0  0.11860117604E+02  0.50706392549E+02  0.33082461791E+02  0.62500001223E+02  0.10000011992E+02 0.  0.
    3000022    2    5    5    0    0  0.31187177188E+01  0.30233479945E+02  0.15522542474E+02  0.34129188953E+02  0.25000788303E+00 0.  0.
        -13    1    4    4    0    0 -0.15684431251E+01 -0.45770106111E+01 -0.85483538236E+00  0.49143472101E+01  0.10500000000E+00 0. -1.
         13    1    4    4    0    0 -0.13196044008E+01 -0.35339868387E+01 -0.72468403981E+00  0.38427347954E+01  0.10500000000E+00 0.  1.
    3000001    1    5    5    0    0  0.87413998850E+01  0.20472912604E+02  0.17559919318E+02  0.28370812270E+02  0.10000000000E+01 0.  1.
        -13    1    6    6    0    0  0.87711026511E+00  0.84522563896E+01  0.43841110935E+01  0.95625004875E+01  0.10500000000E+00 0. -1.
         13    1    6    6    0    0  0.22416074537E+01  0.21781223556E+02  0.11138431380E+02  0.24566688466E+02  0.10500000000E+00 0.  1.
</event>
<event>
11    0  0.3467594E-009  0.9118800E+02  0.7816531E-02  0.1126479E+00
         25   -1    0    0    0    0  0.00000000000E+00  0.00000000000E+00  0.99999998245E-14  0.12500000000E+03  0.12500000000E+03 0.  0.
    3000001    1    3    3    0    0  0.18767618066E+02  0.61861201336E+01 -0.11158343843E+02  0.22715637951E+02  0.10000000000E+01 0. -1.
    1000022    2    1    0    0    0  0.54398357918E+02  0.44195707365E+01 -0.28766933352E+02  0.62499997224E+02  0.99999624426E+01 0.  0.
    3000022    2    3    3    0    0  0.35630739852E+02 -0.17665493971E+01 -0.17608589509E+02  0.39784359273E+02  0.24999827013E+00 0.  0.
    1000022    2    1    0    0    0 -0.54398357918E+02 -0.44195707365E+01  0.28766933352E+02  0.62500002776E+02  0.99999971418E+01 0.  0.
    3000022    2    5    5    0    0 -0.53028663777E+02 -0.39419487500E+01  0.25930873534E+02  0.59161227538E+02  0.24999927700E+00 0.  0.
        -13    1    4    4    0    0  0.21829368323E+02 -0.10996312237E+01 -0.10854358472E+02  0.24404070010E+02  0.10500000000E+00 0. -1.
         13    1    4    4    0    0  0.13801371529E+02 -0.66691817337E+00 -0.67542310363E+01  0.15380289264E+02  0.10500000000E+00 0.  1.
    3000001    1    5    5    0    0 -0.13696941416E+01 -0.47762198653E+00  0.28360598174E+01  0.33387752382E+01  0.10000000000E+01 0.  1.
        -13    1    6    6    0    0 -0.25995992111E+02 -0.18743791150E+01  0.12749069141E+02  0.29014732325E+02  0.10500000000E+00 0.  1.
         13    1    6    6    0    0 -0.27032671666E+02 -0.20675696350E+01  0.13181804393E+02  0.30146495213E+02  0.10500000000E+00 0. -1.
</event>
<event>
11    0  0.3467594E-009  0.9118800E+02  0.7816531E-02  0.1126479E+00
         25   -1    0    0    0    0  0.00000000000E+00  0.00000000000E+00  0.99999998245E-14  0.12500000000E+03  0.12500000000E+03 0.  0.
    3000001    1    3    3    0    0  0.79283521027E+01 -0.70725850654E-02 -0.31790426897E+01  0.86002982220E+01  0.10000000000E+01 0. -1.
    1000022    2    1    0    0    0  0.44153805595E+02 -0.21057915608E-01 -0.43089338329E+02  0.62499999829E+02  0.99999954564E+01 0.  0.
    3000022    2    3    3    0    0  0.36225453492E+02 -0.13985330542E-01 -0.39910295639E+02  0.53899701607E+02  0.24991811429E+00 0.  0.
    1000022    2    1    0    0    0 -0.44153805595E+02  0.21057915608E-01  0.43089338329E+02  0.62500000171E+02  0.99999975904E+01 0.  0.
    3000022    2    5    5    0    0 -0.32308153994E+02 -0.43235036115E+01  0.30236308490E+02  0.44461290330E+02  0.24997733025E+00 0.  0.
        -13    1    4    4    0    0  0.23289194161E+02  0.47582447417E-01 -0.25641989095E+02  0.34639738142E+02  0.10500000000E+00 0.  1.
         13    1    4    4    0    0  0.12936259331E+02 -0.61567777959E-01 -0.14268306544E+02  0.19259963466E+02  0.10500000000E+00 0. -1.
    3000001    1    5    5    0    0 -0.11845651600E+02  0.43445615271E+01  0.12853029839E+02  0.18038709841E+02  0.10000000000E+01 0.  1.
        -13    1    6    6    0    0 -0.17005613945E+02 -0.22863006404E+01  0.15825421309E+02  0.23342516164E+02  0.10500000000E+00 0.  1.
         13    1    6    6    0    0 -0.15302540049E+02 -0.20372029711E+01  0.14410887181E+02  0.21118774166E+02  0.10500000000E+00 0. -1.
</event>
<event>
11    0  0.3467594E-009  0.9118800E+02  0.7816531E-02  0.1126479E+00
         25   -1    0    0    0    0  0.00000000000E+00  0.00000000000E+00  0.99999998245E-14  0.12500000000E+03  0.12500000000E+03 0.  0.
    3000001    1    3    3    0    0  0.93807992539E+01  0.18483385940E+02  0.12354199882E+02  0.24150801336E+02  0.10000000000E+01 0. -1.
    1000022    2    1    0    0    0  0.13157484692E+02  0.52690571418E+02  0.29271743489E+02  0.62499995234E+02  0.99999358791E+01 0.  0.
    3000022    2    3    3    0    0  0.37766854383E+01  0.34207185478E+02  0.16917543607E+02  0.38349193898E+02  0.24999940080E+00 0.  0.
    1000022    2    1    0    0    0 -0.13157484692E+02 -0.52690571418E+02 -0.29271743489E+02  0.62500004766E+02  0.99999954483E+01 0.  0.
    3000022    2    5    5    0    0 -0.17719383404E+01 -0.78148966103E+01 -0.61197111275E+00  0.80404839460E+01  0.24999786427E+00 0.  0.
        -13    1    4    4    0    0  0.13523780556E+01  0.11889068363E+02  0.59265682280E+01  0.13353430605E+02  0.10500000000E+00 0. -1.
         13    1    4    4    0    0  0.24243073827E+01  0.22318117115E+02  0.10990975379E+02  0.24995763294E+02  0.10500000000E+00 0.  1.
    3000001    1    5    5    0    0 -0.11385546352E+02 -0.44875674808E+02 -0.28659772377E+02  0.54459520819E+02  0.10000000000E+01 0. -1.
        -13    1    6    6    0    0 -0.13048361841E+01 -0.58429428902E+01 -0.43683267407E+00  0.60037010977E+01  0.10500000000E+00 0. -1.
         13    1    6    6    0    0 -0.46710215633E+00 -0.19719537201E+01 -0.17513843869E+00  0.20367828483E+01  0.10500000000E+00 0.  1.
</event>
<event>
11    0  0.3467594E-009  0.9118800E+02  0.7816531E-02  0.1126479E+00
         25   -1    0    0    0    0  0.00000000000E+00  0.00000000000E+00  0.99999998245E-14  0.12500000000E+03  0.12500000000E+03 0.  0.
    3000001    1    3    3    0    0 -0.19583834804E+02  0.12586237882E+02 -0.38305717337E+02  0.44836011758E+02  0.10000000000E+01 0.  1.
    1000022    2    1    0    0    0 -0.27208045118E+02  0.22986884725E+02 -0.50374353250E+02  0.62500001002E+02  0.10000003574E+02 0.  0.
    3000022    2    3    3    0    0 -0.76242103133E+01  0.10400646843E+02 -0.12068635912E+02  0.17663989244E+02  0.25001115450E+00 0.  0.
    1000022    2    1    0    0    0  0.27208045118E+02 -0.22986884725E+02  0.50374353250E+02  0.62499998998E+02  0.99999910474E+01 0.  0.
    3000022    2    5    5    0    0  0.16395356472E+02 -0.74996184307E+01  0.26207796911E+02  0.31811367580E+02  0.24999591586E+00 0.  0.
        -13    1    4    4    0    0 -0.17458130851E+01  0.23809260042E+01 -0.27598038969E+01  0.40427978573E+01  0.10500000000E+00 0. -1.
         13    1    4    4    0    0 -0.58783972282E+01  0.80197208384E+01 -0.93088320155E+01  0.13621191387E+02  0.10500000000E+00 0.  1.
    3000001    1    5    5    0    0  0.10812688645E+02 -0.15487266294E+02  0.24166556339E+02  0.30688631418E+02  0.10000000000E+01 0.  1.
        -13    1    6    6    0    0  0.99037193102E+01 -0.45790698382E+01  0.15782453296E+02  0.19187193484E+02  0.10500000000E+00 0. -1.
         13    1    6    6    0    0  0.64916371620E+01 -0.29205485925E+01  0.10425343615E+02  0.12624174096E+02  0.10500000000E+00 0.  1.
</event>
<event>
11    0  0.3467594E-009  0.9118800E+02  0.7816531E-02  0.1126479E+00
         25   -1    0    0    0    0  0.00000000000E+00  0.00000000000E+00  0.99999998245E-14  0.12500000000E+03  0.12500000000E+03 0.  0.
    3000001    1    3    3    0    0  0.95029567575E+01 -0.30155443830E+02  0.29671349812E+02  0.43371026958E+02  0.10000000000E+01 0. -1.
    1000022    2    1    0    0    0  0.10001111459E+02 -0.39403010815E+02  0.46407223778E+02  0.62500000621E+02  0.10000008355E+02 0.  0.
    3000022    2    3    3    0    0  0.49815470146E+00 -0.92475669852E+01  0.16735873966E+02  0.19128973663E+02  0.25000547856E+00 0.  0.
    1000022    2    1    0    0    0 -0.10001111459E+02  0.39403010815E+02 -0.46407223778E+02  0.62499999379E+02  0.10000000594E+02 0.  0.
    3000022    2    5    5    0    0 -0.28143141584E+01  0.23389290779E+02 -0.20732387716E+02  0.31382697253E+02  0.24999821347E+00 0.  0.
        -13    1    4    4    0    0  0.39972242846E+00 -0.67605791673E+01  0.12237399134E+02  0.13986785594E+02  0.10500000000E+00 0. -1.
         13    1    4    4    0    0  0.98432273007E-01 -0.24869878180E+01  0.44984748314E+01  0.51421880681E+01  0.10500000000E+00 0.  1.
    3000001    1    5    5    0    0 -0.71867973006E+01  0.16013720037E+02 -0.25674836061E+02  0.31117302126E+02  0.10000000000E+01 0.  1.
        -13    1    6    6    0    0 -0.10369395964E+01  0.81580801019E+01 -0.72543698271E+01  0.10966604819E+02  0.10500000000E+00 0.  1.
         13    1    6    6    0    0 -0.17773745620E+01  0.15231210677E+02 -0.13478017889E+02  0.20416092433E+02  0.10500000000E+00 0. -1.
</event>
<event>
11    0  0.3467594E-009  0.9118800E+02  0.7816531E-02  0.1126479E+00
         25   -1    0    0    0    0  0.00000000000E+00  0.00000000000E+00  0.99999998245E-14  0.12500000000E+03  0.12500000000E+03 0.  0.
    3000001    1    3    3    0    0  0.12936250996E+02 -0.22172951653E+02  0.28648069214E+02  0.38479842054E+02  0.10000000000E+01 0. -1.
    1000022    2    1    0    0    0  0.27599517396E+02 -0.32126596473E+02  0.44859764191E+02  0.62499999759E+02  0.99999982581E+01 0.  0.
    3000022    2    3    3    0    0  0.14663266401E+02 -0.99536448206E+01  0.16211694977E+02  0.24020157705E+02  0.24999080306E+00 0.  0.
    1000022    2    1    0    0    0 -0.27599517396E+02  0.32126596473E+02 -0.44859764191E+02  0.62500000241E+02  0.10000001267E+02 0.  0.
    3000022    2    5    5    0    0 -0.12441585702E+02  0.20257071903E+02 -0.20184810182E+02  0.31187033883E+02  0.25000692712E+00 0.  0.
        -13    1    4    4    0    0  0.93431020762E+01 -0.64125320194E+01  0.10363500846E+02  0.15356669499E+02  0.10500000000E+00 0.  1.
         13    1    4    4    0    0  0.53201643244E+01 -0.35411128012E+01  0.58481941305E+01  0.86634882061E+01  0.10500000000E+00 0. -1.
    3000001    1    5    5    0    0 -0.15157931694E+02  0.11869524570E+02 -0.24674954009E+02  0.31312966358E+02  0.10000000000E+01 0. -1.
        -13    1    6    6    0    0 -0.64580354005E+01  0.10439194649E+02 -0.10494623556E+02  0.16150267946E+02  0.10500000000E+00 0. -1.
         13    1    6    6    0    0 -0.59835503015E+01  0.98178772545E+01 -0.96901866256E+01  0.15036765937E+02  0.10500000000E+00 0.  1.
</event>
<event>
11    0  0.3467594E-009  0.9118800E+02  0.7816531E-02  0.1126479E+00
         25   -1    0    0    0    0  0.00000000000E+00  0.00000000000E+00  0.99999998245E-14  0.12500000000E+03  0.12500000000E+03 0.  0.
    3000001    1    3    3    0    0 -0.37973555894E+01 -0.33809240359E+01 -0.11960093262E+02  0.13034354133E+02  0.10000000000E+01 0. -1.
    1000022    2    1    0    0    0 -0.36654692282E+01 -0.28163556840E+02 -0.54768865655E+02  0.62499996464E+02  0.99999657158E+01 0.  0.
    3000022    2    3    3    0    0  0.13188636122E+00 -0.24782632804E+02 -0.42808772392E+02  0.49465642331E+02  0.24998955520E+00 0.  0.
    1000022    2    1    0    0    0  0.36654692282E+01  0.28163556840E+02  0.54768865655E+02  0.62500003536E+02  0.10000009921E+02 0.  0.
    3000022    2    5    5    0    0 -0.19094541233E+01  0.17077952609E+02  0.37086547481E+02  0.40875138970E+02  0.25000273428E+00 0.  0.
        -13    1    4    4    0    0  0.50506568079E-01 -0.11457888830E+02 -0.19924475673E+02  0.22984375632E+02  0.10500000000E+00 0.  1.
         13    1    4    4    0    0  0.81379793142E-01 -0.13324743974E+02 -0.22884296719E+02  0.26481266699E+02  0.10500000000E+00 0. -1.
    3000001    1    5    5    0    0  0.55749233515E+01  0.11085604230E+02  0.17682318173E+02  0.21624864566E+02  0.10000000000E+01 0.  1.
        -13    1    6    6    0    0 -0.10885843326E+01  0.10271775199E+02  0.22339823168E+02  0.24612458344E+02  0.10500000000E+00 0. -1.
         13    1    6    6    0    0 -0.82086979067E+00  0.68061774105E+01  0.14746724314E+02  0.16262680626E+02  0.10500000000E+00 0.  1.
</event>
<event>
11    0  0.3467594E-009  0.9118800E+02  0.7816531E-02  0.1126479E+00
         25   -1    0    0    0    0  0.00000000000E+00  0.00000000000E+00  0.99999998245E-14  0.12500000000E+03  0.12500000000E+03 0.  0.
    3000001    1    3    3    0    0 -0.12520067553E+02 -0.12072157875E+02  0.11598348555E+02  0.20928706996E+02  0.10000000000E+01 0. -1.
    1000022    2    1    0    0    0 -0.41120293162E+02 -0.40391792262E+02  0.21997154233E+02  0.62499998152E+02  0.99999791401E+01 0.  0.
    3000022    2    3    3    0    0 -0.28600225608E+02 -0.28319634387E+02  0.10398805678E+02  0.41571291156E+02  0.24998446332E+00 0.  0.
    1000022    2    1    0    0    0  0.41120293162E+02  0.40391792262E+02 -0.21997154233E+02  0.62500001848E+02  0.10000002240E+02 0.  0.
    3000022    2    5    5    0    0  0.16972193792E+02  0.23523790795E+02 -0.11720956100E+02  0.31286856785E+02  0.25000020868E+00 0.  0.
        -13    1    4    4    0    0 -0.18747826258E+02 -0.18624853676E+02  0.67919487930E+01  0.27285669449E+02  0.10500000000E+00 0.  1.
         13    1    4    4    0    0 -0.98523993500E+01 -0.96947807103E+01  0.36068568852E+01  0.14285621707E+02  0.10500000000E+00 0. -1.
    3000001    1    5    5    0    0  0.24148099370E+02  0.16868001467E+02 -0.10276198133E+02  0.31213145063E+02  0.10000000000E+01 0.  1.
        -13    1    6    6    0    0  0.51371761598E+01  0.71481852305E+01 -0.36042944461E+01  0.95125755945E+01  0.10500000000E+00 0.  1.
         13    1    6    6    0    0  0.11835017632E+02  0.16375605564E+02 -0.81166616540E+01  0.21774281190E+02  0.10500000000E+00 0. -1.
</event>
<event>
11    0  0.3467594E-009  0.9118800E+02  0.7816531E-02  0.1126479E+00
         25   -1    0    0    0    0  0.00000000000E+00  0.00000000000E+00  0.99999998245E-14  0.12500000000E+03  0.12500000000E+03 0.  0.
    3000001    1    3    3    0    0  0.12234602790E+02 -0.33490837185E+02 -0.41961671381E+02  0.55073619328E+02  0.10000000000E+01 0. -1.
    1000022    2    1    0    0    0  0.10252986685E+02 -0.38149519981E+02 -0.47389241335E+02  0.62500000862E+02  0.10000015134E+02 0.  0.
    3000022    2    3    3    0    0 -0.19816161050E+01 -0.46586827964E+01 -0.54275699542E+01  0.74263815344E+01  0.24999860214E+00 0.  0.
    1000022    2    1    0    0    0 -0.10252986685E+02  0.38149519981E+02  0.47389241335E+02  0.62499999138E+02  0.10000004358E+02 0.  0.
    3000022    2    5    5    0    0 -0.57027509556E+01  0.29742521925E+02  0.40943790169E+02  0.50927354572E+02  0.25002279725E+00 0.  0.
        -13    1    4    4    0    0 -0.97187000064E+00 -0.24232070493E+01 -0.27387126406E+01  0.37852391774E+01  0.10500000000E+00 0.  1.
         13    1    4    4    0    0 -0.10097461043E+01 -0.22354757471E+01 -0.26888573136E+01  0.36411423570E+01  0.10500000000E+00 0. -1.
    3000001    1    5    5    0    0 -0.45502357296E+01  0.84069980561E+01  0.64454511661E+01  0.11572644566E+02  0.10000000000E+01 0.  1.
        -13    1    6    6    0    0 -0.21706869947E+01  0.11217614800E+02  0.15543980139E+02  0.19291788600E+02  0.10500000000E+00 0. -1.
         13    1    6    6    0    0 -0.35320639609E+01  0.18524907125E+02  0.25399810030E+02  0.31635565972E+02  0.10500000000E+00 0.  1.
</event>
<event>
11    0  0.3467594E-009  0.9118800E+02  0.7816531E-02  0.1126479E+00
         25   -1    0    0    0    0  0.00000000000E+00  0.00000000000E+00  0.99999998245E-14  0.12500000000E+03  0.12500000000E+03 0.  0.
    3000001    1    3    3    0    0  0.12961864762E+02 -0.34180050361E+02 -0.88907296930E+01  0.37634171377E+02  0.10000000000E+01 0.  1.
    1000022    2    1    0    0    0  0.27960294784E+02 -0.53915054098E+02 -0.10846170577E+02  0.62500001728E+02  0.99999828520E+01 0.  0.
    3000022    2    3    3    0    0  0.14998430022E+02 -0.19735003737E+02 -0.19554408838E+01  0.24865830351E+02  0.24998871817E+00 0.  0.
    1000022    2    1    0    0    0 -0.27960294784E+02  0.53915054098E+02  0.10846170577E+02  0.62499998272E+02  0.99999612494E+01 0.  0.
    3000022    2    5    5    0    0 -0.12928312486E+02  0.21196750511E+02  0.90763049664E+01  0.26436439023E+02  0.25000081594E+00 0.  0.
        -13    1    4    4    0    0  0.35087285129E+01 -0.46365989084E+01 -0.46604068891E+00  0.58341618197E+01  0.10500000000E+00 0.  1.
         13    1    4    4    0    0  0.11489701509E+02 -0.15098404829E+02 -0.14894001949E+01  0.19031668531E+02  0.10500000000E+00 0. -1.
    3000001    1    5    5    0    0 -0.15031982298E+02  0.32718303586E+02  0.17698656104E+01  0.36063559248E+02  0.10000000000E+01 0.  1.
        -13    1    6    6    0    0 -0.72744278933E+01  0.12007242279E+02  0.51861169917E+01  0.14966562825E+02  0.10500000000E+00 0.  1.
         13    1    6    6    0    0 -0.56538845930E+01  0.91895082321E+01  0.38901879748E+01  0.11469876199E+02  0.10500000000E+00 0. -1.
</event>
<event>
11    0  0.3467594E-009  0.9118800E+02  0.7816531E-02  0.1126479E+00
         25   -1    0    0    0    0  0.00000000000E+00  0.00000000000E+00  0.99999998245E-14  0.12500000000E+03  0.12500000000E+03 0.  0.
    3000001    1    3    3    0    0  0.39373802698E+02 -0.25533432333E+02 -0.16855417717E+02  0.49873415885E+02  0.10000000000E+01 0. -1.
    1000022    2    1    0    0    0  0.48005846286E+02 -0.34739759888E+02 -0.17170842219E+02  0.62500000348E+02  0.10000001311E+02 0.  0.
    3000022    2    3    3    0    0  0.86320435885E+01 -0.92063275549E+01 -0.31542450213E+00  0.12626584463E+02  0.24999805140E+00 0.  0.
    1000022    2    1    0    0    0 -0.48005846286E+02  0.34739759888E+02  0.17170842219E+02  0.62499999652E+02  0.99999969658E+01 0.  0.
    3000022    2    5    5    0    0 -0.23859612609E+01  0.14992364580E+01  0.33379989374E+01  0.43755309592E+01  0.25002634515E+00 0.  0.
        -13    1    4    4    0    0  0.28101146174E+01 -0.29671853211E+01 -0.14953366828E+00  0.40907601018E+01  0.10500000000E+00 0.  1.
         13    1    4    4    0    0  0.58219289712E+01 -0.62391422338E+01 -0.16589083385E+00  0.85358243613E+01  0.10500000000E+00 0. -1.
    3000001    1    5    5    0    0 -0.45619885025E+02  0.33240523430E+02  0.13832843282E+02  0.58124468693E+02  0.10000000000E+01 0. -1.
        -13    1    6    6    0    0 -0.74905222351E+00  0.51507322487E+00  0.11348382808E+01  0.14578280365E+01  0.10500000000E+00 0. -1.
         13    1    6    6    0    0 -0.16369090374E+01  0.98416323313E+00  0.22031606566E+01  0.29177029227E+01  0.10500000000E+00 0.  1.
</event>
<event>
11    0  0.3467594E-009  0.9118800E+02  0.7816531E-02  0.1126479E+00
         25   -1    0    0    0    0  0.00000000000E+00  0.00000000000E+00  0.99999998245E-14  0.12500000000E+03  0.12500000000E+03 0.  0.
    3000001    1    3    3    0    0 -0.46014717012E+02 -0.14018224618E+02 -0.91578151110E+01  0.48976835144E+02  0.10000000000E+01 0. -1.
    1000022    2    1    0    0    0 -0.58637764659E+02 -0.13183752472E+02 -0.13930220021E+02  0.62500001460E+02  0.10000018964E+02 0.  0.
    3000022    2    3    3    0    0 -0.12623047647E+02  0.83447214623E+00 -0.47724049099E+01  0.13523166316E+02  0.25000586173E+00 0.  0.
    1000022    2    1    0    0    0  0.58637764659E+02  0.13183752472E+02  0.13930220021E+02  0.62499998540E+02  0.10000000712E+02 0.  0.
    3000022    2    5    5    0    0  0.56007983726E+02  0.14429056978E+02  0.12932913069E+02  0.59265628088E+02  0.25001165215E+00 0.  0.
        -13    1    4    4    0    0 -0.42060821017E+01  0.28329326736E+00 -0.15337236427E+01  0.44871722648E+01  0.10500000000E+00 0.  1.
         13    1    4    4    0    0 -0.84169655449E+01  0.55117887887E+00 -0.32386812672E+01  0.90359940511E+01  0.10500000000E+00 0. -1.
    3000001    1    5    5    0    0  0.26297809324E+01 -0.12453045061E+01  0.99730695146E+00  0.32343704520E+01  0.10000000000E+01 0. -1.
        -13    1    6    6    0    0  0.24473300149E+02  0.63711637087E+01  0.56389486081E+01  0.25910285865E+02  0.10500000000E+00 0.  1.
         13    1    6    6    0    0  0.31534683577E+02  0.80578932694E+01  0.72939644613E+01  0.33355342223E+02  0.10500000000E+00 0. -1.
</event>
<event>
11    0  0.3467594E-009  0.9118800E+02  0.7816531E-02  0.1126479E+00
         25   -1    0    0    0    0  0.00000000000E+00  0.00000000000E+00  0.99999998245E-14  0.12500000000E+03  0.12500000000E+03 0.  0.
    3000001    1    3    3    0    0  0.76345735080E+01 -0.11825069791E+02 -0.46043525050E+02  0.48157296304E+02  0.10000000000E+01 0. -1.
    1000022    2    1    0    0    0  0.13400461748E+02 -0.18647992504E+02 -0.57261942411E+02  0.62499999911E+02  0.99999970321E+01 0.  0.
    3000022    2    3    3    0    0  0.57658882400E+01 -0.68229227132E+01 -0.11218417361E+02  0.14342703607E+02  0.25003426498E+00 0.  0.
    1000022    2    1    0    0    0 -0.13400461748E+02  0.18647992504E+02  0.57261942411E+02  0.62500000089E+02  0.99999981469E+01 0.  0.
    3000022    2    5    5    0    0 -0.18828147517E+01  0.86174716881E+01  0.29582733555E+02  0.30870802454E+02  0.25001968919E+00 0.  0.
        -13    1    4    4    0    0  0.34947762622E+01 -0.40844167748E+01 -0.66637546179E+01  0.85622761064E+01  0.10500000000E+00 0. -1.
         13    1    4    4    0    0  0.22711119778E+01 -0.27385059384E+01 -0.45546627431E+01  0.57804275009E+01  0.10500000000E+00 0.  1.
    3000001    1    5    5    0    0 -0.11517646996E+02  0.10030520816E+02  0.27679208856E+02  0.31629197635E+02  0.10000000000E+01 0. -1.
        -13    1    6    6    0    0 -0.85896334741E+00  0.42286579664E+01  0.14386780307E+02  0.15020314205E+02  0.10500000000E+00 0. -1.
         13    1    6    6    0    0 -0.10238514043E+01  0.43888137217E+01  0.15195953249E+02  0.15850488249E+02  0.10500000000E+00 0.  1.
</event>
<event>
11    0  0.3467594E-009  0.9118800E+02  0.7816531E-02  0.1126479E+00
         25   -1    0    0    0    0  0.00000000000E+00  0.00000000000E+00  0.99999998245E-14  0.12500000000E+03  0.12500000000E+03 0.  0.
    3000001    1    3    3    0    0 -0.29481667411E+01  0.22305619872E+01 -0.10156212021E+02  0.10854295764E+02  0.10000000000E+01 0. -1.
    1000022    2    1    0    0    0 -0.12699592207E+02 -0.78409539383E+01 -0.59862259464E+02  0.62500005925E+02  0.10000021583E+02 0.  0.
    3000022    2    3    3    0    0 -0.97514254664E+01 -0.10071515925E+02 -0.49706047442E+02  0.51645710161E+02  0.24998809889E+00 0.  0.
    1000022    2    1    0    0    0  0.12699592207E+02  0.78409539383E+01  0.59862259464E+02  0.62499994075E+02  0.99999475169E+01 0.  0.
    3000022    2    5    5    0    0  0.72262500600E+01 -0.81286162593E+00  0.31499650100E+02  0.32329087426E+02  0.25000685559E+00 0.  0.
        -13    1    4    4    0    0 -0.70096448846E+01 -0.71868071493E+01 -0.35525697931E+02  0.36917090309E+02  0.10500000000E+00 0. -1.
         13    1    4    4    0    0 -0.27417805818E+01 -0.28847087761E+01 -0.14180349511E+02  0.14728619852E+02  0.10500000000E+00 0.  1.
    3000001    1    5    5    0    0  0.54733421475E+01  0.86538155642E+01  0.28362609364E+02  0.30170906649E+02  0.10000000000E+01 0. -1.
        -13    1    6    6    0    0  0.38077473435E+01 -0.46345478370E+00  0.16870773403E+02  0.17301669006E+02  0.10500000000E+00 0.  1.
         13    1    6    6    0    0  0.34185027165E+01 -0.34940684223E+00  0.14628876697E+02  0.15027418420E+02  0.10500000000E+00 0. -1.
</event>
<event>
11    0  0.3467594E-009  0.9118800E+02  0.7816531E-02  0.1126479E+00
         25   -1    0    0    0    0  0.00000000000E+00  0.00000000000E+00  0.99999998245E-14  0.12500000000E+03  0.12500000000E+03 0.  0.
    3000001    1    3    3    0    0 -0.42577635496E+00  0.10077109557E+02  0.50127063606E+01  0.11307371382E+02  0.10000000000E+01 0. -1.
    1000022    2    1    0    0    0  0.65541612545E+00  0.43282896689E+02  0.43959199421E+02  0.62499998766E+02  0.99999957950E+01 0.  0.
    3000022    2    3    3    0    0  0.10811924804E+01  0.33205787133E+02  0.38946493060E+02  0.51192627384E+02  0.25000091696E+00 0.  0.
    1000022    2    1    0    0    0 -0.65541612545E+00 -0.43282896689E+02 -0.43959199421E+02  0.62500001234E+02  0.10000011222E+02 0.  0.
    3000022    2    5    5    0    0  0.30877304874E+01 -0.15650668169E+02 -0.20954863650E+02  0.26337165839E+02  0.25000027778E+00 0.  0.
        -13    1    4    4    0    0  0.25201832036E+00  0.87194884217E+01  0.10214245303E+02  0.13432603012E+02  0.10500000000E+00 0.  1.
         13    1    4    4    0    0  0.82917416005E+00  0.24486298711E+02  0.28732247757E+02  0.37760024371E+02  0.10500000000E+00 0. -1.
    3000001    1    5    5    0    0 -0.37431466128E+01 -0.27632228520E+02 -0.23004335771E+02  0.36162835395E+02  0.10000000000E+01 0. -1.
        -13    1    6    6    0    0  0.10037231549E+01 -0.48731142125E+01 -0.65790038233E+01  0.82491829054E+01  0.10500000000E+00 0.  1.
         13    1    6    6    0    0  0.20840073325E+01 -0.10777553957E+02 -0.14375859827E+02  0.18087982934E+02  0.10500000000E+00 0. -1.
</event>
<event>
11    0  0.3467594E-009  0.9118800E+02  0.7816531E-02  0.1126479E+00
         25   -1    0    0    0    0  0.00000000000E+00  0.00000000000E+00  0.99999998245E-14  0.12500000000E+03  0.12500000000E+03 0.  0.
    3000001    1    3    3    0    0  0.21577064133E+02 -0.52293402760E+02  0.56569442061E+01  0.56860976835E+02  0.10000000000E+01 0. -1.
    1000022    2    1    0    0    0  0.24643849643E+02 -0.56455626745E+02  0.34193737309E+01  0.62499993419E+02  0.99999972142E+01 0.  0.
    3000022    2    3    3    0    0  0.30667855097E+01 -0.41622239849E+01 -0.22375704753E+01  0.56390165845E+01  0.25000908966E+00 0.  0.
    1000022    2    1    0    0    0 -0.24643849643E+02  0.56455626745E+02 -0.34193737309E+01  0.62500006581E+02  0.10000079476E+02 0.  0.
    3000022    2    5    5    0    0 -0.41327265350E+01  0.16713538359E+02  0.24142142135E+01  0.17387142466E+02  0.24999949123E+00 0.  0.
        -13    1    4    4    0    0  0.18947618127E+01 -0.25837779026E+01 -0.14519373568E+01  0.35192581129E+01  0.10500000000E+00 0.  1.
         13    1    4    4    0    0  0.11720236971E+01 -0.15784460823E+01 -0.78563311847E+00  0.21197584716E+01  0.10500000000E+00 0. -1.
    3000001    1    5    5    0    0 -0.20511123108E+02  0.39742088386E+02 -0.58335879444E+01  0.45112864115E+02  0.10000000000E+01 0. -1.
        -13    1    6    6    0    0 -0.18910266690E+01  0.78851171509E+01  0.11734079499E+01  0.81938370477E+01  0.10500000000E+00 0.  1.
         13    1    6    6    0    0 -0.22416998660E+01  0.88284212085E+01  0.12408062636E+01  0.91933054180E+01  0.10500000000E+00 0. -1.
</event>
<event>
11    0  0.3467594E-009  0.9118800E+02  0.7816531E-02  0.1126479E+00
         25   -1    0    0    0    0  0.00000000000E+00  0.00000000000E+00  0.99999998245E-14  0.12500000000E+03  0.12500000000E+03 0.  0.
    3000001    1    3    3    0    0  0.13713987486E+02  0.22690361929E+02  0.48840290695E+02  0.55581471485E+02  0.10000000000E+01 0. -1.
    1000022    2    1    0    0    0  0.18480893412E+02  0.24801969833E+02  0.53381353255E+02  0.62499999587E+02  0.99999972072E+01 0.  0.
    3000022    2    3    3    0    0  0.47669059264E+01  0.21116079037E+01  0.45410625604E+01  0.69185281027E+01  0.25000375917E+00 0.  0.
    1000022    2    1    0    0    0 -0.18480893412E+02 -0.24801969833E+02 -0.53381353255E+02  0.62500000413E+02  0.10000002365E+02 0.  0.
    3000022    2    5    5    0    0 -0.12557748964E+02 -0.92121772447E+01 -0.22115081322E+02  0.27049964676E+02  0.24999696352E+00 0.  0.
        -13    1    4    4    0    0  0.35771138708E+01  0.16109848568E+01  0.34056963535E+01  0.51962302206E+01  0.10500000000E+00 0.  1.
         13    1    4    4    0    0  0.11897920556E+01  0.50062304688E+00  0.11353662069E+01  0.17222978820E+01  0.10500000000E+00 0. -1.
    3000001    1    5    5    0    0 -0.59231444486E+01 -0.15589792588E+02 -0.31266271934E+02  0.35450035737E+02  0.10000000000E+01 0.  1.
        -13    1    6    6    0    0 -0.67157453015E+01 -0.48993384788E+01 -0.11693370267E+02  0.14347497540E+02  0.10500000000E+00 0. -1.
         13    1    6    6    0    0 -0.58420036623E+01 -0.43128387658E+01 -0.10421711055E+02  0.12702467135E+02  0.10500000000E+00 0.  1.
</event>
<event>
11    0  0.3467594E-009  0.9118800E+02  0.7816531E-02  0.1126479E+00
         25   -1    0    0    0    0  0.00000000000E+00  0.00000000000E+00  0.99999998245E-14  0.12500000000E+03  0.12500000000E+03 0.  0.
    3000001    1    3    3    0    0  0.17023133082E+02  0.91433088209E+01 -0.15686583042E+01  0.19412569253E+02  0.10000000000E+01 0.  1.
    1000022    2    1    0    0    0  0.59220952257E+02  0.17211044367E+02  0.17054727146E+01  0.62500000454E+02  0.10000009257E+02 0.  0.
    3000022    2    3    3    0    0  0.42197819175E+02  0.80677355462E+01  0.32741310188E+01  0.43087431201E+02  0.24998723448E+00 0.  0.
    1000022    2    1    0    0    0 -0.59220952257E+02 -0.17211044367E+02 -0.17054727146E+01  0.62499999546E+02  0.10000003583E+02 0.  0.
    3000022    2    5    5    0    0 -0.55769145808E+01 -0.20268227150E+01  0.27835392161E+01  0.65590074787E+01  0.25000395635E+00 0.  0.
        -13    1    4    4    0    0  0.16664537944E+02  0.32243839517E+01  0.13436482387E+01  0.17027034162E+02  0.10500000000E+00 0.  1.
         13    1    4    4    0    0  0.25533281231E+02  0.48433515945E+01  0.19304827801E+01  0.26060397039E+02  0.10500000000E+00 0. -1.
    3000001    1    5    5    0    0 -0.53644037676E+02 -0.15184221652E+02 -0.44890119307E+01  0.55940992067E+02  0.10000000000E+01 0.  1.
        -13    1    6    6    0    0 -0.23557357200E+01 -0.79182289582E+00  0.11913888915E+01  0.27580621406E+01  0.10500000000E+00 0.  1.
         13    1    6    6    0    0 -0.32211788609E+01 -0.12349998192E+01  0.15921503246E+01  0.38009453381E+01  0.10500000000E+00 0. -1.
</event>
<event>
11    0  0.3467594E-009  0.9118800E+02  0.7816531E-02  0.1126479E+00
         25   -1    0    0    0    0  0.00000000000E+00  0.00000000000E+00  0.99999998245E-14  0.12500000000E+03  0.12500000000E+03 0.  0.
    3000001    1    3    3    0    0 -0.27222064153E+02 -0.13704472559E+02  0.22175167053E+02  0.37703996853E+02  0.10000000000E+01 0. -1.
    1000022    2    1    0    0    0 -0.44850419963E+02 -0.15186352347E+02  0.39548258219E+02  0.62499998565E+02  0.99999811982E+01 0.  0.
    3000022    2    3    3    0    0 -0.17628355811E+02 -0.14818797883E+01  0.17373091166E+02  0.24796001712E+02  0.25001590268E+00 0.  0.
    1000022    2    1    0    0    0  0.44850419963E+02  0.15186352347E+02 -0.39548258219E+02  0.62500001435E+02  0.99999991385E+01 0.  0.
    3000022    2    5    5    0    0  0.18985274866E+02  0.50192136037E+01 -0.22565660666E+02  0.29914957922E+02  0.24999847007E+00 0.  0.
        -13    1    4    4    0    0 -0.54359942708E+01 -0.43961415816E+00  0.54192908961E+01  0.76891503521E+01  0.10500000000E+00 0. -1.
         13    1    4    4    0    0 -0.12192361540E+02 -0.10422656301E+01  0.11953800270E+02  0.17106851360E+02  0.10500000000E+00 0.  1.
    3000001    1    5    5    0    0  0.25865145097E+02  0.10167138744E+02 -0.16982597553E+02  0.32585043513E+02  0.10000000000E+01 0. -1.
        -13    1    6    6    0    0  0.77782394713E+01  0.20863302170E+01 -0.91673389834E+01  0.12202660041E+02  0.10500000000E+00 0.  1.
         13    1    6    6    0    0  0.11207035395E+02  0.29328833867E+01 -0.13398321682E+02  0.17712297881E+02  0.10500000000E+00 0. -1.
</event>
<event>
11    0  0.3467594E-009  0.9118800E+02  0.7816531E-02  0.1126479E+00
         25   -1    0    0    0    0  0.00000000000E+00  0.00000000000E+00  0.99999998245E-14  0.12500000000E+03  0.12500000000E+03 0.  0.
    3000001    1    3    3    0    0 -0.29006440101E+02 -0.75974767546E+01  0.18375324611E+02  0.35181639742E+02  0.10000000000E+01 0. -1.
    1000022    2    1    0    0    0 -0.46003342025E+02 -0.19112997658E+02  0.36395546555E+02  0.62499999710E+02  0.99999998875E+01 0.  0.
    3000022    2    3    3    0    0 -0.16996901924E+02 -0.11515520904E+02  0.18020221944E+02  0.27318359968E+02  0.24999146790E+00 0.  0.
    1000022    2    1    0    0    0  0.46003342025E+02  0.19112997658E+02 -0.36395546555E+02  0.62500000290E+02  0.10000003512E+02 0.  0.
    3000022    2    5    5    0    0  0.97006371285E+01  0.54423095942E+01 -0.13310929183E+02  0.17348326410E+02  0.24999818342E+00 0.  0.
        -13    1    4    4    0    0 -0.11128667062E+02 -0.75220833390E+01  0.11717946630E+02  0.17825550947E+02  0.10500000000E+00 0.  1.
         13    1    4    4    0    0 -0.58682348615E+01 -0.39934375646E+01  0.63022753141E+01  0.94928090209E+01  0.10500000000E+00 0. -1.
    3000001    1    5    5    0    0  0.36302704896E+02  0.13670688064E+02 -0.23084617372E+02  0.45151673880E+02  0.10000000000E+01 0.  1.
        -13    1    6    6    0    0  0.41807539286E+01  0.23709022138E+01 -0.56556400713E+01  0.74227468188E+01  0.10500000000E+00 0.  1.
         13    1    6    6    0    0  0.55198831999E+01  0.30714073804E+01 -0.76552891120E+01  0.99255795914E+01  0.10500000000E+00 0. -1.
</event>
<event>
11    0  0.3467594E-009  0.9118800E+02  0.7816531E-02  0.1126479E+00
         25   -1    0    0    0    0  0.00000000000E+00  0.00000000000E+00  0.99999998245E-14  0.12500000000E+03  0.12500000000E+03 0.  0.
    3000001    1    3    3    0    0 -0.46686153321E+01 -0.45221274335E+01 -0.33001543917E+02  0.33650371566E+02  0.10000000000E+01 0.  1.
    1000022    2    1    0    0    0 -0.33526901308E+01 -0.93936282099E+00 -0.61596485545E+02  0.62499999780E+02  0.10000000369E+02 0.  0.
    3000022    2    3    3    0    0  0.13159252013E+01  0.35827646126E+01 -0.28594941628E+02  0.28849628213E+02  0.24999990484E+00 0.  0.
    1000022    2    1    0    0    0  0.33526901308E+01  0.93936282099E+00  0.61596485545E+02  0.62500000220E+02  0.10000003121E+02 0.  0.
    3000022    2    5    5    0    0  0.61488509232E+01 -0.18005025608E+01  0.32733626108E+02  0.33355703482E+02  0.24999891122E+00 0.  0.
        -13    1    4    4    0    0  0.65157295099E+00  0.19585101381E+01 -0.15611418071E+02  0.15747625486E+02  0.10500000000E+00 0. -1.
         13    1    4    4    0    0  0.66435225031E+00  0.16242544744E+01 -0.12983523557E+02  0.13102002727E+02  0.10500000000E+00 0.  1.
    3000001    1    5    5    0    0 -0.27961607924E+01  0.27398653818E+01  0.28862859437E+02  0.29144296738E+02  0.10000000000E+01 0.  1.
        -13    1    6    6    0    0  0.16172312747E+01 -0.48559815563E+00  0.88010569431E+01  0.89621911875E+01  0.10500000000E+00 0.  1.
         13    1    6    6    0    0  0.45316196484E+01 -0.13149044052E+01  0.23932569165E+02  0.24393512295E+02  0.10500000000E+00 0. -1.
</event>
<event>
11    0  0.3467594E-009  0.9118800E+02  0.7816531E-02  0.1126479E+00
         25   -1    0    0    0    0  0.00000000000E+00  0.00000000000E+00  0.99999998245E-14  0.12500000000E+03  0.12500000000E+03 0.  0.
    3000001    1    3    3    0    0  0.11892889100E+01 -0.18448951470E+01  0.34736268999E+01  0.42289632364E+01  0.10000000000E+01 0.  1.
    1000022    2    1    0    0    0 -0.50425591713E+01 -0.35851393678E+01  0.61383788160E+02  0.62499999405E+02  0.99999924741E+01 0.  0.
    3000022    2    3    3    0    0 -0.62318480812E+01 -0.17402442208E+01  0.57910161260E+02  0.58271036168E+02  0.24999710131E+00 0.  0.
    1000022    2    1    0    0    0  0.50425591713E+01  0.35851393678E+01 -0.61383788160E+02  0.62500000595E+02  0.99999999146E+01 0.  0.
    3000022    2    5    5    0    0  0.14886748473E+01 -0.28590848278E+01 -0.84440331508E+01  0.90418320925E+01  0.25002576466E+00 0.  0.
        -13    1    4    4    0    0 -0.19636812071E+01 -0.59955387044E+00  0.18469057088E+02  0.18583126848E+02  0.10500000000E+00 0. -1.
         13    1    4    4    0    0 -0.42681668742E+01 -0.11406903504E+01  0.39441104172E+02  0.39687909320E+02  0.10500000000E+00 0.  1.
    3000001    1    5    5    0    0  0.35538843239E+01  0.64442241956E+01 -0.52939755009E+02  0.53458168503E+02  0.10000000000E+01 0. -1.
        -13    1    6    6    0    0  0.86767041324E+00 -0.15289437262E+01 -0.45407954586E+01  0.48703561740E+01  0.10500000000E+00 0. -1.
         13    1    6    6    0    0  0.62100443410E+00 -0.13301411016E+01 -0.39032376922E+01  0.41714759185E+01  0.10500000000E+00 0.  1.
</event>
<event>
11    0  0.3467594E-009  0.9118800E+02  0.7816531E-02  0.1126479E+00
         25   -1    0    0    0    0  0.00000000000E+00  0.00000000000E+00  0.99999998245E-14  0.12500000000E+03  0.12500000000E+03 0.  0.
    3000001    1    3    3    0    0 -0.13472703651E+02 -0.22683434945E+02 -0.21078973689E+02  0.33784243315E+02  0.10000000000E+01 0. -1.
    1000022    2    1    0    0    0 -0.22221186918E+02 -0.35746629967E+02 -0.45107062115E+02  0.62499997854E+02  0.99999988533E+01 0.  0.
    3000022    2    3    3    0    0 -0.87484832672E+01 -0.13063195022E+02 -0.24028088426E+02  0.28715754539E+02  0.25000339835E+00 0.  0.
    1000022    2    1    0    0    0  0.22221186918E+02  0.35746629967E+02  0.45107062115E+02  0.62500002146E+02  0.10000025677E+02 0.  0.
    3000022    2    5    5    0    0  0.16062341191E+02  0.24384436191E+02  0.24316369787E+02  0.37999314082E+02  0.24999647918E+00 0.  0.
        -13    1    4    4    0    0 -0.39238835345E+01 -0.57950562966E+01 -0.10798448803E+02  0.12868452161E+02  0.10500000000E+00 0.  1.
         13    1    4    4    0    0 -0.48245997327E+01 -0.72681387252E+01 -0.13229639623E+02  0.15847302378E+02  0.10500000000E+00 0. -1.
    3000001    1    5    5    0    0  0.61588457273E+01  0.11362193776E+02  0.20790692329E+02  0.24500688064E+02  0.10000000000E+01 0. -1.
        -13    1    6    6    0    0  0.11336950508E+02  0.17285197814E+02  0.17233455531E+02  0.26912962022E+02  0.10500000000E+00 0. -1.
         13    1    6    6    0    0  0.47253906828E+01  0.70992383770E+01  0.70829142557E+01  0.11086352060E+02  0.10500000000E+00 0.  1.
</event>
<event>
11    0  0.3467594E-009  0.9118800E+02  0.7816531E-02  0.1126479E+00
         25   -1    0    0    0    0  0.00000000000E+00  0.00000000000E+00  0.99999998245E-14  0.12500000000E+03  0.12500000000E+03 0.  0.
    3000001    1    3    3    0    0 -0.98440771443E+01  0.63424823661E+01 -0.55067916807E+02  0.56308155705E+02  0.10000000000E+01 0. -1.
    1000022    2    1    0    0    0 -0.77291615656E+01  0.63165773418E+01 -0.60881943058E+02  0.62500000598E+02  0.99999998212E+01 0.  0.
    3000022    2    3    3    0    0  0.21149155787E+01 -0.25905024285E-01 -0.58140262509E+01  0.61918448934E+01  0.25000592605E+00 0.  0.
    1000022    2    1    0    0    0  0.77291615656E+01 -0.63165773418E+01  0.60881943058E+02  0.62499999402E+02  0.99999923462E+01 0.  0.
    3000022    2    5    5    0    0 -0.21896517987E+01 -0.10965090974E+01  0.61725949359E+01  0.66453241907E+01  0.24999631218E+00 0.  0.
        -13    1    4    4    0    0  0.81735443923E+00 -0.77912874421E-02 -0.20767347097E+01  0.22342741635E+01  0.10500000000E+00 0. -1.
         13    1    4    4    0    0  0.12975611395E+01 -0.18113736843E-01 -0.37372915412E+01  0.39575707299E+01  0.10500000000E+00 0.  1.
    3000001    1    5    5    0    0  0.99188133642E+01 -0.52200682444E+01  0.54709348122E+02  0.55854675211E+02  0.10000000000E+01 0. -1.
        -13    1    6    6    0    0 -0.73545978188E+00 -0.35284184621E+00  0.22063151755E+01  0.23546231361E+01  0.10500000000E+00 0.  1.
         13    1    6    6    0    0 -0.14541920168E+01 -0.74366725115E+00  0.39662797604E+01  0.42907010546E+01  0.10500000000E+00 0. -1.
</event>
<event>
11    0  0.3467594E-009  0.9118800E+02  0.7816531E-02  0.1126479E+00
         25   -1    0    0    0    0  0.00000000000E+00  0.00000000000E+00  0.99999998245E-14  0.12500000000E+03  0.12500000000E+03 0.  0.
    3000001    1    3    3    0    0  0.84567591550E+01  0.38437695043E+02 -0.29640120907E+00  0.39370814435E+02  0.10000000000E+01 0. -1.
    1000022    2    1    0    0    0  0.18077857129E+02  0.58766208718E+02  0.50964398237E+01  0.62499999981E+02  0.10000004663E+02 0.  0.
    3000022    2    3    3    0    0  0.96210979737E+01  0.20328513676E+02  0.53928410328E+01  0.23129185546E+02  0.24999027087E+00 0.  0.
    1000022    2    1    0    0    0 -0.18077857129E+02 -0.58766208718E+02 -0.50964398237E+01  0.62500000019E+02  0.10000004899E+02 0.  0.
    3000022    2    5    5    0    0 -0.13313049669E+02 -0.26640361525E+02 -0.17187244228E+01  0.29832242071E+02  0.24999931279E+00 0.  0.
        -13    1    4    4    0    0  0.61862450301E+01  0.12938783643E+02  0.34236616406E+01  0.14744973169E+02  0.10500000000E+00 0.  1.
         13    1    4    4    0    0  0.34348529435E+01  0.73897300329E+01  0.19691793922E+01  0.83842123769E+01  0.10500000000E+00 0. -1.
    3000001    1    5    5    0    0 -0.47648074597E+01 -0.32125847194E+02 -0.33777154010E+01  0.32667757948E+02  0.10000000000E+01 0.  1.
        -13    1    6    6    0    0 -0.46314086649E+01 -0.92527679997E+01 -0.65293408454E+00  0.10368269373E+02  0.10500000000E+00 0. -1.
         13    1    6    6    0    0 -0.86816410041E+01 -0.17387593525E+02 -0.10657903382E+01  0.19463972697E+02  0.10500000000E+00 0.  1.
</event>
<event>
11    0  0.3467594E-009  0.9118800E+02  0.7816531E-02  0.1126479E+00
         25   -1    0    0    0    0  0.00000000000E+00  0.00000000000E+00  0.99999998245E-14  0.12500000000E+03  0.12500000000E+03 0.  0.
    3000001    1    3    3    0    0  0.34242471020E+02  0.48186417846E+02 -0.10093018835E+02  0.59977885221E+02  0.10000000000E+01 0.  1.
    1000022    2    1    0    0    0  0.34838472626E+02  0.50171877447E+02 -0.86783453547E+01  0.62500000899E+02  0.99999986436E+01 0.  0.
    3000022    2    3    3    0    0  0.59600160656E+00  0.19854596003E+01  0.14146734806E+01  0.25221156782E+01  0.24999739582E+00 0.  0.
    1000022    2    1    0    0    0 -0.34838472626E+02 -0.50171877447E+02  0.86783453547E+01  0.62499999101E+02  0.99999874008E+01 0.  0.
    3000022    2    5    5    0    0 -0.31392968376E+02 -0.48321250164E+02  0.94394265324E+01  0.58392011097E+02  0.25001165403E+00 0.  0.
        -13    1    4    4    0    0  0.15129997997E+00  0.48260277230E+00  0.37794837413E+00  0.64005241448E+00  0.10500000000E+00 0.  1.
         13    1    4    4    0    0  0.44470162658E+00  0.15028568280E+01  0.10367251064E+01  0.18820632637E+01  0.10500000000E+00 0. -1.
    3000001    1    5    5    0    0 -0.34455042506E+01 -0.18506272829E+01 -0.76108117770E+00  0.41079880039E+01  0.10000000000E+01 0. -1.
        -13    1    6    6    0    0 -0.13899847140E+02 -0.21402157771E+02  0.42475457158E+01  0.25871041289E+02  0.10500000000E+00 0.  1.
         13    1    6    6    0    0 -0.17493121236E+02 -0.26919092392E+02  0.51918808166E+01  0.32520969808E+02  0.10500000000E+00 0. -1.
</event>
<event>
11    0  0.3467594E-009  0.9118800E+02  0.7816531E-02  0.1126479E+00
         25   -1    0    0    0    0  0.00000000000E+00  0.00000000000E+00  0.99999998245E-14  0.12500000000E+03  0.12500000000E+03 0.  0.
    3000001    1    3    3    0    0 -0.20792833463E+02  0.30341184445E+01  0.10779638237E+02  0.23637859435E+02  0.10000000000E+01 0. -1.
    1000022    2    1    0    0    0 -0.58869144976E+02  0.14928358606E+01  0.18396888264E+02  0.62500001012E+02  0.99999919806E+01 0.  0.
    3000022    2    3    3    0    0 -0.38076311513E+02 -0.15412825840E+01  0.76172500268E+01  0.38862141577E+02  0.24999906974E+00 0.  0.
    1000022    2    1    0    0    0  0.58869144976E+02 -0.14928358606E+01 -0.18396888264E+02  0.62499998988E+02  0.99999793314E+01 0.  0.
    3000022    2    5    5    0    0  0.51703235512E+02  0.18972247508E+01 -0.15748757228E+02  0.54082435958E+02  0.25000138373E+00 0.  0.
        -13    1    4    4    0    0 -0.19794640659E+02 -0.76653106839E+00  0.40188828412E+01  0.20213307819E+02  0.10500000000E+00 0. -1.
         13    1    4    4    0    0 -0.18281670854E+02 -0.77475151557E+00  0.35983671856E+01  0.18648833758E+02  0.10500000000E+00 0.  1.
    3000001    1    5    5    0    0  0.71659094635E+01 -0.33900606114E+01 -0.26481310361E+01  0.84175630305E+01  0.10000000000E+01 0.  1.
        -13    1    6    6    0    0  0.22813995830E+02  0.89883396432E+00 -0.69751093294E+01  0.23873614795E+02  0.10500000000E+00 0.  1.
         13    1    6    6    0    0  0.28889239682E+02  0.99839078650E+00 -0.87736478987E+01  0.30208821163E+02  0.10500000000E+00 0. -1.
</event>
<event>
11    0  0.3467594E-009  0.9118800E+02  0.7816531E-02  0.1126479E+00
         25   -1    0    0    0    0  0.00000000000E+00  0.00000000000E+00  0.99999998245E-14  0.12500000000E+03  0.12500000000E+03 0.  0.
    3000001    1    3    3    0    0 -0.19231492778E+02  0.31762304307E+02 -0.30144524993E+02  0.47837084740E+02  0.10000000000E+01 0.  1.
    1000022    2    1    0    0    0 -0.20060995983E+02  0.43547448444E+02 -0.38825591007E+02  0.62499999245E+02  0.99999781375E+01 0.  0.
    3000022    2    3    3    0    0 -0.82950320570E+00  0.11785144137E+02 -0.86810660139E+01  0.14662914505E+02  0.24991348451E+00 0.  0.
    1000022    2    1    0    0    0  0.20060995983E+02 -0.43547448444E+02  0.38825591007E+02  0.62500000755E+02  0.99999875785E+01 0.  0.
    3000022    2    5    5    0    0  0.21310233120E+01 -0.99335169513E+01  0.12833839320E+02  0.16370276432E+02  0.24999878355E+00 0.  0.
        -13    1    4    4    0    0 -0.26162566407E+00  0.32058669367E+01 -0.23740345688E+01  0.39991368991E+01  0.10500000000E+00 0.  1.
         13    1    4    4    0    0 -0.56787754163E+00  0.85792772000E+01 -0.63070314452E+01  0.10663777606E+02  0.10500000000E+00 0. -1.
    3000001    1    5    5    0    0  0.17929972671E+02 -0.33613931493E+02  0.25991751686E+02  0.46129724323E+02  0.10000000000E+01 0. -1.
        -13    1    6    6    0    0  0.99611578317E+00 -0.48735721033E+01  0.62069429782E+01  0.79549429812E+01  0.10500000000E+00 0.  1.
         13    1    6    6    0    0  0.11349075289E+01 -0.50599448479E+01  0.66268963423E+01  0.84153334512E+01  0.10500000000E+00 0. -1.
</event>
<event>
11    0  0.3467594E-009  0.9118800E+02  0.7816531E-02  0.1126479E+00
         25   -1    0    0    0    0  0.00000000000E+00  0.00000000000E+00  0.99999998245E-14  0.12500000000E+03  0.12500000000E+03 0.  0.
    3000001    1    3    3    0    0  0.33783790072E+02  0.33090218925E+02  0.15778889613E+02  0.49862615430E+02  0.10000000000E+01 0.  1.
    1000022    2    1    0    0    0  0.41168124508E+02  0.39158537109E+02  0.24042552157E+02  0.62500000115E+02  0.10000009808E+02 0.  0.
    3000022    2    3    3    0    0  0.73843344362E+01  0.60683181840E+01  0.82636625442E+01  0.12637384685E+02  0.24998477472E+00 0.  0.
    1000022    2    1    0    0    0 -0.41168124508E+02 -0.39158537109E+02 -0.24042552157E+02  0.62499999885E+02  0.10000008365E+02 0.  0.
    3000022    2    5    5    0    0 -0.15483903047E+02 -0.17600775712E+02 -0.51638037787E+01  0.24005539908E+02  0.25003519309E+00 0.  0.
        -13    1    4    4    0    0  0.23330821889E+01  0.18702098750E+01  0.25425379624E+01  0.39263827840E+01  0.10500000000E+00 0. -1.
         13    1    4    4    0    0  0.50512522473E+01  0.41981083090E+01  0.57211245818E+01  0.87110019011E+01  0.10500000000E+00 0.  1.
    3000001    1    5    5    0    0 -0.25684221461E+02 -0.21557761397E+02 -0.18878748379E+02  0.38494459976E+02  0.10000000000E+01 0.  1.
        -13    1    6    6    0    0 -0.49287228824E+01 -0.55406407173E+01 -0.16629569761E+01  0.76004907548E+01  0.10500000000E+00 0.  1.
         13    1    6    6    0    0 -0.10555180165E+02 -0.12060134994E+02 -0.35008468026E+01  0.16405049153E+02  0.10500000000E+00 0. -1.
</event>
<event>
11    0  0.3467594E-009  0.9118800E+02  0.7816531E-02  0.1126479E+00
         25   -1    0    0    0    0  0.00000000000E+00  0.00000000000E+00  0.99999998245E-14  0.12500000000E+03  0.12500000000E+03 0.  0.
    3000001    1    3    3    0    0 -0.32480859486E+02 -0.20054538674E+02  0.34878475723E+01  0.38345219194E+02  0.10000000000E+01 0.  1.
    1000022    2    1    0    0    0 -0.49715398871E+02 -0.34260034804E+02  0.12683770834E+02  0.62499990574E+02  0.99999954716E+01 0.  0.
    3000022    2    3    3    0    0 -0.17234539385E+02 -0.14205496130E+02  0.91959232619E+01  0.24154771379E+02  0.25001524804E+00 0.  0.
    1000022    2    1    0    0    0  0.49715398871E+02  0.34260034804E+02 -0.12683770834E+02  0.62500009426E+02  0.10000113301E+02 0.  0.
    3000022    2    5    5    0    0  0.30526236420E+02  0.24500601611E+02 -0.11985628270E+02  0.40937127086E+02  0.24999938017E+00 0.  0.
        -13    1    4    4    0    0 -0.12311730070E+02 -0.10103071268E+02  0.65830212595E+01  0.17233628180E+02  0.10500000000E+00 0.  1.
         13    1    4    4    0    0 -0.49228093155E+01 -0.41024248625E+01  0.26129020024E+01  0.69211431991E+01  0.10500000000E+00 0. -1.
    3000001    1    5    5    0    0  0.19189162451E+02  0.97594331928E+01 -0.69814256446E+00  0.21562882341E+02  0.10000000000E+01 0. -1.
        -13    1    6    6    0    0  0.21287187419E+02  0.17074064694E+02 -0.84036823608E+01  0.28553475018E+02  0.10500000000E+00 0.  1.
         13    1    6    6    0    0  0.92390490014E+01  0.74265369172E+01 -0.35819459089E+01  0.12383652067E+02  0.10500000000E+00 0. -1.
</event>
<event>
11    0  0.3467594E-009  0.9118800E+02  0.7816531E-02  0.1126479E+00
         25   -1    0    0    0    0  0.00000000000E+00  0.00000000000E+00  0.99999998245E-14  0.12500000000E+03  0.12500000000E+03 0.  0.
    3000001    1    3    3    0    0 -0.72992336668E+00  0.15797966038E+01 -0.14961209004E+01  0.25033823478E+01  0.10000000000E+01 0.  1.
    1000022    2    1    0    0    0  0.21507405191E+02  0.30512495184E+02 -0.49118928358E+02  0.62499999925E+02  0.10000001359E+02 0.  0.
    3000022    2    3    3    0    0  0.22237328558E+02  0.28932698580E+02 -0.47622807458E+02  0.59996617577E+02  0.25000409098E+00 0.  0.
    1000022    2    1    0    0    0 -0.21507405191E+02 -0.30512495184E+02  0.49118928358E+02  0.62500000075E+02  0.10000002295E+02 0.  0.
    3000022    2    5    5    0    0 -0.18615561790E+02 -0.26411959382E+02  0.35772439602E+02  0.48206438089E+02  0.24999803576E+00 0.  0.
        -13    1    4    4    0    0  0.14060643569E+02  0.18212945968E+02 -0.30081819337E+02  0.37872681157E+02  0.10500000000E+00 0.  1.
         13    1    4    4    0    0  0.81766849894E+01  0.10719752612E+02 -0.17540988121E+02  0.22123936421E+02  0.10500000000E+00 0. -1.
    3000001    1    5    5    0    0 -0.28918434013E+01 -0.41005358019E+01  0.13346488756E+02  0.14293561986E+02  0.10000000000E+01 0. -1.
        -13    1    6    6    0    0 -0.10446915330E+02 -0.14728052750E+02  0.19933262404E+02  0.26896088057E+02  0.10500000000E+00 0. -1.
         13    1    6    6    0    0 -0.81686464599E+01 -0.11683906632E+02  0.15839177198E+02  0.21310350032E+02  0.10500000000E+00 0.  1.
</event>
<event>
11    0  0.3467594E-009  0.9118800E+02  0.7816531E-02  0.1126479E+00
         25   -1    0    0    0    0  0.00000000000E+00  0.00000000000E+00  0.99999998245E-14  0.12500000000E+03  0.12500000000E+03 0.  0.
    3000001    1    3    3    0    0 -0.28747291480E+02  0.23597743984E+02  0.33188912758E+01  0.37353384423E+02  0.10000000000E+01 0. -1.
    1000022    2    1    0    0    0 -0.52136064622E+02  0.32439747387E+02  0.59785892100E+01  0.62499998969E+02  0.99999948709E+01 0.  0.
    3000022    2    3    3    0    0 -0.23388773142E+02  0.88420034024E+01  0.26596979343E+01  0.25146614546E+02  0.24999350469E+00 0.  0.
    1000022    2    1    0    0    0  0.52136064622E+02 -0.32439747387E+02 -0.59785892100E+01  0.62500001031E+02  0.10000007755E+02 0.  0.
    3000022    2    5    5    0    0  0.42675237239E+02 -0.25526476806E+02 -0.85622602156E+01  0.50459406329E+02  0.24999116916E+00 0.  0.
        -13    1    4    4    0    0 -0.84063689833E+01  0.31187182020E+01  0.93704079273E+00  0.90156815135E+01  0.10500000000E+00 0.  1.
         13    1    4    4    0    0 -0.14982404159E+02  0.57232852004E+01  0.17226571415E+01  0.16130933032E+02  0.10500000000E+00 0. -1.
    3000001    1    5    5    0    0  0.94608273834E+01 -0.69132705806E+01  0.25836710056E+01  0.12040594701E+02  0.10000000000E+01 0.  1.
        -13    1    6    6    0    0  0.14017313808E+02 -0.83943130605E+01 -0.27606532647E+01  0.16570510239E+02  0.10500000000E+00 0. -1.
         13    1    6    6    0    0  0.28657923431E+02 -0.17132163746E+02 -0.58016069509E+01  0.33888896090E+02  0.10500000000E+00 0.  1.
</event>
<event>
11    0  0.3467594E-009  0.9118800E+02  0.7816531E-02  0.1126479E+00
         25   -1    0    0    0    0  0.00000000000E+00  0.00000000000E+00  0.99999998245E-14  0.12500000000E+03  0.12500000000E+03 0.  0.
    3000001    1    3    3    0    0 -0.22198688683E+01  0.28280520962E+02 -0.33589826045E+02  0.43977177006E+02  0.10000000000E+01 0. -1.
    1000022    2    1    0    0    0 -0.72355762364E+01  0.43010698005E+02 -0.43634576899E+02  0.62499999509E+02  0.99999965546E+01 0.  0.
    3000022    2    3    3    0    0 -0.50157073681E+01  0.14730177043E+02 -0.10044750855E+02  0.18522822504E+02  0.24999527495E+00 0.  0.
    1000022    2    1    0    0    0  0.72355762364E+01 -0.43010698005E+02  0.43634576899E+02  0.62500000491E+02  0.10000002689E+02 0.  0.
    3000022    2    5    5    0    0  0.84767479080E+01 -0.20888934715E+02  0.22995571839E+02  0.32203442137E+02  0.25002530987E+00 0.  0.
        -13    1    4    4    0    0 -0.35320385489E+01  0.10309075537E+02 -0.69853121132E+01  0.12944417525E+02  0.10500000000E+00 0.  1.
         13    1    4    4    0    0 -0.14836688192E+01  0.44211015059E+01 -0.30594387415E+01  0.55784049785E+01  0.10500000000E+00 0. -1.
    3000001    1    5    5    0    0 -0.12411716716E+01 -0.22121763290E+02  0.20639005061E+02  0.30296558354E+02  0.10000000000E+01 0. -1.
        -13    1    6    6    0    0  0.48653381259E+01 -0.11954587953E+02  0.13256915289E+02  0.18502446221E+02  0.10500000000E+00 0. -1.
         13    1    6    6    0    0  0.36114097822E+01 -0.89343467622E+01  0.97386565498E+01  0.13700995915E+02  0.10500000000E+00 0.  1.
</event>
<event>
11    0  0.3467594E-009  0.9118800E+02  0.7816531E-02  0.1126479E+00
         25   -1    0    0    0    0  0.00000000000E+00  0.00000000000E+00  0.99999998245E-14  0.12500000000E+03  0.12500000000E+03 0.  0.
    3000001    1    3    3    0    0  0.36192287674E+01 -0.17105639560E+02  0.71667799770E+01  0.18922591178E+02  0.10000000000E+01 0.  1.
    1000022    2    1    0    0    0  0.22180902614E+02 -0.48500912314E+02  0.31014822357E+02  0.62499999482E+02  0.99999896684E+01 0.  0.
    3000022    2    3    3    0    0  0.18561673846E+02 -0.31395272754E+02  0.23848042380E+02  0.43577408305E+02  0.25000382163E+00 0.  0.
    1000022    2    1    0    0    0 -0.22180902614E+02  0.48500912314E+02 -0.31014822357E+02  0.62500000518E+02  0.99999961418E+01 0.  0.
    3000022    2    5    5    0    0 -0.11358897292E+02  0.25954873873E+02 -0.10777847417E+02  0.30313438053E+02  0.25001239913E+00 0.  0.
        -13    1    4    4    0    0  0.52950329066E+01 -0.89540474850E+01  0.67526823368E+01  0.12402503118E+02  0.10500000000E+00 0. -1.
         13    1    4    4    0    0  0.13266640940E+02 -0.22441225269E+02  0.17095360044E+02  0.31174905187E+02  0.10500000000E+00 0.  1.
    3000001    1    5    5    0    0 -0.10822005322E+02  0.22546038441E+02 -0.20236974941E+02  0.32186562465E+02  0.10000000000E+01 0.  1.
        -13    1    6    6    0    0 -0.57104159049E+01  0.13198694348E+02 -0.54376480669E+01  0.15375091018E+02  0.10500000000E+00 0.  1.
         13    1    6    6    0    0 -0.56484813870E+01  0.12756179525E+02 -0.53401993501E+01  0.14938347035E+02  0.10500000000E+00 0. -1.
</event>
<event>
11    0  0.3467594E-009  0.9118800E+02  0.7816531E-02  0.1126479E+00
         25   -1    0    0    0    0  0.00000000000E+00  0.00000000000E+00  0.99999998245E-14  0.12500000000E+03  0.12500000000E+03 0.  0.
    3000001    1    3    3    0    0  0.18977672617E+02  0.49565832717E+01  0.35596914541E+01  0.19959738950E+02  0.10000000000E+01 0.  1.
    1000022    2    1    0    0    0  0.57370548431E+02  0.22661919981E+02 -0.11434390237E+01  0.62499999917E+02  0.10000004615E+02 0.  0.
    3000022    2    3    3    0    0  0.38392875814E+02  0.17705336709E+02 -0.47031304778E+01  0.42540260967E+02  0.25001122718E+00 0.  0.
    1000022    2    1    0    0    0 -0.57370548431E+02 -0.22661919981E+02  0.11434390237E+01  0.62500000083E+02  0.10000005655E+02 0.  0.
    3000022    2    5    5    0    0 -0.69179777193E+01 -0.44592428674E+01 -0.28319080234E+01  0.87077819688E+01  0.25000217520E+00 0.  0.
        -13    1    4    4    0    0  0.26097184761E+02  0.11980337922E+02 -0.31829655619E+01  0.28891760832E+02  0.10500000000E+00 0. -1.
         13    1    4    4    0    0  0.12295691053E+02  0.57249987865E+01 -0.15201649160E+01  0.13648500136E+02  0.10500000000E+00 0.  1.
    3000001    1    5    5    0    0 -0.50452570712E+02 -0.18202677113E+02  0.39753470471E+01  0.53792218114E+02  0.10000000000E+01 0. -1.
        -13    1    6    6    0    0 -0.40891456255E+01 -0.25666194630E+01 -0.16318208438E+01  0.50973043543E+01  0.10500000000E+00 0.  1.
         13    1    6    6    0    0 -0.28288320938E+01 -0.18926234044E+01 -0.12000871796E+01  0.36104776144E+01  0.10500000000E+00 0. -1.
</event>
<event>
11    0  0.3467594E-009  0.9118800E+02  0.7816531E-02  0.1126479E+00
         25   -1    0    0    0    0  0.00000000000E+00  0.00000000000E+00  0.99999998245E-14  0.12500000000E+03  0.12500000000E+03 0.  0.
    3000001    1    3    3    0    0 -0.29901517549E+02  0.21637933703E+02  0.15209258808E+02  0.39932724427E+02  0.10000000000E+01 0. -1.
    1000022    2    1    0    0    0 -0.44072267773E+02  0.38800476630E+02  0.18931674315E+02  0.62499999573E+02  0.99999940444E+01 0.  0.
    3000022    2    3    3    0    0 -0.14170750224E+02  0.17162542928E+02  0.37224155069E+01  0.22567275146E+02  0.24997734282E+00 0.  0.
    1000022    2    1    0    0    0  0.44072267773E+02 -0.38800476630E+02 -0.18931674315E+02  0.62500000427E+02  0.99999993806E+01 0.  0.
    3000022    2    5    5    0    0  0.27463373828E+02 -0.26779541157E+02 -0.16751386579E+02  0.41857522321E+02  0.24999193063E+00 0.  0.
        -13    1    4    4    0    0 -0.94929908197E+01  0.11440429215E+02  0.24466039507E+01  0.15066425961E+02  0.10500000000E+00 0.  1.
         13    1    4    4    0    0 -0.46777594041E+01  0.57221137124E+01  0.12758115561E+01  0.75008491858E+01  0.10500000000E+00 0. -1.
    3000001    1    5    5    0    0  0.16608893945E+02 -0.12020935473E+02 -0.21802877359E+01  0.20642478106E+02  0.10000000000E+01 0.  1.
        -13    1    6    6    0    0  0.12965266748E+02 -0.12553320824E+02 -0.78573123648E+01  0.19683302268E+02  0.10500000000E+00 0.  1.
         13    1    6    6    0    0  0.14498107079E+02 -0.14226220333E+02 -0.88940742143E+01  0.22174220054E+02  0.10500000000E+00 0. -1.
</event>
<event>
11    0  0.3467594E-009  0.9118800E+02  0.7816531E-02  0.1126479E+00
         25   -1    0    0    0    0  0.00000000000E+00  0.00000000000E+00  0.99999998245E-14  0.12500000000E+03  0.12500000000E+03 0.  0.
    3000001    1    3    3    0    0 -0.39421555277E+02  0.35645750751E+02  0.21598110592E+02  0.57377320852E+02  0.10000000000E+01 0. -1.
    1000022    2    1    0    0    0 -0.42835213832E+02  0.39326885200E+02  0.20610437821E+02  0.62499996834E+02  0.10000000681E+02 0.  0.
    3000022    2    3    3    0    0 -0.34136585545E+01  0.36811344490E+01 -0.98767277100E+00  0.51226759822E+01  0.24999231467E+00 0.  0.
    1000022    2    1    0    0    0  0.42835213832E+02 -0.39326885200E+02 -0.20610437821E+02  0.62500003166E+02  0.10000040252E+02 0.  0.
    3000022    2    5    5    0    0  0.41090842806E+02 -0.39246895829E+02 -0.18976216824E+02  0.59907724856E+02  0.24999529338E+00 0.  0.
        -13    1    4    4    0    0 -0.23387803678E+01  0.25021515302E+01 -0.62400089700E+00  0.34829668400E+01  0.10500000000E+00 0. -1.
         13    1    4    4    0    0 -0.10748781867E+01  0.11789829188E+01 -0.36367187400E+00  0.16397091422E+01  0.10500000000E+00 0.  1.
    3000001    1    5    5    0    0  0.17443710252E+01 -0.79989370730E-01 -0.16342209960E+01  0.25922783100E+01  0.10000000000E+01 0.  1.
        -13    1    6    6    0    0  0.21857798670E+02 -0.20861702659E+02 -0.10160708064E+02  0.31878284362E+02  0.10500000000E+00 0. -1.
         13    1    6    6    0    0  0.19233044137E+02 -0.18385193170E+02 -0.88155087601E+01  0.28029440493E+02  0.10500000000E+00 0.  1.
</event>
<event>
11    0  0.3467594E-009  0.9118800E+02  0.7816531E-02  0.1126479E+00
         25   -1    0    0    0    0  0.00000000000E+00  0.00000000000E+00  0.99999998245E-14  0.12500000000E+03  0.12500000000E+03 0.  0.
    3000001    1    3    3    0    0  0.37603716092E+02  0.43488289431E+02  0.17868821421E+02  0.60212669435E+02  0.10000000000E+01 0.  1.
    1000022    2    1    0    0    0  0.39528334468E+02  0.43359032388E+02  0.19072364710E+02  0.62500000240E+02  0.10000000945E+02 0.  0.
    3000022    2    3    3    0    0  0.19246183768E+01 -0.12925704302E+00  0.12035432896E+01  0.22873308051E+01  0.25000496430E+00 0.  0.
    1000022    2    1    0    0    0 -0.39528334468E+02 -0.43359032388E+02 -0.19072364710E+02  0.62499999760E+02  0.99999979456E+01 0.  0.
    3000022    2    5    5    0    0 -0.31045173535E+01 -0.32738413249E+00 -0.10767712310E+01  0.33116682288E+01  0.25000360971E+00 0.  0.
        -13    1    4    4    0    0  0.72343365177E+00 -0.10263584689E+00  0.42437088251E+00  0.85147284836E+00  0.10500000000E+00 0.  1.
         13    1    4    4    0    0  0.12011847251E+01 -0.26621196131E-01  0.77917240708E+00  0.14358579567E+01  0.10500000000E+00 0. -1.
    3000001    1    5    5    0    0 -0.36423817115E+02 -0.43031648255E+02 -0.17995593479E+02  0.59188331531E+02  0.10000000000E+01 0.  1.
        -13    1    6    6    0    0 -0.77465147661E+00 -0.68297471455E-01 -0.24597174516E+00  0.82236035546E+00  0.10500000000E+00 0.  1.
         13    1    6    6    0    0 -0.23298658769E+01 -0.25908666104E+00 -0.83079948582E+00  0.24893078733E+01  0.10500000000E+00 0. -1.
</event>
<event>
11    0  0.3467594E-009  0.9118800E+02  0.7816531E-02  0.1126479E+00
         25   -1    0    0    0    0  0.00000000000E+00  0.00000000000E+00  0.99999998245E-14  0.12500000000E+03  0.12500000000E+03 0.  0.
    3000001    1    3    3    0    0  0.18332537692E+02 -0.11512879269E+02  0.24504512011E+02  0.32712374359E+02  0.10000000000E+01 0.  1.
    1000022    2    1    0    0    0  0.38527258309E+02 -0.13238287734E+02  0.46331936663E+02  0.62500001775E+02  0.99999986026E+01 0.  0.
    3000022    2    3    3    0    0  0.20194720617E+02 -0.17254084658E+01  0.21827424651E+02  0.29787627416E+02  0.25001003343E+00 0.  0.
    1000022    2    1    0    0    0 -0.38527258309E+02  0.13238287734E+02 -0.46331936663E+02  0.62499998225E+02  0.99999764099E+01 0.  0.
    3000022    2    5    5    0    0 -0.29165964037E+02  0.11099165528E+02 -0.28700977221E+02  0.42398744405E+02  0.25000022824E+00 0.  0.
        -13    1    4    4    0    0  0.12111931501E+02 -0.99442894200E+00  0.13158534130E+02  0.17912169580E+02  0.10500000000E+00 0.  1.
         13    1    4    4    0    0  0.80827891160E+01 -0.73097952376E+00  0.86688905209E+01  0.11875457836E+02  0.10500000000E+00 0. -1.
    3000001    1    5    5    0    0 -0.93612942725E+01  0.21391222069E+01 -0.17630959442E+02  0.20101253819E+02  0.10000000000E+01 0. -1.
        -13    1    6    6    0    0 -0.16097744934E+02  0.61862428833E+01 -0.15812478137E+02  0.23397702511E+02  0.10500000000E+00 0. -1.
         13    1    6    6    0    0 -0.13068219102E+02  0.49129226442E+01 -0.12888499084E+02  0.19001041894E+02  0.10500000000E+00 0.  1.
</event>
<event>
11    0  0.3467594E-009  0.9118800E+02  0.7816531E-02  0.1126479E+00
         25   -1    0    0    0    0  0.00000000000E+00  0.00000000000E+00  0.99999998245E-14  0.12500000000E+03  0.12500000000E+03 0.  0.
    3000001    1    3    3    0    0  0.31787543242E+02 -0.56318308406E+01  0.71482460807E+01  0.33079643982E+02  0.10000000000E+01 0.  1.
    1000022    2    1    0    0    0  0.58105988680E+02 -0.18633346557E+02  0.90962821757E+01  0.62499999668E+02  0.10000004235E+02 0.  0.
    3000022    2    3    3    0    0  0.26318445438E+02 -0.13001515717E+02  0.19480360950E+01  0.29420355686E+02  0.25000568237E+00 0.  0.
    1000022    2    1    0    0    0 -0.58105988680E+02  0.18633346557E+02 -0.90962821757E+01  0.62500000332E+02  0.10000008388E+02 0.  0.
    3000022    2    5    5    0    0 -0.45436636344E+02  0.13513761053E+02 -0.11009105914E+02  0.48665928661E+02  0.25007878968E+00 0.  0.
        -13    1    4    4    0    0  0.90534723366E+01 -0.45345132507E+01  0.66968054561E+00  0.10148234763E+02  0.10500000000E+00 0.  1.
         13    1    4    4    0    0  0.17264973101E+02 -0.84670024659E+01  0.12783555494E+01  0.19272120923E+02  0.10500000000E+00 0. -1.
    3000001    1    5    5    0    0 -0.12669352336E+02  0.51195855041E+01  0.19128237386E+01  0.13834071671E+02  0.10000000000E+01 0.  1.
        -13    1    6    6    0    0 -0.10882093769E+02  0.32307525538E+01 -0.26551438083E+01  0.11658410720E+02  0.10500000000E+00 0. -1.
         13    1    6    6    0    0 -0.34554542575E+02  0.10283008499E+02 -0.83539621060E+01  0.37007517942E+02  0.10500000000E+00 0.  1.
</event>
<event>
11    0  0.3467594E-009  0.9118800E+02  0.7816531E-02  0.1126479E+00
         25   -1    0    0    0    0  0.00000000000E+00  0.00000000000E+00  0.99999998245E-14  0.12500000000E+03  0.12500000000E+03 0.  0.
    3000001    1    3    3    0    0  0.22400169304E+01  0.18031679767E+02  0.15268286056E+02  0.23754572405E+02  0.10000000000E+01 0.  1.
    1000022    2    1    0    0    0  0.31508418138E+01  0.38234143517E+02  0.48316379946E+02  0.62499999663E+02  0.99999926099E+01 0.  0.
    3000022    2    3    3    0    0  0.91082488334E+00  0.20202463751E+02  0.33048093890E+02  0.38745427259E+02  0.24996021797E+00 0.  0.
    1000022    2    1    0    0    0 -0.31508418138E+01 -0.38234143517E+02 -0.48316379946E+02  0.62500000337E+02  0.99999968163E+01 0.  0.
    3000022    2    5    5    0    0 -0.21254182029E+00 -0.29112809666E+02 -0.41513835430E+02  0.50705639397E+02  0.24994775503E+00 0.  0.
        -13    1    4    4    0    0  0.43095661335E+00  0.11033387693E+02  0.18057598707E+02  0.21166229320E+02  0.10500000000E+00 0.  1.
         13    1    4    4    0    0  0.47986826999E+00  0.91690760577E+01  0.14990495184E+02  0.17579197938E+02  0.10500000000E+00 0. -1.
    3000001    1    5    5    0    0 -0.29382999935E+01 -0.91213338512E+01 -0.68025445166E+01  0.11794360940E+02  0.10000000000E+01 0. -1.
        -13    1    6    6    0    0 -0.18795797380E+00 -0.19479526161E+02 -0.27730526361E+02  0.33889237007E+02  0.10500000000E+00 0. -1.
         13    1    6    6    0    0 -0.24583846490E-01 -0.96332835050E+01 -0.13783309068E+02  0.16816402390E+02  0.10500000000E+00 0.  1.
</event>
<event>
11    0  0.3467594E-009  0.9118800E+02  0.7816531E-02  0.1126479E+00
         25   -1    0    0    0    0  0.00000000000E+00  0.00000000000E+00  0.99999998245E-14  0.12500000000E+03  0.12500000000E+03 0.  0.
    3000001    1    3    3    0    0  0.11879455791E+02 -0.24630972109E+02 -0.28491725938E+02  0.39504236531E+02  0.10000000000E+01 0. -1.
    1000022    2    1    0    0    0  0.14670744566E+02 -0.43766238387E+02 -0.40933309099E+02  0.62500001453E+02  0.10000000954E+02 0.  0.
    3000022    2    3    3    0    0  0.27912887754E+01 -0.19135266278E+02 -0.12441583161E+02  0.22995764922E+02  0.25000847943E+00 0.  0.
    1000022    2    1    0    0    0 -0.14670744566E+02  0.43766238387E+02  0.40933309099E+02  0.62499998547E+02  0.99999827916E+01 0.  0.
    3000022    2    5    5    0    0 -0.44625610734E+01  0.55292979445E+01  0.31557111910E+01  0.77787272863E+01  0.24999596053E+00 0.  0.
        -13    1    4    4    0    0  0.81108871137E+00 -0.57373340013E+01 -0.37734926129E+01  0.69155721267E+01  0.10500000000E+00 0. -1.
         13    1    4    4    0    0  0.19802000641E+01 -0.13397932277E+02 -0.86680905484E+01  0.16080192796E+02  0.10500000000E+00 0.  1.
    3000001    1    5    5    0    0 -0.10208183493E+02  0.38236940443E+02  0.37777597908E+02  0.54721271261E+02  0.10000000000E+01 0.  1.
        -13    1    6    6    0    0 -0.18236918552E+01  0.21868973512E+01  0.13125357431E+01  0.31372196424E+01  0.10500000000E+00 0.  1.
         13    1    6    6    0    0 -0.26388692182E+01  0.33424005933E+01  0.18431754479E+01  0.46415076439E+01  0.10500000000E+00 0. -1.
</event>
<event>
11    0  0.3467594E-009  0.9118800E+02  0.7816531E-02  0.1126479E+00
         25   -1    0    0    0    0  0.00000000000E+00  0.00000000000E+00  0.99999998245E-14  0.12500000000E+03  0.12500000000E+03 0.  0.
    3000001    1    3    3    0    0  0.16084618499E+02  0.28688314963E+02 -0.13100519098E+02  0.35416916414E+02  0.10000000000E+01 0. -1.
    1000022    2    1    0    0    0  0.20424311697E+02  0.51956233885E+02 -0.26261137071E+02  0.62499998790E+02  0.99999890290E+01 0.  0.
    3000022    2    3    3    0    0  0.43396931988E+01  0.23267918922E+02 -0.13160617973E+02  0.27083082375E+02  0.24999495705E+00 0.  0.
    1000022    2    1    0    0    0 -0.20424311697E+02 -0.51956233885E+02  0.26261137071E+02  0.62500001210E+02  0.10000004158E+02 0.  0.
    3000022    2    5    5    0    0 -0.83548041870E+01 -0.15127764373E+02  0.12623961489E+02  0.21402778238E+02  0.25000943791E+00 0.  0.
        -13    1    4    4    0    0  0.24588276344E+01  0.13132407982E+02 -0.73541132317E+01  0.15251228776E+02  0.10500000000E+00 0.  1.
         13    1    4    4    0    0  0.18808655644E+01  0.10135510940E+02 -0.58065047418E+01  0.11831853600E+02  0.10500000000E+00 0. -1.
    3000001    1    5    5    0    0 -0.12069507510E+02 -0.36828469512E+02  0.13637175583E+02  0.41097222972E+02  0.10000000000E+01 0.  1.
        -13    1    6    6    0    0 -0.38155948813E+01 -0.70421026805E+01  0.58742329108E+01  0.99331571895E+01  0.10500000000E+00 0. -1.
         13    1    6    6    0    0 -0.45392093057E+01 -0.80856616927E+01  0.67497285777E+01  0.11469621049E+02  0.10500000000E+00 0.  1.
</event>
<event>
11    0  0.3467594E-009  0.9118800E+02  0.7816531E-02  0.1126479E+00
         25   -1    0    0    0    0  0.00000000000E+00  0.00000000000E+00  0.99999998245E-14  0.12500000000E+03  0.12500000000E+03 0.  0.
    3000001    1    3    3    0    0  0.30421017192E+02 -0.23103602688E+02 -0.91776841613E+01  0.39299422779E+02  0.10000000000E+01 0.  1.
    1000022    2    1    0    0    0  0.44635448108E+02 -0.41423928453E+02 -0.98987275813E+01  0.62499999995E+02  0.10000005769E+02 0.  0.
    3000022    2    3    3    0    0  0.14214430916E+02 -0.18320325765E+02 -0.72104341996E+00  0.23200577216E+02  0.24999433540E+00 0.  0.
    1000022    2    1    0    0    0 -0.44635448108E+02  0.41423928453E+02  0.98987275813E+01  0.62500000005E+02  0.10000005826E+02 0.  0.
    3000022    2    5    5    0    0 -0.19631301692E+02  0.11700911713E+02  0.38765238001E+01  0.23181658222E+02  0.25000022165E+00 0.  0.
        -13    1    4    4    0    0  0.45391723724E+01 -0.58168441275E+01 -0.18346393206E+00  0.73813579675E+01  0.10500000000E+00 0. -1.
         13    1    4    4    0    0  0.96752585435E+01 -0.12503481637E+02 -0.53757948790E+00  0.15819219249E+02  0.10500000000E+00 0.  1.
    3000001    1    5    5    0    0 -0.25004146416E+02  0.29723016740E+02  0.60222037812E+01  0.39318341783E+02  0.10000000000E+01 0.  1.
        -13    1    6    6    0    0 -0.14688013917E+02  0.87384454907E+01  0.29231002456E+01  0.17339369148E+02  0.10500000000E+00 0.  1.
         13    1    6    6    0    0 -0.49432877754E+01  0.29624662222E+01  0.95342355450E+00  0.58422890739E+01  0.10500000000E+00 0. -1.
</event>
<event>
11    0  0.3467594E-009  0.9118800E+02  0.7816531E-02  0.1126479E+00
         25   -1    0    0    0    0  0.00000000000E+00  0.00000000000E+00  0.99999998245E-14  0.12500000000E+03  0.12500000000E+03 0.  0.
    3000001    1    3    3    0    0 -0.17171459899E+01 -0.15932620868E+00 -0.48128682979E+01  0.52093834995E+01  0.10000000000E+01 0.  1.
    1000022    2    1    0    0    0  0.89983647616E+01 -0.11174478417E+02 -0.60003418076E+02  0.62500002574E+02  0.10000030236E+02 0.  0.
    3000022    2    3    3    0    0  0.10715510752E+02 -0.11015152209E+02 -0.55190549778E+02  0.57290619075E+02  0.25000068050E+00 0.  0.
    1000022    2    1    0    0    0 -0.89983647616E+01  0.11174478417E+02  0.60003418076E+02  0.62499997426E+02  0.99999980600E+01 0.  0.
    3000022    2    5    5    0    0  0.20844936004E+00  0.14577580048E-01  0.19083947518E+02  0.19086728905E+02  0.25000755193E+00 0.  0.
        -13    1    4    4    0    0  0.36791669781E+01 -0.37239204671E+01 -0.18664355377E+02  0.19384866260E+02  0.10500000000E+00 0.  1.
         13    1    4    4    0    0  0.70363437735E+01 -0.72912317414E+01 -0.36526194401E+02  0.37905752815E+02  0.10500000000E+00 0. -1.
    3000001    1    5    5    0    0 -0.92068141216E+01  0.11159900837E+02  0.40919470558E+02  0.43413268521E+02  0.10000000000E+01 0.  1.
        -13    1    6    6    0    0  0.16271786391E+00  0.49792062971E-02  0.87598880311E+01  0.87620297427E+01  0.10500000000E+00 0.  1.
         13    1    6    6    0    0  0.45731496133E-01  0.95983737506E-02  0.10324059487E+02  0.10324699162E+02  0.10500000000E+00 0. -1.
</event>
<event>
11    0  0.3467594E-009  0.9118800E+02  0.7816531E-02  0.1126479E+00
         25   -1    0    0    0    0  0.00000000000E+00  0.00000000000E+00  0.99999998245E-14  0.12500000000E+03  0.12500000000E+03 0.  0.
    3000001    1    3    3    0    0 -0.87144620743E+01  0.15950702172E+00 -0.12891554912E+01  0.88673115212E+01  0.10000000000E+01 0. -1.
    1000022    2    1    0    0    0 -0.59966378775E+02 -0.18642797163E+01  0.14380817790E+02  0.62499999677E+02  0.99999958518E+01 0.  0.
    3000022    2    3    3    0    0 -0.51251916701E+02 -0.20237867380E+01  0.15669973281E+02  0.53632688156E+02  0.24999578714E+00 0.  0.
    1000022    2    1    0    0    0  0.59966378775E+02  0.18642797163E+01 -0.14380817790E+02  0.62500000323E+02  0.99999998893E+01 0.  0.
    3000022    2    5    5    0    0  0.46173208440E+02  0.53533280093E+01 -0.96600883341E+01  0.47476342563E+02  0.24999627260E+00 0.  0.
        -13    1    4    4    0    0 -0.28324516210E+02 -0.10531432156E+01  0.86728017027E+01  0.29641454815E+02  0.10500000000E+00 0. -1.
         13    1    4    4    0    0 -0.22927400491E+02 -0.97064352235E+00  0.69971715784E+01  0.23991233341E+02  0.10500000000E+00 0.  1.
    3000001    1    5    5    0    0  0.13793170335E+02 -0.34890482930E+01 -0.47207294557E+01  0.15023657760E+02  0.10000000000E+01 0.  1.
        -13    1    6    6    0    0  0.32545900608E+02  0.38063906053E+01 -0.67791721452E+01  0.33461805926E+02  0.10500000000E+00 0. -1.
         13    1    6    6    0    0  0.13627307832E+02  0.15469374039E+01 -0.28809161888E+01  0.14014536638E+02  0.10500000000E+00 0.  1.
</event>
<event>
11    0  0.3467594E-009  0.9118800E+02  0.7816531E-02  0.1126479E+00
         25   -1    0    0    0    0  0.00000000000E+00  0.00000000000E+00  0.99999998245E-14  0.12500000000E+03  0.12500000000E+03 0.  0.
    3000001    1    3    3    0    0  0.12073241653E+02 -0.22168991716E+02 -0.38868541423E-01  0.25263191969E+02  0.10000000000E+01 0. -1.
    1000022    2    1    0    0    0  0.25953795695E+02 -0.54792317442E+02 -0.11421585263E+02  0.62500000417E+02  0.99999940272E+01 0.  0.
    3000022    2    3    3    0    0  0.13880554042E+02 -0.32623325726E+02 -0.11382716722E+02  0.37236808448E+02  0.25000290596E+00 0.  0.
    1000022    2    1    0    0    0 -0.25953795695E+02  0.54792317442E+02  0.11421585263E+02  0.62499999583E+02  0.99999888167E+01 0.  0.
    3000022    2    5    5    0    0 -0.53274052107E+01  0.22085404955E+02  0.30526667877E+01  0.22924389603E+02  0.25001170659E+00 0.  0.
        -13    1    4    4    0    0  0.38260110285E+01 -0.89563699663E+01 -0.30901943088E+01  0.10218378014E+02  0.10500000000E+00 0.  1.
         13    1    4    4    0    0  0.10054543014E+02 -0.23666955760E+02 -0.82925224132E+01  0.27018430434E+02  0.10500000000E+00 0. -1.
    3000001    1    5    5    0    0 -0.20626390485E+02  0.32706912487E+02  0.83689184757E+01  0.39575609980E+02  0.10000000000E+01 0. -1.
        -13    1    6    6    0    0 -0.19900521655E+01  0.84497230914E+01  0.11268680395E+01  0.87543694531E+01  0.10500000000E+00 0. -1.
         13    1    6    6    0    0 -0.33373530452E+01  0.13635681864E+02  0.19257987482E+01  0.14170020150E+02  0.10500000000E+00 0.  1.
</event>
<event>
11    0  0.3467594E-009  0.9118800E+02  0.7816531E-02  0.1126479E+00
         25   -1    0    0    0    0  0.00000000000E+00  0.00000000000E+00  0.99999998245E-14  0.12500000000E+03  0.12500000000E+03 0.  0.
    3000001    1    3    3    0    0 -0.91343371058E+01 -0.25304892681E+02  0.15956835300E+02  0.31295276013E+02  0.10000000000E+01 0. -1.
    1000022    2    1    0    0    0 -0.87305015580E+01 -0.50375120964E+02  0.34530805544E+02  0.62499992077E+02  0.99999004254E+01 0.  0.
    3000022    2    3    3    0    0  0.40383554776E+00 -0.25070228283E+02  0.18573970244E+02  0.31204716064E+02  0.25000935879E+00 0.  0.
    1000022    2    1    0    0    0  0.87305015580E+01  0.50375120964E+02 -0.34530805544E+02  0.62500007923E+02  0.99999994639E+01 0.  0.
    3000022    2    5    5    0    0  0.15329941881E+01  0.15135876359E+01 -0.36418159295E+01  0.42386722800E+01  0.25000144051E+00 0.  0.
        -13    1    4    4    0    0  0.24444884261E+00 -0.11063857108E+02  0.81966688012E+01  0.13771895069E+02  0.10500000000E+00 0.  1.
         13    1    4    4    0    0  0.15938670514E+00 -0.14006371175E+02  0.10377301443E+02  0.17432820995E+02  0.10500000000E+00 0. -1.
    3000001    1    5    5    0    0  0.71975073699E+01  0.48861533328E+02 -0.30888989614E+02  0.58261335643E+02  0.10000000000E+01 0. -1.
        -13    1    6    6    0    0  0.93581834955E+00  0.83425618128E+00 -0.21338912709E+01  0.24771468094E+01  0.10500000000E+00 0.  1.
         13    1    6    6    0    0  0.59717583855E+00  0.67933145459E+00 -0.15079246587E+01  0.17615254706E+01  0.10500000000E+00 0.  1.
</event>
<event>
11    0  0.3467594E-009  0.9118800E+02  0.7816531E-02  0.1126479E+00
         25   -1    0    0    0    0  0.00000000000E+00  0.00000000000E+00  0.99999998245E-14  0.12500000000E+03  0.12500000000E+03 0.  0.
    3000001    1    3    3    0    0  0.21178645353E+02 -0.26052642942E+02 -0.86337947299E+01  0.34681661360E+02  0.10000000000E+01 0.  1.
    1000022    2    1    0    0    0  0.44239253174E+02 -0.40884619067E+02 -0.13326161857E+02  0.62499999918E+02  0.99999901163E+01 0.  0.
    3000022    2    3    3    0    0  0.23060607821E+02 -0.14831976125E+02 -0.46923671266E+01  0.27818338558E+02  0.25000411852E+00 0.  0.
    1000022    2    1    0    0    0 -0.44239253174E+02  0.40884619067E+02  0.13326161857E+02  0.62500000082E+02  0.99999911394E+01 0.  0.
    3000022    2    5    5    0    0 -0.49637871167E+01  0.53926768571E+01  0.50674286531E+01  0.89141169600E+01  0.25000359434E+00 0.  0.
        -13    1    4    4    0    0  0.14421623639E+02 -0.92039074564E+01 -0.29296995322E+01  0.17357687208E+02  0.10500000000E+00 0. -1.
         13    1    4    4    0    0  0.86389841815E+01 -0.56280686689E+01 -0.17626675944E+01  0.10460651351E+02  0.10500000000E+00 0.  1.
    3000001    1    5    5    0    0 -0.39275466057E+02  0.35491942210E+02  0.82587332034E+01  0.53585883122E+02  0.10000000000E+01 0.  1.
        -13    1    6    6    0    0 -0.26581942293E+01  0.29864469095E+01  0.27682687895E+01  0.48640722440E+01  0.10500000000E+00 0. -1.
         13    1    6    6    0    0 -0.23055928874E+01  0.24062299476E+01  0.22991598636E+01  0.40500447160E+01  0.10500000000E+00 0.  1.
</event>
<event>
11    0  0.3467594E-009  0.9118800E+02  0.7816531E-02  0.1126479E+00
         25   -1    0    0    0    0  0.00000000000E+00  0.00000000000E+00  0.99999998245E-14  0.12500000000E+03  0.12500000000E+03 0.  0.
    3000001    1    3    3    0    0  0.40870021680E+01  0.34087259966E+00 -0.32076703900E+01  0.53017855654E+01  0.10000000000E+01 0.  1.
    1000022    2    1    0    0    0  0.27356673666E+02  0.23053774115E+02 -0.50263166252E+02  0.62499999726E+02  0.99999994556E+01 0.  0.
    3000022    2    3    3    0    0  0.23269671498E+02  0.22712901515E+02 -0.47055495862E+02  0.57198214161E+02  0.25001104164E+00 0.  0.
    1000022    2    1    0    0    0 -0.27356673666E+02 -0.23053774115E+02  0.50263166252E+02  0.62500000274E+02  0.10000002879E+02 0.  0.
    3000022    2    5    5    0    0 -0.17326859214E+02 -0.19694053672E+02  0.39141617404E+02  0.47119046202E+02  0.25000343015E+00 0.  0.
        -13    1    4    4    0    0  0.15560977310E+02  0.15114529637E+02 -0.31403121876E+02  0.38167526898E+02  0.10500000000E+00 0.  1.
         13    1    4    4    0    0  0.77086941878E+01  0.75983718780E+01 -0.15652373986E+02  0.19030687262E+02  0.10500000000E+00 0. -1.
    3000001    1    5    5    0    0 -0.10029814452E+02 -0.33597204427E+01  0.11121548848E+02  0.15380954072E+02  0.10000000000E+01 0. -1.
        -13    1    6    6    0    0 -0.82885804589E+01 -0.94632842781E+01  0.18882125459E+02  0.22689204530E+02  0.10500000000E+00 0.  1.
         13    1    6    6    0    0 -0.90382787554E+01 -0.10230769394E+02  0.20259491945E+02  0.24429841672E+02  0.10500000000E+00 0. -1.
</event>
<event>
11    0  0.3467594E-009  0.9118800E+02  0.7816531E-02  0.1126479E+00
         25   -1    0    0    0    0  0.00000000000E+00  0.00000000000E+00  0.99999998245E-14  0.12500000000E+03  0.12500000000E+03 0.  0.
    3000001    1    3    3    0    0 -0.29290045125E+02 -0.24570694867E+02 -0.16037626798E+01  0.38277902822E+02  0.10000000000E+01 0.  1.
    1000022    2    1    0    0    0 -0.42529465422E+02 -0.44168996290E+02 -0.68260030615E+01  0.62499999345E+02  0.99999968989E+01 0.  0.
    3000022    2    3    3    0    0 -0.13239420297E+02 -0.19598301423E+02 -0.52222403816E+01  0.24222096523E+02  0.24999384451E+00 0.  0.
    1000022    2    1    0    0    0  0.42529465422E+02  0.44168996290E+02  0.68260030615E+01  0.62500000655E+02  0.10000005090E+02 0.  0.
    3000022    2    5    5    0    0  0.37351787595E+02  0.42254563002E+02  0.73094100115E+01  0.56869096219E+02  0.24999804505E+00 0.  0.
        -13    1    4    4    0    0 -0.51171134755E+01 -0.76789547529E+01 -0.20158203074E+01  0.94459384356E+01  0.10500000000E+00 0.  1.
         13    1    4    4    0    0 -0.81223068211E+01 -0.11919346670E+02 -0.32064200742E+01  0.14776158088E+02  0.10500000000E+00 0. -1.
    3000001    1    5    5    0    0  0.51776778269E+01  0.19144332882E+01 -0.48340695003E+00  0.56309044365E+01  0.10000000000E+01 0. -1.
        -13    1    6    6    0    0  0.95745254902E+01  0.10843107704E+02  0.18457403007E+01  0.14582945701E+02  0.10500000000E+00 0. -1.
         13    1    6    6    0    0  0.27777262105E+02  0.31411455297E+02  0.54636697108E+01  0.42286150518E+02  0.10500000000E+00 0.  1.
</event>
<event>
11    0  0.3467594E-009  0.9118800E+02  0.7816531E-02  0.1126479E+00
         25   -1    0    0    0    0  0.00000000000E+00  0.00000000000E+00  0.99999998245E-14  0.12500000000E+03  0.12500000000E+03 0.  0.
    3000001    1    3    3    0    0  0.18296718231E+02  0.19849045827E+02  0.39238550495E+02  0.47638412686E+02  0.10000000000E+01 0.  1.
    1000022    2    1    0    0    0  0.19206974979E+02  0.28784421749E+02  0.51076404903E+02  0.62500000934E+02  0.10000007783E+02 0.  0.
    3000022    2    3    3    0    0  0.91025674860E+00  0.89353759216E+01  0.11837854408E+02  0.14861588248E+02  0.24999613816E+00 0.  0.
    1000022    2    1    0    0    0 -0.19206974979E+02 -0.28784421749E+02 -0.51076404903E+02  0.62499999066E+02  0.99999961084E+01 0.  0.
    3000022    2    5    5    0    0 -0.42067258471E+01 -0.24629105031E+01 -0.32068454511E+01  0.58402765958E+01  0.25000493759E+00 0.  0.
        -13    1    4    4    0    0  0.26231670261E+00  0.25558402476E+01  0.33193325229E+01  0.41988239807E+01  0.10500000000E+00 0. -1.
         13    1    4    4    0    0  0.64794004599E+00  0.63795356740E+01  0.85185218848E+01  0.10662764267E+02  0.10500000000E+00 0.  1.
    3000001    1    5    5    0    0 -0.15000249132E+02 -0.26321511246E+02 -0.47869559452E+02  0.56659722470E+02  0.10000000000E+01 0.  1.
        -13    1    6    6    0    0 -0.18175063586E+01 -0.10609874421E+01 -0.13065653367E+01  0.24793470300E+01  0.10500000000E+00 0. -1.
         13    1    6    6    0    0 -0.23892194886E+01 -0.14019230610E+01 -0.19002801144E+01  0.33609295658E+01  0.10500000000E+00 0.  1.
</event>
<event>
11    0  0.3467594E-009  0.9118800E+02  0.7816531E-02  0.1126479E+00
         25   -1    0    0    0    0  0.00000000000E+00  0.00000000000E+00  0.99999998245E-14  0.12500000000E+03  0.12500000000E+03 0.  0.
    3000001    1    3    3    0    0  0.42865146575E+01  0.93084279790E+01 -0.74653992852E+01  0.12718224162E+02  0.10000000000E+01 0. -1.
    1000022    2    1    0    0    0  0.83182998977E+01  0.37296248828E+02 -0.48435993074E+02  0.62500002545E+02  0.10000030161E+02 0.  0.
    3000022    2    3    3    0    0  0.40317852402E+01  0.27987820849E+02 -0.40970593789E+02  0.49781778383E+02  0.24999089508E+00 0.  0.
    1000022    2    1    0    0    0 -0.83182998977E+01 -0.37296248828E+02  0.48435993074E+02  0.62499997455E+02  0.99999983504E+01 0.  0.
    3000022    2    5    5    0    0 -0.65271259852E+01 -0.20182348992E+02  0.19470355074E+02  0.28793884415E+02  0.24993697291E+00 0.  0.
        -13    1    4    4    0    0  0.19496417899E+01  0.13410461877E+02 -0.19749870271E+02  0.23952243978E+02  0.10500000000E+00 0.  1.
         13    1    4    4    0    0  0.20821434503E+01  0.14577358971E+02 -0.21220723518E+02  0.25829534405E+02  0.10500000000E+00 0. -1.
    3000001    1    5    5    0    0 -0.17911739125E+01 -0.17113899836E+02  0.28965638000E+02  0.33706113041E+02  0.10000000000E+01 0. -1.
        -13    1    6    6    0    0 -0.46454855657E+01 -0.14445004089E+02  0.13882900168E+02  0.20566589930E+02  0.10500000000E+00 0.  1.
         13    1    6    6    0    0 -0.18816404195E+01 -0.57373449032E+01  0.55874549058E+01  0.82272944843E+01  0.10500000000E+00 0. -1.
</event>
<event>
11    0  0.3467594E-009  0.9118800E+02  0.7816531E-02  0.1126479E+00
         25   -1    0    0    0    0  0.00000000000E+00  0.00000000000E+00  0.99999998245E-14  0.12500000000E+03  0.12500000000E+03 0.  0.
    3000001    1    3    3    0    0  0.41239071097E+01 -0.92809929704E+01 -0.39145986111E+02  0.40454315826E+02  0.10000000000E+01 0. -1.
    1000022    2    1    0    0    0  0.11022564565E+02 -0.19193194904E+02 -0.57587965979E+02  0.62500003447E+02  0.10000047251E+02 0.  0.
    3000022    2    3    3    0    0  0.68986574555E+01 -0.99122019338E+01 -0.18441979868E+02  0.22045687621E+02  0.24999869948E+00 0.  0.
    1000022    2    1    0    0    0 -0.11022564565E+02  0.19193194904E+02  0.57587965979E+02  0.62499996553E+02  0.10000004164E+02 0.  0.
    3000022    2    5    5    0    0 -0.87093669913E+01  0.58130911664E+01  0.21152926461E+02  0.23604107776E+02  0.25000748768E+00 0.  0.
        -13    1    4    4    0    0  0.20401796623E+01 -0.29732327201E+01 -0.55785324089E+01  0.66433045015E+01  0.10500000000E+00 0.  1.
         13    1    4    4    0    0  0.48584777932E+01 -0.69389692136E+01 -0.12863447459E+02  0.15402383119E+02  0.10500000000E+00 0. -1.
    3000001    1    5    5    0    0 -0.23131975739E+01  0.13380103738E+02  0.36435039518E+02  0.38895888777E+02  0.10000000000E+01 0. -1.
        -13    1    6    6    0    0 -0.54153318825E+01  0.36847874211E+01  0.13198223225E+02  0.14734571559E+02  0.10500000000E+00 0. -1.
         13    1    6    6    0    0 -0.32940351089E+01  0.21283037453E+01  0.79547032365E+01  0.88695362174E+01  0.10500000000E+00 0.  1.
</event>
<event>
11    0  0.3467594E-009  0.9118800E+02  0.7816531E-02  0.1126479E+00
         25   -1    0    0    0    0  0.00000000000E+00  0.00000000000E+00  0.99999998245E-14  0.12500000000E+03  0.12500000000E+03 0.  0.
    3000001    1    3    3    0    0 -0.19106138199E+02 -0.70039344066E+01 -0.49750986627E+01  0.20972630278E+02  0.10000000000E+01 0.  1.
    1000022    2    1    0    0    0 -0.57278486272E+02 -0.86013242199E+01 -0.21247166516E+02  0.62500000825E+02  0.10000012510E+02 0.  0.
    3000022    2    3    3    0    0 -0.38172348073E+02 -0.15973898133E+01 -0.16272067853E+02  0.41527370547E+02  0.25000147539E+00 0.  0.
    1000022    2    1    0    0    0  0.57278486272E+02  0.86013242199E+01  0.21247166516E+02  0.62499999175E+02  0.10000002201E+02 0.  0.
    3000022    2    5    5    0    0  0.26914543751E+02  0.90354054596E+01  0.10540963578E+02  0.30285402898E+02  0.24999684245E+00 0.  0.
        -13    1    4    4    0    0 -0.19192653041E+02 -0.85943507194E+00 -0.82236306576E+01  0.20898222068E+02  0.10500000000E+00 0. -1.
         13    1    4    4    0    0 -0.18979695031E+02 -0.73795474135E+00 -0.80484371955E+01  0.20629148479E+02  0.10500000000E+00 0.  1.
    3000001    1    5    5    0    0  0.30363942521E+02 -0.43408123974E+00  0.10706202938E+02  0.32214596277E+02  0.10000000000E+01 0.  1.
        -13    1    6    6    0    0  0.98855482591E+01  0.32786850880E+01  0.38186486150E+01  0.11093554098E+02  0.10500000000E+00 0. -1.
         13    1    6    6    0    0  0.17028995492E+02  0.57567203717E+01  0.67223149627E+01  0.19191848800E+02  0.10500000000E+00 0.  1.
</event>
<event>
11    0  0.3467594E-009  0.9118800E+02  0.7816531E-02  0.1126479E+00
         25   -1    0    0    0    0  0.00000000000E+00  0.00000000000E+00  0.99999998245E-14  0.12500000000E+03  0.12500000000E+03 0.  0.
    3000001    1    3    3    0    0 -0.41275133266E+02 -0.32114428652E+02  0.26837925283E+02  0.58789857861E+02  0.10000000000E+01 0. -1.
    1000022    2    1    0    0    0 -0.44840155411E+02 -0.31961063322E+02  0.27822673395E+02  0.62499997317E+02  0.99999701891E+01 0.  0.
    3000022    2    3    3    0    0 -0.35650221447E+01  0.15336533016E+00  0.98474811199E+00  0.37101394558E+01  0.25000424132E+00 0.  0.
    1000022    2    1    0    0    0  0.44840155411E+02  0.31961063322E+02 -0.27822673395E+02  0.62500002683E+02  0.10000003731E+02 0.  0.
    3000022    2    5    5    0    0  0.44728244547E+02  0.30598841750E+02 -0.26370800975E+02  0.60269284150E+02  0.24998236220E+00 0.  0.
        -13    1    4    4    0    0 -0.86465908219E+00  0.45228446273E-01  0.26134062025E+00  0.91049704039E+00  0.10500000000E+00 0. -1.
         13    1    4    4    0    0 -0.27003630625E+01  0.10813688389E+00  0.72340749174E+00  0.27996424154E+01  0.10500000000E+00 0. -1.
    3000001    1    5    5    0    0  0.11191086419E+00  0.13622215721E+01 -0.14518724197E+01  0.22307185336E+01  0.10000000000E+01 0. -1.
        -13    1    6    6    0    0  0.11041616533E+02  0.75273376566E+01 -0.64909500959E+01  0.14856701047E+02  0.10500000000E+00 0. -1.
         13    1    6    6    0    0  0.33686628014E+02  0.23071504093E+02 -0.19879850879E+02  0.45412583102E+02  0.10500000000E+00 0.  1.
</event>
<event>
11    0  0.3467594E-009  0.9118800E+02  0.7816531E-02  0.1126479E+00
         25   -1    0    0    0    0  0.00000000000E+00  0.00000000000E+00  0.99999998245E-14  0.12500000000E+03  0.12500000000E+03 0.  0.
    3000001    1    3    3    0    0  0.22604460049E+00 -0.38071457485E+02  0.44952679930E+02  0.58917148641E+02  0.10000000000E+01 0.  1.
    1000022    2    1    0    0    0  0.10704945414E+01 -0.38214528152E+02  0.48422658878E+02  0.62499999805E+02  0.99999981146E+01 0.  0.
    3000022    2    3    3    0    0  0.84444994094E+00 -0.14307066704E+00  0.34699789487E+01  0.35828511632E+01  0.25000726867E+00 0.  0.
    1000022    2    1    0    0    0 -0.10704945414E+01  0.38214528152E+02 -0.48422658878E+02  0.62500000195E+02  0.10000000558E+02 0.  0.
    3000022    2    5    5    0    0  0.18349245084E+01  0.28047139192E+02 -0.29150707947E+02  0.40494879183E+02  0.25000268657E+00 0.  0.
        -13    1    4    4    0    0  0.50270238098E+00 -0.14152674456E+00  0.21928136381E+01  0.22565894963E+01  0.10500000000E+00 0.  1.
         13    1    4    4    0    0  0.34174755995E+00 -0.15439224860E-02  0.12771653106E+01  0.13262616669E+01  0.10500000000E+00 0. -1.
    3000001    1    5    5    0    0 -0.29054190498E+01  0.10167388959E+02 -0.19271950931E+02  0.22005121013E+02  0.10000000000E+01 0.  1.
        -13    1    6    6    0    0  0.13190159927E+01  0.19483722086E+02 -0.20229136831E+02  0.28117329735E+02  0.10500000000E+00 0.  1.
         13    1    6    6    0    0  0.51590851570E+00  0.85634171067E+01 -0.89215711161E+01  0.12377549447E+02  0.10500000000E+00 0. -1.
</event>
<event>
11    0  0.3467594E-009  0.9118800E+02  0.7816531E-02  0.1126479E+00
         25   -1    0    0    0    0  0.00000000000E+00  0.00000000000E+00  0.99999998245E-14  0.12500000000E+03  0.12500000000E+03 0.  0.
    3000001    1    3    3    0    0 -0.11959039020E+02  0.15714526445E+01 -0.25762322001E+01  0.12374370693E+02  0.10000000000E+01 0. -1.
    1000022    2    1    0    0    0 -0.52203803712E+02  0.13947855353E+02 -0.29773659360E+02  0.62500002599E+02  0.99999871076E+01 0.  0.
    3000022    2    3    3    0    0 -0.40244764693E+02  0.12376402709E+02 -0.27197427160E+02  0.50125631906E+02  0.25000136739E+00 0.  0.
    1000022    2    1    0    0    0  0.52203803712E+02 -0.13947855353E+02  0.29773659360E+02  0.62499997401E+02  0.99999546225E+01 0.  0.
    3000022    2    5    5    0    0  0.16235900347E+02 -0.75407339717E+00  0.12276316390E+02  0.20370162773E+02  0.25000102579E+00 0.  0.
        -13    1    4    4    0    0 -0.15068525708E+02  0.45866772221E+01 -0.10221526214E+02  0.18777345342E+02  0.10500000000E+00 0. -1.
         13    1    4    4    0    0 -0.25176238984E+02  0.77897254868E+01 -0.16975900946E+02  0.31348286564E+02  0.10500000000E+00 0.  1.
    3000001    1    5    5    0    0  0.35967903365E+02 -0.13193781956E+02  0.17497342970E+02  0.42129834628E+02  0.10000000000E+01 0.  1.
        -13    1    6    6    0    0  0.72281725412E+01 -0.28834944760E+00  0.54054592029E+01  0.90310374755E+01  0.10500000000E+00 0.  1.
         13    1    6    6    0    0  0.90077278062E+01 -0.46572394957E+00  0.68708571871E+01  0.11339125298E+02  0.10500000000E+00 0. -1.
</event>
<event>
11    0  0.3467594E-009  0.9118800E+02  0.7816531E-02  0.1126479E+00
         25   -1    0    0    0    0  0.00000000000E+00  0.00000000000E+00  0.99999998245E-14  0.12500000000E+03  0.12500000000E+03 0.  0.
    3000001    1    3    3    0    0  0.29168793514E+01 -0.52023901971E+02 -0.12579148396E+02  0.53611841377E+02  0.10000000000E+01 0. -1.
    1000022    2    1    0    0    0  0.31918979296E+01 -0.60688030721E+02 -0.10631306289E+02  0.62500000036E+02  0.10000002293E+02 0.  0.
    3000022    2    3    3    0    0  0.27501857814E+00 -0.86641287503E+01  0.19478421071E+01  0.88881586591E+01  0.25002650732E+00 0.  0.
    1000022    2    1    0    0    0 -0.31918979296E+01  0.60688030721E+02  0.10631306289E+02  0.62499999964E+02  0.10000001847E+02 0.  0.
    3000022    2    5    5    0    0 -0.14872983185E+01  0.56293727795E+02  0.11811552171E+02  0.57539300580E+02  0.25000244216E+00 0.  0.
        -13    1    4    4    0    0  0.69305069909E-01 -0.24269710245E+01  0.58592152625E+00  0.24998641126E+01  0.10500000000E+00 0. -1.
         13    1    4    4    0    0  0.20571350823E+00 -0.62371577258E+01  0.13619205809E+01  0.63882945465E+01  0.10500000000E+00 0.  1.
    3000001    1    5    5    0    0 -0.17045996110E+01  0.43943029260E+01 -0.11802458817E+01  0.49606993843E+01  0.10000000000E+01 0.  1.
        -13    1    6    6    0    0 -0.11248248738E+01  0.41257227789E+02  0.86568531596E+01  0.42170798041E+02  0.10500000000E+00 0. -1.
         13    1    6    6    0    0 -0.36247344473E+00  0.15036500006E+02  0.31546990114E+01  0.15368502539E+02  0.10500000000E+00 0.  1.
</event>
<event>
11    0  0.3467594E-009  0.9118800E+02  0.7816531E-02  0.1126479E+00
         25   -1    0    0    0    0  0.00000000000E+00  0.00000000000E+00  0.99999998245E-14  0.12500000000E+03  0.12500000000E+03 0.  0.
    3000001    1    3    3    0    0  0.96572939020E+01  0.45144582561E+00  0.18041112852E+02  0.20492654338E+02  0.10000000000E+01 0. -1.
    1000022    2    1    0    0    0  0.16925375087E+02 -0.35168239501E+01  0.59223421530E+02  0.62500001511E+02  0.10000007927E+02 0.  0.
    3000022    2    3    3    0    0  0.72680811848E+01 -0.39682697757E+01  0.41182308678E+02  0.42007347173E+02  0.24999871920E+00 0.  0.
    1000022    2    1    0    0    0 -0.16925375087E+02  0.35168239501E+01 -0.59223421530E+02  0.62499998489E+02  0.99999890427E+01 0.  0.
    3000022    2    5    5    0    0 -0.34162073792E+01  0.53874105697E+00 -0.29811294770E+01  0.45727854948E+01  0.25003887493E+00 0.  0.
        -13    1    4    4    0    0  0.53851930624E+01 -0.29263098149E+01  0.30323501751E+02  0.30936861135E+02  0.10500000000E+00 0.  1.
         13    1    4    4    0    0  0.18828881224E+01 -0.10419599608E+01  0.10858806927E+02  0.11070486038E+02  0.10500000000E+00 0. -1.
    3000001    1    5    5    0    0 -0.13509167708E+02  0.29780828931E+01 -0.56242292053E+02  0.57927212994E+02  0.10000000000E+01 0. -1.
        -13    1    6    6    0    0 -0.21703053452E+01  0.35058122407E+00 -0.19697282330E+01  0.29536395850E+01  0.10500000000E+00 0. -1.
         13    1    6    6    0    0 -0.12459020339E+01  0.18815983290E+00 -0.10114012440E+01  0.16191459098E+01  0.10500000000E+00 0.  1.
</event>
<event>
11    0  0.3467594E-009  0.9118800E+02  0.7816531E-02  0.1126479E+00
         25   -1    0    0    0    0  0.00000000000E+00  0.00000000000E+00  0.99999998245E-14  0.12500000000E+03  0.12500000000E+03 0.  0.
    3000001    1    3    3    0    0  0.88490086363E+00  0.20207856122E+02  0.40196990289E+02  0.45010426869E+02  0.10000000000E+01 0.  1.
    1000022    2    1    0    0    0 -0.18089749370E+01  0.32319394219E+02  0.52520800957E+02  0.62499999001E+02  0.99999854447E+01 0.  0.
    3000022    2    3    3    0    0 -0.26938758007E+01  0.12111538097E+02  0.12323810668E+02  0.17489572132E+02  0.25000415187E+00 0.  0.
    1000022    2    1    0    0    0  0.18089749370E+01 -0.32319394219E+02 -0.52520800957E+02  0.62500000999E+02  0.99999979369E+01 0.  0.
    3000022    2    5    5    0    0 -0.28166928404E+01 -0.29061316120E+01 -0.72279476793E+01  0.82876465253E+01  0.24999554078E+00 0.  0.
        -13    1    4    4    0    0 -0.10897155975E+01  0.51987384378E+01  0.52657990568E+01  0.74802423848E+01  0.10500000000E+00 0.  1.
         13    1    4    4    0    0 -0.16041602032E+01  0.69127996591E+01  0.70580116108E+01  0.10009329747E+02  0.10500000000E+00 0. -1.
    3000001    1    5    5    0    0  0.46256677774E+01 -0.29413262607E+02 -0.45292853278E+02  0.54212354474E+02  0.10000000000E+01 0.  1.
        -13    1    6    6    0    0 -0.17097128124E+01 -0.18495194987E+01 -0.44705183165E+01  0.51322898686E+01  0.10500000000E+00 0. -1.
         13    1    6    6    0    0 -0.11069800280E+01 -0.10566121133E+01 -0.27574293628E+01  0.31553566568E+01  0.10500000000E+00 0.  1.
</event>
<event>
11    0  0.3467594E-009  0.9118800E+02  0.7816531E-02  0.1126479E+00
         25   -1    0    0    0    0  0.00000000000E+00  0.00000000000E+00  0.99999998245E-14  0.12500000000E+03  0.12500000000E+03 0.  0.
    3000001    1    3    3    0    0  0.49889015635E+02  0.30621240773E+02 -0.14558298862E+02  0.60328420609E+02  0.10000000000E+01 0.  1.
    1000022    2    1    0    0    0  0.51607157970E+02  0.29952437024E+02 -0.15678099754E+02  0.62500000575E+02  0.10000001128E+02 0.  0.
    3000022    2    3    3    0    0  0.17181423353E+01 -0.66880374904E+00 -0.11198008915E+01  0.21715799655E+01  0.24998794091E+00 0.  0.
    1000022    2    1    0    0    0 -0.51607157970E+02 -0.29952437024E+02  0.15678099754E+02  0.62499999425E+02  0.99999939423E+01 0.  0.
    3000022    2    5    5    0    0 -0.33007905165E+02 -0.13562688994E+02  0.96298112192E+01  0.36963009791E+02  0.24998511509E+00 0.  0.
        -13    1    4    4    0    0  0.65484539446E+00 -0.30539959054E+00 -0.48762077863E+00  0.87800365848E+00  0.10500000000E+00 0. -1.
         13    1    4    4    0    0  0.10632969409E+01 -0.36340415849E+00 -0.63218011288E+00  0.12935763070E+01  0.10500000000E+00 0. -1.
    3000001    1    5    5    0    0 -0.18599252805E+02 -0.16389748029E+02  0.60482885344E+01  0.25536989634E+02  0.10000000000E+01 0. -1.
        -13    1    6    6    0    0 -0.11466008206E+02 -0.47074227481E+01  0.34027345725E+01  0.12853746562E+02  0.10500000000E+00 0. -1.
         13    1    6    6    0    0 -0.21541896959E+02 -0.88552662463E+01  0.62270766467E+01  0.24109263229E+02  0.10500000000E+00 0.  1.
</event>
<event>
11    0  0.3467594E-009  0.9118800E+02  0.7816531E-02  0.1126479E+00
         25   -1    0    0    0    0  0.00000000000E+00  0.00000000000E+00  0.99999998245E-14  0.12500000000E+03  0.12500000000E+03 0.  0.
    3000001    1    3    3    0    0 -0.29820836633E+02  0.33265903695E+02  0.26760790764E+01  0.44766773899E+02  0.10000000000E+01 0. -1.
    1000022    2    1    0    0    0 -0.37601746233E+02  0.48910551260E+02 -0.34174343164E+00  0.62499999871E+02  0.99999925483E+01 0.  0.
    3000022    2    3    3    0    0 -0.77809095999E+01  0.15644647565E+02 -0.30178225081E+01  0.17733225971E+02  0.24999806073E+00 0.  0.
    1000022    2    1    0    0    0  0.37601746233E+02 -0.48910551260E+02  0.34174343164E+00  0.62500000129E+02  0.99999941646E+01 0.  0.
    3000022    2    5    5    0    0  0.26131476566E+02 -0.31602977317E+02  0.46495800254E+01  0.41270853700E+02  0.25005570988E+00 0.  0.
        -13    1    4    4    0    0 -0.24718680756E+01  0.48940038745E+01 -0.98346293919E+00  0.55713221106E+01  0.10500000000E+00 0. -1.
         13    1    4    4    0    0 -0.53090415243E+01  0.10750643690E+02 -0.20343595689E+01  0.12161903861E+02  0.10500000000E+00 0.  1.
    3000001    1    5    5    0    0  0.11470269667E+02 -0.17307573943E+02 -0.43078365938E+01  0.21229146430E+02  0.10000000000E+01 0.  1.
        -13    1    6    6    0    0  0.19247860787E+02 -0.23306212572E+02  0.33992768656E+01  0.30417524513E+02  0.10500000000E+00 0.  1.
         13    1    6    6    0    0  0.68836157797E+01 -0.82967647450E+01  0.12503031598E+01  0.10853329186E+02  0.10500000000E+00 0. -1.
</event>
<event>
11    0  0.3467594E-009  0.9118800E+02  0.7816531E-02  0.1126479E+00
         25   -1    0    0    0    0  0.00000000000E+00  0.00000000000E+00  0.99999998245E-14  0.12500000000E+03  0.12500000000E+03 0.  0.
    3000001    1    3    3    0    0 -0.41552910727E+02 -0.35621475415E+02 -0.48059881365E+01  0.54951173078E+02  0.10000000000E+01 0. -1.
    1000022    2    1    0    0    0 -0.46062318297E+02 -0.40992851350E+02 -0.20246460201E+01  0.62500000760E+02  0.99999937415E+01 0.  0.
    3000022    2    3    3    0    0 -0.45094075707E+01 -0.53713759343E+01  0.27813421163E+01  0.75488276828E+01  0.24999870112E+00 0.  0.
    1000022    2    1    0    0    0  0.46062318297E+02  0.40992851350E+02  0.20246460201E+01  0.62499999240E+02  0.99999842368E+01 0.  0.
    3000022    2    5    5    0    0  0.11553541903E+02  0.16420499520E+02  0.12392356532E+01  0.20117538338E+02  0.25001753341E+00 0.  0.
        -13    1    4    4    0    0 -0.20707280093E+01 -0.23921541864E+01  0.12047524593E+01  0.33871477128E+01  0.10500000000E+00 0. -1.
         13    1    4    4    0    0 -0.24386795614E+01 -0.29792217479E+01  0.15765896571E+01  0.41616799701E+01  0.10500000000E+00 0.  1.
    3000001    1    5    5    0    0  0.34508776394E+02  0.24572351830E+02  0.78541036695E+00  0.42382460902E+02  0.10000000000E+01 0. -1.
        -13    1    6    6    0    0  0.51829555808E+01  0.72805719519E+01  0.50701572449E+00  0.89519744439E+01  0.10500000000E+00 0. -1.
         13    1    6    6    0    0  0.63705863225E+01  0.91399275682E+01  0.73221992867E+00  0.11165563894E+02  0.10500000000E+00 0.  1.
</event>
<event>
11    0  0.3467594E-009  0.9118800E+02  0.7816531E-02  0.1126479E+00
         25   -1    0    0    0    0  0.00000000000E+00  0.00000000000E+00  0.99999998245E-14  0.12500000000E+03  0.12500000000E+03 0.  0.
    3000001    1    3    3    0    0  0.38430591748E+02 -0.17696721301E+02 -0.18483823905E+02  0.46181555551E+02  0.10000000000E+01 0. -1.
    1000022    2    1    0    0    0  0.53016864600E+02 -0.18190146442E+02 -0.25779459834E+02  0.62499999975E+02  0.10000004400E+02 0.  0.
    3000022    2    3    3    0    0  0.14586272852E+02 -0.49342514096E+00 -0.72956359284E+01  0.16318444425E+02  0.25000152608E+00 0.  0.
    1000022    2    1    0    0    0 -0.53016864600E+02  0.18190146442E+02  0.25779459834E+02  0.62500000025E+02  0.10000004709E+02 0.  0.
    3000022    2    5    5    0    0 -0.15722610355E+01  0.16847921930E+01 -0.56137415532E+00  0.23849978204E+01  0.25008831210E+00 0.  0.
        -13    1    4    4    0    0  0.50226850856E+01 -0.11436020230E+00 -0.25100942555E+01  0.56171204275E+01  0.10500000000E+00 0. -1.
         13    1    4    4    0    0  0.95635877661E+01 -0.37906493866E+00 -0.47855416729E+01  0.10701323997E+02  0.10500000000E+00 0.  1.
    3000001    1    5    5    0    0 -0.51444603564E+02  0.16505354249E+02  0.26340833989E+02  0.60115002204E+02  0.10000000000E+01 0. -1.
        -13    1    6    6    0    0 -0.52084619155E+00  0.49062271611E+00 -0.15875455992E+00  0.74041840544E+00  0.10500000000E+00 0.  1.
         13    1    6    6    0    0 -0.10514148439E+01  0.11941694769E+01 -0.40261959540E+00  0.16445794150E+01  0.10500000000E+00 0. -1.
</event>
<event>
11    0  0.3467594E-009  0.9118800E+02  0.7816531E-02  0.1126479E+00
         25   -1    0    0    0    0  0.00000000000E+00  0.00000000000E+00  0.99999998245E-14  0.12500000000E+03  0.12500000000E+03 0.  0.
    3000001    1    3    3    0    0 -0.14154890671E+02  0.93272517756E+01  0.85781216114E+01  0.19024792403E+02  0.10000000000E+01 0. -1.
    1000022    2    1    0    0    0 -0.54412586344E+02  0.21856059492E+02  0.19178974859E+02  0.62499999964E+02  0.10000001484E+02 0.  0.
    3000022    2    3    3    0    0 -0.40257695673E+02  0.12528807717E+02  0.10600853247E+02  0.43475207561E+02  0.24999839378E+00 0.  0.
    1000022    2    1    0    0    0  0.54412586344E+02 -0.21856059492E+02 -0.19178974859E+02  0.62500000036E+02  0.10000001937E+02 0.  0.
    3000022    2    5    5    0    0  0.79472387847E+01 -0.33765341483E+01  0.72726756246E+00  0.86689693191E+01  0.25004758069E+00 0.  0.
        -13    1    4    4    0    0 -0.13359572511E+02  0.41926914061E+01  0.35633708358E+01  0.14448718823E+02  0.10500000000E+00 0. -1.
         13    1    4    4    0    0 -0.26898123162E+02  0.83361163104E+01  0.70374824114E+01  0.29026488738E+02  0.10500000000E+00 0.  1.
    3000001    1    5    5    0    0  0.46465347559E+02 -0.18479525344E+02 -0.19906242421E+02  0.53831030717E+02  0.10000000000E+01 0.  1.
        -13    1    6    6    0    0  0.19702777641E+01 -0.84004623108E+00  0.15530336102E+00  0.21500735504E+01  0.10500000000E+00 0. -1.
         13    1    6    6    0    0  0.59769610206E+01 -0.25364879172E+01  0.57196420144E+00  0.65188957687E+01  0.10500000000E+00 0.  1.
</event>
<event>
11    0  0.3467594E-009  0.9118800E+02  0.7816531E-02  0.1126479E+00
         25   -1    0    0    0    0  0.00000000000E+00  0.00000000000E+00  0.99999998245E-14  0.12500000000E+03  0.12500000000E+03 0.  0.
    3000001    1    3    3    0    0  0.15208226688E+02 -0.11170256397E+02 -0.14811883154E+02  0.24009512063E+02  0.10000000000E+01 0.  1.
    1000022    2    1    0    0    0  0.33502090964E+02 -0.39020378931E+02 -0.34077408993E+02  0.62500001517E+02  0.10000015753E+02 0.  0.
    3000022    2    3    3    0    0  0.18293864276E+02 -0.27850122535E+02 -0.19265525839E+02  0.38490489454E+02  0.24999436804E+00 0.  0.
    1000022    2    1    0    0    0 -0.33502090964E+02  0.39020378931E+02  0.34077408993E+02  0.62499998483E+02  0.99999967859E+01 0.  0.
    3000022    2    5    5    0    0 -0.28830397949E+01  0.18579446019E+01  0.55331259028E+01  0.65147422365E+01  0.25001509791E+00 0.  0.
        -13    1    4    4    0    0  0.11152246873E+02 -0.16868061394E+02 -0.11709619299E+02  0.23367291555E+02  0.10500000000E+00 0.  1.
         13    1    4    4    0    0  0.71416174029E+01 -0.10982061141E+02 -0.75559065405E+01  0.15123197899E+02  0.10500000000E+00 0. -1.
    3000001    1    5    5    0    0 -0.30619051170E+02  0.37162434329E+02  0.28544283090E+02  0.55985256246E+02  0.10000000000E+01 0.  1.
        -13    1    6    6    0    0 -0.17671640813E+01  0.10830917176E+01  0.34186310397E+01  0.39992523982E+01  0.10500000000E+00 0.  1.
         13    1    6    6    0    0 -0.11158757136E+01  0.77485288432E+00  0.21144948631E+01  0.25154898383E+01  0.10500000000E+00 0. -1.
</event>
<event>
11    0  0.3467594E-009  0.9118800E+02  0.7816531E-02  0.1126479E+00
         25   -1    0    0    0    0  0.00000000000E+00  0.00000000000E+00  0.99999998245E-14  0.12500000000E+03  0.12500000000E+03 0.  0.
    3000001    1    3    3    0    0  0.54431316538E+01  0.13433753156E+02 -0.19249489567E+02  0.24117136120E+02  0.10000000000E+01 0.  1.
    1000022    2    1    0    0    0  0.70804630709E+01  0.26162306830E+02 -0.55422474646E+02  0.62500000597E+02  0.10000006142E+02 0.  0.
    3000022    2    3    3    0    0  0.16373314171E+01  0.12728553674E+02 -0.36172985078E+02  0.38382864477E+02  0.25000630162E+00 0.  0.
    1000022    2    1    0    0    0 -0.70804630709E+01 -0.26162306830E+02  0.55422474646E+02  0.62499999403E+02  0.99999986791E+01 0.  0.
    3000022    2    5    5    0    0 -0.94003779549E+01 -0.22954242985E+02  0.47488065589E+02  0.53576517696E+02  0.24999663476E+00 0.  0.
        -13    1    4    4    0    0  0.68832276126E+00  0.54596849540E+01 -0.15320425348E+02  0.16279078778E+02  0.10500000000E+00 0. -1.
         13    1    4    4    0    0  0.94900865582E+00  0.72688687200E+01 -0.20852559731E+02  0.22103785699E+02  0.10500000000E+00 0.  1.
    3000001    1    5    5    0    0  0.23199148840E+01 -0.32080638448E+01  0.79344090563E+01  0.89234817069E+01  0.10000000000E+01 0. -1.
        -13    1    6    6    0    0 -0.54250337718E+01 -0.13078210777E+02  0.27136043766E+02  0.30607948066E+02  0.10500000000E+00 0.  1.
         13    1    6    6    0    0 -0.39753441830E+01 -0.98760322077E+01  0.20352021823E+02  0.22968569630E+02  0.10500000000E+00 0. -1.
</event>
<event>
11    0  0.3467594E-009  0.9118800E+02  0.7816531E-02  0.1126479E+00
         25   -1    0    0    0    0  0.00000000000E+00  0.00000000000E+00  0.99999998245E-14  0.12500000000E+03  0.12500000000E+03 0.  0.
    3000001    1    3    3    0    0 -0.14677774381E+01  0.62881953972E+01  0.72085835822E+00  0.65738427677E+01  0.10000000000E+01 0.  1.
    1000022    2    1    0    0    0 -0.65900207290E+01  0.52054764933E+02  0.32451857802E+02  0.62500000220E+02  0.10000001363E+02 0.  0.
    3000022    2    3    3    0    0 -0.51222432910E+01  0.45766569536E+02  0.31730999444E+02  0.55926157452E+02  0.24999654809E+00 0.  0.
    1000022    2    1    0    0    0  0.65900207290E+01 -0.52054764933E+02 -0.32451857802E+02  0.62499999780E+02  0.99999986144E+01 0.  0.
    3000022    2    5    5    0    0  0.21773682715E+01 -0.35034589780E+02 -0.16704222757E+02  0.38874888702E+02  0.25000003810E+00 0.  0.
        -13    1    4    4    0    0 -0.17935941866E+01  0.15684805782E+02  0.10926564581E+02  0.19199764350E+02  0.10500000000E+00 0.  1.
         13    1    4    4    0    0 -0.33286491043E+01  0.30081763753E+02  0.20804434862E+02  0.36726393102E+02  0.10500000000E+00 0. -1.
    3000001    1    5    5    0    0  0.44126524575E+01 -0.17020175153E+02 -0.15747635045E+02  0.23625111078E+02  0.10000000000E+01 0.  1.
        -13    1    6    6    0    0  0.52413766651E+00 -0.82203027103E+01 -0.39255118360E+01  0.91251720596E+01  0.10500000000E+00 0.  1.
         13    1    6    6    0    0  0.16532306050E+01 -0.26814287070E+02 -0.12778710921E+02  0.29749716642E+02  0.10500000000E+00 0. -1.
</event>
<event>
11    0  0.3467594E-009  0.9118800E+02  0.7816531E-02  0.1126479E+00
         25   -1    0    0    0    0  0.00000000000E+00  0.00000000000E+00  0.99999998245E-14  0.12500000000E+03  0.12500000000E+03 0.  0.
    3000001    1    3    3    0    0  0.22994334033E-01  0.19300802913E+02 -0.22623929449E+02  0.29755061848E+02  0.10000000000E+01 0. -1.
    1000022    2    1    0    0    0 -0.97428347051E+01  0.37193060467E+02 -0.48249390419E+02  0.62500001134E+02  0.99999945443E+01 0.  0.
    3000022    2    3    3    0    0 -0.97658290391E+01  0.17892257553E+02 -0.25625460970E+02  0.32744939286E+02  0.25000344982E+00 0.  0.
    1000022    2    1    0    0    0  0.97428347051E+01 -0.37193060467E+02  0.48249390419E+02  0.62499998866E+02  0.99999803751E+01 0.  0.
    3000022    2    5    5    0    0  0.62980167384E+01 -0.81362803713E+01  0.15085196809E+02  0.18261701226E+02  0.24999153936E+00 0.  0.
        -13    1    4    4    0    0 -0.73554291569E+01  0.13519684930E+02 -0.19331733924E+02  0.24710547954E+02  0.10500000000E+00 0. -1.
         13    1    4    4    0    0 -0.24103998822E+01  0.43725726233E+01 -0.62937270461E+01  0.80343913315E+01  0.10500000000E+00 0.  1.
    3000001    1    5    5    0    0  0.34448179667E+01 -0.29056780095E+02  0.33164193610E+02  0.44238297641E+02  0.10000000000E+01 0.  1.
        -13    1    6    6    0    0  0.45542733159E+01 -0.58740207414E+01  0.10963634818E+02  0.13246049922E+02  0.10500000000E+00 0.  1.
         13    1    6    6    0    0  0.17437434225E+01 -0.22622596299E+01  0.41215619915E+01  0.50156513043E+01  0.10500000000E+00 0. -1.
</event>
<event>
11    0  0.3467594E-009  0.9118800E+02  0.7816531E-02  0.1126479E+00
         25   -1    0    0    0    0  0.00000000000E+00  0.00000000000E+00  0.99999998245E-14  0.12500000000E+03  0.12500000000E+03 0.  0.
    3000001    1    3    3    0    0  0.18863383924E+02 -0.86705008622E+01 -0.12419238782E+02  0.24212441641E+02  0.10000000000E+01 0. -1.
    1000022    2    1    0    0    0  0.53382236378E+02 -0.23074994825E+02 -0.20594456992E+02  0.62500002514E+02  0.10000005425E+02 0.  0.
    3000022    2    3    3    0    0  0.34518852454E+02 -0.14404493963E+02 -0.81752182100E+01  0.38287560873E+02  0.25000752929E+00 0.  0.
    1000022    2    1    0    0    0 -0.53382236378E+02  0.23074994825E+02  0.20594456992E+02  0.62499997486E+02  0.99999739984E+01 0.  0.
    3000022    2    5    5    0    0 -0.28319666108E+01  0.15935150402E+01  0.39051171111E+01  0.50864292897E+01  0.24999640028E+00 0.  0.
        -13    1    4    4    0    0  0.13449488409E+02 -0.56469996870E+01 -0.31338469427E+01  0.14920099382E+02  0.10500000000E+00 0.  1.
         13    1    4    4    0    0  0.21069364045E+02 -0.87574942763E+01 -0.50413712673E+01  0.23367461491E+02  0.10500000000E+00 0. -1.
    3000001    1    5    5    0    0 -0.50550269768E+02  0.21481479785E+02  0.16689339881E+02  0.57413568196E+02  0.10000000000E+01 0. -1.
        -13    1    6    6    0    0 -0.64943774927E+00  0.36948122868E+00  0.89249134619E+00  0.11686965267E+01  0.10500000000E+00 0.  1.
         13    1    6    6    0    0 -0.21825288616E+01  0.12240338115E+01  0.30126257649E+01  0.39177327630E+01  0.10500000000E+00 0. -1.
</event>
<event>
11    0  0.3467594E-009  0.9118800E+02  0.7816531E-02  0.1126479E+00
         25   -1    0    0    0    0  0.00000000000E+00  0.00000000000E+00  0.99999998245E-14  0.12500000000E+03  0.12500000000E+03 0.  0.
    3000001    1    3    3    0    0 -0.25056036371E+02 -0.23631975470E+02 -0.20368670891E+02  0.40026965624E+02  0.10000000000E+01 0. -1.
    1000022    2    1    0    0    0 -0.35007875549E+02 -0.42090487089E+02 -0.28444499879E+02  0.62499999993E+02  0.99999985979E+01 0.  0.
    3000022    2    3    3    0    0 -0.99518391787E+01 -0.18458511619E+02 -0.80758289876E+01  0.22473034369E+02  0.25001137460E+00 0.  0.
    1000022    2    1    0    0    0  0.35007875549E+02  0.42090487089E+02  0.28444499879E+02  0.62500000007E+02  0.99999986828E+01 0.  0.
    3000022    2    5    5    0    0  0.27981634056E+02  0.37794366163E+02  0.26501563007E+02  0.53979452594E+02  0.25000474611E+00 0.  0.
        -13    1    4    4    0    0 -0.37215021264E+01 -0.67776105011E+01 -0.29749798225E+01  0.82853552806E+01  0.10500000000E+00 0.  1.
         13    1    4    4    0    0 -0.62303370522E+01 -0.11680901118E+02 -0.51008491651E+01  0.14187679088E+02  0.10500000000E+00 0. -1.
    3000001    1    5    5    0    0  0.70262414935E+01  0.42961209255E+01  0.19429368712E+01  0.85205474130E+01  0.10000000000E+01 0.  1.
        -13    1    6    6    0    0  0.12974601189E+02  0.17516245741E+02  0.12361502594E+02  0.25059467517E+02  0.10500000000E+00 0.  1.
         13    1    6    6    0    0  0.15007032867E+02  0.20278120422E+02  0.14140060414E+02  0.28919985077E+02  0.10500000000E+00 0. -1.
</event>
<event>
11    0  0.3467594E-009  0.9118800E+02  0.7816531E-02  0.1126479E+00
         25   -1    0    0    0    0  0.00000000000E+00  0.00000000000E+00  0.99999998245E-14  0.12500000000E+03  0.12500000000E+03 0.  0.
    3000001    1    3    3    0    0  0.20275902915E+02 -0.25531643196E+02  0.47800219142E+01  0.32967038884E+02  0.10000000000E+01 0.  1.
    1000022    2    1    0    0    0  0.44819504236E+02 -0.41601156126E+02  0.81734923294E+01  0.62499999153E+02  0.99999883133E+01 0.  0.
    3000022    2    3    3    0    0  0.24543601321E+02 -0.16069512931E+02  0.33934704151E+01  0.29532960269E+02  0.24997830353E+00 0.  0.
    1000022    2    1    0    0    0 -0.44819504236E+02  0.41601156126E+02 -0.81734923294E+01  0.62500000847E+02  0.99999988961E+01 0.  0.
    3000022    2    5    5    0    0 -0.20537542418E+01  0.27010331170E+01  0.17639814766E+01  0.38324431303E+01  0.25000662526E+00 0.  0.
        -13    1    4    4    0    0  0.10848507130E+02 -0.70955882083E+01  0.14331124208E+01  0.13042327828E+02  0.10500000000E+00 0.  1.
         13    1    4    4    0    0  0.13695094192E+02 -0.89739247226E+01  0.19603579944E+01  0.16490632441E+02  0.10500000000E+00 0. -1.
    3000001    1    5    5    0    0 -0.42765749995E+02  0.38900123009E+02 -0.99374738060E+01  0.58667557716E+02  0.10000000000E+01 0.  1.
        -13    1    6    6    0    0 -0.15246847525E+01  0.19616585211E+01  0.13158552638E+01  0.28134085773E+01  0.10500000000E+00 0. -1.
         13    1    6    6    0    0 -0.52906948928E+00  0.73937459589E+00  0.44812621289E+00  0.10190345530E+01  0.10500000000E+00 0.  1.
</event>
<event>
11    0  0.3467594E-009  0.9118800E+02  0.7816531E-02  0.1126479E+00
         25   -1    0    0    0    0  0.00000000000E+00  0.00000000000E+00  0.99999998245E-14  0.12500000000E+03  0.12500000000E+03 0.  0.
    3000001    1    3    3    0    0  0.29179787210E+02  0.52446633997E+02  0.10374296563E+02  0.60915806064E+02  0.10000000000E+01 0.  1.
    1000022    2    1    0    0    0  0.28531009680E+02  0.53794771392E+02  0.99173641776E+01  0.62500000138E+02  0.99999981254E+01 0.  0.
    3000022    2    3    3    0    0 -0.64877752977E+00  0.13481373952E+01 -0.45693238545E+00  0.15841940741E+01  0.24999388012E+00 0.  0.
    1000022    2    1    0    0    0 -0.28531009680E+02 -0.53794771392E+02 -0.99173641776E+01  0.62499999862E+02  0.99999964001E+01 0.  0.
    3000022    2    5    5    0    0 -0.63425986206E+01 -0.14288605400E+02  0.16598503780E+01  0.15722926058E+02  0.24999804705E+00 0.  0.
        -13    1    4    4    0    0 -0.27586653905E+00  0.72307674670E+00 -0.21543634276E+00  0.81017291165E+00  0.10500000000E+00 0.  1.
         13    1    4    4    0    0 -0.37291099073E+00  0.62506064851E+00 -0.24149604269E+00  0.77402116247E+00  0.10500000000E+00 0. -1.
    3000001    1    5    5    0    0 -0.22188411060E+02 -0.39506165993E+02 -0.11577214556E+02  0.46777073804E+02  0.10000000000E+01 0.  1.
        -13    1    6    6    0    0 -0.19748386165E+01 -0.45618610407E+01  0.50701101410E+00  0.49978644323E+01  0.10500000000E+00 0.  1.
         13    1    6    6    0    0 -0.43677600041E+01 -0.97267443588E+01  0.11528393639E+01  0.10725061626E+02  0.10500000000E+00 0. -1.
</event>
<event>
11    0  0.3467594E-009  0.9118800E+02  0.7816531E-02  0.1126479E+00
         25   -1    0    0    0    0  0.00000000000E+00  0.00000000000E+00  0.99999998245E-14  0.12500000000E+03  0.12500000000E+03 0.  0.
    3000001    1    3    3    0    0 -0.38631548386E+01  0.79400714874E+01 -0.23990173358E+02  0.25583141290E+02  0.10000000000E+01 0.  1.
    1000022    2    1    0    0    0 -0.15417064750E+02  0.27860947629E+02 -0.52842517780E+02  0.62499999718E+02  0.99999995538E+01 0.  0.
    3000022    2    3    3    0    0 -0.11553909912E+02  0.19920876142E+02 -0.28852344422E+02  0.36916858427E+02  0.25003399947E+00 0.  0.
    1000022    2    1    0    0    0  0.15417064750E+02 -0.27860947629E+02  0.52842517780E+02  0.62500000282E+02  0.10000003080E+02 0.  0.
    3000022    2    5    5    0    0 -0.82026489599E+00 -0.21367700402E+01  0.13064209966E+01  0.26472354473E+01  0.24999797778E+00 0.  0.
        -13    1    4    4    0    0 -0.27012590678E+01  0.46350438054E+01 -0.67149711648E+01  0.85954810438E+01  0.10500000000E+00 0. -1.
         13    1    4    4    0    0 -0.88526508438E+01  0.15285832336E+02 -0.22137373257E+02  0.28321377384E+02  0.10500000000E+00 0.  1.
    3000001    1    5    5    0    0  0.16237329646E+02 -0.25724177589E+02  0.51536096784E+02  0.59852764835E+02  0.10000000000E+01 0.  1.
        -13    1    6    6    0    0 -0.18366149319E+00 -0.56739594528E+00  0.33716662446E+00  0.69309165011E+00  0.10500000000E+00 0. -1.
         13    1    6    6    0    0 -0.63660340280E+00 -0.15693740949E+01  0.96925437211E+00  0.19541437972E+01  0.10500000000E+00 0.  1.
</event>
<event>
11    0  0.3467594E-009  0.9118800E+02  0.7816531E-02  0.1126479E+00
         25   -1    0    0    0    0  0.00000000000E+00  0.00000000000E+00  0.99999998245E-14  0.12500000000E+03  0.12500000000E+03 0.  0.
    3000001    1    3    3    0    0  0.58047183981E+01  0.24739874071E+02 -0.28508785859E+01  0.25590694275E+02  0.10000000000E+01 0.  1.
    1000022    2    1    0    0    0  0.17470934437E+02  0.56476785121E+02 -0.17646223688E+02  0.62500000021E+02  0.99999992205E+01 0.  0.
    3000022    2    3    3    0    0  0.11666216039E+02  0.31736911050E+02 -0.14795345102E+02  0.36909305746E+02  0.24998861630E+00 0.  0.
    1000022    2    1    0    0    0 -0.17470934437E+02 -0.56476785121E+02  0.17646223688E+02  0.62499999979E+02  0.99999989602E+01 0.  0.
    3000022    2    5    5    0    0 -0.14507736618E+02 -0.50742525356E+02  0.12635645333E+02  0.54267857377E+02  0.25001996473E+00 0.  0.
        -13    1    4    4    0    0  0.43449890372E+01  0.11837858602E+02 -0.54527230676E+01  0.13738887869E+02  0.10500000000E+00 0.  1.
         13    1    4    4    0    0  0.73212270017E+01  0.19899052448E+02 -0.93426220349E+01  0.23170417877E+02  0.10500000000E+00 0. -1.
    3000001    1    5    5    0    0 -0.29631978195E+01 -0.57342597648E+01  0.50105783556E+01  0.82321426023E+01  0.10000000000E+01 0.  1.
        -13    1    6    6    0    0 -0.78349841293E+01 -0.27643877038E+02  0.68677991297E+01  0.29542318865E+02  0.10500000000E+00 0.  1.
         13    1    6    6    0    0 -0.66727524883E+01 -0.23098648318E+02  0.57678462030E+01  0.24725538512E+02  0.10500000000E+00 0. -1.
</event>
<event>
11    0  0.3467594E-009  0.9118800E+02  0.7816531E-02  0.1126479E+00
         25   -1    0    0    0    0  0.00000000000E+00  0.00000000000E+00  0.99999998245E-14  0.12500000000E+03  0.12500000000E+03 0.  0.
    3000001    1    3    3    0    0 -0.48137053524E+02 -0.32397140612E+02  0.70459057273E+01  0.58458493218E+02  0.10000000000E+01 0. -1.
    1000022    2    1    0    0    0 -0.51298746972E+02 -0.33900777833E+02  0.50423977762E+01  0.62499999950E+02  0.10000001994E+02 0.  0.
    3000022    2    3    3    0    0 -0.31616934481E+01 -0.15036372211E+01 -0.20035079511E+01  0.40415067324E+01  0.25000441174E+00 0.  0.
    1000022    2    1    0    0    0  0.51298746972E+02  0.33900777833E+02 -0.50423977762E+01  0.62500000050E+02  0.10000002613E+02 0.  0.
    3000022    2    5    5    0    0  0.29297574530E+01  0.53916112683E+01 -0.42734514079E+00  0.61561411460E+01  0.24999827508E+00 0.  0.
        -13    1    4    4    0    0 -0.15618927628E+01 -0.75550699013E+00 -0.10698740658E+01  0.20410672040E+01  0.10500000000E+00 0.  1.
         13    1    4    4    0    0 -0.15998006853E+01 -0.74813023097E+00 -0.93363388535E+00  0.20004395284E+01  0.10500000000E+00 0. -1.
    3000001    1    5    5    0    0  0.48368989519E+02  0.28509166564E+02 -0.46150526354E+01  0.56343858904E+02  0.10000000000E+01 0. -1.
        -13    1    6    6    0    0  0.11091631810E+01  0.19814924443E+01 -0.10581527296E+00  0.22756926728E+01  0.10500000000E+00 0. -1.
         13    1    6    6    0    0  0.18205942719E+01  0.34101188241E+01 -0.32152986783E+00  0.38804484732E+01  0.10500000000E+00 0.  1.
</event>
<event>
11    0  0.3467594E-009  0.9118800E+02  0.7816531E-02  0.1126479E+00
         25   -1    0    0    0    0  0.00000000000E+00  0.00000000000E+00  0.99999998245E-14  0.12500000000E+03  0.12500000000E+03 0.  0.
    3000001    1    3    3    0    0 -0.24836914388E+02 -0.23842735992E+01 -0.12563827770E+02  0.27953655309E+02  0.10000000000E+01 0. -1.
    1000022    2    1    0    0    0 -0.58251452085E+02 -0.91391989795E+01 -0.18151949997E+02  0.62500000260E+02  0.10000005794E+02 0.  0.
    3000022    2    3    3    0    0 -0.33414537697E+02 -0.67549253803E+01 -0.55881222262E+01  0.34546344951E+02  0.24998612430E+00 0.  0.
    1000022    2    1    0    0    0  0.58251452085E+02  0.91391989795E+01  0.18151949997E+02  0.62499999740E+02  0.10000002544E+02 0.  0.
    3000022    2    5    5    0    0  0.36939613485E+02  0.37340186654E+01  0.68386038647E+01  0.37753237539E+02  0.25000413282E+00 0.  0.
        -13    1    4    4    0    0 -0.12233320867E+02 -0.24252789751E+01 -0.20806365476E+01  0.12644215712E+02  0.10500000000E+00 0. -1.
         13    1    4    4    0    0 -0.21181216830E+02 -0.43296464052E+01 -0.35074856786E+01  0.21902129239E+02  0.10500000000E+00 0.  1.
    3000001    1    5    5    0    0  0.21311838600E+02  0.54051803141E+01  0.11313346132E+02  0.24746762201E+02  0.10000000000E+01 0.  1.
        -13    1    6    6    0    0  0.20827089897E+02  0.20736533815E+01  0.37961954578E+01  0.21271808501E+02  0.10500000000E+00 0.  1.
         13    1    6    6    0    0  0.16112523588E+02  0.16603652839E+01  0.30424084069E+01  0.16481429038E+02  0.10500000000E+00 0. -1.
</event>
<event>
11    0  0.3467594E-009  0.9118800E+02  0.7816531E-02  0.1126479E+00
         25   -1    0    0    0    0  0.00000000000E+00  0.00000000000E+00  0.99999998245E-14  0.12500000000E+03  0.12500000000E+03 0.  0.
    3000001    1    3    3    0    0  0.83679559550E+01  0.23023670757E+02  0.68190488091E+01  0.25448212681E+02  0.10000000000E+01 0. -1.
    1000022    2    1    0    0    0  0.30712191183E+02  0.50433381168E+02  0.17874157033E+02  0.62500000753E+02  0.99999990609E+01 0.  0.
    3000022    2    3    3    0    0  0.22344235228E+02  0.27409710411E+02  0.11055108224E+02  0.37051788072E+02  0.25001755442E+00 0.  0.
    1000022    2    1    0    0    0 -0.30712191183E+02 -0.50433381168E+02 -0.17874157033E+02  0.62499999247E+02  0.99999896436E+01 0.  0.
    3000022    2    5    5    0    0 -0.67405770521E+01 -0.11562964533E+02 -0.85360512950E+01  0.15876530991E+02  0.25007359305E+00 0.  0.
        -13    1    4    4    0    0  0.87000475199E+01  0.10751293335E+02  0.42848191057E+01  0.14479358929E+02  0.10500000000E+00 0.  1.
         13    1    4    4    0    0  0.13644187708E+02  0.16658417077E+02  0.67702891179E+01  0.22572429144E+02  0.10500000000E+00 0. -1.
    3000001    1    5    5    0    0 -0.23971614131E+02 -0.38870416635E+02 -0.93381057377E+01  0.46623468256E+02  0.10000000000E+01 0.  1.
        -13    1    6    6    0    0 -0.19061894325E+01 -0.32854020826E+01 -0.23752811706E+01  0.44811171192E+01  0.10500000000E+00 0.  1.
         13    1    6    6    0    0 -0.48343876195E+01 -0.82775624505E+01 -0.61607701244E+01  0.11395413872E+02  0.10500000000E+00 0. -1.
</event>
<event>
11    0  0.3467594E-009  0.9118800E+02  0.7816531E-02  0.1126479E+00
         25   -1    0    0    0    0  0.00000000000E+00  0.00000000000E+00  0.99999998245E-14  0.12500000000E+03  0.12500000000E+03 0.  0.
    3000001    1    3    3    0    0  0.22404242008E+01 -0.17854200045E+01  0.35866863255E+01  0.46980361844E+01  0.10000000000E+01 0.  1.
    1000022    2    1    0    0    0  0.57628662038E+00 -0.15523988028E+02  0.59706976472E+02  0.62500000385E+02  0.10000034907E+02 0.  0.
    3000022    2    3    3    0    0 -0.16641375805E+01 -0.13738568024E+02  0.56120290147E+02  0.57801964201E+02  0.24998819843E+00 0.  0.
    1000022    2    1    0    0    0 -0.57628662038E+00  0.15523988028E+02 -0.59706976472E+02  0.62499999615E+02  0.10000030093E+02 0.  0.
    3000022    2    5    5    0    0  0.29413912821E+01  0.13449643741E+02 -0.38708057444E+02  0.41084314653E+02  0.24999994943E+00 0.  0.
        -13    1    4    4    0    0 -0.50213895777E+00 -0.45863262010E+01  0.18742172536E+02  0.19301984041E+02  0.10500000000E+00 0. -1.
         13    1    4    4    0    0 -0.11619986227E+01 -0.91522418227E+01  0.37378117611E+02  0.38499980160E+02  0.10500000000E+00 0.  1.
    3000001    1    5    5    0    0 -0.35176779025E+01  0.20743442875E+01 -0.20998919028E+02  0.21415684962E+02  0.10000000000E+01 0. -1.
        -13    1    6    6    0    0  0.89138886467E+00  0.43120092616E+01 -0.12396732470E+02  0.13155911178E+02  0.10500000000E+00 0.  1.
         13    1    6    6    0    0  0.20500024175E+01  0.91376344791E+01 -0.26311324974E+02  0.27928403475E+02  0.10500000000E+00 0. -1.
</event>
<event>
11    0  0.3467594E-009  0.9118800E+02  0.7816531E-02  0.1126479E+00
         25   -1    0    0    0    0  0.00000000000E+00  0.00000000000E+00  0.99999998245E-14  0.12500000000E+03  0.12500000000E+03 0.  0.
    3000001    1    3    3    0    0 -0.45789407050E+02 -0.33559383498E+02  0.11620888554E+02  0.57956423885E+02  0.10000000000E+01 0. -1.
    1000022    2    1    0    0    0 -0.47507777812E+02 -0.37736045051E+02  0.11191599661E+02  0.62499999927E+02  0.10000001962E+02 0.  0.
    3000022    2    3    3    0    0 -0.17183707619E+01 -0.41766615530E+01 -0.42928889229E+00  0.45435760425E+01  0.24998899429E+00 0.  0.
    1000022    2    1    0    0    0  0.47507777812E+02  0.37736045051E+02 -0.11191599661E+02  0.62500000073E+02  0.10000002871E+02 0.  0.
    3000022    2    5    5    0    0  0.32289599617E+02  0.27204806020E+02 -0.12165555346E+02  0.43940675388E+02  0.25000525259E+00 0.  0.
        -13    1    4    4    0    0 -0.12385612513E+01 -0.28965352855E+01 -0.31629583895E+00  0.31678097624E+01  0.10500000000E+00 0. -1.
         13    1    4    4    0    0 -0.47980951064E+00 -0.12801262675E+01 -0.11299305334E+00  0.13757662801E+01  0.10500000000E+00 0.  1.
    3000001    1    5    5    0    0  0.15218178195E+02  0.10531239030E+02  0.97395568490E+00  0.18559324685E+02  0.10000000000E+01 0. -1.
        -13    1    6    6    0    0  0.20748473309E+02  0.17481352085E+02 -0.77572044811E+01  0.28218470223E+02  0.10500000000E+00 0. -1.
         13    1    6    6    0    0  0.11541126309E+02  0.97234539357E+01 -0.44083508652E+01  0.15722205165E+02  0.10500000000E+00 0.  1.
</event>
<event>
11    0  0.3467594E-009  0.9118800E+02  0.7816531E-02  0.1126479E+00
         25   -1    0    0    0    0  0.00000000000E+00  0.00000000000E+00  0.99999998245E-14  0.12500000000E+03  0.12500000000E+03 0.  0.
    3000001    1    3    3    0    0 -0.43549035551E+01  0.22363811504E+01  0.90868559893E+00  0.50786115368E+01  0.10000000000E+01 0.  1.
    1000022    2    1    0    0    0 -0.35619532086E+02  0.50365665238E+02 -0.89360177547E+00  0.62499998897E+02  0.10000001852E+02 0.  0.
    3000022    2    3    3    0    0 -0.31264628531E+02  0.48129284088E+02 -0.18022873744E+01  0.57421387360E+02  0.25000515828E+00 0.  0.
    1000022    2    1    0    0    0  0.35619532086E+02 -0.50365665238E+02  0.89360177547E+00  0.62500001103E+02  0.10000015642E+02 0.  0.
    3000022    2    5    5    0    0  0.30274359976E+02 -0.44356502375E+02 -0.23869786073E+01  0.53756826002E+02  0.25000008454E+00 0.  0.
        -13    1    4    4    0    0 -0.10787144128E+02  0.16687535162E+02 -0.65785172095E+00  0.19881652399E+02  0.10500000000E+00 0. -1.
         13    1    4    4    0    0 -0.20477484403E+02  0.31441748926E+02 -0.11444356535E+01  0.37539734961E+02  0.10500000000E+00 0.  1.
    3000001    1    5    5    0    0  0.53451721099E+01 -0.60091628636E+01  0.32805803828E+01  0.87431751014E+01  0.10000000000E+01 0.  1.
        -13    1    6    6    0    0  0.16577583975E+02 -0.24404842914E+02 -0.12987401001E+01  0.29531515352E+02  0.10500000000E+00 0. -1.
         13    1    6    6    0    0  0.13696776001E+02 -0.19951659461E+02 -0.10882385072E+01  0.24225310650E+02  0.10500000000E+00 0.  1.
</event>
<event>
11    0  0.3467594E-009  0.9118800E+02  0.7816531E-02  0.1126479E+00
         25   -1    0    0    0    0  0.00000000000E+00  0.00000000000E+00  0.99999998245E-14  0.12500000000E+03  0.12500000000E+03 0.  0.
    3000001    1    3    3    0    0 -0.22524977346E+02  0.25287551400E+02  0.13144229016E+02  0.36340137819E+02  0.10000000000E+01 0.  1.
    1000022    2    1    0    0    0 -0.36481631662E+02  0.39823348415E+02  0.29823503717E+02  0.62499998153E+02  0.99999933731E+01 0.  0.
    3000022    2    3    3    0    0 -0.13956654316E+02  0.14535797015E+02  0.16679274700E+02  0.26159860334E+02  0.24998723510E+00 0.  0.
    1000022    2    1    0    0    0  0.36481631662E+02 -0.39823348415E+02 -0.29823503717E+02  0.62500001847E+02  0.10000016462E+02 0.  0.
    3000022    2    5    5    0    0  0.27714559047E+02 -0.31090835163E+02 -0.18061418263E+02  0.45398393614E+02  0.24999752223E+00 0.  0.
        -13    1    4    4    0    0 -0.44134071494E+01  0.45373469720E+01  0.52752346102E+01  0.82404372095E+01  0.10500000000E+00 0. -1.
         13    1    4    4    0    0 -0.95432471662E+01  0.99984500433E+01  0.11404040090E+02  0.17919423125E+02  0.10500000000E+00 0.  1.
    3000001    1    5    5    0    0  0.87670726150E+01 -0.87325132519E+01 -0.11762085454E+02  0.17101608233E+02  0.10000000000E+01 0.  1.
        -13    1    6    6    0    0  0.12013229515E+02 -0.13490957736E+02 -0.79045395919E+01  0.19718427807E+02  0.10500000000E+00 0. -1.
         13    1    6    6    0    0  0.15701329532E+02 -0.17599877427E+02 -0.10156878671E+02  0.25679965807E+02  0.10500000000E+00 0.  1.
</event>
<event>
11    0  0.3467594E-009  0.9118800E+02  0.7816531E-02  0.1126479E+00
         25   -1    0    0    0    0  0.00000000000E+00  0.00000000000E+00  0.99999998245E-14  0.12500000000E+03  0.12500000000E+03 0.  0.
    3000001    1    3    3    0    0 -0.12551897703E+02 -0.11672623259E+02 -0.16779649189E+01  0.17251545901E+02  0.10000000000E+01 0.  1.
    1000022    2    1    0    0    0 -0.32827904981E+02 -0.51909785563E+02 -0.58269459032E+01  0.62499995440E+02  0.99999474381E+01 0.  0.
    3000022    2    3    3    0    0 -0.20276007278E+02 -0.40237162304E+02 -0.41489809844E+01  0.45248449539E+02  0.24988211654E+00 0.  0.
    1000022    2    1    0    0    0  0.32827904981E+02  0.51909785563E+02  0.58269459032E+01  0.62500004560E+02  0.10000004438E+02 0.  0.
    3000022    2    5    5    0    0  0.15065437412E+02  0.30331709281E+02 -0.30443465705E+00  0.33869383579E+02  0.24994245955E+00 0.  0.
        -13    1    4    4    0    0 -0.78062016221E+01 -0.15358550594E+02 -0.15737998208E+01  0.17300570251E+02  0.10500000000E+00 0. -1.
         13    1    4    4    0    0 -0.12469805656E+02 -0.24878611710E+02 -0.25751811635E+01  0.27947879289E+02  0.10500000000E+00 0.  1.
    3000001    1    5    5    0    0  0.17762467569E+02  0.21578076282E+02  0.61313805603E+01  0.28630620981E+02  0.10000000000E+01 0. -1.
        -13    1    6    6    0    0  0.76103898810E+01  0.15220793622E+02 -0.10240877522E+00  0.17017993571E+02  0.10500000000E+00 0. -1.
         13    1    6    6    0    0  0.74550475312E+01  0.15110915658E+02 -0.20202588184E+00  0.16851390008E+02  0.10500000000E+00 0.  1.
</event>
<event>
11    0  0.3467594E-009  0.9118800E+02  0.7816531E-02  0.1126479E+00
         25   -1    0    0    0    0  0.00000000000E+00  0.00000000000E+00  0.99999998245E-14  0.12500000000E+03  0.12500000000E+03 0.  0.
    3000001    1    3    3    0    0  0.26066085699E+02 -0.17632184403E+02 -0.29873186423E+02  0.43402096926E+02  0.10000000000E+01 0. -1.
    1000022    2    1    0    0    0  0.38735571636E+02 -0.29415451744E+02 -0.37954404059E+02  0.62499998422E+02  0.99999852016E+01 0.  0.
    3000022    2    3    3    0    0  0.12669485936E+02 -0.11783267341E+02 -0.80812176356E+01  0.19097901496E+02  0.24999989662E+00 0.  0.
    1000022    2    1    0    0    0 -0.38735571636E+02  0.29415451744E+02  0.37954404059E+02  0.62500001578E+02  0.10000004926E+02 0.  0.
    3000022    2    5    5    0    0  0.42934950455E+00  0.34218241798E+00  0.14420961581E+01  0.15631927882E+01  0.25000111957E+00 0.  0.
        -13    1    4    4    0    0  0.82053092295E+01 -0.76278604954E+01 -0.51696240762E+01  0.12338857053E+02  0.10500000000E+00 0. -1.
         13    1    4    4    0    0  0.44641767069E+01 -0.41554068458E+01 -0.29115935593E+01  0.67590444428E+01  0.10500000000E+00 0.  1.
    3000001    1    5    5    0    0 -0.39164921140E+02  0.29073269326E+02  0.36512307901E+02  0.60936808790E+02  0.10000000000E+01 0. -1.
        -13    1    6    6    0    0  0.25574936978E+00  0.14067315575E+00  0.86930998217E+00  0.92299594906E+00  0.10500000000E+00 0.  1.
         13    1    6    6    0    0  0.17360013477E+00  0.20150926224E+00  0.57278617589E+00  0.64019683914E+00  0.10500000000E+00 0. -1.
</event>
<event>
11    0  0.3467594E-009  0.9118800E+02  0.7816531E-02  0.1126479E+00
         25   -1    0    0    0    0  0.00000000000E+00  0.00000000000E+00  0.99999998245E-14  0.12500000000E+03  0.12500000000E+03 0.  0.
    3000001    1    3    3    0    0 -0.28168465352E+02 -0.39201510800E+02  0.26720744939E+02  0.55183503870E+02  0.10000000000E+01 0. -1.
    1000022    2    1    0    0    0 -0.28731944085E+02 -0.45944221019E+02  0.29493284576E+02  0.62500000742E+02  0.10000010090E+02 0.  0.
    3000022    2    3    3    0    0 -0.56347873245E+00 -0.67427102183E+01  0.27725396372E+01  0.73164968718E+01  0.25000213027E+00 0.  0.
    1000022    2    1    0    0    0  0.28731944085E+02  0.45944221019E+02 -0.29493284576E+02  0.62499999258E+02  0.10000000814E+02 0.  0.
    3000022    2    5    5    0    0  0.17546234119E+02  0.21687441737E+02 -0.10960665118E+02  0.29973557207E+02  0.24998187532E+00 0.  0.
        -13    1    4    4    0    0 -0.24115173282E+00 -0.36815558465E+01  0.15017260209E+01  0.39847476270E+01  0.10500000000E+00 0.  1.
         13    1    4    4    0    0 -0.32232699963E+00 -0.30611543718E+01  0.12708136163E+01  0.33317492448E+01  0.10500000000E+00 0. -1.
    3000001    1    5    5    0    0  0.11185709966E+02  0.24256779281E+02 -0.18532619458E+02  0.32526442051E+02  0.10000000000E+01 0. -1.
        -13    1    6    6    0    0  0.84668362544E+01  0.10364473511E+02 -0.52837440993E+01  0.14388836090E+02  0.10500000000E+00 0. -1.
         13    1    6    6    0    0  0.90793978644E+01  0.11322968226E+02 -0.56769210188E+01  0.15584721116E+02  0.10500000000E+00 0.  1.
</event>
<event>
11    0  0.3467594E-009  0.9118800E+02  0.7816531E-02  0.1126479E+00
         25   -1    0    0    0    0  0.00000000000E+00  0.00000000000E+00  0.99999998245E-14  0.12500000000E+03  0.12500000000E+03 0.  0.
    3000001    1    3    3    0    0  0.96464783460E+01  0.39647063374E+01 -0.75774167923E+00  0.10504647223E+02  0.10000000000E+01 0. -1.
    1000022    2    1    0    0    0  0.48670025471E+02  0.36445516389E+02  0.10450017509E+02  0.62499999184E+02  0.99999993911E+01 0.  0.
    3000022    2    3    3    0    0  0.39023547125E+02  0.32480810051E+02  0.11207759188E+02  0.51995351961E+02  0.25001541029E+00 0.  0.
    1000022    2    1    0    0    0 -0.48670025471E+02 -0.36445516389E+02 -0.10450017509E+02  0.62500000816E+02  0.10000009593E+02 0.  0.
    3000022    2    5    5    0    0 -0.35300390930E+00 -0.90415181559E-01 -0.12542586801E+01  0.13298288625E+01  0.24998660311E+00 0.  0.
        -13    1    4    4    0    0  0.29708739620E+02  0.24706773977E+02  0.85388055189E+01  0.39572163384E+02  0.10500000000E+00 0.  1.
         13    1    4    4    0    0  0.93148075049E+01  0.77740360744E+01  0.26689536695E+01  0.12423188577E+02  0.10500000000E+00 0. -1.
    3000001    1    5    5    0    0 -0.48317021562E+02 -0.36355101207E+02 -0.91957588291E+01  0.61170171954E+02  0.10000000000E+01 0.  1.
        -13    1    6    6    0    0 -0.17948006396E+00 -0.10943216625E+00 -0.59124649046E+00  0.63622787180E+00  0.10500000000E+00 0.  1.
         13    1    6    6    0    0 -0.17352384534E+00  0.19016984696E-01 -0.66301218968E+00  0.69360099068E+00  0.10500000000E+00 0. -1.
</event>
<event>
11    0  0.3467594E-009  0.9118800E+02  0.7816531E-02  0.1126479E+00
         25   -1    0    0    0    0  0.00000000000E+00  0.00000000000E+00  0.99999998245E-14  0.12500000000E+03  0.12500000000E+03 0.  0.
    3000001    1    3    3    0    0  0.46414337555E+02  0.13940030170E+02  0.12570412614E+01  0.48489125838E+02  0.10000000000E+01 0.  1.
    1000022    2    1    0    0    0  0.57712672527E+02  0.21139089440E+02  0.53513525009E+01  0.62500004236E+02  0.99999941664E+01 0.  0.
    3000022    2    3    3    0    0  0.11298334973E+02  0.71990592696E+01  0.40943112395E+01  0.14010878398E+02  0.25000288386E+00 0.  0.
    1000022    2    1    0    0    0 -0.57712672527E+02 -0.21139089440E+02 -0.53513525009E+01  0.62499995764E+02  0.99999412150E+01 0.  0.
    3000022    2    5    5    0    0 -0.38441879123E+02 -0.12156423990E+02 -0.78264697377E+01  0.41071557595E+02  0.24999999649E+00 0.  0.
        -13    1    4    4    0    0  0.69699724437E+01  0.43769639905E+01  0.24844932934E+01  0.85977939941E+01  0.10500000000E+00 0. -1.
         13    1    4    4    0    0  0.43283625289E+01  0.28220952791E+01  0.16098179461E+01  0.54130844040E+01  0.10500000000E+00 0.  1.
    3000001    1    5    5    0    0 -0.19270793404E+02 -0.89826654502E+01  0.24751172368E+01  0.21428438169E+02  0.10000000000E+01 0. -1.
        -13    1    6    6    0    0 -0.11730209053E+02 -0.36601413677E+01 -0.23885140252E+01  0.12518404991E+02  0.10500000000E+00 0.  1.
         13    1    6    6    0    0 -0.26711670069E+02 -0.84962826219E+01 -0.54379557125E+01  0.28553152604E+02  0.10500000000E+00 0. -1.
</event>
<event>
11    0  0.3467594E-009  0.9118800E+02  0.7816531E-02  0.1126479E+00
         25   -1    0    0    0    0  0.00000000000E+00  0.00000000000E+00  0.99999998245E-14  0.12500000000E+03  0.12500000000E+03 0.  0.
    3000001    1    3    3    0    0  0.10344299891E+01  0.60712150701E+01  0.31342167431E+02  0.31957176926E+02  0.10000000000E+01 0.  1.
    1000022    2    1    0    0    0  0.42648199883E+01  0.24653877307E+01  0.61497831913E+02  0.62499999559E+02  0.99999894340E+01 0.  0.
    3000022    2    3    3    0    0  0.32303899992E+01 -0.36058273393E+01  0.30155664482E+02  0.30542822633E+02  0.25000734117E+00 0.  0.
    1000022    2    1    0    0    0 -0.42648199883E+01 -0.24653877307E+01 -0.61497831913E+02  0.62500000441E+02  0.99999949476E+01 0.  0.
    3000022    2    5    5    0    0 -0.47482592399E+01 -0.40363018374E+01 -0.59088518503E+02  0.59416775547E+02  0.24999839609E+00 0.  0.
        -13    1    4    4    0    0  0.14818897892E+01 -0.17005690910E+01  0.13675360013E+02  0.13860534949E+02  0.10500000000E+00 0. -1.
         13    1    4    4    0    0  0.17485002100E+01 -0.19052582483E+01  0.16480304469E+02  0.16682287684E+02  0.10500000000E+00 0.  1.
    3000001    1    5    5    0    0  0.48343925155E+00  0.15709141067E+01 -0.24093134103E+01  0.30832248944E+01  0.10000000000E+01 0.  1.
        -13    1    6    6    0    0 -0.17536186812E+01 -0.14226482823E+01 -0.21674972517E+02  0.21792534622E+02  0.10500000000E+00 0.  1.
         13    1    6    6    0    0 -0.29946405587E+01 -0.26136535551E+01 -0.37413545985E+02  0.37624240925E+02  0.10500000000E+00 0. -1.
</event>
<event>
11    0  0.3467594E-009  0.9118800E+02  0.7816531E-02  0.1126479E+00
         25   -1    0    0    0    0  0.00000000000E+00  0.00000000000E+00  0.99999998245E-14  0.12500000000E+03  0.12500000000E+03 0.  0.
    3000001    1    3    3    0    0  0.17998378413E+01  0.75604308629E+01  0.49797433151E+01  0.92842541204E+01  0.10000000000E+01 0.  1.
    1000022    2    1    0    0    0  0.70259596474E+01  0.59927802348E+02  0.12866398023E+02  0.62500001402E+02  0.10000018700E+02 0.  0.
    3000022    2    3    3    0    0  0.52261218061E+01  0.52367371485E+02  0.78866547082E+01  0.53215747282E+02  0.24998184104E+00 0.  0.
    1000022    2    1    0    0    0 -0.70259596474E+01 -0.59927802348E+02 -0.12866398023E+02  0.62499998598E+02  0.10000001169E+02 0.  0.
    3000022    2    5    5    0    0 -0.30578219637E+01 -0.66904832811E+01  0.74505543891E+00  0.73980029581E+01  0.24999692734E+00 0.  0.
        -13    1    4    4    0    0  0.14087389341E+01  0.14389846695E+02  0.21402715822E+01  0.14616566653E+02  0.10500000000E+00 0.  1.
         13    1    4    4    0    0  0.38173828719E+01  0.37977524790E+02  0.57463831260E+01  0.38599180629E+02  0.10500000000E+00 0. -1.
    3000001    1    5    5    0    0 -0.39681376837E+01 -0.53237319067E+02 -0.13611453462E+02  0.55101995639E+02  0.10000000000E+01 0.  1.
        -13    1    6    6    0    0 -0.13061939509E+01 -0.27569978753E+01  0.35811849962E+00  0.30735083832E+01  0.10500000000E+00 0.  1.
         13    1    6    6    0    0 -0.17516280128E+01 -0.39334854058E+01  0.38693693929E+00  0.43244945749E+01  0.10500000000E+00 0. -1.
</event>
<event>
11    0  0.3467594E-009  0.9118800E+02  0.7816531E-02  0.1126479E+00
         25   -1    0    0    0    0  0.00000000000E+00  0.00000000000E+00  0.99999998245E-14  0.12500000000E+03  0.12500000000E+03 0.  0.
    3000001    1    3    3    0    0  0.17881751583E+02  0.35064673627E+02  0.36672544098E+01  0.39544116264E+02  0.10000000000E+01 0.  1.
    1000022    2    1    0    0    0  0.22214188123E+02  0.56655286879E+02  0.10146864614E+02  0.62499996481E+02  0.99999506640E+01 0.  0.
    3000022    2    3    3    0    0  0.43324365401E+01  0.21590613252E+02  0.64796102041E+01  0.22955880216E+02  0.25000225120E+00 0.  0.
    1000022    2    1    0    0    0 -0.22214188123E+02 -0.56655286879E+02 -0.10146864614E+02  0.62500003519E+02  0.99999946529E+01 0.  0.
    3000022    2    5    5    0    0 -0.12288877307E+02 -0.32156667532E+02 -0.76644539746E+00  0.34434251981E+02  0.24999744149E+00 0.  0.
        -13    1    4    4    0    0  0.11224412969E+01  0.57311954331E+01  0.17400371426E+01  0.60946886561E+01  0.10500000000E+00 0. -1.
         13    1    4    4    0    0  0.32099952432E+01  0.15859417819E+02  0.47395730615E+01  0.16861191560E+02  0.10500000000E+00 0.  1.
    3000001    1    5    5    0    0 -0.99253108160E+01 -0.24498619347E+02 -0.93804192164E+01  0.28065751538E+02  0.10000000000E+01 0.  1.
        -13    1    6    6    0    0 -0.89415420039E+01 -0.23337368745E+02 -0.58717879716E+00  0.24998795117E+02  0.10500000000E+00 0.  1.
         13    1    6    6    0    0 -0.33473353028E+01 -0.88192987870E+01 -0.17926660030E+00  0.94354568643E+01  0.10500000000E+00 0. -1.
</event>
<event>
11    0  0.3467594E-009  0.9118800E+02  0.7816531E-02  0.1126479E+00
         25   -1    0    0    0    0  0.00000000000E+00  0.00000000000E+00  0.99999998245E-14  0.12500000000E+03  0.12500000000E+03 0.  0.
    3000001    1    3    3    0    0  0.23348214581E+02  0.74430171922E+01 -0.25027867137E+02  0.35041857292E+02  0.10000000000E+01 0.  1.
    1000022    2    1    0    0    0  0.41615704393E+02  0.45353135992E+01 -0.45319026736E+02  0.62499999755E+02  0.99999931768E+01 0.  0.
    3000022    2    3    3    0    0  0.18267489813E+02 -0.29077035931E+01 -0.20291159598E+02  0.27458142463E+02  0.25001088684E+00 0.  0.
    1000022    2    1    0    0    0 -0.41615704393E+02 -0.45353135992E+01  0.45319026736E+02  0.62500000245E+02  0.99999962378E+01 0.  0.
    3000022    2    5    5    0    0 -0.31138701075E+00  0.10704230729E+01  0.39560058577E+00  0.12090128559E+01  0.24988964956E+00 0.  0.
        -13    1    4    4    0    0  0.73389374887E+01 -0.12173191521E+01 -0.81005478785E+01  0.10998716758E+02  0.10500000000E+00 0. -1.
         13    1    4    4    0    0  0.10928552324E+02 -0.16903844409E+01 -0.12190611720E+02  0.16459425706E+02  0.10500000000E+00 0.  1.
    3000001    1    5    5    0    0 -0.41304317383E+02 -0.56057366720E+01  0.44923426150E+02  0.61290987389E+02  0.10000000000E+01 0. -1.
        -13    1    6    6    0    0 -0.49692887303E-01  0.31934803594E+00  0.10354151133E+00  0.35524413532E+00  0.10500000000E+00 0.  1.
         13    1    6    6    0    0 -0.26169412345E+00  0.75107503691E+00  0.29205907444E+00  0.85376872061E+00  0.10500000000E+00 0. -1.
</event>
<event>
11    0  0.3467594E-009  0.9118800E+02  0.7816531E-02  0.1126479E+00
         25   -1    0    0    0    0  0.00000000000E+00  0.00000000000E+00  0.99999998245E-14  0.12500000000E+03  0.12500000000E+03 0.  0.
    3000001    1    3    3    0    0 -0.19968418219E+01 -0.32099970287E+02  0.89108172820E+01  0.33388592877E+02  0.10000000000E+01 0. -1.
    1000022    2    1    0    0    0 -0.68050191928E+01 -0.60795677921E+02  0.79892283775E+01  0.62500000094E+02  0.99999750801E+01 0.  0.
    3000022    2    3    3    0    0 -0.48081773709E+01 -0.28695707634E+02 -0.92158890450E+00  0.29111407217E+02  0.24999557983E+00 0.  0.
    1000022    2    1    0    0    0  0.68050191928E+01  0.60795677921E+02 -0.79892283775E+01  0.62499999906E+02  0.99999739041E+01 0.  0.
    3000022    2    5    5    0    0  0.51595052858E+01  0.21609641330E+02  0.10337508390E+01  0.22242487145E+02  0.25000081390E+00 0.  0.
        -13    1    4    4    0    0 -0.25392935943E+01 -0.14768808669E+02 -0.45189749530E+00  0.14992696815E+02  0.10500000000E+00 0.  1.
         13    1    4    4    0    0 -0.22688837767E+01 -0.13926898966E+02 -0.46969140919E+00  0.14118710402E+02  0.10500000000E+00 0. -1.
    3000001    1    5    5    0    0  0.16455139071E+01  0.39186036591E+02 -0.90229792164E+01  0.40257512760E+02  0.10000000000E+01 0.  1.
        -13    1    6    6    0    0  0.38905801761E+01  0.16216922159E+02  0.75733549972E+00  0.16694602735E+02  0.10500000000E+00 0. -1.
         13    1    6    6    0    0  0.12689251097E+01  0.53927191711E+01  0.27641533924E+00  0.55478844105E+01  0.10500000000E+00 0.  1.
</event>
<event>
11    0  0.3467594E-009  0.9118800E+02  0.7816531E-02  0.1126479E+00
         25   -1    0    0    0    0  0.00000000000E+00  0.00000000000E+00  0.99999998245E-14  0.12500000000E+03  0.12500000000E+03 0.  0.
    3000001    1    3    3    0    0  0.18596667485E+00  0.49361554492E+01 -0.27380201950E+02  0.27840180909E+02  0.10000000000E+01 0.  1.
    1000022    2    1    0    0    0  0.10469658077E+02  0.14852077078E+02 -0.58958053513E+02  0.62499999729E+02  0.99999979177E+01 0.  0.
    3000022    2    3    3    0    0  0.10283691402E+02  0.99159216289E+01 -0.31577851563E+02  0.34659818820E+02  0.25004144393E+00 0.  0.
    1000022    2    1    0    0    0 -0.10469658077E+02 -0.14852077078E+02  0.58958053513E+02  0.62500000271E+02  0.10000001303E+02 0.  0.
    3000022    2    5    5    0    0 -0.42751954540E+01  0.28949809270E+00  0.14242231114E+02  0.14874970732E+02  0.25000367463E+00 0.  0.
        -13    1    4    4    0    0  0.58816368411E+01  0.56603347293E+01 -0.18200739519E+02  0.19947706265E+02  0.10500000000E+00 0.  1.
         13    1    4    4    0    0  0.44020545611E+01  0.42555868995E+01 -0.13377112043E+02  0.14712112555E+02  0.10500000000E+00 0. -1.
    3000001    1    5    5    0    0 -0.61944626231E+01 -0.15141575171E+02  0.44715822398E+02  0.47625029539E+02  0.10000000000E+01 0.  1.
        -13    1    6    6    0    0 -0.23451735354E+01  0.18260927152E+00  0.75995385083E+01  0.79559534687E+01  0.10500000000E+00 0. -1.
         13    1    6    6    0    0 -0.19300219186E+01  0.10688882118E+00  0.66426926060E+01  0.69190172629E+01  0.10500000000E+00 0.  1.
</event>
<event>
11    0  0.3467594E-009  0.9118800E+02  0.7816531E-02  0.1126479E+00
         25   -1    0    0    0    0  0.00000000000E+00  0.00000000000E+00  0.99999998245E-14  0.12500000000E+03  0.12500000000E+03 0.  0.
    3000001    1    3    3    0    0  0.27427917969E+02 -0.95639639822E+01 -0.29507215110E+02  0.41417820256E+02  0.10000000000E+01 0. -1.
    1000022    2    1    0    0    0  0.35744935786E+02 -0.17916676788E+02 -0.46984490639E+02  0.62499998943E+02  0.99999882910E+01 0.  0.
    3000022    2    3    3    0    0  0.83170178168E+01 -0.83527128054E+01 -0.17477275529E+02  0.21082178687E+02  0.25000344038E+00 0.  0.
    1000022    2    1    0    0    0 -0.35744935786E+02  0.17916676788E+02  0.46984490639E+02  0.62500001057E+02  0.10000001504E+02 0.  0.
    3000022    2    5    5    0    0 -0.12133189810E+02  0.90698340124E+01  0.23911709295E+02  0.28307393463E+02  0.24999858796E+00 0.  0.
        -13    1    4    4    0    0  0.51640746328E+01 -0.52349880832E+01 -0.10813294329E+02  0.13077122248E+02  0.10500000000E+00 0.  1.
         13    1    4    4    0    0  0.31529431841E+01 -0.31177247222E+01 -0.66639812000E+01  0.80050564395E+01  0.10500000000E+00 0. -1.
    3000001    1    5    5    0    0 -0.23611745976E+02  0.88468427751E+01  0.23072781344E+02  0.34192607594E+02  0.10000000000E+01 0.  1.
        -13    1    6    6    0    0 -0.58532086715E+01  0.43495907190E+01  0.11390669801E+02  0.13525434362E+02  0.10500000000E+00 0. -1.
         13    1    6    6    0    0 -0.62799811380E+01  0.47202432934E+01  0.12521039494E+02  0.14781959100E+02  0.10500000000E+00 0.  1.
</event>
<event>
11    0  0.3467594E-009  0.9118800E+02  0.7816531E-02  0.1126479E+00
         25   -1    0    0    0    0  0.00000000000E+00  0.00000000000E+00  0.99999998245E-14  0.12500000000E+03  0.12500000000E+03 0.  0.
    3000001    1    3    3    0    0 -0.12114039760E+02 -0.73031201995E+01  0.36937843229E+02  0.39566270817E+02  0.10000000000E+01 0. -1.
    1000022    2    1    0    0    0 -0.12122489212E+02 -0.91551946771E+01  0.59795297293E+02  0.62500000472E+02  0.10000007320E+02 0.  0.
    3000022    2    3    3    0    0 -0.84494518802E-02 -0.18520744777E+01  0.22857454064E+02  0.22933729655E+02  0.24999669479E+00 0.  0.
    1000022    2    1    0    0    0  0.12122489212E+02  0.91551946771E+01 -0.59795297293E+02  0.62499999528E+02  0.10000001417E+02 0.  0.
    3000022    2    5    5    0    0  0.63306693033E+01  0.11387643233E+00 -0.12790965920E+02  0.14274510610E+02  0.25000468213E+00 0.  0.
        -13    1    4    4    0    0 -0.98207488113E-02 -0.42328229185E+00  0.52878477988E+01  0.53058103706E+01  0.10500000000E+00 0.  1.
         13    1    4    4    0    0  0.13712969310E-02 -0.14287921858E+01  0.17569606265E+02  0.17627919284E+02  0.10500000000E+00 0. -1.
    3000001    1    5    5    0    0  0.57918199090E+01  0.90413182448E+01 -0.47004331373E+02  0.48225488917E+02  0.10000000000E+01 0. -1.
        -13    1    6    6    0    0  0.40745844621E+01  0.12617071338E+00 -0.81805116644E+01  0.91405663763E+01  0.10500000000E+00 0.  1.
         13    1    6    6    0    0  0.22560848412E+01 -0.12294281045E-01 -0.46104542552E+01  0.51339442341E+01  0.10500000000E+00 0. -1.
</event>
<event>
11    0  0.3467594E-009  0.9118800E+02  0.7816531E-02  0.1126479E+00
         25   -1    0    0    0    0  0.00000000000E+00  0.00000000000E+00  0.99999998245E-14  0.12500000000E+03  0.12500000000E+03 0.  0.
    3000001    1    3    3    0    0  0.22089655199E+02  0.35181196546E+02  0.11616420844E+02  0.43146386760E+02  0.10000000000E+01 0. -1.
    1000022    2    1    0    0    0  0.33152890520E+02  0.47100404474E+02  0.22106280638E+02  0.62500000128E+02  0.10000006047E+02 0.  0.
    3000022    2    3    3    0    0  0.11063235321E+02  0.11919207928E+02  0.10489859794E+02  0.19353613368E+02  0.24999701969E+00 0.  0.
    1000022    2    1    0    0    0 -0.33152890520E+02 -0.47100404474E+02 -0.22106280638E+02  0.62499999872E+02  0.10000004445E+02 0.  0.
    3000022    2    5    5    0    0 -0.82453644149E+01 -0.12137057538E+02 -0.11517527443E+01  0.14720163907E+02  0.24998206674E+00 0.  0.
        -13    1    4    4    0    0  0.68305488887E+01  0.74481027682E+01  0.65152289548E+01  0.12024552644E+02  0.10500000000E+00 0. -1.
         13    1    4    4    0    0  0.42326864321E+01  0.44711051597E+01  0.39746308396E+01  0.73290607238E+01  0.10500000000E+00 0.  1.
    3000001    1    5    5    0    0 -0.24907526105E+02 -0.34963346936E+02 -0.20954527894E+02  0.47779835965E+02  0.10000000000E+01 0. -1.
        -13    1    6    6    0    0 -0.44281701267E+01 -0.64947657331E+01 -0.68313067504E+00  0.78910306753E+01  0.10500000000E+00 0. -1.
         13    1    6    6    0    0 -0.38171942882E+01 -0.56422918051E+01 -0.46862206931E+00  0.68291332313E+01  0.10500000000E+00 0.  1.
</event>
<event>
11    0  0.3467594E-009  0.9118800E+02  0.7816531E-02  0.1126479E+00
         25   -1    0    0    0    0  0.00000000000E+00  0.00000000000E+00  0.99999998245E-14  0.12500000000E+03  0.12500000000E+03 0.  0.
    3000001    1    3    3    0    0  0.21172091800E+00 -0.22507939606E+02 -0.33870817972E+01  0.22784303680E+02  0.10000000000E+01 0. -1.
    1000022    2    1    0    0    0 -0.85674070044E+01 -0.61097022780E+02 -0.57877979538E-01  0.62499999900E+02  0.99999991148E+01 0.  0.
    3000022    2    3    3    0    0 -0.87791279224E+01 -0.38589083173E+02  0.33292038177E+01  0.39715696220E+02  0.25000189596E+00 0.  0.
    1000022    2    1    0    0    0  0.85674070044E+01  0.61097022780E+02  0.57877979538E-01  0.62500000100E+02  0.10000000369E+02 0.  0.
    3000022    2    5    5    0    0  0.10137908371E+02  0.38431745435E+02 -0.53164139851E+00  0.39750740667E+02  0.24999540651E+00 0.  0.
        -13    1    4    4    0    0 -0.66796189370E+01 -0.29317737023E+02  0.25466188076E+01  0.30176867061E+02  0.10500000000E+00 0. -1.
         13    1    4    4    0    0 -0.20995089853E+01 -0.92713461502E+01  0.78258501012E+00  0.95388291585E+01  0.10500000000E+00 0.  1.
    3000001    1    5    5    0    0 -0.15705013670E+01  0.22665277345E+02  0.58951937805E+00  0.22749259433E+02  0.10000000000E+01 0.  1.
        -13    1    6    6    0    0  0.55119341379E+01  0.20752930127E+02 -0.34362584880E+00  0.21475442499E+02  0.10500000000E+00 0. -1.
         13    1    6    6    0    0  0.46259742334E+01  0.17678815307E+02 -0.18801554971E+00  0.18275298168E+02  0.10500000000E+00 0.  1.
</event>
<event>
11    0  0.3467594E-009  0.9118800E+02  0.7816531E-02  0.1126479E+00
         25   -1    0    0    0    0  0.00000000000E+00  0.00000000000E+00  0.99999998245E-14  0.12500000000E+03  0.12500000000E+03 0.  0.
    3000001    1    3    3    0    0 -0.12977800987E-01  0.29033089176E+00 -0.76523500846E+00  0.12923022356E+01  0.10000000000E+01 0.  1.
    1000022    2    1    0    0    0 -0.14412402888E+02  0.57350025685E+02 -0.17592816238E+02  0.62499999468E+02  0.99999973649E+01 0.  0.
    3000022    2    3    3    0    0 -0.14399425087E+02  0.57059694793E+02 -0.16827581229E+02  0.61207697233E+02  0.24999554902E+00 0.  0.
    1000022    2    1    0    0    0  0.14412402888E+02 -0.57350025685E+02  0.17592816238E+02  0.62500000532E+02  0.10000004009E+02 0.  0.
    3000022    2    5    5    0    0 -0.89234749736E+00 -0.65797691688E+01  0.73856229986E-01  0.66451145247E+01  0.24989184296E+00 0.  0.
        -13    1    4    4    0    0 -0.95453421230E+01  0.38008289484E+02 -0.11175276302E+02  0.40750968714E+02  0.10500000000E+00 0. -1.
         13    1    4    4    0    0 -0.48540829640E+01  0.19051405310E+02 -0.56523049268E+01  0.20456728518E+02  0.10500000000E+00 0.  1.
    3000001    1    5    5    0    0  0.15304750385E+02 -0.50770256516E+02  0.17518960008E+02  0.55854886007E+02  0.10000000000E+01 0. -1.
        -13    1    6    6    0    0 -0.28930740948E+00 -0.25946705457E+01  0.34317730941E-01  0.26130856711E+01  0.10500000000E+00 0. -1.
         13    1    6    6    0    0 -0.60304008788E+00 -0.39850986231E+01  0.39538499045E-01  0.40320288536E+01  0.10500000000E+00 0.  1.
</event>
<event>
11    0  0.3467594E-009  0.9118800E+02  0.7816531E-02  0.1126479E+00
         25   -1    0    0    0    0  0.00000000000E+00  0.00000000000E+00  0.99999998245E-14  0.12500000000E+03  0.12500000000E+03 0.  0.
    3000001    1    3    3    0    0  0.20651928764E+01 -0.18359996952E+01  0.20458466679E+01  0.35806989661E+01  0.10000000000E+01 0.  1.
    1000022    2    1    0    0    0  0.32330345818E+02 -0.52291586547E+02  0.51564313332E+01  0.62499999198E+02  0.99999915662E+01 0.  0.
    3000022    2    3    3    0    0  0.30265152942E+02 -0.50455586852E+02  0.31105846653E+01  0.58919300232E+02  0.24995138606E+00 0.  0.
    1000022    2    1    0    0    0 -0.32330345818E+02  0.52291586547E+02 -0.51564313332E+01  0.62500000802E+02  0.10000001590E+02 0.  0.
    3000022    2    5    5    0    0 -0.15060122180E+02  0.31157791850E+02  0.49157668054E+00  0.34610972541E+02  0.24999910024E+00 0.  0.
        -13    1    4    4    0    0  0.17471360873E+02 -0.29121061185E+02  0.17304044936E+01  0.34004264144E+02  0.10500000000E+00 0. -1.
         13    1    4    4    0    0  0.12793792069E+02 -0.21334525667E+02  0.13801801717E+01  0.24915036088E+02  0.10500000000E+00 0.  1.
    3000001    1    5    5    0    0 -0.17270223639E+02  0.21133794697E+02 -0.56480080137E+01  0.27889028261E+02  0.10000000000E+01 0. -1.
        -13    1    6    6    0    0 -0.48548915381E+01  0.10075907300E+02  0.20844488639E+00  0.11186972515E+02  0.10500000000E+00 0. -1.
         13    1    6    6    0    0 -0.10205230642E+02  0.21081884550E+02  0.28313179415E+00  0.23424000026E+02  0.10500000000E+00 0.  1.
</event>
<event>
11    0  0.3467594E-009  0.9118800E+02  0.7816531E-02  0.1126479E+00
         25   -1    0    0    0    0  0.00000000000E+00  0.00000000000E+00  0.99999998245E-14  0.12500000000E+03  0.12500000000E+03 0.  0.
    3000001    1    3    3    0    0 -0.11375466447E+01 -0.51342614331E+02  0.15118748668E+02  0.53543763596E+02  0.10000000000E+01 0. -1.
    1000022    2    1    0    0    0 -0.46178715066E+01 -0.58370700429E+02  0.19436744248E+02  0.62500003801E+02  0.10000002115E+02 0.  0.
    3000022    2    3    3    0    0 -0.34803248619E+01 -0.70280860976E+01  0.43179955801E+01  0.89562402045E+01  0.24999486450E+00 0.  0.
    1000022    2    1    0    0    0  0.46178715066E+01  0.58370700429E+02 -0.19436744248E+02  0.62499996199E+02  0.99999546063E+01 0.  0.
    3000022    2    5    5    0    0 -0.19515136895E+01  0.22594313251E+02 -0.10702166950E+02  0.25078083609E+02  0.25000618477E+00 0.  0.
        -13    1    4    4    0    0 -0.16250866624E+01 -0.34237741853E+01  0.21144786451E+01  0.43411036930E+01  0.10500000000E+00 0.  1.
         13    1    4    4    0    0 -0.18552381995E+01 -0.36043119122E+01  0.22035169350E+01  0.46151365116E+01  0.10500000000E+00 0. -1.
    3000001    1    5    5    0    0  0.65693851961E+01  0.35776387178E+02 -0.87345772980E+01  0.37421912591E+02  0.10000000000E+01 0.  1.
        -13    1    6    6    0    0 -0.12277195253E+01  0.14667266463E+02 -0.69000971215E+01  0.16256025529E+02  0.10500000000E+00 0. -1.
         13    1    6    6    0    0 -0.72379416425E+00  0.79270467881E+01 -0.38020698288E+01  0.88220580794E+01  0.10500000000E+00 0.  1.
</event>
<event>
11    0  0.3467594E-009  0.9118800E+02  0.7816531E-02  0.1126479E+00
         25   -1    0    0    0    0  0.00000000000E+00  0.00000000000E+00  0.99999998245E-14  0.12500000000E+03  0.12500000000E+03 0.  0.
    3000001    1    3    3    0    0 -0.15790940277E+02 -0.18888538201E+02  0.41461204402E+01  0.24986416007E+02  0.10000000000E+01 0. -1.
    1000022    2    1    0    0    0 -0.44695178138E+02 -0.38835182334E+02  0.17332599997E+02  0.62500004475E+02  0.10000060056E+02 0.  0.
    3000022    2    3    3    0    0 -0.28904237861E+02 -0.19946644133E+02  0.13186479556E+02  0.37513588468E+02  0.24999631839E+00 0.  0.
    1000022    2    1    0    0    0  0.44695178138E+02  0.38835182334E+02 -0.17332599997E+02  0.62499995525E+02  0.10000004113E+02 0.  0.
    3000022    2    5    5    0    0  0.39487422782E+01  0.43293862135E+00 -0.19113936564E+01  0.44154195823E+01  0.25000589701E+00 0.  0.
        -13    1    4    4    0    0 -0.10795459419E+02 -0.73816240690E+01  0.48885169012E+01  0.13962053590E+02  0.10500000000E+00 0. -1.
         13    1    4    4    0    0 -0.18108778442E+02 -0.12565020064E+02  0.82979626552E+01  0.23551534878E+02  0.10500000000E+00 0.  1.
    3000001    1    5    5    0    0  0.40746435859E+02  0.38402243712E+02 -0.15421206340E+02  0.58084575942E+02  0.10000000000E+01 0.  1.
        -13    1    6    6    0    0  0.26067811715E+01  0.23856111012E+00 -0.12899842282E+01  0.29201547542E+01  0.10500000000E+00 0.  1.
         13    1    6    6    0    0  0.13419611067E+01  0.19437751124E+00 -0.62140942828E+00  0.14952648282E+01  0.10500000000E+00 0. -1.
</event>
<event>
11    0  0.3467594E-009  0.9118800E+02  0.7816531E-02  0.1126479E+00
         25   -1    0    0    0    0  0.00000000000E+00  0.00000000000E+00  0.99999998245E-14  0.12500000000E+03  0.12500000000E+03 0.  0.
    3000001    1    3    3    0    0  0.23740218874E+02 -0.21904039509E+02 -0.33246098806E+02  0.46364728240E+02  0.10000000000E+01 0.  1.
    1000022    2    1    0    0    0  0.32134916483E+02 -0.24043467171E+02 -0.46856257268E+02  0.62500000569E+02  0.10000002751E+02 0.  0.
    3000022    2    3    3    0    0  0.83946976089E+01 -0.21394276619E+01 -0.13610158462E+02  0.16135272329E+02  0.25000218506E+00 0.  0.
    1000022    2    1    0    0    0 -0.32134916483E+02  0.24043467171E+02  0.46856257268E+02  0.62499999431E+02  0.99999956408E+01 0.  0.
    3000022    2    5    5    0    0 -0.12563036990E+01 -0.97249644296E+00  0.18283778531E+01  0.24350588456E+01  0.24999538436E+00 0.  0.
        -13    1    4    4    0    0  0.61415898216E+01 -0.15334941320E+01 -0.99762373304E+01  0.11815543410E+02  0.10500000000E+00 0. -1.
         13    1    4    4    0    0  0.22531077873E+01 -0.60593352987E+00 -0.36339211316E+01  0.43197289191E+01  0.10500000000E+00 0.  1.
    3000001    1    5    5    0    0 -0.30878612784E+02  0.25015963614E+02  0.45027879415E+02  0.60064940586E+02  0.10000000000E+01 0.  1.
        -13    1    6    6    0    0 -0.42158586324E+00 -0.39850660529E+00  0.69211298395E+00  0.90916859663E+00  0.10500000000E+00 0. -1.
         13    1    6    6    0    0 -0.83471783573E+00 -0.57398983767E+00  0.11362648691E+01  0.15258902489E+01  0.10500000000E+00 0.  1.
</event>
<event>
11    0  0.3467594E-009  0.9118800E+02  0.7816531E-02  0.1126479E+00
         25   -1    0    0    0    0  0.00000000000E+00  0.00000000000E+00  0.99999998245E-14  0.12500000000E+03  0.12500000000E+03 0.  0.
    3000001    1    3    3    0    0 -0.65385840404E+01  0.12145366519E+02 -0.86886391202E+01  0.16332650088E+02  0.10000000000E+01 0.  1.
    1000022    2    1    0    0    0 -0.33416665150E+02  0.48187875003E+02 -0.19170427815E+02  0.62499998472E+02  0.99999849648E+01 0.  0.
    3000022    2    3    3    0    0 -0.26878081109E+02  0.36042508484E+02 -0.10481788695E+02  0.46167348384E+02  0.25000118576E+00 0.  0.
    1000022    2    1    0    0    0  0.33416665150E+02 -0.48187875003E+02  0.19170427815E+02  0.62500001528E+02  0.10000004068E+02 0.  0.
    3000022    2    5    5    0    0  0.22891247206E+02 -0.35276159408E+02  0.91589866375E+01  0.43039123414E+02  0.24997369624E+00 0.  0.
        -13    1    4    4    0    0 -0.17703451723E+02  0.23671442597E+02 -0.69293529549E+01  0.30360769999E+02  0.10500000000E+00 0. -1.
         13    1    4    4    0    0 -0.91746293865E+01  0.12371065887E+02 -0.35524357402E+01  0.15806578385E+02  0.10500000000E+00 0.  1.
    3000001    1    5    5    0    0  0.10525417944E+02 -0.12911715595E+02  0.10011441178E+02  0.19460878114E+02  0.10000000000E+01 0. -1.
        -13    1    6    6    0    0  0.78582056071E+01 -0.12177191277E+02  0.31138087689E+01  0.14823704423E+02  0.10500000000E+00 0. -1.
         13    1    6    6    0    0  0.15033041599E+02 -0.23098968131E+02  0.60451778686E+01  0.28215418992E+02  0.10500000000E+00 0.  1.
</event>
<event>
11    0  0.3467594E-009  0.9118800E+02  0.7816531E-02  0.1126479E+00
         25   -1    0    0    0    0  0.00000000000E+00  0.00000000000E+00  0.99999998245E-14  0.12500000000E+03  0.12500000000E+03 0.  0.
    3000001    1    3    3    0    0  0.62544688482E-01 -0.16182357962E+02  0.42909342555E+02  0.45870298664E+02  0.10000000000E+01 0. -1.
    1000022    2    1    0    0    0 -0.57615905649E+01 -0.22234707867E+02  0.57259698313E+02  0.62499991951E+02  0.99998891636E+01 0.  0.
    3000022    2    3    3    0    0 -0.58241352534E+01 -0.60523499054E+01  0.14350355757E+02  0.16629693287E+02  0.24999525063E+00 0.  0.
    1000022    2    1    0    0    0  0.57615905649E+01  0.22234707867E+02 -0.57259698313E+02  0.62500008049E+02  0.99999897748E+01 0.  0.
    3000022    2    5    5    0    0 -0.65280386733E+00  0.16539484175E+01 -0.63860764081E+00  0.19057837011E+01  0.24998707872E+00 0.  0.
        -13    1    4    4    0    0 -0.25776879183E+01 -0.26049392589E+01  0.61789769598E+01  0.71847731222E+01  0.10500000000E+00 0. -1.
         13    1    4    4    0    0 -0.32464473351E+01 -0.34474106464E+01  0.81713787976E+01  0.94449201647E+01  0.10500000000E+00 0.  1.
    3000001    1    5    5    0    0  0.64143944322E+01  0.20580759449E+02 -0.56621090672E+02  0.60594224348E+02  0.10000000000E+01 0. -1.
        -13    1    6    6    0    0 -0.26138330916E+00  0.84350395079E+00 -0.33008914151E+00  0.94857998642E+00  0.10500000000E+00 0. -1.
         13    1    6    6    0    0 -0.39142055816E+00  0.81044446673E+00 -0.30851849931E+00  0.95720371469E+00  0.10500000000E+00 0.  1.
</event>
<event>
11    0  0.3467594E-009  0.9118800E+02  0.7816531E-02  0.1126479E+00
         25   -1    0    0    0    0  0.00000000000E+00  0.00000000000E+00  0.99999998245E-14  0.12500000000E+03  0.12500000000E+03 0.  0.
    3000001    1    3    3    0    0  0.18199357291E+02  0.16952397619E+02  0.19866651408E+01  0.24970927681E+02  0.10000000000E+01 0. -1.
    1000022    2    1    0    0    0  0.51006763743E+02  0.33105907727E+02  0.10419156645E+02  0.62499999633E+02  0.10000002748E+02 0.  0.
    3000022    2    3    3    0    0  0.32807406452E+02  0.16153510107E+02  0.84324915038E+01  0.37529071952E+02  0.25004344564E+00 0.  0.
    1000022    2    1    0    0    0 -0.51006763743E+02 -0.33105907727E+02 -0.10419156645E+02  0.62500000367E+02  0.10000007339E+02 0.  0.
    3000022    2    5    5    0    0 -0.17655719944E+01  0.66924087143E+00 -0.38280711429E+00  0.19427221957E+01  0.25000086320E+00 0.  0.
        -13    1    4    4    0    0  0.19467336332E+02  0.96536619461E+01  0.50277677939E+01  0.22303807899E+02  0.10500000000E+00 0. -1.
         13    1    4    4    0    0  0.13340070120E+02  0.64998481613E+01  0.34047237099E+01  0.15225264052E+02  0.10500000000E+00 0.  1.
    3000001    1    5    5    0    0 -0.49241191749E+02 -0.33775148598E+02 -0.10036349530E+02  0.60557278172E+02  0.10000000000E+01 0. -1.
        -13    1    6    6    0    0 -0.12685067978E+01  0.45298505675E+00 -0.30590332045E+00  0.13852461150E+01  0.10500000000E+00 0. -1.
         13    1    6    6    0    0 -0.49706519660E+00  0.21625581468E+00 -0.76903793835E-01  0.55747608070E+00  0.10500000000E+00 0.  1.
</event>
<event>
11    0  0.3467594E-009  0.9118800E+02  0.7816531E-02  0.1126479E+00
         25   -1    0    0    0    0  0.00000000000E+00  0.00000000000E+00  0.99999998245E-14  0.12500000000E+03  0.12500000000E+03 0.  0.
    3000001    1    3    3    0    0 -0.29970533666E+02  0.28495179731E+02 -0.90440936898E+01  0.42343875435E+02  0.10000000000E+01 0. -1.
    1000022    2    1    0    0    0 -0.38712718178E+02  0.46091064583E+02 -0.13534738875E+02  0.62499999730E+02  0.10000001334E+02 0.  0.
    3000022    2    3    3    0    0 -0.87421845119E+01  0.17595884851E+02 -0.44906451850E+01  0.20156124295E+02  0.24999734050E+00 0.  0.
    1000022    2    1    0    0    0  0.38712718178E+02 -0.46091064583E+02  0.13534738875E+02  0.62500000270E+02  0.10000004714E+02 0.  0.
    3000022    2    5    5    0    0  0.31540897098E+01 -0.88473175743E+01  0.35139882962E+01  0.10031646075E+02  0.24999815496E+00 0.  0.
        -13    1    4    4    0    0 -0.26185357699E+01  0.51963878543E+01 -0.13611138329E+01  0.59768580522E+01  0.10500000000E+00 0. -1.
         13    1    4    4    0    0 -0.61236487420E+01  0.12399496997E+02 -0.31295313521E+01  0.14179266242E+02  0.10500000000E+00 0.  1.
    3000001    1    5    5    0    0  0.35558628469E+02 -0.37243747008E+02  0.10020750579E+02  0.52468354195E+02  0.10000000000E+01 0. -1.
        -13    1    6    6    0    0  0.18078774139E+01 -0.51752700493E+01  0.21085439715E+01  0.58744211210E+01  0.10500000000E+00 0. -1.
         13    1    6    6    0    0  0.13462122959E+01 -0.36720475250E+01  0.14054443247E+01  0.41572249544E+01  0.10500000000E+00 0.  1.
</event>
<event>
11    0  0.3467594E-009  0.9118800E+02  0.7816531E-02  0.1126479E+00
         25   -1    0    0    0    0  0.00000000000E+00  0.00000000000E+00  0.99999998245E-14  0.12500000000E+03  0.12500000000E+03 0.  0.
    3000001    1    3    3    0    0  0.14909491062E+01  0.33796003689E+01 -0.27781015967E+02  0.28043349943E+02  0.10000000000E+01 0.  1.
    1000022    2    1    0    0    0 -0.75050092006E+01  0.62049464761E+01 -0.60921451490E+02  0.62500001126E+02  0.10000018262E+02 0.  0.
    3000022    2    3    3    0    0 -0.89959583068E+01  0.28253461072E+01 -0.33140435523E+02  0.34456651183E+02  0.24999517844E+00 0.  0.
    1000022    2    1    0    0    0  0.75050092006E+01 -0.62049464761E+01  0.60921451490E+02  0.62499998874E+02  0.10000004187E+02 0.  0.
    3000022    2    5    5    0    0  0.53775444467E+01  0.14896425014E+01  0.31834303226E+02  0.32320618497E+02  0.24999817464E+00 0.  0.
        -13    1    4    4    0    0 -0.59158726273E+01  0.18003746617E+01 -0.21758185064E+02  0.22620091515E+02  0.10500000000E+00 0. -1.
         13    1    4    4    0    0 -0.30800856794E+01  0.10249714455E+01 -0.11382250459E+02  0.11836559667E+02  0.10500000000E+00 0.  1.
    3000001    1    5    5    0    0  0.21274647539E+01 -0.76945889775E+01  0.29087148264E+02  0.30179380377E+02  0.10000000000E+01 0.  1.
        -13    1    6    6    0    0  0.21704189118E+01  0.64537595921E+00  0.13195402076E+02  0.13388685123E+02  0.10500000000E+00 0.  1.
         13    1    6    6    0    0  0.32071255349E+01  0.84426654224E+00  0.18638901150E+02  0.18931933374E+02  0.10500000000E+00 0. -1.
</event>
<event>
11    0  0.3467594E-009  0.9118800E+02  0.7816531E-02  0.1126479E+00
         25   -1    0    0    0    0  0.00000000000E+00  0.00000000000E+00  0.99999998245E-14  0.12500000000E+03  0.12500000000E+03 0.  0.
    3000001    1    3    3    0    0 -0.17698546384E+01  0.16114383858E+01 -0.43999847483E+01  0.51077377476E+01  0.10000000000E+01 0. -1.
    1000022    2    1    0    0    0  0.94541657085E+01  0.18938727192E+02 -0.57949920941E+02  0.62499999736E+02  0.99999996481E+01 0.  0.
    3000022    2    3    3    0    0  0.11224020347E+02  0.17327288806E+02 -0.53549936193E+02  0.57392261988E+02  0.24999943890E+00 0.  0.
    1000022    2    1    0    0    0 -0.94541657085E+01 -0.18938727192E+02  0.57949920941E+02  0.62500000264E+02  0.10000002949E+02 0.  0.
    3000022    2    5    5    0    0 -0.92529517076E+01 -0.79352356600E+01  0.26646832853E+02  0.29303605327E+02  0.25000751055E+00 0.  0.
        -13    1    4    4    0    0  0.41989982794E+01  0.65513296981E+01 -0.20316437218E+02  0.21755922265E+02  0.10500000000E+00 0.  1.
         13    1    4    4    0    0  0.70250220676E+01  0.10775959108E+02 -0.33233498975E+02  0.35636339723E+02  0.10500000000E+00 0. -1.
    3000001    1    5    5    0    0 -0.20121400091E+00 -0.11003491532E+02  0.31303088088E+02  0.33196394937E+02  0.10000000000E+01 0.  1.
        -13    1    6    6    0    0 -0.41667526462E+01 -0.35107763851E+01  0.11799109763E+02  0.12996822482E+02  0.10500000000E+00 0. -1.
         13    1    6    6    0    0 -0.50861990615E+01 -0.44244592749E+01  0.14847723090E+02  0.16306782844E+02  0.10500000000E+00 0.  1.
</event>
<event>
11    0  0.3467594E-009  0.9118800E+02  0.7816531E-02  0.1126479E+00
         25   -1    0    0    0    0  0.00000000000E+00  0.00000000000E+00  0.99999998245E-14  0.12500000000E+03  0.12500000000E+03 0.  0.
    3000001    1    3    3    0    0  0.23768846500E+02  0.26691778352E+02 -0.31275751733E+02  0.47503491893E+02  0.10000000000E+01 0.  1.
    1000022    2    1    0    0    0  0.32914856216E+02  0.37434639304E+02 -0.36352580964E+02  0.62499999955E+02  0.99999936050E+01 0.  0.
    3000022    2    3    3    0    0  0.91460097163E+01  0.10742860952E+02 -0.50768292310E+01  0.14996508063E+02  0.25000772994E+00 0.  0.
    1000022    2    1    0    0    0 -0.32914856216E+02 -0.37434639304E+02  0.36352580964E+02  0.62500000045E+02  0.99999941636E+01 0.  0.
    3000022    2    5    5    0    0 -0.36905446793E+01 -0.82583113198E+00  0.42992684536E+01  0.57313461634E+01  0.25000504210E+00 0.  0.
        -13    1    4    4    0    0  0.49915665265E+01  0.58843079247E+01 -0.27070187978E+01  0.81780065978E+01  0.10500000000E+00 0. -1.
         13    1    4    4    0    0  0.41544431897E+01  0.48585530274E+01 -0.23698104332E+01  0.68185014649E+01  0.10500000000E+00 0.  1.
    3000001    1    5    5    0    0 -0.29224311537E+02 -0.36608808172E+02  0.32053312510E+02  0.56768653881E+02  0.10000000000E+01 0.  1.
        -13    1    6    6    0    0 -0.22016213665E+01 -0.54308576207E+00  0.25156341659E+01  0.33884390275E+01  0.10500000000E+00 0.  1.
         13    1    6    6    0    0 -0.14889233127E+01 -0.28274536991E+00  0.17836342877E+01  0.23429071359E+01  0.10500000000E+00 0. -1.
</event>
<event>
11    0  0.3467594E-009  0.9118800E+02  0.7816531E-02  0.1126479E+00
         25   -1    0    0    0    0  0.00000000000E+00  0.00000000000E+00  0.99999998245E-14  0.12500000000E+03  0.12500000000E+03 0.  0.
    3000001    1    3    3    0    0 -0.17741305007E+02 -0.29323252979E+02 -0.59144550308E+01  0.34793502942E+02  0.10000000000E+01 0.  1.
    1000022    2    1    0    0    0 -0.37781220794E+02 -0.46831587009E+02 -0.13624676935E+02  0.62500000156E+02  0.10000000572E+02 0.  0.
    3000022    2    3    3    0    0 -0.20039915786E+02 -0.17508334030E+02 -0.77102219040E+01  0.27706497214E+02  0.24996165935E+00 0.  0.
    1000022    2    1    0    0    0  0.37781220794E+02  0.46831587009E+02  0.13624676935E+02  0.62499999844E+02  0.99999986257E+01 0.  0.
    3000022    2    5    5    0    0  0.68922451141E+01  0.45818552481E+01 -0.45630201331E+00  0.82925961014E+01  0.24999669383E+00 0.  0.
        -13    1    4    4    0    0 -0.14144586510E+02 -0.12371363772E+02 -0.53998944963E+01  0.19552234008E+02  0.10500000000E+00 0. -1.
         13    1    4    4    0    0 -0.58953292764E+01 -0.51369702579E+01 -0.23103274077E+01  0.81542632063E+01  0.10500000000E+00 0.  1.
    3000001    1    5    5    0    0  0.30888975680E+02  0.42249731761E+02  0.14080978948E+02  0.54207403743E+02  0.10000000000E+01 0. -1.
        -13    1    6    6    0    0  0.52051308376E+01  0.34336458091E+01 -0.35354124267E+00  0.62465452043E+01  0.10500000000E+00 0.  1.
         13    1    6    6    0    0  0.16871142764E+01  0.11482094390E+01 -0.10276077064E+00  0.20460508971E+01  0.10500000000E+00 0. -1.
</event>
<event>
11    0  0.3467594E-009  0.9118800E+02  0.7816531E-02  0.1126479E+00
         25   -1    0    0    0    0  0.00000000000E+00  0.00000000000E+00  0.99999998245E-14  0.12500000000E+03  0.12500000000E+03 0.  0.
    3000001    1    3    3    0    0  0.69018529116E+01 -0.26609181853E+01 -0.48028622562E+01  0.88760095231E+01  0.10000000000E+01 0. -1.
    1000022    2    1    0    0    0  0.52200517807E+02 -0.30062351383E+02 -0.13327112373E+02  0.62500005455E+02  0.99999863865E+01 0.  0.
    3000022    2    3    3    0    0  0.45298664895E+02 -0.27401433198E+02 -0.85242501172E+01  0.53623995932E+02  0.25003420003E+00 0.  0.
    1000022    2    1    0    0    0 -0.52200517807E+02  0.30062351383E+02  0.13327112373E+02  0.62499994545E+02  0.99999181940E+01 0.  0.
    3000022    2    5    5    0    0 -0.37092572781E+01  0.48424536793E+01 -0.45774616099E+00  0.61220918463E+01  0.25005966334E+00 0.  0.
        -13    1    4    4    0    0  0.23641085217E+02 -0.14378975501E+02 -0.44642729729E+01  0.28028496301E+02  0.10500000000E+00 0.  1.
         13    1    4    4    0    0  0.21657579678E+02 -0.13022457697E+02 -0.40599771443E+01  0.25595499632E+02  0.10500000000E+00 0. -1.
    3000001    1    5    5    0    0 -0.48491260529E+02  0.25219897704E+02  0.13784858534E+02  0.56377902698E+02  0.10000000000E+01 0.  1.
        -13    1    6    6    0    0 -0.13658212218E+01  0.18706809764E+01 -0.14435803008E+00  0.23230968912E+01  0.10500000000E+00 0. -1.
         13    1    6    6    0    0 -0.23434360563E+01  0.29717727029E+01 -0.31338813091E+00  0.37989949550E+01  0.10500000000E+00 0.  1.
</event>
<event>
11    0  0.3467594E-009  0.9118800E+02  0.7816531E-02  0.1126479E+00
         25   -1    0    0    0    0  0.00000000000E+00  0.00000000000E+00  0.99999998245E-14  0.12500000000E+03  0.12500000000E+03 0.  0.
    3000001    1    3    3    0    0  0.22535313908E+02 -0.11000617022E+02 -0.21974458960E+02  0.33357619736E+02  0.10000000000E+01 0. -1.
    1000022    2    1    0    0    0  0.37871575024E+02 -0.28588517804E+02 -0.39429563106E+02  0.62499999868E+02  0.99999995832E+01 0.  0.
    3000022    2    3    3    0    0  0.15336261116E+02 -0.17587900781E+02 -0.17455104146E+02  0.29142380132E+02  0.25000020486E+00 0.  0.
    1000022    2    1    0    0    0 -0.37871575024E+02  0.28588517804E+02  0.39429563106E+02  0.62500000132E+02  0.10000001238E+02 0.  0.
    3000022    2    5    5    0    0 -0.46819545201E+00  0.54662425998E+00 -0.58224044394E+00  0.95891612919E+00  0.25002228975E+00 0.  0.
        -13    1    4    4    0    0  0.43835835422E+01 -0.50912020188E+01 -0.50204598861E+01  0.83876209461E+01  0.10500000000E+00 0.  1.
         13    1    4    4    0    0  0.10952677574E+02 -0.12496698763E+02 -0.12434644260E+02  0.20754759186E+02  0.10500000000E+00 0. -1.
    3000001    1    5    5    0    0 -0.37403379572E+02  0.28041893544E+02  0.40011803550E+02  0.61541084003E+02  0.10000000000E+01 0. -1.
        -13    1    6    6    0    0 -0.19131524416E+00  0.26860568828E+00 -0.34428137459E+00  0.48816513938E+00  0.10500000000E+00 0. -1.
         13    1    6    6    0    0 -0.27688020786E+00  0.27801857170E+00 -0.23795906935E+00  0.47075098981E+00  0.10500000000E+00 0.  1.
</event>
<event>
11    0  0.3467594E-009  0.9118800E+02  0.7816531E-02  0.1126479E+00
         25   -1    0    0    0    0  0.00000000000E+00  0.00000000000E+00  0.99999998245E-14  0.12500000000E+03  0.12500000000E+03 0.  0.
    3000001    1    3    3    0    0  0.82265784485E+01 -0.12091486240E+02 -0.92286318255E+01  0.17321901681E+02  0.10000000000E+01 0. -1.
    1000022    2    1    0    0    0  0.31931823484E+02 -0.49366212144E+02 -0.18697218300E+02  0.62499998848E+02  0.99999815671E+01 0.  0.
    3000022    2    3    3    0    0  0.23705245036E+02 -0.37274725904E+02 -0.94685864745E+01  0.45178097167E+02  0.25000081262E+00 0.  0.
    1000022    2    1    0    0    0 -0.31931823484E+02  0.49366212144E+02  0.18697218300E+02  0.62500001152E+02  0.99999959669E+01 0.  0.
    3000022    2    5    5    0    0 -0.53816096075E+00  0.22764808839E+01 -0.10146255467E+01  0.25620196657E+01  0.24999466604E+00 0.  0.
        -13    1    4    4    0    0  0.98213239686E+01 -0.15533340874E+02 -0.39829286820E+01  0.18804728903E+02  0.10500000000E+00 0. -1.
         13    1    4    4    0    0  0.13883921067E+02 -0.21741385030E+02 -0.54856577925E+01  0.26373368265E+02  0.10500000000E+00 0.  1.
    3000001    1    5    5    0    0 -0.31393662523E+02  0.47089731261E+02  0.19711843847E+02  0.59937981486E+02  0.10000000000E+01 0.  1.
        -13    1    6    6    0    0 -0.27799816782E+00  0.96653641442E+00 -0.38819207209E+00  0.10831406679E+01  0.10500000000E+00 0. -1.
         13    1    6    6    0    0 -0.26016279293E+00  0.13099444695E+01 -0.62643347459E+00  0.14788789978E+01  0.10500000000E+00 0.  1.
</event>
<event>
11    0  0.3467594E-009  0.9118800E+02  0.7816531E-02  0.1126479E+00
         25   -1    0    0    0    0  0.00000000000E+00  0.00000000000E+00  0.99999998245E-14  0.12500000000E+03  0.12500000000E+03 0.  0.
    3000001    1    3    3    0    0 -0.14696691980E+01  0.10536096540E+01 -0.74841998043E+00  0.21977609792E+01  0.10000000000E+01 0.  1.
    1000022    2    1    0    0    0 -0.52705137869E+02 -0.12133956418E+02 -0.29684771354E+02  0.62500000387E+02  0.99999970934E+01 0.  0.
    3000022    2    3    3    0    0 -0.51235468671E+02 -0.13187566072E+02 -0.28936351373E+02  0.60302239407E+02  0.24999583462E+00 0.  0.
    1000022    2    1    0    0    0  0.52705137869E+02  0.12133956418E+02  0.29684771354E+02  0.62499999613E+02  0.99999922610E+01 0.  0.
    3000022    2    5    5    0    0  0.80154554341E+01 -0.70539055438E+00  0.17209146142E+01  0.82322022512E+01  0.25001028974E+00 0.  0.
        -13    1    4    4    0    0 -0.20022830220E+02 -0.52108361279E+01 -0.11348359486E+02  0.23597941249E+02  0.10500000000E+00 0. -1.
         13    1    4    4    0    0 -0.31212638451E+02 -0.79767299440E+01 -0.17587991887E+02  0.36704298159E+02  0.10500000000E+00 0.  1.
    3000001    1    5    5    0    0  0.44689682435E+02  0.12839346972E+02  0.27963856739E+02  0.54267797362E+02  0.10000000000E+01 0. -1.
        -13    1    6    6    0    0  0.36237778115E+01 -0.28394007033E+00  0.83567731473E+00  0.37311887067E+01  0.10500000000E+00 0. -1.
         13    1    6    6    0    0  0.43916776227E+01 -0.42145048405E+00  0.88523729947E+00  0.45010135446E+01  0.10500000000E+00 0.  1.
</event>
<event>
11    0  0.3467594E-009  0.9118800E+02  0.7816531E-02  0.1126479E+00
         25   -1    0    0    0    0  0.00000000000E+00  0.00000000000E+00  0.99999998245E-14  0.12500000000E+03  0.12500000000E+03 0.  0.
    3000001    1    3    3    0    0 -0.69972197150E+01 -0.78840887260E+01 -0.12149841530E+01  0.10658148304E+02  0.10000000000E+01 0. -1.
    1000022    2    1    0    0    0 -0.51123999518E+02 -0.33804476241E+02  0.70600331475E+01  0.62500000137E+02  0.10000000418E+02 0.  0.
    3000022    2    3    3    0    0 -0.44126779803E+02 -0.25920387515E+02  0.82750173005E+01  0.51841851832E+02  0.25001072094E+00 0.  0.
    1000022    2    1    0    0    0  0.51123999518E+02  0.33804476241E+02 -0.70600331475E+01  0.62499999863E+02  0.99999987106E+01 0.  0.
    3000022    2    5    5    0    0 -0.12260829683E+00 -0.35449974719E+00 -0.28343993756E+00  0.53248685338E+00  0.25000237121E+00 0.  0.
        -13    1    4    4    0    0 -0.17891857698E+02 -0.10543518398E+02  0.34153266362E+01  0.21046610965E+02  0.10500000000E+00 0. -1.
         13    1    4    4    0    0 -0.26234922105E+02 -0.15376869117E+02  0.48596906642E+01  0.30795240867E+02  0.10500000000E+00 0.  1.
    3000001    1    5    5    0    0  0.51246607815E+02  0.34158975988E+02 -0.67765932099E+01  0.61967513010E+02  0.10000000000E+01 0. -1.
        -13    1    6    6    0    0  0.36422894014E-03 -0.20608519216E+00 -0.14445772153E+00  0.27269813421E+00  0.10500000000E+00 0. -1.
         13    1    6    6    0    0 -0.12297252577E+00 -0.14841455503E+00 -0.13898221603E+00  0.25978871918E+00  0.10500000000E+00 0.  1.
</event>
<event>
11    0  0.3467594E-009  0.9118800E+02  0.7816531E-02  0.1126479E+00
         25   -1    0    0    0    0  0.00000000000E+00  0.00000000000E+00  0.99999998245E-14  0.12500000000E+03  0.12500000000E+03 0.  0.
    3000001    1    3    3    0    0 -0.43370981639E+02 -0.23471470265E+02 -0.36768554427E+02  0.61521366690E+02  0.10000000000E+01 0.  1.
    1000022    2    1    0    0    0 -0.43877484471E+02 -0.22695241641E+02 -0.36958660889E+02  0.62499999349E+02  0.99999833634E+01 0.  0.
    3000022    2    3    3    0    0 -0.50650283161E+00  0.77622862390E+00 -0.19010646173E+00  0.97863265878E+00  0.25001083788E+00 0.  0.
    1000022    2    1    0    0    0  0.43877484471E+02  0.22695241641E+02  0.36958660889E+02  0.62500000651E+02  0.99999915054E+01 0.  0.
    3000022    2    5    5    0    0  0.11168443436E+00 -0.26511625741E+00  0.17977707926E+01  0.18377267078E+01  0.24999917435E+00 0.  0.
        -13    1    4    4    0    0 -0.17646099399E+00  0.19387942469E+00 -0.59352636369E-01  0.28857485885E+00  0.10500000000E+00 0.  1.
         13    1    4    4    0    0 -0.33004183763E+00  0.58234919920E+00 -0.13075382536E+00  0.69005779993E+00  0.10500000000E+00 0. -1.
    3000001    1    5    5    0    0  0.43765800036E+02  0.22960357898E+02  0.35160890097E+02  0.60662273944E+02  0.10000000000E+01 0.  1.
        -13    1    6    6    0    0  0.75249424734E-01 -0.12774604165E+00  0.12226167146E+01  0.12360413253E+01  0.10500000000E+00 0.  1.
         13    1    6    6    0    0  0.36435009627E-01 -0.13737021575E+00  0.57515407804E+00  0.60168538256E+00  0.10500000000E+00 0. -1.
</event>
<event>
11    0  0.3467594E-009  0.9118800E+02  0.7816531E-02  0.1126479E+00
         25   -1    0    0    0    0  0.00000000000E+00  0.00000000000E+00  0.99999998245E-14  0.12500000000E+03  0.12500000000E+03 0.  0.
    3000001    1    3    3    0    0  0.34488725116E+02 -0.29799525456E+02  0.77789042303E+01  0.46249272735E+02  0.10000000000E+01 0. -1.
    1000022    2    1    0    0    0  0.47260844593E+02 -0.39372795578E+02  0.47376710936E+01  0.62499999954E+02  0.10000000179E+02 0.  0.
    3000022    2    3    3    0    0  0.12772119477E+02 -0.95732701220E+01 -0.30412331367E+01  0.16250727218E+02  0.24999875589E+00 0.  0.
    1000022    2    1    0    0    0 -0.47260844593E+02  0.39372795578E+02 -0.47376710936E+01  0.62500000046E+02  0.10000000758E+02 0.  0.
    3000022    2    5    5    0    0 -0.38899520167E+02  0.35954427261E+02 -0.60570158023E+01  0.53316446346E+02  0.25000333608E+00 0.  0.
        -13    1    4    4    0    0  0.34651019779E+01 -0.26388788380E+01 -0.81339783894E+00  0.44320711054E+01  0.10500000000E+00 0.  1.
         13    1    4    4    0    0  0.93070174988E+01 -0.69343912840E+01 -0.22278352978E+01  0.11818656113E+02  0.10500000000E+00 0. -1.
    3000001    1    5    5    0    0 -0.83613244256E+01  0.34183683166E+01  0.13193447087E+01  0.91835536999E+01  0.10000000000E+01 0. -1.
        -13    1    6    6    0    0 -0.29204043093E+02  0.27012772094E+02 -0.45702319692E+01  0.40043277019E+02  0.10500000000E+00 0. -1.
         13    1    6    6    0    0 -0.96954770746E+01  0.89416551667E+01 -0.14867838331E+01  0.13273169327E+02  0.10500000000E+00 0.  1.
</event>
<event>
11    0  0.3467594E-009  0.9118800E+02  0.7816531E-02  0.1126479E+00
         25   -1    0    0    0    0  0.00000000000E+00  0.00000000000E+00  0.99999998245E-14  0.12500000000E+03  0.12500000000E+03 0.  0.
    3000001    1    3    3    0    0  0.21175020986E+02 -0.38659810321E+02 -0.27065908468E+02  0.51735151000E+02  0.10000000000E+01 0.  1.
    1000022    2    1    0    0    0  0.28983543540E+02 -0.43729150808E+02 -0.32464832282E+02  0.62500005606E+02  0.10000046954E+02 0.  0.
    3000022    2    3    3    0    0  0.78085225538E+01 -0.50693404871E+01 -0.53989238148E+01  0.10764854606E+02  0.24995775395E+00 0.  0.
    1000022    2    1    0    0    0 -0.28983543540E+02  0.43729150808E+02  0.32464832282E+02  0.62499994394E+02  0.99999768823E+01 0.  0.
    3000022    2    5    5    0    0  0.46513876786E+00  0.20327956470E+01  0.21617090099E+00  0.21113606603E+01  0.25000352663E+00 0.  0.
        -13    1    4    4    0    0  0.29304998881E+01 -0.19693518143E+01 -0.20209215735E+01  0.40695608079E+01  0.10500000000E+00 0.  1.
         13    1    4    4    0    0  0.48780226656E+01 -0.30999886728E+01 -0.33780022413E+01  0.66952937979E+01  0.10500000000E+00 0. -1.
    3000001    1    5    5    0    0 -0.29448682308E+02  0.41696355161E+02  0.32248661381E+02  0.60388633734E+02  0.10000000000E+01 0.  1.
        -13    1    6    6    0    0  0.23636000464E+00  0.75965176617E+00  0.84152781337E-01  0.80687269643E+00  0.10500000000E+00 0. -1.
         13    1    6    6    0    0  0.22877876322E+00  0.12731438809E+01  0.13201811965E+00  0.13044879638E+01  0.10500000000E+00 0.  1.
</event>
<event>
11    0  0.3467594E-009  0.9118800E+02  0.7816531E-02  0.1126479E+00
         25   -1    0    0    0    0  0.00000000000E+00  0.00000000000E+00  0.99999998245E-14  0.12500000000E+03  0.12500000000E+03 0.  0.
    3000001    1    3    3    0    0 -0.14809326253E+02 -0.38107381509E+02 -0.46550427872E+02  0.61963142308E+02  0.10000000000E+01 0. -1.
    1000022    2    1    0    0    0 -0.14554405769E+02 -0.38242374650E+02 -0.46172927830E+02  0.62499996262E+02  0.10000016112E+02 0.  0.
    3000022    2    3    3    0    0  0.25492048417E+00 -0.13499314054E+00  0.37750004204E+00  0.53685395454E+00  0.24999657102E+00 0.  0.
    1000022    2    1    0    0    0  0.14554405769E+02  0.38242374650E+02  0.46172927830E+02  0.62500003738E+02  0.10000062832E+02 0.  0.
    3000022    2    5    5    0    0  0.49427011408E+01  0.82697934655E+01  0.17157794618E+02  0.19679232562E+02  0.24999913180E+00 0.  0.
        -13    1    4    4    0    0  0.52434433341E-01 -0.65358173438E-01  0.19387448550E+00  0.23586728633E+00  0.10500000000E+00 0. -1.
         13    1    4    4    0    0  0.20248605082E+00 -0.69634967104E-01  0.18362555655E+00  0.30098666821E+00  0.10500000000E+00 0.  1.
    3000001    1    5    5    0    0  0.96117046284E+01  0.29972581184E+02  0.29015133213E+02  0.42820771175E+02  0.10000000000E+01 0. -1.
        -13    1    6    6    0    0  0.33773219482E+01  0.56932008839E+01  0.11876538110E+02  0.13597132871E+02  0.10500000000E+00 0.  1.
         13    1    6    6    0    0  0.15653791925E+01  0.25765925817E+01  0.52812565076E+01  0.60820996907E+01  0.10500000000E+00 0. -1.
</event>
<event>
11    0  0.3467594E-009  0.9118800E+02  0.7816531E-02  0.1126479E+00
         25   -1    0    0    0    0  0.00000000000E+00  0.00000000000E+00  0.99999998245E-14  0.12500000000E+03  0.12500000000E+03 0.  0.
    3000001    1    3    3    0    0  0.23918126177E+02  0.21788375455E+02  0.29920147730E+02  0.44079760718E+02  0.10000000000E+01 0. -1.
    1000022    2    1    0    0    0  0.35824257486E+02  0.24892696638E+02  0.43625982972E+02  0.62499999700E+02  0.99999900948E+01 0.  0.
    3000022    2    3    3    0    0  0.11906131309E+02  0.31043211826E+01  0.13705835242E+02  0.18420238982E+02  0.25002341580E+00 0.  0.
    1000022    2    1    0    0    0 -0.35824257486E+02 -0.24892696638E+02 -0.43625982972E+02  0.62500000300E+02  0.99999938451E+01 0.  0.
    3000022    2    5    5    0    0 -0.59272610715E+01 -0.45235343057E+00 -0.78454052409E+01  0.98463155907E+01  0.24999976251E+00 0.  0.
        -13    1    4    4    0    0  0.82935216569E+01  0.21983046517E+01  0.95096849665E+01  0.12808597815E+02  0.10500000000E+00 0.  1.
         13    1    4    4    0    0  0.36126096519E+01  0.90601653094E+00  0.41961502756E+01  0.56116411670E+01  0.10500000000E+00 0. -1.
    3000001    1    5    5    0    0 -0.29896996414E+02 -0.24440343208E+02 -0.35780577731E+02  0.52653684709E+02  0.10000000000E+01 0. -1.
        -13    1    6    6    0    0 -0.20225951985E+01 -0.15400533584E+00 -0.27703515251E+01  0.34351828995E+01  0.10500000000E+00 0. -1.
         13    1    6    6    0    0 -0.39046658730E+01 -0.29834809472E+00 -0.50750537158E+01  0.64111326911E+01  0.10500000000E+00 0.  1.
</event>
<event>
11    0  0.3467594E-009  0.9118800E+02  0.7816531E-02  0.1126479E+00
         25   -1    0    0    0    0  0.00000000000E+00  0.00000000000E+00  0.99999998245E-14  0.12500000000E+03  0.12500000000E+03 0.  0.
    3000001    1    3    3    0    0 -0.23391175579E+01  0.17420511837E+02 -0.10120490641E+01  0.17634339991E+02  0.10000000000E+01 0. -1.
    1000022    2    1    0    0    0  0.66873462182E+01  0.60800037573E+02 -0.80550552966E+01  0.62499992181E+02  0.99999969256E+01 0.  0.
    3000022    2    3    3    0    0  0.90264637761E+01  0.43379525736E+02 -0.70430062326E+01  0.44865652190E+02  0.25001656191E+00 0.  0.
    1000022    2    1    0    0    0 -0.66873462182E+01 -0.60800037573E+02  0.80550552966E+01  0.62500007819E+02  0.10000094664E+02 0.  0.
    3000022    2    5    5    0    0 -0.75143287986E+01 -0.56685351222E+02  0.94674730694E+01  0.57960242636E+02  0.24999933702E+00 0.  0.
        -13    1    4    4    0    0  0.45603273984E+01  0.22137030832E+02 -0.35412987499E+01  0.22877861392E+02  0.10500000000E+00 0.  1.
         13    1    4    4    0    0  0.44661363777E+01  0.21242494904E+02 -0.35017074826E+01  0.21987790798E+02  0.10500000000E+00 0. -1.
    3000001    1    5    5    0    0  0.82698258042E+00 -0.41146863502E+01 -0.14124177727E+01  0.45397651827E+01  0.10000000000E+01 0. -1.
        -13    1    6    6    0    0 -0.20874064264E+01 -0.15481862449E+02  0.25999432511E+01  0.15837173371E+02  0.10500000000E+00 0.  1.
         13    1    6    6    0    0 -0.54269223722E+01 -0.41203488774E+02  0.68675298183E+01  0.42123069266E+02  0.10500000000E+00 0. -1.
</event>
<event>
11    0  0.3467594E-009  0.9118800E+02  0.7816531E-02  0.1126479E+00
         25   -1    0    0    0    0  0.00000000000E+00  0.00000000000E+00  0.99999998245E-14  0.12500000000E+03  0.12500000000E+03 0.  0.
    3000001    1    3    3    0    0 -0.19828555324E+02 -0.11376996801E+02 -0.22951931309E+02  0.32409856730E+02  0.10000000000E+01 0.  1.
    1000022    2    1    0    0    0 -0.29874663785E+02 -0.23834092516E+02 -0.48432329299E+02  0.62499999766E+02  0.99999973553E+01 0.  0.
    3000022    2    3    3    0    0 -0.10046108461E+02 -0.12457095715E+02 -0.25480397991E+02  0.30090143036E+02  0.24999468556E+00 0.  0.
    1000022    2    1    0    0    0  0.29874663785E+02  0.23834092516E+02  0.48432329299E+02  0.62500000234E+02  0.10000000275E+02 0.  0.
    3000022    2    5    5    0    0  0.24197721259E+02  0.15580319597E+02  0.40490582914E+02  0.49677216624E+02  0.24994788056E+00 0.  0.
        -13    1    4    4    0    0 -0.52170977650E+01 -0.63657358594E+01 -0.13140315131E+02  0.15505470288E+02  0.10500000000E+00 0.  1.
         13    1    4    4    0    0 -0.48290106963E+01 -0.60913598552E+01 -0.12340082860E+02  0.14584672748E+02  0.10500000000E+00 0. -1.
    3000001    1    5    5    0    0  0.56769425263E+01  0.82537729192E+01  0.79417463857E+01  0.12822783610E+02  0.10000000000E+01 0. -1.
        -13    1    6    6    0    0  0.15390274487E+02  0.98946461602E+01  0.25840194770E+02  0.31662142413E+02  0.10500000000E+00 0. -1.
         13    1    6    6    0    0  0.88074467719E+01  0.56856734365E+01  0.14650388144E+02  0.18015074211E+02  0.10500000000E+00 0.  1.
</event>
<event>
11    0  0.3467594E-009  0.9118800E+02  0.7816531E-02  0.1126479E+00
         25   -1    0    0    0    0  0.00000000000E+00  0.00000000000E+00  0.99999998245E-14  0.12500000000E+03  0.12500000000E+03 0.  0.
    3000001    1    3    3    0    0  0.38642341398E+02  0.60670479818E+01 -0.25770135546E+02  0.46852315909E+02  0.10000000000E+01 0.  1.
    1000022    2    1    0    0    0  0.52111842968E+02  0.12382752474E+02 -0.30614919279E+02  0.62500000184E+02  0.10000000210E+02 0.  0.
    3000022    2    3    3    0    0  0.13469501570E+02  0.63157044917E+01 -0.48447837332E+01  0.15647684276E+02  0.24999598744E+00 0.  0.
    1000022    2    1    0    0    0 -0.52111842968E+02 -0.12382752474E+02  0.30614919279E+02  0.62499999816E+02  0.99999979082E+01 0.  0.
    3000022    2    5    5    0    0 -0.79324102758E+01 -0.35845381080E+01  0.90079996353E+01  0.12529110035E+02  0.24998919835E+00 0.  0.
        -13    1    4    4    0    0  0.35745223548E+01  0.16390228748E+01 -0.12785855522E+01  0.41363525071E+01  0.10500000000E+00 0.  1.
         13    1    4    4    0    0  0.98949792152E+01  0.46766816169E+01 -0.35661981810E+01  0.11511331768E+02  0.10500000000E+00 0. -1.
    3000001    1    5    5    0    0 -0.44179432692E+02 -0.87982143656E+01  0.21606919644E+02  0.49970889781E+02  0.10000000000E+01 0.  1.
        -13    1    6    6    0    0 -0.60678384855E+01 -0.27305664034E+01  0.68676708377E+01  0.95629798967E+01  0.10500000000E+00 0. -1.
         13    1    6    6    0    0 -0.18645717903E+01 -0.85397170453E+00  0.21403287975E+01  0.29661301379E+01  0.10500000000E+00 0.  1.
</event>
<event>
11    0  0.3467594E-009  0.9118800E+02  0.7816531E-02  0.1126479E+00
         25   -1    0    0    0    0  0.00000000000E+00  0.00000000000E+00  0.99999998245E-14  0.12500000000E+03  0.12500000000E+03 0.  0.
    3000001    1    3    3    0    0  0.22819585030E+02 -0.37938185801E+02  0.23802948459E+02  0.50275438916E+02  0.10000000000E+01 0.  1.
    1000022    2    1    0    0    0  0.26404638528E+02 -0.49460322852E+02  0.25743401110E+02  0.62500008874E+02  0.99999968096E+01 0.  0.
    3000022    2    3    3    0    0  0.35850534979E+01 -0.11522137051E+02  0.19404526505E+01  0.12224569958E+02  0.25000676763E+00 0.  0.
    1000022    2    1    0    0    0 -0.26404638528E+02  0.49460322852E+02 -0.25743401110E+02  0.62499991126E+02  0.99998858778E+01 0.  0.
    3000022    2    5    5    0    0 -0.13960934440E+02  0.31948597970E+02 -0.11538632687E+02  0.36726327713E+02  0.25000059334E+00 0.  0.
        -13    1    4    4    0    0  0.17280850355E+01 -0.57594607162E+01  0.93697567826E+00  0.60865929758E+01  0.10500000000E+00 0. -1.
         13    1    4    4    0    0  0.18569684624E+01 -0.57626763344E+01  0.10034769723E+01  0.61379769826E+01  0.10500000000E+00 0.  1.
    3000001    1    5    5    0    0 -0.12443704088E+02  0.17511724882E+02 -0.14204768423E+02  0.25773663413E+02  0.10000000000E+01 0. -1.
        -13    1    6    6    0    0 -0.88755400006E+01  0.20204003629E+02 -0.72601436143E+01  0.23231394346E+02  0.10500000000E+00 0.  1.
         13    1    6    6    0    0 -0.50853944399E+01  0.11744594341E+02 -0.42784890728E+01  0.13494933367E+02  0.10500000000E+00 0. -1.
</event>
<event>
11    0  0.3467594E-009  0.9118800E+02  0.7816531E-02  0.1126479E+00
         25   -1    0    0    0    0  0.00000000000E+00  0.00000000000E+00  0.99999998245E-14  0.12500000000E+03  0.12500000000E+03 0.  0.
    3000001    1    3    3    0    0  0.22982437676E+02 -0.97768760905E+01  0.25215816413E+02  0.35505170679E+02  0.10000000000E+01 0.  1.
    1000022    2    1    0    0    0  0.36182456730E+02 -0.11086515969E+02  0.48725445396E+02  0.62500000081E+02  0.99999984827E+01 0.  0.
    3000022    2    3    3    0    0  0.13200019054E+02 -0.13096398786E+01  0.23509628983E+02  0.26994829401E+02  0.24999963074E+00 0.  0.
    1000022    2    1    0    0    0 -0.36182456730E+02  0.11086515969E+02 -0.48725445396E+02  0.62499999919E+02  0.99999974762E+01 0.  0.
    3000022    2    5    5    0    0 -0.88038194586E+01 -0.14293630040E+01 -0.13067737390E+02  0.15823355379E+02  0.24999859297E+00 0.  0.
        -13    1    4    4    0    0  0.94486745704E+01 -0.89736019356E+00  0.16798542158E+02  0.19294681912E+02  0.10500000000E+00 0.  1.
         13    1    4    4    0    0  0.37513444841E+01 -0.41227968506E+00  0.67110868251E+01  0.77001474889E+01  0.10500000000E+00 0. -1.
    3000001    1    5    5    0    0 -0.27378637271E+02  0.12515878973E+02 -0.35657708006E+02  0.46676644540E+02  0.10000000000E+01 0.  1.
        -13    1    6    6    0    0 -0.62979969041E+01 -0.99371059354E+00 -0.93927502250E+01  0.11352841386E+02  0.10500000000E+00 0. -1.
         13    1    6    6    0    0 -0.25058225546E+01 -0.43565241046E+00 -0.36749871652E+01  0.44705139930E+01  0.10500000000E+00 0.  1.
</event>
<event>
11    0  0.3467594E-009  0.9118800E+02  0.7816531E-02  0.1126479E+00
         25   -1    0    0    0    0  0.00000000000E+00  0.00000000000E+00  0.99999998245E-14  0.12500000000E+03  0.12500000000E+03 0.  0.
    3000001    1    3    3    0    0  0.88434604853E+01  0.13585806276E+02  0.23436669116E+02  0.28514178662E+02  0.10000000000E+01 0.  1.
    1000022    2    1    0    0    0  0.27711232953E+02  0.32003671489E+02  0.44878754051E+02  0.62500000755E+02  0.10000005430E+02 0.  0.
    3000022    2    3    3    0    0  0.18867772468E+02  0.18417865213E+02  0.21442084936E+02  0.33985822093E+02  0.25000009419E+00 0.  0.
    1000022    2    1    0    0    0 -0.27711232953E+02 -0.32003671489E+02 -0.44878754051E+02  0.62499999245E+02  0.99999959940E+01 0.  0.
    3000022    2    5    5    0    0 -0.16269350785E+02 -0.14293477327E+02 -0.28428663401E+02  0.35738588087E+02  0.25001316224E+00 0.  0.
        -13    1    4    4    0    0  0.52972036396E+01  0.51231014645E+01  0.59677200057E+01  0.94832084276E+01  0.10500000000E+00 0.  1.
         13    1    4    4    0    0  0.13570568828E+02  0.13294763749E+02  0.15474364930E+02  0.24502613666E+02  0.10500000000E+00 0. -1.
    3000001    1    5    5    0    0 -0.11441882168E+02 -0.17710194162E+02 -0.16450090650E+02  0.26761411159E+02  0.10000000000E+01 0. -1.
        -13    1    6    6    0    0 -0.10705006896E+02 -0.93310836327E+01 -0.18635945795E+02  0.23430232501E+02  0.10500000000E+00 0.  1.
         13    1    6    6    0    0 -0.55643438893E+01 -0.49623936946E+01 -0.97927176060E+01  0.12308355585E+02  0.10500000000E+00 0. -1.
</event>
<event>
11    0  0.3467594E-009  0.9118800E+02  0.7816531E-02  0.1126479E+00
         25   -1    0    0    0    0  0.00000000000E+00  0.00000000000E+00  0.99999998245E-14  0.12500000000E+03  0.12500000000E+03 0.  0.
    3000001    1    3    3    0    0 -0.23594082657E+01  0.77816674240E+00 -0.67685496871E+01  0.72791219052E+01  0.10000000000E+01 0.  1.
    1000022    2    1    0    0    0  0.11063098016E+01  0.22051635877E+02 -0.57608605582E+02  0.62500000838E+02  0.10000005074E+02 0.  0.
    3000022    2    3    3    0    0  0.34657180673E+01  0.21273469135E+02 -0.50840055894E+02  0.55220878933E+02  0.24999205769E+00 0.  0.
    1000022    2    1    0    0    0 -0.11063098016E+01 -0.22051635877E+02  0.57608605582E+02  0.62499999162E+02  0.99999945966E+01 0.  0.
    3000022    2    5    5    0    0  0.23698643144E+01 -0.89289188846E+01  0.13666179667E+02  0.16497539630E+02  0.24999564785E+00 0.  0.
        -13    1    4    4    0    0  0.24252084124E+01  0.14676951630E+02 -0.35175989343E+02  0.38192352589E+02  0.10500000000E+00 0.  1.
         13    1    4    4    0    0  0.10405096549E+01  0.65965175051E+01 -0.15664066551E+02  0.17028526344E+02  0.10500000000E+00 0. -1.
    3000001    1    5    5    0    0 -0.34761741160E+01 -0.13122716993E+02  0.43942425914E+02  0.46002459532E+02  0.10000000000E+01 0. -1.
        -13    1    6    6    0    0  0.11690128678E+01 -0.46566628025E+01  0.71369292650E+01  0.86022022689E+01  0.10500000000E+00 0.  1.
         13    1    6    6    0    0  0.12008514466E+01 -0.42722560821E+01  0.65292504022E+01  0.78953373609E+01  0.10500000000E+00 0. -1.
</event>
<event>
11    0  0.3467594E-009  0.9118800E+02  0.7816531E-02  0.1126479E+00
         25   -1    0    0    0    0  0.00000000000E+00  0.00000000000E+00  0.99999998245E-14  0.12500000000E+03  0.12500000000E+03 0.  0.
    3000001    1    3    3    0    0  0.59939708284E+01  0.12448719677E+02 -0.16138707660E+02  0.21268666927E+02  0.10000000000E+01 0. -1.
    1000022    2    1    0    0    0  0.29906135119E+02  0.33924246500E+02 -0.41964486143E+02  0.62500004340E+02  0.10000051345E+02 0.  0.
    3000022    2    3    3    0    0  0.23912164291E+02  0.21475526823E+02 -0.25825778483E+02  0.41231337413E+02  0.24999453858E+00 0.  0.
    1000022    2    1    0    0    0 -0.29906135119E+02 -0.33924246500E+02  0.41964486143E+02  0.62499995660E+02  0.99999970928E+01 0.  0.
    3000022    2    5    5    0    0 -0.20424058531E+02 -0.15748613800E+02  0.23391679710E+02  0.34819451242E+02  0.25000327374E+00 0.  0.
        -13    1    4    4    0    0  0.18084483950E+02  0.16260244966E+02 -0.19563192495E+02  0.31211755024E+02  0.10500000000E+00 0. -1.
         13    1    4    4    0    0  0.58276803407E+01  0.52152818571E+01 -0.62625859884E+01  0.10019582390E+02  0.10500000000E+00 0.  1.
    3000001    1    5    5    0    0 -0.94820765883E+01 -0.18175632700E+02  0.18572806433E+02  0.27680544418E+02  0.10000000000E+01 0.  1.
        -13    1    6    6    0    0 -0.54848829759E+01 -0.42522454225E+01  0.63364013032E+01  0.93982199840E+01  0.10500000000E+00 0.  1.
         13    1    6    6    0    0 -0.14939175555E+02 -0.11496368378E+02  0.17055278407E+02  0.25421231258E+02  0.10500000000E+00 0. -1.
</event>
<event>
11    0  0.3467594E-009  0.9118800E+02  0.7816531E-02  0.1126479E+00
         25   -1    0    0    0    0  0.00000000000E+00  0.00000000000E+00  0.99999998245E-14  0.12500000000E+03  0.12500000000E+03 0.  0.
    3000001    1    3    3    0    0  0.47208003272E+02 -0.18428266480E+02  0.98960062711E+01  0.51644239935E+02  0.10000000000E+01 0.  1.
    1000022    2    1    0    0    0  0.57988245113E+02 -0.17932385624E+02  0.11047305495E+02  0.62499998880E+02  0.99999937901E+01 0.  0.
    3000022    2    3    3    0    0  0.10780241842E+02  0.49588085612E+00  0.11512992242E+01  0.10855758945E+02  0.25000075589E+00 0.  0.
    1000022    2    1    0    0    0 -0.57988245113E+02  0.17932385624E+02 -0.11047305495E+02  0.62500001120E+02  0.10000007792E+02 0.  0.
    3000022    2    5    5    0    0 -0.51932245133E+02  0.18906125685E+02 -0.10552243749E+02  0.56265549131E+02  0.24999582746E+00 0.  0.
        -13    1    4    4    0    0  0.29345165451E+01  0.16409597821E+00  0.29082065652E+00  0.29553200331E+01  0.10500000000E+00 0. -1.
         13    1    4    4    0    0  0.78457252964E+01  0.33178487791E+00  0.86047856763E+00  0.79004389117E+01  0.10500000000E+00 0.  1.
    3000001    1    5    5    0    0 -0.60559999806E+01 -0.97374006166E+00 -0.49506174603E+00  0.62344519892E+01  0.10000000000E+01 0.  1.
        -13    1    6    6    0    0 -0.36845455552E+02  0.13457425592E+02 -0.75025406396E+01  0.39937313874E+02  0.10500000000E+00 0. -1.
         13    1    6    6    0    0 -0.15086789581E+02  0.54487000936E+01 -0.30497031095E+01  0.16328235257E+02  0.10500000000E+00 0.  1.
</event>
<event>
11    0  0.3467594E-009  0.9118800E+02  0.7816531E-02  0.1126479E+00
         25   -1    0    0    0    0  0.00000000000E+00  0.00000000000E+00  0.99999998245E-14  0.12500000000E+03  0.12500000000E+03 0.  0.
    3000001    1    3    3    0    0  0.84138690450E+00 -0.10409762418E+02  0.17596845384E+02  0.20487070386E+02  0.10000000000E+01 0. -1.
    1000022    2    1    0    0    0 -0.66765358482E+01 -0.39773165749E+02  0.46688000695E+02  0.62500002117E+02  0.10000000558E+02 0.  0.
    3000022    2    3    3    0    0 -0.75179227527E+01 -0.29363403330E+02  0.29091155311E+02  0.42012931731E+02  0.24999537808E+00 0.  0.
    1000022    2    1    0    0    0  0.66765358482E+01  0.39773165749E+02 -0.46688000695E+02  0.62499997883E+02  0.99999740945E+01 0.  0.
    3000022    2    5    5    0    0  0.27923763672E+01  0.12581606381E+02 -0.84670459259E+01  0.15422306997E+02  0.25000298156E+00 0.  0.
        -13    1    4    4    0    0 -0.24737603646E+01 -0.94555721209E+01  0.93768098903E+01  0.13544848585E+02  0.10500000000E+00 0.  1.
         13    1    4    4    0    0 -0.50441623880E+01 -0.19907831209E+02  0.19714345421E+02  0.28468083146E+02  0.10500000000E+00 0. -1.
    3000001    1    5    5    0    0  0.38841594810E+01  0.27191559367E+02 -0.38220954769E+02  0.47077690886E+02  0.10000000000E+01 0.  1.
        -13    1    6    6    0    0  0.10300808727E+01  0.46909551365E+01 -0.30852177080E+01  0.57092661527E+01  0.10500000000E+00 0. -1.
         13    1    6    6    0    0  0.17622954945E+01  0.78906512448E+01 -0.53818282179E+01  0.97130408443E+01  0.10500000000E+00 0.  1.
</event>
<event>
11    0  0.3467594E-009  0.9118800E+02  0.7816531E-02  0.1126479E+00
         25   -1    0    0    0    0  0.00000000000E+00  0.00000000000E+00  0.99999998245E-14  0.12500000000E+03  0.12500000000E+03 0.  0.
    3000001    1    3    3    0    0  0.15263783835E+02 -0.11696192369E+02 -0.88127687636E+01  0.21176612245E+02  0.10000000000E+01 0. -1.
    1000022    2    1    0    0    0  0.36154431068E+02 -0.44500979803E+02 -0.22776526859E+02  0.62499998617E+02  0.99999781076E+01 0.  0.
    3000022    2    3    3    0    0  0.20890647233E+02 -0.32804787434E+02 -0.13963758096E+02  0.41323386372E+02  0.25000147445E+00 0.  0.
    1000022    2    1    0    0    0 -0.36154431068E+02  0.44500979803E+02  0.22776526859E+02  0.62500001383E+02  0.99999953907E+01 0.  0.
    3000022    2    5    5    0    0 -0.26327326278E+01  0.47032618270E+00  0.10353771412E+00  0.26880697862E+01  0.25002261878E+00 0.  0.
        -13    1    4    4    0    0  0.99102507139E+01 -0.15608871289E+02 -0.65717518966E+01  0.19622662412E+02  0.10500000000E+00 0.  1.
         13    1    4    4    0    0  0.10980396519E+02 -0.17195916145E+02 -0.73920061992E+01  0.21700723960E+02  0.10500000000E+00 0. -1.
    3000001    1    5    5    0    0 -0.33521698440E+02  0.44030653620E+02  0.22672989145E+02  0.59811931596E+02  0.10000000000E+01 0.  1.
        -13    1    6    6    0    0 -0.10862737117E+01  0.18815127484E+00 -0.21253521297E-01  0.11076408222E+01  0.10500000000E+00 0.  1.
         13    1    6    6    0    0 -0.15464589161E+01  0.28217490786E+00  0.12479123541E+00  0.15804289640E+01  0.10500000000E+00 0. -1.
</event>
<event>
11    0  0.3467594E-009  0.9118800E+02  0.7816531E-02  0.1126479E+00
         25   -1    0    0    0    0  0.00000000000E+00  0.00000000000E+00  0.99999998245E-14  0.12500000000E+03  0.12500000000E+03 0.  0.
    3000001    1    3    3    0    0 -0.29477347987E+01  0.30224176769E+02 -0.37303296168E+01  0.30612176676E+02  0.10000000000E+01 0.  1.
    1000022    2    1    0    0    0 -0.47485629065E+01  0.61465115878E+02  0.23959692079E+01  0.62500000272E+02  0.10000002295E+02 0.  0.
    3000022    2    3    3    0    0 -0.18008281078E+01  0.31240939109E+02  0.61262988248E+01  0.31887823595E+02  0.24999611760E+00 0.  0.
    1000022    2    1    0    0    0  0.47485629065E+01 -0.61465115878E+02 -0.23959692079E+01  0.62499999728E+02  0.99999989006E+01 0.  0.
    3000022    2    5    5    0    0 -0.14742991402E+01 -0.16130218377E+02 -0.40543981582E+01  0.16699046353E+02  0.25000367425E+00 0.  0.
        -13    1    4    4    0    0 -0.68370061727E+00  0.12970726716E+02  0.25343498852E+01  0.13234090540E+02  0.10500000000E+00 0. -1.
         13    1    4    4    0    0 -0.11171274906E+01  0.18270212393E+02  0.35919489396E+01  0.18653733056E+02  0.10500000000E+00 0.  1.
    3000001    1    5    5    0    0  0.62228620468E+01 -0.45334897501E+02  0.16584289502E+01  0.45800953375E+02  0.10000000000E+01 0. -1.
        -13    1    6    6    0    0 -0.99669151267E+00 -0.11108154262E+02 -0.27449597471E+01  0.11486092203E+02  0.10500000000E+00 0. -1.
         13    1    6    6    0    0 -0.47760762756E+00 -0.50220641148E+01 -0.13094384111E+01  0.52129541501E+01  0.10500000000E+00 0.  1.
</event>
<event>
11    0  0.3467594E-009  0.9118800E+02  0.7816531E-02  0.1126479E+00
         25   -1    0    0    0    0  0.00000000000E+00  0.00000000000E+00  0.99999998245E-14  0.12500000000E+03  0.12500000000E+03 0.  0.
    3000001    1    3    3    0    0 -0.56862827260E+01  0.61040872750E+01 -0.76804254663E+01  0.11383436566E+02  0.10000000000E+01 0. -1.
    1000022    2    1    0    0    0 -0.40405136987E+02  0.15183098883E+02 -0.44081159065E+02  0.62500001411E+02  0.10000000263E+02 0.  0.
    3000022    2    3    3    0    0 -0.34718854261E+02  0.90790116081E+01 -0.36400733598E+02  0.51116564845E+02  0.25000422018E+00 0.  0.
    1000022    2    1    0    0    0  0.40405136987E+02 -0.15183098883E+02  0.44081159065E+02  0.62499998589E+02  0.99999826298E+01 0.  0.
    3000022    2    5    5    0    0  0.49934089468E+01 -0.46373345924E+01  0.37066687289E+01  0.77615011940E+01  0.25000537282E+00 0.  0.
        -13    1    4    4    0    0 -0.18396511922E+02  0.47508278631E+01 -0.19321421259E+02  0.27098530601E+02  0.10500000000E+00 0. -1.
         13    1    4    4    0    0 -0.16322342339E+02  0.43281837450E+01 -0.17079312339E+02  0.24018034244E+02  0.10500000000E+00 0.  1.
    3000001    1    5    5    0    0  0.35411728040E+02 -0.10545764291E+02  0.40374490336E+02  0.54738497395E+02  0.10000000000E+01 0. -1.
        -13    1    6    6    0    0  0.18049646580E+01 -0.17420729815E+01  0.14040940015E+01  0.28766683254E+01  0.10500000000E+00 0. -1.
         13    1    6    6    0    0  0.31884442888E+01 -0.28952616109E+01  0.23025747274E+01  0.48848328685E+01  0.10500000000E+00 0.  1.
</event>
<event>
11    0  0.3467594E-009  0.9118800E+02  0.7816531E-02  0.1126479E+00
         25   -1    0    0    0    0  0.00000000000E+00  0.00000000000E+00  0.99999998245E-14  0.12500000000E+03  0.12500000000E+03 0.  0.
    3000001    1    3    3    0    0  0.17264420439E+02  0.54431714627E+01 -0.12606533880E+02  0.22081961533E+02  0.10000000000E+01 0.  1.
    1000022    2    1    0    0    0  0.38990383441E+02  0.18588190791E+02 -0.44050878599E+02  0.62500005832E+02  0.99999992912E+01 0.  0.
    3000022    2    3    3    0    0  0.21725963003E+02  0.13145019329E+02 -0.31444344719E+02  0.40418044299E+02  0.24997725901E+00 0.  0.
    1000022    2    1    0    0    0 -0.38990383441E+02 -0.18588190791E+02  0.44050878599E+02  0.62499994168E+02  0.99999263946E+01 0.  0.
    3000022    2    5    5    0    0 -0.52681174214E+01 -0.63563237993E+01  0.10629704396E+02  0.13461390184E+02  0.24999346089E+00 0.  0.
        -13    1    4    4    0    0  0.87322130260E+01  0.53497166916E+01 -0.12636541662E+02  0.16265430310E+02  0.10500000000E+00 0.  1.
         13    1    4    4    0    0  0.12993749977E+02  0.77953026370E+01 -0.18807803057E+02  0.24152613989E+02  0.10500000000E+00 0. -1.
    3000001    1    5    5    0    0 -0.33722266020E+02 -0.12231866992E+02  0.33421174203E+02  0.49038603984E+02  0.10000000000E+01 0. -1.
        -13    1    6    6    0    0 -0.16201343097E+01 -0.20322807232E+01  0.33419963983E+01  0.42349693087E+01  0.10500000000E+00 0.  1.
         13    1    6    6    0    0 -0.36479831117E+01 -0.43240430761E+01  0.72877079976E+01  0.92264208752E+01  0.10500000000E+00 0. -1.
</event>
<event>
11    0  0.3467594E-009  0.9118800E+02  0.7816531E-02  0.1126479E+00
         25   -1    0    0    0    0  0.00000000000E+00  0.00000000000E+00  0.99999998245E-14  0.12500000000E+03  0.12500000000E+03 0.  0.
    3000001    1    3    3    0    0 -0.68822570182E+00 -0.91408081533E+01 -0.18006849914E+02  0.20230538108E+02  0.10000000000E+01 0. -1.
    1000022    2    1    0    0    0 -0.38974096148E+01 -0.39549544550E+02 -0.47189981823E+02  0.62500004593E+02  0.99999956919E+01 0.  0.
    3000022    2    3    3    0    0 -0.32091839129E+01 -0.30408736396E+02 -0.29183131909E+02  0.42269466485E+02  0.24999654931E+00 0.  0.
    1000022    2    1    0    0    0  0.38974096148E+01  0.39549544550E+02  0.47189981823E+02  0.62499995407E+02  0.99999382840E+01 0.  0.
    3000022    2    5    5    0    0  0.72286471174E+01  0.25560844799E+02  0.30400529199E+02  0.40371584180E+02  0.25001535727E+00 0.  0.
        -13    1    4    4    0    0 -0.21670173301E+01 -0.20364919487E+02 -0.19614483136E+02  0.28357801105E+02  0.10500000000E+00 0.  1.
         13    1    4    4    0    0 -0.10421665828E+01 -0.10043816909E+02 -0.95686487735E+01  0.13911665380E+02  0.10500000000E+00 0. -1.
    3000001    1    5    5    0    0 -0.33312375027E+01  0.13988699751E+02  0.16789452624E+02  0.22128411227E+02  0.10000000000E+01 0. -1.
        -13    1    6    6    0    0  0.42301145237E+01  0.14795210090E+02  0.17682720705E+02  0.23441027004E+02  0.10500000000E+00 0.  1.
         13    1    6    6    0    0  0.29985325938E+01  0.10765634709E+02  0.12717808494E+02  0.16930557176E+02  0.10500000000E+00 0. -1.
</event>
<event>
11    0  0.3467594E-009  0.9118800E+02  0.7816531E-02  0.1126479E+00
         25   -1    0    0    0    0  0.00000000000E+00  0.00000000000E+00  0.99999998245E-14  0.12500000000E+03  0.12500000000E+03 0.  0.
    3000001    1    3    3    0    0 -0.11148936010E+02  0.79897222953E+01  0.19275987475E+02  0.23679065219E+02  0.10000000000E+01 0. -1.
    1000022    2    1    0    0    0 -0.17489477545E+02  0.23113169777E+02  0.54462367410E+02  0.62499999792E+02  0.10000003407E+02 0.  0.
    3000022    2    3    3    0    0 -0.63405415348E+01  0.15123447482E+02  0.35186379935E+02  0.38820934573E+02  0.24999494201E+00 0.  0.
    1000022    2    1    0    0    0  0.17489477545E+02 -0.23113169777E+02 -0.54462367410E+02  0.62500000208E+02  0.10000006013E+02 0.  0.
    3000022    2    5    5    0    0  0.11469998093E+02 -0.17583421818E+02 -0.46614770540E+02  0.51124719025E+02  0.24996766376E+00 0.  0.
        -13    1    4    4    0    0 -0.41620628672E+01  0.98590835650E+01  0.23077864164E+02  0.25438615045E+02  0.10500000000E+00 0.  1.
         13    1    4    4    0    0 -0.21784786676E+01  0.52643639169E+01  0.12108515771E+02  0.13382319528E+02  0.10500000000E+00 0. -1.
    3000001    1    5    5    0    0  0.60194794527E+01 -0.55297479593E+01 -0.78475968699E+01  0.11375281184E+02  0.10000000000E+01 0.  1.
        -13    1    6    6    0    0  0.75276893749E+01 -0.11462348825E+02 -0.30358803235E+02  0.33312452728E+02  0.10500000000E+00 0. -1.
         13    1    6    6    0    0  0.39423087177E+01 -0.61210729925E+01 -0.16255967305E+02  0.17812266297E+02  0.10500000000E+00 0.  1.
</event>
<event>
11    0  0.3467594E-009  0.9118800E+02  0.7816531E-02  0.1126479E+00
         25   -1    0    0    0    0  0.00000000000E+00  0.00000000000E+00  0.99999998245E-14  0.12500000000E+03  0.12500000000E+03 0.  0.
    3000001    1    3    3    0    0  0.45666347153E+02  0.35668384515E+02 -0.85993467366E+01  0.58588374960E+02  0.10000000000E+01 0.  1.
    1000022    2    1    0    0    0  0.46545876322E+02  0.39368333123E+02 -0.94797605485E+01  0.62499999614E+02  0.99999918090E+01 0.  0.
    3000022    2    3    3    0    0  0.87952916961E+00  0.36999486073E+01 -0.88041381192E+00  0.39116246532E+01  0.24997537991E+00 0.  0.
    1000022    2    1    0    0    0 -0.46545876322E+02 -0.39368333123E+02  0.94797605485E+01  0.62500000386E+02  0.99999966379E+01 0.  0.
    3000022    2    5    5    0    0 -0.22081296419E+02 -0.20338960071E+02 -0.17202215334E+00  0.30022475574E+02  0.24999936105E+00 0.  0.
        -13    1    4    4    0    0  0.20994984821E+00  0.89875432809E+00 -0.23675584221E+00  0.95860138214E+00  0.10500000000E+00 0.  1.
         13    1    4    4    0    0  0.66957932141E+00  0.28011942792E+01 -0.64365796971E+00  0.29530232711E+01  0.10500000000E+00 0. -1.
    3000001    1    5    5    0    0 -0.24464579903E+02 -0.19029373052E+02  0.96517827018E+01  0.32477524812E+02  0.10000000000E+01 0.  1.
        -13    1    6    6    0    0 -0.12647017883E+02 -0.11560240831E+02 -0.94231632808E-01  0.17134938985E+02  0.10500000000E+00 0.  1.
         13    1    6    6    0    0 -0.94342785357E+01 -0.87787192393E+01 -0.77790520534E-01  0.12887536589E+02  0.10500000000E+00 0. -1.
</event>
<event>
11    0  0.3467594E-009  0.9118800E+02  0.7816531E-02  0.1126479E+00
         25   -1    0    0    0    0  0.00000000000E+00  0.00000000000E+00  0.99999998245E-14  0.12500000000E+03  0.12500000000E+03 0.  0.
    3000001    1    3    3    0    0  0.35300043352E+02 -0.37978115794E+02 -0.18678586234E+02  0.55120957209E+02  0.10000000000E+01 0. -1.
    1000022    2    1    0    0    0  0.37969496351E+02 -0.44852018689E+02 -0.18784665183E+02  0.62499999303E+02  0.10000001659E+02 0.  0.
    3000022    2    3    3    0    0  0.26694529987E+01 -0.68739028950E+01 -0.10607894930E+00  0.73790420939E+01  0.24997831481E+00 0.  0.
    1000022    2    1    0    0    0 -0.37969496351E+02  0.44852018689E+02  0.18784665183E+02  0.62500000697E+02  0.10000010374E+02 0.  0.
    3000022    2    5    5    0    0 -0.25034328346E+02  0.35533773232E+02  0.15800717415E+02  0.46250317193E+02  0.25006747481E+00 0.  0.
        -13    1    4    4    0    0  0.12041133048E+01 -0.31567845829E+01 -0.11244726410E+00  0.33821364758E+01  0.10500000000E+00 0. -1.
         13    1    4    4    0    0  0.14653396939E+01 -0.37171183121E+01  0.63683147952E-02  0.39969056181E+01  0.10500000000E+00 0.  1.
    3000001    1    5    5    0    0 -0.12935168005E+02  0.93182454572E+01  0.29839477676E+01  0.16249683505E+02  0.10000000000E+01 0.  1.
        -13    1    6    6    0    0 -0.11293034326E+02  0.15914382081E+02  0.70853064312E+01  0.20760847130E+02  0.10500000000E+00 0. -1.
         13    1    6    6    0    0 -0.13741294020E+02  0.19619391151E+02  0.87154109841E+01  0.25489470063E+02  0.10500000000E+00 0.  1.
</event>
<event>
11    0  0.3467594E-009  0.9118800E+02  0.7816531E-02  0.1126479E+00
         25   -1    0    0    0    0  0.00000000000E+00  0.00000000000E+00  0.99999998245E-14  0.12500000000E+03  0.12500000000E+03 0.  0.
    3000001    1    3    3    0    0 -0.20472506200E+02 -0.37571108751E+01 -0.10399163270E+02  0.23289095924E+02  0.10000000000E+01 0.  1.
    1000022    2    1    0    0    0 -0.48923807192E+02 -0.39376643621E+01 -0.37379220093E+02  0.62500001214E+02  0.99999973093E+01 0.  0.
    3000022    2    3    3    0    0 -0.28451300992E+02 -0.18055348699E+00 -0.26980056824E+02  0.39210905290E+02  0.24999955293E+00 0.  0.
    1000022    2    1    0    0    0  0.48923807192E+02  0.39376643621E+01  0.37379220093E+02  0.62499998786E+02  0.99999821384E+01 0.  0.
    3000022    2    5    5    0    0  0.43899294089E+02  0.27325233935E+01  0.36514991602E+02  0.57166614537E+02  0.25000052290E+00 0.  0.
        -13    1    4    4    0    0 -0.12581450556E+02 -0.10282711180E+00 -0.11845457506E+02  0.17280895811E+02  0.10500000000E+00 0. -1.
         13    1    4    4    0    0 -0.15869850436E+02 -0.77726375185E-01 -0.15134599318E+02  0.21930009479E+02  0.10500000000E+00 0.  1.
    3000001    1    5    5    0    0  0.50245131022E+01  0.12051409686E+01  0.86422849119E+00  0.53333842495E+01  0.10000000000E+01 0. -1.
        -13    1    6    6    0    0  0.22390760695E+02  0.14612451803E+01  0.18637201923E+02  0.29169122759E+02  0.10500000000E+00 0. -1.
         13    1    6    6    0    0  0.21508533395E+02  0.12712782132E+01  0.17877789679E+02  0.27997491778E+02  0.10500000000E+00 0.  1.
</event>
<event>
11    0  0.3467594E-009  0.9118800E+02  0.7816531E-02  0.1126479E+00
         25   -1    0    0    0    0  0.00000000000E+00  0.00000000000E+00  0.99999998245E-14  0.12500000000E+03  0.12500000000E+03 0.  0.
    3000001    1    3    3    0    0  0.19146694225E+01  0.16671322109E+02  0.17971754278E+02  0.24608593858E+02  0.10000000000E+01 0.  1.
    1000022    2    1    0    0    0 -0.61207271496E+01  0.45478802224E+02  0.41236697254E+02  0.62499999094E+02  0.99999966929E+01 0.  0.
    3000022    2    3    3    0    0 -0.80353965721E+01  0.28807480115E+02  0.23264942976E+02  0.37891405236E+02  0.25002092354E+00 0.  0.
    1000022    2    1    0    0    0  0.61207271496E+01 -0.45478802224E+02 -0.41236697254E+02  0.62500000906E+02  0.10000008014E+02 0.  0.
    3000022    2    5    5    0    0  0.43903374778E+01 -0.44013810413E+02 -0.40338004170E+02  0.59864076271E+02  0.24995423648E+00 0.  0.
        -13    1    4    4    0    0 -0.45743853187E+01  0.16412566072E+02  0.13170977535E+02  0.21535621661E+02  0.10500000000E+00 0.  1.
         13    1    4    4    0    0 -0.34610112534E+01  0.12394914043E+02  0.10093965441E+02  0.16355783575E+02  0.10500000000E+00 0. -1.
    3000001    1    5    5    0    0  0.17303896718E+01 -0.14649918110E+01 -0.89869308358E+00  0.26359246349E+01  0.10000000000E+01 0.  1.
        -13    1    6    6    0    0  0.13162400732E+01 -0.12882812948E+02 -0.11851667455E+02  0.17554839898E+02  0.10500000000E+00 0.  1.
         13    1    6    6    0    0  0.30740974046E+01 -0.31130997464E+02 -0.28486336715E+02  0.42309236373E+02  0.10500000000E+00 0. -1.
</event>
<event>
11    0  0.3467594E-009  0.9118800E+02  0.7816531E-02  0.1126479E+00
         25   -1    0    0    0    0  0.00000000000E+00  0.00000000000E+00  0.99999998245E-14  0.12500000000E+03  0.12500000000E+03 0.  0.
    3000001    1    3    3    0    0 -0.46159354650E+01 -0.69132853718E+00 -0.90116346024E+01  0.10197762184E+02  0.10000000000E+01 0.  1.
    1000022    2    1    0    0    0 -0.10089319358E+02  0.68185571170E+01 -0.60481094996E+02  0.62500000763E+02  0.10000007858E+02 0.  0.
    3000022    2    3    3    0    0 -0.54733838926E+01  0.75098856542E+01 -0.51469460394E+02  0.52302238579E+02  0.24998662085E+00 0.  0.
    1000022    2    1    0    0    0  0.10089319358E+02 -0.68185571170E+01  0.60481094996E+02  0.62499999237E+02  0.99999983211E+01 0.  0.
    3000022    2    5    5    0    0  0.90715880792E+01 -0.20806156172E+01  0.50597411127E+02  0.51446896802E+02  0.25001235501E+00 0.  0.
        -13    1    4    4    0    0 -0.28214275398E+01  0.37713347808E+01 -0.26273838599E+02  0.26692864948E+02  0.10500000000E+00 0.  1.
         13    1    4    4    0    0 -0.26519563528E+01  0.37385508734E+01 -0.25195621795E+02  0.25609373631E+02  0.10500000000E+00 0. -1.
    3000001    1    5    5    0    0  0.10177312784E+01 -0.47379414999E+01  0.98836838693E+01  0.11053102435E+02  0.10000000000E+01 0.  1.
        -13    1    6    6    0    0  0.57901442397E+01 -0.13474247303E+01  0.32008771897E+02  0.32556317775E+02  0.10500000000E+00 0.  1.
         13    1    6    6    0    0  0.32814438395E+01 -0.73319088685E+00  0.18588639230E+02  0.18890579027E+02  0.10500000000E+00 0. -1.
</event>
<event>
11    0  0.3467594E-009  0.9118800E+02  0.7816531E-02  0.1126479E+00
         25   -1    0    0    0    0  0.00000000000E+00  0.00000000000E+00  0.99999998245E-14  0.12500000000E+03  0.12500000000E+03 0.  0.
    3000001    1    3    3    0    0  0.25092580237E+02 -0.14059076491E+01 -0.34786987985E+01  0.25391248583E+02  0.10000000000E+01 0. -1.
    1000022    2    1    0    0    0  0.58252426065E+02 -0.37970203146E+01 -0.19962150315E+02  0.62500000498E+02  0.10000005569E+02 0.  0.
    3000022    2    3    3    0    0  0.33159845827E+02 -0.23911126655E+01 -0.16483451517E+02  0.37108751915E+02  0.24999943383E+00 0.  0.
    1000022    2    1    0    0    0 -0.58252426065E+02  0.37970203146E+01  0.19962150315E+02  0.62499999502E+02  0.99999993388E+01 0.  0.
    3000022    2    5    5    0    0 -0.46272636846E+02  0.69623705009E+01  0.15919702331E+02  0.49428038010E+02  0.24999108203E+00 0.  0.
        -13    1    4    4    0    0  0.20010806679E+02 -0.13954294796E+01 -0.99912182291E+01  0.22410155601E+02  0.10500000000E+00 0.  1.
         13    1    4    4    0    0  0.13149039149E+02 -0.99568318583E+00 -0.64922332874E+01  0.14698596314E+02  0.10500000000E+00 0. -1.
    3000001    1    5    5    0    0 -0.11979789219E+02 -0.31653501864E+01  0.40424479843E+01  0.13071961492E+02  0.10000000000E+01 0.  1.
        -13    1    6    6    0    0 -0.29382475909E+02  0.44277785070E+01  0.10170796356E+02  0.31406866073E+02  0.10500000000E+00 0.  1.
         13    1    6    6    0    0 -0.16890160937E+02  0.25345919940E+01  0.57489059745E+01  0.18021171936E+02  0.10500000000E+00 0. -1.
</event>
<event>
11    0  0.3467594E-009  0.9118800E+02  0.7816531E-02  0.1126479E+00
         25   -1    0    0    0    0  0.00000000000E+00  0.00000000000E+00  0.99999998245E-14  0.12500000000E+03  0.12500000000E+03 0.  0.
    3000001    1    3    3    0    0  0.19493492942E+02  0.12551208282E+01  0.86776325685E+01  0.21397964912E+02  0.10000000000E+01 0.  1.
    1000022    2    1    0    0    0  0.60419706124E+02  0.87303887499E+00  0.12447766475E+02  0.62500000352E+02  0.10000003443E+02 0.  0.
    3000022    2    3    3    0    0  0.40926213181E+02 -0.38208195324E+00  0.37701339063E+01  0.41102035440E+02  0.24999132321E+00 0.  0.
    1000022    2    1    0    0    0 -0.60419706124E+02 -0.87303887499E+00 -0.12447766475E+02  0.62499999648E+02  0.99999990425E+01 0.  0.
    3000022    2    5    5    0    0 -0.74068077601E+01  0.49887774400E+00 -0.49657332970E+01  0.89348022846E+01  0.25000897899E+00 0.  0.
        -13    1    4    4    0    0  0.19656995444E+02 -0.20156414813E+00  0.17453661688E+01  0.19735638476E+02  0.10500000000E+00 0. -1.
         13    1    4    4    0    0  0.21269217738E+02 -0.18051780512E+00  0.20247677375E+01  0.21366396965E+02  0.10500000000E+00 0.  1.
    3000001    1    5    5    0    0 -0.53012898363E+02 -0.13719166190E+01 -0.74820331778E+01  0.53565197363E+02  0.10000000000E+01 0.  1.
        -13    1    6    6    0    0 -0.43722163203E+01  0.27594609081E+00 -0.30035959376E+01  0.53127239109E+01  0.10500000000E+00 0. -1.
         13    1    6    6    0    0 -0.30345914398E+01  0.22293165319E+00 -0.19621373593E+01  0.36220783737E+01  0.10500000000E+00 0.  1.
</event>
<event>
11    0  0.3467594E-009  0.9118800E+02  0.7816531E-02  0.1126479E+00
         25   -1    0    0    0    0  0.00000000000E+00  0.00000000000E+00  0.99999998245E-14  0.12500000000E+03  0.12500000000E+03 0.  0.
    3000001    1    3    3    0    0 -0.24300428207E+02  0.86374924963E+01  0.53181694937E+02  0.59113532834E+02  0.10000000000E+01 0. -1.
    1000022    2    1    0    0    0 -0.26490407318E+02  0.10730157207E+02  0.54675151187E+02  0.62500000367E+02  0.99999967524E+01 0.  0.
    3000022    2    3    3    0    0 -0.21899791116E+01  0.20926647102E+01  0.14934562490E+01  0.33864675334E+01  0.24999337658E+00 0.  0.
    1000022    2    1    0    0    0  0.26490407318E+02 -0.10730157207E+02 -0.54675151187E+02  0.62499999633E+02  0.99999921649E+01 0.  0.
    3000022    2    5    5    0    0 -0.12452912463E+00 -0.56969888175E+00  0.19770727204E+00  0.66457005872E+00  0.25000175757E+00 0.  0.
        -13    1    4    4    0    0 -0.14948629062E+01  0.13588393836E+01  0.10146332020E+01  0.22630875178E+01  0.10500000000E+00 0.  1.
         13    1    4    4    0    0 -0.69511620531E+00  0.73382532664E+00  0.47882304704E+00  0.11233800155E+01  0.10500000000E+00 0. -1.
    3000001    1    5    5    0    0  0.26614936443E+02 -0.10160458325E+02 -0.54872858459E+02  0.61835429574E+02  0.10000000000E+01 0. -1.
        -13    1    6    6    0    0  0.27557541808E-02 -0.27553136776E+00  0.12061151505E+00  0.31858635621E+00  0.10500000000E+00 0.  1.
         13    1    6    6    0    0 -0.12728487881E+00 -0.29416751399E+00  0.77095756988E-01  0.34598370251E+00  0.10500000000E+00 0. -1.
</event>
<event>
11    0  0.3467594E-009  0.9118800E+02  0.7816531E-02  0.1126479E+00
         25   -1    0    0    0    0  0.00000000000E+00  0.00000000000E+00  0.99999998245E-14  0.12500000000E+03  0.12500000000E+03 0.  0.
    3000001    1    3    3    0    0 -0.49366107121E+02  0.19118047720E+02  0.24621071274E+02  0.58392717282E+02  0.10000000000E+01 0.  1.
    1000022    2    1    0    0    0 -0.52637147938E+02  0.21495956480E+02  0.23947953670E+02  0.62499996816E+02  0.99999814450E+01 0.  0.
    3000022    2    3    3    0    0 -0.32710408175E+01  0.23779087595E+01 -0.67311760368E+00  0.41072795337E+01  0.24999952157E+00 0.  0.
    1000022    2    1    0    0    0  0.52637147938E+02 -0.21495956480E+02 -0.23947953670E+02  0.62500003184E+02  0.10000021251E+02 0.  0.
    3000022    2    5    5    0    0  0.11334374721E+02 -0.60945383985E+00 -0.60633770187E+01  0.12871149178E+02  0.24991198923E+00 0.  0.
        -13    1    4    4    0    0 -0.95207962117E+00  0.72264674485E+00 -0.23717826528E+00  0.12230913508E+01  0.10500000000E+00 0. -1.
         13    1    4    4    0    0 -0.23189611963E+01  0.16552620147E+01 -0.43593933840E+00  0.28841881828E+01  0.10500000000E+00 0.  1.
    3000001    1    5    5    0    0  0.41302773218E+02 -0.20886502640E+02 -0.17884576651E+02  0.49628854006E+02  0.10000000000E+01 0.  1.
        -13    1    6    6    0    0  0.42171859536E+01 -0.28153775936E+00 -0.22852403168E+01  0.48059618374E+01  0.10500000000E+00 0.  1.
         13    1    6    6    0    0  0.71171887670E+01 -0.32791608049E+00 -0.37781367019E+01  0.80651873406E+01  0.10500000000E+00 0. -1.
</event>
<event>
11    0  0.3467594E-009  0.9118800E+02  0.7816531E-02  0.1126479E+00
         25   -1    0    0    0    0  0.00000000000E+00  0.00000000000E+00  0.99999998245E-14  0.12500000000E+03  0.12500000000E+03 0.  0.
    3000001    1    3    3    0    0  0.12389297572E+02  0.27456142109E+02 -0.15300901837E+02  0.33800177971E+02  0.10000000000E+01 0. -1.
    1000022    2    1    0    0    0  0.14673893503E+02  0.50531057208E+02 -0.32210844649E+02  0.62499999421E+02  0.10000026078E+02 0.  0.
    3000022    2    3    3    0    0  0.22845959305E+01  0.23074915099E+02 -0.16909942812E+02  0.28699821450E+02  0.24999996035E+00 0.  0.
    1000022    2    1    0    0    0 -0.14673893503E+02 -0.50531057208E+02  0.32210844649E+02  0.62500000579E+02  0.10000033311E+02 0.  0.
    3000022    2    5    5    0    0 -0.15185585854E+02 -0.46627800966E+02  0.31732289586E+02  0.58410226342E+02  0.24999661346E+00 0.  0.
        -13    1    4    4    0    0  0.10423422982E+01  0.99651275355E+01 -0.73504001293E+01  0.12426972734E+02  0.10500000000E+00 0. -1.
         13    1    4    4    0    0  0.12422536323E+01  0.13109787564E+02 -0.95595426828E+01  0.16272848717E+02  0.10500000000E+00 0.  1.
    3000001    1    5    5    0    0  0.51169235158E+00 -0.39032562426E+01  0.47855506232E+00  0.40897742365E+01  0.10000000000E+01 0. -1.
        -13    1    6    6    0    0 -0.65208058299E+01 -0.19869191228E+02  0.13585355251E+02  0.24937493279E+02  0.10500000000E+00 0. -1.
         13    1    6    6    0    0 -0.86647800242E+01 -0.26758609737E+02  0.18146934336E+02  0.33472733063E+02  0.10500000000E+00 0.  1.
</event>
<event>
11    0  0.3467594E-009  0.9118800E+02  0.7816531E-02  0.1126479E+00
         25   -1    0    0    0    0  0.00000000000E+00  0.00000000000E+00  0.99999998245E-14  0.12500000000E+03  0.12500000000E+03 0.  0.
    3000001    1    3    3    0    0  0.33141830342E+00  0.35013161239E+00 -0.17929012219E+01  0.21087733471E+01  0.10000000000E+01 0. -1.
    1000022    2    1    0    0    0 -0.27406688900E+02 -0.14665405449E+02 -0.53292112932E+02  0.62499999951E+02  0.99999989876E+01 0.  0.
    3000022    2    3    3    0    0 -0.27738107204E+02 -0.15015537061E+02 -0.51499211710E+02  0.60391226604E+02  0.24999914200E+00 0.  0.
    1000022    2    1    0    0    0  0.27406688900E+02  0.14665405449E+02  0.53292112932E+02  0.62500000049E+02  0.99999995943E+01 0.  0.
    3000022    2    5    5    0    0  0.49716238009E+01 -0.92119341030E+00  0.11455510231E+02  0.12524250574E+02  0.24999453864E+00 0.  0.
        -13    1    4    4    0    0 -0.15046858591E+02 -0.80908039507E+01 -0.27804206705E+02  0.32633632919E+02  0.10500000000E+00 0.  1.
         13    1    4    4    0    0 -0.12691248612E+02 -0.69247331104E+01 -0.23695005005E+02  0.27757593685E+02  0.10500000000E+00 0. -1.
    3000001    1    5    5    0    0  0.22435065099E+02  0.15586598859E+02  0.41836602700E+02  0.49975749474E+02  0.10000000000E+01 0.  1.
        -13    1    6    6    0    0  0.28093741296E+01 -0.45808915067E+00  0.63861115706E+01  0.69925585205E+01  0.10500000000E+00 0.  1.
         13    1    6    6    0    0  0.21622496713E+01 -0.46310425963E+00  0.50693986608E+01  0.55316920538E+01  0.10500000000E+00 0. -1.
</event>
<event>
11    0  0.3467594E-009  0.9118800E+02  0.7816531E-02  0.1126479E+00
         25   -1    0    0    0    0  0.00000000000E+00  0.00000000000E+00  0.99999998245E-14  0.12500000000E+03  0.12500000000E+03 0.  0.
    3000001    1    3    3    0    0 -0.28260577043E+02 -0.43197894869E+02 -0.30986803842E+02  0.60215449415E+02  0.10000000000E+01 0.  1.
    1000022    2    1    0    0    0 -0.28416128756E+02 -0.43527720108E+02 -0.33228158389E+02  0.62499996315E+02  0.10000011907E+02 0.  0.
    3000022    2    3    3    0    0 -0.15555171298E+00 -0.32982523931E+00 -0.22413545470E+01  0.22845468998E+01  0.25000661630E+00 0.  0.
    1000022    2    1    0    0    0  0.28416128756E+02  0.43527720108E+02  0.33228158389E+02  0.62500003685E+02  0.10000057969E+02 0.  0.
    3000022    2    5    5    0    0  0.58709723236E+01  0.44884471253E+01  0.77311106882E+01  0.10697992575E+02  0.24999806723E+00 0.  0.
        -13    1    4    4    0    0 -0.14982078511E+00 -0.18071546332E+00 -0.14289646022E+01  0.14519191371E+01  0.10500000000E+00 0. -1.
         13    1    4    4    0    0 -0.57309278662E-02 -0.14910977599E+00 -0.81238994482E+00  0.83262776273E+00  0.10500000000E+00 0.  1.
    3000001    1    5    5    0    0  0.22545156433E+02  0.39039272983E+02  0.25497047701E+02  0.51802011110E+02  0.10000000000E+01 0.  1.
        -13    1    6    6    0    0  0.29280098872E+01  0.21846806788E+01  0.38976932374E+01  0.53431366388E+01  0.10500000000E+00 0. -1.
         13    1    6    6    0    0  0.29429624364E+01  0.23037664465E+01  0.38334174508E+01  0.53548559359E+01  0.10500000000E+00 0.  1.
</event>
<event>
11    0  0.3467594E-009  0.9118800E+02  0.7816531E-02  0.1126479E+00
         25   -1    0    0    0    0  0.00000000000E+00  0.00000000000E+00  0.99999998245E-14  0.12500000000E+03  0.12500000000E+03 0.  0.
    3000001    1    3    3    0    0  0.32799437268E+02  0.41855811326E+01  0.18319020298E+01  0.33131224541E+02  0.10000000000E+01 0. -1.
    1000022    2    1    0    0    0  0.61535390592E+02  0.21515219482E+01 -0.38751178470E+01  0.62500000251E+02  0.10000007551E+02 0.  0.
    3000022    2    3    3    0    0  0.28735953324E+02 -0.20340591843E+01 -0.57070198768E+01  0.29368775710E+02  0.25000126880E+00 0.  0.
    1000022    2    1    0    0    0 -0.61535390592E+02 -0.21515219482E+01  0.38751178470E+01  0.62499999749E+02  0.10000004416E+02 0.  0.
    3000022    2    5    5    0    0 -0.71746204941E+01  0.29619826869E+01  0.25384617991E+00  0.77701645240E+01  0.24999635183E+00 0.  0.
        -13    1    4    4    0    0  0.69665518357E+01 -0.50651926875E+00 -0.13669136603E+01  0.71182079349E+01  0.10500000000E+00 0.  1.
         13    1    4    4    0    0  0.21769401488E+02 -0.15275399156E+01 -0.43401062165E+01  0.22250567775E+02  0.10500000000E+00 0. -1.
    3000001    1    5    5    0    0 -0.54360770098E+02 -0.51135046352E+01  0.36212716671E+01  0.54729835225E+02  0.10000000000E+01 0.  1.
        -13    1    6    6    0    0 -0.44977419530E+01  0.19138921740E+01  0.13205230195E+00  0.48909230969E+01  0.10500000000E+00 0. -1.
         13    1    6    6    0    0 -0.26768785411E+01  0.10480905129E+01  0.12179387796E+00  0.28792414271E+01  0.10500000000E+00 0.  1.
</event>
<event>
11    0  0.3467594E-009  0.9118800E+02  0.7816531E-02  0.1126479E+00
         25   -1    0    0    0    0  0.00000000000E+00  0.00000000000E+00  0.99999998245E-14  0.12500000000E+03  0.12500000000E+03 0.  0.
    3000001    1    3    3    0    0  0.23892008326E+02 -0.44967199248E+01 -0.37684397021E+01  0.24622138204E+02  0.10000000000E+01 0. -1.
    1000022    2    1    0    0    0  0.58353186907E+02 -0.19995979761E+02 -0.11473669389E+01  0.62499999894E+02  0.99999953479E+01 0.  0.
    3000022    2    3    3    0    0  0.34461178581E+02 -0.15499259836E+02  0.26210727631E+01  0.37877861690E+02  0.24999817428E+00 0.  0.
    1000022    2    1    0    0    0 -0.58353186907E+02  0.19995979761E+02  0.11473669389E+01  0.62500000106E+02  0.99999966779E+01 0.  0.
    3000022    2    5    5    0    0 -0.20977468782E+02  0.12111947273E+02 -0.81933457884E+00  0.24238136736E+02  0.25000013168E+00 0.  0.
        -13    1    4    4    0    0  0.23687539921E+02 -0.10616635644E+02  0.18363181830E+01  0.26022981946E+02  0.10500000000E+00 0. -1.
         13    1    4    4    0    0  0.10773638660E+02 -0.48826241922E+01  0.78475458018E+00  0.11854879744E+02  0.10500000000E+00 0.  1.
    3000001    1    5    5    0    0 -0.37375718126E+02  0.78840324875E+01  0.19667015177E+01  0.38261863370E+02  0.10000000000E+01 0.  1.
        -13    1    6    6    0    0 -0.15666385886E+02  0.90183171516E+01 -0.59532961252E+00  0.18086766802E+02  0.10500000000E+00 0.  1.
         13    1    6    6    0    0 -0.53110828951E+01  0.30936301216E+01 -0.22400496632E+00  0.61513699346E+01  0.10500000000E+00 0. -1.
</event>
<event>
11    0  0.3467594E-009  0.9118800E+02  0.7816531E-02  0.1126479E+00
         25   -1    0    0    0    0  0.00000000000E+00  0.00000000000E+00  0.99999998245E-14  0.12500000000E+03  0.12500000000E+03 0.  0.
    3000001    1    3    3    0    0 -0.61573927843E+01  0.54389157535E+01  0.99136984131E+01  0.12914205616E+02  0.10000000000E+01 0. -1.
    1000022    2    1    0    0    0 -0.44123690723E+02  0.24533166430E+02  0.35460881516E+02  0.62500002501E+02  0.99999928293E+01 0.  0.
    3000022    2    3    3    0    0 -0.37966297939E+02  0.19094250676E+02  0.25547183103E+02  0.49585796884E+02  0.25000018754E+00 0.  0.
    1000022    2    1    0    0    0  0.44123690723E+02 -0.24533166430E+02 -0.35460881516E+02  0.62499997499E+02  0.99999615710E+01 0.  0.
    3000022    2    5    5    0    0  0.14449291039E+02 -0.39707684757E+01 -0.13880932180E+02  0.20427721360E+02  0.25001587791E+00 0.  0.
        -13    1    4    4    0    0 -0.19102567980E+02  0.96816880032E+01  0.12889227206E+02  0.24995727414E+02  0.10500000000E+00 0.  1.
         13    1    4    4    0    0 -0.18863729959E+02  0.94125626730E+01  0.12657955897E+02  0.24590069470E+02  0.10500000000E+00 0. -1.
    3000001    1    5    5    0    0  0.29674399684E+02 -0.20562397954E+02 -0.21579949336E+02  0.42072276140E+02  0.10000000000E+01 0. -1.
        -13    1    6    6    0    0  0.10423747578E+02 -0.28554246962E+01 -0.10062838402E+02  0.14767521981E+02  0.10500000000E+00 0. -1.
         13    1    6    6    0    0  0.40255434610E+01 -0.11153437794E+01 -0.38180937786E+01  0.56601993785E+01  0.10500000000E+00 0.  1.
</event>
<event>
11    0  0.3467594E-009  0.9118800E+02  0.7816531E-02  0.1126479E+00
         25   -1    0    0    0    0  0.00000000000E+00  0.00000000000E+00  0.99999998245E-14  0.12500000000E+03  0.12500000000E+03 0.  0.
    3000001    1    3    3    0    0  0.92281019061E+01 -0.47831184572E+01 -0.32471581499E+02  0.34109231771E+02  0.10000000000E+01 0.  1.
    1000022    2    1    0    0    0  0.24713735771E+02 -0.10877508214E+02 -0.55472163996E+02  0.62500000312E+02  0.10000006995E+02 0.  0.
    3000022    2    3    3    0    0  0.15485633865E+02 -0.60943897572E+01 -0.23000582497E+02  0.28390768541E+02  0.25000088560E+00 0.  0.
    1000022    2    1    0    0    0 -0.24713735771E+02  0.10877508214E+02  0.55472163996E+02  0.62499999688E+02  0.10000003092E+02 0.  0.
    3000022    2    5    5    0    0 -0.16161882458E+02  0.11135124832E+02  0.32516180160E+02  0.37981073217E+02  0.25000178955E+00 0.  0.
        -13    1    4    4    0    0  0.55098699433E+01 -0.21159603701E+01 -0.82090337664E+01  0.10111143133E+02  0.10500000000E+00 0. -1.
         13    1    4    4    0    0  0.99757639218E+01 -0.39784293870E+01 -0.14791548731E+02  0.18279625408E+02  0.10500000000E+00 0.  1.
    3000001    1    5    5    0    0 -0.85518533131E+01 -0.25761661716E+00  0.22955983836E+02  0.24518926471E+02  0.10000000000E+01 0. -1.
        -13    1    6    6    0    0 -0.54525964727E+01  0.37388156659E+01  0.11055080116E+02  0.12881590440E+02  0.10500000000E+00 0.  1.
         13    1    6    6    0    0 -0.10709285985E+02  0.73963091657E+01  0.21461100044E+02  0.25099482777E+02  0.10500000000E+00 0. -1.
</event>
<event>
11    0  0.3467594E-009  0.9118800E+02  0.7816531E-02  0.1126479E+00
         25   -1    0    0    0    0  0.00000000000E+00  0.00000000000E+00  0.99999998245E-14  0.12500000000E+03  0.12500000000E+03 0.  0.
    3000001    1    3    3    0    0  0.19869478800E+02 -0.11420526743E+02  0.17350457104E+02  0.28762179691E+02  0.10000000000E+01 0. -1.
    1000022    2    1    0    0    0  0.48557302606E+02 -0.16146846010E+02  0.34463280741E+02  0.62500000350E+02  0.10000002595E+02 0.  0.
    3000022    2    3    3    0    0  0.28687823806E+02 -0.47263192666E+01  0.17112823637E+02  0.33737820659E+02  0.24996287040E+00 0.  0.
    1000022    2    1    0    0    0 -0.48557302606E+02  0.16146846010E+02 -0.34463280741E+02  0.62499999650E+02  0.99999982218E+01 0.  0.
    3000022    2    5    5    0    0 -0.95166969731E+01 -0.55045960538E+00 -0.46604685439E+01  0.10613811528E+02  0.25000210920E+00 0.  0.
        -13    1    4    4    0    0  0.13468990497E+02 -0.22783393459E+01  0.80789175676E+01  0.15870868572E+02  0.10500000000E+00 0.  1.
         13    1    4    4    0    0  0.15218833309E+02 -0.24479799207E+01  0.90339060691E+01  0.17866952086E+02  0.10500000000E+00 0. -1.
    3000001    1    5    5    0    0 -0.39040605633E+02  0.16697305615E+02 -0.29802812197E+02  0.51886188122E+02  0.10000000000E+01 0. -1.
        -13    1    6    6    0    0 -0.60664772645E+01 -0.36850086033E+00 -0.30329658093E+01  0.67932205826E+01  0.10500000000E+00 0.  1.
         13    1    6    6    0    0 -0.34502197086E+01 -0.18195874504E+00 -0.16275027347E+01  0.38205909456E+01  0.10500000000E+00 0. -1.
</event>
<event>
11    0  0.3467594E-009  0.9118800E+02  0.7816531E-02  0.1126479E+00
         25   -1    0    0    0    0  0.00000000000E+00  0.00000000000E+00  0.99999998245E-14  0.12500000000E+03  0.12500000000E+03 0.  0.
    3000001    1    3    3    0    0 -0.10458900685E+02 -0.14822575760E+02  0.35381916430E+02  0.39774079071E+02  0.10000000000E+01 0.  1.
    1000022    2    1    0    0    0 -0.93500068587E+01 -0.25711660176E+02  0.55296823848E+02  0.62500008027E+02  0.10000008918E+02 0.  0.
    3000022    2    3    3    0    0  0.11088938261E+01 -0.10889084416E+02  0.19914907419E+02  0.22725928956E+02  0.25000896187E+00 0.  0.
    1000022    2    1    0    0    0  0.93500068587E+01  0.25711660176E+02 -0.55296823848E+02  0.62499991973E+02  0.99999085816E+01 0.  0.
    3000022    2    5    5    0    0 -0.18946683680E+01  0.48179140133E+01 -0.73462720473E+01  0.89906771979E+01  0.24999964091E+00 0.  0.
        -13    1    4    4    0    0  0.45713264275E+00 -0.47148378499E+01  0.84914899690E+01  0.97239443179E+01  0.10500000000E+00 0.  1.
         13    1    4    4    0    0  0.65176118335E+00 -0.61742465660E+01  0.11423417450E+02  0.13001984638E+02  0.10500000000E+00 0. -1.
    3000001    1    5    5    0    0  0.11244675227E+02  0.20893746163E+02 -0.47950551801E+02  0.53509314775E+02  0.10000000000E+01 0.  1.
        -13    1    6    6    0    0 -0.47072374803E+00  0.12642143638E+01 -0.18825110474E+01  0.23183381221E+01  0.10500000000E+00 0.  1.
         13    1    6    6    0    0 -0.14239446200E+01  0.35536996495E+01 -0.54637609998E+01  0.66723390758E+01  0.10500000000E+00 0. -1.
</event>
<event>
11    0  0.3467594E-009  0.9118800E+02  0.7816531E-02  0.1126479E+00
         25   -1    0    0    0    0  0.00000000000E+00  0.00000000000E+00  0.99999998245E-14  0.12500000000E+03  0.12500000000E+03 0.  0.
    3000001    1    3    3    0    0  0.36783429202E+02  0.10552876645E+02 -0.11889283005E+02  0.40084147986E+02  0.10000000000E+01 0. -1.
    1000022    2    1    0    0    0  0.56876501170E+02  0.98122953571E+01 -0.21795238204E+02  0.62500000425E+02  0.10000005966E+02 0.  0.
    3000022    2    3    3    0    0  0.20093071968E+02 -0.74058128790E+00 -0.99059551986E+01  0.22415852440E+02  0.24998092272E+00 0.  0.
    1000022    2    1    0    0    0 -0.56876501170E+02 -0.98122953571E+01  0.21795238204E+02  0.62499999575E+02  0.10000000650E+02 0.  0.
    3000022    2    5    5    0    0 -0.27302651557E+02 -0.12602960347E+00  0.12315847290E+02  0.29953184411E+02  0.24999284283E+00 0.  0.
        -13    1    4    4    0    0  0.11010983825E+02 -0.47170771009E+00 -0.54173646018E+01  0.12281007173E+02  0.10500000000E+00 0.  1.
         13    1    4    4    0    0  0.90820881428E+01 -0.26887357780E+00 -0.44885905969E+01  0.10134845267E+02  0.10500000000E+00 0. -1.
    3000001    1    5    5    0    0 -0.29573849613E+02 -0.96862657537E+01  0.94793909138E+01  0.32546815164E+02  0.10000000000E+01 0.  1.
        -13    1    6    6    0    0 -0.11326340384E+02 -0.46604799602E-01  0.50388701448E+01  0.12397152731E+02  0.10500000000E+00 0. -1.
         13    1    6    6    0    0 -0.15976311173E+02 -0.79424803868E-01  0.72769771452E+01  0.17556031680E+02  0.10500000000E+00 0.  1.
</event>
<event>
11    0  0.3467594E-009  0.9118800E+02  0.7816531E-02  0.1126479E+00
         25   -1    0    0    0    0  0.00000000000E+00  0.00000000000E+00  0.99999998245E-14  0.12500000000E+03  0.12500000000E+03 0.  0.
    3000001    1    3    3    0    0  0.43470038058E+01 -0.15730031768E+02 -0.56088952254E+01  0.17285544457E+02  0.10000000000E+01 0.  1.
    1000022    2    1    0    0    0  0.15014423948E+02 -0.49153613607E+02 -0.34128273945E+02  0.62500001728E+02  0.10000023824E+02 0.  0.
    3000022    2    3    3    0    0  0.10667420142E+02 -0.33423581838E+02 -0.28519378720E+02  0.45214457272E+02  0.25001679333E+00 0.  0.
    1000022    2    1    0    0    0 -0.15014423948E+02  0.49153613607E+02  0.34128273945E+02  0.62499998272E+02  0.10000002218E+02 0.  0.
    3000022    2    5    5    0    0 -0.77371537912E+01  0.38839478791E+02  0.27428987147E+02  0.48174479728E+02  0.24999922691E+00 0.  0.
        -13    1    4    4    0    0  0.68709607763E+01 -0.21705137286E+02 -0.18482890631E+02  0.29324927240E+02  0.10500000000E+00 0.  1.
         13    1    4    4    0    0  0.37964593659E+01 -0.11718444552E+02 -0.10036488089E+02  0.15889530031E+02  0.10500000000E+00 0. -1.
    3000001    1    5    5    0    0 -0.72772701567E+01  0.10314134816E+02  0.66992867979E+01  0.14325518543E+02  0.10000000000E+01 0.  1.
        -13    1    6    6    0    0 -0.48592720752E+01  0.24273652145E+02  0.17077972563E+02  0.30074754952E+02  0.10500000000E+00 0. -1.
         13    1    6    6    0    0 -0.28778817160E+01  0.14565826646E+02  0.10351014584E+02  0.18099724776E+02  0.10500000000E+00 0.  1.
</event>
<event>
11    0  0.3467594E-009  0.9118800E+02  0.7816531E-02  0.1126479E+00
         25   -1    0    0    0    0  0.00000000000E+00  0.00000000000E+00  0.99999998245E-14  0.12500000000E+03  0.12500000000E+03 0.  0.
    3000001    1    3    3    0    0 -0.13963723141E+01 -0.30660189280E+01 -0.48368711016E+01  0.59787665751E+01  0.10000000000E+01 0.  1.
    1000022    2    1    0    0    0 -0.34773018016E+02 -0.40233276528E+02 -0.31278917032E+02  0.62499999944E+02  0.10000001011E+02 0.  0.
    3000022    2    3    3    0    0 -0.33376645702E+02 -0.37167257600E+02 -0.26442045930E+02  0.56521233369E+02  0.25002553649E+00 0.  0.
    1000022    2    1    0    0    0  0.34773018016E+02  0.40233276528E+02  0.31278917032E+02  0.62500000056E+02  0.10000001710E+02 0.  0.
    3000022    2    5    5    0    0  0.68823131715E+01  0.13692126186E+02  0.61569781443E+01  0.16517004376E+02  0.24999924231E+00 0.  0.
        -13    1    4    4    0    0 -0.17436187560E+02 -0.19315580344E+02 -0.13767025952E+02  0.29438993006E+02  0.10500000000E+00 0.  1.
         13    1    4    4    0    0 -0.15940458141E+02 -0.17851677256E+02 -0.12675019979E+02  0.27082240363E+02  0.10500000000E+00 0. -1.
    3000001    1    5    5    0    0  0.27890704844E+02  0.26541150342E+02  0.25121938888E+02  0.45982995680E+02  0.10000000000E+01 0.  1.
        -13    1    6    6    0    0  0.31287234282E+01  0.61695439251E+01  0.28461504092E+01  0.74808943105E+01  0.10500000000E+00 0.  1.
         13    1    6    6    0    0  0.37535897432E+01  0.75225822608E+01  0.33108277351E+01  0.90361100659E+01  0.10500000000E+00 0. -1.
</event>
<event>
11    0  0.3467594E-009  0.9118800E+02  0.7816531E-02  0.1126479E+00
         25   -1    0    0    0    0  0.00000000000E+00  0.00000000000E+00  0.99999998245E-14  0.12500000000E+03  0.12500000000E+03 0.  0.
    3000001    1    3    3    0    0  0.50883150192E+02  0.83861703820E+01  0.24837690669E+02  0.57248001755E+02  0.10000000000E+01 0. -1.
    1000022    2    1    0    0    0  0.55598143810E+02  0.63832628299E+01  0.25968258545E+02  0.62500000305E+02  0.99999973433E+01 0.  0.
    3000022    2    3    3    0    0  0.47149936175E+01 -0.20029075521E+01  0.11305678759E+01  0.52519985504E+01  0.25000315240E+00 0.  0.
    1000022    2    1    0    0    0 -0.55598143810E+02 -0.63832628299E+01 -0.25968258545E+02  0.62499999695E+02  0.99999935290E+01 0.  0.
    3000022    2    5    5    0    0 -0.44339425439E+02 -0.55836244609E+01 -0.24795637682E+02  0.51108195599E+02  0.24999787981E+00 0.  0.
        -13    1    4    4    0    0  0.11890806428E+01 -0.49876993563E+00  0.25771898217E+00  0.13191392260E+01  0.10500000000E+00 0. -1.
         13    1    4    4    0    0  0.35259129747E+01 -0.15041376164E+01  0.87284889371E+00  0.39328593244E+01  0.10500000000E+00 0.  1.
    3000001    1    5    5    0    0 -0.11258718371E+02 -0.79963836896E+00 -0.11726208626E+01  0.11391804096E+02  0.10000000000E+01 0. -1.
        -13    1    6    6    0    0 -0.17088386108E+02 -0.21000683104E+01 -0.95911547831E+01  0.19708488063E+02  0.10500000000E+00 0. -1.
         13    1    6    6    0    0 -0.27251039331E+02 -0.34835561505E+01 -0.15204482899E+02  0.31399707535E+02  0.10500000000E+00 0.  1.
</event>
<event>
11    0  0.3467594E-009  0.9118800E+02  0.7816531E-02  0.1126479E+00
         25   -1    0    0    0    0  0.00000000000E+00  0.00000000000E+00  0.99999998245E-14  0.12500000000E+03  0.12500000000E+03 0.  0.
    3000001    1    3    3    0    0  0.18942168892E+02 -0.63282721214E+01  0.10171335391E+02  0.22434545995E+02  0.10000000000E+01 0. -1.
    1000022    2    1    0    0    0  0.57673367289E+02 -0.14341289349E+02  0.16563819727E+02  0.62499999063E+02  0.99999942176E+01 0.  0.
    3000022    2    3    3    0    0  0.38731198397E+02 -0.80130172275E+01  0.63924843368E+01  0.40065453068E+02  0.24999847972E+00 0.  0.
    1000022    2    1    0    0    0 -0.57673367289E+02  0.14341289349E+02 -0.16563819727E+02  0.62500000937E+02  0.10000005928E+02 0.  0.
    3000022    2    5    5    0    0 -0.34029733365E+02  0.11909436979E+02 -0.63439054060E+01  0.36608265194E+02  0.25000526958E+00 0.  0.
        -13    1    4    4    0    0  0.29857241386E+02 -0.61794808502E+01  0.49249869828E+01  0.30885390859E+02  0.10500000000E+00 0.  1.
         13    1    4    4    0    0  0.88739570109E+01 -0.18335363773E+01  0.14674973540E+01  0.91800622091E+01  0.10500000000E+00 0. -1.
    3000001    1    5    5    0    0 -0.23643633923E+02  0.24318523698E+01 -0.10219914321E+02  0.25891735743E+02  0.10000000000E+01 0.  1.
        -13    1    6    6    0    0 -0.10791447398E+02  0.38143555202E+01 -0.20499810944E+01  0.11628331457E+02  0.10500000000E+00 0. -1.
         13    1    6    6    0    0 -0.23238285968E+02  0.80950814589E+01 -0.42939243116E+01  0.24979933737E+02  0.10500000000E+00 0.  1.
</event>
<event>
11    0  0.3467594E-009  0.9118800E+02  0.7816531E-02  0.1126479E+00
         25   -1    0    0    0    0  0.00000000000E+00  0.00000000000E+00  0.99999998245E-14  0.12500000000E+03  0.12500000000E+03 0.  0.
    3000001    1    3    3    0    0 -0.38348993972E+02  0.32082449870E+02  0.17010757438E+02  0.52823241069E+02  0.10000000000E+01 0.  1.
    1000022    2    1    0    0    0 -0.46729436809E+02  0.34137103561E+02  0.21383825328E+02  0.62499999193E+02  0.99999904678E+01 0.  0.
    3000022    2    3    3    0    0 -0.83804428366E+01  0.20546536911E+01  0.43730678903E+01  0.96767581241E+01  0.25000218027E+00 0.  0.
    1000022    2    1    0    0    0  0.46729436809E+02 -0.34137103561E+02 -0.21383825328E+02  0.62500000807E+02  0.10000000559E+02 0.  0.
    3000022    2    5    5    0    0  0.12416392053E+02 -0.41373530775E+01 -0.58424304217E+01  0.14334608406E+02  0.25004563322E+00 0.  0.
        -13    1    4    4    0    0 -0.38358384872E+01  0.94972677179E+00  0.19284535639E+01  0.43983628760E+01  0.10500000000E+00 0. -1.
         13    1    4    4    0    0 -0.45446043494E+01  0.11049269194E+01  0.24446143264E+01  0.52783952480E+01  0.10500000000E+00 0.  1.
    3000001    1    5    5    0    0  0.34313044756E+02 -0.29999750484E+02 -0.15541394907E+02  0.48165392402E+02  0.10000000000E+01 0. -1.
        -13    1    6    6    0    0  0.43861914546E+01 -0.15197979931E+01 -0.20891019456E+01  0.50915452817E+01  0.10500000000E+00 0.  1.
         13    1    6    6    0    0  0.80302005980E+01 -0.26175550844E+01 -0.37533284762E+01  0.92430631240E+01  0.10500000000E+00 0. -1.
</event>
<event>
11    0  0.3467594E-009  0.9118800E+02  0.7816531E-02  0.1126479E+00
         25   -1    0    0    0    0  0.00000000000E+00  0.00000000000E+00  0.99999998245E-14  0.12500000000E+03  0.12500000000E+03 0.  0.
    3000001    1    3    3    0    0 -0.63731184415E+01 -0.43213703104E+01 -0.28814615902E+01  0.82821314241E+01  0.10000000000E+01 0. -1.
    1000022    2    1    0    0    0 -0.37977812123E+02 -0.48282777319E+02 -0.57191680873E+01  0.62499997996E+02  0.10000003328E+02 0.  0.
    3000022    2    3    3    0    0 -0.31604693682E+02 -0.43961407009E+02 -0.28377064971E+01  0.54217866572E+02  0.25001706980E+00 0.  0.
    1000022    2    1    0    0    0  0.37977812123E+02  0.48282777319E+02  0.57191680873E+01  0.62500002004E+02  0.10000028379E+02 0.  0.
    3000022    2    5    5    0    0  0.11228802112E+02  0.78024556254E+01  0.20885264579E+01  0.13834330945E+02  0.24991851317E+00 0.  0.
        -13    1    4    4    0    0 -0.11814040351E+02 -0.16401634524E+02 -0.11166225304E+01  0.20244580394E+02  0.10500000000E+00 0. -1.
         13    1    4    4    0    0 -0.19790653331E+02 -0.27559772485E+02 -0.17210839667E+01  0.33973286178E+02  0.10500000000E+00 0.  1.
    3000001    1    5    5    0    0  0.26749010011E+02  0.40480321694E+02  0.36306416294E+01  0.48665671059E+02  0.10000000000E+01 0. -1.
        -13    1    6    6    0    0  0.46872976846E+01  0.31927010234E+01  0.82916240161E+00  0.57325940635E+01  0.10500000000E+00 0. -1.
         13    1    6    6    0    0  0.65415044277E+01  0.46097546020E+01  0.12593640562E+01  0.81017368814E+01  0.10500000000E+00 0.  1.
</event>
<event>
11    0  0.3467594E-009  0.9118800E+02  0.7816531E-02  0.1126479E+00
         25   -1    0    0    0    0  0.00000000000E+00  0.00000000000E+00  0.99999998245E-14  0.12500000000E+03  0.12500000000E+03 0.  0.
    3000001    1    3    3    0    0  0.74154058332E+01  0.11668685416E+02 -0.31521766002E+02  0.34434985043E+02  0.10000000000E+01 0.  1.
    1000022    2    1    0    0    0  0.21428693697E+02  0.17746490379E+02 -0.55064719240E+02  0.62500000627E+02  0.99999969495E+01 0.  0.
    3000022    2    3    3    0    0  0.14013287864E+02  0.60778049637E+01 -0.23542953238E+02  0.28065015584E+02  0.25000525298E+00 0.  0.
    1000022    2    1    0    0    0 -0.21428693697E+02 -0.17746490379E+02  0.55064719240E+02  0.62499999373E+02  0.99999891161E+01 0.  0.
    3000022    2    5    5    0    0 -0.21590605832E+02 -0.17840773842E+02  0.54633744299E+02  0.61395081136E+02  0.25000015314E+00 0.  0.
        -13    1    4    4    0    0  0.73515071026E+01  0.31606410528E+01 -0.12448559001E+02  0.14799052495E+02  0.10500000000E+00 0.  1.
         13    1    4    4    0    0  0.66617807612E+01  0.29171639109E+01 -0.11094394237E+02  0.13265963089E+02  0.10500000000E+00 0. -1.
    3000001    1    5    5    0    0  0.16191213531E+00  0.94283462661E-01  0.43097494081E+00  0.11049182370E+01  0.10000000000E+01 0. -1.
        -13    1    6    6    0    0 -0.87746450155E+01 -0.72369329627E+01  0.22049519837E+02  0.24810480526E+02  0.10500000000E+00 0.  1.
         13    1    6    6    0    0 -0.12815960817E+02 -0.10603840879E+02  0.32584224462E+02  0.36584600611E+02  0.10500000000E+00 0. -1.
</event>
<event>
11    0  0.3467594E-009  0.9118800E+02  0.7816531E-02  0.1126479E+00
         25   -1    0    0    0    0  0.00000000000E+00  0.00000000000E+00  0.99999998245E-14  0.12500000000E+03  0.12500000000E+03 0.  0.
    3000001    1    3    3    0    0 -0.89044130427E+01 -0.21462146206E+01 -0.21016357761E+02  0.22947376808E+02  0.10000000000E+01 0. -1.
    1000022    2    1    0    0    0 -0.12072351588E+02 -0.94201842551E+01 -0.59764273844E+02  0.62499999597E+02  0.99999988683E+01 0.  0.
    3000022    2    3    3    0    0 -0.31679385456E+01 -0.72739696344E+01 -0.38747916083E+02  0.39552622790E+02  0.24999981605E+00 0.  0.
    1000022    2    1    0    0    0  0.12072351588E+02  0.94201842551E+01  0.59764273844E+02  0.62500000403E+02  0.10000003900E+02 0.  0.
    3000022    2    5    5    0    0  0.69690925295E+01  0.10204495677E+00  0.32101485685E+02  0.32850365975E+02  0.24999525365E+00 0.  0.
        -13    1    4    4    0    0 -0.22058376873E+01 -0.51134716696E+01 -0.27394157302E+02  0.27954681034E+02  0.10500000000E+00 0. -1.
         13    1    4    4    0    0 -0.96210085827E+00 -0.21604979648E+01 -0.11353758781E+02  0.11597941756E+02  0.10500000000E+00 0.  1.
    3000001    1    5    5    0    0  0.51032590588E+01  0.93181392983E+01  0.27662788159E+02  0.29649634428E+02  0.10000000000E+01 0. -1.
        -13    1    6    6    0    0  0.39126630161E+01  0.50286297127E-01  0.18329159315E+02  0.18742480273E+02  0.10500000000E+00 0.  1.
         13    1    6    6    0    0  0.30564295134E+01  0.51758659640E-01  0.13772326370E+02  0.14107885702E+02  0.10500000000E+00 0. -1.
</event>
<event>
11    0  0.3467594E-009  0.9118800E+02  0.7816531E-02  0.1126479E+00
         25   -1    0    0    0    0  0.00000000000E+00  0.00000000000E+00  0.99999998245E-14  0.12500000000E+03  0.12500000000E+03 0.  0.
    3000001    1    3    3    0    0 -0.27171119833E+02  0.27066138780E+02  0.74373177716E+01  0.39078885822E+02  0.10000000000E+01 0. -1.
    1000022    2    1    0    0    0 -0.43654280983E+02  0.43390125494E+02  0.42250148546E+01  0.62499998791E+02  0.99999929938E+01 0.  0.
    3000022    2    3    3    0    0 -0.16483161150E+02  0.16323986714E+02 -0.32123029170E+01  0.23421112970E+02  0.24999793856E+00 0.  0.
    1000022    2    1    0    0    0  0.43654280983E+02 -0.43390125494E+02 -0.42250148546E+01  0.62500001209E+02  0.10000008101E+02 0.  0.
    3000022    2    5    5    0    0  0.32036854410E+02 -0.32613988876E+02 -0.73880461219E+01  0.46310668690E+02  0.24999629399E+00 0.  0.
        -13    1    4    4    0    0 -0.82188047602E+01  0.81964158176E+01 -0.15523329057E+01  0.11711137707E+02  0.10500000000E+00 0. -1.
         13    1    4    4    0    0 -0.82643563896E+01  0.81275708967E+01 -0.16599700113E+01  0.11709975263E+02  0.10500000000E+00 0.  1.
    3000001    1    5    5    0    0  0.11617426573E+02 -0.10776136618E+02  0.31630312673E+01  0.16189332518E+02  0.10000000000E+01 0. -1.
        -13    1    6    6    0    0  0.22949067902E+02 -0.23308305814E+02 -0.52698072982E+01  0.33131838637E+02  0.10500000000E+00 0. -1.
         13    1    6    6    0    0  0.90877865075E+01 -0.93056830628E+01 -0.21182388237E+01  0.13178830054E+02  0.10500000000E+00 0.  1.
</event>
<event>
11    0  0.3467594E-009  0.9118800E+02  0.7816531E-02  0.1126479E+00
         25   -1    0    0    0    0  0.00000000000E+00  0.00000000000E+00  0.99999998245E-14  0.12500000000E+03  0.12500000000E+03 0.  0.
    3000001    1    3    3    0    0 -0.42122483919E+02  0.36730768245E+01  0.18700423367E+02  0.46243929104E+02  0.10000000000E+01 0.  1.
    1000022    2    1    0    0    0 -0.57519810207E+02 -0.81130028067E-01  0.22309522284E+02  0.62499999354E+02  0.99999993179E+01 0.  0.
    3000022    2    3    3    0    0 -0.15397326288E+02 -0.37542068526E+01  0.36090989170E+01  0.16256070250E+02  0.24999813241E+00 0.  0.
    1000022    2    1    0    0    0  0.57519810207E+02  0.81130028067E-01 -0.22309522284E+02  0.62500000646E+02  0.10000007393E+02 0.  0.
    3000022    2    5    5    0    0  0.27753109430E+02 -0.38017114314E+01 -0.74360335997E+01  0.28983533073E+02  0.25000167677E+00 0.  0.
        -13    1    4    4    0    0 -0.96494200169E+01 -0.22975969528E+01  0.22308231130E+01  0.10167490112E+02  0.10500000000E+00 0. -1.
         13    1    4    4    0    0 -0.57479062710E+01 -0.14566098998E+01  0.13782758040E+01  0.60885801376E+01  0.10500000000E+00 0.  1.
    3000001    1    5    5    0    0  0.29766700777E+02  0.38828414595E+01 -0.14873488684E+02  0.33516467573E+02  0.10000000000E+01 0.  1.
        -13    1    6    6    0    0  0.21332394801E+02 -0.29253420578E+01 -0.57064325652E+01  0.22275616529E+02  0.10500000000E+00 0. -1.
         13    1    6    6    0    0  0.64207146287E+01 -0.87636937366E+00 -0.17296010344E+01  0.67079165439E+01  0.10500000000E+00 0.  1.
</event>
<event>
11    0  0.3467594E-009  0.9118800E+02  0.7816531E-02  0.1126479E+00
         25   -1    0    0    0    0  0.00000000000E+00  0.00000000000E+00  0.99999998245E-14  0.12500000000E+03  0.12500000000E+03 0.  0.
    3000001    1    3    3    0    0  0.30443420291E+01 -0.26186167209E+01 -0.99274819819E+01  0.10755467002E+02  0.10000000000E+01 0.  1.
    1000022    2    1    0    0    0  0.26117929168E+02  0.42238844110E+01 -0.55733854574E+02  0.62499998265E+02  0.99999906966E+01 0.  0.
    3000022    2    3    3    0    0  0.23073587139E+02  0.68425011319E+01 -0.45806372592E+02  0.51744531263E+02  0.25000089277E+00 0.  0.
    1000022    2    1    0    0    0 -0.26117929168E+02 -0.42238844110E+01  0.55733854574E+02  0.62500001735E+02  0.10000012386E+02 0.  0.
    3000022    2    5    5    0    0 -0.11503141708E+02 -0.61982002053E+01  0.20765455056E+02  0.24535822563E+02  0.25002049212E+00 0.  0.
        -13    1    4    4    0    0  0.12997491181E+02  0.38496641320E+01 -0.25941578592E+02  0.29269971229E+02  0.10500000000E+00 0. -1.
         13    1    4    4    0    0  0.10076095958E+02  0.29928369999E+01 -0.19864794000E+02  0.22474560034E+02  0.10500000000E+00 0.  1.
    3000001    1    5    5    0    0 -0.14614787461E+02  0.19743157944E+01  0.34968399518E+02  0.37964179172E+02  0.10000000000E+01 0. -1.
        -13    1    6    6    0    0 -0.29576860373E+01 -0.15615956093E+01  0.53339978469E+01  0.62967488097E+01  0.10500000000E+00 0.  1.
         13    1    6    6    0    0 -0.85454556702E+01 -0.46366045961E+01  0.15431457209E+02  0.18239073753E+02  0.10500000000E+00 0. -1.
</event>
<event>
11    0  0.3467594E-009  0.9118800E+02  0.7816531E-02  0.1126479E+00
         25   -1    0    0    0    0  0.00000000000E+00  0.00000000000E+00  0.99999998245E-14  0.12500000000E+03  0.12500000000E+03 0.  0.
    3000001    1    3    3    0    0  0.53281866902E+01  0.72620067388E+01 -0.21562753584E+01  0.93153549961E+01  0.10000000000E+01 0.  1.
    1000022    2    1    0    0    0  0.28675870131E+02  0.54200927324E+02  0.67973504490E+01  0.62500000330E+02  0.10000000876E+02 0.  0.
    3000022    2    3    3    0    0  0.23347683441E+02  0.46938920585E+02  0.89536258075E+01  0.53184645334E+02  0.24999280637E+00 0.  0.
    1000022    2    1    0    0    0 -0.28675870131E+02 -0.54200927324E+02 -0.67973504490E+01  0.62499999670E+02  0.99999967539E+01 0.  0.
    3000022    2    5    5    0    0 -0.67031703673E+01 -0.12228002444E+02  0.26077270654E+01  0.14188702431E+02  0.24999895692E+00 0.  0.
        -13    1    4    4    0    0  0.94114486591E+01  0.18784738487E+02  0.36058651265E+01  0.21317951454E+02  0.10500000000E+00 0. -1.
         13    1    4    4    0    0  0.13936234782E+02  0.28154182098E+02  0.53477606810E+01  0.31866693879E+02  0.10500000000E+00 0.  1.
    3000001    1    5    5    0    0 -0.21972699764E+02 -0.41972924880E+02 -0.94050775144E+01  0.48311297239E+02  0.10000000000E+01 0. -1.
        -13    1    6    6    0    0 -0.46620382414E+01 -0.85976712409E+01  0.18368338196E+01  0.99518608719E+01  0.10500000000E+00 0. -1.
         13    1    6    6    0    0 -0.20411321258E+01 -0.36303312031E+01  0.77089324577E+00  0.42368415590E+01  0.10500000000E+00 0.  1.
</event>
<event>
11    0  0.3467594E-009  0.9118800E+02  0.7816531E-02  0.1126479E+00
         25   -1    0    0    0    0  0.00000000000E+00  0.00000000000E+00  0.99999998245E-14  0.12500000000E+03  0.12500000000E+03 0.  0.
    3000001    1    3    3    0    0 -0.10909470475E+02 -0.16361395510E+02  0.10183385592E+02  0.22167840472E+02  0.10000000000E+01 0. -1.
    1000022    2    1    0    0    0 -0.35909762171E+02 -0.47368177720E+02  0.16522511115E+02  0.62499988198E+02  0.99999935741E+01 0.  0.
    3000022    2    3    3    0    0 -0.25000291696E+02 -0.31006782210E+02  0.63391255230E+01  0.40332147726E+02  0.24999974488E+00 0.  0.
    1000022    2    1    0    0    0  0.35909762171E+02  0.47368177720E+02 -0.16522511115E+02  0.62500011802E+02  0.10000141102E+02 0.  0.
    3000022    2    5    5    0    0  0.67543287217E+01  0.16268245768E+02 -0.55497298223E+01  0.18469942573E+02  0.25000141071E+00 0.  0.
        -13    1    4    4    0    0 -0.93728055459E+01 -0.11681036241E+02  0.24330842097E+01  0.15173233513E+02  0.10500000000E+00 0. -1.
         13    1    4    4    0    0 -0.15627486150E+02 -0.19325745970E+02  0.39060413133E+01  0.25158914213E+02  0.10500000000E+00 0.  1.
    3000001    1    5    5    0    0  0.29155433449E+02  0.31099931952E+02 -0.10972781292E+02  0.44030069229E+02  0.10000000000E+01 0. -1.
        -13    1    6    6    0    0  0.39865015476E+01  0.94555643759E+01 -0.31992165194E+01  0.10749228046E+02  0.10500000000E+00 0.  1.
         13    1    6    6    0    0  0.27678271742E+01  0.68126813919E+01 -0.23505133028E+01  0.77207145266E+01  0.10500000000E+00 0. -1.
</event>
<event>
11    0  0.3467594E-009  0.9118800E+02  0.7816531E-02  0.1126479E+00
         25   -1    0    0    0    0  0.00000000000E+00  0.00000000000E+00  0.99999998245E-14  0.12500000000E+03  0.12500000000E+03 0.  0.
    3000001    1    3    3    0    0 -0.11632192800E+02  0.64933665437E+01 -0.18646776994E+02  0.22938483182E+02  0.10000000000E+01 0.  1.
    1000022    2    1    0    0    0 -0.37275043559E+02  0.61900695217E+01 -0.48769911790E+02  0.62499999024E+02  0.99999874479E+01 0.  0.
    3000022    2    3    3    0    0 -0.25642850759E+02 -0.30329702202E+00 -0.30123134796E+02  0.39561515842E+02  0.25000332535E+00 0.  0.
    1000022    2    1    0    0    0  0.37275043559E+02 -0.61900695217E+01  0.48769911790E+02  0.62500000976E+02  0.99999996500E+01 0.  0.
    3000022    2    5    5    0    0  0.27549388634E+02 -0.77156321376E+01  0.40598698513E+02  0.49667057766E+02  0.25002557423E+00 0.  0.
        -13    1    4    4    0    0 -0.12813401212E+02 -0.19711814001E+00 -0.15130283646E+02  0.19828227717E+02  0.10500000000E+00 0.  1.
         13    1    4    4    0    0 -0.12829449547E+02 -0.10617888201E+00 -0.14992851150E+02  0.19733288125E+02  0.10500000000E+00 0. -1.
    3000001    1    5    5    0    0  0.97256549252E+01  0.15255626159E+01  0.81712132768E+01  0.12832943210E+02  0.10000000000E+01 0.  1.
        -13    1    6    6    0    0  0.77228026030E+01 -0.22030478315E+01  0.11414424236E+02  0.13956905296E+02  0.10500000000E+00 0.  1.
         13    1    6    6    0    0  0.19826586031E+02 -0.55125843060E+01  0.29184274277E+02  0.35710152470E+02  0.10500000000E+00 0. -1.
</event>
<event>
11    0  0.3467594E-009  0.9118800E+02  0.7816531E-02  0.1126479E+00
         25   -1    0    0    0    0  0.00000000000E+00  0.00000000000E+00  0.99999998245E-14  0.12500000000E+03  0.12500000000E+03 0.  0.
    3000001    1    3    3    0    0  0.26773283137E+01  0.81629094107E+00 -0.53001264719E+00  0.30191606791E+01  0.10000000000E+01 0. -1.
    1000022    2    1    0    0    0  0.33097069759E+02  0.36996561161E+02 -0.36634519981E+02  0.62500002752E+02  0.10000036268E+02 0.  0.
    3000022    2    3    3    0    0  0.30419741446E+02  0.36180270220E+02 -0.36104507334E+02  0.59480842073E+02  0.25000214524E+00 0.  0.
    1000022    2    1    0    0    0 -0.33097069759E+02 -0.36996561161E+02  0.36634519981E+02  0.62499997248E+02  0.10000001866E+02 0.  0.
    3000022    2    5    5    0    0 -0.14661660341E+02 -0.10482823604E+02  0.16459476068E+02  0.24409644183E+02  0.25000412181E+00 0.  0.
        -13    1    4    4    0    0  0.17439368865E+02  0.20841458691E+02 -0.20741743174E+02  0.34186677547E+02  0.10500000000E+00 0.  1.
         13    1    4    4    0    0  0.12980372580E+02  0.15338811529E+02 -0.15362764160E+02  0.25294164526E+02  0.10500000000E+00 0. -1.
    3000001    1    5    5    0    0 -0.18435409419E+02 -0.26513737557E+02  0.20175043913E+02  0.38090353065E+02  0.10000000000E+01 0.  1.
        -13    1    6    6    0    0 -0.55208322588E+01 -0.40058270395E+01  0.62801212910E+01  0.92723884479E+01  0.10500000000E+00 0. -1.
         13    1    6    6    0    0 -0.91408280818E+01 -0.64769965645E+01  0.10179354777E+02  0.15137255735E+02  0.10500000000E+00 0.  1.
</event>
<event>
11    0  0.3467594E-009  0.9118800E+02  0.7816531E-02  0.1126479E+00
         25   -1    0    0    0    0  0.00000000000E+00  0.00000000000E+00  0.99999998245E-14  0.12500000000E+03  0.12500000000E+03 0.  0.
    3000001    1    3    3    0    0 -0.95657086867E+01 -0.83779965097E+01 -0.57710970407E+01  0.13999970330E+02  0.10000000000E+01 0.  1.
    1000022    2    1    0    0    0 -0.53041477209E+02 -0.23074328806E+02 -0.21457571717E+02  0.62499997310E+02  0.99999662708E+01 0.  0.
    3000022    2    3    3    0    0 -0.43475768522E+02 -0.14696332296E+02 -0.15686474676E+02  0.48500026980E+02  0.24999541753E+00 0.  0.
    1000022    2    1    0    0    0  0.53041477209E+02  0.23074328806E+02  0.21457571717E+02  0.62500002690E+02  0.99999998938E+01 0.  0.
    3000022    2    5    5    0    0  0.13803027402E+02  0.40164465376E+01  0.13022381128E+01  0.14436541594E+02  0.25000168286E+00 0.  0.
        -13    1    4    4    0    0 -0.29244196812E+02 -0.99011799994E+01 -0.10500215555E+02  0.32611684474E+02  0.10500000000E+00 0. -1.
         13    1    4    4    0    0 -0.14231571710E+02 -0.47951522967E+01 -0.51862591215E+01  0.15888342505E+02  0.10500000000E+00 0.  1.
    3000001    1    5    5    0    0  0.39238449807E+02  0.19057882268E+02  0.20155333604E+02  0.48063461095E+02  0.10000000000E+01 0. -1.
        -13    1    6    6    0    0  0.61845779195E+01  0.18652873986E+01  0.60676056992E+00  0.64890280097E+01  0.10500000000E+00 0.  1.
         13    1    6    6    0    0  0.76184494829E+01  0.21511591390E+01  0.69547754287E+00  0.79475135846E+01  0.10500000000E+00 0. -1.
</event>
<event>
11    0  0.3467594E-009  0.9118800E+02  0.7816531E-02  0.1126479E+00
         25   -1    0    0    0    0  0.00000000000E+00  0.00000000000E+00  0.99999998245E-14  0.12500000000E+03  0.12500000000E+03 0.  0.
    3000001    1    3    3    0    0 -0.19365747393E+02 -0.15104316969E+02  0.66261912379E+00  0.24588851687E+02  0.10000000000E+01 0. -1.
    1000022    2    1    0    0    0 -0.52561733220E+02 -0.31354445523E+02 -0.77725783031E+01  0.62500000552E+02  0.10000002119E+02 0.  0.
    3000022    2    3    3    0    0 -0.33195985827E+02 -0.16250128553E+02 -0.84351974269E+01  0.37911148865E+02  0.24999914066E+00 0.  0.
    1000022    2    1    0    0    0  0.52561733220E+02  0.31354445523E+02  0.77725783031E+01  0.62499999448E+02  0.99999952189E+01 0.  0.
    3000022    2    5    5    0    0  0.39931579365E+02  0.26084063426E+02  0.23791768324E+01  0.47755966984E+02  0.25000974672E+00 0.  0.
        -13    1    4    4    0    0 -0.16555413637E+02 -0.81304308845E+01 -0.41441686448E+01  0.18904253114E+02  0.10500000000E+00 0. -1.
         13    1    4    4    0    0 -0.16640572190E+02 -0.81196976690E+01 -0.42910287821E+01  0.19006895750E+02  0.10500000000E+00 0.  1.
    3000001    1    5    5    0    0  0.12630153856E+02  0.52703820973E+01  0.53934014706E+01  0.14744032464E+02  0.10000000000E+01 0. -1.
        -13    1    6    6    0    0  0.95455000113E+01  0.62317609947E+01  0.55033260033E+00  0.11413382782E+02  0.10500000000E+00 0. -1.
         13    1    6    6    0    0  0.30386079353E+02  0.19852302431E+02  0.18288442321E+01  0.36342584202E+02  0.10500000000E+00 0.  1.
</event>
<event>
11    0  0.3467594E-009  0.9118800E+02  0.7816531E-02  0.1126479E+00
         25   -1    0    0    0    0  0.00000000000E+00  0.00000000000E+00  0.99999998245E-14  0.12500000000E+03  0.12500000000E+03 0.  0.
    3000001    1    3    3    0    0 -0.26844752823E+02 -0.62165017201E+01  0.88696029337E+01  0.28964728619E+02  0.10000000000E+01 0. -1.
    1000022    2    1    0    0    0 -0.57344427357E+02 -0.33419897160E+01  0.22509949800E+02  0.62500001527E+02  0.10000005336E+02 0.  0.
    3000022    2    3    3    0    0 -0.30499674534E+02  0.28745120041E+01  0.13640346866E+02  0.33535272908E+02  0.25000091607E+00 0.  0.
    1000022    2    1    0    0    0  0.57344427357E+02  0.33419897160E+01 -0.22509949800E+02  0.62499998473E+02  0.99999862439E+01 0.  0.
    3000022    2    5    5    0    0  0.22711056386E+02  0.44183483786E+01 -0.50342561982E+01  0.23679529649E+02  0.25000875428E+00 0.  0.
        -13    1    4    4    0    0 -0.16418108704E+02  0.16128068304E+01  0.73276329029E+01  0.18051611237E+02  0.10500000000E+00 0. -1.
         13    1    4    4    0    0 -0.14081565830E+02  0.12617051737E+01  0.63127139632E+01  0.15483661671E+02  0.10500000000E+00 0.  1.
    3000001    1    5    5    0    0  0.34633370972E+02 -0.10763586626E+01 -0.17475693602E+02  0.38820468824E+02  0.10000000000E+01 0. -1.
        -13    1    6    6    0    0  0.15908842642E+02  0.31176726206E+01 -0.35680613396E+01  0.16599796490E+02  0.10500000000E+00 0.  1.
         13    1    6    6    0    0  0.68022137432E+01  0.13006757579E+01 -0.14661948586E+01  0.70797331587E+01  0.10500000000E+00 0. -1.
</event>
<event>
11    0  0.3467594E-009  0.9118800E+02  0.7816531E-02  0.1126479E+00
         25   -1    0    0    0    0  0.00000000000E+00  0.00000000000E+00  0.99999998245E-14  0.12500000000E+03  0.12500000000E+03 0.  0.
    3000001    1    3    3    0    0 -0.17254189253E+02 -0.10269850833E+02 -0.24256605725E+02  0.31504917144E+02  0.10000000000E+01 0.  1.
    1000022    2    1    0    0    0 -0.34684950372E+02 -0.10729818245E+02 -0.49880609614E+02  0.62499998656E+02  0.99999917342E+01 0.  0.
    3000022    2    3    3    0    0 -0.17430761119E+02 -0.45996741189E+00 -0.25624003889E+02  0.30995081512E+02  0.24999896249E+00 0.  0.
    1000022    2    1    0    0    0  0.34684950372E+02  0.10729818245E+02  0.49880609614E+02  0.62500001344E+02  0.10000008533E+02 0.  0.
    3000022    2    5    5    0    0  0.28557862595E+02  0.63204299158E+01  0.44191202853E+02  0.52994568194E+02  0.24999650283E+00 0.  0.
        -13    1    4    4    0    0 -0.66383453336E+01 -0.18198163777E+00 -0.96519349895E+01  0.11716297202E+02  0.10500000000E+00 0. -1.
         13    1    4    4    0    0 -0.10792415785E+02 -0.27798577412E+00 -0.15972068899E+02  0.19278784310E+02  0.10500000000E+00 0.  1.
    3000001    1    5    5    0    0  0.61270877771E+01  0.44093883289E+01  0.56894067615E+01  0.95054331495E+01  0.10000000000E+01 0. -1.
        -13    1    6    6    0    0  0.13411568104E+02  0.29617746669E+01  0.20629842720E+02  0.24783940442E+02  0.10500000000E+00 0. -1.
         13    1    6    6    0    0  0.15146294491E+02  0.33586552489E+01  0.23561360132E+02  0.28210627752E+02  0.10500000000E+00 0.  1.
</event>
<event>
11    0  0.3467594E-009  0.9118800E+02  0.7816531E-02  0.1126479E+00
         25   -1    0    0    0    0  0.00000000000E+00  0.00000000000E+00  0.99999998245E-14  0.12500000000E+03  0.12500000000E+03 0.  0.
    3000001    1    3    3    0    0  0.11480177766E+02  0.45640256234E-01  0.15906164559E+02  0.19641859269E+02  0.10000000000E+01 0.  1.
    1000022    2    1    0    0    0  0.30139786928E+02  0.13093537568E+02  0.52214965965E+02  0.62499999649E+02  0.99999901643E+01 0.  0.
    3000022    2    3    3    0    0  0.18659609162E+02  0.13047897312E+02  0.36308801407E+02  0.42858140381E+02  0.24999788089E+00 0.  0.
    1000022    2    1    0    0    0 -0.30139786928E+02 -0.13093537568E+02 -0.52214965965E+02  0.62500000351E+02  0.99999945480E+01 0.  0.
    3000022    2    5    5    0    0  0.46323350441E+00  0.29948027656E-01  0.40730328663E-01  0.52880922981E+00  0.24999615575E+00 0.  0.
        -13    1    4    4    0    0  0.92716680730E+01  0.65645399912E+01  0.18139822680E+02  0.21403766164E+02  0.10500000000E+00 0.  1.
         13    1    4    4    0    0  0.93879410893E+01  0.64833573206E+01  0.18168978727E+02  0.21454374216E+02  0.10500000000E+00 0. -1.
    3000001    1    5    5    0    0 -0.30603020432E+02 -0.13123485596E+02 -0.52255696294E+02  0.61971191121E+02  0.10000000000E+01 0. -1.
        -13    1    6    6    0    0  0.26411285094E+00  0.43037042173E-01  0.83411281043E-01  0.29931626557E+00  0.10500000000E+00 0.  1.
         13    1    6    6    0    0  0.19912065347E+00 -0.13089014518E-01 -0.42680952379E-01  0.22949296424E+00  0.10500000000E+00 0. -1.
</event>
<event>
11    0  0.3467594E-009  0.9118800E+02  0.7816531E-02  0.1126479E+00
         25   -1    0    0    0    0  0.00000000000E+00  0.00000000000E+00  0.99999998245E-14  0.12500000000E+03  0.12500000000E+03 0.  0.
    3000001    1    3    3    0    0 -0.13409770798E+02  0.46355110305E+01 -0.11293619839E+02  0.18161931737E+02  0.10000000000E+01 0.  1.
    1000022    2    1    0    0    0 -0.47084421991E+02  0.66677644408E+00 -0.39860542056E+02  0.62500002587E+02  0.10000006262E+02 0.  0.
    3000022    2    3    3    0    0 -0.33674651193E+02 -0.39687345864E+01 -0.28566922217E+02  0.44338070849E+02  0.24998892808E+00 0.  0.
    1000022    2    1    0    0    0  0.47084421991E+02 -0.66677644408E+00  0.39860542056E+02  0.62499997413E+02  0.99999739280E+01 0.  0.
    3000022    2    5    5    0    0  0.34422824033E+01 -0.10869968482E+01  0.37753490616E+00  0.36381185219E+01  0.25000696430E+00 0.  0.
        -13    1    4    4    0    0 -0.19761589242E+02 -0.23720164190E+01 -0.16831008997E+02  0.26066084480E+02  0.10500000000E+00 0.  1.
         13    1    4    4    0    0 -0.13913061951E+02 -0.15967181674E+01 -0.11735913220E+02  0.18271986369E+02  0.10500000000E+00 0. -1.
    3000001    1    5    5    0    0  0.43642139588E+02  0.42022040413E+00  0.39483007150E+02  0.58861878891E+02  0.10000000000E+01 0. -1.
        -13    1    6    6    0    0  0.10170552121E+01 -0.36853809176E+00  0.10579829434E+00  0.10919889691E+01  0.10500000000E+00 0.  1.
         13    1    6    6    0    0  0.24252271912E+01 -0.71845875645E+00  0.27173661182E+00  0.25461295528E+01  0.10500000000E+00 0. -1.
</event>
<event>
11    0  0.3467594E-009  0.9118800E+02  0.7816531E-02  0.1126479E+00
         25   -1    0    0    0    0  0.00000000000E+00  0.00000000000E+00  0.99999998245E-14  0.12500000000E+03  0.12500000000E+03 0.  0.
    3000001    1    3    3    0    0  0.21583502507E+02 -0.22372237447E+02  0.10145553229E+01  0.31119028123E+02  0.10000000000E+01 0. -1.
    1000022    2    1    0    0    0  0.42469554695E+02 -0.43173242415E+02  0.11775312989E+02  0.62499999934E+02  0.10000002959E+02 0.  0.
    3000022    2    3    3    0    0  0.20886052188E+02 -0.20801004968E+02  0.10760757667E+02  0.31380971811E+02  0.25000510252E+00 0.  0.
    1000022    2    1    0    0    0 -0.42469554695E+02  0.43173242415E+02 -0.11775312989E+02  0.62500000066E+02  0.10000003780E+02 0.  0.
    3000022    2    5    5    0    0 -0.42251110801E+02  0.42723265653E+02 -0.12182676572E+02  0.61309982457E+02  0.25009678991E+00 0.  0.
        -13    1    4    4    0    0  0.10546443832E+02 -0.10562328698E+02  0.53918742050E+01  0.15870526062E+02  0.10500000000E+00 0. -1.
         13    1    4    4    0    0  0.10339608356E+02 -0.10238676270E+02  0.53688834616E+01  0.15510445749E+02  0.10500000000E+00 0.  1.
    3000001    1    5    5    0    0 -0.21844389372E+00  0.44997676180E+00  0.40736358240E+00  0.11900176087E+01  0.10000000000E+01 0.  1.
        -13    1    6    6    0    0 -0.30111869960E+02  0.30420679249E+02 -0.87167589340E+01  0.43682208619E+02  0.10500000000E+00 0.  1.
         13    1    6    6    0    0 -0.12139240841E+02  0.12302586404E+02 -0.34659176379E+01  0.17627773838E+02  0.10500000000E+00 0. -1.
</event>
<event>
11    0  0.3467594E-009  0.9118800E+02  0.7816531E-02  0.1126479E+00
         25   -1    0    0    0    0  0.00000000000E+00  0.00000000000E+00  0.99999998245E-14  0.12500000000E+03  0.12500000000E+03 0.  0.
    3000001    1    3    3    0    0 -0.95012743662E+01  0.19365713809E+02  0.14674909270E+02  0.26108581884E+02  0.10000000000E+01 0.  1.
    1000022    2    1    0    0    0 -0.12493428966E+02  0.51096774875E+02  0.32237925837E+02  0.62499999565E+02  0.99999956705E+01 0.  0.
    3000022    2    3    3    0    0 -0.29921545993E+01  0.31731061066E+02  0.17563016566E+02  0.36391417680E+02  0.25000874246E+00 0.  0.
    1000022    2    1    0    0    0  0.12493428966E+02 -0.51096774875E+02 -0.32237925837E+02  0.62500000435E+02  0.10000001114E+02 0.  0.
    3000022    2    5    5    0    0  0.14046126212E+02 -0.46299146881E+02 -0.28632292367E+02  0.56220773109E+02  0.24999857950E+00 0.  0.
        -13    1    4    4    0    0 -0.10522132979E+01  0.10926554518E+02  0.59907271088E+01  0.12505861936E+02  0.10500000000E+00 0. -1.
         13    1    4    4    0    0 -0.19399413014E+01  0.20804506548E+02  0.11572289458E+02  0.23885555745E+02  0.10500000000E+00 0.  1.
    3000001    1    5    5    0    0 -0.15526972461E+01 -0.47976279932E+01 -0.36056334696E+01  0.62792273264E+01  0.10000000000E+01 0.  1.
        -13    1    6    6    0    0  0.65224170239E+01 -0.21524248734E+02 -0.13387432301E+02  0.26173833804E+02  0.10500000000E+00 0.  1.
         13    1    6    6    0    0  0.75237091877E+01 -0.24774898147E+02 -0.15244860066E+02  0.30046939305E+02  0.10500000000E+00 0. -1.
</event>
<event>
11    0  0.3467594E-009  0.9118800E+02  0.7816531E-02  0.1126479E+00
         25   -1    0    0    0    0  0.00000000000E+00  0.00000000000E+00  0.99999998245E-14  0.12500000000E+03  0.12500000000E+03 0.  0.
    3000001    1    3    3    0    0 -0.26133416463E+02  0.42921004978E+02  0.21416160179E+02  0.54633506579E+02  0.10000000000E+01 0. -1.
    1000022    2    1    0    0    0 -0.32489920270E+02  0.47458833967E+02  0.22322967351E+02  0.62500006666E+02  0.10000006061E+02 0.  0.
    3000022    2    3    3    0    0 -0.63565038077E+01  0.45378289887E+01  0.90680717111E+00  0.78665000862E+01  0.24998354574E+00 0.  0.
    1000022    2    1    0    0    0  0.32489920270E+02 -0.47458833967E+02 -0.22322967351E+02  0.62499993334E+02  0.99999227406E+01 0.  0.
    3000022    2    5    5    0    0  0.21778717857E+02 -0.33612339557E+02 -0.20138811957E+02  0.44830081072E+02  0.24999978892E+00 0.  0.
        -13    1    4    4    0    0 -0.24777141991E+01  0.17154193183E+01  0.30613659947E+00  0.30309199441E+01  0.10500000000E+00 0. -1.
         13    1    4    4    0    0 -0.38787896086E+01  0.28224096704E+01  0.60067057164E+00  0.48355801421E+01  0.10500000000E+00 0.  1.
    3000001    1    5    5    0    0  0.10711202413E+02 -0.13846494410E+02 -0.21841553935E+01  0.17669912262E+02  0.10000000000E+01 0. -1.
        -13    1    6    6    0    0  0.69989907424E+01 -0.10874455611E+02 -0.65395799297E+01  0.14491955938E+02  0.10500000000E+00 0.  1.
         13    1    6    6    0    0  0.14779727114E+02 -0.22737883946E+02 -0.13599232027E+02  0.30338125134E+02  0.10500000000E+00 0. -1.
</event>
<event>
11    0  0.3467594E-009  0.9118800E+02  0.7816531E-02  0.1126479E+00
         25   -1    0    0    0    0  0.00000000000E+00  0.00000000000E+00  0.99999998245E-14  0.12500000000E+03  0.12500000000E+03 0.  0.
    3000001    1    3    3    0    0  0.24204244937E+00 -0.24135965711E+00 -0.10657778372E+01  0.15009068690E+01  0.10000000000E+01 0.  1.
    1000022    2    1    0    0    0 -0.79695096769E+01  0.34758558202E+02 -0.50344608393E+02  0.62500000944E+02  0.10000003547E+02 0.  0.
    3000022    2    3    3    0    0 -0.82115521263E+01  0.34999917859E+02 -0.49278830556E+02  0.60999094075E+02  0.24999701251E+00 0.  0.
    1000022    2    1    0    0    0  0.79695096769E+01 -0.34758558202E+02  0.50344608393E+02  0.62499999056E+02  0.99999917502E+01 0.  0.
    3000022    2    5    5    0    0  0.17060014589E+01 -0.25933363335E+02  0.32613105134E+02  0.41702840417E+02  0.24999505831E+00 0.  0.
        -13    1    4    4    0    0 -0.44548117393E+01  0.18985542883E+02 -0.26844778369E+02  0.33180556609E+02  0.10500000000E+00 0. -1.
         13    1    4    4    0    0 -0.37567403871E+01  0.16014374976E+02 -0.22434052187E+02  0.27818537466E+02  0.10500000000E+00 0.  1.
    3000001    1    5    5    0    0  0.62635082181E+01 -0.88251948673E+01  0.17731503259E+02  0.20797158639E+02  0.10000000000E+01 0. -1.
        -13    1    6    6    0    0  0.85272586237E+00 -0.13492089601E+02  0.16871277603E+02  0.21619774656E+02  0.10500000000E+00 0. -1.
         13    1    6    6    0    0  0.85327559649E+00 -0.12441273733E+02  0.15741827531E+02  0.20083065761E+02  0.10500000000E+00 0.  1.
</event>
<event>
11    0  0.3467594E-009  0.9118800E+02  0.7816531E-02  0.1126479E+00
         25   -1    0    0    0    0  0.00000000000E+00  0.00000000000E+00  0.99999998245E-14  0.12500000000E+03  0.12500000000E+03 0.  0.
    3000001    1    3    3    0    0  0.11274956909E+02  0.15834390010E+02 -0.18896656841E+02  0.27128144059E+02  0.10000000000E+01 0. -1.
    1000022    2    1    0    0    0  0.25781620432E+02  0.43808599040E+02 -0.34962334340E+02  0.62499999405E+02  0.99999900585E+01 0.  0.
    3000022    2    3    3    0    0  0.14506663522E+02  0.27974209030E+02 -0.16065677498E+02  0.35371855346E+02  0.24999944609E+00 0.  0.
    1000022    2    1    0    0    0 -0.25781620432E+02 -0.43808599040E+02  0.34962334340E+02  0.62500000595E+02  0.99999974957E+01 0.  0.
    3000022    2    5    5    0    0 -0.10195140943E+02 -0.92079328760E+01  0.75767057463E+01  0.15690630856E+02  0.25000001517E+00 0.  0.
        -13    1    4    4    0    0  0.59290177406E+01  0.11304264683E+02 -0.64826287480E+01  0.14316953303E+02  0.10500000000E+00 0.  1.
         13    1    4    4    0    0  0.85776457816E+01  0.16669944347E+02 -0.95830487505E+01  0.21054902043E+02  0.10500000000E+00 0. -1.
    3000001    1    5    5    0    0 -0.15586479489E+02 -0.34600666164E+02  0.27385628594E+02  0.46809369739E+02  0.10000000000E+01 0.  1.
        -13    1    6    6    0    0 -0.25557237945E+01 -0.22739208835E+01  0.18916765017E+01  0.39104865791E+01  0.10500000000E+00 0. -1.
         13    1    6    6    0    0 -0.76394171482E+01 -0.69340119925E+01  0.56850292446E+01  0.11780144277E+02  0.10500000000E+00 0.  1.
</event>
<event>
11    0  0.3467594E-009  0.9118800E+02  0.7816531E-02  0.1126479E+00
         25   -1    0    0    0    0  0.00000000000E+00  0.00000000000E+00  0.99999998245E-14  0.12500000000E+03  0.12500000000E+03 0.  0.
    3000001    1    3    3    0    0  0.73500622488E+00 -0.90220022391E+01  0.45936351966E+02  0.46830387469E+02  0.10000000000E+01 0. -1.
    1000022    2    1    0    0    0  0.64597365279E+01 -0.10571624105E+02  0.60438088555E+02  0.62499999055E+02  0.99999950774E+01 0.  0.
    3000022    2    3    3    0    0  0.57247303030E+01 -0.15496218657E+01  0.14501736589E+02  0.15669611587E+02  0.24999642022E+00 0.  0.
    1000022    2    1    0    0    0 -0.64597365279E+01  0.10571624105E+02 -0.60438088555E+02  0.62500000945E+02  0.10000006884E+02 0.  0.
    3000022    2    5    5    0    0 -0.37798383912E+01 -0.61983637110E+00 -0.90633635037E+01  0.98426841151E+01  0.24999439492E+00 0.  0.
        -13    1    4    4    0    0  0.22181112368E+01 -0.62532420854E+00  0.54872248453E+01  0.59524540593E+01  0.10500000000E+00 0. -1.
         13    1    4    4    0    0  0.35066190663E+01 -0.92429765719E+00  0.90145117439E+01  0.97171575275E+01  0.10500000000E+00 0.  1.
    3000001    1    5    5    0    0 -0.26798981367E+01  0.11191460476E+02 -0.51374725051E+02  0.52657316829E+02  0.10000000000E+01 0.  1.
        -13    1    6    6    0    0 -0.16664458008E+01 -0.24952006698E+00 -0.38304629526E+01  0.41860211779E+01  0.10500000000E+00 0.  1.
         13    1    6    6    0    0 -0.21133925905E+01 -0.37031630412E+00 -0.52329005512E+01  0.56566629372E+01  0.10500000000E+00 0. -1.
</event>
<event>
11    0  0.3467594E-009  0.9118800E+02  0.7816531E-02  0.1126479E+00
         25   -1    0    0    0    0  0.00000000000E+00  0.00000000000E+00  0.99999998245E-14  0.12500000000E+03  0.12500000000E+03 0.  0.
    3000001    1    3    3    0    0 -0.65793647838E+01 -0.32913507036E+02 -0.63006705199E+01  0.34165559199E+02  0.10000000000E+01 0.  1.
    1000022    2    1    0    0    0 -0.58856484262E+01 -0.58731116527E+02 -0.17951750894E+02  0.62499997206E+02  0.99999692336E+01 0.  0.
    3000022    2    3    3    0    0  0.69371635760E+00 -0.25817609491E+02 -0.11651080374E+02  0.28334438007E+02  0.25000216379E+00 0.  0.
    1000022    2    1    0    0    0  0.58856484262E+01  0.58731116527E+02  0.17951750894E+02  0.62500002794E+02  0.10000004163E+02 0.  0.
    3000022    2    5    5    0    0  0.30129381097E+01  0.26729924205E+02  0.13336831121E+02  0.30024993031E+02  0.24999629980E+00 0.  0.
        -13    1    4    4    0    0  0.31064483800E+00 -0.12142134741E+02 -0.55513475375E+01  0.13355014817E+02  0.10500000000E+00 0. -1.
         13    1    4    4    0    0  0.38307151959E+00 -0.13675474750E+02 -0.60997328364E+01  0.14979423190E+02  0.10500000000E+00 0.  1.
    3000001    1    5    5    0    0  0.28727103165E+01  0.32001192322E+02  0.46149197733E+01  0.32475009763E+02  0.10000000000E+01 0. -1.
        -13    1    6    6    0    0  0.22638106198E+01  0.19815527153E+02  0.98964268442E+01  0.22265000431E+02  0.10500000000E+00 0. -1.
         13    1    6    6    0    0  0.74912748986E+00  0.69143970512E+01  0.34404042763E+01  0.77599926007E+01  0.10500000000E+00 0.  1.
</event>
<event>
11    0  0.3467594E-009  0.9118800E+02  0.7816531E-02  0.1126479E+00
         25   -1    0    0    0    0  0.00000000000E+00  0.00000000000E+00  0.99999998245E-14  0.12500000000E+03  0.12500000000E+03 0.  0.
    3000001    1    3    3    0    0  0.27381934160E+02  0.18152108447E+02 -0.17003287665E+02  0.37005150329E+02  0.10000000000E+01 0. -1.
    1000022    2    1    0    0    0  0.44923360105E+02  0.24752211953E+02 -0.34285124221E+02  0.62500000189E+02  0.10000000053E+02 0.  0.
    3000022    2    3    3    0    0  0.17541425945E+02  0.66001035063E+01 -0.17281836555E+02  0.25494849860E+02  0.25000837115E+00 0.  0.
    1000022    2    1    0    0    0 -0.44923360105E+02 -0.24752211953E+02  0.34285124221E+02  0.62499999811E+02  0.99999976902E+01 0.  0.
    3000022    2    5    5    0    0 -0.30199461065E+02 -0.13697743963E+02  0.17174714135E+02  0.37345266682E+02  0.24999927046E+00 0.  0.
        -13    1    4    4    0    0  0.65745983113E+01  0.25349059200E+01 -0.65234505446E+01  0.96029955215E+01  0.10500000000E+00 0.  1.
         13    1    4    4    0    0  0.10966827634E+02  0.40651975862E+01 -0.10758386011E+02  0.15891854339E+02  0.10500000000E+00 0. -1.
    3000001    1    5    5    0    0 -0.14723899041E+02 -0.11054467990E+02  0.17110410085E+02  0.25154733129E+02  0.10000000000E+01 0. -1.
        -13    1    6    6    0    0 -0.11843810052E+02 -0.54382167867E+01  0.67679312778E+01  0.14685569691E+02  0.10500000000E+00 0.  1.
         13    1    6    6    0    0 -0.18355651012E+02 -0.82595271765E+01  0.10406782858E+02  0.22659696991E+02  0.10500000000E+00 0. -1.
</event>
<event>
11    0  0.3467594E-009  0.9118800E+02  0.7816531E-02  0.1126479E+00
         25   -1    0    0    0    0  0.00000000000E+00  0.00000000000E+00  0.99999998245E-14  0.12500000000E+03  0.12500000000E+03 0.  0.
    3000001    1    3    3    0    0  0.43642083714E+01  0.21111113730E+02  0.12012668846E+02  0.24698778318E+02  0.10000000000E+01 0. -1.
    1000022    2    1    0    0    0  0.18673491119E+01  0.49160742624E+02  0.37228807650E+02  0.62499997103E+02  0.99999955431E+01 0.  0.
    3000022    2    3    3    0    0 -0.24968592596E+01  0.28049628894E+02  0.25216138804E+02  0.37801218785E+02  0.24999638353E+00 0.  0.
    1000022    2    1    0    0    0 -0.18673491119E+01 -0.49160742624E+02 -0.37228807650E+02  0.62500002897E+02  0.10000031752E+02 0.  0.
    3000022    2    5    5    0    0 -0.15689161830E+01 -0.73153347528E+00 -0.15650262777E+01  0.23470090999E+01  0.25001050087E+00 0.  0.
        -13    1    4    4    0    0 -0.16262603543E+01  0.17917655759E+02  0.16175933252E+02  0.24194192531E+02  0.10500000000E+00 0.  1.
         13    1    4    4    0    0 -0.87059890524E+00  0.10131973135E+02  0.90402055520E+01  0.13607026254E+02  0.10500000000E+00 0. -1.
    3000001    1    5    5    0    0 -0.29843292892E+00 -0.48429209149E+02 -0.35663781372E+02  0.60152993797E+02  0.10000000000E+01 0. -1.
        -13    1    6    6    0    0 -0.49136360563E+00 -0.19892914209E+00 -0.43208740514E+00  0.69190716298E+00  0.10500000000E+00 0.  1.
         13    1    6    6    0    0 -0.10775525773E+01 -0.53260433318E+00 -0.11329388726E+01  0.16551019369E+01  0.10500000000E+00 0. -1.
</event>
<event>
11    0  0.3467594E-009  0.9118800E+02  0.7816531E-02  0.1126479E+00
         25   -1    0    0    0    0  0.00000000000E+00  0.00000000000E+00  0.99999998245E-14  0.12500000000E+03  0.12500000000E+03 0.  0.
    3000001    1    3    3    0    0  0.23671176325E+01 -0.25623776721E+01 -0.45636088616E+02  0.45780144270E+02  0.10000000000E+01 0. -1.
    1000022    2    1    0    0    0  0.20841644779E+01 -0.92280225388E+01 -0.60965152102E+02  0.62499998802E+02  0.99999968990E+01 0.  0.
    3000022    2    3    3    0    0 -0.28295315459E+00 -0.66656448667E+01 -0.15329063485E+02  0.16719854532E+02  0.24992850872E+00 0.  0.
    1000022    2    1    0    0    0 -0.20841644779E+01  0.92280225388E+01  0.60965152102E+02  0.62500001198E+02  0.10000011869E+02 0.  0.
    3000022    2    5    5    0    0 -0.91973901658E+00  0.10696676782E+02  0.39627566521E+02  0.41056927949E+02  0.24998037834E+00 0.  0.
        -13    1    4    4    0    0 -0.13445024739E+00 -0.44069144147E+01 -0.10162699849E+02  0.11078378255E+02  0.10500000000E+00 0.  1.
         13    1    4    4    0    0 -0.14850290720E+00 -0.22587304520E+01 -0.51663636360E+01  0.56414762773E+01  0.10500000000E+00 0. -1.
    3000001    1    5    5    0    0 -0.11644254613E+01 -0.14686542430E+01  0.21337585581E+02  0.21443073249E+02  0.10000000000E+01 0.  1.
        -13    1    6    6    0    0 -0.51333710221E+00  0.53904695211E+01  0.20161981567E+02  0.20876714357E+02  0.10500000000E+00 0. -1.
         13    1    6    6    0    0 -0.40640191437E+00  0.53062072607E+01  0.19465584954E+02  0.20180213592E+02  0.10500000000E+00 0.  1.
</event>
<event>
11    0  0.3467594E-009  0.9118800E+02  0.7816531E-02  0.1126479E+00
         25   -1    0    0    0    0  0.00000000000E+00  0.00000000000E+00  0.99999998245E-14  0.12500000000E+03  0.12500000000E+03 0.  0.
    3000001    1    3    3    0    0  0.57275301004E+01  0.50821815851E+02 -0.20242093543E+02  0.55012761415E+02  0.10000000000E+01 0.  1.
    1000022    2    1    0    0    0  0.46809638105E+01  0.58221679140E+02 -0.19863878748E+02  0.62500005519E+02  0.10000083345E+02 0.  0.
    3000022    2    3    3    0    0 -0.10465662899E+01  0.73998632883E+01  0.37821479535E+00  0.74872441040E+01  0.25000031117E+00 0.  0.
    1000022    2    1    0    0    0 -0.46809638105E+01 -0.58221679140E+02  0.19863878748E+02  0.62499994481E+02  0.10000014362E+02 0.  0.
    3000022    2    5    5    0    0 -0.44039983548E+01 -0.33907464493E+02  0.16385007853E+02  0.37916254195E+02  0.25000003411E+00 0.  0.
        -13    1    4    4    0    0 -0.24047701489E+00  0.17481437805E+01  0.10384602200E+00  0.17707752168E+01  0.10500000000E+00 0. -1.
         13    1    4    4    0    0 -0.80608927496E+00  0.56517195078E+01  0.27436877335E+00  0.57164688872E+01  0.10500000000E+00 0.  1.
    3000001    1    5    5    0    0 -0.27696545569E+00 -0.24314214647E+02  0.34788708947E+01  0.24583740286E+02  0.10000000000E+01 0.  1.
        -13    1    6    6    0    0 -0.30646558919E+01 -0.23649741133E+02  0.11376597125E+02  0.26422345818E+02  0.10500000000E+00 0.  1.
         13    1    6    6    0    0 -0.13393424630E+01 -0.10257723360E+02  0.50084107283E+01  0.11493908377E+02  0.10500000000E+00 0. -1.
</event>
<event>
11    0  0.3467594E-009  0.9118800E+02  0.7816531E-02  0.1126479E+00
         25   -1    0    0    0    0  0.00000000000E+00  0.00000000000E+00  0.99999998245E-14  0.12500000000E+03  0.12500000000E+03 0.  0.
    3000001    1    3    3    0    0 -0.22177615974E+02  0.73555908649E+01 -0.33203239457E+02  0.40612885611E+02  0.10000000000E+01 0.  1.
    1000022    2    1    0    0    0 -0.35862856720E+02  0.43348861150E+01 -0.50013143447E+02  0.62500001527E+02  0.99999971842E+01 0.  0.
    3000022    2    3    3    0    0 -0.13685240746E+02 -0.30207047498E+01 -0.16809903990E+02  0.21887115915E+02  0.24999896349E+00 0.  0.
    1000022    2    1    0    0    0  0.35862856720E+02 -0.43348861150E+01  0.50013143447E+02  0.62499998473E+02  0.99999781005E+01 0.  0.
    3000022    2    5    5    0    0  0.35458041461E+02 -0.37663636218E+01  0.45405425902E+02  0.57733641984E+02  0.25003224046E+00 0.  0.
        -13    1    4    4    0    0 -0.89065453118E+01 -0.20186337949E+01 -0.10917554391E+02  0.14233954148E+02  0.10500000000E+00 0. -1.
         13    1    4    4    0    0 -0.47786954343E+01 -0.10020709549E+01 -0.58923495984E+01  0.76531617677E+01  0.10500000000E+00 0.  1.
    3000001    1    5    5    0    0  0.40481525860E+00 -0.56852249321E+00  0.46077175442E+01  0.47663564896E+01  0.10000000000E+01 0. -1.
        -13    1    6    6    0    0  0.13755320936E+02 -0.14917114548E+01  0.17705689235E+02  0.22470792452E+02  0.10500000000E+00 0. -1.
         13    1    6    6    0    0  0.21702720525E+02 -0.22746521670E+01  0.27699736667E+02  0.35262849532E+02  0.10500000000E+00 0.  1.
</event>
<event>
11    0  0.3467594E-009  0.9118800E+02  0.7816531E-02  0.1126479E+00
         25   -1    0    0    0    0  0.00000000000E+00  0.00000000000E+00  0.99999998245E-14  0.12500000000E+03  0.12500000000E+03 0.  0.
    3000001    1    3    3    0    0 -0.53343031796E+00  0.25856301926E+01 -0.76618428372E+01  0.81654067296E+01  0.10000000000E+01 0.  1.
    1000022    2    1    0    0    0  0.20487389156E+01  0.40498729891E+02 -0.46496296714E+02  0.62500000066E+02  0.99999973105E+01 0.  0.
    3000022    2    3    3    0    0  0.25821692335E+01  0.37913099699E+02 -0.38834453877E+02  0.54334593337E+02  0.24999687603E+00 0.  0.
    1000022    2    1    0    0    0 -0.20487389156E+01 -0.40498729891E+02  0.46496296714E+02  0.62499999934E+02  0.99999964841E+01 0.  0.
    3000022    2    5    5    0    0 -0.45306536628E+01 -0.83813039976E+01  0.10175192515E+02  0.13941668444E+02  0.24999395027E+00 0.  0.
        -13    1    4    4    0    0  0.13854127447E+01  0.19844298919E+02 -0.20245203015E+02  0.28383002628E+02  0.10500000000E+00 0.  1.
         13    1    4    4    0    0  0.11967564889E+01  0.18068800780E+02 -0.18589250861E+02  0.25951590709E+02  0.10500000000E+00 0. -1.
    3000001    1    5    5    0    0  0.24819147472E+01 -0.32117425894E+02  0.36321104199E+02  0.48558331490E+02  0.10000000000E+01 0. -1.
        -13    1    6    6    0    0 -0.23052428365E+01 -0.42008139467E+01  0.50286356807E+01  0.69468830535E+01  0.10500000000E+00 0. -1.
         13    1    6    6    0    0 -0.22254108263E+01 -0.41804900509E+01  0.51465568342E+01  0.69947853905E+01  0.10500000000E+00 0.  1.
</event>
<event>
11    0  0.3467594E-009  0.9118800E+02  0.7816531E-02  0.1126479E+00
         25   -1    0    0    0    0  0.00000000000E+00  0.00000000000E+00  0.99999998245E-14  0.12500000000E+03  0.12500000000E+03 0.  0.
    3000001    1    3    3    0    0  0.16222529092E+01 -0.23961477080E+02  0.47334553811E+02  0.53088078443E+02  0.10000000000E+01 0. -1.
    1000022    2    1    0    0    0  0.38746229520E+01 -0.30930803875E+02  0.53240236072E+02  0.62499999782E+02  0.99999952158E+01 0.  0.
    3000022    2    3    3    0    0  0.22523700428E+01 -0.69693267943E+01  0.59056822619E+01  0.94119213383E+01  0.24998704849E+00 0.  0.
    1000022    2    1    0    0    0 -0.38746229520E+01  0.30930803875E+02 -0.53240236072E+02  0.62500000218E+02  0.99999979437E+01 0.  0.
    3000022    2    5    5    0    0  0.53576561980E+00  0.18500492058E+02 -0.23220356918E+02  0.29695163324E+02  0.24999648027E+00 0.  0.
        -13    1    4    4    0    0  0.14573602091E+01 -0.44772388486E+01  0.37225737270E+01  0.60031780449E+01  0.10500000000E+00 0. -1.
         13    1    4    4    0    0  0.79500983378E+00 -0.24920879457E+01  0.21831085350E+01  0.34087432934E+01  0.10500000000E+00 0.  1.
    3000001    1    5    5    0    0 -0.44103885718E+01  0.12430311816E+02 -0.30019879155E+02  0.32804836894E+02  0.10000000000E+01 0.  1.
        -13    1    6    6    0    0  0.22305020636E+00  0.66255792007E+01 -0.83957636279E+01  0.10698033606E+02  0.10500000000E+00 0.  1.
         13    1    6    6    0    0  0.31271541344E+00  0.11874912858E+02 -0.14824593290E+02  0.18997129718E+02  0.10500000000E+00 0. -1.
</event>
<event>
11    0  0.3467594E-009  0.9118800E+02  0.7816531E-02  0.1126479E+00
         25   -1    0    0    0    0  0.00000000000E+00  0.00000000000E+00  0.99999998245E-14  0.12500000000E+03  0.12500000000E+03 0.  0.
    3000001    1    3    3    0    0 -0.47719444362E+01 -0.40000447658E+01  0.91093364371E+01  0.11079342136E+02  0.10000000000E+01 0. -1.
    1000022    2    1    0    0    0 -0.43508724228E+02 -0.19983504264E+02  0.38908872069E+02  0.62499998612E+02  0.99999987125E+01 0.  0.
    3000022    2    3    3    0    0 -0.38736779792E+02 -0.15983459498E+02  0.29799535632E+02  0.51420656477E+02  0.25000493829E+00 0.  0.
    1000022    2    1    0    0    0  0.43508724228E+02  0.19983504264E+02 -0.38908872069E+02  0.62500001388E+02  0.10000016060E+02 0.  0.
    3000022    2    5    5    0    0  0.33587974219E+02  0.10867232654E+02 -0.29877321240E+02  0.46248952216E+02  0.24999781916E+00 0.  0.
        -13    1    4    4    0    0 -0.26932401149E+02 -0.11066738489E+02  0.20730998344E+02  0.35743702239E+02  0.10500000000E+00 0. -1.
         13    1    4    4    0    0 -0.11804378643E+02 -0.49167210090E+01  0.90685372877E+01  0.15676954237E+02  0.10500000000E+00 0.  1.
    3000001    1    5    5    0    0  0.99207500087E+01  0.91162716101E+01 -0.90315508289E+01  0.16251049172E+02  0.10000000000E+01 0.  1.
        -13    1    6    6    0    0  0.16640379237E+02  0.54474744837E+01 -0.14778379389E+02  0.22912632362E+02  0.10500000000E+00 0. -1.
         13    1    6    6    0    0  0.16947594983E+02  0.54197581699E+01 -0.15098941851E+02  0.23336319854E+02  0.10500000000E+00 0.  1.
</event>
<event>
11    0  0.3467594E-009  0.9118800E+02  0.7816531E-02  0.1126479E+00
         25   -1    0    0    0    0  0.00000000000E+00  0.00000000000E+00  0.99999998245E-14  0.12500000000E+03  0.12500000000E+03 0.  0.
    3000001    1    3    3    0    0  0.45155690481E+02  0.10247452680E+01 -0.22884213070E+02  0.50643594793E+02  0.10000000000E+01 0.  1.
    1000022    2    1    0    0    0  0.56952898730E+02  0.22367799058E+00 -0.23718498459E+02  0.62500000700E+02  0.10000010641E+02 0.  0.
    3000022    2    3    3    0    0  0.11797208249E+02 -0.80106727746E+00 -0.83428538932E+00  0.11856405908E+02  0.24999539077E+00 0.  0.
    1000022    2    1    0    0    0 -0.56952898730E+02 -0.22367799058E+00  0.23718498459E+02  0.62499999300E+02  0.10000001886E+02 0.  0.
    3000022    2    5    5    0    0 -0.13195728529E+02 -0.16602202121E+01  0.14782590546E+01  0.13383995327E+02  0.24999699653E+00 0.  0.
        -13    1    4    4    0    0  0.62343036965E+01 -0.43782221354E+00 -0.50697979784E+00  0.62710672446E+01  0.10500000000E+00 0.  1.
         13    1    4    4    0    0  0.55629045520E+01 -0.36324506392E+00 -0.32730559148E+00  0.55853386631E+01  0.10500000000E+00 0. -1.
    3000001    1    5    5    0    0 -0.43757170201E+02  0.14365422215E+01  0.22240239404E+02  0.49116003973E+02  0.10000000000E+01 0.  1.
        -13    1    6    6    0    0 -0.81658999923E+01 -0.10871879726E+01  0.90171368558E+00  0.82878231728E+01  0.10500000000E+00 0. -1.
         13    1    6    6    0    0 -0.50298285370E+01 -0.57303223948E+00  0.57654536900E+00  0.50961721538E+01  0.10500000000E+00 0.  1.
</event>
<event>
11    0  0.3467594E-009  0.9118800E+02  0.7816531E-02  0.1126479E+00
         25   -1    0    0    0    0  0.00000000000E+00  0.00000000000E+00  0.99999998245E-14  0.12500000000E+03  0.12500000000E+03 0.  0.
    3000001    1    3    3    0    0  0.75675035650E+01  0.99973265181E+01 -0.29772614996E+02  0.32320616507E+02  0.10000000000E+01 0. -1.
    1000022    2    1    0    0    0  0.53052478682E+01  0.21436656080E+02 -0.57607065501E+02  0.62500000235E+02  0.10000007742E+02 0.  0.
    3000022    2    3    3    0    0 -0.22622556968E+01  0.11439329562E+02 -0.27834450505E+02  0.30179383727E+02  0.25001113323E+00 0.  0.
    1000022    2    1    0    0    0 -0.53052478682E+01 -0.21436656080E+02  0.57607065501E+02  0.62499999765E+02  0.10000004810E+02 0.  0.
    3000022    2    5    5    0    0  0.23250698302E+01 -0.60518838237E+01  0.10415509024E+02  0.12270964654E+02  0.24999553108E+00 0.  0.
        -13    1    4    4    0    0 -0.93131583540E+00  0.44460552018E+01 -0.10752989854E+02  0.11673584362E+02  0.10500000000E+00 0.  1.
         13    1    4    4    0    0 -0.13309398614E+01  0.69932743604E+01 -0.17081460651E+02  0.18505799366E+02  0.10500000000E+00 0. -1.
    3000001    1    5    5    0    0 -0.76303176984E+01 -0.15384772257E+02  0.47191556477E+02  0.50229035112E+02  0.10000000000E+01 0. -1.
        -13    1    6    6    0    0  0.55747935355E+00 -0.14236065885E+01  0.24372966155E+01  0.28790412884E+01  0.10500000000E+00 0.  1.
         13    1    6    6    0    0  0.17675904766E+01 -0.46282772352E+01  0.79782124086E+01  0.93919233651E+01  0.10500000000E+00 0. -1.
</event>
<event>
11    0  0.3467594E-009  0.9118800E+02  0.7816531E-02  0.1126479E+00
         25   -1    0    0    0    0  0.00000000000E+00  0.00000000000E+00  0.99999998245E-14  0.12500000000E+03  0.12500000000E+03 0.  0.
    3000001    1    3    3    0    0  0.39289254621E+01  0.46849234731E+01  0.66730853215E+01  0.91057691023E+01  0.10000000000E+01 0. -1.
    1000022    2    1    0    0    0  0.38436203206E+02  0.11829093212E+02  0.46786546992E+02  0.62499998005E+02  0.99999804023E+01 0.  0.
    3000022    2    3    3    0    0  0.34507277744E+02  0.71441697388E+01  0.40113461670E+02  0.53394228902E+02  0.24998869483E+00 0.  0.
    1000022    2    1    0    0    0 -0.38436203206E+02 -0.11829093212E+02 -0.46786546992E+02  0.62500001995E+02  0.10000005346E+02 0.  0.
    3000022    2    5    5    0    0 -0.21690561373E+02 -0.58566971506E+01 -0.18642087517E+02  0.29195398196E+02  0.24998929363E+00 0.  0.
        -13    1    4    4    0    0  0.20513381553E+02  0.41894555145E+01  0.23787813904E+02  0.31689453696E+02  0.10500000000E+00 0. -1.
         13    1    4    4    0    0  0.13993896191E+02  0.29547142243E+01  0.16325647766E+02  0.21704775206E+02  0.10500000000E+00 0.  1.
    3000001    1    5    5    0    0 -0.16745641833E+02 -0.59723960613E+01 -0.28144459475E+02  0.33304603799E+02  0.10000000000E+01 0.  1.
        -13    1    6    6    0    0 -0.16225239802E+02 -0.43994599536E+01 -0.13975252632E+02  0.21861664293E+02  0.10500000000E+00 0.  1.
         13    1    6    6    0    0 -0.54653215713E+01 -0.14572371970E+01 -0.46668348850E+01  0.73337339037E+01  0.10500000000E+00 0. -1.
</event>
<event>
11    0  0.3467594E-009  0.9118800E+02  0.7816531E-02  0.1126479E+00
         25   -1    0    0    0    0  0.00000000000E+00  0.00000000000E+00  0.99999998245E-14  0.12500000000E+03  0.12500000000E+03 0.  0.
    3000001    1    3    3    0    0  0.84308880055E+01  0.25943245007E+02 -0.57437614161E+01  0.27894849512E+02  0.10000000000E+01 0.  1.
    1000022    2    1    0    0    0  0.28341018288E+02  0.52791945585E+02 -0.14698537960E+02  0.62500001390E+02  0.10000015970E+02 0.  0.
    3000022    2    3    3    0    0  0.19910130283E+02  0.26848700577E+02 -0.89547765444E+01  0.34605151879E+02  0.25000604099E+00 0.  0.
    1000022    2    1    0    0    0 -0.28341018288E+02 -0.52791945585E+02  0.14698537960E+02  0.62499998610E+02  0.99999985898E+01 0.  0.
    3000022    2    5    5    0    0 -0.21327292200E+02 -0.38567634237E+02  0.62824243284E+01  0.44517942119E+02  0.25002371799E+00 0.  0.
        -13    1    4    4    0    0  0.11004040846E+02  0.14889224745E+02 -0.50214038629E+01  0.19183416020E+02  0.10500000000E+00 0.  1.
         13    1    4    4    0    0  0.89060894370E+01  0.11959475832E+02 -0.39333726816E+01  0.15421735858E+02  0.10500000000E+00 0. -1.
    3000001    1    5    5    0    0 -0.70137260883E+01 -0.14224311347E+02  0.84161136321E+01  0.17982056490E+02  0.10000000000E+01 0. -1.
        -13    1    6    6    0    0 -0.88426390807E+01 -0.16110926152E+02  0.25913928643E+01  0.18560187212E+02  0.10500000000E+00 0.  1.
         13    1    6    6    0    0 -0.12484653119E+02 -0.22456708086E+02  0.36910314640E+01  0.25957754907E+02  0.10500000000E+00 0. -1.
</event>
<event>
11    0  0.3467594E-009  0.9118800E+02  0.7816531E-02  0.1126479E+00
         25   -1    0    0    0    0  0.00000000000E+00  0.00000000000E+00  0.99999998245E-14  0.12500000000E+03  0.12500000000E+03 0.  0.
    3000001    1    3    3    0    0  0.21047705554E+02  0.21407371842E+02  0.18698861023E+02  0.35382607052E+02  0.10000000000E+01 0. -1.
    1000022    2    1    0    0    0  0.37653107615E+02  0.41790094759E+02  0.25339326354E+02  0.62500000862E+02  0.10000005730E+02 0.  0.
    3000022    2    3    3    0    0  0.16605402061E+02  0.20382722917E+02  0.66404653311E+01  0.27117393809E+02  0.24999215704E+00 0.  0.
    1000022    2    1    0    0    0 -0.37653107615E+02 -0.41790094759E+02 -0.25339326354E+02  0.62499999138E+02  0.99999949569E+01 0.  0.
    3000022    2    5    5    0    0 -0.45691627357E+01 -0.24060385604E+01 -0.39894032193E-01  0.51701415833E+01  0.25000559628E+00 0.  0.
        -13    1    4    4    0    0  0.58351224483E+01  0.72068858055E+01  0.22911219927E+01  0.95523882870E+01  0.10500000000E+00 0. -1.
         13    1    4    4    0    0  0.10770279613E+02  0.13175837111E+02  0.43493433384E+01  0.17565005522E+02  0.10500000000E+00 0.  1.
    3000001    1    5    5    0    0 -0.33083944880E+02 -0.39384056199E+02 -0.25299432322E+02  0.57329857555E+02  0.10000000000E+01 0.  1.
        -13    1    6    6    0    0 -0.25817387104E+01 -0.12952297352E+01  0.11582338767E-01  0.28903553391E+01  0.10500000000E+00 0.  1.
         13    1    6    6    0    0 -0.19874240253E+01 -0.11108088251E+01 -0.51476370960E-01  0.22797862442E+01  0.10500000000E+00 0. -1.
</event>
<event>
11    0  0.3467594E-009  0.9118800E+02  0.7816531E-02  0.1126479E+00
         25   -1    0    0    0    0  0.00000000000E+00  0.00000000000E+00  0.99999998245E-14  0.12500000000E+03  0.12500000000E+03 0.  0.
    3000001    1    3    3    0    0 -0.32158556559E+02 -0.25842457594E+02 -0.16719240346E+02  0.44525704623E+02  0.10000000000E+01 0. -1.
    1000022    2    1    0    0    0 -0.44836376266E+02 -0.38551110464E+02 -0.17600034403E+02  0.62499999313E+02  0.99999974249E+01 0.  0.
    3000022    2    3    3    0    0 -0.12677819707E+02 -0.12708652870E+02 -0.88079405769E+00  0.17974294690E+02  0.25000229005E+00 0.  0.
    1000022    2    1    0    0    0  0.44836376266E+02  0.38551110464E+02  0.17600034403E+02  0.62500000687E+02  0.10000006014E+02 0.  0.
    3000022    2    5    5    0    0  0.18868678345E+01 -0.13500390822E+00  0.16630414647E+01  0.25311465744E+01  0.24999957499E+00 0.  0.
        -13    1    4    4    0    0 -0.38587433833E+01 -0.38218246965E+01 -0.29963525523E+00  0.54403171594E+01  0.10500000000E+00 0.  1.
         13    1    4    4    0    0 -0.88190763236E+01 -0.88868281732E+01 -0.58115880246E+00  0.12533977531E+02  0.10500000000E+00 0. -1.
    3000001    1    5    5    0    0  0.42949508431E+02  0.38686114372E+02  0.15936992939E+02  0.59968854113E+02  0.10000000000E+01 0. -1.
        -13    1    6    6    0    0  0.10559771698E+01 -0.43287206788E-01  0.85019443108E+00  0.13604474029E+01  0.10500000000E+00 0.  1.
         13    1    6    6    0    0  0.83089066471E+00 -0.91716701428E-01  0.81284703362E+00  0.11706991715E+01  0.10500000000E+00 0. -1.
</event>
<event>
11    0  0.3467594E-009  0.9118800E+02  0.7816531E-02  0.1126479E+00
         25   -1    0    0    0    0  0.00000000000E+00  0.00000000000E+00  0.99999998245E-14  0.12500000000E+03  0.12500000000E+03 0.  0.
    3000001    1    3    3    0    0 -0.24814248072E+02  0.19999488891E+02  0.17713651583E+02  0.36476018364E+02  0.10000000000E+01 0. -1.
    1000022    2    1    0    0    0 -0.46157794830E+02  0.33982996473E+02  0.22822440239E+02  0.62500001387E+02  0.10000016104E+02 0.  0.
    3000022    2    3    3    0    0 -0.21343546758E+02  0.13983507581E+02  0.51087886553E+01  0.26023983023E+02  0.24999669982E+00 0.  0.
    1000022    2    1    0    0    0  0.46157794830E+02 -0.33982996473E+02 -0.22822440239E+02  0.62499998613E+02  0.99999987671E+01 0.  0.
    3000022    2    5    5    0    0  0.15769629619E+02 -0.61267902385E+01 -0.57606528099E+01  0.17873622994E+02  0.25000234697E+00 0.  0.
        -13    1    4    4    0    0 -0.97208253011E+01  0.64250918566E+01  0.23814572790E+01  0.11893637529E+02  0.10500000000E+00 0.  1.
         13    1    4    4    0    0 -0.11622721457E+02  0.75584157249E+01  0.27273313763E+01  0.14130345494E+02  0.10500000000E+00 0. -1.
    3000001    1    5    5    0    0  0.30388165211E+02 -0.27856206234E+02 -0.17061787429E+02  0.44626375619E+02  0.10000000000E+01 0.  1.
        -13    1    6    6    0    0  0.94997101303E+01 -0.36771152813E+01 -0.35334279166E+01  0.10782476858E+02  0.10500000000E+00 0.  1.
         13    1    6    6    0    0  0.62699194889E+01 -0.24496749572E+01 -0.22272248933E+01  0.70911461358E+01  0.10500000000E+00 0. -1.
</event>
<event>
11    0  0.3467594E-009  0.9118800E+02  0.7816531E-02  0.1126479E+00
         25   -1    0    0    0    0  0.00000000000E+00  0.00000000000E+00  0.99999998245E-14  0.12500000000E+03  0.12500000000E+03 0.  0.
    3000001    1    3    3    0    0 -0.33889470946E+02 -0.11225454931E+02  0.45368046363E+02  0.57738779950E+02  0.10000000000E+01 0. -1.
    1000022    2    1    0    0    0 -0.34293661350E+02 -0.10969441845E+02  0.50098565703E+02  0.62500001161E+02  0.99999998244E+01 0.  0.
    3000022    2    3    3    0    0 -0.40419040432E+00  0.25601308556E+00  0.47305193399E+01  0.47612212107E+01  0.25000321894E+00 0.  0.
    1000022    2    1    0    0    0  0.34293661350E+02  0.10969441845E+02 -0.50098565703E+02  0.62499998839E+02  0.99999853093E+01 0.  0.
    3000022    2    5    5    0    0  0.17074868911E+02  0.43990537350E+00 -0.24969289434E+02  0.30253472248E+02  0.25000633181E+00 0.  0.
        -13    1    4    4    0    0 -0.24479421445E+00  0.19636073211E+00  0.25110640781E+01  0.25327750687E+01  0.10500000000E+00 0. -1.
         13    1    4    4    0    0 -0.15939618987E+00  0.59652353448E-01  0.22194552618E+01  0.22284461420E+01  0.10500000000E+00 0.  1.
    3000001    1    5    5    0    0  0.17218792439E+02  0.10529536472E+02 -0.25129276269E+02  0.32246526591E+02  0.10000000000E+01 0. -1.
        -13    1    6    6    0    0  0.53439573118E+01  0.17706924706E+00 -0.77650651260E+01  0.94284937651E+01  0.10500000000E+00 0. -1.
         13    1    6    6    0    0  0.11730911599E+02  0.26283612645E+00 -0.17204224308E+02  0.20824978483E+02  0.10500000000E+00 0.  1.
</event>
<event>
11    0  0.3467594E-009  0.9118800E+02  0.7816531E-02  0.1126479E+00
         25   -1    0    0    0    0  0.00000000000E+00  0.00000000000E+00  0.99999998245E-14  0.12500000000E+03  0.12500000000E+03 0.  0.
    3000001    1    3    3    0    0 -0.42809330043E+02  0.32676005927E+02  0.10945377653E+02  0.54965092505E+02  0.10000000000E+01 0.  1.
    1000022    2    1    0    0    0 -0.48053607951E+02  0.37663521955E+02  0.88634132621E+01  0.62500000817E+02  0.99999942159E+01 0.  0.
    3000022    2    3    3    0    0 -0.52442779077E+01  0.49875160282E+01 -0.20819643905E+01  0.75349083125E+01  0.25000129764E+00 0.  0.
    1000022    2    1    0    0    0  0.48053607951E+02 -0.37663521955E+02 -0.88634132621E+01  0.62499999183E+02  0.99999840000E+01 0.  0.
    3000022    2    5    5    0    0  0.38130479366E+02 -0.25223042082E+02 -0.43296462213E+01  0.45923236412E+02  0.24999515033E+00 0.  0.
        -13    1    4    4    0    0 -0.15057850721E+01  0.13808377686E+01 -0.57131858268E+00  0.21240366168E+01  0.10500000000E+00 0.  1.
         13    1    4    4    0    0 -0.37384928356E+01  0.36066782596E+01 -0.15106458078E+01  0.54108716956E+01  0.10500000000E+00 0. -1.
    3000001    1    5    5    0    0  0.99231285856E+01 -0.12440479873E+02 -0.45337670408E+01  0.16576762771E+02  0.10000000000E+01 0. -1.
        -13    1    6    6    0    0  0.24170047638E+02 -0.16038728461E+02 -0.27056515075E+01  0.29133547477E+02  0.10500000000E+00 0. -1.
         13    1    6    6    0    0  0.13960431728E+02 -0.91843136208E+01 -0.16239947138E+01  0.16789688935E+02  0.10500000000E+00 0.  1.
</event>
<event>
11    0  0.3467594E-009  0.9118800E+02  0.7816531E-02  0.1126479E+00
         25   -1    0    0    0    0  0.00000000000E+00  0.00000000000E+00  0.99999998245E-14  0.12500000000E+03  0.12500000000E+03 0.  0.
    3000001    1    3    3    0    0  0.20091671854E+02  0.74587878982E+01 -0.11366650463E+02  0.24279817494E+02  0.10000000000E+01 0. -1.
    1000022    2    1    0    0    0  0.43308523726E+02  0.22604947353E+02 -0.37678084131E+02  0.62500000622E+02  0.10000009088E+02 0.  0.
    3000022    2    3    3    0    0  0.23216851872E+02  0.15146159455E+02 -0.26311433667E+02  0.38220183127E+02  0.24999911788E+00 0.  0.
    1000022    2    1    0    0    0 -0.43308523726E+02 -0.22604947353E+02  0.37678084131E+02  0.62499999378E+02  0.10000001315E+02 0.  0.
    3000022    2    5    5    0    0 -0.24501804719E+02 -0.16978037389E+02  0.26510644740E+02  0.39893219463E+02  0.24997308675E+00 0.  0.
        -13    1    4    4    0    0  0.10354147471E+02  0.67794696506E+01 -0.11834291816E+02  0.17123990959E+02  0.10500000000E+00 0.  1.
         13    1    4    4    0    0  0.12862704401E+02  0.83666898046E+01 -0.14477141851E+02  0.21096192168E+02  0.10500000000E+00 0. -1.
    3000001    1    5    5    0    0 -0.18806719008E+02 -0.56269099645E+01  0.11167439390E+02  0.22606779915E+02  0.10000000000E+01 0.  1.
        -13    1    6    6    0    0 -0.10880362276E+02 -0.76108717274E+01  0.11850060614E+02  0.17797264207E+02  0.10500000000E+00 0.  1.
         13    1    6    6    0    0 -0.13621442443E+02 -0.93671656615E+01  0.14660584127E+02  0.22095955256E+02  0.10500000000E+00 0. -1.
</event>
<event>
11    0  0.3467594E-009  0.9118800E+02  0.7816531E-02  0.1126479E+00
         25   -1    0    0    0    0  0.00000000000E+00  0.00000000000E+00  0.99999998245E-14  0.12500000000E+03  0.12500000000E+03 0.  0.
    3000001    1    3    3    0    0  0.58731118700E+01 -0.23718085737E+02  0.54145496211E+02  0.59411916263E+02  0.10000000000E+01 0. -1.
    1000022    2    1    0    0    0  0.76809714488E+01 -0.23310100692E+02  0.56602927796E+02  0.62500002467E+02  0.10000037833E+02 0.  0.
    3000022    2    3    3    0    0  0.18078595788E+01  0.40798504522E+00  0.24574315852E+01  0.30880862047E+01  0.24999671586E+00 0.  0.
    1000022    2    1    0    0    0 -0.76809714488E+01  0.23310100692E+02 -0.56602927796E+02  0.62499997533E+02  0.10000006990E+02 0.  0.
    3000022    2    5    5    0    0 -0.97939248689E+01  0.20210479190E+02 -0.45576663012E+02  0.50810226760E+02  0.24999744341E+00 0.  0.
        -13    1    4    4    0    0  0.12231102822E+01  0.32412501257E+00  0.16373378872E+01  0.20719450145E+01  0.10500000000E+00 0. -1.
         13    1    4    4    0    0  0.58474929657E+00  0.83860032651E-01  0.82009369794E+00  0.10161411902E+01  0.10500000000E+00 0.  1.
    3000001    1    5    5    0    0  0.21129534201E+01  0.30996215018E+01 -0.11026264785E+02  0.11689770772E+02  0.10000000000E+01 0.  1.
        -13    1    6    6    0    0 -0.58445502475E+01  0.11959008815E+02 -0.27115457381E+02  0.30206550836E+02  0.10500000000E+00 0.  1.
         13    1    6    6    0    0 -0.39493746214E+01  0.82514703754E+01 -0.18461205631E+02  0.20603675924E+02  0.10500000000E+00 0. -1.
</event>
<event>
11    0  0.3467594E-009  0.9118800E+02  0.7816531E-02  0.1126479E+00
         25   -1    0    0    0    0  0.00000000000E+00  0.00000000000E+00  0.99999998245E-14  0.12500000000E+03  0.12500000000E+03 0.  0.
    3000001    1    3    3    0    0  0.57049708334E+02 -0.62701867660E+01  0.18684427651E+02  0.60366317593E+02  0.10000000000E+01 0.  1.
    1000022    2    1    0    0    0  0.58538560802E+02 -0.75835131945E+01  0.17943741811E+02  0.62500004646E+02  0.99999968728E+01 0.  0.
    3000022    2    3    3    0    0  0.14888524677E+01 -0.13133264285E+01 -0.74068584074E+00  0.21336870529E+01  0.24999389289E+00 0.  0.
    1000022    2    1    0    0    0 -0.58538560802E+02  0.75835131945E+01 -0.17943741811E+02  0.62499995354E+02  0.99999387973E+01 0.  0.
    3000022    2    5    5    0    0 -0.24107024401E+02  0.79999555589E+01 -0.68337216608E+01  0.26304185225E+02  0.24998838637E+00 0.  0.
        -13    1    4    4    0    0  0.10022561841E+01 -0.83155979483E+00 -0.52590805737E+00  0.14084081212E+01  0.10500000000E+00 0. -1.
         13    1    4    4    0    0  0.48659628356E+00 -0.48176663366E+00 -0.21477778337E+00  0.72527893167E+00  0.10500000000E+00 0.  1.
    3000001    1    5    5    0    0 -0.34431536401E+02 -0.41644236447E+00 -0.11110020150E+02  0.36195810129E+02  0.10000000000E+01 0. -1.
        -13    1    6    6    0    0 -0.85771299244E+01  0.28053110732E+01 -0.24716307552E+01  0.93571850226E+01  0.10500000000E+00 0. -1.
         13    1    6    6    0    0 -0.15529894477E+02  0.51946444857E+01 -0.43620909057E+01  0.16947000202E+02  0.10500000000E+00 0.  1.
</event>
<event>
11    0  0.3467594E-009  0.9118800E+02  0.7816531E-02  0.1126479E+00
         25   -1    0    0    0    0  0.00000000000E+00  0.00000000000E+00  0.99999998245E-14  0.12500000000E+03  0.12500000000E+03 0.  0.
    3000001    1    3    3    0    0  0.19475293366E+02  0.98316112394E+01 -0.51479777862E+02  0.55920614803E+02  0.10000000000E+01 0. -1.
    1000022    2    1    0    0    0  0.23948265426E+02  0.87615059789E+01 -0.56177988119E+02  0.62499998011E+02  0.99999999210E+01 0.  0.
    3000022    2    3    3    0    0  0.44729720602E+01 -0.10701052605E+01 -0.46982102562E+01  0.65793832077E+01  0.24999892428E+00 0.  0.
    1000022    2    1    0    0    0 -0.23948265426E+02 -0.87615059789E+01  0.56177988119E+02  0.62500001989E+02  0.10000024782E+02 0.  0.
    3000022    2    5    5    0    0 -0.24247568743E+02 -0.88522668005E+01  0.55607182237E+02  0.61306838397E+02  0.25000093795E+00 0.  0.
        -13    1    4    4    0    0  0.32089632940E+01 -0.78101790326E+00 -0.33159586030E+01  0.46812435148E+01  0.10500000000E+00 0. -1.
         13    1    4    4    0    0  0.12640087662E+01 -0.28908735726E+00 -0.13822516532E+01  0.18981396929E+01  0.10500000000E+00 0.  1.
    3000001    1    5    5    0    0  0.29930331689E+00  0.90760821571E-01  0.57080588146E+00  0.11931635917E+01  0.10000000000E+01 0.  1.
        -13    1    6    6    0    0 -0.13012134386E+02 -0.47511457837E+01  0.29681580795E+02  0.32755095650E+02  0.10500000000E+00 0.  1.
         13    1    6    6    0    0 -0.11235434356E+02 -0.41011210168E+01  0.25925601442E+02  0.28551742747E+02  0.10500000000E+00 0. -1.
</event>
<event>
11    0  0.3467594E-009  0.9118800E+02  0.7816531E-02  0.1126479E+00
         25   -1    0    0    0    0  0.00000000000E+00  0.00000000000E+00  0.99999998245E-14  0.12500000000E+03  0.12500000000E+03 0.  0.
    3000001    1    3    3    0    0 -0.16855688819E+02 -0.14384676146E+02  0.40108229931E+02  0.45833429521E+02  0.10000000000E+01 0. -1.
    1000022    2    1    0    0    0 -0.28031354006E+02 -0.19149411850E+02  0.51514978521E+02  0.62500001280E+02  0.10000018315E+02 0.  0.
    3000022    2    3    3    0    0 -0.11175665187E+02 -0.47647357035E+01  0.11406748590E+02  0.16666571759E+02  0.25000422464E+00 0.  0.
    1000022    2    1    0    0    0  0.28031354006E+02  0.19149411850E+02 -0.51514978521E+02  0.62499998720E+02  0.10000002321E+02 0.  0.
    3000022    2    5    5    0    0  0.11488544967E+02  0.13456892431E+02 -0.22814082412E+02  0.28872469140E+02  0.24999714257E+00 0.  0.
        -13    1    4    4    0    0 -0.25602231243E+01 -0.10879261324E+01  0.26137555006E+01  0.38185165356E+01  0.10500000000E+00 0.  1.
         13    1    4    4    0    0 -0.86154420622E+01 -0.36768095710E+01  0.87929930894E+01  0.12848055223E+02  0.10500000000E+00 0. -1.
    3000001    1    5    5    0    0  0.16542809039E+02  0.56925194192E+01 -0.28700896109E+02  0.33627529580E+02  0.10000000000E+01 0.  1.
        -13    1    6    6    0    0  0.53244425918E+01  0.61608910014E+01 -0.10573582823E+02  0.13346083529E+02  0.10500000000E+00 0. -1.
         13    1    6    6    0    0  0.61641023752E+01  0.72960014291E+01 -0.12240499590E+02  0.15526385611E+02  0.10500000000E+00 0.  1.
</event>
<event>
11    0  0.3467594E-009  0.9118800E+02  0.7816531E-02  0.1126479E+00
         25   -1    0    0    0    0  0.00000000000E+00  0.00000000000E+00  0.99999998245E-14  0.12500000000E+03  0.12500000000E+03 0.  0.
    3000001    1    3    3    0    0  0.22938333421E+01  0.37952469213E+02 -0.17318913163E+02  0.41792300056E+02  0.10000000000E+01 0. -1.
    1000022    2    1    0    0    0  0.88559116683E+01  0.53700896071E+02 -0.29052305922E+02  0.62499999523E+02  0.10000002535E+02 0.  0.
    3000022    2    3    3    0    0  0.65620783261E+01  0.15748426857E+02 -0.11733392758E+02  0.20707699467E+02  0.24998230006E+00 0.  0.
    1000022    2    1    0    0    0 -0.88559116683E+01 -0.53700896071E+02  0.29052305922E+02  0.62500000477E+02  0.10000008501E+02 0.  0.
    3000022    2    5    5    0    0 -0.48375177206E+01 -0.16177742083E+02  0.45328768179E+01  0.17485147610E+02  0.24999617886E+00 0.  0.
        -13    1    4    4    0    0  0.36089189528E+01  0.87447236488E+01 -0.65764499594E+01  0.11521944574E+02  0.10500000000E+00 0. -1.
         13    1    4    4    0    0  0.29531593734E+01  0.70037032084E+01 -0.51569427990E+01  0.91857548926E+01  0.10500000000E+00 0.  1.
    3000001    1    5    5    0    0 -0.40183939477E+01 -0.37523153988E+02  0.24519429104E+02  0.45014852867E+02  0.10000000000E+01 0.  1.
        -13    1    6    6    0    0 -0.18392428135E+01 -0.59444110038E+01  0.16752444293E+01  0.64448665780E+01  0.10500000000E+00 0.  1.
         13    1    6    6    0    0 -0.29982749071E+01 -0.10233331079E+02  0.28576323885E+01  0.11040281032E+02  0.10500000000E+00 0. -1.
</event>
<event>
11    0  0.3467594E-009  0.9118800E+02  0.7816531E-02  0.1126479E+00
         25   -1    0    0    0    0  0.00000000000E+00  0.00000000000E+00  0.99999998245E-14  0.12500000000E+03  0.12500000000E+03 0.  0.
    3000001    1    3    3    0    0 -0.21154987330E+02 -0.50208097908E+02 -0.15591934098E+02  0.56678876078E+02  0.10000000000E+01 0.  1.
    1000022    2    1    0    0    0 -0.25107573565E+02 -0.53177533374E+02 -0.18655019065E+02  0.62499999229E+02  0.99999930610E+01 0.  0.
    3000022    2    3    3    0    0 -0.39525862351E+01 -0.29694354657E+01 -0.30630849667E+01  0.58211231512E+01  0.25000059397E+00 0.  0.
    1000022    2    1    0    0    0  0.25107573565E+02  0.53177533374E+02  0.18655019065E+02  0.62500000771E+02  0.10000002700E+02 0.  0.
    3000022    2    5    5    0    0  0.17477511515E+01  0.39615910771E+01 -0.12122985022E+01  0.45034440916E+01  0.25000615629E+00 0.  0.
        -13    1    4    4    0    0 -0.27604561407E+01 -0.21226220367E+01 -0.21814489035E+01  0.41103998266E+01  0.10500000000E+00 0. -1.
         13    1    4    4    0    0 -0.11921300944E+01 -0.84681342905E+00 -0.88163606320E+00  0.17107233246E+01  0.10500000000E+00 0.  1.
    3000001    1    5    5    0    0  0.23359822413E+02  0.49215942297E+02  0.19867317567E+02  0.57996556680E+02  0.10000000000E+01 0.  1.
        -13    1    6    6    0    0  0.81119618486E+00  0.16969158038E+01 -0.56033322561E+00  0.19653398738E+01  0.10500000000E+00 0.  1.
         13    1    6    6    0    0  0.93655496659E+00  0.22646752732E+01 -0.65196527655E+00  0.25381042178E+01  0.10500000000E+00 0. -1.
</event>
<event>
11    0  0.3467594E-009  0.9118800E+02  0.7816531E-02  0.1126479E+00
         25   -1    0    0    0    0  0.00000000000E+00  0.00000000000E+00  0.99999998245E-14  0.12500000000E+03  0.12500000000E+03 0.  0.
    3000001    1    3    3    0    0  0.59691708690E+01  0.10703295720E+01 -0.37570948861E+01  0.72036357653E+01  0.10000000000E+01 0.  1.
    1000022    2    1    0    0    0  0.53040901073E+02 -0.16515186693E+02 -0.26835816031E+02  0.62500001288E+02  0.10000028041E+02 0.  0.
    3000022    2    3    3    0    0  0.47071730204E+02 -0.17585516265E+02 -0.23078721145E+02  0.55296365523E+02  0.25000727472E+00 0.  0.
    1000022    2    1    0    0    0 -0.53040901073E+02  0.16515186693E+02  0.26835816031E+02  0.62499998712E+02  0.10000011942E+02 0.  0.
    3000022    2    5    5    0    0 -0.35185688194E+02  0.15215668059E+02  0.15930713089E+02  0.41513845043E+02  0.25000519321E+00 0.  0.
        -13    1    4    4    0    0  0.13626382643E+02 -0.50704398976E+01 -0.66355643361E+01  0.15982158920E+02  0.10500000000E+00 0. -1.
         13    1    4    4    0    0  0.33445347561E+02 -0.12515076367E+02 -0.16443156809E+02  0.39314206603E+02  0.10500000000E+00 0.  1.
    3000001    1    5    5    0    0 -0.17855212879E+02  0.12995186339E+01  0.10905102943E+02  0.20986153669E+02  0.10000000000E+01 0. -1.
        -13    1    6    6    0    0 -0.16816599564E+02  0.73458098508E+01  0.76275978282E+01  0.19873354445E+02  0.10500000000E+00 0. -1.
         13    1    6    6    0    0 -0.18369088630E+02  0.78698582080E+01  0.83031152608E+01  0.21640490598E+02  0.10500000000E+00 0.  1.
</event>
<event>
11    0  0.3467594E-009  0.9118800E+02  0.7816531E-02  0.1126479E+00
         25   -1    0    0    0    0  0.00000000000E+00  0.00000000000E+00  0.99999998245E-14  0.12500000000E+03  0.12500000000E+03 0.  0.
    3000001    1    3    3    0    0  0.12376615517E+02 -0.27967755720E+01  0.11159400551E+02  0.16927338418E+02  0.10000000000E+01 0. -1.
    1000022    2    1    0    0    0  0.46413214169E+02  0.57239914307E+01  0.40240519537E+02  0.62500000158E+02  0.10000003988E+02 0.  0.
    3000022    2    3    3    0    0  0.34036598652E+02  0.85207670027E+01  0.29081118987E+02  0.45572661741E+02  0.24999700682E+00 0.  0.
    1000022    2    1    0    0    0 -0.46413214169E+02 -0.57239914307E+01 -0.40240519537E+02  0.62499999842E+02  0.10000002011E+02 0.  0.
    3000022    2    5    5    0    0 -0.27776558263E+02 -0.39285538828E+01 -0.30243627963E+02  0.41251790965E+02  0.25000178314E+00 0.  0.
        -13    1    4    4    0    0  0.21062003744E+02  0.53243360710E+01  0.17960716258E+02  0.28187850394E+02  0.10500000000E+00 0.  1.
         13    1    4    4    0    0  0.12974594908E+02  0.31964309317E+01  0.11120402728E+02  0.17384811347E+02  0.10500000000E+00 0. -1.
    3000001    1    5    5    0    0 -0.18636655906E+02 -0.17954375479E+01 -0.99968915747E+01  0.21248208877E+02  0.10000000000E+01 0. -1.
        -13    1    6    6    0    0 -0.86185788283E+01 -0.11701273918E+01 -0.93810550122E+01  0.12793135553E+02  0.10500000000E+00 0. -1.
         13    1    6    6    0    0 -0.19157979435E+02 -0.27584264910E+01 -0.20862572951E+02  0.28458655412E+02  0.10500000000E+00 0.  1.
</event>
<event>
11    0  0.3467594E-009  0.9118800E+02  0.7816531E-02  0.1126479E+00
         25   -1    0    0    0    0  0.00000000000E+00  0.00000000000E+00  0.99999998245E-14  0.12500000000E+03  0.12500000000E+03 0.  0.
    3000001    1    3    3    0    0 -0.32136597903E+01  0.49889346422E+01  0.11156761596E+02  0.12676372013E+02  0.10000000000E+01 0. -1.
    1000022    2    1    0    0    0 -0.28755568390E+02  0.33091059935E+02  0.43409091162E+02  0.62499998954E+02  0.99999856346E+01 0.  0.
    3000022    2    3    3    0    0 -0.25541908600E+02  0.28102125293E+02  0.32252329566E+02  0.49823626941E+02  0.24999641071E+00 0.  0.
    1000022    2    1    0    0    0  0.28755568390E+02 -0.33091059935E+02 -0.43409091162E+02  0.62500001046E+02  0.99999987052E+01 0.  0.
    3000022    2    5    5    0    0  0.19285065473E+02 -0.25193345776E+02 -0.25360671826E+02  0.40618279107E+02  0.25000099227E+00 0.  0.
        -13    1    4    4    0    0 -0.14624263324E+02  0.16167599107E+02  0.18566483832E+02  0.28635392184E+02  0.10500000000E+00 0.  1.
         13    1    4    4    0    0 -0.10917645276E+02  0.11934526186E+02  0.13685845734E+02  0.21188234757E+02  0.10500000000E+00 0. -1.
    3000001    1    5    5    0    0  0.94705029172E+01 -0.78977141592E+01 -0.18048419336E+02  0.21881721938E+02  0.10000000000E+01 0.  1.
        -13    1    6    6    0    0  0.97903706447E+01 -0.12826950646E+02 -0.12816484657E+02  0.20607166816E+02  0.10500000000E+00 0. -1.
         13    1    6    6    0    0  0.94946948282E+01 -0.12366395131E+02 -0.12544187168E+02  0.20011112291E+02  0.10500000000E+00 0.  1.
</event>
<event>
11    0  0.3467594E-009  0.9118800E+02  0.7816531E-02  0.1126479E+00
         25   -1    0    0    0    0  0.00000000000E+00  0.00000000000E+00  0.99999998245E-14  0.12500000000E+03  0.12500000000E+03 0.  0.
    3000001    1    3    3    0    0  0.42452237520E+02  0.11441516549E+02 -0.29201432578E+02  0.52790382041E+02  0.10000000000E+01 0.  1.
    1000022    2    1    0    0    0  0.50346177933E+02  0.16565782322E+02 -0.31576686014E+02  0.62500000922E+02  0.10000011960E+02 0.  0.
    3000022    2    3    3    0    0  0.78939404137E+01  0.51242657724E+01 -0.23752534360E+01  0.97096188815E+01  0.24994995184E+00 0.  0.
    1000022    2    1    0    0    0 -0.50346177933E+02 -0.16565782322E+02  0.31576686014E+02  0.62499999078E+02  0.10000000432E+02 0.  0.
    3000022    2    5    5    0    0 -0.22585438242E+02 -0.86574154362E+01  0.19989462402E+02  0.31379833814E+02  0.25000090096E+00 0.  0.
        -13    1    4    4    0    0  0.50636015093E+01  0.32907228342E+01 -0.14643710449E+01  0.62148471078E+01  0.10500000000E+00 0.  1.
         13    1    4    4    0    0  0.28303389044E+01  0.18335429382E+01 -0.91088239107E+00  0.34947717737E+01  0.10500000000E+00 0.  1.
    3000001    1    5    5    0    0 -0.27760739691E+02 -0.79083668857E+01  0.11587223613E+02  0.31120165264E+02  0.10000000000E+01 0. -1.
        -13    1    6    6    0    0 -0.16540439728E+02 -0.63119641727E+01  0.14660575234E+02  0.22986311782E+02  0.10500000000E+00 0. -1.
         13    1    6    6    0    0 -0.60449985140E+01 -0.23454512635E+01  0.53288871673E+01  0.83935220322E+01  0.10500000000E+00 0.  1.
</event>
<event>
11    0  0.3467594E-009  0.9118800E+02  0.7816531E-02  0.1126479E+00
         25   -1    0    0    0    0  0.00000000000E+00  0.00000000000E+00  0.99999998245E-14  0.12500000000E+03  0.12500000000E+03 0.  0.
    3000001    1    3    3    0    0  0.40020312597E+02  0.27398482619E+02 -0.35322987983E+02  0.60008463988E+02  0.10000000000E+01 0.  1.
    1000022    2    1    0    0    0  0.39940925089E+02  0.28103710507E+02 -0.37698193635E+02  0.62500001125E+02  0.10000014802E+02 0.  0.
    3000022    2    3    3    0    0 -0.79387507942E-01  0.70522788796E+00 -0.23752056519E+01  0.24915371365E+01  0.25001332669E+00 0.  0.
    1000022    2    1    0    0    0 -0.39940925089E+02 -0.28103710507E+02  0.37698193635E+02  0.62499998875E+02  0.10000000742E+02 0.  0.
    3000022    2    5    5    0    0 -0.23562740723E+02 -0.21266818576E+02  0.20633515301E+02  0.37858747668E+02  0.24999720901E+00 0.  0.
        -13    1    4    4    0    0 -0.28881607051E-01  0.24074175735E+00 -0.66557116499E+00  0.71610105196E+00  0.10500000000E+00 0.  1.
         13    1    4    4    0    0 -0.50505900890E-01  0.46448613061E+00 -0.17096344869E+01  0.17754360845E+01  0.10500000000E+00 0. -1.
    3000001    1    5    5    0    0 -0.16378184366E+02 -0.68368919306E+01  0.17064678334E+02  0.24641251207E+02  0.10000000000E+01 0.  1.
        -13    1    6    6    0    0 -0.17849402124E+02 -0.16090423347E+02  0.15602518881E+02  0.28652268673E+02  0.10500000000E+00 0.  1.
         13    1    6    6    0    0 -0.57133385988E+01 -0.51763952295E+01  0.50309964201E+01  0.92064789955E+01  0.10500000000E+00 0. -1.
</event>
<event>
11    0  0.3467594E-009  0.9118800E+02  0.7816531E-02  0.1126479E+00
         25   -1    0    0    0    0  0.00000000000E+00  0.00000000000E+00  0.99999998245E-14  0.12500000000E+03  0.12500000000E+03 0.  0.
    3000001    1    3    3    0    0  0.56844358659E+01 -0.19942183241E+02  0.33919364780E+01  0.21035891153E+02  0.10000000000E+01 0. -1.
    1000022    2    1    0    0    0  0.15131327247E+02 -0.59700501084E+02 -0.36253443135E+01  0.62500000021E+02  0.99999993679E+01 0.  0.
    3000022    2    3    3    0    0  0.94468913807E+01 -0.39758317843E+02 -0.70172807915E+01  0.41464108869E+02  0.25000015430E+00 0.  0.
    1000022    2    1    0    0    0 -0.15131327247E+02  0.59700501084E+02  0.36253443135E+01  0.62499999979E+02  0.99999991034E+01 0.  0.
    3000022    2    5    5    0    0  0.12411424789E+01  0.18178779938E+01 -0.14504100377E+00  0.22200561656E+01  0.24999486509E+00 0.  0.
        -13    1    4    4    0    0  0.26685426802E+01 -0.11069637626E+02 -0.19677151311E+01  0.11555990872E+02  0.10500000000E+00 0. -1.
         13    1    4    4    0    0  0.67783487004E+01 -0.28688680217E+02 -0.50495656604E+01  0.29908117996E+02  0.10500000000E+00 0.  1.
    3000001    1    5    5    0    0 -0.16372469725E+02  0.57882623090E+02  0.37703853173E+01  0.60279943813E+02  0.10000000000E+01 0. -1.
        -13    1    6    6    0    0  0.43611337479E+00  0.71587100399E+00 -0.12566546007E-01  0.84489590371E+00  0.10500000000E+00 0. -1.
         13    1    6    6    0    0  0.80502910406E+00  0.11020069898E+01 -0.13247445776E+00  0.13751602619E+01  0.10500000000E+00 0.  1.
</event>
<event>
11    0  0.3467594E-009  0.9118800E+02  0.7816531E-02  0.1126479E+00
         25   -1    0    0    0    0  0.00000000000E+00  0.00000000000E+00  0.99999998245E-14  0.12500000000E+03  0.12500000000E+03 0.  0.
    3000001    1    3    3    0    0 -0.26857106296E+02 -0.23957208884E+02 -0.10693124384E+02  0.37557887656E+02  0.10000000000E+01 0.  1.
    1000022    2    1    0    0    0 -0.49252244562E+02 -0.33359195912E+02 -0.16359418780E+02  0.62499999999E+02  0.99999935392E+01 0.  0.
    3000022    2    3    3    0    0 -0.22395138266E+02 -0.94019870276E+01 -0.56662943960E+01  0.24942112343E+02  0.24999582728E+00 0.  0.
    1000022    2    1    0    0    0  0.49252244562E+02  0.33359195912E+02  0.16359418780E+02  0.62500000001E+02  0.99999935492E+01 0.  0.
    3000022    2    5    5    0    0  0.45736538419E+02  0.29392322628E+02  0.17238380892E+02  0.57034760049E+02  0.25000412534E+00 0.  0.
        -13    1    4    4    0    0 -0.61935164603E+01 -0.25785187745E+01 -0.15988320072E+01  0.68975136101E+01  0.10500000000E+00 0. -1.
         13    1    4    4    0    0 -0.16201621806E+02 -0.68234682531E+01 -0.40674623888E+01  0.18044598733E+02  0.10500000000E+00 0.  1.
    3000001    1    5    5    0    0  0.35157061436E+01  0.39668732834E+01 -0.87896211231E+00  0.54652399517E+01  0.10000000000E+01 0. -1.
        -13    1    6    6    0    0  0.30504368612E+02  0.19568173857E+02  0.11444439478E+02  0.38005475296E+02  0.10500000000E+00 0.  1.
         13    1    6    6    0    0  0.15232169807E+02  0.98241487711E+01  0.57939414144E+01  0.19029284753E+02  0.10500000000E+00 0. -1.
</event>
<event>
11    0  0.3467594E-009  0.9118800E+02  0.7816531E-02  0.1126479E+00
         25   -1    0    0    0    0  0.00000000000E+00  0.00000000000E+00  0.99999998245E-14  0.12500000000E+03  0.12500000000E+03 0.  0.
    3000001    1    3    3    0    0  0.15121184621E+02  0.44694025648E+02 -0.17722065980E+02  0.50411087824E+02  0.10000000000E+01 0. -1.
    1000022    2    1    0    0    0  0.19604121032E+02  0.52512524559E+02 -0.25775243178E+02  0.62500000397E+02  0.10000004590E+02 0.  0.
    3000022    2    3    3    0    0  0.44829364114E+01  0.78184989104E+01 -0.80531771984E+01  0.12088912574E+02  0.25000028340E+00 0.  0.
    1000022    2    1    0    0    0 -0.19604121032E+02 -0.52512524559E+02  0.25775243178E+02  0.62499999603E+02  0.99999996252E+01 0.  0.
    3000022    2    5    5    0    0 -0.18278501857E+01 -0.91425294906E+01  0.75066845645E+00  0.93569697927E+01  0.24999756359E+00 0.  0.
        -13    1    4    4    0    0  0.30445136505E+01  0.54068955938E+01 -0.55338691793E+01  0.83149453651E+01  0.10500000000E+00 0. -1.
         13    1    4    4    0    0  0.14384227609E+01  0.24116033166E+01 -0.25193080191E+01  0.37739672085E+01  0.10500000000E+00 0. -1.
    3000001    1    5    5    0    0 -0.17776270847E+02 -0.43369995068E+02  0.25024574722E+02  0.53143029810E+02  0.10000000000E+01 0.  1.
        -13    1    6    6    0    0 -0.10166300843E+01 -0.48027323581E+01  0.43399411232E+00  0.49294168744E+01  0.10500000000E+00 0.  1.
         13    1    6    6    0    0 -0.81122010135E+00 -0.43397971325E+01  0.31667434413E+00  0.44275529183E+01  0.10500000000E+00 0. -1.
</event>
<event>
11    0  0.3467594E-009  0.9118800E+02  0.7816531E-02  0.1126479E+00
         25   -1    0    0    0    0  0.00000000000E+00  0.00000000000E+00  0.99999998245E-14  0.12500000000E+03  0.12500000000E+03 0.  0.
    3000001    1    3    3    0    0  0.17884497031E+02  0.84599039903E+01  0.10038381783E+02  0.22207978710E+02  0.10000000000E+01 0.  1.
    1000022    2    1    0    0    0  0.53404537414E+02  0.26631360352E+02  0.15651719979E+02  0.62500002237E+02  0.99999985373E+01 0.  0.
    3000022    2    3    3    0    0  0.35520040383E+02  0.18171456362E+02  0.56133381957E+01  0.40292023527E+02  0.24999814012E+00 0.  0.
    1000022    2    1    0    0    0 -0.53404537414E+02 -0.26631360352E+02 -0.15651719979E+02  0.62499997763E+02  0.99999705705E+01 0.  0.
    3000022    2    5    5    0    0 -0.10051837011E+02 -0.68724328786E+01  0.48357693508E+00  0.12188769854E+02  0.25000588318E+00 0.  0.
        -13    1    4    4    0    0  0.16112004052E+02  0.82809481942E+01  0.26067408439E+01  0.18302374174E+02  0.10500000000E+00 0. -1.
         13    1    4    4    0    0  0.19408036331E+02  0.98905081675E+01  0.30065973518E+01  0.21989649353E+02  0.10500000000E+00 0.  1.
    3000001    1    5    5    0    0 -0.43352700404E+02 -0.19758927473E+02 -0.16135296914E+02  0.50311227909E+02  0.10000000000E+01 0. -1.
        -13    1    6    6    0    0 -0.31867821331E+01 -0.21257950418E+01  0.12894497824E+00  0.38343495839E+01  0.10500000000E+00 0. -1.
         13    1    6    6    0    0 -0.68650548776E+01 -0.47466378368E+01  0.35463195684E+00  0.83544202702E+01  0.10500000000E+00 0.  1.
</event>
<event>
11    0  0.3467594E-009  0.9118800E+02  0.7816531E-02  0.1126479E+00
         25   -1    0    0    0    0  0.00000000000E+00  0.00000000000E+00  0.99999998245E-14  0.12500000000E+03  0.12500000000E+03 0.  0.
    3000001    1    3    3    0    0 -0.17151205267E+02 -0.19646577667E+02 -0.33432789567E+02  0.42413479866E+02  0.10000000000E+01 0.  1.
    1000022    2    1    0    0    0 -0.18912927006E+02 -0.28076530858E+02 -0.51577705757E+02  0.62499999376E+02  0.99999898954E+01 0.  0.
    3000022    2    3    3    0    0 -0.17617217386E+01 -0.84299531904E+01 -0.18144916190E+02  0.20086519510E+02  0.25001636703E+00 0.  0.
    1000022    2    1    0    0    0  0.18912927006E+02  0.28076530858E+02  0.51577705757E+02  0.62500000624E+02  0.99999976984E+01 0.  0.
    3000022    2    5    5    0    0 -0.97357570842E+00  0.17935983839E+00  0.13534830937E+01  0.16954145867E+01  0.24998904840E+00 0.  0.
        -13    1    4    4    0    0 -0.12400431554E+01 -0.60958510707E+01 -0.13150398413E+02  0.14547890250E+02  0.10500000000E+00 0.  1.
         13    1    4    4    0    0 -0.52167858320E+00 -0.23341021198E+01 -0.49945177774E+01  0.55386292599E+01  0.10500000000E+00 0. -1.
    3000001    1    5    5    0    0  0.19886502714E+02  0.27897171019E+02  0.50224222663E+02  0.60804586038E+02  0.10000000000E+01 0.  1.
        -13    1    6    6    0    0 -0.57950307128E+00  0.16386430898E+00  0.76457386839E+00  0.97891446082E+00  0.10500000000E+00 0. -1.
         13    1    6    6    0    0 -0.39407263714E+00  0.15495529408E-01  0.58890922532E+00  0.71650012591E+00  0.10500000000E+00 0.  1.
</event>
<event>
11    0  0.3467594E-009  0.9118800E+02  0.7816531E-02  0.1126479E+00
         25   -1    0    0    0    0  0.00000000000E+00  0.00000000000E+00  0.99999998245E-14  0.12500000000E+03  0.12500000000E+03 0.  0.
    3000001    1    3    3    0    0  0.10866180488E+02 -0.62320756936E+01  0.10441762644E+02  0.16338391994E+02  0.10000000000E+01 0. -1.
    1000022    2    1    0    0    0  0.32006955390E+02 -0.15460662130E+02  0.50425916268E+02  0.62500001715E+02  0.99999958039E+01 0.  0.
    3000022    2    3    3    0    0  0.21140774902E+02 -0.92285864360E+01  0.39984153624E+02  0.46161609721E+02  0.24999981406E+00 0.  0.
    1000022    2    1    0    0    0 -0.32006955390E+02  0.15460662130E+02 -0.50425916268E+02  0.62499998285E+02  0.99999743658E+01 0.  0.
    3000022    2    5    5    0    0 -0.32045876622E+02  0.13636604386E+02 -0.48003085193E+02  0.59306440405E+02  0.24999563570E+00 0.  0.
        -13    1    4    4    0    0  0.15676066384E+02 -0.68161433652E+01  0.29666742526E+02  0.34239239255E+02  0.10500000000E+00 0. -1.
         13    1    4    4    0    0  0.54647085183E+01 -0.24124430707E+01  0.10317411098E+02  0.11922370466E+02  0.10500000000E+00 0.  1.
    3000001    1    5    5    0    0  0.38921231775E-01  0.18240577437E+01 -0.24228310751E+01  0.31935578800E+01  0.10000000000E+01 0.  1.
        -13    1    6    6    0    0 -0.17441014757E+02  0.74035301104E+01 -0.26005487161E+02  0.32176041418E+02  0.10500000000E+00 0. -1.
         13    1    6    6    0    0 -0.14604861865E+02  0.62330742755E+01 -0.21997598032E+02  0.27130398987E+02  0.10500000000E+00 0.  1.
</event>
<event>
11    0  0.3467594E-009  0.9118800E+02  0.7816531E-02  0.1126479E+00
         25   -1    0    0    0    0  0.00000000000E+00  0.00000000000E+00  0.99999998245E-14  0.12500000000E+03  0.12500000000E+03 0.  0.
    3000001    1    3    3    0    0 -0.42203655189E+00  0.10575499161E+01 -0.21126719251E+01  0.25999825652E+01  0.10000000000E+01 0. -1.
    1000022    2    1    0    0    0 -0.39958486950E+02  0.39696109727E+02 -0.25175178143E+02  0.62499990163E+02  0.99998684533E+01 0.  0.
    3000022    2    3    3    0    0 -0.39536450398E+02  0.38638559811E+02 -0.23062506218E+02  0.59900007598E+02  0.25000571054E+00 0.  0.
    1000022    2    1    0    0    0  0.39958486950E+02 -0.39696109727E+02  0.25175178143E+02  0.62500009837E+02  0.99999914188E+01 0.  0.
    3000022    2    5    5    0    0  0.39675221435E+02 -0.38722013450E+02  0.23280390477E+02  0.60129498667E+02  0.25001537906E+00 0.  0.
        -13    1    4    4    0    0 -0.21023885692E+02  0.20568696747E+02 -0.12199278008E+02  0.31841929344E+02  0.10500000000E+00 0. -1.
         13    1    4    4    0    0 -0.18512564706E+02  0.18069863064E+02 -0.10863228210E+02  0.28058078253E+02  0.10500000000E+00 0.  1.
    3000001    1    5    5    0    0  0.28326551504E+00 -0.97409627665E+00  0.18947876659E+01  0.23705111700E+01  0.10000000000E+01 0.  1.
        -13    1    6    6    0    0  0.18354380549E+02 -0.17864979328E+02  0.10818089436E+02  0.27804367566E+02  0.10500000000E+00 0. -1.
         13    1    6    6    0    0  0.21320840886E+02 -0.20857034122E+02  0.12462301041E+02  0.32325131101E+02  0.10500000000E+00 0.  1.
</event>
<event>
11    0  0.3467594E-009  0.9118800E+02  0.7816531E-02  0.1126479E+00
         25   -1    0    0    0    0  0.00000000000E+00  0.00000000000E+00  0.99999998245E-14  0.12500000000E+03  0.12500000000E+03 0.  0.
    3000001    1    3    3    0    0 -0.68333160719E+01  0.18703781276E+01 -0.93081998797E+01  0.11740319752E+02  0.10000000000E+01 0.  1.
    1000022    2    1    0    0    0 -0.48355567406E+02  0.16445915442E+02 -0.34605215855E+02  0.62500000092E+02  0.10000000664E+02 0.  0.
    3000022    2    3    3    0    0 -0.41522251334E+02  0.14575537314E+02 -0.25297015975E+02  0.50759680340E+02  0.24997426281E+00 0.  0.
    1000022    2    1    0    0    0  0.48355567406E+02 -0.16445915442E+02  0.34605215855E+02  0.62499999908E+02  0.99999995154E+01 0.  0.
    3000022    2    5    5    0    0  0.21721764830E+02 -0.77070675112E+01  0.97644149708E+01  0.25032783687E+02  0.25000489785E+00 0.  0.
        -13    1    4    4    0    0 -0.13592763882E+02  0.48227337985E+01 -0.82680213497E+01  0.16625077241E+02  0.10500000000E+00 0.  1.
         13    1    4    4    0    0 -0.27929487452E+02  0.97528035158E+01 -0.17028994626E+02  0.34134603099E+02  0.10500000000E+00 0. -1.
    3000001    1    5    5    0    0  0.26633802576E+02 -0.87388479306E+01  0.24840800884E+02  0.37467216221E+02  0.10000000000E+01 0. -1.
        -13    1    6    6    0    0  0.13908469037E+02 -0.49652876087E+01  0.62015880252E+01  0.16017812304E+02  0.10500000000E+00 0. -1.
         13    1    6    6    0    0  0.78132957929E+01 -0.27417799025E+01  0.35628269456E+01  0.90149713824E+01  0.10500000000E+00 0.  1.
</event>
<event>
11    0  0.3467594E-009  0.9118800E+02  0.7816531E-02  0.1126479E+00
         25   -1    0    0    0    0  0.00000000000E+00  0.00000000000E+00  0.99999998245E-14  0.12500000000E+03  0.12500000000E+03 0.  0.
    3000001    1    3    3    0    0 -0.19552424646E+02  0.38242038515E+02 -0.33771548813E+02  0.54646759543E+02  0.10000000000E+01 0.  1.
    1000022    2    1    0    0    0 -0.24063209994E+02  0.44468143474E+02 -0.35352445937E+02  0.62499994805E+02  0.10000002880E+02 0.  0.
    3000022    2    3    3    0    0 -0.45107853485E+01  0.62261049585E+01 -0.15808971242E+01  0.78532352615E+01  0.25000188150E+00 0.  0.
    1000022    2    1    0    0    0  0.24063209994E+02 -0.44468143474E+02  0.35352445937E+02  0.62500005195E+02  0.10000067819E+02 0.  0.
    3000022    2    5    5    0    0  0.31954337365E+00  0.48889069986E-01  0.19291485157E+01  0.19719563115E+01  0.24999918022E+00 0.  0.
        -13    1    4    4    0    0 -0.18661739123E+01  0.24853323747E+01 -0.60364439434E+00  0.31677900243E+01  0.10500000000E+00 0. -1.
         13    1    4    4    0    0 -0.26446114362E+01  0.37407725838E+01 -0.97725272987E+00  0.46854452371E+01  0.10500000000E+00 0.  1.
    3000001    1    5    5    0    0  0.23743666621E+02 -0.44517032544E+02  0.33423297422E+02  0.60528048884E+02  0.10000000000E+01 0.  1.
        -13    1    6    6    0    0  0.13783030655E+00 -0.15550324771E-01  0.11253108144E+01  0.11386783721E+01  0.10500000000E+00 0. -1.
         13    1    6    6    0    0  0.18171306710E+00  0.64439394757E-01  0.80383770126E+00  0.83327793942E+00  0.10500000000E+00 0.  1.
</event>
<event>
11    0  0.3467594E-009  0.9118800E+02  0.7816531E-02  0.1126479E+00
         25   -1    0    0    0    0  0.00000000000E+00  0.00000000000E+00  0.99999998245E-14  0.12500000000E+03  0.12500000000E+03 0.  0.
    3000001    1    3    3    0    0  0.17117978503E+02  0.15882272723E+01  0.37438795899E+01  0.17622834287E+02  0.10000000000E+01 0. -1.
    1000022    2    1    0    0    0  0.55048250480E+02  0.17697466135E+02  0.21511392030E+02  0.62500001157E+02  0.99999984534E+01 0.  0.
    3000022    2    3    3    0    0  0.37930271977E+02  0.16109238862E+02  0.17767512440E+02  0.44877166870E+02  0.24999812423E+00 0.  0.
    1000022    2    1    0    0    0 -0.55048250480E+02 -0.17697466135E+02 -0.21511392030E+02  0.62499998843E+02  0.99999839912E+01 0.  0.
    3000022    2    5    5    0    0 -0.41876955532E+02 -0.14842261233E+02 -0.20547676791E+02  0.48951421327E+02  0.25001062677E+00 0.  0.
        -13    1    4    4    0    0  0.23121635797E+02  0.98273353914E+01  0.10899090654E+02  0.27385904493E+02  0.10500000000E+00 0.  1.
         13    1    4    4    0    0  0.14808636179E+02  0.62819034710E+01  0.68684217862E+01  0.17491262377E+02  0.10500000000E+00 0. -1.
    3000001    1    5    5    0    0 -0.13171294948E+02 -0.28552049022E+01 -0.96371523860E+00  0.13548577516E+02  0.10000000000E+01 0.  1.
        -13    1    6    6    0    0 -0.16691598546E+02 -0.59440005714E+01 -0.82573511256E+01  0.19548285793E+02  0.10500000000E+00 0. -1.
         13    1    6    6    0    0 -0.25185356985E+02 -0.88982606612E+01 -0.12290325666E+02  0.29403135534E+02  0.10500000000E+00 0.  1.
</event>
<event>
11    0  0.3467594E-009  0.9118800E+02  0.7816531E-02  0.1126479E+00
         25   -1    0    0    0    0  0.00000000000E+00  0.00000000000E+00  0.99999998245E-14  0.12500000000E+03  0.12500000000E+03 0.  0.
    3000001    1    3    3    0    0 -0.23834702283E+02 -0.24993419727E+02  0.10249823673E+02  0.36039186283E+02  0.10000000000E+01 0. -1.
    1000022    2    1    0    0    0 -0.39698027803E+02 -0.39853976274E+02  0.25337268496E+02  0.62500001241E+02  0.10000007197E+02 0.  0.
    3000022    2    3    3    0    0 -0.15863325520E+02 -0.14860556547E+02  0.15087444824E+02  0.26460814958E+02  0.24999903097E+00 0.  0.
    1000022    2    1    0    0    0  0.39698027803E+02  0.39853976274E+02 -0.25337268496E+02  0.62499998759E+02  0.99999916855E+01 0.  0.
    3000022    2    5    5    0    0  0.51335963934E+01  0.72416071907E+01 -0.55961402436E+00  0.88977721537E+01  0.24998961891E+00 0.  0.
        -13    1    4    4    0    0 -0.10327139389E+02 -0.96613422391E+01  0.98832666621E+01  0.17253443910E+02  0.10500000000E+00 0.  1.
         13    1    4    4    0    0 -0.55361861306E+01 -0.51992143078E+01  0.52041781614E+01  0.92073710486E+01  0.10500000000E+00 0. -1.
    3000001    1    5    5    0    0  0.34564431410E+02  0.32612369083E+02 -0.24777654472E+02  0.53602226605E+02  0.10000000000E+01 0. -1.
        -13    1    6    6    0    0  0.19933852664E+01  0.27759181396E+01 -0.27339684008E+00  0.34300258265E+01  0.10500000000E+00 0.  1.
         13    1    6    6    0    0  0.31402111269E+01  0.44656890511E+01 -0.28621718428E+00  0.54677463273E+01  0.10500000000E+00 0.  1.
</event>
<event>
11    0  0.3467594E-009  0.9118800E+02  0.7816531E-02  0.1126479E+00
         25   -1    0    0    0    0  0.00000000000E+00  0.00000000000E+00  0.99999998245E-14  0.12500000000E+03  0.12500000000E+03 0.  0.
    3000001    1    3    3    0    0  0.22831430521E+01  0.35343178236E+01 -0.12849824132E+02  0.13558101817E+02  0.10000000000E+01 0.  1.
    1000022    2    1    0    0    0  0.66590931447E+01  0.32840841156E+02 -0.51801404988E+02  0.62500000005E+02  0.10000003627E+02 0.  0.
    3000022    2    3    3    0    0  0.43759500926E+01  0.29306523333E+02 -0.38951580856E+02  0.48941898188E+02  0.24999590615E+00 0.  0.
    1000022    2    1    0    0    0 -0.66590931447E+01 -0.32840841156E+02  0.51801404988E+02  0.62499999995E+02  0.10000003562E+02 0.  0.
    3000022    2    5    5    0    0 -0.36422047726E+01 -0.30351092625E+02  0.48271198871E+02  0.57136902156E+02  0.24993682107E+00 0.  0.
        -13    1    4    4    0    0  0.13089183937E+01  0.90930967083E+01 -0.12071120034E+02  0.15169727716E+02  0.10500000000E+00 0.  1.
         13    1    4    4    0    0  0.30670316989E+01  0.20213426624E+02 -0.26880460823E+02  0.33772170472E+02  0.10500000000E+00 0. -1.
    3000001    1    5    5    0    0 -0.30168883721E+01 -0.24897485316E+01  0.35302061172E+01  0.53630978389E+01  0.10000000000E+01 0. -1.
        -13    1    6    6    0    0 -0.27657308464E+01 -0.22866943006E+02  0.36391617132E+02  0.43068633273E+02  0.10500000000E+00 0.  1.
         13    1    6    6    0    0 -0.87647392624E+00 -0.74841496192E+01  0.11879581739E+02  0.14068268883E+02  0.10500000000E+00 0. -1.
</event>
<event>
11    0  0.3467594E-009  0.9118800E+02  0.7816531E-02  0.1126479E+00
         25   -1    0    0    0    0  0.00000000000E+00  0.00000000000E+00  0.99999998245E-14  0.12500000000E+03  0.12500000000E+03 0.  0.
    3000001    1    3    3    0    0  0.24368099847E+02 -0.33366320815E+02 -0.19059143486E+02  0.45512268734E+02  0.10000000000E+01 0.  1.
    1000022    2    1    0    0    0  0.37913052594E+02 -0.42085043890E+02 -0.24447894618E+02  0.62500000032E+02  0.99999988261E+01 0.  0.
    3000022    2    3    3    0    0  0.13544952747E+02 -0.87187230750E+01 -0.53887511326E+01  0.16987731298E+02  0.24999783072E+00 0.  0.
    1000022    2    1    0    0    0 -0.37913052594E+02  0.42085043890E+02  0.24447894618E+02  0.62499999968E+02  0.99999984245E+01 0.  0.
    3000022    2    5    5    0    0 -0.18533010743E+02  0.19646237114E+02  0.63386183818E+01  0.27743245840E+02  0.24997364437E+00 0.  0.
        -13    1    4    4    0    0  0.91009305410E+01 -0.59163234181E+01 -0.36498726797E+01  0.11452616080E+02  0.10500000000E+00 0. -1.
         13    1    4    4    0    0  0.44440222064E+01 -0.28023996569E+01 -0.17388784529E+01  0.55351152184E+01  0.10500000000E+00 0.  1.
    3000001    1    5    5    0    0 -0.19380041851E+02  0.22438806776E+02  0.18109276236E+02  0.34756754128E+02  0.10000000000E+01 0.  1.
        -13    1    6    6    0    0 -0.13120687096E+02  0.13856042202E+02  0.45039667141E+01  0.19607118007E+02  0.10500000000E+00 0.  1.
         13    1    6    6    0    0 -0.54123236468E+01  0.57901949123E+01  0.18346516677E+01  0.81361278334E+01  0.10500000000E+00 0. -1.
</event>
<event>
11    0  0.3467594E-009  0.9118800E+02  0.7816531E-02  0.1126479E+00
         25   -1    0    0    0    0  0.00000000000E+00  0.00000000000E+00  0.99999998245E-14  0.12500000000E+03  0.12500000000E+03 0.  0.
    3000001    1    3    3    0    0  0.21869399463E+02  0.41944640681E+02  0.30773495174E+02  0.56441398989E+02  0.10000000000E+01 0. -1.
    1000022    2    1    0    0    0  0.25084767401E+02  0.47068107876E+02  0.31009621807E+02  0.62500009808E+02  0.10000112335E+02 0.  0.
    3000022    2    3    3    0    0  0.32153679386E+01  0.51234671954E+01  0.23612663359E+00  0.60586108181E+01  0.25000435052E+00 0.  0.
    1000022    2    1    0    0    0 -0.25084767401E+02 -0.47068107876E+02 -0.31009621807E+02  0.62499990192E+02  0.99999897409E+01 0.  0.
    3000022    2    5    5    0    0 -0.10377247675E+02 -0.26105803223E+02 -0.11793001009E+02  0.30468632622E+02  0.24993970399E+00 0.  0.
        -13    1    4    4    0    0  0.16707320822E+01  0.27633162162E+01  0.16655244536E+00  0.32351239417E+01  0.10500000000E+00 0. -1.
         13    1    4    4    0    0  0.15446358564E+01  0.23601509793E+01  0.69574188221E-01  0.28234868764E+01  0.10500000000E+00 0.  1.
    3000001    1    5    5    0    0 -0.14707519727E+02 -0.20962304653E+02 -0.19216620798E+02  0.32031357570E+02  0.10000000000E+01 0.  1.
        -13    1    6    6    0    0 -0.39538403486E+01 -0.99362461712E+01 -0.45552011642E+01  0.11624230044E+02  0.10500000000E+00 0.  1.
         13    1    6    6    0    0 -0.64234073260E+01 -0.16169557052E+02 -0.72377998446E+01  0.18844402578E+02  0.10500000000E+00 0. -1.
</event>
<event>
11    0  0.3467594E-009  0.9118800E+02  0.7816531E-02  0.1126479E+00
         25   -1    0    0    0    0  0.00000000000E+00  0.00000000000E+00  0.99999998245E-14  0.12500000000E+03  0.12500000000E+03 0.  0.
    3000001    1    3    3    0    0  0.18991175175E+00 -0.45081477691E+02 -0.16206090939E+02  0.47916730698E+02  0.10000000000E+01 0. -1.
    1000022    2    1    0    0    0 -0.36334167036E+01 -0.56590642488E+02 -0.24301182591E+02  0.62499999307E+02  0.99999951952E+01 0.  0.
    3000022    2    3    3    0    0 -0.38233284553E+01 -0.11509164798E+02 -0.80950916526E+01  0.14583268610E+02  0.24999931828E+00 0.  0.
    1000022    2    1    0    0    0  0.36334167036E+01  0.56590642488E+02  0.24301182591E+02  0.62500000693E+02  0.10000003853E+02 0.  0.
    3000022    2    5    5    0    0 -0.90331599748E+00  0.45427651320E+02  0.20280888181E+02  0.49758058825E+02  0.25001665646E+00 0.  0.
        -13    1    4    4    0    0 -0.21829129677E+01 -0.66607005146E+01 -0.46080095258E+01  0.83889699701E+01  0.10500000000E+00 0. -1.
         13    1    4    4    0    0 -0.16404154876E+01 -0.48484642831E+01 -0.34870821269E+01  0.61942986395E+01  0.10500000000E+00 0.  1.
    3000001    1    5    5    0    0  0.45367327010E+01  0.11162991168E+02  0.40202944098E+01  0.12741941868E+02  0.10000000000E+01 0. -1.
        -13    1    6    6    0    0 -0.53466024435E+00  0.29043181317E+02  0.13008837009E+02  0.31828181033E+02  0.10500000000E+00 0. -1.
         13    1    6    6    0    0 -0.36865575313E+00  0.16384470003E+02  0.72720511722E+01  0.17929877791E+02  0.10500000000E+00 0.  1.
</event>
<event>
11    0  0.3467594E-009  0.9118800E+02  0.7816531E-02  0.1126479E+00
         25   -1    0    0    0    0  0.00000000000E+00  0.00000000000E+00  0.99999998245E-14  0.12500000000E+03  0.12500000000E+03 0.  0.
    3000001    1    3    3    0    0 -0.38495932413E+02  0.23644361895E+02 -0.29437386720E+02  0.53930996641E+02  0.10000000000E+01 0. -1.
    1000022    2    1    0    0    0 -0.46043610261E+02  0.27569535555E+02 -0.30432821640E+02  0.62500000142E+02  0.10000002414E+02 0.  0.
    3000022    2    3    3    0    0 -0.75476778474E+01  0.39251736603E+01 -0.99543491960E+00  0.85690035013E+01  0.25000235040E+00 0.  0.
    1000022    2    1    0    0    0  0.46043610261E+02 -0.27569535555E+02  0.30432821640E+02  0.62499999858E+02  0.10000000635E+02 0.  0.
    3000022    2    5    5    0    0  0.25789106819E+02 -0.10303601012E+02  0.12969023110E+02  0.30651268888E+02  0.24999931328E+00 0.  0.
        -13    1    4    4    0    0 -0.46189999601E+01  0.23449667043E+01 -0.56984941273E+00  0.52124641801E+01  0.10500000000E+00 0. -1.
         13    1    4    4    0    0 -0.29286778873E+01  0.15802069561E+01 -0.42558550686E+00  0.33565393212E+01  0.10500000000E+00 0.  1.
    3000001    1    5    5    0    0  0.20254503441E+02 -0.17265934543E+02  0.17463798529E+02  0.31848730970E+02  0.10000000000E+01 0. -1.
        -13    1    6    6    0    0  0.11084237731E+02 -0.44314853731E+01  0.55024705565E+01  0.13144831529E+02  0.10500000000E+00 0. -1.
         13    1    6    6    0    0  0.14704869088E+02 -0.58721156388E+01  0.74665525536E+01  0.17506437359E+02  0.10500000000E+00 0.  1.
</event>
<event>
11    0  0.3467594E-009  0.9118800E+02  0.7816531E-02  0.1126479E+00
         25   -1    0    0    0    0  0.00000000000E+00  0.00000000000E+00  0.99999998245E-14  0.12500000000E+03  0.12500000000E+03 0.  0.
    3000001    1    3    3    0    0 -0.16950653542E+02  0.14640780145E+02  0.51463038971E+02  0.56134850840E+02  0.10000000000E+01 0. -1.
    1000022    2    1    0    0    0 -0.19156338003E+02  0.12976545104E+02  0.57191730742E+02  0.62500000583E+02  0.99999999548E+01 0.  0.
    3000022    2    3    3    0    0 -0.22056844613E+01 -0.16642350404E+01  0.57286917712E+01  0.63651497430E+01  0.24999925741E+00 0.  0.
    1000022    2    1    0    0    0  0.19156338003E+02 -0.12976545104E+02 -0.57191730742E+02  0.62499999417E+02  0.99999926658E+01 0.  0.
    3000022    2    5    5    0    0  0.64839582278E+01 -0.92587990849E+01 -0.19393271038E+02  0.22448352752E+02  0.25000979936E+00 0.  0.
        -13    1    4    4    0    0 -0.11656383164E+01 -0.82412210193E+00  0.28398895514E+01  0.31802338888E+01  0.10500000000E+00 0.  1.
         13    1    4    4    0    0 -0.10400461450E+01 -0.84011293845E+00  0.28888022198E+01  0.31849158542E+01  0.10500000000E+00 0. -1.
    3000001    1    5    5    0    0  0.12672379775E+02 -0.37177460193E+01 -0.37798459704E+02  0.40051646665E+02  0.10000000000E+01 0.  1.
        -13    1    6    6    0    0  0.44676723960E+01 -0.63218154373E+01 -0.13206229253E+02  0.15308199213E+02  0.10500000000E+00 0. -1.
         13    1    6    6    0    0  0.20162858319E+01 -0.29369836476E+01 -0.61870417851E+01  0.71401535384E+01  0.10500000000E+00 0.  1.
</event>
<event>
11    0  0.3467594E-009  0.9118800E+02  0.7816531E-02  0.1126479E+00
         25   -1    0    0    0    0  0.00000000000E+00  0.00000000000E+00  0.99999998245E-14  0.12500000000E+03  0.12500000000E+03 0.  0.
    3000001    1    3    3    0    0  0.69166644863E+00 -0.12760799607E+01  0.82616337311E-01  0.17645418673E+01  0.10000000000E+01 0.  1.
    1000022    2    1    0    0    0  0.13606448698E+02 -0.42271928684E+02 -0.42827545543E+02  0.62499998615E+02  0.99999884379E+01 0.  0.
    3000022    2    3    3    0    0  0.12914782249E+02 -0.40995848724E+02 -0.42910161881E+02  0.60735456748E+02  0.25000124356E+00 0.  0.
    1000022    2    1    0    0    0 -0.13606448698E+02  0.42271928684E+02  0.42827545543E+02  0.62500001385E+02  0.10000005749E+02 0.  0.
    3000022    2    5    5    0    0 -0.54674995102E+01  0.18113734539E+02  0.25099461855E+02  0.31433205774E+02  0.25002002470E+00 0.  0.
        -13    1    4    4    0    0  0.94177801565E+01 -0.29906015109E+02 -0.31352052427E+02  0.44339897825E+02  0.10500000000E+00 0.  1.
         13    1    4    4    0    0  0.34970020929E+01 -0.11089833614E+02 -0.11558109454E+02  0.16395558922E+02  0.10500000000E+00 0. -1.
    3000001    1    5    5    0    0 -0.81389491879E+01  0.24158194145E+02  0.17728083689E+02  0.31066795610E+02  0.10000000000E+01 0. -1.
        -13    1    6    6    0    0 -0.17299357249E+01  0.58276005971E+01  0.79936220905E+01  0.10043038657E+02  0.10500000000E+00 0.  1.
         13    1    6    6    0    0 -0.37375637853E+01  0.12286133942E+02  0.17105839764E+02  0.21390167118E+02  0.10500000000E+00 0. -1.
</event>
<event>
11    0  0.3467594E-009  0.9118800E+02  0.7816531E-02  0.1126479E+00
         25   -1    0    0    0    0  0.00000000000E+00  0.00000000000E+00  0.99999998245E-14  0.12500000000E+03  0.12500000000E+03 0.  0.
    3000001    1    3    3    0    0  0.17826999323E+02 -0.79006066466E+01  0.33458711628E+02  0.38738958092E+02  0.10000000000E+01 0. -1.
    1000022    2    1    0    0    0  0.22673092296E+02 -0.17515851279E+02  0.54638588891E+02  0.62500002795E+02  0.10000039655E+02 0.  0.
    3000022    2    3    3    0    0  0.48460929730E+01 -0.96152446326E+01  0.21179877263E+02  0.23761044703E+02  0.24999612899E+00 0.  0.
    1000022    2    1    0    0    0 -0.22673092296E+02  0.17515851279E+02 -0.54638588891E+02  0.62499997205E+02  0.10000004717E+02 0.  0.
    3000022    2    5    5    0    0 -0.17793343414E+02  0.17889845298E+02 -0.47516002744E+02  0.53800396405E+02  0.25000368331E+00 0.  0.
        -13    1    4    4    0    0  0.33695509100E+01 -0.67591942925E+01  0.14784953970E+02  0.16602604305E+02  0.10500000000E+00 0.  1.
         13    1    4    4    0    0  0.14765420630E+01 -0.28560503400E+01  0.63949232934E+01  0.71584403984E+01  0.10500000000E+00 0. -1.
    3000001    1    5    5    0    0 -0.48797488815E+01 -0.37399401861E+00 -0.71225861465E+01  0.86996008004E+01  0.10000000000E+01 0.  1.
        -13    1    6    6    0    0 -0.77650960009E+01  0.77323644383E+01 -0.20552767661E+02  0.23291918325E+02  0.10500000000E+00 0. -1.
         13    1    6    6    0    0 -0.10028247413E+02  0.10157480859E+02 -0.26963235083E+02  0.30508478080E+02  0.10500000000E+00 0.  1.
</event>
<event>
11    0  0.3467594E-009  0.9118800E+02  0.7816531E-02  0.1126479E+00
         25   -1    0    0    0    0  0.00000000000E+00  0.00000000000E+00  0.99999998245E-14  0.12500000000E+03  0.12500000000E+03 0.  0.
    3000001    1    3    3    0    0 -0.36870828502E+02  0.34263166270E+02 -0.16952672589E+02  0.53120764915E+02  0.10000000000E+01 0.  1.
    1000022    2    1    0    0    0 -0.45375421547E+02  0.38210244382E+02 -0.16949879798E+02  0.62499999248E+02  0.99999912287E+01 0.  0.
    3000022    2    3    3    0    0 -0.85045930449E+01  0.39470781120E+01  0.27927909519E-02  0.93792343330E+01  0.25000078607E+00 0.  0.
    1000022    2    1    0    0    0  0.45375421547E+02 -0.38210244382E+02  0.16949879798E+02  0.62500000752E+02  0.10000000632E+02 0.  0.
    3000022    2    5    5    0    0  0.35180334510E+02 -0.34444932009E+02  0.14259709082E+02  0.51259253650E+02  0.25000850757E+00 0.  0.
        -13    1    4    4    0    0 -0.62600034522E+01  0.28816443623E+01 -0.24192183376E-01  0.68922512806E+01  0.10500000000E+00 0.  1.
         13    1    4    4    0    0 -0.22445895926E+01  0.10654337497E+01  0.26984974328E-01  0.24869830524E+01  0.10500000000E+00 0. -1.
    3000001    1    5    5    0    0  0.10195087036E+02 -0.37653123721E+01  0.26901707159E+01  0.11240747102E+02  0.10000000000E+01 0.  1.
        -13    1    6    6    0    0  0.18616552110E+02 -0.18321026240E+02  0.75563222421E+01  0.27190900054E+02  0.10500000000E+00 0.  1.
         13    1    6    6    0    0  0.16563782401E+02 -0.16123905769E+02  0.67033868398E+01  0.24068353596E+02  0.10500000000E+00 0. -1.
</event>
<event>
11    0  0.3467594E-009  0.9118800E+02  0.7816531E-02  0.1126479E+00
         25   -1    0    0    0    0  0.00000000000E+00  0.00000000000E+00  0.99999998245E-14  0.12500000000E+03  0.12500000000E+03 0.  0.
    3000001    1    3    3    0    0 -0.67580119888E+01  0.81993160246E+01  0.13396190498E+01  0.10756118654E+02  0.10000000000E+01 0.  1.
    1000022    2    1    0    0    0 -0.28302577383E+02  0.48257411626E+02  0.26008380238E+02  0.62500003290E+02  0.10000045261E+02 0.  0.
    3000022    2    3    3    0    0 -0.21544565394E+02  0.40058095602E+02  0.24668761188E+02  0.51743884635E+02  0.24999462298E+00 0.  0.
    1000022    2    1    0    0    0  0.28302577383E+02 -0.48257411626E+02 -0.26008380238E+02  0.62499996710E+02  0.10000004139E+02 0.  0.
    3000022    2    5    5    0    0  0.36404604981E+01 -0.63194388825E+01  0.55003460762E-01  0.72975190762E+01  0.24999771722E+00 0.  0.
        -13    1    4    4    0    0 -0.12535852680E+02  0.23433044932E+02  0.14442354295E+02  0.30246451358E+02  0.10500000000E+00 0.  1.
         13    1    4    4    0    0 -0.90087127146E+01  0.16625050669E+02  0.10226406894E+02  0.21497433277E+02  0.10500000000E+00 0. -1.
    3000001    1    5    5    0    0  0.24662116885E+02 -0.41937972744E+02 -0.26063383699E+02  0.55202477634E+02  0.10000000000E+01 0.  1.
        -13    1    6    6    0    0  0.27812547143E+01 -0.47875964290E+01  0.42212664679E-01  0.55379837723E+01  0.10500000000E+00 0.  1.
         13    1    6    6    0    0  0.85920578379E+00 -0.15318424535E+01  0.12790796083E-01  0.17595353039E+01  0.10500000000E+00 0. -1.
</event>
<event>
11    0  0.3467594E-009  0.9118800E+02  0.7816531E-02  0.1126479E+00
         25   -1    0    0    0    0  0.00000000000E+00  0.00000000000E+00  0.99999998245E-14  0.12500000000E+03  0.12500000000E+03 0.  0.
    3000001    1    3    3    0    0  0.13771662201E+00  0.98139695668E+01 -0.46783522228E+01  0.10918788580E+02  0.10000000000E+01 0. -1.
    1000022    2    1    0    0    0  0.74378884745E+00  0.43558269494E+02 -0.43684940231E+02  0.62500001286E+02  0.10000004731E+02 0.  0.
    3000022    2    3    3    0    0  0.60607222545E+00  0.33744299927E+02 -0.39006588009E+02  0.51581212707E+02  0.24999023327E+00 0.  0.
    1000022    2    1    0    0    0 -0.74378884745E+00 -0.43558269494E+02  0.43684940231E+02  0.62499998714E+02  0.99999886527E+01 0.  0.
    3000022    2    5    5    0    0 -0.34334883999E+01 -0.27327103005E+02  0.21936913798E+02  0.35211504746E+02  0.24995653170E+00 0.  0.
        -13    1    4    4    0    0  0.15726517608E+00  0.10296410203E+02 -0.11960337168E+02  0.15782949204E+02  0.10500000000E+00 0.  1.
         13    1    4    4    0    0  0.44880704937E+00  0.23447889724E+02 -0.27046250841E+02  0.35798263503E+02  0.10500000000E+00 0. -1.
    3000001    1    5    5    0    0  0.26896995525E+01 -0.16231166489E+02  0.21748026434E+02  0.27288493968E+02  0.10000000000E+01 0.  1.
        -13    1    6    6    0    0 -0.90126986145E+00 -0.69502241188E+01  0.55920575684E+01  0.89666066889E+01  0.10500000000E+00 0.  1.
         13    1    6    6    0    0 -0.25322185385E+01 -0.20376878886E+02  0.16344856229E+02  0.26244898057E+02  0.10500000000E+00 0. -1.
</event>
<event>
11    0  0.3467594E-009  0.9118800E+02  0.7816531E-02  0.1126479E+00
         25   -1    0    0    0    0  0.00000000000E+00  0.00000000000E+00  0.99999998245E-14  0.12500000000E+03  0.12500000000E+03 0.  0.
    3000001    1    3    3    0    0 -0.18148189023E+02 -0.28936525938E+02  0.36631882268E+02  0.50095649479E+02  0.10000000000E+01 0. -1.
    1000022    2    1    0    0    0 -0.25531637820E+02 -0.37387327049E+02  0.41911495335E+02  0.62500010347E+02  0.10000054923E+02 0.  0.
    3000022    2    3    3    0    0 -0.73834487969E+01 -0.84508011110E+01  0.52796130670E+01  0.12404360868E+02  0.24999770047E+00 0.  0.
    1000022    2    1    0    0    0  0.25531637820E+02  0.37387327049E+02 -0.41911495335E+02  0.62499989653E+02  0.99999255863E+01 0.  0.
    3000022    2    5    5    0    0  0.61333090206E+01  0.87162840239E+01 -0.46520913346E+01  0.11631659084E+02  0.24990505970E+00 0.  0.
        -13    1    4    4    0    0 -0.45879594510E+01 -0.52030020887E+01  0.32056262233E+01  0.76424908991E+01  0.10500000000E+00 0.  1.
         13    1    4    4    0    0 -0.27954893459E+01 -0.32477990223E+01  0.20739868436E+01  0.47618699688E+01  0.10500000000E+00 0. -1.
    3000001    1    5    5    0    0  0.19398328799E+02  0.28671043025E+02 -0.37259404001E+02  0.50868330569E+02  0.10000000000E+01 0.  1.
        -13    1    6    6    0    0  0.26307163995E+01  0.38490173218E+01 -0.20158455914E+01  0.50803800613E+01  0.10500000000E+00 0. -1.
         13    1    6    6    0    0  0.35025926211E+01  0.48672667020E+01 -0.26362457432E+01  0.65512790229E+01  0.10500000000E+00 0.  1.
</event>
<event>
11    0  0.3467594E-009  0.9118800E+02  0.7816531E-02  0.1126479E+00
         25   -1    0    0    0    0  0.00000000000E+00  0.00000000000E+00  0.99999998245E-14  0.12500000000E+03  0.12500000000E+03 0.  0.
    3000001    1    3    3    0    0  0.11277193125E+02  0.38117716790E+02 -0.33494490140E+02  0.51990540369E+02  0.10000000000E+01 0.  1.
    1000022    2    1    0    0    0  0.11653536260E+02  0.42773163444E+02 -0.42905729300E+02  0.62500000141E+02  0.99999996246E+01 0.  0.
    3000022    2    3    3    0    0  0.37634313559E+00  0.46554466534E+01 -0.94112391596E+01  0.10509459772E+02  0.25000896469E+00 0.  0.
    1000022    2    1    0    0    0 -0.11653536260E+02 -0.42773163444E+02  0.42905729300E+02  0.62499999859E+02  0.99999978637E+01 0.  0.
    3000022    2    5    5    0    0 -0.78719896893E+01 -0.27264288878E+02  0.33654533152E+02  0.44022718811E+02  0.25000027325E+00 0.  0.
        -13    1    4    4    0    0  0.22883088408E+00  0.33342784267E+01 -0.67454171202E+01  0.75287086095E+01  0.10500000000E+00 0.  1.
         13    1    4    4    0    0  0.14751225151E+00  0.13211682266E+01 -0.26658220393E+01  0.29807511625E+01  0.10500000000E+00 0. -1.
    3000001    1    5    5    0    0 -0.37815465709E+01 -0.15508874566E+02  0.92511961478E+01  0.18477281048E+02  0.10000000000E+01 0. -1.
        -13    1    6    6    0    0 -0.25173671641E+01 -0.87907750111E+01  0.10917988085E+02  0.14241781896E+02  0.10500000000E+00 0.  1.
         13    1    6    6    0    0 -0.53546225252E+01 -0.18473513867E+02  0.22736545067E+02  0.29780936915E+02  0.10500000000E+00 0. -1.
</event>
<event>
11    0  0.3467594E-009  0.9118800E+02  0.7816531E-02  0.1126479E+00
         25   -1    0    0    0    0  0.00000000000E+00  0.00000000000E+00  0.99999998245E-14  0.12500000000E+03  0.12500000000E+03 0.  0.
    3000001    1    3    3    0    0 -0.85640482534E+01 -0.27893208684E+01  0.23931591517E+02  0.25589925868E+02  0.10000000000E+01 0.  1.
    1000022    2    1    0    0    0 -0.96901137277E+01 -0.38189969616E+01  0.60809265975E+02  0.62500000765E+02  0.10000011272E+02 0.  0.
    3000022    2    3    3    0    0 -0.11260654743E+01 -0.10296760933E+01  0.36877674457E+02  0.36910074897E+02  0.24999843496E+00 0.  0.
    1000022    2    1    0    0    0  0.96901137277E+01  0.38189969616E+01 -0.60809265975E+02  0.62499999235E+02  0.10000001704E+02 0.  0.
    3000022    2    5    5    0    0  0.79659292845E+01  0.54688615052E+01 -0.28644855417E+02  0.30231683946E+02  0.24999368543E+00 0.  0.
        -13    1    4    4    0    0 -0.48501245289E+00 -0.40063738912E+00  0.13935262128E+02  0.13949849568E+02  0.10500000000E+00 0. -1.
         13    1    4    4    0    0 -0.64105302140E+00 -0.62903870416E+00  0.22942412329E+02  0.22960225329E+02  0.10500000000E+00 0.  1.
    3000001    1    5    5    0    0  0.17241844432E+01 -0.16498645436E+01 -0.32164410558E+02  0.32268315289E+02  0.10000000000E+01 0.  1.
        -13    1    6    6    0    0  0.52084844928E+01  0.36427099319E+01 -0.18841529696E+02  0.19884967001E+02  0.10500000000E+00 0. -1.
         13    1    6    6    0    0  0.27574447917E+01  0.18261515733E+01 -0.98033257208E+01  0.10346716945E+02  0.10500000000E+00 0.  1.
</event>
<event>
11    0  0.3467594E-009  0.9118800E+02  0.7816531E-02  0.1126479E+00
         25   -1    0    0    0    0  0.00000000000E+00  0.00000000000E+00  0.99999998245E-14  0.12500000000E+03  0.12500000000E+03 0.  0.
    3000001    1    3    3    0    0  0.24063886182E+02 -0.59199121917E+01  0.23063565284E+02  0.33868038357E+02  0.10000000000E+01 0. -1.
    1000022    2    1    0    0    0  0.41376364185E+02 -0.29235166907E+01  0.45669459396E+02  0.62500000011E+02  0.10000000839E+02 0.  0.
    3000022    2    3    3    0    0  0.17312478002E+02  0.29963955011E+01  0.22605894113E+02  0.28631961654E+02  0.24999784578E+00 0.  0.
    1000022    2    1    0    0    0 -0.41376364185E+02  0.29235166907E+01 -0.45669459396E+02  0.62499999989E+02  0.10000000707E+02 0.  0.
    3000022    2    5    5    0    0 -0.76044609917E+01 -0.23009566624E+01 -0.12841568490E+02  0.15102668963E+02  0.24999996339E+00 0.  0.
        -13    1    4    4    0    0  0.10265824351E+02  0.17494033527E+01  0.13492342671E+02  0.17044116212E+02  0.10500000000E+00 0.  1.
         13    1    4    4    0    0  0.70466536519E+01  0.12469921483E+01  0.91135514420E+01  0.11587845442E+02  0.10500000000E+00 0. -1.
    3000001    1    5    5    0    0 -0.33771903193E+02  0.52244733531E+01 -0.32827890907E+02  0.47397331027E+02  0.10000000000E+01 0.  1.
        -13    1    6    6    0    0 -0.38410153913E+01 -0.11932506987E+01 -0.63849230416E+01  0.75468876839E+01  0.10500000000E+00 0. -1.
         13    1    6    6    0    0 -0.37634456004E+01 -0.11077059638E+01 -0.64566454481E+01  0.75557812787E+01  0.10500000000E+00 0.  1.
</event>
<event>
11    0  0.3467594E-009  0.9118800E+02  0.7816531E-02  0.1126479E+00
         25   -1    0    0    0    0  0.00000000000E+00  0.00000000000E+00  0.99999998245E-14  0.12500000000E+03  0.12500000000E+03 0.  0.
    3000001    1    3    3    0    0 -0.17144686396E+02  0.48833344510E+02  0.24154298090E+02  0.57123252042E+02  0.10000000000E+01 0. -1.
    1000022    2    1    0    0    0 -0.21278283330E+02  0.51935169863E+02  0.25616834128E+02  0.62500003169E+02  0.10000049758E+02 0.  0.
    3000022    2    3    3    0    0 -0.41335969342E+01  0.31018253532E+01  0.14625360381E+01  0.53767511267E+01  0.24999375810E+00 0.  0.
    1000022    2    1    0    0    0  0.21278283330E+02 -0.51935169863E+02 -0.25616834128E+02  0.62499996831E+02  0.10000010149E+02 0.  0.
    3000022    2    5    5    0    0  0.15952690699E+02 -0.30060233537E+02 -0.11571213250E+02  0.35945256350E+02  0.24999439680E+00 0.  0.
        -13    1    4    4    0    0 -0.26340955776E+01  0.19385914477E+01  0.87234823546E+00  0.33865340330E+01  0.10500000000E+00 0.  1.
         13    1    4    4    0    0 -0.14995013567E+01  0.11632339055E+01  0.59018780260E+00  0.19902170937E+01  0.10500000000E+00 0. -1.
    3000001    1    5    5    0    0  0.53255926306E+01 -0.21874936327E+02 -0.14045620878E+02  0.26554740481E+02  0.10000000000E+01 0.  1.
        -13    1    6    6    0    0  0.11283895388E+02 -0.21238549417E+02 -0.82221832819E+01  0.25416876271E+02  0.10500000000E+00 0.  1.
         13    1    6    6    0    0  0.46687953107E+01 -0.88216841198E+01 -0.33490299678E+01  0.10528380079E+02  0.10500000000E+00 0. -1.
</event>
<event>
11    0  0.3467594E-009  0.9118800E+02  0.7816531E-02  0.1126479E+00
         25   -1    0    0    0    0  0.00000000000E+00  0.00000000000E+00  0.99999998245E-14  0.12500000000E+03  0.12500000000E+03 0.  0.
    3000001    1    3    3    0    0  0.12260702952E+02 -0.17558568695E+02  0.84743411863E+01  0.23053039497E+02  0.10000000000E+01 0. -1.
    1000022    2    1    0    0    0  0.24217279225E+02 -0.54259417395E+02  0.16603854021E+02  0.62500010037E+02  0.10000114863E+02 0.  0.
    3000022    2    3    3    0    0  0.11956576273E+02 -0.36700848699E+02  0.81295128346E+01  0.39446970541E+02  0.24998894705E+00 0.  0.
    1000022    2    1    0    0    0 -0.24217279225E+02  0.54259417395E+02 -0.16603854021E+02  0.62499989963E+02  0.99999893959E+01 0.  0.
    3000022    2    5    5    0    0 -0.11314209421E+02  0.17358491309E+02 -0.93271397482E+01  0.22724141425E+02  0.25002448020E+00 0.  0.
        -13    1    4    4    0    0  0.46104530293E+01 -0.14282892571E+02  0.31133241841E+01  0.15328441206E+02  0.10500000000E+00 0. -1.
         13    1    4    4    0    0  0.73461232436E+01 -0.22417956128E+02  0.50161886504E+01  0.24118529334E+02  0.10500000000E+00 0.  1.
    3000001    1    5    5    0    0 -0.12903069804E+02  0.36900926085E+02 -0.72767142727E+01  0.39775848538E+02  0.10000000000E+01 0. -1.
        -13    1    6    6    0    0 -0.30249987919E+01  0.46702735641E+01 -0.24704092952E+01  0.60890081245E+01  0.10500000000E+00 0.  1.
         13    1    6    6    0    0 -0.82892106294E+01  0.12688217745E+02 -0.68567304530E+01  0.16635133300E+02  0.10500000000E+00 0. -1.
</event>
<event>
11    0  0.3467594E-009  0.9118800E+02  0.7816531E-02  0.1126479E+00
         25   -1    0    0    0    0  0.00000000000E+00  0.00000000000E+00  0.99999998245E-14  0.12500000000E+03  0.12500000000E+03 0.  0.
    3000001    1    3    3    0    0  0.80440210215E+00  0.66844581192E+01  0.41617015274E+01  0.79780199732E+01  0.10000000000E+01 0.  1.
    1000022    2    1    0    0    0 -0.16934490560E+02  0.54518175806E+02  0.23393201420E+02  0.62499996692E+02  0.99999625008E+01 0.  0.
    3000022    2    3    3    0    0 -0.17738892662E+02  0.47833717687E+02  0.19231499893E+02  0.54521976718E+02  0.24999305958E+00 0.  0.
    1000022    2    1    0    0    0  0.16934490560E+02 -0.54518175806E+02 -0.23393201420E+02  0.62500003308E+02  0.10000003856E+02 0.  0.
    3000022    2    5    5    0    0  0.11399663070E+02 -0.30889743810E+02 -0.84912606139E+01  0.34004302691E+02  0.25000773570E+00 0.  0.
        -13    1    4    4    0    0 -0.13225945091E+02  0.35742566361E+02  0.14359105499E+02  0.40726546740E+02  0.10500000000E+00 0.  1.
         13    1    4    4    0    0 -0.45129475716E+01  0.12091151326E+02  0.48723943938E+01  0.13795429979E+02  0.10500000000E+00 0. -1.
    3000001    1    5    5    0    0  0.55348274898E+01 -0.23628431996E+02 -0.14901940806E+02  0.28495700618E+02  0.10000000000E+01 0. -1.
        -13    1    6    6    0    0  0.87207836512E+01 -0.23667407036E+02 -0.65004250563E+01  0.26047356377E+02  0.10500000000E+00 0.  1.
         13    1    6    6    0    0  0.26788794193E+01 -0.72223367744E+01 -0.19908355576E+01  0.79569463140E+01  0.10500000000E+00 0. -1.
</event>
<event>
11    0  0.3467594E-009  0.9118800E+02  0.7816531E-02  0.1126479E+00
         25   -1    0    0    0    0  0.00000000000E+00  0.00000000000E+00  0.99999998245E-14  0.12500000000E+03  0.12500000000E+03 0.  0.
    3000001    1    3    3    0    0 -0.38034568085E+02  0.13367537915E+02  0.10736879802E+02  0.41732481681E+02  0.10000000000E+01 0. -1.
    1000022    2    1    0    0    0 -0.56156387963E+02  0.23485131153E+02  0.10057764566E+02  0.62499998490E+02  0.99999944418E+01 0.  0.
    3000022    2    3    3    0    0 -0.18121819878E+02  0.10117593238E+02 -0.67911523631E+00  0.20767516809E+02  0.25001660018E+00 0.  0.
    1000022    2    1    0    0    0  0.56156387963E+02 -0.23485131153E+02 -0.10057764566E+02  0.62500001510E+02  0.10000013315E+02 0.  0.
    3000022    2    5    5    0    0  0.17990186514E+02 -0.12643199225E+02 -0.40227450746E+01  0.22354916116E+02  0.24999834900E+00 0.  0.
        -13    1    4    4    0    0 -0.12423577962E+02  0.69387713857E+01 -0.51505629495E+00  0.14239668033E+02  0.10500000000E+00 0.  1.
         13    1    4    4    0    0 -0.56982419164E+01  0.31788218525E+01 -0.16405894136E+00  0.65278487761E+01  0.10500000000E+00 0. -1.
    3000001    1    5    5    0    0  0.38166201450E+02 -0.10841931928E+02 -0.60350194914E+01  0.40145085394E+02  0.10000000000E+01 0. -1.
        -13    1    6    6    0    0  0.99705522483E+01 -0.70664620770E+01 -0.21896826354E+01  0.12415817873E+02  0.10500000000E+00 0. -1.
         13    1    6    6    0    0  0.80196342656E+01 -0.55767371479E+01 -0.18330624392E+01  0.99390982426E+01  0.10500000000E+00 0.  1.
</event>
<event>
11    0  0.3467594E-009  0.9118800E+02  0.7816531E-02  0.1126479E+00
         25   -1    0    0    0    0  0.00000000000E+00  0.00000000000E+00  0.99999998245E-14  0.12500000000E+03  0.12500000000E+03 0.  0.
    3000001    1    3    3    0    0 -0.43888320076E+01  0.15223669935E+02  0.38806645009E+01  0.16342629215E+02  0.10000000000E+01 0.  1.
    1000022    2    1    0    0    0 -0.11609045260E+02  0.60589583501E+02 -0.61854315184E+00  0.62500001013E+02  0.99999985140E+01 0.  0.
    3000022    2    3    3    0    0 -0.72202132520E+01  0.45365913566E+02 -0.44992076527E+01  0.46157371798E+02  0.25001741167E+00 0.  0.
    1000022    2    1    0    0    0  0.11609045260E+02 -0.60589583501E+02  0.61854315184E+00  0.62499998987E+02  0.99999858567E+01 0.  0.
    3000022    2    5    5    0    0  0.65928306253E+01 -0.39962667387E+02 -0.41633034108E+01  0.40717020904E+02  0.24999135190E+00 0.  0.
        -13    1    4    4    0    0 -0.27549807723E+01  0.17316807605E+02 -0.17787466026E+01  0.17624888912E+02  0.10500000000E+00 0.  1.
         13    1    4    4    0    0 -0.44652324797E+01  0.28049105961E+02 -0.27204610501E+01  0.28532482886E+02  0.10500000000E+00 0. -1.
    3000001    1    5    5    0    0  0.50162146343E+01 -0.20626916114E+02  0.47818465626E+01  0.21782978084E+02  0.10000000000E+01 0.  1.
        -13    1    6    6    0    0  0.47206729425E+01 -0.28849868736E+02 -0.29972355486E+01  0.29386972029E+02  0.10500000000E+00 0. -1.
         13    1    6    6    0    0  0.18721576828E+01 -0.11112798651E+02 -0.11660678621E+01  0.11330048875E+02  0.10500000000E+00 0.  1.
</event>
<event>
11    0  0.3467594E-009  0.9118800E+02  0.7816531E-02  0.1126479E+00
         25   -1    0    0    0    0  0.00000000000E+00  0.00000000000E+00  0.99999998245E-14  0.12500000000E+03  0.12500000000E+03 0.  0.
    3000001    1    3    3    0    0  0.42100065104E+02  0.24892899164E+02  0.24972810408E+02  0.54924613519E+02  0.10000000000E+01 0. -1.
    1000022    2    1    0    0    0  0.49467409487E+02  0.25530220000E+02  0.26597621885E+02  0.62499998598E+02  0.99999800111E+01 0.  0.
    3000022    2    3    3    0    0  0.73673443830E+01  0.63732083628E+00  0.16248114764E+01  0.75753850789E+01  0.25001130509E+00 0.  0.
    1000022    2    1    0    0    0 -0.49467409487E+02 -0.25530220000E+02 -0.26597621885E+02  0.62500001402E+02  0.99999975390E+01 0.  0.
    3000022    2    5    5    0    0 -0.40794060467E+02 -0.16756445845E+02 -0.19386962126E+02  0.48175207850E+02  0.25000848297E+00 0.  0.
        -13    1    4    4    0    0  0.26670169263E+01  0.27521697768E+00  0.55022694714E+00  0.27390688862E+01  0.10500000000E+00 0.  1.
         13    1    4    4    0    0  0.47003274567E+01  0.36210385860E+00  0.10745845292E+01  0.48363161926E+01  0.10500000000E+00 0. -1.
    3000001    1    5    5    0    0 -0.86733490203E+01 -0.87737741551E+01 -0.72106597585E+01  0.14324793552E+02  0.10000000000E+01 0.  1.
        -13    1    6    6    0    0 -0.10594546107E+02 -0.43793738172E+01 -0.50193305801E+01  0.12515111934E+02  0.10500000000E+00 0.  1.
         13    1    6    6    0    0 -0.30199514359E+02 -0.12377072028E+02 -0.14367631546E+02  0.35660095916E+02  0.10500000000E+00 0. -1.
</event>
<event>
11    0  0.3467594E-009  0.9118800E+02  0.7816531E-02  0.1126479E+00
         25   -1    0    0    0    0  0.00000000000E+00  0.00000000000E+00  0.99999998245E-14  0.12500000000E+03  0.12500000000E+03 0.  0.
    3000001    1    3    3    0    0 -0.30632023590E+02 -0.11609251512E+02 -0.23217075472E+01  0.32855530977E+02  0.10000000000E+01 0. -1.
    1000022    2    1    0    0    0 -0.53547128958E+02 -0.29962203444E+02 -0.64203824738E+01  0.62499999925E+02  0.10000001230E+02 0.  0.
    3000022    2    3    3    0    0 -0.22915105368E+02 -0.18352951932E+02 -0.40986749266E+01  0.29644468947E+02  0.25000870963E+00 0.  0.
    1000022    2    1    0    0    0  0.53547128958E+02  0.29962203444E+02  0.64203824738E+01  0.62500000075E+02  0.10000002174E+02 0.  0.
    3000022    2    5    5    0    0  0.26859232059E+02  0.19013277890E+02 -0.99629751971E-01  0.32908897171E+02  0.25000801212E+00 0.  0.
        -13    1    4    4    0    0 -0.80782784255E+01 -0.64959296507E+01 -0.15010426889E+01  0.10474723791E+02  0.10500000000E+00 0. -1.
         13    1    4    4    0    0 -0.14836826943E+02 -0.11857022281E+02 -0.25976322377E+01  0.19169745156E+02  0.10500000000E+00 0.  1.
    3000001    1    5    5    0    0  0.26687896899E+02  0.10948925554E+02  0.65200122258E+01  0.29591102905E+02  0.10000000000E+01 0.  1.
        -13    1    6    6    0    0  0.13254161998E+02  0.94655148368E+01 -0.48068332647E-01  0.16287483445E+02  0.10500000000E+00 0. -1.
         13    1    6    6    0    0  0.13605070060E+02  0.95477630532E+01 -0.51561419324E-01  0.16621413726E+02  0.10500000000E+00 0.  1.
</event>
<event>
11    0  0.3467594E-009  0.9118800E+02  0.7816531E-02  0.1126479E+00
         25   -1    0    0    0    0  0.00000000000E+00  0.00000000000E+00  0.99999998245E-14  0.12500000000E+03  0.12500000000E+03 0.  0.
    3000001    1    3    3    0    0  0.87310710705E+00  0.10321535176E+01  0.61986652807E+01  0.64227025594E+01  0.10000000000E+01 0. -1.
    1000022    2    1    0    0    0  0.12593663548E+02  0.35372814801E+02  0.48953177835E+02  0.62500000142E+02  0.10000000452E+02 0.  0.
    3000022    2    3    3    0    0  0.11720556441E+02  0.34340661283E+02  0.42754512555E+02  0.56077297582E+02  0.24999938193E+00 0.  0.
    1000022    2    1    0    0    0 -0.12593663548E+02 -0.35372814801E+02 -0.48953177835E+02  0.62499999858E+02  0.99999986792E+01 0.  0.
    3000022    2    5    5    0    0 -0.28467479612E+01 -0.68136087244E+01 -0.17010579518E+02  0.18545930622E+02  0.24997855983E+00 0.  0.
        -13    1    4    4    0    0  0.54223931897E+01  0.15919213976E+02  0.19712903220E+02  0.25912030022E+02  0.10500000000E+00 0.  1.
         13    1    4    4    0    0  0.62981632517E+01  0.18421447308E+02  0.23041609335E+02  0.30165267560E+02  0.10500000000E+00 0. -1.
    3000001    1    5    5    0    0 -0.97469155873E+01 -0.28559206077E+02 -0.31942598317E+02  0.43954069236E+02  0.10000000000E+01 0. -1.
        -13    1    6    6    0    0 -0.17420877044E+01 -0.40417797030E+01 -0.10035936542E+02  0.10959101242E+02  0.10500000000E+00 0. -1.
         13    1    6    6    0    0 -0.11046602569E+01 -0.27718290215E+01 -0.69746429757E+01  0.75868293803E+01  0.10500000000E+00 0.  1.
</event>
<event>
11    0  0.3467594E-009  0.9118800E+02  0.7816531E-02  0.1126479E+00
         25   -1    0    0    0    0  0.00000000000E+00  0.00000000000E+00  0.99999998245E-14  0.12500000000E+03  0.12500000000E+03 0.  0.
    3000001    1    3    3    0    0  0.15808934705E+02 -0.29193868329E+01 -0.52111713168E+00  0.16115731416E+02  0.10000000000E+01 0. -1.
    1000022    2    1    0    0    0  0.55452537191E+02 -0.26390966530E+02 -0.58976968894E+01  0.62499999620E+02  0.10000006432E+02 0.  0.
    3000022    2    3    3    0    0  0.39643602486E+02 -0.23471579697E+02 -0.53765797578E+01  0.46384268205E+02  0.24991093582E+00 0.  0.
    1000022    2    1    0    0    0 -0.55452537191E+02  0.26390966530E+02  0.58976968894E+01  0.62500000380E+02  0.10000011177E+02 0.  0.
    3000022    2    5    5    0    0 -0.64161363059E+00 -0.75693001409E+00 -0.12250004104E+00  0.10305901059E+01  0.24999721840E+00 0.  0.
        -13    1    4    4    0    0  0.21496932388E+02 -0.12792377783E+02 -0.29565079994E+01  0.25189581100E+02  0.10500000000E+00 0. -1.
         13    1    4    4    0    0  0.18146670098E+02 -0.10679201914E+02 -0.24200717583E+01  0.21194687105E+02  0.10500000000E+00 0.  1.
    3000001    1    5    5    0    0 -0.54810923560E+02  0.27147896544E+02  0.60201969305E+01  0.61469410274E+02  0.10000000000E+01 0.  1.
        -13    1    6    6    0    0 -0.15460406324E+00 -0.24667977468E+00 -0.19971484128E-01  0.31012447144E+00  0.10500000000E+00 0. -1.
         13    1    6    6    0    0 -0.48700956735E+00 -0.51025023942E+00 -0.10252855691E+00  0.72046563450E+00  0.10500000000E+00 0.  1.
</event>
<event>
11    0  0.3467594E-009  0.9118800E+02  0.7816531E-02  0.1126479E+00
         25   -1    0    0    0    0  0.00000000000E+00  0.00000000000E+00  0.99999998245E-14  0.12500000000E+03  0.12500000000E+03 0.  0.
    3000001    1    3    3    0    0  0.27994159869E+02 -0.23504539884E+02 -0.22193359790E+02  0.42774777623E+02  0.10000000000E+01 0. -1.
    1000022    2    1    0    0    0  0.44960785077E+02 -0.29385659094E+02 -0.30352272967E+02  0.62499997538E+02  0.10000003143E+02 0.  0.
    3000022    2    3    3    0    0  0.16966625208E+02 -0.58811192105E+01 -0.81589131765E+01  0.19725219915E+02  0.25000471374E+00 0.  0.
    1000022    2    1    0    0    0 -0.44960785077E+02  0.29385659094E+02  0.30352272967E+02  0.62500002462E+02  0.10000033917E+02 0.  0.
    3000022    2    5    5    0    0 -0.37162588580E+02  0.23543623940E+02  0.20254516971E+02  0.48432098585E+02  0.24999477794E+00 0.  0.
        -13    1    4    4    0    0  0.69246373386E+01 -0.23689283631E+01 -0.32633735430E+01  0.80139288580E+01  0.10500000000E+00 0.  1.
         13    1    4    4    0    0  0.10041987869E+02 -0.35121908473E+01 -0.48955396335E+01  0.11711291057E+02  0.10500000000E+00 0. -1.
    3000001    1    5    5    0    0 -0.77981964969E+01  0.58420351545E+01  0.10097755996E+02  0.14067903877E+02  0.10000000000E+01 0. -1.
        -13    1    6    6    0    0 -0.16913374190E+02  0.10731072930E+02  0.92942916602E+01  0.22081961760E+02  0.10500000000E+00 0. -1.
         13    1    6    6    0    0 -0.20249214390E+02  0.12812551010E+02  0.10960225311E+02  0.26350136825E+02  0.10500000000E+00 0.  1.
</event>
<event>
11    0  0.3467594E-009  0.9118800E+02  0.7816531E-02  0.1126479E+00
         25   -1    0    0    0    0  0.00000000000E+00  0.00000000000E+00  0.99999998245E-14  0.12500000000E+03  0.12500000000E+03 0.  0.
    3000001    1    3    3    0    0 -0.31764941806E+02  0.89107294181E+01  0.28411814094E+02  0.43550474244E+02  0.10000000000E+01 0. -1.
    1000022    2    1    0    0    0 -0.41725924994E+02  0.90739370182E+01  0.44529325055E+02  0.62499998801E+02  0.99999955334E+01 0.  0.
    3000022    2    3    3    0    0 -0.99609831873E+01  0.16320760016E+00  0.16117510961E+02  0.18949524557E+02  0.24999719049E+00 0.  0.
    1000022    2    1    0    0    0  0.41725924994E+02 -0.90739370182E+01 -0.44529325055E+02  0.62500001199E+02  0.10000010523E+02 0.  0.
    3000022    2    5    5    0    0  0.18379473570E+02  0.91580823527E+00 -0.20007796944E+02  0.27184889063E+02  0.25000273810E+00 0.  0.
        -13    1    4    4    0    0 -0.63646401080E+01  0.14697358656E+00  0.10373471397E+02  0.12171695804E+02  0.10500000000E+00 0.  1.
         13    1    4    4    0    0 -0.35963430793E+01  0.16234013598E-01  0.57440395642E+01  0.67778287529E+01  0.10500000000E+00 0. -1.
    3000001    1    5    5    0    0  0.23346451424E+02 -0.99897452535E+01 -0.24521528111E+02  0.35315112136E+02  0.10000000000E+01 0. -1.
        -13    1    6    6    0    0  0.89760258898E+01  0.37956806911E+00 -0.97608018901E+01  0.13266400839E+02  0.10500000000E+00 0. -1.
         13    1    6    6    0    0  0.94034476799E+01  0.53624016616E+00 -0.10246995054E+02  0.13918488223E+02  0.10500000000E+00 0.  1.
</event>
<event>
11    0  0.3467594E-009  0.9118800E+02  0.7816531E-02  0.1126479E+00
         25   -1    0    0    0    0  0.00000000000E+00  0.00000000000E+00  0.99999998245E-14  0.12500000000E+03  0.12500000000E+03 0.  0.
    3000001    1    3    3    0    0  0.95945267734E+01 -0.36297960628E+02 -0.59242198342E+01  0.38022273346E+02  0.10000000000E+01 0. -1.
    1000022    2    1    0    0    0  0.20704861234E+02 -0.56173386239E+02 -0.14903338670E+02  0.62500000967E+02  0.10000000854E+02 0.  0.
    3000022    2    3    3    0    0  0.11110334461E+02 -0.19875425612E+02 -0.89791188356E+01  0.24477727621E+02  0.24999874600E+00 0.  0.
    1000022    2    1    0    0    0 -0.20704861234E+02  0.56173386239E+02  0.14903338670E+02  0.62499999033E+02  0.99999887647E+01 0.  0.
    3000022    2    5    5    0    0 -0.10897202346E+01  0.15383115539E+02  0.36372840937E+01  0.15846768427E+02  0.25000026477E+00 0.  0.
        -13    1    4    4    0    0  0.65839738574E+01 -0.11892825681E+02 -0.53284676011E+01  0.14601082371E+02  0.10500000000E+00 0. -1.
         13    1    4    4    0    0  0.45263606033E+01 -0.79825999306E+01 -0.36506512345E+01  0.98766452502E+01  0.10500000000E+00 0.  1.
    3000001    1    5    5    0    0 -0.19615140999E+02  0.40790270700E+02  0.11266054576E+02  0.46653230606E+02  0.10000000000E+01 0. -1.
        -13    1    6    6    0    0 -0.59646952881E+00  0.86419384436E+01  0.21089543865E+01  0.89161420786E+01  0.10500000000E+00 0. -1.
         13    1    6    6    0    0 -0.49325070582E+00  0.67411770955E+01  0.15283297072E+01  0.69306263487E+01  0.10500000000E+00 0.  1.
</event>
<event>
11    0  0.3467594E-009  0.9118800E+02  0.7816531E-02  0.1126479E+00
         25   -1    0    0    0    0  0.00000000000E+00  0.00000000000E+00  0.99999998245E-14  0.12500000000E+03  0.12500000000E+03 0.  0.
    3000001    1    3    3    0    0  0.16224247090E+02 -0.14108912281E+02 -0.26757189027E+02  0.34339987828E+02  0.10000000000E+01 0. -1.
    1000022    2    1    0    0    0  0.21137269945E+02 -0.28151899495E+02 -0.50664941193E+02  0.62500001898E+02  0.10000017258E+02 0.  0.
    3000022    2    3    3    0    0  0.49130228559E+01 -0.14042987214E+02 -0.23907752166E+02  0.28160014070E+02  0.24999061340E+00 0.  0.
    1000022    2    1    0    0    0 -0.21137269945E+02  0.28151899495E+02  0.50664941193E+02  0.62499998102E+02  0.99999935383E+01 0.  0.
    3000022    2    5    5    0    0 -0.96328950286E+01  0.18231051101E+02  0.22760050243E+02  0.30712314732E+02  0.24999654570E+00 0.  0.
        -13    1    4    4    0    0  0.11911279200E+01 -0.33593569963E+01 -0.57071363749E+01  0.67295241847E+01  0.10500000000E+00 0. -1.
         13    1    4    4    0    0  0.37218949360E+01 -0.10683630218E+02 -0.18200615791E+02  0.21430489885E+02  0.10500000000E+00 0.  1.
    3000001    1    5    5    0    0 -0.11504374917E+02  0.99208483936E+01  0.27904890951E+02  0.31787683370E+02  0.10000000000E+01 0.  1.
        -13    1    6    6    0    0 -0.57039025003E+01  0.10661586351E+02  0.13369427160E+02  0.18026550830E+02  0.10500000000E+00 0.  1.
         13    1    6    6    0    0 -0.39289925283E+01  0.75694647509E+01  0.93906230822E+01  0.12685763902E+02  0.10500000000E+00 0. -1.
</event>
<event>
11    0  0.3467594E-009  0.9118800E+02  0.7816531E-02  0.1126479E+00
         25   -1    0    0    0    0  0.00000000000E+00  0.00000000000E+00  0.99999998245E-14  0.12500000000E+03  0.12500000000E+03 0.  0.
    3000001    1    3    3    0    0  0.72633828944E+00  0.38758497222E+02 -0.11025249397E+02  0.40315069124E+02  0.10000000000E+01 0.  1.
    1000022    2    1    0    0    0 -0.26114837945E+01  0.60688187491E+02 -0.10787696025E+02  0.62500003308E+02  0.10000003967E+02 0.  0.
    3000022    2    3    3    0    0 -0.33378220840E+01  0.21929690270E+02  0.23755337235E+00  0.22184934184E+02  0.25000309522E+00 0.  0.
    1000022    2    1    0    0    0  0.26114837945E+01 -0.60688187491E+02  0.10787696025E+02  0.62499996692E+02  0.99999626205E+01 0.  0.
    3000022    2    5    5    0    0  0.60740286443E+01 -0.33271627373E+02  0.42804049152E+01  0.34092219181E+02  0.25006080905E+00 0.  0.
        -13    1    4    4    0    0 -0.15161310125E+01  0.10071598472E+02  0.17403626956E+00  0.10187102761E+02  0.10500000000E+00 0. -1.
         13    1    4    4    0    0 -0.18216910715E+01  0.11858091797E+02  0.63517102792E-01  0.11997831423E+02  0.10500000000E+00 0.  1.
    3000001    1    5    5    0    0 -0.34625448498E+01 -0.27416560118E+02  0.65072911095E+01  0.28407777512E+02  0.10000000000E+01 0. -1.
        -13    1    6    6    0    0  0.15909380640E+01 -0.87786170112E+01  0.10974973421E+01  0.89894786260E+01  0.10500000000E+00 0.  1.
         13    1    6    6    0    0  0.44830905803E+01 -0.24493010362E+02  0.31829075731E+01  0.25102740555E+02  0.10500000000E+00 0. -1.
</event>
<event>
11    0  0.3467594E-009  0.9118800E+02  0.7816531E-02  0.1126479E+00
         25   -1    0    0    0    0  0.00000000000E+00  0.00000000000E+00  0.99999998245E-14  0.12500000000E+03  0.12500000000E+03 0.  0.
    3000001    1    3    3    0    0 -0.16971181825E+02  0.41278594258E+02 -0.36508179256E+02  0.57669667149E+02  0.10000000000E+01 0.  1.
    1000022    2    1    0    0    0 -0.16028455823E+02  0.43541964435E+02 -0.40662459192E+02  0.62499999559E+02  0.10000014723E+02 0.  0.
    3000022    2    3    3    0    0  0.94272600157E+00  0.22633701762E+01 -0.41542799364E+01  0.48303324107E+01  0.24998507710E+00 0.  0.
    1000022    2    1    0    0    0  0.16028455823E+02 -0.43541964435E+02  0.40662459192E+02  0.62500000441E+02  0.10000020231E+02 0.  0.
    3000022    2    5    5    0    0  0.12341451683E+02 -0.22834468583E+02  0.18142878916E+02  0.31669400710E+02  0.25000164035E+00 0.  0.
        -13    1    4    4    0    0  0.65088974398E+00  0.14232636137E+01 -0.26900874403E+01  0.31139897574E+01  0.10500000000E+00 0. -1.
         13    1    4    4    0    0  0.29183625759E+00  0.84010656258E+00 -0.14641924961E+01  0.17163426532E+01  0.10500000000E+00 0.  1.
    3000001    1    5    5    0    0  0.36870041404E+01 -0.20707495851E+02  0.22519580276E+02  0.30830599731E+02  0.10000000000E+01 0.  1.
        -13    1    6    6    0    0  0.64118852435E+01 -0.11993937672E+02  0.95387711244E+01  0.16612224198E+02  0.10500000000E+00 0. -1.
         13    1    6    6    0    0  0.59295664391E+01 -0.10840530912E+02  0.86041077918E+01  0.15057176511E+02  0.10500000000E+00 0.  1.
</event>
<event>
11    0  0.3467594E-009  0.9118800E+02  0.7816531E-02  0.1126479E+00
         25   -1    0    0    0    0  0.00000000000E+00  0.00000000000E+00  0.99999998245E-14  0.12500000000E+03  0.12500000000E+03 0.  0.
    3000001    1    3    3    0    0 -0.20408488033E+02 -0.42403298175E-01  0.49006630174E+02  0.53095743547E+02  0.10000000000E+01 0.  1.
    1000022    2    1    0    0    0 -0.25817892720E+02 -0.33853503434E+01  0.55930544580E+02  0.62499999990E+02  0.10000000016E+02 0.  0.
    3000022    2    3    3    0    0 -0.54094046874E+01 -0.33429470452E+01  0.69239144061E+01  0.94042564432E+01  0.24998905334E+00 0.  0.
    1000022    2    1    0    0    0  0.25817892720E+02  0.33853503434E+01 -0.55930544580E+02  0.62500000010E+02  0.10000000136E+02 0.  0.
    3000022    2    5    5    0    0  0.68337079698E+01  0.54264345582E+01 -0.19185316364E+02  0.21078060267E+02  0.25000798255E+00 0.  0.
        -13    1    4    4    0    0 -0.30471825418E+01 -0.18292431756E+01  0.39394437723E+01  0.53067593005E+01  0.10500000000E+00 0. -1.
         13    1    4    4    0    0 -0.23622221456E+01 -0.15137038696E+01  0.29844706338E+01  0.40974971427E+01  0.10500000000E+00 0.  1.
    3000001    1    5    5    0    0  0.18984184750E+02 -0.20410842149E+01 -0.36745228216E+02  0.41421939743E+02  0.10000000000E+01 0. -1.
        -13    1    6    6    0    0  0.26721466961E+01  0.20441307495E+01 -0.74184654635E+01  0.81463791539E+01  0.10500000000E+00 0. -1.
         13    1    6    6    0    0  0.41615612738E+01  0.33823038088E+01 -0.11766850900E+02  0.12931681113E+02  0.10500000000E+00 0.  1.
</event>
<event>
11    0  0.3467594E-009  0.9118800E+02  0.7816531E-02  0.1126479E+00
         25   -1    0    0    0    0  0.00000000000E+00  0.00000000000E+00  0.99999998245E-14  0.12500000000E+03  0.12500000000E+03 0.  0.
    3000001    1    3    3    0    0  0.10845709780E+02  0.64578665946E+01  0.14285190002E+02  0.19089267010E+02  0.10000000000E+01 0.  1.
    1000022    2    1    0    0    0  0.43893108233E+02  0.97900148172E+01  0.42235063520E+02  0.62499999415E+02  0.99999997943E+01 0.  0.
    3000022    2    3    3    0    0  0.33047398453E+02  0.33321482226E+01  0.27949873519E+02  0.43410732405E+02  0.25000399638E+00 0.  0.
    1000022    2    1    0    0    0 -0.43893108233E+02 -0.97900148172E+01 -0.42235063520E+02  0.62500000585E+02  0.10000007105E+02 0.  0.
    3000022    2    5    5    0    0 -0.21124379320E+02 -0.78094776845E+01 -0.26269378616E+02  0.34603035910E+02  0.24999584741E+00 0.  0.
        -13    1    4    4    0    0  0.14889906951E+02  0.14568151208E+01  0.12524332656E+02  0.19511575353E+02  0.10500000000E+00 0. -1.
         13    1    4    4    0    0  0.18157491502E+02  0.18753331018E+01  0.15425540863E+02  0.23899157052E+02  0.10500000000E+00 0.  1.
    3000001    1    5    5    0    0 -0.22768728913E+02 -0.19805371327E+01 -0.15965684904E+02  0.27896964675E+02  0.10000000000E+01 0.  1.
        -13    1    6    6    0    0 -0.81350790472E+01 -0.30698530201E+01 -0.10171329964E+02  0.13381722120E+02  0.10500000000E+00 0.  1.
         13    1    6    6    0    0 -0.12989300273E+02 -0.47396246644E+01 -0.16098048652E+02  0.21221313789E+02  0.10500000000E+00 0. -1.
</event>
<event>
11    0  0.3467594E-009  0.9118800E+02  0.7816531E-02  0.1126479E+00
         25   -1    0    0    0    0  0.00000000000E+00  0.00000000000E+00  0.99999998245E-14  0.12500000000E+03  0.12500000000E+03 0.  0.
    3000001    1    3    3    0    0 -0.24896848241E+02 -0.34594249054E+02 -0.21193655648E+02  0.47610777768E+02  0.10000000000E+01 0. -1.
    1000022    2    1    0    0    0 -0.31440166025E+02 -0.47844778757E+02 -0.22992239056E+02  0.62500000301E+02  0.10000004343E+02 0.  0.
    3000022    2    3    3    0    0 -0.65433177838E+01 -0.13250529703E+02 -0.17985834082E+01  0.14889222533E+02  0.25000067741E+00 0.  0.
    1000022    2    1    0    0    0  0.31440166025E+02  0.47844778757E+02  0.22992239056E+02  0.62499999699E+02  0.10000000581E+02 0.  0.
    3000022    2    5    5    0    0  0.28181381167E+02  0.45850777336E+02  0.23056354476E+02  0.58550337536E+02  0.25003409255E+00 0.  0.
        -13    1    4    4    0    0 -0.30373822312E+01 -0.61508920026E+01 -0.90264591852E+00  0.69198958012E+01  0.10500000000E+00 0. -1.
         13    1    4    4    0    0 -0.35059355527E+01 -0.70996377002E+01 -0.89593748969E+00  0.79693267318E+01  0.10500000000E+00 0.  1.
    3000001    1    5    5    0    0  0.32587848578E+01  0.19940014210E+01 -0.64115420425E-01  0.39496621632E+01  0.10000000000E+01 0. -1.
        -13    1    6    6    0    0  0.13921801499E+02  0.22586956613E+02  0.11431046098E+02  0.28890604111E+02  0.10500000000E+00 0.  1.
         13    1    6    6    0    0  0.14259579668E+02  0.23263820723E+02  0.11625308378E+02  0.29659733425E+02  0.10500000000E+00 0. -1.
</event>
<event>
11    0  0.3467594E-009  0.9118800E+02  0.7816531E-02  0.1126479E+00
         25   -1    0    0    0    0  0.00000000000E+00  0.00000000000E+00  0.99999998245E-14  0.12500000000E+03  0.12500000000E+03 0.  0.
    3000001    1    3    3    0    0  0.32389472900E+02 -0.44632127916E+02 -0.30473484322E+01  0.55239398345E+02  0.10000000000E+01 0.  1.
    1000022    2    1    0    0    0  0.33369463406E+02 -0.51713991651E+02 -0.42885846425E+01  0.62500000050E+02  0.10000001378E+02 0.  0.
    3000022    2    3    3    0    0  0.97999050563E+00 -0.70818637345E+01 -0.12412362103E+01  0.72606017046E+01  0.24998887695E+00 0.  0.
    1000022    2    1    0    0    0 -0.33369463406E+02  0.51713991651E+02  0.42885846425E+01  0.62499999950E+02  0.10000000756E+02 0.  0.
    3000022    2    5    5    0    0 -0.22039049046E+02  0.33276859188E+02 -0.19329908437E+01  0.39960830832E+02  0.25001382897E+00 0.  0.
        -13    1    4    4    0    0  0.57114950637E+00 -0.37640493511E+01 -0.61489191503E+00  0.38579005098E+01  0.10500000000E+00 0.  1.
         13    1    4    4    0    0  0.40884099926E+00 -0.33178143834E+01 -0.62634429523E+00  0.34027011948E+01  0.10500000000E+00 0. -1.
    3000001    1    5    5    0    0 -0.11330414359E+02  0.18437132463E+02  0.62215754862E+01  0.22539169118E+02  0.10000000000E+01 0.  1.
        -13    1    6    6    0    0 -0.98187394975E+01  0.14710082935E+02 -0.83785606237E+00  0.17706134899E+02  0.10500000000E+00 0. -1.
         13    1    6    6    0    0 -0.12220309549E+02  0.18566776253E+02 -0.10951347813E+01  0.22254695933E+02  0.10500000000E+00 0.  1.
</event>
<event>
11    0  0.3467594E-009  0.9118800E+02  0.7816531E-02  0.1126479E+00
         25   -1    0    0    0    0  0.00000000000E+00  0.00000000000E+00  0.99999998245E-14  0.12500000000E+03  0.12500000000E+03 0.  0.
    3000001    1    3    3    0    0 -0.35333522303E+01  0.14735737281E+02 -0.63107105180E+01  0.16445412687E+02  0.10000000000E+01 0. -1.
    1000022    2    1    0    0    0 -0.26722562795E+02  0.53638605147E+02 -0.14664745107E+02  0.62499999923E+02  0.99999958423E+01 0.  0.
    3000022    2    3    3    0    0 -0.23189210564E+02  0.38902867866E+02 -0.83540345891E+01  0.46054587236E+02  0.24999349509E+00 0.  0.
    1000022    2    1    0    0    0  0.26722562795E+02 -0.53638605147E+02  0.14664745107E+02  0.62500000077E+02  0.99999968077E+01 0.  0.
    3000022    2    5    5    0    0  0.12074388504E+02 -0.23085581826E+02  0.11422095270E+02  0.28447525540E+02  0.25000606768E+00 0.  0.
        -13    1    4    4    0    0 -0.86505618322E+01  0.14508479596E+02 -0.31767161691E+01  0.17188099104E+02  0.10500000000E+00 0.  1.
         13    1    4    4    0    0 -0.14538648732E+02  0.24394388270E+02 -0.51773184200E+01  0.28866488131E+02  0.10500000000E+00 0. -1.
    3000001    1    5    5    0    0  0.14648174290E+02 -0.30553023321E+02  0.32426498375E+01  0.34052474537E+02  0.10000000000E+01 0. -1.
        -13    1    6    6    0    0  0.30223270983E+01 -0.58109705047E+01  0.28471971226E+01  0.71427862736E+01  0.10500000000E+00 0.  1.
         13    1    6    6    0    0  0.90520614061E+01 -0.17274611321E+02  0.85748981471E+01  0.21304739267E+02  0.10500000000E+00 0. -1.
</event>
<event>
11    0  0.3467594E-009  0.9118800E+02  0.7816531E-02  0.1126479E+00
         25   -1    0    0    0    0  0.00000000000E+00  0.00000000000E+00  0.99999998245E-14  0.12500000000E+03  0.12500000000E+03 0.  0.
    3000001    1    3    3    0    0  0.20456597983E+02 -0.20960014197E+01 -0.26371327634E+01  0.20756206113E+02  0.10000000000E+01 0. -1.
    1000022    2    1    0    0    0  0.57317465080E+02 -0.90997461867E+01 -0.20932100524E+02  0.62499999797E+02  0.99999979172E+01 0.  0.
    3000022    2    3    3    0    0  0.36860867097E+02 -0.70037447670E+01 -0.18294967761E+02  0.41743793683E+02  0.25000364237E+00 0.  0.
    1000022    2    1    0    0    0 -0.57317465080E+02  0.90997461867E+01  0.20932100524E+02  0.62500000203E+02  0.10000000461E+02 0.  0.
    3000022    2    5    5    0    0  0.14705998904E+00 -0.33196150484E+00 -0.27226836321E+00  0.51811566201E+00  0.24997739206E+00 0.  0.
        -13    1    4    4    0    0  0.23859422047E+02 -0.45505335413E+01 -0.11903994423E+02  0.27049870316E+02  0.10500000000E+00 0.  1.
         13    1    4    4    0    0  0.13001445050E+02 -0.24532112258E+01 -0.63909733376E+01  0.14693923367E+02  0.10500000000E+00 0. -1.
    3000001    1    5    5    0    0 -0.57464525069E+02  0.94317076915E+01  0.21204368888E+02  0.61981884541E+02  0.10000000000E+01 0.  1.
        -13    1    6    6    0    0 -0.33854771682E-02 -0.13430855570E+00 -0.11892539870E+00  0.20789059634E+00  0.10500000000E+00 0.  1.
         13    1    6    6    0    0  0.15044546621E+00 -0.19765294914E+00 -0.15334296451E+00  0.31022506567E+00  0.10500000000E+00 0. -1.
</event>
<event>
11    0  0.3467594E-009  0.9118800E+02  0.7816531E-02  0.1126479E+00
         25   -1    0    0    0    0  0.00000000000E+00  0.00000000000E+00  0.99999998245E-14  0.12500000000E+03  0.12500000000E+03 0.  0.
    3000001    1    3    3    0    0 -0.16653308707E+02  0.22523379386E+02  0.47161141418E+02  0.54861722264E+02  0.10000000000E+01 0.  1.
    1000022    2    1    0    0    0 -0.22030927609E+02  0.24102440994E+02  0.52344632546E+02  0.62500000809E+02  0.10000005576E+02 0.  0.
    3000022    2    3    3    0    0 -0.53776189012E+01  0.15790616080E+01  0.51834911276E+01  0.76382785447E+01  0.24999649595E+00 0.  0.
    1000022    2    1    0    0    0  0.22030927609E+02 -0.24102440994E+02 -0.52344632546E+02  0.62499999191E+02  0.99999954699E+01 0.  0.
    3000022    2    5    5    0    0  0.20566926145E+02 -0.24133021431E+02 -0.51626729045E+02  0.60586985630E+02  0.25000294183E+00 0.  0.
        -13    1    4    4    0    0 -0.27802509748E+01  0.87408134279E+00  0.27476188556E+01  0.40067752685E+01  0.10500000000E+00 0. -1.
         13    1    4    4    0    0 -0.25973679264E+01  0.70498026522E+00  0.24358722720E+01  0.36315032762E+01  0.10500000000E+00 0.  1.
    3000001    1    5    5    0    0  0.14640014639E+01  0.30580436103E-01 -0.71790350101E+00  0.19130135614E+01  0.10000000000E+01 0.  1.
        -13    1    6    6    0    0  0.13431938304E+02 -0.15725557904E+02 -0.33574404338E+02  0.39433003812E+02  0.10500000000E+00 0.  1.
         13    1    6    6    0    0  0.71349878411E+01 -0.84074635266E+01 -0.18052324706E+02  0.21153981818E+02  0.10500000000E+00 0. -1.
</event>
<event>
11    0  0.3467594E-009  0.9118800E+02  0.7816531E-02  0.1126479E+00
         25   -1    0    0    0    0  0.00000000000E+00  0.00000000000E+00  0.99999998245E-14  0.12500000000E+03  0.12500000000E+03 0.  0.
    3000001    1    3    3    0    0  0.67930048020E+01 -0.14263289360E+02  0.16316028070E+02  0.22733215998E+02  0.10000000000E+01 0. -1.
    1000022    2    1    0    0    0  0.25798014701E+02 -0.28783102721E+02  0.48085812972E+02  0.62499999303E+02  0.99999969488E+01 0.  0.
    3000022    2    3    3    0    0  0.19005009899E+02 -0.14519813361E+02  0.31769784901E+02  0.39766783305E+02  0.24988091255E+00 0.  0.
    1000022    2    1    0    0    0 -0.25798014701E+02  0.28783102721E+02 -0.48085812972E+02  0.62500000697E+02  0.10000005660E+02 0.  0.
    3000022    2    5    5    0    0 -0.98333913755E+01  0.15135744063E+02 -0.28674372803E+02  0.33883159402E+02  0.25000227250E+00 0.  0.
        -13    1    4    4    0    0  0.10363605221E+02 -0.78576960110E+01  0.17353467083E+02  0.21686436880E+02  0.10500000000E+00 0.  1.
         13    1    4    4    0    0  0.86414046786E+01 -0.66621173499E+01  0.14416317819E+02  0.18080346425E+02  0.10500000000E+00 0. -1.
    3000001    1    5    5    0    0 -0.15964623326E+02  0.13647358658E+02 -0.19411440168E+02  0.28616841295E+02  0.10000000000E+01 0. -1.
        -13    1    6    6    0    0 -0.40678310310E+01  0.63199485533E+01 -0.12045708688E+02  0.14198560554E+02  0.10500000000E+00 0.  1.
         13    1    6    6    0    0 -0.57655603445E+01  0.88157955096E+01 -0.16628664115E+02  0.19684598848E+02  0.10500000000E+00 0. -1.
</event>
<event>
11    0  0.3467594E-009  0.9118800E+02  0.7816531E-02  0.1126479E+00
         25   -1    0    0    0    0  0.00000000000E+00  0.00000000000E+00  0.99999998245E-14  0.12500000000E+03  0.12500000000E+03 0.  0.
    3000001    1    3    3    0    0  0.18644070334E+01  0.21521545609E+02  0.56062025466E+02  0.60088298681E+02  0.10000000000E+01 0.  1.
    1000022    2    1    0    0    0  0.32160885110E+01  0.23231712491E+02  0.57063071294E+02  0.62499999209E+02  0.10000005255E+02 0.  0.
    3000022    2    3    3    0    0  0.13516814776E+01  0.17101668828E+01  0.10010458274E+01  0.24117005286E+01  0.24998621363E+00 0.  0.
    1000022    2    1    0    0    0 -0.32160885110E+01 -0.23231712491E+02 -0.57063071294E+02  0.62500000791E+02  0.10000015137E+02 0.  0.
    3000022    2    5    5    0    0 -0.20173737320E+01 -0.21928427856E+02 -0.56064083715E+02  0.60234290274E+02  0.24999394624E+00 0.  0.
        -13    1    4    4    0    0  0.34689151132E+00  0.42638195492E+00  0.28569141773E+00  0.62831511065E+00  0.10500000000E+00 0.  1.
         13    1    4    4    0    0  0.10047899662E+01  0.12837849279E+01  0.71535440969E+00  0.17833854179E+01  0.10500000000E+00 0. -1.
    3000001    1    5    5    0    0 -0.11987147790E+01 -0.13032846352E+01 -0.99898757832E+00  0.22657105163E+01  0.10000000000E+01 0.  1.
        -13    1    6    6    0    0 -0.92497058209E+00 -0.94942250872E+01 -0.24398622721E+02  0.26197322311E+02  0.10500000000E+00 0. -1.
         13    1    6    6    0    0 -0.10924031499E+01 -0.12434202769E+02 -0.31665460995E+02  0.34036967963E+02  0.10500000000E+00 0.  1.
</event>
<event>
11    0  0.3467594E-009  0.9118800E+02  0.7816531E-02  0.1126479E+00
         25   -1    0    0    0    0  0.00000000000E+00  0.00000000000E+00  0.99999998245E-14  0.12500000000E+03  0.12500000000E+03 0.  0.
    3000001    1    3    3    0    0  0.10121497402E+02 -0.16288374556E+02  0.13146836961E+02  0.23272197520E+02  0.10000000000E+01 0. -1.
    1000022    2    1    0    0    0  0.32783102604E+02 -0.46375118956E+02  0.24101182160E+02  0.62500003046E+02  0.99999962305E+01 0.  0.
    3000022    2    3    3    0    0  0.22661605202E+02 -0.30086744401E+02  0.10954345199E+02  0.39227805526E+02  0.25001729348E+00 0.  0.
    1000022    2    1    0    0    0 -0.32783102604E+02  0.46375118956E+02 -0.24101182160E+02  0.62499996954E+02  0.99999581612E+01 0.  0.
    3000022    2    5    5    0    0 -0.33080585182E+02  0.43961353759E+02 -0.22664305263E+02  0.59503436672E+02  0.25000472941E+00 0.  0.
        -13    1    4    4    0    0  0.82730222184E+01 -0.10966570394E+02  0.40554573971E+01  0.14323628121E+02  0.10500000000E+00 0. -1.
         13    1    4    4    0    0  0.14388582984E+02 -0.19120174006E+02  0.68988878018E+01  0.24904177405E+02  0.10500000000E+00 0.  1.
    3000001    1    5    5    0    0  0.29748257775E+00  0.24137651971E+01 -0.14368768973E+01  0.29965602829E+01  0.10000000000E+01 0.  1.
        -13    1    6    6    0    0 -0.15796590099E+02  0.21101266194E+02 -0.10876746535E+02  0.28515089583E+02  0.10500000000E+00 0. -1.
         13    1    6    6    0    0 -0.17283995083E+02  0.22860087565E+02 -0.11787558728E+02  0.30988347088E+02  0.10500000000E+00 0.  1.
</event>
<event>
11    0  0.3467594E-009  0.9118800E+02  0.7816531E-02  0.1126479E+00
         25   -1    0    0    0    0  0.00000000000E+00  0.00000000000E+00  0.99999998245E-14  0.12500000000E+03  0.12500000000E+03 0.  0.
    3000001    1    3    3    0    0  0.15457820760E+02  0.59738841820E+00 -0.38155174431E+02  0.41183958424E+02  0.10000000000E+01 0.  1.
    1000022    2    1    0    0    0  0.20136419829E+02 -0.54033681902E+01 -0.58065291403E+02  0.62499999951E+02  0.10000006840E+02 0.  0.
    3000022    2    3    3    0    0  0.46785990686E+01 -0.60007566084E+01 -0.19910116972E+02  0.21316041527E+02  0.24999885857E+00 0.  0.
    1000022    2    1    0    0    0 -0.20136419829E+02  0.54033681902E+01  0.58065291403E+02  0.62500000049E+02  0.10000007452E+02 0.  0.
    3000022    2    5    5    0    0 -0.16046648492E+02  0.78326455312E+01  0.49877608224E+02  0.52978142361E+02  0.25000404110E+00 0.  0.
        -13    1    4    4    0    0  0.35185644222E+01 -0.45215452419E+01 -0.14918663930E+02  0.15981308627E+02  0.10500000000E+00 0.  1.
         13    1    4    4    0    0  0.11600346464E+01 -0.14792113665E+01 -0.49914530417E+01  0.53347329001E+01  0.10500000000E+00 0. -1.
    3000001    1    5    5    0    0 -0.40897713368E+01 -0.24292773410E+01  0.81876831797E+01  0.95218576884E+01  0.10000000000E+01 0. -1.
        -13    1    6    6    0    0 -0.87039123830E+01  0.42411394629E+01  0.26847013522E+02  0.28539770755E+02  0.10500000000E+00 0.  1.
         13    1    6    6    0    0 -0.73427361091E+01  0.35915060683E+01  0.23030594701E+02  0.24438371605E+02  0.10500000000E+00 0. -1.
</event>
<event>
11    0  0.3467594E-009  0.9118800E+02  0.7816531E-02  0.1126479E+00
         25   -1    0    0    0    0  0.00000000000E+00  0.00000000000E+00  0.99999998245E-14  0.12500000000E+03  0.12500000000E+03 0.  0.
    3000001    1    3    3    0    0 -0.27204808130E+02  0.43097525094E+02  0.15134651255E+02  0.53174767731E+02  0.10000000000E+01 0. -1.
    1000022    2    1    0    0    0 -0.34215969869E+02  0.47539290199E+02  0.19378678835E+02  0.62499998698E+02  0.99999968635E+01 0.  0.
    3000022    2    3    3    0    0 -0.70111617390E+01  0.44417651045E+01  0.42440275798E+01  0.93252309676E+01  0.24999265349E+00 0.  0.
    1000022    2    1    0    0    0  0.34215969869E+02 -0.47539290199E+02 -0.19378678835E+02  0.62500001302E+02  0.10000013134E+02 0.  0.
    3000022    2    5    5    0    0  0.14478677977E+02 -0.12618356810E+02 -0.46974693158E+01  0.19773309494E+02  0.25001159475E+00 0.  0.
        -13    1    4    4    0    0 -0.31757362231E+01  0.19989458062E+01  0.18450356968E+01  0.41828538843E+01  0.10500000000E+00 0.  1.
         13    1    4    4    0    0 -0.38354255159E+01  0.24428192983E+01  0.23989918830E+01  0.51423770833E+01  0.10500000000E+00 0. -1.
    3000001    1    5    5    0    0  0.19737291891E+02 -0.34920933388E+02 -0.14681209519E+02  0.42726691808E+02  0.10000000000E+01 0.  1.
        -13    1    6    6    0    0  0.56027587014E+01 -0.48016991427E+01 -0.18004405668E+01  0.75960404789E+01  0.10500000000E+00 0.  1.
         13    1    6    6    0    0  0.88759192758E+01 -0.78166576678E+01 -0.28970287490E+01  0.12177269015E+02  0.10500000000E+00 0. -1.
</event>
<event>
11    0  0.3467594E-009  0.9118800E+02  0.7816531E-02  0.1126479E+00
         25   -1    0    0    0    0  0.00000000000E+00  0.00000000000E+00  0.99999998245E-14  0.12500000000E+03  0.12500000000E+03 0.  0.
    3000001    1    3    3    0    0 -0.78140236632E+00 -0.17119996305E+01  0.18577849701E+00  0.21391694750E+01  0.10000000000E+01 0.  1.
    1000022    2    1    0    0    0 -0.12440345954E+02 -0.47051743999E+02 -0.37915977980E+02  0.62499998877E+02  0.99999826337E+01 0.  0.
    3000022    2    3    3    0    0 -0.11658943588E+02 -0.45339744369E+02 -0.38101756477E+02  0.60360829402E+02  0.24998902225E+00 0.  0.
    1000022    2    1    0    0    0  0.12440345954E+02  0.47051743999E+02  0.37915977980E+02  0.62500001123E+02  0.99999966705E+01 0.  0.
    3000022    2    5    5    0    0  0.75122482244E+01  0.38179629281E+02  0.33655424569E+02  0.51447721622E+02  0.24998351615E+00 0.  0.
        -13    1    4    4    0    0 -0.48906574793E+01 -0.19199108363E+02 -0.16064162098E+02  0.25506717182E+02  0.10500000000E+00 0. -1.
         13    1    4    4    0    0 -0.67682861083E+01 -0.26140636006E+02 -0.22037594378E+02  0.34854112220E+02  0.10500000000E+00 0.  1.
    3000001    1    5    5    0    0  0.49280977295E+01  0.88721147181E+01  0.42605534108E+01  0.11052279501E+02  0.10000000000E+01 0. -1.
        -13    1    6    6    0    0  0.47889671770E+01  0.24635089254E+02  0.21700267762E+02  0.33177318685E+02  0.10500000000E+00 0. -1.
         13    1    6    6    0    0  0.27232810474E+01  0.13544540027E+02  0.11955156806E+02  0.18270402937E+02  0.10500000000E+00 0.  1.
</event>
<event>
11    0  0.3467594E-009  0.9118800E+02  0.7816531E-02  0.1126479E+00
         25   -1    0    0    0    0  0.00000000000E+00  0.00000000000E+00  0.99999998245E-14  0.12500000000E+03  0.12500000000E+03 0.  0.
    3000001    1    3    3    0    0 -0.96699042848E+01  0.24001682797E+02 -0.25235439144E+02  0.36158197062E+02  0.10000000000E+01 0.  1.
    1000022    2    1    0    0    0 -0.95376624376E+01  0.38686166649E+02 -0.47102684946E+02  0.62499998444E+02  0.10000019076E+02 0.  0.
    3000022    2    3    3    0    0  0.13224184714E+00  0.14684483852E+02 -0.21867245802E+02  0.26341801382E+02  0.25001430736E+00 0.  0.
    1000022    2    1    0    0    0  0.95376624376E+01 -0.38686166649E+02  0.47102684946E+02  0.62500001556E+02  0.10000038532E+02 0.  0.
    3000022    2    5    5    0    0 -0.14339854669E+01 -0.11930746062E+02  0.16113101104E+02  0.20102078314E+02  0.25001890912E+00 0.  0.
        -13    1    4    4    0    0  0.62484876897E-01  0.89928291527E+01 -0.13284964184E+02  0.16042947949E+02  0.10500000000E+00 0. -1.
         13    1    4    4    0    0  0.69756970241E-01  0.56916546991E+01 -0.85822816179E+01  0.10298853432E+02  0.10500000000E+00 0.  1.
    3000001    1    5    5    0    0  0.10971647905E+02 -0.26755420587E+02  0.30989583842E+02  0.42397923242E+02  0.10000000000E+01 0.  1.
        -13    1    6    6    0    0 -0.47042722890E+00 -0.35803041613E+01  0.48817017581E+01  0.60730483878E+01  0.10500000000E+00 0.  1.
         13    1    6    6    0    0 -0.96355823799E+00 -0.83504419010E+01  0.11231399346E+02  0.14029029926E+02  0.10500000000E+00 0. -1.
</event>
<event>
11    0  0.3467594E-009  0.9118800E+02  0.7816531E-02  0.1126479E+00
         25   -1    0    0    0    0  0.00000000000E+00  0.00000000000E+00  0.99999998245E-14  0.12500000000E+03  0.12500000000E+03 0.  0.
    3000001    1    3    3    0    0  0.39096989594E+02 -0.20579946875E+02 -0.11283209958E+02  0.45611617332E+02  0.10000000000E+01 0. -1.
    1000022    2    1    0    0    0  0.55299877779E+02 -0.22419935516E+02 -0.15669077506E+02  0.62499999496E+02  0.99999978093E+01 0.  0.
    3000022    2    3    3    0    0  0.16202888185E+02 -0.18399886416E+01 -0.43858675478E+01  0.16888382164E+02  0.24994846470E+00 0.  0.
    1000022    2    1    0    0    0 -0.55299877779E+02  0.22419935516E+02  0.15669077506E+02  0.62500000504E+02  0.10000004108E+02 0.  0.
    3000022    2    5    5    0    0 -0.22977018173E+02  0.14420289255E+02  0.84468281492E+01  0.28413016490E+02  0.24998789175E+00 0.  0.
        -13    1    4    4    0    0  0.93489606270E+01 -0.11206339212E+01 -0.25613565047E+01  0.97586093955E+01  0.10500000000E+00 0.  1.
         13    1    4    4    0    0  0.68539275578E+01 -0.71935472040E+00 -0.18245110431E+01  0.71297727683E+01  0.10500000000E+00 0. -1.
    3000001    1    5    5    0    0 -0.32322859606E+02  0.79996462617E+01  0.72222493568E+01  0.34086984014E+02  0.10000000000E+01 0. -1.
        -13    1    6    6    0    0 -0.14095057560E+02  0.87804339466E+01  0.51424448765E+01  0.17384545787E+02  0.10500000000E+00 0. -1.
         13    1    6    6    0    0 -0.88819606136E+01  0.56398553081E+01  0.33043832727E+01  0.11028470703E+02  0.10500000000E+00 0.  1.
</event>
<event>
11    0  0.3467594E-009  0.9118800E+02  0.7816531E-02  0.1126479E+00
         25   -1    0    0    0    0  0.00000000000E+00  0.00000000000E+00  0.99999998245E-14  0.12500000000E+03  0.12500000000E+03 0.  0.
    3000001    1    3    3    0    0 -0.12763982733E+01  0.19440531468E+02  0.47008362998E+02  0.50895477677E+02  0.10000000000E+01 0.  1.
    1000022    2    1    0    0    0 -0.26611987895E+01  0.27651813102E+02  0.55086706321E+02  0.62500000488E+02  0.10000005041E+02 0.  0.
    3000022    2    3    3    0    0 -0.13848005162E+01  0.82112816338E+01  0.80783433237E+01  0.11604522810E+02  0.25000051381E+00 0.  0.
    1000022    2    1    0    0    0  0.26611987895E+01 -0.27651813102E+02 -0.55086706321E+02  0.62499999512E+02  0.99999989453E+01 0.  0.
    3000022    2    5    5    0    0  0.54481599119E+01 -0.22348100120E+02 -0.47533507692E+02  0.52807356259E+02  0.24999245819E+00 0.  0.
        -13    1    4    4    0    0 -0.89310559638E+00  0.50365716038E+01  0.50224060773E+01  0.71693987845E+01  0.10500000000E+00 0. -1.
         13    1    4    4    0    0 -0.49169491982E+00  0.31747100300E+01  0.30559372465E+01  0.44351240257E+01  0.10500000000E+00 0.  1.
    3000001    1    5    5    0    0 -0.27869611224E+01 -0.53037129819E+01 -0.75531986294E+01  0.96926432529E+01  0.10000000000E+01 0. -1.
        -13    1    6    6    0    0  0.34047433015E+01 -0.14094646057E+02 -0.29845394931E+02  0.33181469949E+02  0.10500000000E+00 0.  1.
         13    1    6    6    0    0  0.20434166104E+01 -0.82534540628E+01 -0.17688112761E+02  0.19625886310E+02  0.10500000000E+00 0. -1.
</event>
<event>
11    0  0.3467594E-009  0.9118800E+02  0.7816531E-02  0.1126479E+00
         25   -1    0    0    0    0  0.00000000000E+00  0.00000000000E+00  0.99999998245E-14  0.12500000000E+03  0.12500000000E+03 0.  0.
    3000001    1    3    3    0    0 -0.44899777993E+01  0.24775514844E+02  0.14172826121E+02  0.28911157650E+02  0.10000000000E+01 0.  1.
    1000022    2    1    0    0    0 -0.17262634457E+02  0.54503810191E+02  0.23185908346E+02  0.62500001831E+02  0.10000000463E+02 0.  0.
    3000022    2    3    3    0    0 -0.12772656658E+02  0.29728295347E+02  0.90130822249E+01  0.33588844180E+02  0.24999966790E+00 0.  0.
    1000022    2    1    0    0    0  0.17262634457E+02 -0.54503810191E+02 -0.23185908346E+02  0.62499998169E+02  0.99999775786E+01 0.  0.
    3000022    2    5    5    0    0  0.53241928136E+01 -0.32677777573E+02 -0.14271168177E+02  0.36054305117E+02  0.25000022810E+00 0.  0.
        -13    1    4    4    0    0 -0.34455536420E+01  0.80809166049E+01  0.24756268671E+01  0.91275849193E+01  0.10500000000E+00 0.  1.
         13    1    4    4    0    0 -0.93271030161E+01  0.21647378742E+02  0.65374553578E+01  0.24461259261E+02  0.10500000000E+00 0. -1.
    3000001    1    5    5    0    0  0.11938441644E+02 -0.21826032618E+02 -0.89147401691E+01  0.26445693052E+02  0.10000000000E+01 0.  1.
        -13    1    6    6    0    0  0.17912250339E+01 -0.11256688098E+02 -0.49524480229E+01  0.12428164808E+02  0.10500000000E+00 0.  1.
         13    1    6    6    0    0  0.35329677796E+01 -0.21421089475E+02 -0.93187201537E+01  0.23626140309E+02  0.10500000000E+00 0. -1.
</event>
<event>
11    0  0.3467594E-009  0.9118800E+02  0.7816531E-02  0.1126479E+00
         25   -1    0    0    0    0  0.00000000000E+00  0.00000000000E+00  0.99999998245E-14  0.12500000000E+03  0.12500000000E+03 0.  0.
    3000001    1    3    3    0    0  0.28198965647E+02  0.13006625063E+02 -0.67946165655E+01  0.31804414369E+02  0.10000000000E+01 0.  1.
    1000022    2    1    0    0    0  0.58490912811E+02  0.17253601478E+02 -0.93475472470E+01  0.62499997575E+02  0.99999705939E+01 0.  0.
    3000022    2    3    3    0    0  0.30291947164E+02  0.42469764151E+01 -0.25529306816E+01  0.30695583206E+02  0.25000322932E+00 0.  0.
    1000022    2    1    0    0    0 -0.58490912811E+02 -0.17253601478E+02  0.93475472470E+01  0.62500002425E+02  0.10000000911E+02 0.  0.
    3000022    2    5    5    0    0 -0.76339468148E+01 -0.47244655440E+01 -0.12021203447E+01  0.90611988845E+01  0.25002650783E+00 0.  0.
        -13    1    4    4    0    0  0.13365882277E+02  0.18075148299E+01 -0.11180321633E+01  0.13534213676E+02  0.10500000000E+00 0.  1.
         13    1    4    4    0    0  0.16926064887E+02  0.24394615852E+01 -0.14348985183E+01  0.17161369530E+02  0.10500000000E+00 0. -1.
    3000001    1    5    5    0    0 -0.50856965996E+02 -0.12529135934E+02  0.10549667592E+02  0.53438803541E+02  0.10000000000E+01 0.  1.
        -13    1    6    6    0    0 -0.45338329905E+01 -0.28556135249E+01 -0.66972186362E+00  0.54009001623E+01  0.10500000000E+00 0.  1.
         13    1    6    6    0    0 -0.31001138243E+01 -0.18688520192E+01 -0.53239848110E+00  0.36602987222E+01  0.10500000000E+00 0. -1.
</event>
<event>
11    0  0.3467594E-009  0.9118800E+02  0.7816531E-02  0.1126479E+00
         25   -1    0    0    0    0  0.00000000000E+00  0.00000000000E+00  0.99999998245E-14  0.12500000000E+03  0.12500000000E+03 0.  0.
    3000001    1    3    3    0    0 -0.50316052284E+01  0.25840217154E+02  0.24792698087E+01  0.26460926902E+02  0.10000000000E+01 0. -1.
    1000022    2    1    0    0    0 -0.19342966843E+02  0.56972322445E+02  0.13647494920E+02  0.62500000140E+02  0.10000000439E+02 0.  0.
    3000022    2    3    3    0    0 -0.14311361615E+02  0.31132105291E+02  0.11168225112E+02  0.36039073237E+02  0.24999308705E+00 0.  0.
    1000022    2    1    0    0    0  0.19342966843E+02 -0.56972322445E+02 -0.13647494920E+02  0.62499999860E+02  0.99999986928E+01 0.  0.
    3000022    2    5    5    0    0  0.13764853368E+02 -0.37380548136E+02 -0.13638111153E+02  0.42105072585E+02  0.24998868626E+00 0.  0.
        -13    1    4    4    0    0 -0.10940822709E+02  0.23772742916E+02  0.85413004063E+01  0.27528344392E+02  0.10500000000E+00 0.  1.
         13    1    4    4    0    0 -0.33705389056E+01  0.73593623750E+01  0.26269247052E+01  0.85107288458E+01  0.10500000000E+00 0. -1.
    3000001    1    5    5    0    0  0.55781134751E+01 -0.19591774309E+02 -0.93837668807E-02  0.20394927276E+02  0.10000000000E+01 0.  1.
        -13    1    6    6    0    0  0.46945753652E+01 -0.12891001666E+02 -0.47245131179E+01  0.14510307062E+02  0.10500000000E+00 0.  1.
         13    1    6    6    0    0  0.90702780029E+01 -0.24489546469E+02 -0.89135980354E+01  0.27594765523E+02  0.10500000000E+00 0. -1.
</event>
<event>
11    0  0.3467594E-009  0.9118800E+02  0.7816531E-02  0.1126479E+00
         25   -1    0    0    0    0  0.00000000000E+00  0.00000000000E+00  0.99999998245E-14  0.12500000000E+03  0.12500000000E+03 0.  0.
    3000001    1    3    3    0    0 -0.21715216839E+02 -0.13508623404E+02  0.84663902071E+01  0.26957620663E+02  0.10000000000E+01 0. -1.
    1000022    2    1    0    0    0 -0.55424449140E+02 -0.23971959372E+02  0.12638261126E+02  0.62500000237E+02  0.99999993420E+01 0.  0.
    3000022    2    3    3    0    0 -0.33709232300E+02 -0.10463335968E+02  0.41718709187E+01  0.35542379575E+02  0.24999405974E+00 0.  0.
    1000022    2    1    0    0    0  0.55424449140E+02  0.23971959372E+02 -0.12638261126E+02  0.62499999763E+02  0.99999963741E+01 0.  0.
    3000022    2    5    5    0    0  0.13242738394E+02  0.20983281444E+01 -0.52570799551E+01  0.14403905327E+02  0.24999567010E+00 0.  0.
        -13    1    4    4    0    0 -0.21912693762E+02 -0.68588284538E+01  0.27283380319E+01  0.23122814039E+02  0.10500000000E+00 0.  1.
         13    1    4    4    0    0 -0.11796538538E+02 -0.36045075141E+01  0.14435328868E+01  0.12419565536E+02  0.10500000000E+00 0. -1.
    3000001    1    5    5    0    0  0.42181710746E+02  0.21873631228E+02 -0.73811811707E+01  0.48096094436E+02  0.10000000000E+01 0. -1.
        -13    1    6    6    0    0  0.40109050073E+01  0.63227091202E+00 -0.15424777964E+01  0.43448116457E+01  0.10500000000E+00 0.  1.
         13    1    6    6    0    0  0.92318333865E+01  0.14660572323E+01 -0.37146021586E+01  0.10059093681E+02  0.10500000000E+00 0. -1.
</event>
<event>
11    0  0.3467594E-009  0.9118800E+02  0.7816531E-02  0.1126479E+00
         25   -1    0    0    0    0  0.00000000000E+00  0.00000000000E+00  0.99999998245E-14  0.12500000000E+03  0.12500000000E+03 0.  0.
    3000001    1    3    3    0    0  0.53645590484E+00  0.11522841628E+01  0.46364055424E+01  0.49103767761E+01  0.10000000000E+01 0.  1.
    1000022    2    1    0    0    0  0.14808939028E+02  0.41361409369E+02  0.43314883725E+02  0.62499999931E+02  0.99999989564E+01 0.  0.
    3000022    2    3    3    0    0  0.14272483123E+02  0.40209125206E+02  0.38678478183E+02  0.57589623155E+02  0.24999248181E+00 0.  0.
    1000022    2    1    0    0    0 -0.14808939028E+02 -0.41361409369E+02 -0.43314883725E+02  0.62500000069E+02  0.99999998209E+01 0.  0.
    3000022    2    5    5    0    0 -0.39919036103E+01 -0.65160099158E+01 -0.32660683075E+01  0.83140449275E+01  0.24992240738E+00 0.  0.
        -13    1    4    4    0    0  0.10583141117E+02  0.29877141737E+02  0.28762561467E+02  0.42801196729E+02  0.10500000000E+00 0. -1.
         13    1    4    4    0    0  0.36893420057E+01  0.10331983469E+02  0.99159167159E+01  0.14788426426E+02  0.10500000000E+00 0.  1.
    3000001    1    5    5    0    0 -0.10817035417E+02 -0.34845399453E+02 -0.40048815417E+02  0.54185955142E+02  0.10000000000E+01 0. -1.
        -13    1    6    6    0    0 -0.26303069018E+01 -0.43735955324E+01 -0.21449235315E+01  0.55370185330E+01  0.10500000000E+00 0. -1.
         13    1    6    6    0    0 -0.13615967084E+01 -0.21424143835E+01 -0.11211447761E+01  0.27770263945E+01  0.10500000000E+00 0.  1.
</event>
<event>
11    0  0.3467594E-009  0.9118800E+02  0.7816531E-02  0.1126479E+00
         25   -1    0    0    0    0  0.00000000000E+00  0.00000000000E+00  0.99999998245E-14  0.12500000000E+03  0.12500000000E+03 0.  0.
    3000001    1    3    3    0    0 -0.23205879300E+02 -0.81425548765E+01  0.12959214363E+02  0.27816456836E+02  0.10000000000E+01 0. -1.
    1000022    2    1    0    0    0 -0.45364514669E+02 -0.26326162104E+02  0.32484510343E+02  0.62500003036E+02  0.10000048250E+02 0.  0.
    3000022    2    3    3    0    0 -0.22158635369E+02 -0.18183607228E+02  0.19525295980E+02  0.34683546200E+02  0.25000137330E+00 0.  0.
    1000022    2    1    0    0    0  0.45364514669E+02  0.26326162104E+02 -0.32484510343E+02  0.62499996964E+02  0.10000010297E+02 0.  0.
    3000022    2    5    5    0    0  0.46905076135E+00 -0.76555405012E+00 -0.78488208604E+00  0.12184320743E+01  0.24991040434E+00 0.  0.
        -13    1    4    4    0    0 -0.10603035017E+02 -0.87337793443E+01  0.92813318642E+01  0.16578823824E+02  0.10500000000E+00 0.  1.
         13    1    4    4    0    0 -0.11555600352E+02 -0.94498278836E+01  0.10243964116E+02  0.18104722377E+02  0.10500000000E+00 0. -1.
    3000001    1    5    5    0    0  0.44895463907E+02  0.27091716154E+02 -0.31699628257E+02  0.61281564890E+02  0.10000000000E+01 0. -1.
        -13    1    6    6    0    0  0.17177461685E+00 -0.36508731850E+00 -0.41851103810E+00  0.59073831612E+00  0.10500000000E+00 0.  1.
         13    1    6    6    0    0  0.29727614450E+00 -0.40046673163E+00 -0.36637104794E+00  0.62769375813E+00  0.10500000000E+00 0. -1.
</event>
<event>
11    0  0.3467594E-009  0.9118800E+02  0.7816531E-02  0.1126479E+00
         25   -1    0    0    0    0  0.00000000000E+00  0.00000000000E+00  0.99999998245E-14  0.12500000000E+03  0.12500000000E+03 0.  0.
    3000001    1    3    3    0    0  0.11351014161E+02  0.29269970791E+01 -0.13030361175E+02  0.17555715501E+02  0.10000000000E+01 0. -1.
    1000022    2    1    0    0    0  0.26990867412E+02  0.10133710571E+02 -0.54544027980E+02  0.62500000583E+02  0.10000003552E+02 0.  0.
    3000022    2    3    3    0    0  0.15639853250E+02  0.72067134921E+01 -0.41513666804E+02  0.44944285082E+02  0.25000185528E+00 0.  0.
    1000022    2    1    0    0    0 -0.26990867412E+02 -0.10133710571E+02  0.54544027980E+02  0.62499999417E+02  0.99999962666E+01 0.  0.
    3000022    2    5    5    0    0 -0.15692590774E+02 -0.10732021475E+02  0.31142618988E+02  0.36487791250E+02  0.25000550589E+00 0.  0.
        -13    1    4    4    0    0  0.76230816923E+01  0.34622474702E+01 -0.20053314451E+02  0.21731198253E+02  0.10500000000E+00 0. -1.
         13    1    4    4    0    0  0.80167715580E+01  0.37444660219E+01 -0.21460352354E+02  0.23213086829E+02  0.10500000000E+00 0.  1.
    3000001    1    5    5    0    0 -0.11298276638E+02  0.59831090414E+00  0.23401408992E+02  0.26012208167E+02  0.10000000000E+01 0.  1.
        -13    1    6    6    0    0 -0.38193424192E+01 -0.26204149159E+01  0.76293004283E+01  0.89258725552E+01  0.10500000000E+00 0.  1.
         13    1    6    6    0    0 -0.11873248354E+02 -0.81116065595E+01  0.23513318560E+02  0.27561918695E+02  0.10500000000E+00 0. -1.
</event>
<event>
11    0  0.3467594E-009  0.9118800E+02  0.7816531E-02  0.1126479E+00
         25   -1    0    0    0    0  0.00000000000E+00  0.00000000000E+00  0.99999998245E-14  0.12500000000E+03  0.12500000000E+03 0.  0.
    3000001    1    3    3    0    0 -0.25846708396E+02  0.45734799332E+02 -0.12489512342E+02  0.54006593333E+02  0.10000000000E+01 0. -1.
    1000022    2    1    0    0    0 -0.26432174101E+02  0.54181244384E+02 -0.13114225421E+02  0.62500000941E+02  0.10000006925E+02 0.  0.
    3000022    2    3    3    0    0 -0.58546570503E+00  0.84464450525E+01 -0.62471307847E+00  0.84934076086E+01  0.25000451891E+00 0.  0.
    1000022    2    1    0    0    0  0.26432174101E+02 -0.54181244384E+02  0.13114225421E+02  0.62499999059E+02  0.99999951614E+01 0.  0.
    3000022    2    5    5    0    0  0.82995798133E+01 -0.20932775245E+02  0.34802518187E+00  0.22522160895E+02  0.25001063354E+00 0.  0.
        -13    1    4    4    0    0 -0.20971219810E+00  0.34938792759E+01 -0.20261842673E+00  0.35075990118E+01  0.10500000000E+00 0. -1.
         13    1    4    4    0    0 -0.37575350693E+00  0.49525657766E+01 -0.42209465173E+00  0.49858085969E+01  0.10500000000E+00 0.  1.
    3000001    1    5    5    0    0  0.18132594288E+02 -0.33248469139E+02  0.12766200239E+02  0.39977838163E+02  0.10000000000E+01 0.  1.
        -13    1    6    6    0    0  0.27999869571E+01 -0.71511256327E+01  0.74617207728E-01  0.76808279177E+01  0.10500000000E+00 0. -1.
         13    1    6    6    0    0  0.54995928562E+01 -0.13781649613E+02  0.27340797415E+00  0.14841332978E+02  0.10500000000E+00 0.  1.
</event>
<event>
11    0  0.3467594E-009  0.9118800E+02  0.7816531E-02  0.1126479E+00
         25   -1    0    0    0    0  0.00000000000E+00  0.00000000000E+00  0.99999998245E-14  0.12500000000E+03  0.12500000000E+03 0.  0.
    3000001    1    3    3    0    0 -0.18033016950E+01  0.38885207641E+00 -0.70370779158E+01  0.73432668842E+01  0.10000000000E+01 0.  1.
    1000022    2    1    0    0    0  0.44623914707E+01  0.20364068081E+02 -0.58065839089E+02  0.62499999259E+02  0.10000001591E+02 0.  0.
    3000022    2    3    3    0    0  0.62656931656E+01  0.19975216004E+02 -0.51028761173E+02  0.55156732375E+02  0.24998823099E+00 0.  0.
    1000022    2    1    0    0    0 -0.44623914707E+01 -0.20364068081E+02  0.58065839089E+02  0.62500000741E+02  0.10000010852E+02 0.  0.
    3000022    2    5    5    0    0 -0.50799372004E+01 -0.88908203955E+01  0.17018370047E+02  0.19863027467E+02  0.24998368099E+00 0.  0.
        -13    1    4    4    0    0  0.28182605158E+01  0.92003633479E+01 -0.23502103010E+02  0.25395849049E+02  0.10500000000E+00 0.  1.
         13    1    4    4    0    0  0.34474326499E+01  0.10774852656E+02 -0.27526658164E+02  0.29760883325E+02  0.10500000000E+00 0. -1.
    3000001    1    5    5    0    0  0.61754572974E+00 -0.11473247685E+02  0.41047469042E+02  0.42636973274E+02  0.10000000000E+01 0. -1.
        -13    1    6    6    0    0 -0.25285469979E+01 -0.43441506413E+01  0.82481044816E+01  0.96595780060E+01  0.10500000000E+00 0. -1.
         13    1    6    6    0    0 -0.25513902026E+01 -0.45466697542E+01  0.87702655654E+01  0.10203449461E+02  0.10500000000E+00 0.  1.
</event>
<event>
11    0  0.3467594E-009  0.9118800E+02  0.7816531E-02  0.1126479E+00
         25   -1    0    0    0    0  0.00000000000E+00  0.00000000000E+00  0.99999998245E-14  0.12500000000E+03  0.12500000000E+03 0.  0.
    3000001    1    3    3    0    0  0.16369778820E+02  0.84651114152E+01  0.26373280257E+01  0.18643585197E+02  0.10000000000E+01 0.  1.
    1000022    2    1    0    0    0  0.49096559433E+02  0.29673553195E+02  0.22699279272E+02  0.62499993482E+02  0.99999999190E+01 0.  0.
    3000022    2    3    3    0    0  0.32726780613E+02  0.21208441780E+02  0.20061951247E+02  0.43856408285E+02  0.24997559317E+00 0.  0.
    1000022    2    1    0    0    0 -0.49096559433E+02 -0.29673553195E+02 -0.22699279272E+02  0.62500006518E+02  0.10000081389E+02 0.  0.
    3000022    2    5    5    0    0 -0.51121625113E+01 -0.52738851786E+01 -0.10368006380E+00  0.73499197043E+01  0.24999937112E+00 0.  0.
        -13    1    4    4    0    0  0.22241745990E+02  0.14379139532E+02  0.13577603286E+02  0.29762682244E+02  0.10500000000E+00 0.  1.
         13    1    4    4    0    0  0.10485034623E+02  0.68293022480E+01  0.64843479611E+01  0.14093726041E+02  0.10500000000E+00 0. -1.
    3000001    1    5    5    0    0 -0.43984396922E+02 -0.24399668017E+02 -0.22595599209E+02  0.55150086813E+02  0.10000000000E+01 0. -1.
        -13    1    6    6    0    0 -0.26286717995E+01 -0.27120993520E+01 -0.12104926931E+00  0.37803539847E+01  0.10500000000E+00 0. -1.
         13    1    6    6    0    0 -0.24834907118E+01 -0.25617858266E+01  0.17369205507E-01  0.35695657196E+01  0.10500000000E+00 0.  1.
</event>
<event>
11    0  0.3467594E-009  0.9118800E+02  0.7816531E-02  0.1126479E+00
         25   -1    0    0    0    0  0.00000000000E+00  0.00000000000E+00  0.99999998245E-14  0.12500000000E+03  0.12500000000E+03 0.  0.
    3000001    1    3    3    0    0  0.16754090277E+02 -0.14475972535E+02 -0.82637015059E+01  0.23654641922E+02  0.10000000000E+01 0.  1.
    1000022    2    1    0    0    0  0.51529109449E+02 -0.30357153466E+02 -0.15147412223E+02  0.62499999969E+02  0.10000000601E+02 0.  0.
    3000022    2    3    3    0    0  0.34775019171E+02 -0.15881180931E+02 -0.68837107170E+01  0.38845358048E+02  0.25000503703E+00 0.  0.
    1000022    2    1    0    0    0 -0.51529109449E+02  0.30357153466E+02  0.15147412223E+02  0.62500000031E+02  0.10000000984E+02 0.  0.
    3000022    2    5    5    0    0 -0.15610546554E+02  0.51552774654E+01  0.69568409165E+01  0.17852904126E+02  0.25000150823E+00 0.  0.
        -13    1    4    4    0    0  0.25230668359E+02 -0.11563377030E+02 -0.49926750699E+01  0.28199931623E+02  0.10500000000E+00 0. -1.
         13    1    4    4    0    0  0.95443508119E+01 -0.43178039003E+01 -0.18910356471E+01  0.10645426425E+02  0.10500000000E+00 0.  1.
    3000001    1    5    5    0    0 -0.35918562895E+02  0.25201876000E+02  0.81905713064E+01  0.44647095904E+02  0.10000000000E+01 0. -1.
        -13    1    6    6    0    0 -0.97505415381E+01  0.31583022563E+01  0.43211924758E+01  0.11123473506E+02  0.10500000000E+00 0. -1.
         13    1    6    6    0    0 -0.58600050156E+01  0.19969752091E+01  0.26356484407E+01  0.67294306201E+01  0.10500000000E+00 0.  1.
</event>
<event>
11    0  0.3467594E-009  0.9118800E+02  0.7816531E-02  0.1126479E+00
         25   -1    0    0    0    0  0.00000000000E+00  0.00000000000E+00  0.99999998245E-14  0.12500000000E+03  0.12500000000E+03 0.  0.
    3000001    1    3    3    0    0  0.23050811566E+01 -0.92830782383E+01 -0.70087777972E+01  0.11900080123E+02  0.10000000000E+01 0.  1.
    1000022    2    1    0    0    0  0.29031506107E+02 -0.38168883239E+02 -0.38814408135E+02  0.62500002533E+02  0.10000002155E+02 0.  0.
    3000022    2    3    3    0    0  0.26726424951E+02 -0.28885805001E+02 -0.31805630338E+02  0.50599922410E+02  0.25001099252E+00 0.  0.
    1000022    2    1    0    0    0 -0.29031506107E+02  0.38168883239E+02  0.38814408135E+02  0.62499997467E+02  0.99999704971E+01 0.  0.
    3000022    2    5    5    0    0 -0.13056035061E+02  0.23661593965E+02  0.17791290811E+02  0.32356199112E+02  0.25002360319E+00 0.  0.
        -13    1    4    4    0    0  0.97247089678E+01 -0.10560035377E+02 -0.11664415300E+02  0.18497403087E+02  0.10500000000E+00 0. -1.
         13    1    4    4    0    0  0.17001715983E+02 -0.18325769624E+02 -0.20141215038E+02  0.32102519323E+02  0.10500000000E+00 0.  1.
    3000001    1    5    5    0    0 -0.15975471047E+02  0.14507289275E+02  0.21023117324E+02  0.30143798355E+02  0.10000000000E+01 0.  1.
        -13    1    6    6    0    0 -0.68040778977E+01  0.12460286248E+02  0.93153127673E+01  0.16980585572E+02  0.10500000000E+00 0. -1.
         13    1    6    6    0    0 -0.62519571630E+01  0.11201307716E+02  0.84759780437E+01  0.15375613540E+02  0.10500000000E+00 0.  1.
</event>
<event>
11    0  0.3467594E-009  0.9118800E+02  0.7816531E-02  0.1126479E+00
         25   -1    0    0    0    0  0.00000000000E+00  0.00000000000E+00  0.99999998245E-14  0.12500000000E+03  0.12500000000E+03 0.  0.
    3000001    1    3    3    0    0 -0.12084216739E+02 -0.47514700279E+02  0.36122218399E+02  0.60905580195E+02  0.10000000000E+01 0. -1.
    1000022    2    1    0    0    0 -0.12768335871E+02 -0.48799725773E+02  0.35521914612E+02  0.62499999423E+02  0.99999936848E+01 0.  0.
    3000022    2    3    3    0    0 -0.68411913233E+00 -0.12850254934E+01 -0.60030378646E+00  0.15944192278E+01  0.24999706397E+00 0.  0.
    1000022    2    1    0    0    0  0.12768335871E+02  0.48799725773E+02 -0.35521914612E+02  0.62500000577E+02  0.10000000903E+02 0.  0.
    3000022    2    5    5    0    0  0.45291366662E+01  0.77134609674E+01 -0.29697969835E+01  0.94282951092E+01  0.24999101187E+00 0.  0.
        -13    1    4    4    0    0 -0.28643507733E+00 -0.67804109460E+00 -0.28451408588E+00  0.79608921897E+00  0.10500000000E+00 0.  1.
         13    1    4    4    0    0 -0.39768405500E+00 -0.60698439877E+00 -0.31578970058E+00  0.79833000880E+00  0.10500000000E+00 0. -1.
    3000001    1    5    5    0    0  0.82391992048E+01  0.41086264805E+02 -0.32552117629E+02  0.53071705468E+02  0.10000000000E+01 0. -1.
        -13    1    6    6    0    0  0.20851475089E+01  0.36477595509E+01 -0.14438238658E+01  0.44440569563E+01  0.10500000000E+00 0. -1.
         13    1    6    6    0    0  0.24439891573E+01  0.40657014165E+01 -0.15259731177E+01  0.49842381529E+01  0.10500000000E+00 0.  1.
</event>
<event>
11    0  0.3467594E-009  0.9118800E+02  0.7816531E-02  0.1126479E+00
         25   -1    0    0    0    0  0.00000000000E+00  0.00000000000E+00  0.99999998245E-14  0.12500000000E+03  0.12500000000E+03 0.  0.
    3000001    1    3    3    0    0  0.31228766502E+02 -0.18596070273E+02 -0.24508245558E+02  0.43848646355E+02  0.10000000000E+01 0. -1.
    1000022    2    1    0    0    0  0.44000874782E+02 -0.20791233180E+02 -0.37919621596E+02  0.62500000113E+02  0.99999976721E+01 0.  0.
    3000022    2    3    3    0    0  0.12772108280E+02 -0.21951629068E+01 -0.13411376038E+02  0.18651353758E+02  0.24999935028E+00 0.  0.
    1000022    2    1    0    0    0 -0.44000874782E+02  0.20791233180E+02  0.37919621596E+02  0.62499999887E+02  0.99999962571E+01 0.  0.
    3000022    2    5    5    0    0 -0.24440957766E+02  0.13436881215E+02  0.15809965163E+02  0.32061311444E+02  0.24999956313E+00 0.  0.
        -13    1    4    4    0    0  0.94680320000E+01 -0.16488446228E+01 -0.99767412964E+01  0.13853111941E+02  0.10500000000E+00 0. -1.
         13    1    4    4    0    0  0.33040762801E+01 -0.54631828397E+00 -0.34346347419E+01  0.47982418178E+01  0.10500000000E+00 0.  1.
    3000001    1    5    5    0    0 -0.19559917016E+02  0.73543519645E+01  0.22109656433E+02  0.30438688442E+02  0.10000000000E+01 0. -1.
        -13    1    6    6    0    0 -0.11455706878E+02  0.62752249879E+01  0.74780549748E+01  0.15051378672E+02  0.10500000000E+00 0. -1.
         13    1    6    6    0    0 -0.12985250888E+02  0.71616562272E+01  0.83319101882E+01  0.17009932772E+02  0.10500000000E+00 0.  1.
</event>
<event>
11    0  0.3467594E-009  0.9118800E+02  0.7816531E-02  0.1126479E+00
         25   -1    0    0    0    0  0.00000000000E+00  0.00000000000E+00  0.99999998245E-14  0.12500000000E+03  0.12500000000E+03 0.  0.
    3000001    1    3    3    0    0 -0.86921104222E+00  0.11635106109E+01  0.42476968896E+01  0.45991535790E+01  0.10000000000E+01 0.  1.
    1000022    2    1    0    0    0 -0.23841450262E+02  0.40704461639E+02  0.39761566239E+02  0.62499999899E+02  0.99999944828E+01 0.  0.
    3000022    2    3    3    0    0 -0.22972239220E+02  0.39540951028E+02  0.35513869349E+02  0.57900846320E+02  0.25001080928E+00 0.  0.
    1000022    2    1    0    0    0  0.23841450262E+02 -0.40704461639E+02 -0.39761566239E+02  0.62500000101E+02  0.99999957466E+01 0.  0.
    3000022    2    5    5    0    0  0.20182121491E+02 -0.35638876782E+02 -0.29619005522E+02  0.50544985468E+02  0.25000322067E+00 0.  0.
        -13    1    4    4    0    0 -0.77289502916E+01  0.13370039182E+02  0.11939182378E+02  0.19520494901E+02  0.10500000000E+00 0. -1.
         13    1    4    4    0    0 -0.15243288929E+02  0.26170911846E+02  0.23574686972E+02  0.38380351419E+02  0.10500000000E+00 0.  1.
    3000001    1    5    5    0    0  0.36593287714E+01 -0.50655848568E+01 -0.10142560717E+02  0.11955014634E+02  0.10000000000E+01 0. -1.
        -13    1    6    6    0    0  0.14956267544E+02 -0.26371315674E+02 -0.21955183974E+02  0.37432303663E+02  0.10500000000E+00 0.  1.
         13    1    6    6    0    0  0.52258539474E+01 -0.92675611086E+01 -0.76638215480E+01  0.13112681804E+02  0.10500000000E+00 0. -1.
</event>
<event>
11    0  0.3467594E-009  0.9118800E+02  0.7816531E-02  0.1126479E+00
         25   -1    0    0    0    0  0.00000000000E+00  0.00000000000E+00  0.99999998245E-14  0.12500000000E+03  0.12500000000E+03 0.  0.
    3000001    1    3    3    0    0  0.13795159721E+02 -0.16699964896E+01 -0.25391007777E+01  0.14161297708E+02  0.10000000000E+01 0.  1.
    1000022    2    1    0    0    0  0.54794674263E+02 -0.23867454237E+02 -0.15301570167E+02  0.62500003219E+02  0.10000032669E+02 0.  0.
    3000022    2    3    3    0    0  0.40999514542E+02 -0.22197457748E+02 -0.12762469389E+02  0.48338705511E+02  0.25000481806E+00 0.  0.
    1000022    2    1    0    0    0 -0.54794674263E+02  0.23867454237E+02  0.15301570167E+02  0.62499996781E+02  0.99999924346E+01 0.  0.
    3000022    2    5    5    0    0 -0.51756229820E+02  0.22911367075E+02  0.16492906288E+02  0.58955207782E+02  0.25000067333E+00 0.  0.
        -13    1    4    4    0    0  0.26151596630E+02 -0.14194711260E+02 -0.81960227423E+01  0.30863921459E+02  0.10500000000E+00 0.  1.
         13    1    4    4    0    0  0.14847917912E+02 -0.80027464878E+01 -0.45664466469E+01  0.17474784052E+02  0.10500000000E+00 0. -1.
    3000001    1    5    5    0    0 -0.30384444428E+01  0.95608716246E+00 -0.11913361213E+01  0.35447889991E+01  0.10000000000E+01 0. -1.
        -13    1    6    6    0    0 -0.31819324148E+02  0.14121916297E+02  0.10090040847E+02  0.36245246011E+02  0.10500000000E+00 0. -1.
         13    1    6    6    0    0 -0.19936905673E+02  0.87894507778E+01  0.64028654410E+01  0.22709961771E+02  0.10500000000E+00 0.  1.
</event>
<event>
11    0  0.3467594E-009  0.9118800E+02  0.7816531E-02  0.1126479E+00
         25   -1    0    0    0    0  0.00000000000E+00  0.00000000000E+00  0.99999998245E-14  0.12500000000E+03  0.12500000000E+03 0.  0.
    3000001    1    3    3    0    0  0.30369455324E+02  0.32025360626E+02  0.21642664258E+02  0.49166375259E+02  0.10000000000E+01 0. -1.
    1000022    2    1    0    0    0  0.37893954535E+02  0.42956478906E+02  0.22913733806E+02  0.62500000259E+02  0.99999982593E+01 0.  0.
    3000022    2    3    3    0    0  0.75244992106E+01  0.10931118280E+02  0.12710695482E+01  0.13333625001E+02  0.25000526475E+00 0.  0.
    1000022    2    1    0    0    0 -0.37893954535E+02 -0.42956478906E+02 -0.22913733806E+02  0.62499999741E+02  0.99999950166E+01 0.  0.
    3000022    2    5    5    0    0 -0.10206499870E+02 -0.89221337204E+01 -0.14175351987E+01  0.13632645069E+02  0.24999162612E+00 0.  0.
        -13    1    4    4    0    0  0.28609919876E+01  0.42545222887E+01  0.51747397617E+00  0.51541283816E+01  0.10500000000E+00 0.  1.
         13    1    4    4    0    0  0.46635072230E+01  0.66765959916E+01  0.75359557204E+00  0.81794966190E+01  0.10500000000E+00 0. -1.
    3000001    1    5    5    0    0 -0.27687454665E+02 -0.34034345186E+02 -0.21496198608E+02  0.48867354672E+02  0.10000000000E+01 0. -1.
        -13    1    6    6    0    0 -0.40363782400E+01 -0.35069606338E+01 -0.49849769323E+00  0.53712798413E+01  0.10500000000E+00 0.  1.
         13    1    6    6    0    0 -0.61701216299E+01 -0.54151730866E+01 -0.91903750545E+00  0.82613652275E+01  0.10500000000E+00 0. -1.
</event>
<event>
11    0  0.3467594E-009  0.9118800E+02  0.7816531E-02  0.1126479E+00
         25   -1    0    0    0    0  0.00000000000E+00  0.00000000000E+00  0.99999998245E-14  0.12500000000E+03  0.12500000000E+03 0.  0.
    3000001    1    3    3    0    0 -0.29383436716E+02 -0.21997440273E+01  0.56926738724E+01  0.30027183731E+02  0.10000000000E+01 0. -1.
    1000022    2    1    0    0    0 -0.61537015837E+02  0.19826934789E+01  0.39389353473E+01  0.62499996039E+02  0.99999450838E+01 0.  0.
    3000022    2    3    3    0    0 -0.32153579121E+02  0.41824375063E+01 -0.17537385250E+01  0.32472812308E+02  0.25001314827E+00 0.  0.
    1000022    2    1    0    0    0  0.61537015837E+02 -0.19826934789E+01 -0.39389353473E+01  0.62500003961E+02  0.99999945950E+01 0.  0.
    3000022    2    5    5    0    0  0.45823423268E+02  0.25300142938E+01 -0.44779294583E+01  0.46111836353E+02  0.25001474049E+00 0.  0.
        -13    1    4    4    0    0 -0.23430960563E+02  0.30723787035E+01 -0.13053076342E+01  0.23667789859E+02  0.10500000000E+00 0.  1.
         13    1    4    4    0    0 -0.87226185582E+01  0.11100588027E+01 -0.44843089083E+00  0.88050224487E+01  0.10500000000E+00 0. -1.
    3000001    1    5    5    0    0  0.15713592569E+02 -0.45127077728E+01  0.53899411103E+00  0.16388167607E+02  0.10000000000E+01 0. -1.
        -13    1    6    6    0    0  0.31793933751E+02  0.17887860481E+01 -0.30731459004E+01  0.31992330793E+02  0.10500000000E+00 0. -1.
         13    1    6    6    0    0  0.14029489517E+02  0.74122824575E+00 -0.14047835580E+01  0.14119505560E+02  0.10500000000E+00 0.  1.
</event>
<event>
11    0  0.3467594E-009  0.9118800E+02  0.7816531E-02  0.1126479E+00
         25   -1    0    0    0    0  0.00000000000E+00  0.00000000000E+00  0.99999998245E-14  0.12500000000E+03  0.12500000000E+03 0.  0.
    3000001    1    3    3    0    0  0.18058674819E+02 -0.15028619031E+02 -0.10589411272E+02  0.25789741319E+02  0.10000000000E+01 0. -1.
    1000022    2    1    0    0    0  0.48967052391E+02 -0.25952961163E+02 -0.27109441664E+02  0.62499998183E+02  0.99999766255E+01 0.  0.
    3000022    2    3    3    0    0  0.30908377572E+02 -0.10924342132E+02 -0.16520030392E+02  0.36710256864E+02  0.24999944743E+00 0.  0.
    1000022    2    1    0    0    0 -0.48967052391E+02  0.25952961163E+02  0.27109441664E+02  0.62500001817E+02  0.99999993413E+01 0.  0.
    3000022    2    5    5    0    0 -0.33984510597E+02  0.22295189733E+02  0.17162292695E+02  0.44120621440E+02  0.24999988764E+00 0.  0.
        -13    1    4    4    0    0  0.17764640349E+02 -0.62313636645E+01 -0.94336892928E+01  0.21057489369E+02  0.10500000000E+00 0. -1.
         13    1    4    4    0    0  0.13143737223E+02 -0.46929784674E+01 -0.70863410992E+01  0.15652767495E+02  0.10500000000E+00 0.  1.
    3000001    1    5    5    0    0 -0.14982541794E+02  0.36577714298E+01  0.99471489690E+01  0.18379380377E+02  0.10000000000E+01 0. -1.
        -13    1    6    6    0    0 -0.25096582478E+02  0.16446620793E+02  0.12638265898E+02  0.32558663632E+02  0.10500000000E+00 0.  1.
         13    1    6    6    0    0 -0.88879281190E+01  0.58485689396E+01  0.45240267969E+01  0.11561957808E+02  0.10500000000E+00 0. -1.
</event>
<event>
11    0  0.3467594E-009  0.9118800E+02  0.7816531E-02  0.1126479E+00
         25   -1    0    0    0    0  0.00000000000E+00  0.00000000000E+00  0.99999998245E-14  0.12500000000E+03  0.12500000000E+03 0.  0.
    3000001    1    3    3    0    0 -0.34942334405E+01 -0.22618962942E+02  0.39652190077E+02  0.45794359148E+02  0.10000000000E+01 0. -1.
    1000022    2    1    0    0    0  0.10567531977E+01 -0.31643717669E+02  0.52950998608E+02  0.62500001519E+02  0.10000017051E+02 0.  0.
    3000022    2    3    3    0    0  0.45509866383E+01 -0.90247547266E+01  0.13298808532E+02  0.16705642371E+02  0.25000280333E+00 0.  0.
    1000022    2    1    0    0    0 -0.10567531977E+01  0.31643717669E+02 -0.52950998608E+02  0.62499998481E+02  0.99999980641E+01 0.  0.
    3000022    2    5    5    0    0  0.19925944990E+01  0.15040916599E+01 -0.71549322141E+01  0.75821027228E+01  0.25000430093E+00 0.  0.
        -13    1    4    4    0    0  0.23302523293E+01 -0.47198714053E+01  0.70095409909E+01  0.87665245054E+01  0.10500000000E+00 0. -1.
         13    1    4    4    0    0  0.22207343090E+01 -0.43048833214E+01  0.62892675407E+01  0.79391178653E+01  0.10500000000E+00 0.  1.
    3000001    1    5    5    0    0 -0.30493476968E+01  0.30139626009E+02 -0.45796066394E+02  0.54917895758E+02  0.10000000000E+01 0. -1.
        -13    1    6    6    0    0  0.47885644736E+00  0.35044332523E+00 -0.16699384937E+01  0.17753404164E+01  0.10500000000E+00 0. -1.
         13    1    6    6    0    0  0.15137380517E+01  0.11536483346E+01 -0.54849937205E+01  0.58067623064E+01  0.10500000000E+00 0.  1.
</event>
<event>
11    0  0.3467594E-009  0.9118800E+02  0.7816531E-02  0.1126479E+00
         25   -1    0    0    0    0  0.00000000000E+00  0.00000000000E+00  0.99999998245E-14  0.12500000000E+03  0.12500000000E+03 0.  0.
    3000001    1    3    3    0    0  0.71671560465E+00 -0.59583072400E+00 -0.76684284245E+00  0.15674002216E+01  0.10000000000E+01 0.  1.
    1000022    2    1    0    0    0  0.56109567005E+02  0.14772210623E+02 -0.20970174809E+02  0.62500000802E+02  0.10000007628E+02 0.  0.
    3000022    2    3    3    0    0  0.55392851400E+02  0.15368041347E+02 -0.20203331966E+02  0.60932600580E+02  0.25001967088E+00 0.  0.
    1000022    2    1    0    0    0 -0.56109567005E+02 -0.14772210623E+02  0.20970174809E+02  0.62499999198E+02  0.99999976031E+01 0.  0.
    3000022    2    5    5    0    0 -0.10756910812E+02 -0.51608171033E+01  0.88486804359E+00  0.11966229726E+02  0.24999804312E+00 0.  0.
        -13    1    4    4    0    0  0.30146081723E+02  0.82946226483E+01 -0.10980537064E+02  0.33138651562E+02  0.10500000000E+00 0. -1.
         13    1    4    4    0    0  0.25246769678E+02  0.70734186990E+01 -0.92227949019E+01  0.27793949019E+02  0.10500000000E+00 0.  1.
    3000001    1    5    5    0    0 -0.45352656193E+02 -0.96113935199E+01  0.20085306765E+02  0.50533769472E+02  0.10000000000E+01 0. -1.
        -13    1    6    6    0    0 -0.48387644841E+01 -0.23806286463E+01  0.44021407239E+00  0.54116400392E+01  0.10500000000E+00 0. -1.
         13    1    6    6    0    0 -0.59181463277E+01 -0.27801884571E+01  0.44465397120E+00  0.65545896872E+01  0.10500000000E+00 0.  1.
</event>
<event>
11    0  0.3467594E-009  0.9118800E+02  0.7816531E-02  0.1126479E+00
         25   -1    0    0    0    0  0.00000000000E+00  0.00000000000E+00  0.99999998245E-14  0.12500000000E+03  0.12500000000E+03 0.  0.
    3000001    1    3    3    0    0  0.12277682281E+02  0.25059020055E+02 -0.80583886354E+00  0.27934662063E+02  0.10000000000E+01 0. -1.
    1000022    2    1    0    0    0  0.18870188589E+02  0.58559788694E+02  0.45735152943E+01  0.62499999891E+02  0.10000003743E+02 0.  0.
    3000022    2    3    3    0    0  0.65925063084E+01  0.33500768639E+02  0.53793541579E+01  0.34565337827E+02  0.24997824944E+00 0.  0.
    1000022    2    1    0    0    0 -0.18870188589E+02 -0.58559788694E+02 -0.45735152943E+01  0.62500000109E+02  0.10000005110E+02 0.  0.
    3000022    2    5    5    0    0 -0.18596632515E+02 -0.57769204616E+02 -0.34639209980E+01  0.60787967512E+02  0.25000550052E+00 0.  0.
        -13    1    4    4    0    0  0.32281646508E+01  0.16409591507E+02  0.25663426669E+01  0.16920191492E+02  0.10500000000E+00 0. -1.
         13    1    4    4    0    0  0.33643416576E+01  0.17091177132E+02  0.28130114910E+01  0.17645146335E+02  0.10500000000E+00 0.  1.
    3000001    1    5    5    0    0 -0.27355607435E+00 -0.79058407868E+00 -0.11095942964E+01  0.17120325972E+01  0.10000000000E+01 0.  1.
        -13    1    6    6    0    0 -0.53336254275E+01 -0.16592400504E+02 -0.95328402243E+00  0.17454944575E+02  0.10500000000E+00 0. -1.
         13    1    6    6    0    0 -0.13263007088E+02 -0.41176804112E+02 -0.25106369755E+01  0.43333022937E+02  0.10500000000E+00 0.  1.
</event>
<event>
11    0  0.3467594E-009  0.9118800E+02  0.7816531E-02  0.1126479E+00
         25   -1    0    0    0    0  0.00000000000E+00  0.00000000000E+00  0.99999998245E-14  0.12500000000E+03  0.12500000000E+03 0.  0.
    3000001    1    3    3    0    0  0.37632483588E+02 -0.52215095930E+01  0.37602665401E+02  0.53464272451E+02  0.10000000000E+01 0. -1.
    1000022    2    1    0    0    0  0.46027878626E+02 -0.68570303417E+01  0.40505129729E+02  0.62500000697E+02  0.10000003840E+02 0.  0.
    3000022    2    3    3    0    0  0.83953950378E+01 -0.16355207486E+01  0.29024643273E+01  0.90357282453E+01  0.24999958437E+00 0.  0.
    1000022    2    1    0    0    0 -0.46027878626E+02  0.68570303417E+01 -0.40505129729E+02  0.62499999303E+02  0.99999951318E+01 0.  0.
    3000022    2    5    5    0    0 -0.23781126003E+02  0.60878536972E+01 -0.26780412600E+02  0.36329835084E+02  0.25000322560E+00 0.  0.
        -13    1    4    4    0    0  0.51026793318E+01 -0.97819156588E+00  0.16991297102E+01  0.54673816288E+01  0.10500000000E+00 0. -1.
         13    1    4    4    0    0  0.32927157060E+01 -0.65732918276E+00  0.12033346171E+01  0.35683466166E+01  0.10500000000E+00 0.  1.
    3000001    1    5    5    0    0 -0.22246752623E+02  0.76917664447E+00 -0.13724717129E+02  0.26170164219E+02  0.10000000000E+01 0. -1.
        -13    1    6    6    0    0 -0.13140930024E+02  0.33651590626E+01 -0.14896890801E+02  0.20147871301E+02  0.10500000000E+00 0.  1.
         13    1    6    6    0    0 -0.10640195979E+02  0.27226946346E+01 -0.11883521799E+02  0.16181963783E+02  0.10500000000E+00 0. -1.
</event>
<event>
11    0  0.3467594E-009  0.9118800E+02  0.7816531E-02  0.1126479E+00
         25   -1    0    0    0    0  0.00000000000E+00  0.00000000000E+00  0.99999998245E-14  0.12500000000E+03  0.12500000000E+03 0.  0.
    3000001    1    3    3    0    0 -0.64560998101E+01 -0.20590931368E+01 -0.16825092747E+02  0.18166035210E+02  0.10000000000E+01 0. -1.
    1000022    2    1    0    0    0 -0.76418108116E+01 -0.35208650946E+01 -0.61118379951E+02  0.62500000479E+02  0.99999964299E+01 0.  0.
    3000022    2    3    3    0    0 -0.11857110015E+01 -0.14617719578E+01 -0.44293287204E+02  0.44333965269E+02  0.24999468665E+00 0.  0.
    1000022    2    1    0    0    0  0.76418108116E+01  0.35208650946E+01  0.61118379951E+02  0.62499999521E+02  0.99999904405E+01 0.  0.
    3000022    2    5    5    0    0  0.97876475907E+00  0.51872025541E+01  0.37892675850E+02  0.38259409713E+02  0.24999554613E+00 0.  0.
        -13    1    4    4    0    0 -0.58706017788E+00 -0.69738560908E+00 -0.22993185252E+02  0.23011487987E+02  0.10500000000E+00 0. -1.
         13    1    4    4    0    0 -0.59865082358E+00 -0.76438634874E+00 -0.21300101951E+02  0.21322477282E+02  0.10500000000E+00 0.  1.
    3000001    1    5    5    0    0  0.66630460525E+01 -0.16663374595E+01  0.23225704101E+02  0.24240589807E+02  0.10000000000E+01 0. -1.
        -13    1    6    6    0    0  0.60268047067E+00  0.28981044798E+01  0.20973049362E+02  0.21181172249E+02  0.10500000000E+00 0.  1.
         13    1    6    6    0    0  0.37608428840E+00  0.22890980743E+01  0.16919626488E+02  0.17078237464E+02  0.10500000000E+00 0. -1.
</event>
<event>
11    0  0.3467594E-009  0.9118800E+02  0.7816531E-02  0.1126479E+00
         25   -1    0    0    0    0  0.00000000000E+00  0.00000000000E+00  0.99999998245E-14  0.12500000000E+03  0.12500000000E+03 0.  0.
    3000001    1    3    3    0    0  0.33248755276E+02 -0.29843552980E+02 -0.29713870887E+02  0.53665924989E+02  0.10000000000E+01 0.  1.
    1000022    2    1    0    0    0  0.39555671680E+02 -0.31000041769E+02 -0.35785420217E+02  0.62499999505E+02  0.99999943103E+01 0.  0.
    3000022    2    3    3    0    0  0.63069164045E+01 -0.11564887886E+01 -0.60715493299E+01  0.88340745151E+01  0.25000084274E+00 0.  0.
    1000022    2    1    0    0    0 -0.39555671680E+02  0.31000041769E+02  0.35785420217E+02  0.62500000495E+02  0.10000000503E+02 0.  0.
    3000022    2    5    5    0    0 -0.14948913273E+02  0.10784981617E+02  0.75260420724E+01  0.19912048333E+02  0.25004604065E+00 0.  0.
        -13    1    4    4    0    0  0.22889119366E+01 -0.36631169666E+00 -0.21607513315E+01  0.31706739708E+01  0.10500000000E+00 0. -1.
         13    1    4    4    0    0  0.40180044679E+01 -0.79017709197E+00 -0.39107979984E+01  0.56634005443E+01  0.10500000000E+00 0.  1.
    3000001    1    5    5    0    0 -0.24606758407E+02  0.20215060152E+02  0.28259378145E+02  0.42587952162E+02  0.10000000000E+01 0.  1.
        -13    1    6    6    0    0 -0.63373312086E+01  0.46264164852E+01  0.32556399507E+01  0.84956290427E+01  0.10500000000E+00 0.  1.
         13    1    6    6    0    0 -0.86115820642E+01  0.61585651318E+01  0.42704021218E+01  0.11416419290E+02  0.10500000000E+00 0. -1.
</event>
<event>
11    0  0.3467594E-009  0.9118800E+02  0.7816531E-02  0.1126479E+00
         25   -1    0    0    0    0  0.00000000000E+00  0.00000000000E+00  0.99999998245E-14  0.12500000000E+03  0.12500000000E+03 0.  0.
    3000001    1    3    3    0    0  0.43907060682E+02 -0.84139121863E+00  0.39181935274E+02  0.58862228711E+02  0.10000000000E+01 0. -1.
    1000022    2    1    0    0    0  0.44456776147E+02 -0.80733358774E+00  0.42769070709E+02  0.62500000074E+02  0.99999933555E+01 0.  0.
    3000022    2    3    3    0    0  0.54971546417E+00  0.34057630889E-01  0.35871354342E+01  0.36377713633E+01  0.24998570835E+00 0.  0.
    1000022    2    1    0    0    0 -0.44456776147E+02  0.80733358774E+00 -0.42769070709E+02  0.62499999926E+02  0.99999924312E+01 0.  0.
    3000022    2    5    5    0    0 -0.24877571511E+02 -0.42295550645E+01 -0.21692110163E+02  0.33277512570E+02  0.24999835871E+00 0.  0.
        -13    1    4    4    0    0  0.34404129911E+00 -0.36627876059E-01  0.22851178461E+01  0.23135458905E+01  0.10500000000E+00 0. -1.
         13    1    4    4    0    0  0.20567416506E+00  0.70685506949E-01  0.13020175881E+01  0.13242254728E+01  0.10500000000E+00 0.  1.
    3000001    1    5    5    0    0 -0.19579204636E+02  0.50368886522E+01 -0.21076960545E+02  0.29222487357E+02  0.10000000000E+01 0. -1.
        -13    1    6    6    0    0 -0.15878588484E+02 -0.26926355187E+01 -0.13767686720E+02  0.21188206175E+02  0.10500000000E+00 0.  1.
         13    1    6    6    0    0 -0.89989830267E+01 -0.15369195457E+01 -0.79244234429E+01  0.12089306395E+02  0.10500000000E+00 0. -1.
</event>
<event>
11    0  0.3467594E-009  0.9118800E+02  0.7816531E-02  0.1126479E+00
         25   -1    0    0    0    0  0.00000000000E+00  0.00000000000E+00  0.99999998245E-14  0.12500000000E+03  0.12500000000E+03 0.  0.
    3000001    1    3    3    0    0  0.78361524666E+01  0.51486607375E+02 -0.23480534927E+02  0.57136779266E+02  0.10000000000E+01 0.  1.
    1000022    2    1    0    0    0  0.55708537621E+01  0.55920457557E+02 -0.25458161706E+02  0.62499999580E+02  0.99999982497E+01 0.  0.
    3000022    2    3    3    0    0 -0.22652987044E+01  0.44338501822E+01 -0.19776267793E+01  0.53632203137E+01  0.25003759130E+00 0.  0.
    1000022    2    1    0    0    0 -0.55708537621E+01 -0.55920457557E+02  0.25458161706E+02  0.62500000420E+02  0.10000003501E+02 0.  0.
    3000022    2    5    5    0    0 -0.16308566211E+01 -0.18743089079E+02  0.35216648346E+01  0.19142299842E+02  0.24987694303E+00 0.  0.
        -13    1    4    4    0    0 -0.16525914302E+01  0.33027103341E+01 -0.14644044747E+01  0.39742243837E+01  0.10500000000E+00 0.  1.
         13    1    4    4    0    0 -0.61270727422E+00  0.11311398480E+01 -0.51322230459E+00  0.13889959300E+01  0.10500000000E+00 0. -1.
    3000001    1    5    5    0    0 -0.39399971411E+01 -0.37177368478E+02  0.21936496872E+02  0.43357700578E+02  0.10000000000E+01 0.  1.
        -13    1    6    6    0    0 -0.91334830596E+00 -0.97185095140E+01  0.18302623333E+01  0.99319946391E+01  0.10500000000E+00 0. -1.
         13    1    6    6    0    0 -0.71750831510E+00 -0.90245795650E+01  0.16914025012E+01  0.92103052027E+01  0.10500000000E+00 0.  1.
</event>
<event>
11    0  0.3467594E-009  0.9118800E+02  0.7816531E-02  0.1126479E+00
         25   -1    0    0    0    0  0.00000000000E+00  0.00000000000E+00  0.99999998245E-14  0.12500000000E+03  0.12500000000E+03 0.  0.
    3000001    1    3    3    0    0  0.94636220246E+01  0.18275860439E+01  0.27781530612E+01  0.10080592592E+02  0.10000000000E+01 0.  1.
    1000022    2    1    0    0    0  0.48988459682E+02  0.30692050516E+02  0.21549453794E+02  0.62500000523E+02  0.99999979846E+01 0.  0.
    3000022    2    3    3    0    0  0.39524837658E+02  0.28864464472E+02  0.18771300732E+02  0.52419407931E+02  0.24999113700E+00 0.  0.
    1000022    2    1    0    0    0 -0.48988459682E+02 -0.30692050516E+02 -0.21549453794E+02  0.62499999477E+02  0.99999914452E+01 0.  0.
    3000022    2    5    5    0    0 -0.22245533777E+02 -0.19772886069E+02 -0.10941222242E+02  0.31711254539E+02  0.25004753921E+00 0.  0.
        -13    1    4    4    0    0  0.30278893275E+02  0.22122039458E+02  0.14371098112E+02  0.40158878143E+02  0.10500000000E+00 0. -1.
         13    1    4    4    0    0  0.92459443826E+01  0.67424250138E+01  0.44002026207E+01  0.12260529789E+02  0.10500000000E+00 0.  1.
    3000001    1    5    5    0    0 -0.26742925906E+02 -0.10919164447E+02 -0.10608231551E+02  0.30788744938E+02  0.10000000000E+01 0. -1.
        -13    1    6    6    0    0 -0.99470496277E+01 -0.88939388746E+01 -0.49625662614E+01  0.14236714294E+02  0.10500000000E+00 0. -1.
         13    1    6    6    0    0 -0.12298484149E+02 -0.10878947194E+02 -0.59786559810E+01  0.17474540244E+02  0.10500000000E+00 0.  1.
</event>
<event>
11    0  0.3467594E-009  0.9118800E+02  0.7816531E-02  0.1126479E+00
         25   -1    0    0    0    0  0.00000000000E+00  0.00000000000E+00  0.99999998245E-14  0.12500000000E+03  0.12500000000E+03 0.  0.
    3000001    1    3    3    0    0 -0.20406050179E+01 -0.24350831704E+01  0.10570820614E+02  0.11083137973E+02  0.10000000000E+01 0.  1.
    1000022    2    1    0    0    0  0.53647522444E+01 -0.25523691503E+02  0.55910736091E+02  0.62499998846E+02  0.10000002545E+02 0.  0.
    3000022    2    3    3    0    0  0.74053572623E+01 -0.23088608332E+02  0.45339915478E+02  0.51416860873E+02  0.24999115612E+00 0.  0.
    1000022    2    1    0    0    0 -0.53647522444E+01  0.25523691503E+02 -0.55910736091E+02  0.62500001154E+02  0.10000016972E+02 0.  0.
    3000022    2    5    5    0    0  0.12695832138E+01  0.56719702364E+01 -0.59444431678E+01  0.83175715970E+01  0.25000959246E+00 0.  0.
        -13    1    4    4    0    0  0.45284905684E+01 -0.13944242212E+02  0.27345132301E+02  0.31027671574E+02  0.10500000000E+00 0. -1.
         13    1    4    4    0    0  0.28768666939E+01 -0.91443661200E+01  0.17994783176E+02  0.20389189299E+02  0.10500000000E+00 0.  1.
    3000001    1    5    5    0    0 -0.66343354582E+01  0.19851721266E+02 -0.49966292924E+02  0.54182429557E+02  0.10000000000E+01 0. -1.
        -13    1    6    6    0    0  0.81869616154E+00  0.37789934701E+01 -0.38856694391E+01  0.54827463047E+01  0.10500000000E+00 0.  1.
         13    1    6    6    0    0  0.45088705228E+00  0.18929767663E+01 -0.20587737287E+01  0.28348252923E+01  0.10500000000E+00 0. -1.
</event>
<event>
11    0  0.3467594E-009  0.9118800E+02  0.7816531E-02  0.1126479E+00
         25   -1    0    0    0    0  0.00000000000E+00  0.00000000000E+00  0.99999998245E-14  0.12500000000E+03  0.12500000000E+03 0.  0.
    3000001    1    3    3    0    0 -0.16544462746E+02 -0.18801681520E+02 -0.14235428804E+02  0.28824814115E+02  0.10000000000E+01 0.  1.
    1000022    2    1    0    0    0 -0.36463661550E+02 -0.45069559770E+02 -0.21104172875E+02  0.62499998610E+02  0.99999940983E+01 0.  0.
    3000022    2    3    3    0    0 -0.19919198804E+02 -0.26267878250E+02 -0.68687440710E+01  0.33675184495E+02  0.24999374167E+00 0.  0.
    1000022    2    1    0    0    0  0.36463661550E+02  0.45069559770E+02  0.21104172875E+02  0.62500001390E+02  0.10000011478E+02 0.  0.
    3000022    2    5    5    0    0  0.45523689683E+01  0.47090775828E+01 -0.73591773320E+00  0.65957200301E+01  0.24994579721E+00 0.  0.
        -13    1    4    4    0    0 -0.89502294945E+01 -0.11841862058E+02 -0.31565090183E+01  0.15175996811E+02  0.10500000000E+00 0. -1.
         13    1    4    4    0    0 -0.10968969309E+02 -0.14426016192E+02 -0.37122350527E+01  0.18499187684E+02  0.10500000000E+00 0.  1.
    3000001    1    5    5    0    0  0.31911292582E+02  0.40360482187E+02  0.21840090609E+02  0.55904281360E+02  0.10000000000E+01 0.  1.
        -13    1    6    6    0    0  0.14233786614E+01  0.14407199873E+01 -0.18460399625E+00  0.20363655200E+01  0.10500000000E+00 0. -1.
         13    1    6    6    0    0  0.31289903069E+01  0.32683575954E+01 -0.55131373696E+00  0.45593545101E+01  0.10500000000E+00 0.  1.
</event>
<event>
11    0  0.3467594E-009  0.9118800E+02  0.7816531E-02  0.1126479E+00
         25   -1    0    0    0    0  0.00000000000E+00  0.00000000000E+00  0.99999998245E-14  0.12500000000E+03  0.12500000000E+03 0.  0.
    3000001    1    3    3    0    0  0.17691686580E+02 -0.43634842863E+02 -0.28243150489E+02  0.54915123921E+02  0.10000000000E+01 0. -1.
    1000022    2    1    0    0    0  0.16485100246E+02 -0.50134566241E+02 -0.31953349492E+02  0.62499999004E+02  0.10000003473E+02 0.  0.
    3000022    2    3    3    0    0 -0.12065863335E+01 -0.64997233774E+01 -0.37101990024E+01  0.75848750824E+01  0.24999762728E+00 0.  0.
    1000022    2    1    0    0    0 -0.16485100246E+02  0.50134566241E+02  0.31953349492E+02  0.62500000996E+02  0.10000015926E+02 0.  0.
    3000022    2    5    5    0    0 -0.64035747757E+01  0.15188462748E+02  0.15276968256E+02  0.22475396110E+02  0.25000136226E+00 0.  0.
        -13    1    4    4    0    0 -0.92252492683E+00 -0.47929825880E+01 -0.27427560915E+01  0.55997741300E+01  0.10500000000E+00 0. -1.
         13    1    4    4    0    0 -0.28406140669E+00 -0.17067407894E+01 -0.96744291093E+00  0.19851009523E+01  0.10500000000E+00 0.  1.
    3000001    1    5    5    0    0 -0.10081525471E+02  0.34946103493E+02  0.16676381236E+02  0.40024604886E+02  0.10000000000E+01 0. -1.
        -13    1    6    6    0    0 -0.43176672497E+01  0.10293695110E+02  0.10409260998E+02  0.15263228656E+02  0.10500000000E+00 0. -1.
         13    1    6    6    0    0 -0.20859075260E+01  0.48947676379E+01  0.48677072578E+01  0.72121674540E+01  0.10500000000E+00 0.  1.
</event>
<event>
11    0  0.3467594E-009  0.9118800E+02  0.7816531E-02  0.1126479E+00
         25   -1    0    0    0    0  0.00000000000E+00  0.00000000000E+00  0.99999998245E-14  0.12500000000E+03  0.12500000000E+03 0.  0.
    3000001    1    3    3    0    0  0.39733168175E+02 -0.10353649126E+01  0.25203650871E+02  0.47074628527E+02  0.10000000000E+01 0. -1.
    1000022    2    1    0    0    0  0.49095037261E+02 -0.36094187077E+01  0.37187356960E+02  0.62500000032E+02  0.99999949635E+01 0.  0.
    3000022    2    3    3    0    0  0.93618690857E+01 -0.25740537950E+01  0.11983706089E+02  0.15425371505E+02  0.25005742877E+00 0.  0.
    1000022    2    1    0    0    0 -0.49095037261E+02  0.36094187077E+01 -0.37187356960E+02  0.62499999968E+02  0.99999945640E+01 0.  0.
    3000022    2    5    5    0    0 -0.77891136251E+01  0.42135461326E+01 -0.55128289547E+01  0.10434464134E+02  0.24999319876E+00 0.  0.
        -13    1    4    4    0    0  0.28607906562E+01 -0.74318004078E+00  0.36835849771E+01  0.47240092120E+01  0.10500000000E+00 0. -1.
         13    1    4    4    0    0  0.65010784295E+01 -0.18308737542E+01  0.83001211117E+01  0.10701362293E+02  0.10500000000E+00 0.  1.
    3000001    1    5    5    0    0 -0.41305923636E+02 -0.60412742489E+00 -0.31674528005E+02  0.52065535834E+02  0.10000000000E+01 0. -1.
        -13    1    6    6    0    0 -0.43176554810E+01  0.23317243523E+01 -0.29763013808E+01  0.57400768476E+01  0.10500000000E+00 0.  1.
         13    1    6    6    0    0 -0.34714581441E+01  0.18818217802E+01 -0.25365275739E+01  0.46943872861E+01  0.10500000000E+00 0. -1.
</event>
<event>
11    0  0.3467594E-009  0.9118800E+02  0.7816531E-02  0.1126479E+00
         25   -1    0    0    0    0  0.00000000000E+00  0.00000000000E+00  0.99999998245E-14  0.12500000000E+03  0.12500000000E+03 0.  0.
    3000001    1    3    3    0    0 -0.32126766463E+02  0.23153966357E+02 -0.66788080174E+01  0.40172649377E+02  0.10000000000E+01 0. -1.
    1000022    2    1    0    0    0 -0.53361346536E+02  0.29548336448E+02 -0.92581082011E+01  0.62500001418E+02  0.10000005943E+02 0.  0.
    3000022    2    3    3    0    0 -0.21234580072E+02  0.63943700903E+01 -0.25793001837E+01  0.22327352041E+02  0.25000000742E+00 0.  0.
    1000022    2    1    0    0    0  0.53361346536E+02 -0.29548336448E+02  0.92581082011E+01  0.62499998582E+02  0.99999882173E+01 0.  0.
    3000022    2    5    5    0    0  0.44876337902E+02 -0.28210319504E+02  0.64008529900E+01  0.53392333228E+02  0.24999701116E+00 0.  0.
        -13    1    4    4    0    0 -0.14981199312E+02  0.44739421251E+01 -0.18449287200E+01  0.15743801254E+02  0.10500000000E+00 0. -1.
         13    1    4    4    0    0 -0.62533807609E+01  0.19204279652E+01 -0.73437146372E+00  0.65835507864E+01  0.10500000000E+00 0.  1.
    3000001    1    5    5    0    0  0.84850086342E+01 -0.13380169432E+01  0.28572552111E+01  0.91076653542E+01  0.10000000000E+01 0. -1.
        -13    1    6    6    0    0  0.13857500173E+02 -0.86735572500E+01  0.19379338702E+01  0.16462913445E+02  0.10500000000E+00 0. -1.
         13    1    6    6    0    0  0.31018837729E+02 -0.19536762254E+02  0.44629191198E+01  0.36929419783E+02  0.10500000000E+00 0.  1.
</event>
<event>
11    0  0.3467594E-009  0.9118800E+02  0.7816531E-02  0.1126479E+00
         25   -1    0    0    0    0  0.00000000000E+00  0.00000000000E+00  0.99999998245E-14  0.12500000000E+03  0.12500000000E+03 0.  0.
    3000001    1    3    3    0    0  0.14225671141E+02  0.45412099765E+02  0.21135346791E+02  0.52080048084E+02  0.10000000000E+01 0. -1.
    1000022    2    1    0    0    0  0.13929216542E+02  0.55736826558E+02  0.22486285666E+02  0.62500000293E+02  0.10000004268E+02 0.  0.
    3000022    2    3    3    0    0 -0.29645459836E+00  0.10324726793E+02  0.13509388757E+01  0.10419952210E+02  0.24999903823E+00 0.  0.
    1000022    2    1    0    0    0 -0.13929216542E+02 -0.55736826558E+02 -0.22486285666E+02  0.62499999707E+02  0.10000000601E+02 0.  0.
    3000022    2    5    5    0    0 -0.71932950318E+01 -0.33226275779E+02 -0.81616821181E+01  0.34962901062E+02  0.25000017858E+00 0.  0.
        -13    1    4    4    0    0 -0.15588921196E+00  0.58661768941E+01  0.70246950555E+00  0.59110761461E+01  0.10500000000E+00 0.  1.
         13    1    4    4    0    0 -0.14056538640E+00  0.44585498992E+01  0.64846937016E+00  0.45088760635E+01  0.10500000000E+00 0. -1.
    3000001    1    5    5    0    0 -0.67359215105E+01 -0.22510550779E+02 -0.14324603548E+02  0.27537098645E+02  0.10000000000E+01 0. -1.
        -13    1    6    6    0    0 -0.35704765693E+01 -0.16182343401E+02 -0.39959533804E+01  0.17046853355E+02  0.10500000000E+00 0.  1.
         13    1    6    6    0    0 -0.36228184625E+01 -0.17043932378E+02 -0.41657287377E+01  0.17916047707E+02  0.10500000000E+00 0. -1.
</event>
<event>
11    0  0.3467594E-009  0.9118800E+02  0.7816531E-02  0.1126479E+00
         25   -1    0    0    0    0  0.00000000000E+00  0.00000000000E+00  0.99999998245E-14  0.12500000000E+03  0.12500000000E+03 0.  0.
    3000001    1    3    3    0    0  0.30546112866E+02 -0.65927803095E+00  0.27671467630E+02  0.41233600129E+02  0.10000000000E+01 0.  1.
    1000022    2    1    0    0    0  0.46309882562E+02 -0.78494601421E+01  0.40000380227E+02  0.62499999381E+02  0.10000012845E+02 0.  0.
    3000022    2    3    3    0    0  0.15763769696E+02 -0.71901821111E+01  0.12328912596E+02  0.21266399252E+02  0.24999505908E+00 0.  0.
    1000022    2    1    0    0    0 -0.46309882562E+02  0.78494601421E+01 -0.40000380227E+02  0.62500000619E+02  0.10000020582E+02 0.  0.
    3000022    2    5    5    0    0 -0.57805002745E+00 -0.10560269527E+01 -0.26502643925E+00  0.12578048060E+01  0.24999831477E+00 0.  0.
        -13    1    4    4    0    0  0.57337929351E+01 -0.26239084096E+01  0.45586806230E+01  0.77816367679E+01  0.10500000000E+00 0. -1.
         13    1    4    4    0    0  0.10029976761E+02 -0.45662737015E+01  0.77702319734E+01  0.13484762484E+02  0.10500000000E+00 0.  1.
    3000001    1    5    5    0    0 -0.45731832535E+02  0.89054870948E+01 -0.39735353787E+02  0.61242195813E+02  0.10000000000E+01 0.  1.
        -13    1    6    6    0    0 -0.16881114679E+00 -0.27960010089E+00 -0.11077177615E+00  0.36051186678E+00  0.10500000000E+00 0.  1.
         13    1    6    6    0    0 -0.40923888066E+00 -0.77642685179E+00 -0.15425466310E+00  0.89729293919E+00  0.10500000000E+00 0. -1.
</event>
<event>
11    0  0.3467594E-009  0.9118800E+02  0.7816531E-02  0.1126479E+00
         25   -1    0    0    0    0  0.00000000000E+00  0.00000000000E+00  0.99999998245E-14  0.12500000000E+03  0.12500000000E+03 0.  0.
    3000001    1    3    3    0    0  0.70507423762E+01 -0.10258429739E+01  0.23609773496E+02  0.24681708336E+02  0.10000000000E+01 0. -1.
    1000022    2    1    0    0    0  0.27894719451E+02  0.24253872880E+01  0.54975013951E+02  0.62499999956E+02  0.99999979426E+01 0.  0.
    3000022    2    3    3    0    0  0.20843977075E+02  0.34512302619E+01  0.31365240456E+02  0.37818291621E+02  0.25000326853E+00 0.  0.
    1000022    2    1    0    0    0 -0.27894719451E+02 -0.24253872880E+01 -0.54975013951E+02  0.62500000044E+02  0.99999984869E+01 0.  0.
    3000022    2    5    5    0    0 -0.18272584723E+02  0.27571029186E+01 -0.30249982716E+02  0.35448736652E+02  0.25001393370E+00 0.  0.
        -13    1    4    4    0    0  0.81651178787E+01  0.13100008142E+01  0.12359900643E+02  0.14871564175E+02  0.10500000000E+00 0. -1.
         13    1    4    4    0    0  0.12678859196E+02  0.21412294477E+01  0.19005339813E+02  0.22946727446E+02  0.10500000000E+00 0.  1.
    3000001    1    5    5    0    0 -0.96221347279E+01 -0.51824902066E+01 -0.24725031235E+02  0.27051263391E+02  0.10000000000E+01 0.  1.
        -13    1    6    6    0    0 -0.12517947778E+02  0.18962090216E+01 -0.20818143910E+02  0.24365975582E+02  0.10500000000E+00 0.  1.
         13    1    6    6    0    0 -0.57546369453E+01  0.86089389701E+00 -0.94318388061E+01  0.11082761070E+02  0.10500000000E+00 0. -1.
</event>
<event>
11    0  0.3467594E-009  0.9118800E+02  0.7816531E-02  0.1126479E+00
         25   -1    0    0    0    0  0.00000000000E+00  0.00000000000E+00  0.99999998245E-14  0.12500000000E+03  0.12500000000E+03 0.  0.
    3000001    1    3    3    0    0 -0.43185330140E+02  0.35677122346E+02  0.12264197488E+02  0.57351899168E+02  0.10000000000E+01 0. -1.
    1000022    2    1    0    0    0 -0.47491472430E+02  0.37930940852E+02  0.10585541409E+02  0.62500000268E+02  0.10000005951E+02 0.  0.
    3000022    2    3    3    0    0 -0.43061422904E+01  0.22538185061E+01 -0.16786560784E+01  0.51481010996E+01  0.24999883614E+00 0.  0.
    1000022    2    1    0    0    0  0.47491472430E+02 -0.37930940852E+02 -0.10585541409E+02  0.62499999732E+02  0.10000002603E+02 0.  0.
    3000022    2    5    5    0    0  0.20843822076E+02 -0.22867123109E+02 -0.43846040994E+01  0.31251519802E+02  0.24999766174E+00 0.  0.
        -13    1    4    4    0    0 -0.29184979834E+01  0.14862132521E+01 -0.11695746842E+01  0.34792801341E+01  0.10500000000E+00 0.  1.
         13    1    4    4    0    0 -0.13876443071E+01  0.76760525407E+00 -0.50908139424E+00  0.16688209655E+01  0.10500000000E+00 0. -1.
    3000001    1    5    5    0    0  0.26647650354E+02 -0.15063817744E+02 -0.62009373099E+01  0.31248479930E+02  0.10000000000E+01 0.  1.
        -13    1    6    6    0    0  0.11138649109E+02 -0.12287492070E+02 -0.23002148174E+01  0.16743774322E+02  0.10500000000E+00 0. -1.
         13    1    6    6    0    0  0.97051729670E+01 -0.10579631039E+02 -0.20843892820E+01  0.14507745480E+02  0.10500000000E+00 0.  1.
</event>
<event>
11    0  0.3467594E-009  0.9118800E+02  0.7816531E-02  0.1126479E+00
         25   -1    0    0    0    0  0.00000000000E+00  0.00000000000E+00  0.99999998245E-14  0.12500000000E+03  0.12500000000E+03 0.  0.
    3000001    1    3    3    0    0 -0.10092701891E+02 -0.44806835666E+02 -0.24442057945E+02  0.52037768500E+02  0.10000000000E+01 0.  1.
    1000022    2    1    0    0    0 -0.12215026604E+02 -0.50874655340E+02 -0.32692698724E+02  0.62499999333E+02  0.99999967914E+01 0.  0.
    3000022    2    3    3    0    0 -0.21223247133E+01 -0.60678196737E+01 -0.82506407794E+01  0.10462230833E+02  0.25000589416E+00 0.  0.
    1000022    2    1    0    0    0  0.12215026604E+02  0.50874655340E+02  0.32692698724E+02  0.62500000667E+02  0.10000005129E+02 0.  0.
    3000022    2    5    5    0    0  0.36704617338E+01  0.33770926222E+01  0.32692864838E+01  0.59689009001E+01  0.24999984851E+00 0.  0.
        -13    1    4    4    0    0 -0.64473919875E+00 -0.19116328690E+01 -0.25200882258E+01  0.32298449693E+01  0.10500000000E+00 0. -1.
         13    1    4    4    0    0 -0.14775855145E+01 -0.41561868047E+01 -0.57305525537E+01  0.72323858635E+01  0.10500000000E+00 0.  1.
    3000001    1    5    5    0    0  0.85445648702E+01  0.47497562718E+02  0.29423412241E+02  0.56531099767E+02  0.10000000000E+01 0.  1.
        -13    1    6    6    0    0  0.18847283411E+01  0.17857950049E+01  0.17683351283E+01  0.31431351936E+01  0.10500000000E+00 0.  1.
         13    1    6    6    0    0  0.17857333928E+01  0.15912976173E+01  0.15009513555E+01  0.28257657065E+01  0.10500000000E+00 0. -1.
</event>
<event>
11    0  0.3467594E-009  0.9118800E+02  0.7816531E-02  0.1126479E+00
         25   -1    0    0    0    0  0.00000000000E+00  0.00000000000E+00  0.99999998245E-14  0.12500000000E+03  0.12500000000E+03 0.  0.
    3000001    1    3    3    0    0  0.33106994454E+02  0.31873116015E+02  0.33573363145E+02  0.56922221664E+02  0.10000000000E+01 0.  1.
    1000022    2    1    0    0    0  0.34182193925E+02  0.33760511782E+02  0.38704718600E+02  0.62500000849E+02  0.10000016346E+02 0.  0.
    3000022    2    3    3    0    0  0.10751994707E+01  0.18873957668E+01  0.51313554554E+01  0.55777791851E+01  0.24999029172E+00 0.  0.
    1000022    2    1    0    0    0 -0.34182193925E+02 -0.33760511782E+02 -0.38704718600E+02  0.62499999151E+02  0.10000005734E+02 0.  0.
    3000022    2    5    5    0    0 -0.63109322298E+01 -0.12082267419E+02 -0.12748057294E+02  0.18665061336E+02  0.24999657996E+00 0.  0.
        -13    1    4    4    0    0  0.81404832090E+00  0.13524852390E+01  0.37107959385E+01  0.40339710569E+01  0.10500000000E+00 0.  1.
         13    1    4    4    0    0  0.26115114979E+00  0.53491052779E+00  0.14205595168E+01  0.15438081282E+01  0.10500000000E+00 0. -1.
    3000001    1    5    5    0    0 -0.27871261695E+02 -0.21678244363E+02 -0.25956661306E+02  0.43834937815E+02  0.10000000000E+01 0.  1.
        -13    1    6    6    0    0 -0.45975168791E+01 -0.88219615329E+01 -0.93502858257E+01  0.13652949746E+02  0.10500000000E+00 0. -1.
         13    1    6    6    0    0 -0.17134153507E+01 -0.32603058862E+01 -0.33977714687E+01  0.50121115898E+01  0.10500000000E+00 0.  1.
</event>
<event>
11    0  0.3467594E-009  0.9118800E+02  0.7816531E-02  0.1126479E+00
         25   -1    0    0    0    0  0.00000000000E+00  0.00000000000E+00  0.99999998245E-14  0.12500000000E+03  0.12500000000E+03 0.  0.
    3000001    1    3    3    0    0  0.15284675545E+02 -0.61068107056E+01 -0.37177579650E+00  0.16494018939E+02  0.10000000000E+01 0.  1.
    1000022    2    1    0    0    0  0.54213131678E+02 -0.23797836415E+02 -0.17345010827E+02  0.62500000021E+02  0.99999968829E+01 0.  0.
    3000022    2    3    3    0    0  0.38928456134E+02 -0.17691025709E+02 -0.16973235030E+02  0.46005981083E+02  0.25000077228E+00 0.  0.
    1000022    2    1    0    0    0 -0.54213131678E+02  0.23797836415E+02  0.17345010827E+02  0.62499999979E+02  0.99999966161E+01 0.  0.
    3000022    2    5    5    0    0 -0.25208909083E+02  0.78328095413E+01  0.36196082873E+01  0.26645939033E+02  0.25000062370E+00 0.  0.
        -13    1    4    4    0    0  0.20797164026E+02 -0.95108199504E+01 -0.90347231656E+01  0.24588919768E+02  0.10500000000E+00 0.  1.
         13    1    4    4    0    0  0.18131292107E+02 -0.81802057590E+01 -0.79385118647E+01  0.21417061315E+02  0.10500000000E+00 0. -1.
    3000001    1    5    5    0    0 -0.29004222595E+02  0.15965026874E+02  0.13725402540E+02  0.35854060946E+02  0.10000000000E+01 0.  1.
        -13    1    6    6    0    0 -0.13230569759E+02  0.40402910965E+01  0.19001712773E+01  0.13964011035E+02  0.10500000000E+00 0. -1.
         13    1    6    6    0    0 -0.11978339324E+02  0.37925184447E+01  0.17194370100E+01  0.12681927998E+02  0.10500000000E+00 0.  1.
</event>
<event>
11    0  0.3467594E-009  0.9118800E+02  0.7816531E-02  0.1126479E+00
         25   -1    0    0    0    0  0.00000000000E+00  0.00000000000E+00  0.99999998245E-14  0.12500000000E+03  0.12500000000E+03 0.  0.
    3000001    1    3    3    0    0 -0.20890003494E+01 -0.18905492776E+01  0.17164163671E+02  0.17422589175E+02  0.10000000000E+01 0. -1.
    1000022    2    1    0    0    0 -0.22282774799E+02 -0.31103357052E+01  0.57446101096E+02  0.62500004595E+02  0.99999901134E+01 0.  0.
    3000022    2    3    3    0    0 -0.20193774450E+02 -0.12197864276E+01  0.40281937425E+02  0.45077415420E+02  0.24998554418E+00 0.  0.
    1000022    2    1    0    0    0  0.22282774799E+02  0.31103357052E+01 -0.57446101096E+02  0.62499995405E+02  0.99999326782E+01 0.  0.
    3000022    2    5    5    0    0  0.14272805863E+02  0.63056146689E+01 -0.41612759363E+02  0.44442749755E+02  0.25000098153E+00 0.  0.
        -13    1    4    4    0    0 -0.11862281590E+02 -0.69896818324E+00  0.23522283738E+02  0.26353579231E+02  0.10500000000E+00 0. -1.
         13    1    4    4    0    0 -0.83314928598E+01 -0.52081824438E+00  0.16759653687E+02  0.18723836189E+02  0.10500000000E+00 0.  1.
    3000001    1    5    5    0    0  0.80099689360E+01 -0.31952789636E+01 -0.15833341733E+02  0.18057245650E+02  0.10000000000E+01 0.  1.
        -13    1    6    6    0    0  0.66632877219E+01  0.29092335960E+01 -0.19220952419E+02  0.20550403409E+02  0.10500000000E+00 0.  1.
         13    1    6    6    0    0  0.76095181412E+01  0.33963810728E+01 -0.22391806944E+02  0.23892346347E+02  0.10500000000E+00 0. -1.
</event>
<event>
11    0  0.3467594E-009  0.9118800E+02  0.7816531E-02  0.1126479E+00
         25   -1    0    0    0    0  0.00000000000E+00  0.00000000000E+00  0.99999998245E-14  0.12500000000E+03  0.12500000000E+03 0.  0.
    3000001    1    3    3    0    0  0.44069280524E+01  0.15869612126E+02 -0.21645006116E+02  0.27217125007E+02  0.10000000000E+01 0. -1.
    1000022    2    1    0    0    0  0.13801135617E+02  0.26673330902E+02 -0.53891668343E+02  0.62499999048E+02  0.10000001925E+02 0.  0.
    3000022    2    3    3    0    0  0.93942075646E+01  0.10803718776E+02 -0.32246662227E+02  0.35282874041E+02  0.25000130900E+00 0.  0.
    1000022    2    1    0    0    0 -0.13801135617E+02 -0.26673330902E+02  0.53891668343E+02  0.62500000952E+02  0.10000013821E+02 0.  0.
    3000022    2    5    5    0    0 -0.64682422342E+01 -0.20327439039E+02  0.31129009106E+02  0.37737522795E+02  0.24996662903E+00 0.  0.
        -13    1    4    4    0    0  0.29883238634E+01  0.34083060976E+01 -0.10325608089E+02  0.11277226493E+02  0.10500000000E+00 0. -1.
         13    1    4    4    0    0  0.64058837011E+01  0.73954126784E+01 -0.21921054139E+02  0.24005647549E+02  0.10500000000E+00 0.  1.
    3000001    1    5    5    0    0 -0.73328933827E+01 -0.63458918634E+01  0.22762659238E+02  0.24762478157E+02  0.10000000000E+01 0. -1.
        -13    1    6    6    0    0 -0.28273035989E+01 -0.88826322909E+01  0.13486677602E+02  0.16395008380E+02  0.10500000000E+00 0. -1.
         13    1    6    6    0    0 -0.36409386354E+01 -0.11444806748E+02  0.17642331504E+02  0.21342514414E+02  0.10500000000E+00 0.  1.
</event>
<event>
11    0  0.3467594E-009  0.9118800E+02  0.7816531E-02  0.1126479E+00
         25   -1    0    0    0    0  0.00000000000E+00  0.00000000000E+00  0.99999998245E-14  0.12500000000E+03  0.12500000000E+03 0.  0.
    3000001    1    3    3    0    0  0.28698197083E+01  0.22479468746E+02 -0.45070093728E+01  0.23127375851E+02  0.10000000000E+01 0. -1.
    1000022    2    1    0    0    0  0.14538788404E+02  0.55803976570E+02 -0.21926917379E+02  0.62499997639E+02  0.99999914941E+01 0.  0.
    3000022    2    3    3    0    0  0.11668968696E+02  0.33324507824E+02 -0.17419908007E+02  0.39372621789E+02  0.24999882319E+00 0.  0.
    1000022    2    1    0    0    0 -0.14538788404E+02 -0.55803976570E+02  0.21926917379E+02  0.62500002361E+02  0.10000021002E+02 0.  0.
    3000022    2    5    5    0    0 -0.68747804205E+00 -0.21537163325E+02  0.77264448295E+01  0.22892847586E+02  0.24998147273E+00 0.  0.
        -13    1    4    4    0    0  0.45890189130E+01  0.13189306298E+02 -0.68272489683E+01  0.15544749875E+02  0.10500000000E+00 0.  1.
         13    1    4    4    0    0  0.70799497832E+01  0.20135201526E+02 -0.10592659038E+02  0.23827871913E+02  0.10500000000E+00 0. -1.
    3000001    1    5    5    0    0 -0.13851310362E+02 -0.34266813244E+02  0.14200472550E+02  0.39607154774E+02  0.10000000000E+01 0. -1.
        -13    1    6    6    0    0 -0.40735422689E+00 -0.14143771072E+02  0.51089481533E+01  0.15044087670E+02  0.10500000000E+00 0. -1.
         13    1    6    6    0    0 -0.28012381516E+00 -0.73933922536E+01  0.26174966762E+01  0.78487599159E+01  0.10500000000E+00 0.  1.
</event>
<event>
11    0  0.3467594E-009  0.9118800E+02  0.7816531E-02  0.1126479E+00
         25   -1    0    0    0    0  0.00000000000E+00  0.00000000000E+00  0.99999998245E-14  0.12500000000E+03  0.12500000000E+03 0.  0.
    3000001    1    3    3    0    0 -0.10276114987E+02  0.33517447561E+02 -0.21110716077E+02  0.40935072536E+02  0.10000000000E+01 0.  1.
    1000022    2    1    0    0    0 -0.17233085021E+02  0.46147585872E+02 -0.37143924964E+02  0.62500000750E+02  0.10000001541E+02 0.  0.
    3000022    2    3    3    0    0 -0.69569700334E+01  0.12630138311E+02 -0.16033208887E+02  0.21564928214E+02  0.25003167845E+00 0.  0.
    1000022    2    1    0    0    0  0.17233085021E+02 -0.46147585872E+02  0.37143924964E+02  0.62499999250E+02  0.99999921710E+01 0.  0.
    3000022    2    5    5    0    0  0.31601414072E+01 -0.10794701467E+02  0.37362947151E+01  0.11854723690E+02  0.25000420625E+00 0.  0.
        -13    1    4    4    0    0 -0.26423858780E+01  0.47163254053E+01 -0.59429785521E+01  0.80346715880E+01  0.10500000000E+00 0.  1.
         13    1    4    4    0    0 -0.43145841554E+01  0.79138129058E+01 -0.10090230335E+02  0.13530256626E+02  0.10500000000E+00 0. -1.
    3000001    1    5    5    0    0  0.14072943614E+02 -0.35352884405E+02  0.33407630249E+02  0.50645275560E+02  0.10000000000E+01 0.  1.
        -13    1    6    6    0    0  0.99506189398E+00 -0.32689853675E+01  0.11662955358E+01  0.36121577738E+01  0.10500000000E+00 0. -1.
         13    1    6    6    0    0  0.21650795133E+01 -0.75257160992E+01  0.25699991792E+01  0.82425659164E+01  0.10500000000E+00 0.  1.
</event>
<event>
11    0  0.3467594E-009  0.9118800E+02  0.7816531E-02  0.1126479E+00
         25   -1    0    0    0    0  0.00000000000E+00  0.00000000000E+00  0.99999998245E-14  0.12500000000E+03  0.12500000000E+03 0.  0.
    3000001    1    3    3    0    0  0.19504187038E+01  0.15412229759E+02  0.26736077354E+02  0.30937982991E+02  0.10000000000E+01 0. -1.
    1000022    2    1    0    0    0  0.11063672281E+02  0.24314406841E+02  0.55611639944E+02  0.62499997468E+02  0.99999980945E+01 0.  0.
    3000022    2    3    3    0    0  0.91132535770E+01  0.89021770819E+01  0.28875562590E+02  0.31562014477E+02  0.24999083616E+00 0.  0.
    1000022    2    1    0    0    0 -0.11063672281E+02 -0.24314406841E+02 -0.55611639944E+02  0.62500002532E+02  0.10000029746E+02 0.  0.
    3000022    2    5    5    0    0  0.77452327806E+00 -0.40458366648E+01 -0.15250779701E+02  0.15799286792E+02  0.25000206829E+00 0.  0.
        -13    1    4    4    0    0  0.35895090612E+01  0.35623073915E+01  0.11343511245E+02  0.12420180419E+02  0.10500000000E+00 0.  1.
         13    1    4    4    0    0  0.55237445158E+01  0.53398696904E+01  0.17532051344E+02  0.19141834058E+02  0.10500000000E+00 0. -1.
    3000001    1    5    5    0    0 -0.11838195559E+02 -0.20268570176E+02 -0.40360860243E+02  0.46700715740E+02  0.10000000000E+01 0. -1.
        -13    1    6    6    0    0  0.22235841464E+00 -0.10908989950E+01 -0.42635026403E+01  0.44077186441E+01  0.10500000000E+00 0.  1.
         13    1    6    6    0    0  0.55216486342E+00 -0.29549376698E+01 -0.10987277061E+02  0.11391568148E+02  0.10500000000E+00 0. -1.
</event>
<event>
11    0  0.3467594E-009  0.9118800E+02  0.7816531E-02  0.1126479E+00
         25   -1    0    0    0    0  0.00000000000E+00  0.00000000000E+00  0.99999998245E-14  0.12500000000E+03  0.12500000000E+03 0.  0.
    3000001    1    3    3    0    0  0.22330678480E+02 -0.14310059709E+02 -0.77979462172E+01  0.27663061571E+02  0.10000000000E+01 0.  1.
    1000022    2    1    0    0    0  0.54849527998E+02 -0.22152623809E+02 -0.17522574971E+02  0.62500000103E+02  0.99999957998E+01 0.  0.
    3000022    2    3    3    0    0  0.32518849518E+02 -0.78425641001E+01 -0.97246287542E+01  0.34836938532E+02  0.24999250255E+00 0.  0.
    1000022    2    1    0    0    0 -0.54849527998E+02  0.22152623809E+02  0.17522574971E+02  0.62499999897E+02  0.99999945145E+01 0.  0.
    3000022    2    5    5    0    0 -0.21713867455E+02  0.99619317852E+01  0.21801142790E+01  0.23990571548E+02  0.25000042255E+00 0.  0.
        -13    1    4    4    0    0  0.12522917257E+02 -0.30829901823E+01 -0.37565165908E+01  0.13433194966E+02  0.10500000000E+00 0.  1.
         13    1    4    4    0    0  0.19995932260E+02 -0.47595739177E+01 -0.59681121634E+01  0.21403743566E+02  0.10500000000E+00 0. -1.
    3000001    1    5    5    0    0 -0.33135660543E+02  0.12190692024E+02  0.15342460692E+02  0.38509428349E+02  0.10000000000E+01 0. -1.
        -13    1    6    6    0    0 -0.70888573343E+01  0.32307230331E+01  0.66251305050E+00  0.78191699153E+01  0.10500000000E+00 0.  1.
         13    1    6    6    0    0 -0.14625010121E+02  0.67312087522E+01  0.15176012285E+01  0.16171401633E+02  0.10500000000E+00 0. -1.
</event>
<event>
11    0  0.3467594E-009  0.9118800E+02  0.7816531E-02  0.1126479E+00
         25   -1    0    0    0    0  0.00000000000E+00  0.00000000000E+00  0.99999998245E-14  0.12500000000E+03  0.12500000000E+03 0.  0.
    3000001    1    3    3    0    0 -0.37300715518E+02 -0.11984999656E+02  0.24250908054E+01  0.39266584526E+02  0.10000000000E+01 0.  1.
    1000022    2    1    0    0    0 -0.55977392416E+02 -0.24809945524E+02  0.75662559860E+01  0.62499999622E+02  0.99999932288E+01 0.  0.
    3000022    2    3    3    0    0 -0.18676676898E+02 -0.12824945867E+02  0.51411651807E+01  0.23233415097E+02  0.25000236064E+00 0.  0.
    1000022    2    1    0    0    0  0.55977392416E+02  0.24809945524E+02 -0.75662559860E+01  0.62500000378E+02  0.99999979482E+01 0.  0.
    3000022    2    5    5    0    0  0.48725627493E+02  0.24836733805E+02 -0.60553454500E+01  0.55025265415E+02  0.25000957982E+00 0.  0.
        -13    1    4    4    0    0 -0.81284533053E+01 -0.55172477625E+01  0.21895234019E+01  0.10065625353E+02  0.10500000000E+00 0.  1.
         13    1    4    4    0    0 -0.10548223593E+02 -0.73076981049E+01  0.29516417788E+01  0.13167789744E+02  0.10500000000E+00 0. -1.
    3000001    1    5    5    0    0  0.72517649233E+01 -0.26788281416E-01 -0.15109105360E+01  0.74747349627E+01  0.10000000000E+01 0. -1.
        -13    1    6    6    0    0  0.28655575491E+02  0.14663466418E+02 -0.35245877806E+01  0.32381985704E+02  0.10500000000E+00 0.  1.
         13    1    6    6    0    0  0.20070052002E+02  0.10173267387E+02 -0.25307576694E+01  0.22643279711E+02  0.10500000000E+00 0. -1.
</event>
<event>
11    0  0.3467594E-009  0.9118800E+02  0.7816531E-02  0.1126479E+00
         25   -1    0    0    0    0  0.00000000000E+00  0.00000000000E+00  0.99999998245E-14  0.12500000000E+03  0.12500000000E+03 0.  0.
    3000001    1    3    3    0    0 -0.21814931718E+02  0.29423517206E+02 -0.24921864336E+01  0.36726633441E+02  0.10000000000E+01 0.  1.
    1000022    2    1    0    0    0 -0.39786874168E+02  0.47054775012E+02  0.30170763041E+01  0.62500000224E+02  0.10000003558E+02 0.  0.
    3000022    2    3    3    0    0 -0.17971942449E+02  0.17631257806E+02  0.55092627376E+01  0.25773366784E+02  0.24998448331E+00 0.  0.
    1000022    2    1    0    0    0  0.39786874168E+02 -0.47054775012E+02 -0.30170763041E+01  0.62499999776E+02  0.10000000755E+02 0.  0.
    3000022    2    5    5    0    0  0.28300979101E+02 -0.39533571503E+02 -0.14065008706E+01  0.48640409560E+02  0.25000733642E+00 0.  0.
        -13    1    4    4    0    0 -0.57185764145E+01  0.55422336005E+01  0.17307014853E+01  0.81501424602E+01  0.10500000000E+00 0. -1.
         13    1    4    4    0    0 -0.12253366035E+02  0.12089024205E+02  0.37785612523E+01  0.17623224323E+02  0.10500000000E+00 0.  1.
    3000001    1    5    5    0    0  0.11485895067E+02 -0.75212035090E+01 -0.16105754334E+01  0.13859590215E+02  0.10000000000E+01 0.  1.
        -13    1    6    6    0    0  0.19955067538E+02 -0.27927537736E+02 -0.10249096669E+01  0.34339678934E+02  0.10500000000E+00 0.  1.
         13    1    6    6    0    0  0.83459115623E+01 -0.11606033766E+02 -0.38159120377E+00  0.14300730626E+02  0.10500000000E+00 0. -1.
</event>
<event>
11    0  0.3467594E-009  0.9118800E+02  0.7816531E-02  0.1126479E+00
         25   -1    0    0    0    0  0.00000000000E+00  0.00000000000E+00  0.99999998245E-14  0.12500000000E+03  0.12500000000E+03 0.  0.
    3000001    1    3    3    0    0  0.27057020808E+02  0.31031514866E+02 -0.17944025062E+02  0.44922436769E+02  0.10000000000E+01 0.  1.
    1000022    2    1    0    0    0  0.41600217966E+02  0.38417650456E+02 -0.24489915530E+02  0.62500001002E+02  0.10000008064E+02 0.  0.
    3000022    2    3    3    0    0  0.14543197158E+02  0.73861355903E+01 -0.65458904683E+01  0.17577564233E+02  0.24999963743E+00 0.  0.
    1000022    2    1    0    0    0 -0.41600217966E+02 -0.38417650456E+02  0.24489915530E+02  0.62499998998E+02  0.99999955331E+01 0.  0.
    3000022    2    5    5    0    0 -0.11998562085E+02 -0.56180355479E+01  0.44848796885E+01  0.13989441095E+02  0.25000160838E+00 0.  0.
        -13    1    4    4    0    0  0.96522996282E+01  0.48433682940E+01 -0.43179386147E+01  0.11631024178E+02  0.10500000000E+00 0. -1.
         13    1    4    4    0    0  0.48908975299E+01  0.25427672963E+01 -0.22279518536E+01  0.59465400556E+01  0.10500000000E+00 0.  1.
    3000001    1    5    5    0    0 -0.29601655881E+02 -0.32799614908E+02  0.20005035841E+02  0.48510557903E+02  0.10000000000E+01 0. -1.
        -13    1    6    6    0    0 -0.75707928837E+01 -0.35308904222E+01  0.27662941994E+01  0.88004261635E+01  0.10500000000E+00 0. -1.
         13    1    6    6    0    0 -0.44277692010E+01 -0.20871451257E+01  0.17185854891E+01  0.51890149312E+01  0.10500000000E+00 0.  1.
</event>
<event>
11    0  0.3467594E-009  0.9118800E+02  0.7816531E-02  0.1126479E+00
         25   -1    0    0    0    0  0.00000000000E+00  0.00000000000E+00  0.99999998245E-14  0.12500000000E+03  0.12500000000E+03 0.  0.
    3000001    1    3    3    0    0 -0.10379660102E+02 -0.99081854983E+01 -0.25303975155E+02  0.29106711294E+02  0.10000000000E+01 0.  1.
    1000022    2    1    0    0    0 -0.14986974206E+02 -0.14564479914E+02 -0.58047542337E+02  0.62500005722E+02  0.10000003645E+02 0.  0.
    3000022    2    3    3    0    0 -0.46073141040E+01 -0.46562944156E+01 -0.32743567182E+02  0.33393294428E+02  0.25000006050E+00 0.  0.
    1000022    2    1    0    0    0  0.14986974206E+02  0.14564479914E+02  0.58047542337E+02  0.62499994278E+02  0.99999321216E+01 0.  0.
    3000022    2    5    5    0    0  0.95870017165E+01  0.13321694006E+02  0.33375707615E+02  0.37193796456E+02  0.25000578594E+00 0.  0.
        -13    1    4    4    0    0 -0.18421501107E+01 -0.18668778981E+01 -0.13435815043E+02  0.13689810115E+02  0.10500000000E+00 0. -1.
         13    1    4    4    0    0 -0.27651639933E+01 -0.27894165175E+01 -0.19307752139E+02  0.19703484313E+02  0.10500000000E+00 0.  1.
    3000001    1    5    5    0    0  0.53999724898E+01  0.12427859083E+01  0.24671834722E+02  0.25306197823E+02  0.10000000000E+01 0.  1.
        -13    1    6    6    0    0  0.38578525433E+01  0.53751736785E+01  0.13597438376E+02  0.15122065788E+02  0.10500000000E+00 0. -1.
         13    1    6    6    0    0  0.57291491732E+01  0.79465203271E+01  0.19778269239E+02  0.22071730667E+02  0.10500000000E+00 0.  1.
</event>
<event>
11    0  0.3467594E-009  0.9118800E+02  0.7816531E-02  0.1126479E+00
         25   -1    0    0    0    0  0.00000000000E+00  0.00000000000E+00  0.99999998245E-14  0.12500000000E+03  0.12500000000E+03 0.  0.
    3000001    1    3    3    0    0  0.27709153380E+02 -0.26345623339E+02  0.40583015894E+02  0.55766210461E+02  0.10000000000E+01 0.  1.
    1000022    2    1    0    0    0  0.28668604547E+02 -0.27651868665E+02  0.47114063026E+02  0.62499998853E+02  0.10000009724E+02 0.  0.
    3000022    2    3    3    0    0  0.95945116740E+00 -0.13062453254E+01  0.65310471328E+01  0.67337883924E+01  0.25001213894E+00 0.  0.
    1000022    2    1    0    0    0 -0.28668604547E+02  0.27651868665E+02 -0.47114063026E+02  0.62500001147E+02  0.10000024058E+02 0.  0.
    3000022    2    5    5    0    0 -0.29008444006E+02  0.26384237077E+02 -0.43739826273E+02  0.58743958766E+02  0.24999863776E+00 0.  0.
        -13    1    4    4    0    0  0.52642709535E+00 -0.64012406336E+00  0.31261814048E+01  0.32358800161E+01  0.10500000000E+00 0. -1.
         13    1    4    4    0    0  0.43302407205E+00 -0.66612126207E+00  0.34048657280E+01  0.34979083762E+01  0.10500000000E+00 0.  1.
    3000001    1    5    5    0    0  0.33983945856E+00  0.12676315875E+01 -0.33742367534E+01  0.37560423810E+01  0.10000000000E+01 0. -1.
        -13    1    6    6    0    0 -0.79081227304E+01  0.71523529406E+01 -0.11926230959E+02  0.15998142629E+02  0.10500000000E+00 0. -1.
         13    1    6    6    0    0 -0.21100321275E+02  0.19231884136E+02 -0.31813595314E+02  0.42745816136E+02  0.10500000000E+00 0.  1.
</event>
<event>
11    0  0.3467594E-009  0.9118800E+02  0.7816531E-02  0.1126479E+00
         25   -1    0    0    0    0  0.00000000000E+00  0.00000000000E+00  0.99999998245E-14  0.12500000000E+03  0.12500000000E+03 0.  0.
    3000001    1    3    3    0    0 -0.19758051616E+02  0.11689534691E+01 -0.32725910674E+02  0.38258754362E+02  0.10000000000E+01 0. -1.
    1000022    2    1    0    0    0 -0.32787290758E+02  0.95038400683E+01 -0.51389888368E+02  0.62499999788E+02  0.99999967858E+01 0.  0.
    3000022    2    3    3    0    0 -0.13029239142E+02  0.83348865992E+01 -0.18663977694E+02  0.24241245426E+02  0.25001840833E+00 0.  0.
    1000022    2    1    0    0    0  0.32787290758E+02 -0.95038400683E+01  0.51389888368E+02  0.62500000212E+02  0.99999994358E+01 0.  0.
    3000022    2    5    5    0    0  0.16736296014E+02 -0.13848923505E+01  0.18407796796E+02  0.24918487353E+02  0.24999596156E+00 0.  0.
        -13    1    4    4    0    0 -0.43050247159E+01  0.27664575041E+01 -0.60942935960E+01  0.79585152108E+01  0.10500000000E+00 0.  1.
         13    1    4    4    0    0 -0.87242144259E+01  0.55684290951E+01 -0.12569684098E+02  0.16282730215E+02  0.10500000000E+00 0. -1.
    3000001    1    5    5    0    0  0.16050994745E+02 -0.81189477178E+01  0.32982091572E+02  0.37581512859E+02  0.10000000000E+01 0. -1.
        -13    1    6    6    0    0  0.39983592960E+01 -0.32715718625E+00  0.44251924485E+01  0.59738816603E+01  0.10500000000E+00 0. -1.
         13    1    6    6    0    0  0.12737936718E+02 -0.10577351642E+01  0.13982604347E+02  0.18944605692E+02  0.10500000000E+00 0.  1.
</event>
<event>
11    0  0.3467594E-009  0.9118800E+02  0.7816531E-02  0.1126479E+00
         25   -1    0    0    0    0  0.00000000000E+00  0.00000000000E+00  0.99999998245E-14  0.12500000000E+03  0.12500000000E+03 0.  0.
    3000001    1    3    3    0    0 -0.11466180151E+01 -0.12589824719E+01 -0.15033275418E+01  0.24818870713E+01  0.10000000000E+01 0. -1.
    1000022    2    1    0    0    0  0.11986915918E+02 -0.41936235465E+02 -0.43633889577E+02  0.62500012490E+02  0.10000062175E+02 0.  0.
    3000022    2    3    3    0    0  0.13133533933E+02 -0.40677252993E+02 -0.42130562035E+02  0.60018125419E+02  0.24999361260E+00 0.  0.
    1000022    2    1    0    0    0 -0.11986915918E+02  0.41936235465E+02  0.43633889577E+02  0.62499987510E+02  0.99999060458E+01 0.  0.
    3000022    2    5    5    0    0  0.19349376735E+00  0.60397975346E+01  0.24719493839E+01  0.65337302057E+01  0.25000509287E+00 0.  0.
        -13    1    4    4    0    0  0.58546660148E+01 -0.17973181430E+02 -0.18568627252E+02  0.26497496257E+02  0.10500000000E+00 0.  1.
         13    1    4    4    0    0  0.72788679179E+01 -0.22704071563E+02 -0.23561934783E+02  0.33520629162E+02  0.10500000000E+00 0. -1.
    3000001    1    5    5    0    0 -0.12180409685E+02  0.35896437930E+02  0.41161940193E+02  0.55966257304E+02  0.10000000000E+01 0. -1.
        -13    1    6    6    0    0  0.32369911885E-01  0.14141933906E+01  0.57478061085E+00  0.15304863631E+01  0.10500000000E+00 0. -1.
         13    1    6    6    0    0  0.16112385547E+00  0.46256041440E+01  0.18971687731E+01  0.50032438425E+01  0.10500000000E+00 0.  1.
</event>
<event>
11    0  0.3467594E-009  0.9118800E+02  0.7816531E-02  0.1126479E+00
         25   -1    0    0    0    0  0.00000000000E+00  0.00000000000E+00  0.99999998245E-14  0.12500000000E+03  0.12500000000E+03 0.  0.
    3000001    1    3    3    0    0  0.87575997671E+01 -0.94301796703E+01  0.11677112271E+01  0.12960995016E+02  0.10000000000E+01 0.  1.
    1000022    2    1    0    0    0  0.52209045329E+02 -0.32592243770E+02 -0.42674847499E+01  0.62500001714E+02  0.10000001005E+02 0.  0.
    3000022    2    3    3    0    0  0.43451445562E+02 -0.23162064099E+02 -0.54351959770E+01  0.49539006698E+02  0.24998919125E+00 0.  0.
    1000022    2    1    0    0    0 -0.52209045329E+02  0.32592243770E+02  0.42674847499E+01  0.62499998286E+02  0.99999795743E+01 0.  0.
    3000022    2    5    5    0    0 -0.92965218523E+01  0.37733259639E+01 -0.25397245599E+01  0.10352584225E+02  0.24998381952E+00 0.  0.
        -13    1    4    4    0    0  0.15917994528E+02 -0.85513047528E+01 -0.20040406040E+01  0.18180609629E+02  0.10500000000E+00 0.  1.
         13    1    4    4    0    0  0.27533451034E+02 -0.14610759346E+02 -0.34311553730E+01  0.31358397069E+02  0.10500000000E+00 0. -1.
    3000001    1    5    5    0    0 -0.42912523477E+02  0.28818917806E+02  0.68072093098E+01  0.52147414061E+02  0.10000000000E+01 0.  1.
        -13    1    6    6    0    0 -0.48821473667E+01  0.20472053477E+01 -0.13098091867E+01  0.54546345205E+01  0.10500000000E+00 0.  1.
         13    1    6    6    0    0 -0.44143744856E+01  0.17261206162E+01 -0.12299153732E+01  0.48979497043E+01  0.10500000000E+00 0. -1.
</event>
<event>
11    0  0.3467594E-009  0.9118800E+02  0.7816531E-02  0.1126479E+00
         25   -1    0    0    0    0  0.00000000000E+00  0.00000000000E+00  0.99999998245E-14  0.12500000000E+03  0.12500000000E+03 0.  0.
    3000001    1    3    3    0    0  0.14459847453E+02  0.12733323429E+02 -0.11873959815E+01  0.19329630704E+02  0.10000000000E+01 0. -1.
    1000022    2    1    0    0    0  0.38411698676E+02  0.45897317959E+02 -0.14974227437E+02  0.62500001690E+02  0.10000016644E+02 0.  0.
    3000022    2    3    3    0    0  0.23951851223E+02  0.33163994530E+02 -0.13786831456E+02  0.43170370986E+02  0.24999863715E+00 0.  0.
    1000022    2    1    0    0    0 -0.38411698676E+02 -0.45897317959E+02  0.14974227437E+02  0.62499998310E+02  0.99999955172E+01 0.  0.
    3000022    2    5    5    0    0 -0.32868213035E+02 -0.32925249963E+02  0.10920685233E+02  0.47788234801E+02  0.25001233318E+00 0.  0.
        -13    1    4    4    0    0  0.11515238132E+02  0.16058471938E+02 -0.66489597269E+01  0.20849338615E+02  0.10500000000E+00 0. -1.
         13    1    4    4    0    0  0.12436613091E+02  0.17105522592E+02 -0.71378717287E+01  0.22321032372E+02  0.10500000000E+00 0.  1.
    3000001    1    5    5    0    0 -0.55434856418E+01 -0.12972067996E+02  0.40535422037E+01  0.14711763509E+02  0.10000000000E+01 0. -1.
        -13    1    6    6    0    0 -0.12474198887E+02 -0.12578739369E+02  0.41757388735E+01  0.18201047830E+02  0.10500000000E+00 0. -1.
         13    1    6    6    0    0 -0.20394014148E+02 -0.20346510594E+02  0.67449463599E+01  0.29587186971E+02  0.10500000000E+00 0.  1.
</event>
<event>
11    0  0.3467594E-009  0.9118800E+02  0.7816531E-02  0.1126479E+00
         25   -1    0    0    0    0  0.00000000000E+00  0.00000000000E+00  0.99999998245E-14  0.12500000000E+03  0.12500000000E+03 0.  0.
    3000001    1    3    3    0    0 -0.20654796334E+02  0.27655403166E+02 -0.33200970701E+02  0.47903511263E+02  0.10000000000E+01 0. -1.
    1000022    2    1    0    0    0 -0.22017330153E+02  0.38435134443E+02 -0.42944470627E+02  0.62499997084E+02  0.99999845618E+01 0.  0.
    3000022    2    3    3    0    0 -0.13625338194E+01  0.10779731277E+02 -0.97434999269E+01  0.14596485821E+02  0.25000533482E+00 0.  0.
    1000022    2    1    0    0    0  0.22017330153E+02 -0.38435134443E+02  0.42944470627E+02  0.62500002916E+02  0.10000021014E+02 0.  0.
    3000022    2    5    5    0    0  0.93804501393E+01 -0.22862637745E+02  0.18529088417E+02  0.30888228553E+02  0.24999220029E+00 0.  0.
        -13    1    4    4    0    0 -0.39911333541E+00  0.29676675295E+01 -0.26462480443E+01  0.39974986844E+01  0.10500000000E+00 0.  1.
         13    1    4    4    0    0 -0.96342048404E+00  0.78120637479E+01 -0.70972518827E+01  0.10598987136E+02  0.10500000000E+00 0. -1.
    3000001    1    5    5    0    0  0.12636880014E+02 -0.15572496699E+02  0.24415382211E+02  0.31611774364E+02  0.10000000000E+01 0.  1.
        -13    1    6    6    0    0  0.30328699139E+01 -0.74837299711E+01  0.61033606682E+01  0.10122576285E+02  0.10500000000E+00 0. -1.
         13    1    6    6    0    0  0.63475802255E+01 -0.15378907773E+02  0.12425727749E+02  0.20765652268E+02  0.10500000000E+00 0.  1.
</event>
<event>
11    0  0.3467594E-009  0.9118800E+02  0.7816531E-02  0.1126479E+00
         25   -1    0    0    0    0  0.00000000000E+00  0.00000000000E+00  0.99999998245E-14  0.12500000000E+03  0.12500000000E+03 0.  0.
    3000001    1    3    3    0    0 -0.19734372625E+02  0.31506485997E+01 -0.82693304104E+01  0.21650724582E+02  0.10000000000E+01 0. -1.
    1000022    2    1    0    0    0 -0.59305721368E+02  0.12883261277E+02 -0.11095174058E+02  0.62499999769E+02  0.10000003778E+02 0.  0.
    3000022    2    3    3    0    0 -0.39571348743E+02  0.97326126776E+01 -0.28258436475E+01  0.40849275187E+02  0.25000008570E+00 0.  0.
    1000022    2    1    0    0    0  0.59305721368E+02 -0.12883261277E+02  0.11095174058E+02  0.62500000231E+02  0.10000006666E+02 0.  0.
    3000022    2    5    5    0    0  0.26838819686E+02 -0.14706955430E+01  0.23812681159E+01  0.26985517013E+02  0.25000616909E+00 0.  0.
        -13    1    4    4    0    0 -0.15496833775E+02  0.37651165946E+01 -0.10629327494E+01  0.15983391726E+02  0.10500000000E+00 0. -1.
         13    1    4    4    0    0 -0.24074514968E+02  0.59674960830E+01 -0.17629108981E+01  0.24865883461E+02  0.10500000000E+00 0.  1.
    3000001    1    5    5    0    0  0.32466901682E+02 -0.11412565734E+02  0.87139059420E+01  0.35514483218E+02  0.10000000000E+01 0.  1.
        -13    1    6    6    0    0  0.14255305221E+02 -0.84842508978E+00  0.12703900278E+01  0.14337310344E+02  0.10500000000E+00 0. -1.
         13    1    6    6    0    0  0.12583514465E+02 -0.62227045323E+00  0.11108780882E+01  0.12648206669E+02  0.10500000000E+00 0.  1.
</event>
<event>
11    0  0.3467594E-009  0.9118800E+02  0.7816531E-02  0.1126479E+00
         25   -1    0    0    0    0  0.00000000000E+00  0.00000000000E+00  0.99999998245E-14  0.12500000000E+03  0.12500000000E+03 0.  0.
    3000001    1    3    3    0    0  0.48049754895E+01 -0.42695189317E+02 -0.34071741311E+02  0.54843874191E+02  0.10000000000E+01 0. -1.
    1000022    2    1    0    0    0  0.30902319047E+01 -0.46398688545E+02 -0.40544570344E+02  0.62500000308E+02  0.10000001111E+02 0.  0.
    3000022    2    3    3    0    0 -0.17147435848E+01 -0.37034992282E+01 -0.64728290329E+01  0.76561261177E+01  0.24999869292E+00 0.  0.
    1000022    2    1    0    0    0 -0.30902319047E+01  0.46398688545E+02  0.40544570344E+02  0.62499999692E+02  0.99999972583E+01 0.  0.
    3000022    2    5    5    0    0 -0.20538242071E+01  0.13130988851E+01  0.23031381781E+01  0.33629413442E+01  0.25001292222E+00 0.  0.
        -13    1    4    4    0    0 -0.86043817363E+00 -0.19868765278E+01 -0.33566670511E+01  0.39957816356E+01  0.10500000000E+00 0. -1.
         13    1    4    4    0    0 -0.85430541117E+00 -0.17166227004E+01 -0.31161619818E+01  0.36603444822E+01  0.10500000000E+00 0.  1.
    3000001    1    5    5    0    0 -0.10364076975E+01  0.45085589660E+02  0.38241432166E+02  0.59137058348E+02  0.10000000000E+01 0. -1.
        -13    1    6    6    0    0 -0.99292207401E+00  0.56025753895E+00  0.11095746448E+01  0.15943536770E+01  0.10500000000E+00 0.  1.
         13    1    6    6    0    0 -0.10609021331E+01  0.75284134612E+00  0.11935635333E+01  0.17685876672E+01  0.10500000000E+00 0. -1.
</event>
<event>
11    0  0.3467594E-009  0.9118800E+02  0.7816531E-02  0.1126479E+00
         25   -1    0    0    0    0  0.00000000000E+00  0.00000000000E+00  0.99999998245E-14  0.12500000000E+03  0.12500000000E+03 0.  0.
    3000001    1    3    3    0    0 -0.41404127011E+02 -0.33431981807E+02 -0.19744929158E+02  0.56770250736E+02  0.10000000000E+01 0. -1.
    1000022    2    1    0    0    0 -0.46888886371E+02 -0.33976484267E+02 -0.21290392205E+02  0.62500000180E+02  0.10000003696E+02 0.  0.
    3000022    2    3    3    0    0 -0.54847593599E+01 -0.54450245985E+00 -0.15454630469E+01  0.57297494439E+01  0.25000899149E+00 0.  0.
    1000022    2    1    0    0    0  0.46888886371E+02  0.33976484267E+02  0.21290392205E+02  0.62499999820E+02  0.10000001450E+02 0.  0.
    3000022    2    5    5    0    0  0.40017307892E+02  0.30471066492E+02  0.14974527351E+02  0.52480184780E+02  0.25000227052E+00 0.  0.
        -13    1    4    4    0    0 -0.28281026836E+01 -0.25983010222E+00 -0.72933554889E+00  0.29340470027E+01  0.10500000000E+00 0.  1.
         13    1    4    4    0    0 -0.26566566763E+01 -0.28467235763E+00 -0.81612749801E+00  0.27957024412E+01  0.10500000000E+00 0. -1.
    3000001    1    5    5    0    0  0.68715784792E+01  0.35054177754E+01  0.63158648544E+01  0.10019815040E+02  0.10000000000E+01 0.  1.
        -13    1    6    6    0    0  0.28286351285E+02  0.21484856930E+02  0.10586312053E+02  0.37064778081E+02  0.10500000000E+00 0.  1.
         13    1    6    6    0    0  0.11730956607E+02  0.89862095619E+01  0.43882152982E+01  0.15415406699E+02  0.10500000000E+00 0. -1.
</event>
<event>
11    0  0.3467594E-009  0.9118800E+02  0.7816531E-02  0.1126479E+00
         25   -1    0    0    0    0  0.00000000000E+00  0.00000000000E+00  0.99999998245E-14  0.12500000000E+03  0.12500000000E+03 0.  0.
    3000001    1    3    3    0    0  0.10981332348E+01  0.23990980064E+01 -0.62481929452E+00  0.28899769889E+01  0.10000000000E+01 0. -1.
    1000022    2    1    0    0    0 -0.70014945022E+01  0.47304026427E+02 -0.38981510615E+02  0.62499999903E+02  0.99999988303E+01 0.  0.
    3000022    2    3    3    0    0 -0.80996277369E+01  0.44904928420E+02 -0.38356691321E+02  0.59610022914E+02  0.24999371152E+00 0.  0.
    1000022    2    1    0    0    0  0.70014945022E+01 -0.47304026427E+02  0.38981510615E+02  0.62500000097E+02  0.10000000042E+02 0.  0.
    3000022    2    5    5    0    0 -0.12315476114E+01 -0.53713690826E+01  0.16763984836E+01  0.57655121243E+01  0.25000567659E+00 0.  0.
        -13    1    4    4    0    0 -0.31978327083E+01  0.17866769209E+02 -0.15333360474E+02  0.23760693265E+02  0.10500000000E+00 0.  1.
         13    1    4    4    0    0 -0.49017950286E+01  0.27038159211E+02 -0.23023330847E+02  0.35849329649E+02  0.10500000000E+00 0. -1.
    3000001    1    5    5    0    0  0.82330421136E+01 -0.41932657344E+02  0.37305112132E+02  0.56734487973E+02  0.10000000000E+01 0. -1.
        -13    1    6    6    0    0 -0.60666741750E+00 -0.26225383564E+01  0.74828064797E+00  0.27958364964E+01  0.10500000000E+00 0. -1.
         13    1    6    6    0    0 -0.62488019394E+00 -0.27488307262E+01  0.92811783568E+00  0.29696756279E+01  0.10500000000E+00 0.  1.
</event>
<event>
11    0  0.3467594E-009  0.9118800E+02  0.7816531E-02  0.1126479E+00
         25   -1    0    0    0    0  0.00000000000E+00  0.00000000000E+00  0.99999998245E-14  0.12500000000E+03  0.12500000000E+03 0.  0.
    3000001    1    3    3    0    0 -0.50333998898E+02 -0.21859838957E+02  0.58929935881E+01  0.55200465376E+02  0.10000000000E+01 0. -1.
    1000022    2    1    0    0    0 -0.57141703270E+02 -0.21649750643E+02  0.85067393510E+01  0.62499995457E+02  0.99999431088E+01 0.  0.
    3000022    2    3    3    0    0 -0.68077043720E+01  0.21008831444E+00  0.26137457629E+01  0.72995300804E+01  0.24999313113E+00 0.  0.
    1000022    2    1    0    0    0  0.57141703270E+02  0.21649750643E+02 -0.85067393510E+01  0.62500004543E+02  0.99999999014E+01 0.  0.
    3000022    2    5    5    0    0  0.12262902504E+02  0.17256527672E+01  0.11751990307E+01  0.12441874682E+02  0.24999510681E+00 0.  0.
        -13    1    4    4    0    0 -0.28977652744E+01  0.25751522882E-01  0.10968928630E+01  0.31003073524E+01  0.10500000000E+00 0. -1.
         13    1    4    4    0    0 -0.39099390976E+01  0.18433679156E+00  0.15168528999E+01  0.41992227280E+01  0.10500000000E+00 0.  1.
    3000001    1    5    5    0    0  0.44878800767E+02  0.19924097876E+02 -0.96819383817E+01  0.50058129861E+02  0.10000000000E+01 0. -1.
        -13    1    6    6    0    0  0.82711413572E+01  0.11915910139E+01  0.74869079957E+00  0.83906633473E+01  0.10500000000E+00 0. -1.
         13    1    6    6    0    0  0.39917611464E+01  0.53406175337E+00  0.42650823112E+00  0.40512113346E+01  0.10500000000E+00 0.  1.
</event>
<event>
11    0  0.3467594E-009  0.9118800E+02  0.7816531E-02  0.1126479E+00
         25   -1    0    0    0    0  0.00000000000E+00  0.00000000000E+00  0.99999998245E-14  0.12500000000E+03  0.12500000000E+03 0.  0.
    3000001    1    3    3    0    0 -0.18119029299E+01 -0.26985715393E+01 -0.60602737613E+01  0.69492588556E+01  0.10000000000E+01 0. -1.
    1000022    2    1    0    0    0  0.10615812655E+02 -0.25826199255E+02 -0.55014199943E+02  0.62499998462E+02  0.99999783009E+01 0.  0.
    3000022    2    3    3    0    0  0.12427715585E+02 -0.23127627716E+02 -0.48953926182E+02  0.55550739606E+02  0.25000745693E+00 0.  0.
    1000022    2    1    0    0    0 -0.10615812655E+02  0.25826199255E+02  0.55014199943E+02  0.62500001538E+02  0.99999975315E+01 0.  0.
    3000022    2    5    5    0    0 -0.23017650982E+01  0.22404747577E+01  0.14696644641E+02  0.15045654505E+02  0.25001213350E+00 0.  0.
        -13    1    4    4    0    0  0.74310282594E+01 -0.13779646680E+02 -0.29314891528E+02  0.33233608500E+02  0.10500000000E+00 0.  1.
         13    1    4    4    0    0  0.49966873255E+01 -0.93479810364E+01 -0.19639034654E+02  0.22317131106E+02  0.10500000000E+00 0. -1.
    3000001    1    5    5    0    0 -0.83140475568E+01  0.23585724498E+02  0.40317555302E+02  0.47454347033E+02  0.10000000000E+01 0. -1.
        -13    1    6    6    0    0 -0.10085613482E+01  0.89465331749E+00  0.60873537197E+01  0.62357438097E+01  0.10500000000E+00 0. -1.
         13    1    6    6    0    0 -0.12932037499E+01  0.13458214402E+01  0.86092909215E+01  0.88099106952E+01  0.10500000000E+00 0.  1.
</event>
<event>
11    0  0.3467594E-009  0.9118800E+02  0.7816531E-02  0.1126479E+00
         25   -1    0    0    0    0  0.00000000000E+00  0.00000000000E+00  0.99999998245E-14  0.12500000000E+03  0.12500000000E+03 0.  0.
    3000001    1    3    3    0    0  0.40937419999E+00 -0.17780398609E+01  0.74501930660E+01  0.77352692069E+01  0.10000000000E+01 0. -1.
    1000022    2    1    0    0    0 -0.12226658981E+02  0.58564680678E+01  0.60186881309E+02  0.62500000751E+02  0.10000000208E+02 0.  0.
    3000022    2    3    3    0    0 -0.12636033181E+02  0.76345079287E+01  0.52736688243E+02  0.54764731544E+02  0.24997686902E+00 0.  0.
    1000022    2    1    0    0    0  0.12226658981E+02 -0.58564680678E+01 -0.60186881309E+02  0.62499999249E+02  0.99999908185E+01 0.  0.
    3000022    2    5    5    0    0  0.28085462043E+01 -0.63402522969E+01 -0.18777879009E+02  0.20018940329E+02  0.25000173522E+00 0.  0.
        -13    1    4    4    0    0 -0.80109366179E+01  0.47720143400E+01  0.33346691758E+02  0.34626003272E+02  0.10500000000E+00 0.  1.
         13    1    4    4    0    0 -0.46250965635E+01  0.28624935887E+01  0.19389996484E+02  0.20138728273E+02  0.10500000000E+00 0. -1.
    3000001    1    5    5    0    0  0.94181127771E+01  0.48378422906E+00 -0.41409002300E+02  0.42481058920E+02  0.10000000000E+01 0.  1.
        -13    1    6    6    0    0  0.14093264569E+01 -0.30161576765E+01 -0.90409762901E+01  0.96350238957E+01  0.10500000000E+00 0. -1.
         13    1    6    6    0    0  0.13992197473E+01 -0.33240946203E+01 -0.97369027186E+01  0.10383916434E+02  0.10500000000E+00 0.  1.
</event>
<event>
11    0  0.3467594E-009  0.9118800E+02  0.7816531E-02  0.1126479E+00
         25   -1    0    0    0    0  0.00000000000E+00  0.00000000000E+00  0.99999998245E-14  0.12500000000E+03  0.12500000000E+03 0.  0.
    3000001    1    3    3    0    0  0.49623878666E+02  0.56760133232E+01  0.73780605793E+01  0.50499329095E+02  0.10000000000E+01 0.  1.
    1000022    2    1    0    0    0  0.60499925986E+02  0.30290013124E+01  0.11697611803E+02  0.62500000355E+02  0.10000001462E+02 0.  0.
    3000022    2    3    3    0    0  0.10876047320E+02 -0.26470120109E+01  0.43195512233E+01  0.12000671260E+02  0.25002007150E+00 0.  0.
    1000022    2    1    0    0    0 -0.60499925986E+02 -0.30290013124E+01 -0.11697611803E+02  0.62499999645E+02  0.99999970239E+01 0.  0.
    3000022    2    5    5    0    0 -0.58200908405E+02 -0.40856143845E+01 -0.97491191403E+01  0.59153578172E+02  0.25000489944E+00 0.  0.
        -13    1    4    4    0    0  0.49339488409E+01 -0.12502282502E+01  0.19142522817E+01  0.54389620922E+01  0.10500000000E+00 0.  1.
         13    1    4    4    0    0  0.59420984792E+01 -0.13967837607E+01  0.24052989415E+01  0.65617091683E+01  0.10500000000E+00 0. -1.
    3000001    1    5    5    0    0 -0.22990175812E+01  0.10566130721E+01 -0.19484926622E+01  0.33464214734E+01  0.10000000000E+01 0.  1.
        -13    1    6    6    0    0 -0.29820325385E+02 -0.20626303254E+01 -0.50560567362E+01  0.30316348472E+02  0.10500000000E+00 0.  1.
         13    1    6    6    0    0 -0.28380583020E+02 -0.20229840591E+01 -0.46930624041E+01  0.28837229700E+02  0.10500000000E+00 0. -1.
</event>
<event>
11    0  0.3467594E-009  0.9118800E+02  0.7816531E-02  0.1126479E+00
         25   -1    0    0    0    0  0.00000000000E+00  0.00000000000E+00  0.99999998245E-14  0.12500000000E+03  0.12500000000E+03 0.  0.
    3000001    1    3    3    0    0  0.30362896748E+01 -0.57955503382E+01  0.67216296371E+01  0.94333325867E+01  0.10000000000E+01 0. -1.
    1000022    2    1    0    0    0 -0.25193780307E+01 -0.38604328477E+02  0.48058383725E+02  0.62499999120E+02  0.10000010044E+02 0.  0.
    3000022    2    3    3    0    0 -0.55556677055E+01 -0.32808778139E+02  0.41336754088E+02  0.53066666533E+02  0.24998357247E+00 0.  0.
    1000022    2    1    0    0    0  0.25193780307E+01  0.38604328477E+02 -0.48058383725E+02  0.62500000880E+02  0.10000021047E+02 0.  0.
    3000022    2    5    5    0    0  0.53207805782E+01  0.12073490904E+02 -0.14251239019E+02  0.19422672368E+02  0.24999954901E+00 0.  0.
        -13    1    4    4    0    0 -0.22081420231E+01 -0.12732802451E+02  0.15998551243E+02  0.20566108439E+02  0.10500000000E+00 0. -1.
         13    1    4    4    0    0 -0.33475256824E+01 -0.20075975688E+02  0.25338202845E+02  0.32500558094E+02  0.10500000000E+00 0.  1.
    3000001    1    5    5    0    0 -0.28014025475E+01  0.26530837573E+02 -0.33807144706E+02  0.43077328512E+02  0.10000000000E+01 0.  1.
        -13    1    6    6    0    0  0.18987624422E+01  0.43814435792E+01 -0.52326848421E+01  0.70847979721E+01  0.10500000000E+00 0.  1.
         13    1    6    6    0    0  0.34220181360E+01  0.76920473251E+01 -0.90185541765E+01  0.12337874396E+02  0.10500000000E+00 0. -1.
</event>
<event>
11    0  0.3467594E-009  0.9118800E+02  0.7816531E-02  0.1126479E+00
         25   -1    0    0    0    0  0.00000000000E+00  0.00000000000E+00  0.99999998245E-14  0.12500000000E+03  0.12500000000E+03 0.  0.
    3000001    1    3    3    0    0  0.28174748378E+02  0.11752325181E+02 -0.93860499746E+01  0.31953583953E+02  0.10000000000E+01 0.  1.
    1000022    2    1    0    0    0  0.57165001217E+02  0.13545455450E+02 -0.18839671880E+02  0.62500000334E+02  0.10000003888E+02 0.  0.
    3000022    2    3    3    0    0  0.28990252839E+02  0.17931302688E+01 -0.94536219050E+01  0.30546416381E+02  0.25002154247E+00 0.  0.
    1000022    2    1    0    0    0 -0.57165001217E+02 -0.13545455450E+02  0.18839671880E+02  0.62499999666E+02  0.99999997133E+01 0.  0.
    3000022    2    5    5    0    0 -0.13770524064E+02 -0.81634841046E+00  0.86005181826E+00  0.13823747232E+02  0.25008139922E+00 0.  0.
        -13    1    4    4    0    0  0.16518107930E+02  0.97899608347E+00 -0.53331881816E+01  0.17385633267E+02  0.10500000000E+00 0.  1.
         13    1    4    4    0    0  0.12472144909E+02  0.81413418533E+00 -0.41204337234E+01  0.13160783113E+02  0.10500000000E+00 0. -1.
    3000001    1    5    5    0    0 -0.43394477153E+02 -0.12729107039E+02  0.17979620061E+02  0.48676252434E+02  0.10000000000E+01 0.  1.
        -13    1    6    6    0    0 -0.92747004340E+01 -0.55302132329E+00  0.52699444744E+00  0.93066991394E+01  0.10500000000E+00 0. -1.
         13    1    6    6    0    0 -0.44958236295E+01 -0.26332708717E+00  0.33305737082E+00  0.45170480930E+01  0.10500000000E+00 0.  1.
</event>
<event>
11    0  0.3467594E-009  0.9118800E+02  0.7816531E-02  0.1126479E+00
         25   -1    0    0    0    0  0.00000000000E+00  0.00000000000E+00  0.99999998245E-14  0.12500000000E+03  0.12500000000E+03 0.  0.
    3000001    1    3    3    0    0 -0.26068728985E+02 -0.29403463199E+01  0.30393752084E+01  0.26428432966E+02  0.10000000000E+01 0.  1.
    1000022    2    1    0    0    0 -0.61595811386E+02 -0.16701519939E+01 -0.30686972273E+01  0.62500001033E+02  0.99999919272E+01 0.  0.
    3000022    2    3    3    0    0 -0.35527082400E+02  0.12701943260E+01 -0.61080724357E+01  0.36071568067E+02  0.24999286311E+00 0.  0.
    1000022    2    1    0    0    0  0.61595811386E+02  0.16701519939E+01  0.30686972273E+01  0.62499998967E+02  0.99999790099E+01 0.  0.
    3000022    2    5    5    0    0  0.60929867622E+01 -0.19727990964E+01  0.24607583528E+01  0.68654393519E+01  0.25000373028E+00 0.  0.
        -13    1    4    4    0    0 -0.21285351849E+02  0.71185610235E+00 -0.36994341473E+01  0.21616423859E+02  0.10500000000E+00 0.  1.
         13    1    4    4    0    0 -0.14241730551E+02  0.55833822367E+00 -0.24086382884E+01  0.14455144208E+02  0.10500000000E+00 0. -1.
    3000001    1    5    5    0    0  0.55502824624E+02  0.36429510903E+01  0.60793887446E+00  0.55634559615E+02  0.10000000000E+01 0. -1.
        -13    1    6    6    0    0  0.42507320959E+01 -0.14102700484E+01  0.17551810148E+01  0.48113688650E+01  0.10500000000E+00 0.  1.
         13    1    6    6    0    0  0.18422546663E+01 -0.56252904796E+00  0.70557733808E+00  0.20540704869E+01  0.10500000000E+00 0. -1.
</event>
<event>
11    0  0.3467594E-009  0.9118800E+02  0.7816531E-02  0.1126479E+00
         25   -1    0    0    0    0  0.00000000000E+00  0.00000000000E+00  0.99999998245E-14  0.12500000000E+03  0.12500000000E+03 0.  0.
    3000001    1    3    3    0    0 -0.13412318490E+02  0.50662360983E+02  0.30806890835E+02  0.60799914725E+02  0.10000000000E+01 0. -1.
    1000022    2    1    0    0    0 -0.13148008934E+02  0.50789277150E+02  0.32462735488E+02  0.62499999618E+02  0.99999972285E+01 0.  0.
    3000022    2    3    3    0    0  0.26430955622E+00  0.12691616747E+00  0.16558446525E+01  0.17000848933E+01  0.24999975251E+00 0.  0.
    1000022    2    1    0    0    0  0.13148008934E+02 -0.50789277150E+02 -0.32462735488E+02  0.62500000382E+02  0.10000001998E+02 0.  0.
    3000022    2    5    5    0    0  0.11901878674E+01 -0.47603620252E+01 -0.38027363072E-02  0.49132586121E+01  0.25000391600E+00 0.  0.
        -13    1    4    4    0    0  0.18357715614E+00  0.10339159812E+00  0.80650415872E+00  0.84015733815E+00  0.10500000000E+00 0. -1.
         13    1    4    4    0    0  0.80732400078E-01  0.23524569347E-01  0.84934049377E+00  0.85992755517E+00  0.10500000000E+00 0.  1.
    3000001    1    5    5    0    0  0.11957821067E+02 -0.46028915125E+02 -0.32458932752E+02  0.57586741769E+02  0.10000000000E+01 0. -1.
        -13    1    6    6    0    0  0.85973180734E+00 -0.32739969970E+01  0.24945179292E-01  0.33867155739E+01  0.10500000000E+00 0.  1.
         13    1    6    6    0    0  0.33045606007E+00 -0.14863650282E+01 -0.28747915599E-01  0.15265430382E+01  0.10500000000E+00 0. -1.
</event>
<event>
11    0  0.3467594E-009  0.9118800E+02  0.7816531E-02  0.1126479E+00
         25   -1    0    0    0    0  0.00000000000E+00  0.00000000000E+00  0.99999998245E-14  0.12500000000E+03  0.12500000000E+03 0.  0.
    3000001    1    3    3    0    0  0.33121002428E+02 -0.19534577714E+02  0.30980085594E+02  0.49389940592E+02  0.10000000000E+01 0.  1.
    1000022    2    1    0    0    0  0.44873974593E+02 -0.21653290711E+02  0.36382846681E+02  0.62499998841E+02  0.99999864061E+01 0.  0.
    3000022    2    3    3    0    0  0.11752972165E+02 -0.21187129969E+01  0.54027610869E+01  0.13110058249E+02  0.25000088788E+00 0.  0.
    1000022    2    1    0    0    0 -0.44873974593E+02  0.21653290711E+02 -0.36382846681E+02  0.62500001159E+02  0.10000000896E+02 0.  0.
    3000022    2    5    5    0    0 -0.40040329749E+02  0.22273614766E+02 -0.32226883905E+02  0.56017644257E+02  0.25000150237E+00 0.  0.
        -13    1    4    4    0    0  0.55426536881E+01 -0.99703117260E+00  0.26218082205E+01  0.62128885722E+01  0.10500000000E+00 0. -1.
         13    1    4    4    0    0  0.62103184770E+01 -0.11216818242E+01  0.27809528664E+01  0.68971696764E+01  0.10500000000E+00 0.  1.
    3000001    1    5    5    0    0 -0.48336448441E+01 -0.62032405519E+00 -0.41559627754E+01  0.64823569018E+01  0.10000000000E+01 0. -1.
        -13    1    6    6    0    0 -0.23588170821E+02  0.13085664081E+02 -0.18904510420E+02  0.32939762390E+02  0.10500000000E+00 0.  1.
         13    1    6    6    0    0 -0.16452158928E+02  0.91879506851E+01 -0.13322373485E+02  0.23077881867E+02  0.10500000000E+00 0. -1.
</event>
<event>
11    0  0.3467594E-009  0.9118800E+02  0.7816531E-02  0.1126479E+00
         25   -1    0    0    0    0  0.00000000000E+00  0.00000000000E+00  0.99999998245E-14  0.12500000000E+03  0.12500000000E+03 0.  0.
    3000001    1    3    3    0    0 -0.10224115273E+01 -0.49079655946E+02  0.27344785633E+02  0.56201381250E+02  0.10000000000E+01 0. -1.
    1000022    2    1    0    0    0  0.18430502588E+01 -0.53273396588E+02  0.31061204205E+02  0.62499999661E+02  0.99999966359E+01 0.  0.
    3000022    2    3    3    0    0  0.28654617861E+01 -0.41937406416E+01  0.37164185717E+01  0.62986184107E+01  0.24999013214E+00 0.  0.
    1000022    2    1    0    0    0 -0.18430502588E+01  0.53273396588E+02 -0.31061204205E+02  0.62500000339E+02  0.10000000872E+02 0.  0.
    3000022    2    5    5    0    0 -0.19704814286E+01  0.30226613236E+02 -0.23105057877E+02  0.38097731469E+02  0.24999774434E+00 0.  0.
        -13    1    4    4    0    0  0.19161139998E+01 -0.28598390540E+01  0.24667908724E+01  0.42363019821E+01  0.10500000000E+00 0. -1.
         13    1    4    4    0    0  0.94934778630E+00 -0.13339015876E+01  0.12496276993E+01  0.20623164286E+01  0.10500000000E+00 0.  1.
    3000001    1    5    5    0    0  0.12743116976E+00  0.23046783352E+02 -0.79561463283E+01  0.24402268870E+02  0.10000000000E+01 0. -1.
        -13    1    6    6    0    0 -0.80365359808E+00  0.11526962982E+02 -0.88538453300E+01  0.14557415184E+02  0.10500000000E+00 0. -1.
         13    1    6    6    0    0 -0.11668278305E+01  0.18699650253E+02 -0.14251212547E+02  0.23540316286E+02  0.10500000000E+00 0.  1.
</event>
<event>
11    0  0.3467594E-009  0.9118800E+02  0.7816531E-02  0.1126479E+00
         25   -1    0    0    0    0  0.00000000000E+00  0.00000000000E+00  0.99999998245E-14  0.12500000000E+03  0.12500000000E+03 0.  0.
    3000001    1    3    3    0    0  0.23573267425E+01 -0.20031547120E+02  0.34074689466E+01  0.20480007667E+02  0.10000000000E+01 0. -1.
    1000022    2    1    0    0    0  0.18038272819E+02 -0.58975727187E+02  0.16535806314E+01  0.62500001114E+02  0.10000006338E+02 0.  0.
    3000022    2    3    3    0    0  0.15680946076E+02 -0.38944180067E+02 -0.17538883152E+01  0.42019993447E+02  0.24998826425E+00 0.  0.
    1000022    2    1    0    0    0 -0.18038272819E+02  0.58975727187E+02 -0.16535806314E+01  0.62499998886E+02  0.99999924175E+01 0.  0.
    3000022    2    5    5    0    0 -0.14804668496E+02  0.31655673964E+02 -0.11589011800E+01  0.34966633440E+02  0.24999759167E+00 0.  0.
        -13    1    4    4    0    0  0.96689500192E+01 -0.23873506196E+02 -0.11088017668E+01  0.25781259839E+02  0.10500000000E+00 0. -1.
         13    1    4    4    0    0  0.60119960571E+01 -0.15070673871E+02 -0.64508654845E+00  0.16238733607E+02  0.10500000000E+00 0.  1.
    3000001    1    5    5    0    0 -0.32336043226E+01  0.27320053224E+02 -0.49467945135E+00  0.27533365447E+02  0.10000000000E+01 0.  1.
        -13    1    6    6    0    0 -0.54382931410E+01  0.11753171180E+02 -0.45693115216E+00  0.12958853196E+02  0.10500000000E+00 0.  1.
         13    1    6    6    0    0 -0.93663753553E+01  0.19902502784E+02 -0.70197002786E+00  0.22007780244E+02  0.10500000000E+00 0. -1.
</event>
<event>
11    0  0.3467594E-009  0.9118800E+02  0.7816531E-02  0.1126479E+00
         25   -1    0    0    0    0  0.00000000000E+00  0.00000000000E+00  0.99999998245E-14  0.12500000000E+03  0.12500000000E+03 0.  0.
    3000001    1    3    3    0    0  0.16883287233E+01 -0.22495925865E+01 -0.34830561156E+01  0.45872432449E+01  0.10000000000E+01 0.  1.
    1000022    2    1    0    0    0  0.11478118507E+02 -0.54118802355E+02 -0.27306760979E+02  0.62499990705E+02  0.99998835038E+01 0.  0.
    3000022    2    3    3    0    0  0.97897897841E+01 -0.51869209769E+02 -0.23823704863E+02  0.57912747460E+02  0.24999776229E+00 0.  0.
    1000022    2    1    0    0    0 -0.11478118507E+02  0.54118802355E+02  0.27306760979E+02  0.62500009295E+02  0.99999996966E+01 0.  0.
    3000022    2    5    5    0    0 -0.15604426714E+00  0.16171980872E+02  0.11519433391E+02  0.19857420981E+02  0.25001446593E+00 0.  0.
        -13    1    4    4    0    0  0.33151552966E+01 -0.17863969654E+02 -0.82017165614E+01  0.19934664432E+02  0.10500000000E+00 0. -1.
         13    1    4    4    0    0  0.64746344875E+01 -0.34005240114E+02 -0.15621988302E+02  0.37978083028E+02  0.10500000000E+00 0.  1.
    3000001    1    5    5    0    0 -0.11322074240E+02  0.37946821483E+02  0.15787327588E+02  0.42642588315E+02  0.10000000000E+01 0. -1.
        -13    1    6    6    0    0 -0.13296025252E+00  0.74069535448E+01  0.52438324035E+01  0.90768630330E+01  0.10500000000E+00 0. -1.
         13    1    6    6    0    0 -0.23084014619E-01  0.87650273270E+01  0.62756009871E+01  0.10780557948E+02  0.10500000000E+00 0.  1.
</event>
<event>
11    0  0.3467594E-009  0.9118800E+02  0.7816531E-02  0.1126479E+00
         25   -1    0    0    0    0  0.00000000000E+00  0.00000000000E+00  0.99999998245E-14  0.12500000000E+03  0.12500000000E+03 0.  0.
    3000001    1    3    3    0    0 -0.22939409134E+02 -0.18395692449E+02 -0.13747409107E+02  0.32474747870E+02  0.10000000000E+01 0. -1.
    1000022    2    1    0    0    0 -0.37756145722E+02 -0.42182467484E+02 -0.24522701959E+02  0.62500000456E+02  0.10000002141E+02 0.  0.
    3000022    2    3    3    0    0 -0.14816736588E+02 -0.23786775035E+02 -0.10775292853E+02  0.30025252586E+02  0.25001419831E+00 0.  0.
    1000022    2    1    0    0    0  0.37756145722E+02  0.42182467484E+02  0.24522701959E+02  0.62499999544E+02  0.99999964406E+01 0.  0.
    3000022    2    5    5    0    0  0.27836495452E+02  0.35568837878E+02  0.16461033105E+02  0.48073286032E+02  0.25002398519E+00 0.  0.
        -13    1    4    4    0    0 -0.48874175491E+01 -0.78497939444E+01 -0.34990135083E+01  0.98873775998E+01  0.10500000000E+00 0.  1.
         13    1    4    4    0    0 -0.99293190387E+01 -0.15936981091E+02 -0.72762793444E+01  0.20137874986E+02  0.10500000000E+00 0. -1.
    3000001    1    5    5    0    0  0.99196502697E+01  0.66136296057E+01  0.80616688539E+01  0.14426713512E+02  0.10000000000E+01 0.  1.
        -13    1    6    6    0    0  0.81489474949E+01  0.10344565034E+02  0.47872227342E+01  0.14012276672E+02  0.10500000000E+00 0. -1.
         13    1    6    6    0    0  0.19687547957E+02  0.25224272844E+02  0.11673810371E+02  0.34061009361E+02  0.10500000000E+00 0.  1.
</event>
<event>
11    0  0.3467594E-009  0.9118800E+02  0.7816531E-02  0.1126479E+00
         25   -1    0    0    0    0  0.00000000000E+00  0.00000000000E+00  0.99999998245E-14  0.12500000000E+03  0.12500000000E+03 0.  0.
    3000001    1    3    3    0    0 -0.22879287294E+02  0.26850668927E+01 -0.51374748795E+01  0.23623399828E+02  0.10000000000E+01 0. -1.
    1000022    2    1    0    0    0 -0.59523787314E+02 -0.53907454426E+01 -0.15300611056E+02  0.62499998983E+02  0.99999890756E+01 0.  0.
    3000022    2    3    3    0    0 -0.36644500020E+02 -0.80758123354E+01 -0.10163136177E+02  0.38876599154E+02  0.24999657686E+00 0.  0.
    1000022    2    1    0    0    0  0.59523787314E+02  0.53907454426E+01  0.15300611056E+02  0.62500001017E+02  0.10000001794E+02 0.  0.
    3000022    2    5    5    0    0  0.54549679425E+02  0.29368579780E+01  0.11876060527E+02  0.55905241029E+02  0.25000137726E+00 0.  0.
        -13    1    4    4    0    0 -0.18462733504E+02 -0.40012783204E+01 -0.51004626961E+01  0.19568047970E+02  0.10500000000E+00 0. -1.
         13    1    4    4    0    0 -0.18181766516E+02 -0.40745340149E+01 -0.50626734809E+01  0.19308551185E+02  0.10500000000E+00 0.  1.
    3000001    1    5    5    0    0  0.49741078885E+01  0.24538874646E+01  0.34245505297E+01  0.65947599886E+01  0.10000000000E+01 0. -1.
        -13    1    6    6    0    0  0.23036590469E+02  0.12079107855E+01  0.49572514004E+01  0.23595103631E+02  0.10500000000E+00 0. -1.
         13    1    6    6    0    0  0.31513088956E+02  0.17289471925E+01  0.69188091263E+01  0.32310137398E+02  0.10500000000E+00 0.  1.
</event>
<event>
11    0  0.3467594E-009  0.9118800E+02  0.7816531E-02  0.1126479E+00
         25   -1    0    0    0    0  0.00000000000E+00  0.00000000000E+00  0.99999998245E-14  0.12500000000E+03  0.12500000000E+03 0.  0.
    3000001    1    3    3    0    0  0.25046841361E+02 -0.23133701824E+02 -0.35638786920E+02  0.49331891869E+02  0.10000000000E+01 0. -1.
    1000022    2    1    0    0    0  0.27987609987E+02 -0.32680960021E+02 -0.44214235738E+02  0.62500000975E+02  0.10000000969E+02 0.  0.
    3000022    2    3    3    0    0  0.29407686262E+01 -0.95472581963E+01 -0.85754488172E+01  0.13168109106E+02  0.25003165245E+00 0.  0.
    1000022    2    1    0    0    0 -0.27987609987E+02  0.32680960021E+02  0.44214235738E+02  0.62499999025E+02  0.99999887776E+01 0.  0.
    3000022    2    5    5    0    0  0.28390644774E+00  0.29992787946E+01  0.18596176450E+01  0.35492185743E+01  0.24999708744E+00 0.  0.
        -13    1    4    4    0    0  0.12555244552E+01 -0.42456163346E+01 -0.37429560271E+01  0.57984777777E+01  0.10500000000E+00 0.  1.
         13    1    4    4    0    0  0.16852441711E+01 -0.53016418617E+01 -0.48324927902E+01  0.73696313281E+01  0.10500000000E+00 0. -1.
    3000001    1    5    5    0    0 -0.28271516435E+02  0.29681681226E+02  0.42354618093E+02  0.58950780450E+02  0.10000000000E+01 0. -1.
        -13    1    6    6    0    0  0.21192335364E+00  0.19045309928E+01  0.11227378720E+01  0.22234466801E+01  0.10500000000E+00 0. -1.
         13    1    6    6    0    0  0.71983094107E-01  0.10947478018E+01  0.73687977308E+00  0.13257718942E+01  0.10500000000E+00 0.  1.
</event>
<event>
11    0  0.3467594E-009  0.9118800E+02  0.7816531E-02  0.1126479E+00
         25   -1    0    0    0    0  0.00000000000E+00  0.00000000000E+00  0.99999998245E-14  0.12500000000E+03  0.12500000000E+03 0.  0.
    3000001    1    3    3    0    0  0.31482445379E+02  0.21447891668E+02 -0.24853639766E+02  0.45495712256E+02  0.10000000000E+01 0.  1.
    1000022    2    1    0    0    0  0.46549771948E+02  0.27963301939E+02 -0.29281776624E+02  0.62499999888E+02  0.10000000998E+02 0.  0.
    3000022    2    3    3    0    0  0.15067326569E+02  0.65154102709E+01 -0.44281368589E+01  0.17004287633E+02  0.25000180394E+00 0.  0.
    1000022    2    1    0    0    0 -0.46549771948E+02 -0.27963301939E+02  0.29281776624E+02  0.62500000112E+02  0.10000002396E+02 0.  0.
    3000022    2    5    5    0    0 -0.31119151709E+02 -0.20310153547E+02  0.14894382888E+02  0.40035098157E+02  0.25000538152E+00 0.  0.
        -13    1    4    4    0    0  0.10648133497E+02  0.45913992298E+01 -0.30838908330E+01  0.11999379214E+02  0.10500000000E+00 0.  1.
         13    1    4    4    0    0  0.44191930725E+01  0.19240110411E+01 -0.13442460259E+01  0.50049084184E+01  0.10500000000E+00 0. -1.
    3000001    1    5    5    0    0 -0.15430620240E+02 -0.76531483921E+01  0.14387393737E+02  0.22464901954E+02  0.10000000000E+01 0. -1.
        -13    1    6    6    0    0 -0.15030366101E+02 -0.98820708638E+01  0.71772648416E+01  0.19367276145E+02  0.10500000000E+00 0. -1.
         13    1    6    6    0    0 -0.16088785608E+02 -0.10428082683E+02  0.77171180461E+01  0.20667822012E+02  0.10500000000E+00 0.  1.
</event>
<event>
11    0  0.3467594E-009  0.9118800E+02  0.7816531E-02  0.1126479E+00
         25   -1    0    0    0    0  0.00000000000E+00  0.00000000000E+00  0.99999998245E-14  0.12500000000E+03  0.12500000000E+03 0.  0.
    3000001    1    3    3    0    0  0.46861795740E+01  0.41548263438E+02  0.45804524299E+02  0.62026388900E+02  0.10000000000E+01 0.  1.
    1000022    2    1    0    0    0  0.46703990646E+01  0.41507257667E+02  0.45404676993E+02  0.62499999458E+02  0.10000008646E+02 0.  0.
    3000022    2    3    3    0    0 -0.15780509392E-01 -0.41005770639E-01 -0.39984730628E+00  0.47361055778E+00  0.24999718878E+00 0.  0.
    1000022    2    1    0    0    0 -0.46703990646E+01 -0.41507257667E+02 -0.45404676993E+02  0.62500000542E+02  0.10000015421E+02 0.  0.
    3000022    2    5    5    0    0  0.14500481246E+01 -0.12141510446E+02 -0.18592575956E+02  0.22254556754E+02  0.25000032393E+00 0.  0.
        -13    1    4    4    0    0 -0.61119442425E-01  0.18532428876E-01 -0.22479473270E+00  0.25619662178E+00  0.10500000000E+00 0. -1.
         13    1    4    4    0    0  0.45338933033E-01 -0.59538199515E-01 -0.17505257358E+00  0.21741393600E+00  0.10500000000E+00 0.  1.
    3000001    1    5    5    0    0 -0.61204471891E+01 -0.29365747222E+02 -0.26812101037E+02  0.40245443788E+02  0.10000000000E+01 0. -1.
        -13    1    6    6    0    0  0.52496237516E+00 -0.47965622474E+01 -0.74110733691E+01  0.88440730646E+01  0.10500000000E+00 0. -1.
         13    1    6    6    0    0  0.92508574941E+00 -0.73449481983E+01 -0.11181502587E+02  0.13410483690E+02  0.10500000000E+00 0.  1.
</event>
<event>
11    0  0.3467594E-009  0.9118800E+02  0.7816531E-02  0.1126479E+00
         25   -1    0    0    0    0  0.00000000000E+00  0.00000000000E+00  0.99999998245E-14  0.12500000000E+03  0.12500000000E+03 0.  0.
    3000001    1    3    3    0    0 -0.97076628732E+01  0.25683211685E+02  0.33283049111E+02  0.43158167698E+02  0.10000000000E+01 0.  1.
    1000022    2    1    0    0    0 -0.16728052702E+02  0.40705246734E+02  0.43237775126E+02  0.62499999552E+02  0.99999943670E+01 0.  0.
    3000022    2    3    3    0    0 -0.70203898293E+01  0.15022035049E+02  0.99547260146E+01  0.19341831854E+02  0.24995817849E+00 0.  0.
    1000022    2    1    0    0    0  0.16728052702E+02 -0.40705246734E+02 -0.43237775126E+02  0.62500000448E+02  0.99999999619E+01 0.  0.
    3000022    2    5    5    0    0 -0.73976459168E+00 -0.18157347432E+01 -0.32720421086E+00  0.20034230226E+01  0.24999380592E+00 0.  0.
        -13    1    4    4    0    0 -0.37494430681E+01  0.81461894991E+01  0.54325911884E+01  0.10485361162E+02  0.10500000000E+00 0.  1.
         13    1    4    4    0    0 -0.32709467612E+01  0.68758455495E+01  0.45221348262E+01  0.88564706922E+01  0.10500000000E+00 0. -1.
    3000001    1    5    5    0    0  0.17467817294E+02 -0.38889511990E+02 -0.42910570915E+02  0.60496577425E+02  0.10000000000E+01 0.  1.
        -13    1    6    6    0    0 -0.21035132821E+00 -0.52034371936E+00 -0.51931004926E-01  0.57334727419E+00  0.10500000000E+00 0. -1.
         13    1    6    6    0    0 -0.52941326347E+00 -0.12953910239E+01 -0.27527320594E+00  0.14300757484E+01  0.10500000000E+00 0.  1.
</event>
<event>
11    0  0.3467594E-009  0.9118800E+02  0.7816531E-02  0.1126479E+00
         25   -1    0    0    0    0  0.00000000000E+00  0.00000000000E+00  0.99999998245E-14  0.12500000000E+03  0.12500000000E+03 0.  0.
    3000001    1    3    3    0    0 -0.35986810774E+02 -0.49312205457E-01  0.29218382255E+01  0.36119110178E+02  0.10000000000E+01 0. -1.
    1000022    2    1    0    0    0 -0.60973257430E+02 -0.84089271954E+01  0.42191768931E+01  0.62499998443E+02  0.10000008673E+02 0.  0.
    3000022    2    3    3    0    0 -0.24986446656E+02 -0.83596149899E+01  0.12973386676E+01  0.26380888265E+02  0.24999755970E+00 0.  0.
    1000022    2    1    0    0    0  0.60973257430E+02  0.84089271954E+01 -0.42191768931E+01  0.62500001557E+02  0.10000028135E+02 0.  0.
    3000022    2    5    5    0    0  0.80654835683E+00  0.10883824610E+01  0.93147502288E+00  0.16629037373E+01  0.25001297548E+00 0.  0.
        -13    1    4    4    0    0 -0.17407934646E+02 -0.58698114065E+01  0.92157243113E+00  0.18394325085E+02  0.10500000000E+00 0. -1.
         13    1    4    4    0    0 -0.75785120105E+01 -0.24898035835E+01  0.37576623647E+00  0.79865631809E+01  0.10500000000E+00 0.  1.
    3000001    1    5    5    0    0  0.60166709074E+02  0.73205447343E+01 -0.51506519159E+01  0.60837097820E+02  0.10000000000E+01 0. -1.
        -13    1    6    6    0    0  0.20926070281E+00  0.27444942975E+00  0.28189360971E+00  0.45782260585E+00  0.10500000000E+00 0.  1.
         13    1    6    6    0    0  0.59728765402E+00  0.81393303130E+00  0.64958141317E+00  0.12050811315E+01  0.10500000000E+00 0.  1.
</event>
<event>
11    0  0.3467594E-009  0.9118800E+02  0.7816531E-02  0.1126479E+00
         25   -1    0    0    0    0  0.00000000000E+00  0.00000000000E+00  0.99999998245E-14  0.12500000000E+03  0.12500000000E+03 0.  0.
    3000001    1    3    3    0    0 -0.16650492832E+02  0.39407445742E+02  0.27241693160E+02  0.50727660479E+02  0.10000000000E+01 0. -1.
    1000022    2    1    0    0    0 -0.24616266002E+02  0.46553918686E+02  0.32140659206E+02  0.62500001076E+02  0.10000013166E+02 0.  0.
    3000022    2    3    3    0    0 -0.79657731704E+01  0.71464729446E+01  0.48989660465E+01  0.11772340597E+02  0.25003411429E+00 0.  0.
    1000022    2    1    0    0    0  0.24616266002E+02 -0.46553918686E+02 -0.32140659206E+02  0.62499998924E+02  0.99999997207E+01 0.  0.
    3000022    2    5    5    0    0  0.21511119525E+02 -0.31912974244E+02 -0.24941962557E+02  0.45862077712E+02  0.24997518718E+00 0.  0.
        -13    1    4    4    0    0 -0.51794780174E+01  0.46848758205E+01  0.32498809277E+01  0.77037526590E+01  0.10500000000E+00 0.  1.
         13    1    4    4    0    0 -0.27862951530E+01  0.24615971241E+01  0.16490851188E+01  0.40685879381E+01  0.10500000000E+00 0. -1.
    3000001    1    5    5    0    0  0.31051464769E+01 -0.14640944443E+02 -0.71986966494E+01  0.16637921212E+02  0.10000000000E+01 0.  1.
        -13    1    6    6    0    0  0.83601797390E+01 -0.12485853018E+02 -0.96892861663E+01  0.17879665049E+02  0.10500000000E+00 0. -1.
         13    1    6    6    0    0  0.13150939786E+02 -0.19427121226E+02 -0.15252676391E+02  0.27982412663E+02  0.10500000000E+00 0.  1.
</event>
<event>
11    0  0.3467594E-009  0.9118800E+02  0.7816531E-02  0.1126479E+00
         25   -1    0    0    0    0  0.00000000000E+00  0.00000000000E+00  0.99999998245E-14  0.12500000000E+03  0.12500000000E+03 0.  0.
    3000001    1    3    3    0    0  0.10373727811E+02  0.27633497983E+00 -0.53922582659E+01  0.11737420454E+02  0.10000000000E+01 0.  1.
    1000022    2    1    0    0    0  0.42955440754E+02 -0.28446549864E+01 -0.44192623155E+02  0.62499999439E+02  0.10000001811E+02 0.  0.
    3000022    2    3    3    0    0  0.32581712943E+02 -0.31209899662E+01 -0.38800364889E+02  0.50762578985E+02  0.25002598892E+00 0.  0.
    1000022    2    1    0    0    0 -0.42955440754E+02  0.28446549864E+01  0.44192623155E+02  0.62500000561E+02  0.10000008823E+02 0.  0.
    3000022    2    5    5    0    0 -0.18254728208E+02  0.60761471131E+01  0.20262010523E+02  0.27942194459E+02  0.24999012479E+00 0.  0.
        -13    1    4    4    0    0  0.19039838903E+02 -0.18090298697E+01 -0.22574610562E+02  0.29587364222E+02  0.10500000000E+00 0.  1.
         13    1    4    4    0    0  0.13541874040E+02 -0.13119600965E+01 -0.16225754327E+02  0.21175214763E+02  0.10500000000E+00 0. -1.
    3000001    1    5    5    0    0 -0.24700712546E+02 -0.32314921268E+01  0.23930612632E+02  0.34557806102E+02  0.10000000000E+01 0. -1.
        -13    1    6    6    0    0 -0.90648114639E+01  0.29961860640E+01  0.99604844556E+01  0.13797471268E+02  0.10500000000E+00 0. -1.
         13    1    6    6    0    0 -0.91899167437E+01  0.30799610491E+01  0.10301526067E+02  0.14144723190E+02  0.10500000000E+00 0.  1.
</event>
<event>
11    0  0.3467594E-009  0.9118800E+02  0.7816531E-02  0.1126479E+00
         25   -1    0    0    0    0  0.00000000000E+00  0.00000000000E+00  0.99999998245E-14  0.12500000000E+03  0.12500000000E+03 0.  0.
    3000001    1    3    3    0    0  0.16008565170E+02  0.94004110180E+01 -0.58429644808E+01  0.19487999386E+02  0.10000000000E+01 0.  1.
    1000022    2    1    0    0    0  0.55980709127E+02  0.25280965772E+02 -0.57691552640E+01  0.62500000791E+02  0.99999960859E+01 0.  0.
    3000022    2    3    3    0    0  0.39972143957E+02  0.15880554754E+02  0.73809216790E-01  0.43012001406E+02  0.25001070098E+00 0.  0.
    1000022    2    1    0    0    0 -0.55980709127E+02 -0.25280965772E+02  0.57691552640E+01  0.62499999209E+02  0.99999861927E+01 0.  0.
    3000022    2    5    5    0    0 -0.19012553419E+02 -0.13834033786E+02  0.17537318704E+01  0.23579562245E+02  0.25000384158E+00 0.  0.
        -13    1    4    4    0    0  0.12653225247E+02  0.50599639834E+01  0.62961752364E-01  0.13627998160E+02  0.10500000000E+00 0.  1.
         13    1    4    4    0    0  0.27318918710E+02  0.10820590771E+02  0.10847464426E-01  0.29384003246E+02  0.10500000000E+00 0. -1.
    3000001    1    5    5    0    0 -0.36968155708E+02 -0.11446931986E+02  0.40154233937E+01  0.38920436963E+02  0.10000000000E+01 0.  1.
        -13    1    6    6    0    0 -0.13142822485E+02 -0.95797351282E+01  0.12591948558E+01  0.16312624090E+02  0.10500000000E+00 0. -1.
         13    1    6    6    0    0 -0.58697309335E+01 -0.42542986573E+01  0.49453701454E+00  0.72669381555E+01  0.10500000000E+00 0.  1.
</event>
<event>
11    0  0.3467594E-009  0.9118800E+02  0.7816531E-02  0.1126479E+00
         25   -1    0    0    0    0  0.00000000000E+00  0.00000000000E+00  0.99999998245E-14  0.12500000000E+03  0.12500000000E+03 0.  0.
    3000001    1    3    3    0    0  0.29382863525E+00  0.66304719671E+01  0.51097242221E+00  0.67313138829E+01  0.10000000000E+01 0.  1.
    1000022    2    1    0    0    0 -0.16419449584E+02  0.54783312205E+02  0.23139586198E+02  0.62500000028E+02  0.99999966633E+01 0.  0.
    3000022    2    3    3    0    0 -0.16713278219E+02  0.48152840238E+02  0.22628613776E+02  0.55768686145E+02  0.25000221008E+00 0.  0.
    1000022    2    1    0    0    0  0.16419449584E+02 -0.54783312205E+02 -0.23139586198E+02  0.62499999972E+02  0.99999963188E+01 0.  0.
    3000022    2    5    5    0    0  0.17360047031E+02 -0.47454432110E+02 -0.19102922645E+02  0.54021093225E+02  0.24999957952E+00 0.  0.
        -13    1    4    4    0    0 -0.85137193497E+01  0.24431952608E+02  0.11420777990E+02  0.28281600384E+02  0.10500000000E+00 0.  1.
         13    1    4    4    0    0 -0.81995588695E+01  0.23720887630E+02  0.11207835785E+02  0.27487085760E+02  0.10500000000E+00 0. -1.
    3000001    1    5    5    0    0 -0.94059744699E+00 -0.73288800946E+01 -0.40366635527E+01  0.84789067477E+01  0.10000000000E+01 0.  1.
        -13    1    6    6    0    0  0.88565382695E+01 -0.24110034557E+02 -0.97728425927E+01  0.27481839709E+02  0.10500000000E+00 0. -1.
         13    1    6    6    0    0  0.85035087615E+01 -0.23344397553E+02 -0.93300800524E+01  0.26539253515E+02  0.10500000000E+00 0.  1.
</event>
<event>
11    0  0.3467594E-009  0.9118800E+02  0.7816531E-02  0.1126479E+00
         25   -1    0    0    0    0  0.00000000000E+00  0.00000000000E+00  0.99999998245E-14  0.12500000000E+03  0.12500000000E+03 0.  0.
    3000001    1    3    3    0    0  0.32141016743E+01 -0.98466835610E+01 -0.37405143403E+02  0.38825666507E+02  0.10000000000E+01 0. -1.
    1000022    2    1    0    0    0  0.62925822761E+01 -0.82170561720E+01 -0.60820500061E+02  0.62500001932E+02  0.10000020499E+02 0.  0.
    3000022    2    3    3    0    0  0.30784806018E+01  0.16296273890E+01 -0.23415356658E+02  0.23674335425E+02  0.25000427215E+00 0.  0.
    1000022    2    1    0    0    0 -0.62925822761E+01  0.82170561720E+01  0.60820500061E+02  0.62499998068E+02  0.99999963542E+01 0.  0.
    3000022    2    5    5    0    0  0.23566851090E+01  0.33380957753E+01  0.24197488379E+02  0.24541348652E+02  0.25000343929E+00 0.  0.
        -13    1    4    4    0    0  0.93419634108E+00  0.49159772892E+00 -0.74367398998E+01  0.75120247915E+01  0.10500000000E+00 0. -1.
         13    1    4    4    0    0  0.21442842607E+01  0.11380296601E+01 -0.15978616758E+02  0.16162310633E+02  0.10500000000E+00 0.  1.
    3000001    1    5    5    0    0 -0.86492673850E+01  0.48789603967E+01  0.36623011682E+02  0.37958649417E+02  0.10000000000E+01 0.  1.
        -13    1    6    6    0    0  0.13028632716E+01  0.18851538537E+01  0.13935726459E+02  0.14123269972E+02  0.10500000000E+00 0.  1.
         13    1    6    6    0    0  0.10538218374E+01  0.14529419216E+01  0.10261761919E+02  0.10418078680E+02  0.10500000000E+00 0. -1.
</event>
<event>
11    0  0.3467594E-009  0.9118800E+02  0.7816531E-02  0.1126479E+00
         25   -1    0    0    0    0  0.00000000000E+00  0.00000000000E+00  0.99999998245E-14  0.12500000000E+03  0.12500000000E+03 0.  0.
    3000001    1    3    3    0    0 -0.14366427688E+02  0.28683293937E+02 -0.46151477007E+02  0.56214628217E+02  0.10000000000E+01 0.  1.
    1000022    2    1    0    0    0 -0.15291836652E+02  0.34190843714E+02 -0.49024443058E+02  0.62500000642E+02  0.10000000051E+02 0.  0.
    3000022    2    3    3    0    0 -0.92540896339E+00  0.55075497775E+01 -0.28729660508E+01  0.62853724253E+01  0.24997258686E+00 0.  0.
    1000022    2    1    0    0    0  0.15291836652E+02 -0.34190843714E+02  0.49024443058E+02  0.62499999358E+02  0.99999920276E+01 0.  0.
    3000022    2    5    5    0    0  0.57970208996E+01 -0.16852962307E+02  0.15758796559E+02  0.23791384105E+02  0.24999759534E+00 0.  0.
        -13    1    4    4    0    0 -0.26348517339E+00  0.17043444561E+01 -0.93599472957E+00  0.19650255967E+01  0.10500000000E+00 0.  1.
         13    1    4    4    0    0 -0.66192379001E+00  0.38032053214E+01 -0.19369713213E+01  0.43203468287E+01  0.10500000000E+00 0. -1.
    3000001    1    5    5    0    0  0.94948157519E+01 -0.17337881407E+02  0.33265646499E+02  0.38708615253E+02  0.10000000000E+01 0. -1.
        -13    1    6    6    0    0  0.18727737307E+01 -0.54572850829E+01  0.51708513931E+01  0.77484173257E+01  0.10500000000E+00 0.  1.
         13    1    6    6    0    0  0.39242471690E+01 -0.11395677224E+02  0.10587945166E+02  0.16042966779E+02  0.10500000000E+00 0. -1.
</event>
<event>
11    0  0.3467594E-009  0.9118800E+02  0.7816531E-02  0.1126479E+00
         25   -1    0    0    0    0  0.00000000000E+00  0.00000000000E+00  0.99999998245E-14  0.12500000000E+03  0.12500000000E+03 0.  0.
    3000001    1    3    3    0    0 -0.47671174461E+02 -0.49024239622E+01  0.15840880845E+02  0.50482750927E+02  0.10000000000E+01 0. -1.
    1000022    2    1    0    0    0 -0.59496711461E+02 -0.67788821420E+01  0.14847188672E+02  0.62500002828E+02  0.99999712176E+01 0.  0.
    3000022    2    3    3    0    0 -0.11825536999E+02 -0.18764581798E+01 -0.99369217284E+00  0.12017251901E+02  0.24999700084E+00 0.  0.
    1000022    2    1    0    0    0  0.59496711461E+02  0.67788821420E+01 -0.14847188672E+02  0.62499997172E+02  0.99999358648E+01 0.  0.
    3000022    2    5    5    0    0  0.53597226773E+02  0.85754383142E+01 -0.14765411213E+02  0.56251939777E+02  0.25000066240E+00 0.  0.
        -13    1    4    4    0    0 -0.33224261347E+01 -0.51233277612E+00 -0.24178923798E+00  0.33720153217E+01  0.10500000000E+00 0.  1.
         13    1    4    4    0    0 -0.85031108647E+01 -0.13641254037E+01 -0.75190293487E+00  0.86452365796E+01  0.10500000000E+00 0. -1.
    3000001    1    5    5    0    0  0.58994846871E+01 -0.17965561723E+01 -0.81777459231E-01  0.62480573946E+01  0.10000000000E+01 0. -1.
        -13    1    6    6    0    0  0.34236516325E+02  0.54834712493E+01 -0.93718511593E+01  0.35917267799E+02  0.10500000000E+00 0. -1.
         13    1    6    6    0    0  0.19360710449E+02  0.30919670649E+01 -0.53935600534E+01  0.20334671978E+02  0.10500000000E+00 0.  1.
</event>
<event>
11    0  0.3467594E-009  0.9118800E+02  0.7816531E-02  0.1126479E+00
         25   -1    0    0    0    0  0.00000000000E+00  0.00000000000E+00  0.99999998245E-14  0.12500000000E+03  0.12500000000E+03 0.  0.
    3000001    1    3    3    0    0  0.43155809259E+02  0.14597175291E+02  0.35561940229E+02  0.57802707481E+02  0.10000000000E+01 0. -1.
    1000022    2    1    0    0    0  0.46694324804E+02  0.12973579680E+02  0.38178217147E+02  0.62500000052E+02  0.10000000168E+02 0.  0.
    3000022    2    3    3    0    0  0.35385155447E+01 -0.16235956103E+01  0.26162769183E+01  0.46972925712E+01  0.24999523981E+00 0.  0.
    1000022    2    1    0    0    0 -0.46694324804E+02 -0.12973579680E+02 -0.38178217147E+02  0.62499999948E+02  0.99999995210E+01 0.  0.
    3000022    2    5    5    0    0 -0.11544937892E+00 -0.11413600054E+01 -0.20713104603E+01  0.23809366759E+01  0.25000242114E+00 0.  0.
        -13    1    4    4    0    0  0.19052081099E+01 -0.80472292689E+00  0.13604989149E+01  0.24777770740E+01  0.10500000000E+00 0.  1.
         13    1    4    4    0    0  0.16333074349E+01 -0.81887268343E+00  0.12557780034E+01  0.22195154972E+01  0.10500000000E+00 0. -1.
    3000001    1    5    5    0    0 -0.46578875425E+02 -0.11832219675E+02 -0.36106906687E+02  0.60119063272E+02  0.10000000000E+01 0. -1.
        -13    1    6    6    0    0 -0.16840238111E-01 -0.55784489608E+00 -0.11182901732E+01  0.12542218437E+01  0.10500000000E+00 0. -1.
         13    1    6    6    0    0 -0.98609140809E-01 -0.58351510930E+00 -0.95302028706E+00  0.11267148321E+01  0.10500000000E+00 0.  1.
</event>
<event>
11    0  0.3467594E-009  0.9118800E+02  0.7816531E-02  0.1126479E+00
         25   -1    0    0    0    0  0.00000000000E+00  0.00000000000E+00  0.99999998245E-14  0.12500000000E+03  0.12500000000E+03 0.  0.
    3000001    1    3    3    0    0  0.10577331332E+01 -0.37718471251E+02  0.12071022643E+02  0.39629679037E+02  0.10000000000E+01 0. -1.
    1000022    2    1    0    0    0  0.65539537485E+01 -0.59881911196E+02  0.13321140961E+02  0.62500004862E+02  0.10000010656E+02 0.  0.
    3000022    2    3    3    0    0  0.54962206153E+01 -0.22163439945E+02  0.12501183179E+01  0.22870325826E+02  0.24999267460E+00 0.  0.
    1000022    2    1    0    0    0 -0.65539537485E+01  0.59881911196E+02 -0.13321140961E+02  0.62499995138E+02  0.99999498765E+01 0.  0.
    3000022    2    5    5    0    0 -0.43596156580E+01  0.23079884257E+02 -0.63422299666E+00  0.23497915785E+02  0.25000280057E+00 0.  0.
        -13    1    4    4    0    0  0.15678197241E+01 -0.62876232555E+01  0.31463027493E+00  0.64886271352E+01  0.10500000000E+00 0. -1.
         13    1    4    4    0    0  0.39284008912E+01 -0.15875816689E+02  0.93548804301E+00  0.16381698691E+02  0.10500000000E+00 0.  1.
    3000001    1    5    5    0    0 -0.21943380905E+01  0.36802026939E+02 -0.12686917964E+02  0.39002079353E+02  0.10000000000E+01 0.  1.
        -13    1    6    6    0    0 -0.27038115117E+01  0.14631754844E+02 -0.39877751910E+00  0.14885190460E+02  0.10500000000E+00 0.  1.
         13    1    6    6    0    0 -0.16558041464E+01  0.84481294127E+01 -0.23544547756E+00  0.86127253247E+01  0.10500000000E+00 0. -1.
</event>
<event>
11    0  0.3467594E-009  0.9118800E+02  0.7816531E-02  0.1126479E+00
         25   -1    0    0    0    0  0.00000000000E+00  0.00000000000E+00  0.99999998245E-14  0.12500000000E+03  0.12500000000E+03 0.  0.
    3000001    1    3    3    0    0  0.19782847669E+02  0.25271877565E+01 -0.55307688239E+02  0.58802109810E+02  0.10000000000E+01 0.  1.
    1000022    2    1    0    0    0  0.21246463613E+02  0.37155718959E+00 -0.57919768977E+02  0.62499998426E+02  0.99999947055E+01 0.  0.
    3000022    2    3    3    0    0  0.14636159439E+01 -0.21556305669E+01 -0.26120807384E+01  0.36978886157E+01  0.24999931607E+00 0.  0.
    1000022    2    1    0    0    0 -0.21246463613E+02 -0.37155718959E+00  0.57919768977E+02  0.62500001574E+02  0.10000014380E+02 0.  0.
    3000022    2    5    5    0    0 -0.12841968343E+02  0.22549236471E+01  0.22669124272E+02  0.26152485916E+02  0.24998557152E+00 0.  0.
        -13    1    4    4    0    0  0.36617327519E+00 -0.51518021442E+00 -0.61472420842E+00  0.88792137783E+00  0.10500000000E+00 0. -1.
         13    1    4    4    0    0  0.10974426687E+01 -0.16404503525E+01 -0.19973565300E+01  0.28099672379E+01  0.10500000000E+00 0.  1.
    3000001    1    5    5    0    0 -0.84044952694E+01 -0.26264808367E+01  0.35250644705E+02  0.36347515657E+02  0.10000000000E+01 0. -1.
        -13    1    6    6    0    0 -0.76460615541E+01  0.13266440442E+01  0.13614927989E+02  0.15671615451E+02  0.10500000000E+00 0. -1.
         13    1    6    6    0    0 -0.51959067890E+01  0.92827960289E+00  0.90541962828E+01  0.10480870465E+02  0.10500000000E+00 0.  1.
</event>
<event>
11    0  0.3467594E-009  0.9118800E+02  0.7816531E-02  0.1126479E+00
         25   -1    0    0    0    0  0.00000000000E+00  0.00000000000E+00  0.99999998245E-14  0.12500000000E+03  0.12500000000E+03 0.  0.
    3000001    1    3    3    0    0  0.27934645200E+01 -0.75971051084E+01 -0.17262512522E+01  0.83366296211E+01  0.10000000000E+01 0. -1.
    1000022    2    1    0    0    0  0.37391881715E+01 -0.61456525675E+02  0.39196939826E+01  0.62500000800E+02  0.10000001138E+02 0.  0.
    3000022    2    3    3    0    0  0.94572365151E+00 -0.53859420567E+02  0.56459452348E+01  0.54163371179E+02  0.25000560010E+00 0.  0.
    1000022    2    1    0    0    0 -0.37391881715E+01  0.61456525675E+02 -0.39196939826E+01  0.62499999200E+02  0.99999911422E+01 0.  0.
    3000022    2    5    5    0    0  0.63393855800E+00  0.86516568711E+01 -0.38765482313E+01  0.95049025555E+01  0.25000337866E+00 0.  0.
        -13    1    4    4    0    0  0.31429931281E+00 -0.17783165111E+02  0.19173361237E+01  0.17889297030E+02  0.10500000000E+00 0. -1.
         13    1    4    4    0    0  0.63142433870E+00 -0.36076255456E+02  0.37286091111E+01  0.36274074148E+02  0.10500000000E+00 0.  1.
    3000001    1    5    5    0    0 -0.43731267295E+01  0.52804868804E+02 -0.43145751238E-01  0.52995096645E+02  0.10000000000E+01 0.  1.
        -13    1    6    6    0    0  0.43825812799E+00  0.56446190037E+01 -0.25847045333E+01  0.62245896578E+01  0.10500000000E+00 0. -1.
         13    1    6    6    0    0  0.19568043001E+00  0.30070378674E+01 -0.12918436981E+01  0.32803128977E+01  0.10500000000E+00 0.  1.
</event>
<event>
11    0  0.3467594E-009  0.9118800E+02  0.7816531E-02  0.1126479E+00
         25   -1    0    0    0    0  0.00000000000E+00  0.00000000000E+00  0.99999998245E-14  0.12500000000E+03  0.12500000000E+03 0.  0.
    3000001    1    3    3    0    0  0.98516086007E+01  0.30400852119E+02 -0.33977503841E+02  0.46655511667E+02  0.10000000000E+01 0.  1.
    1000022    2    1    0    0    0  0.95708481516E+01  0.37180975502E+02 -0.48293105540E+02  0.62500001281E+02  0.10000002193E+02 0.  0.
    3000022    2    3    3    0    0 -0.28076044912E+00  0.67801233827E+01 -0.14315601699E+02  0.15844489615E+02  0.24999927688E+00 0.  0.
    1000022    2    1    0    0    0 -0.95708481516E+01 -0.37180975502E+02  0.48293105540E+02  0.62499998719E+02  0.99999861758E+01 0.  0.
    3000022    2    5    5    0    0 -0.10135504393E+02 -0.36818476916E+02  0.47840257279E+02  0.61213408868E+02  0.25003401838E+00 0.  0.
        -13    1    4    4    0    0 -0.67549749363E-01  0.17693337759E+01 -0.38137030970E+01  0.42060030066E+01  0.10500000000E+00 0.  1.
         13    1    4    4    0    0 -0.21321069976E+00  0.50107896068E+01 -0.10501898602E+02  0.11638486608E+02  0.10500000000E+00 0. -1.
    3000001    1    5    5    0    0  0.56465624177E+00 -0.36249858559E+00  0.45284826140E+00  0.12865898506E+01  0.10000000000E+01 0.  1.
        -13    1    6    6    0    0 -0.52180785233E+01 -0.19130805253E+02  0.24762880234E+02  0.31724238614E+02  0.10500000000E+00 0.  1.
         13    1    6    6    0    0 -0.49174258701E+01 -0.17687671663E+02  0.23077377044E+02  0.29489170254E+02  0.10500000000E+00 0. -1.
</event>
<event>
11    0  0.3467594E-009  0.9118800E+02  0.7816531E-02  0.1126479E+00
         25   -1    0    0    0    0  0.00000000000E+00  0.00000000000E+00  0.99999998245E-14  0.12500000000E+03  0.12500000000E+03 0.  0.
    3000001    1    3    3    0    0  0.24848480296E+02 -0.33476100786E+02 -0.37258093645E+02  0.55921926281E+02  0.10000000000E+01 0. -1.
    1000022    2    1    0    0    0  0.25228522494E+02 -0.39264977982E+02 -0.40348891394E+02  0.62500000312E+02  0.10000007956E+02 0.  0.
    3000022    2    3    3    0    0  0.38004219808E+00 -0.57888771953E+01 -0.30907977495E+01  0.65780740314E+01  0.24999196065E+00 0.  0.
    1000022    2    1    0    0    0 -0.25228522494E+02  0.39264977982E+02  0.40348891394E+02  0.62499999688E+02  0.10000004056E+02 0.  0.
    3000022    2    5    5    0    0 -0.17605978287E+02  0.18431725184E+02  0.22734114836E+02  0.34155547753E+02  0.25000040649E+00 0.  0.
        -13    1    4    4    0    0  0.27482333081E+00 -0.36504214732E+01 -0.20038031153E+01  0.41746085709E+01  0.10500000000E+00 0. -1.
         13    1    4    4    0    0  0.10521886727E+00 -0.21384557220E+01 -0.10869946342E+01  0.24034654605E+01  0.10500000000E+00 0.  1.
    3000001    1    5    5    0    0 -0.76225442072E+01  0.20833252798E+02  0.17614776558E+02  0.28344451935E+02  0.10000000000E+01 0. -1.
        -13    1    6    6    0    0 -0.12217331666E+02  0.12788103968E+02  0.15837578337E+02  0.23741076402E+02  0.10500000000E+00 0.  1.
         13    1    6    6    0    0 -0.53886466206E+01  0.56436212157E+01  0.68965364996E+01  0.10414471351E+02  0.10500000000E+00 0. -1.
</event>
<event>
11    0  0.3467594E-009  0.9118800E+02  0.7816531E-02  0.1126479E+00
         25   -1    0    0    0    0  0.00000000000E+00  0.00000000000E+00  0.99999998245E-14  0.12500000000E+03  0.12500000000E+03 0.  0.
    3000001    1    3    3    0    0 -0.25753869205E+02 -0.19578197693E+01  0.11323045198E+02  0.28218897743E+02  0.10000000000E+01 0. -1.
    1000022    2    1    0    0    0 -0.52688668286E+02 -0.13460016556E+02  0.29137295336E+02  0.62499999531E+02  0.10000007527E+02 0.  0.
    3000022    2    3    3    0    0 -0.26934799081E+02 -0.11502196786E+02  0.17814250138E+02  0.34281101789E+02  0.24999884801E+00 0.  0.
    1000022    2    1    0    0    0  0.52688668286E+02  0.13460016556E+02 -0.29137295336E+02  0.62500000469E+02  0.10000013384E+02 0.  0.
    3000022    2    5    5    0    0  0.36367887793E+02  0.13361637023E+02 -0.18048763102E+02  0.42743150985E+02  0.25000026503E+00 0.  0.
        -13    1    4    4    0    0 -0.13842380914E+02 -0.58375708303E+01  0.91366342124E+01  0.17583453935E+02  0.10500000000E+00 0. -1.
         13    1    4    4    0    0 -0.13092418167E+02 -0.56646259560E+01  0.86776159255E+01  0.16697647853E+02  0.10500000000E+00 0.  1.
    3000001    1    5    5    0    0  0.16320780493E+02  0.98379532205E-01 -0.11088532234E+02  0.19756849484E+02  0.10000000000E+01 0.  1.
        -13    1    6    6    0    0  0.27113810669E+02  0.99558705986E+01 -0.13423727012E+02  0.31850989942E+02  0.10500000000E+00 0. -1.
         13    1    6    6    0    0  0.92540771236E+01  0.34057664249E+01 -0.46250360902E+01  0.10892161043E+02  0.10500000000E+00 0.  1.
</event>
<event>
11    0  0.3467594E-009  0.9118800E+02  0.7816531E-02  0.1126479E+00
         25   -1    0    0    0    0  0.00000000000E+00  0.00000000000E+00  0.99999998245E-14  0.12500000000E+03  0.12500000000E+03 0.  0.
    3000001    1    3    3    0    0  0.23702661292E+02  0.18802719040E+02 -0.25298053503E+02  0.39450600841E+02  0.10000000000E+01 0. -1.
    1000022    2    1    0    0    0  0.42528559179E+02  0.24908607085E+02 -0.37109742747E+02  0.62500000007E+02  0.99999970682E+01 0.  0.
    3000022    2    3    3    0    0  0.18825897886E+02  0.61058880450E+01 -0.11811689244E+02  0.23049399166E+02  0.24999816341E+00 0.  0.
    1000022    2    1    0    0    0 -0.42528559179E+02 -0.24908607085E+02  0.37109742747E+02  0.62499999993E+02  0.99999969828E+01 0.  0.
    3000022    2    5    5    0    0 -0.35560895726E+02 -0.18313494551E+02  0.33585748922E+02  0.52230512381E+02  0.25001101739E+00 0.  0.
        -13    1    4    4    0    0  0.13989373131E+02  0.45684020386E+01 -0.87867175569E+01  0.17140311789E+02  0.10500000000E+00 0.  1.
         13    1    4    4    0    0  0.48365247554E+01  0.15374860064E+01 -0.30249716871E+01  0.59090873777E+01  0.10500000000E+00 0. -1.
    3000001    1    5    5    0    0 -0.69676634530E+01 -0.65951125335E+01  0.35239938257E+01  0.10269487612E+02  0.10000000000E+01 0.  1.
        -13    1    6    6    0    0 -0.18719856611E+02 -0.95721480514E+01  0.17615400089E+02  0.27429407488E+02  0.10500000000E+00 0.  1.
         13    1    6    6    0    0 -0.16841039114E+02 -0.87413465001E+01  0.15970348833E+02  0.24801104893E+02  0.10500000000E+00 0. -1.
</event>
<event>
11    0  0.3467594E-009  0.9118800E+02  0.7816531E-02  0.1126479E+00
         25   -1    0    0    0    0  0.00000000000E+00  0.00000000000E+00  0.99999998245E-14  0.12500000000E+03  0.12500000000E+03 0.  0.
    3000001    1    3    3    0    0  0.24433069238E+01 -0.17946933383E+00 -0.58930415518E+00  0.27109476854E+01  0.10000000000E+01 0.  1.
    1000022    2    1    0    0    0  0.44046816183E+02 -0.42746488229E+02 -0.62342374642E+01  0.62500000648E+02  0.10000004624E+02 0.  0.
    3000022    2    3    3    0    0  0.41603509259E+02 -0.42567018895E+02 -0.56449333090E+01  0.59789052963E+02  0.25000362985E+00 0.  0.
    1000022    2    1    0    0    0 -0.44046816183E+02  0.42746488229E+02  0.62342374642E+01  0.62499999352E+02  0.99999965253E+01 0.  0.
    3000022    2    5    5    0    0 -0.15066753582E+02  0.96784249158E+01  0.45901923648E+01  0.18488140451E+02  0.24999808681E+00 0.  0.
        -13    1    4    4    0    0  0.22830511809E+02 -0.23346067639E+02 -0.30304511797E+01  0.32794295282E+02  0.10500000000E+00 0. -1.
         13    1    4    4    0    0  0.18772997450E+02 -0.19220951256E+02 -0.26144821293E+01  0.26994757681E+02  0.10500000000E+00 0.  1.
    3000001    1    5    5    0    0 -0.28980062601E+02  0.33068063313E+02  0.16440450994E+01  0.44011858901E+02  0.10000000000E+01 0.  1.
        -13    1    6    6    0    0 -0.10642147389E+02  0.68044213874E+01  0.32741123243E+01  0.13049378835E+02  0.10500000000E+00 0.  1.
         13    1    6    6    0    0 -0.44246061930E+01  0.28740035284E+01  0.13160800405E+01  0.54387616161E+01  0.10500000000E+00 0. -1.
</event>
<event>
11    0  0.3467594E-009  0.9118800E+02  0.7816531E-02  0.1126479E+00
         25   -1    0    0    0    0  0.00000000000E+00  0.00000000000E+00  0.99999998245E-14  0.12500000000E+03  0.12500000000E+03 0.  0.
    3000001    1    3    3    0    0 -0.16051036760E+02  0.12537942436E+01 -0.12333475529E+02  0.20305723324E+02  0.10000000000E+01 0.  1.
    1000022    2    1    0    0    0 -0.53842626062E+02 -0.65435682038E+01 -0.29400735281E+02  0.62499999466E+02  0.10000001604E+02 0.  0.
    3000022    2    3    3    0    0 -0.37791589302E+02 -0.77973624474E+01 -0.17067259752E+02  0.42194276142E+02  0.25000121826E+00 0.  0.
    1000022    2    1    0    0    0  0.53842626062E+02  0.65435682038E+01  0.29400735281E+02  0.62500000534E+02  0.10000008279E+02 0.  0.
    3000022    2    5    5    0    0  0.30048504664E+02  0.78391476857E+01  0.13681050079E+02  0.33935210282E+02  0.24999324106E+00 0.  0.
        -13    1    4    4    0    0 -0.12277676842E+02 -0.25793794529E+01 -0.55767654282E+01  0.13729744522E+02  0.10500000000E+00 0. -1.
         13    1    4    4    0    0 -0.25513912460E+02 -0.52179829945E+01 -0.11490494323E+02  0.28464531620E+02  0.10500000000E+00 0.  1.
    3000001    1    5    5    0    0  0.23794121398E+02 -0.12955794819E+01  0.15719685202E+02  0.28564790252E+02  0.10000000000E+01 0. -1.
        -13    1    6    6    0    0  0.18816369982E+02  0.49683252299E+01  0.85550611344E+01  0.21258883576E+02  0.10500000000E+00 0.  1.
         13    1    6    6    0    0  0.11232134682E+02  0.28708224557E+01  0.51259889445E+01  0.12676326705E+02  0.10500000000E+00 0. -1.
</event>
<event>
11    0  0.3467594E-009  0.9118800E+02  0.7816531E-02  0.1126479E+00
         25   -1    0    0    0    0  0.00000000000E+00  0.00000000000E+00  0.99999998245E-14  0.12500000000E+03  0.12500000000E+03 0.  0.
    3000001    1    3    3    0    0  0.19284672087E+02 -0.10208283449E+02  0.37407509461E+01  0.22160795250E+02  0.10000000000E+01 0.  1.
    1000022    2    1    0    0    0  0.58932917249E+02 -0.16725392405E+02  0.73090696479E+01  0.62500000176E+02  0.10000001813E+02 0.  0.
    3000022    2    3    3    0    0  0.39648245162E+02 -0.65171089568E+01  0.35683187019E+01  0.40339204926E+02  0.25000421174E+00 0.  0.
    1000022    2    1    0    0    0 -0.58932917249E+02  0.16725392405E+02 -0.73090696479E+01  0.62499999824E+02  0.99999996185E+01 0.  0.
    3000022    2    5    5    0    0 -0.52480620254E+02  0.13207085884E+02 -0.36790658973E+01  0.54242424847E+02  0.25001511176E+00 0.  0.
        -13    1    4    4    0    0  0.18469268641E+02 -0.29678059444E+01  0.16570114675E+01  0.18779735574E+02  0.10500000000E+00 0.  1.
         13    1    4    4    0    0  0.21178976521E+02 -0.35493030125E+01  0.19113072344E+01  0.21559469351E+02  0.10500000000E+00 0. -1.
    3000001    1    5    5    0    0 -0.64522969947E+01  0.35183065213E+01 -0.36300037506E+01  0.82575749779E+01  0.10000000000E+01 0. -1.
        -13    1    6    6    0    0 -0.15839722328E+02  0.39712801462E+01 -0.11542968042E+01  0.16371050533E+02  0.10500000000E+00 0. -1.
         13    1    6    6    0    0 -0.36640897926E+02  0.92358057381E+01 -0.25247690931E+01  0.37871374314E+02  0.10500000000E+00 0.  1.
</event>
<event>
11    0  0.3467594E-009  0.9118800E+02  0.7816531E-02  0.1126479E+00
         25   -1    0    0    0    0  0.00000000000E+00  0.00000000000E+00  0.99999998245E-14  0.12500000000E+03  0.12500000000E+03 0.  0.
    3000001    1    3    3    0    0 -0.47392206069E+01  0.89354277769E+01  0.46213774454E+02  0.47318231485E+02  0.10000000000E+01 0. -1.
    1000022    2    1    0    0    0 -0.24236637747E+01  0.15657039373E+02  0.59625773804E+02  0.62499999810E+02  0.10000002320E+02 0.  0.
    3000022    2    3    3    0    0  0.23155568322E+01  0.67216115963E+01  0.13411999350E+02  0.15181768325E+02  0.24999402553E+00 0.  0.
    1000022    2    1    0    0    0  0.24236637747E+01 -0.15657039373E+02 -0.59625773804E+02  0.62500000190E+02  0.10000004701E+02 0.  0.
    3000022    2    5    5    0    0  0.38399243838E+00 -0.16351113985E+02 -0.52407523488E+02  0.54900978125E+02  0.25000434685E+00 0.  0.
        -13    1    4    4    0    0  0.75360234241E+00  0.20910561850E+01  0.41155218763E+01  0.46785657817E+01  0.10500000000E+00 0.  1.
         13    1    4    4    0    0  0.15619544898E+01  0.46305554114E+01  0.92964774736E+01  0.10503202543E+02  0.10500000000E+00 0. -1.
    3000001    1    5    5    0    0  0.20396713363E+01  0.69407461147E+00 -0.72182503162E+01  0.75990220656E+01  0.10000000000E+01 0.  1.
        -13    1    6    6    0    0  0.11740602291E+00 -0.70526283939E+01 -0.22751238737E+02  0.23819807735E+02  0.10500000000E+00 0. -1.
         13    1    6    6    0    0  0.26658641547E+00 -0.92984855908E+01 -0.29656284751E+02  0.31081170390E+02  0.10500000000E+00 0.  1.
</event>
<event>
11    0  0.3467594E-009  0.9118800E+02  0.7816531E-02  0.1126479E+00
         25   -1    0    0    0    0  0.00000000000E+00  0.00000000000E+00  0.99999998245E-14  0.12500000000E+03  0.12500000000E+03 0.  0.
    3000001    1    3    3    0    0  0.45462055743E+01  0.12320799487E+01 -0.80405168343E+01  0.93720817905E+01  0.10000000000E+01 0. -1.
    1000022    2    1    0    0    0  0.13648343164E+02 -0.63517004093E+01 -0.59829998956E+02  0.62499999052E+02  0.99999868613E+01 0.  0.
    3000022    2    3    3    0    0  0.91021375897E+01 -0.75837803581E+01 -0.51789482122E+02  0.53127917262E+02  0.25000181922E+00 0.  0.
    1000022    2    1    0    0    0 -0.13648343164E+02  0.63517004093E+01  0.59829998956E+02  0.62500000948E+02  0.99999987101E+01 0.  0.
    3000022    2    5    5    0    0 -0.51279927540E+01  0.76770779492E+01  0.34926835470E+02  0.36127277381E+02  0.24999896367E+00 0.  0.
        -13    1    4    4    0    0  0.37670918899E+01 -0.31682063308E+01 -0.21789069056E+02  0.22338376575E+02  0.10500000000E+00 0.  1.
         13    1    4    4    0    0  0.53350456998E+01 -0.44155740273E+01 -0.30000413066E+02  0.30789540687E+02  0.10500000000E+00 0. -1.
    3000001    1    5    5    0    0 -0.85203504100E+01 -0.13253775399E+01  0.24903163486E+02  0.26372723567E+02  0.10000000000E+01 0.  1.
        -13    1    6    6    0    0 -0.27550625375E+01  0.42439305710E+01  0.19169647941E+02  0.19826440514E+02  0.10500000000E+00 0.  1.
         13    1    6    6    0    0 -0.23729302164E+01  0.34331473783E+01  0.15757187530E+02  0.16300836868E+02  0.10500000000E+00 0. -1.
</event>
<event>
11    0  0.3467594E-009  0.9118800E+02  0.7816531E-02  0.1126479E+00
         25   -1    0    0    0    0  0.00000000000E+00  0.00000000000E+00  0.99999998245E-14  0.12500000000E+03  0.12500000000E+03 0.  0.
    3000001    1    3    3    0    0 -0.13820361005E+02 -0.63952960252E+01 -0.20131834368E+02  0.25262480967E+02  0.10000000000E+01 0.  1.
    1000022    2    1    0    0    0 -0.26853841547E+02 -0.78862378612E+01 -0.54981163108E+02  0.62499999665E+02  0.10000005402E+02 0.  0.
    3000022    2    3    3    0    0 -0.13033480542E+02 -0.14909418359E+01 -0.34849328740E+02  0.37237518699E+02  0.25012523540E+00 0.  0.
    1000022    2    1    0    0    0  0.26853841547E+02  0.78862378612E+01  0.54981163108E+02  0.62500000335E+02  0.10000009584E+02 0.  0.
    3000022    2    5    5    0    0  0.44427815590E+01  0.56017362707E+01  0.14170974355E+02  0.15874405825E+02  0.24997780393E+00 0.  0.
        -13    1    4    4    0    0 -0.48144140657E+01 -0.60834296869E+00 -0.12939566067E+02  0.13819987662E+02  0.10500000000E+00 0.  1.
         13    1    4    4    0    0 -0.82190664761E+01 -0.88259886724E+00 -0.21909762673E+02  0.23417531037E+02  0.10500000000E+00 0. -1.
    3000001    1    5    5    0    0  0.22411059988E+02  0.22845015905E+01  0.40810188753E+02  0.46625594510E+02  0.10000000000E+01 0. -1.
        -13    1    6    6    0    0  0.14298005982E+01  0.17600798743E+01  0.44031252760E+01  0.49538619390E+01  0.10500000000E+00 0.  1.
         13    1    6    6    0    0  0.30129809609E+01  0.38416563964E+01  0.97678490789E+01  0.10920543886E+02  0.10500000000E+00 0. -1.
</event>
<event>
11    0  0.3467594E-009  0.9118800E+02  0.7816531E-02  0.1126479E+00
         25   -1    0    0    0    0  0.00000000000E+00  0.00000000000E+00  0.99999998245E-14  0.12500000000E+03  0.12500000000E+03 0.  0.
    3000001    1    3    3    0    0  0.51878315735E+02  0.69570357149E+01 -0.17535643535E+02  0.55211038603E+02  0.10000000000E+01 0. -1.
    1000022    2    1    0    0    0  0.59049760953E+02  0.73123653361E+01 -0.16306591720E+02  0.62499999639E+02  0.10000003298E+02 0.  0.
    3000022    2    3    3    0    0  0.71714452182E+01  0.35532962122E+00  0.12290518148E+01  0.72889610363E+01  0.24999793793E+00 0.  0.
    1000022    2    1    0    0    0 -0.59049760953E+02 -0.73123653361E+01  0.16306591720E+02  0.62500000361E+02  0.10000007807E+02 0.  0.
    3000022    2    5    5    0    0 -0.93744827311E+01  0.24150808715E+01  0.19906684313E+01  0.98862936317E+01  0.24999775536E+00 0.  0.
        -13    1    4    4    0    0  0.45983447133E+01  0.24317139134E+00  0.73133303567E+00  0.46636658796E+01  0.10500000000E+00 0. -1.
         13    1    4    4    0    0  0.25731005049E+01  0.11215822988E+00  0.49771877917E+00  0.26252951567E+01  0.10500000000E+00 0.  1.
    3000001    1    5    5    0    0 -0.49675278222E+02 -0.97274462076E+01  0.14315923289E+02  0.52613706729E+02  0.10000000000E+01 0. -1.
        -13    1    6    6    0    0 -0.27057025871E+01  0.65359367332E+00  0.56962813217E+00  0.28431518406E+01  0.10500000000E+00 0.  1.
         13    1    6    6    0    0 -0.66687801439E+01  0.17614871982E+01  0.14210402991E+01  0.70431417911E+01  0.10500000000E+00 0. -1.
</event>
<event>
11    0  0.3467594E-009  0.9118800E+02  0.7816531E-02  0.1126479E+00
         25   -1    0    0    0    0  0.00000000000E+00  0.00000000000E+00  0.99999998245E-14  0.12500000000E+03  0.12500000000E+03 0.  0.
    3000001    1    3    3    0    0  0.85927569987E+01 -0.32796822474E+02  0.50634314641E+02  0.60945064249E+02  0.10000000000E+01 0.  1.
    1000022    2    1    0    0    0  0.74396224628E+01 -0.32930181850E+02  0.51638213646E+02  0.62499999648E+02  0.99999994235E+01 0.  0.
    3000022    2    3    3    0    0 -0.11531345358E+01 -0.13335937651E+00  0.10038990047E+01  0.15549353991E+01  0.25001380471E+00 0.  0.
    1000022    2    1    0    0    0 -0.74396224628E+01  0.32930181850E+02 -0.51638213646E+02  0.62500000352E+02  0.10000003817E+02 0.  0.
    3000022    2    5    5    0    0 -0.35858727179E+00  0.17339839778E+02 -0.32212183616E+02  0.36585323660E+02  0.25001129151E+00 0.  0.
        -13    1    4    4    0    0 -0.50634679691E+00 -0.27701786456E-01  0.36404125918E+00  0.63301303786E+00  0.10500000000E+00 0. -1.
         13    1    4    4    0    0 -0.64678773893E+00 -0.10565759005E+00  0.63985774557E+00  0.92192236123E+00  0.10500000000E+00 0.  1.
    3000001    1    5    5    0    0 -0.70810351910E+01  0.15590342073E+02 -0.19426030030E+02  0.25914676691E+02  0.10000000000E+01 0.  1.
        -13    1    6    6    0    0 -0.84971764913E-01  0.47962282436E+01 -0.89863596175E+01  0.10187085439E+02  0.10500000000E+00 0.  1.
         13    1    6    6    0    0 -0.27361550687E+00  0.12543611534E+02 -0.23225823999E+02  0.26398238221E+02  0.10500000000E+00 0. -1.
</event>
<event>
11    0  0.3467594E-009  0.9118800E+02  0.7816531E-02  0.1126479E+00
         25   -1    0    0    0    0  0.00000000000E+00  0.00000000000E+00  0.99999998245E-14  0.12500000000E+03  0.12500000000E+03 0.  0.
    3000001    1    3    3    0    0  0.12089303018E+02 -0.21353179353E+02  0.23517356564E+02  0.34002581898E+02  0.10000000000E+01 0.  1.
    1000022    2    1    0    0    0  0.27163236016E+02 -0.41982017364E+02  0.36137497611E+02  0.62500000636E+02  0.10000008656E+02 0.  0.
    3000022    2    3    3    0    0  0.15073932998E+02 -0.20628838011E+02  0.12620141048E+02  0.28497418739E+02  0.25000203059E+00 0.  0.
    1000022    2    1    0    0    0 -0.27163236016E+02  0.41982017364E+02 -0.36137497611E+02  0.62499999364E+02  0.10000000702E+02 0.  0.
    3000022    2    5    5    0    0 -0.24246635069E+02  0.41187892054E+02 -0.34227801820E+02  0.58787300331E+02  0.24999746175E+00 0.  0.
        -13    1    4    4    0    0  0.77204532171E+01 -0.10581469453E+02  0.63952004728E+01  0.14576779745E+02  0.10500000000E+00 0. -1.
         13    1    4    4    0    0  0.73534797805E+01 -0.10047368558E+02  0.62249405748E+01  0.13920638993E+02  0.10500000000E+00 0.  1.
    3000001    1    5    5    0    0 -0.29166009473E+01  0.79412530970E+00 -0.19096957918E+01  0.37126990331E+01  0.10000000000E+01 0.  1.
        -13    1    6    6    0    0 -0.17488303032E+02  0.29745273382E+02 -0.24668738893E+02  0.42416738855E+02  0.10500000000E+00 0. -1.
         13    1    6    6    0    0 -0.67583320364E+01  0.11442618672E+02 -0.95590629262E+01  0.16370561475E+02  0.10500000000E+00 0.  1.
</event>
<event>
11    0  0.3467594E-009  0.9118800E+02  0.7816531E-02  0.1126479E+00
         25   -1    0    0    0    0  0.00000000000E+00  0.00000000000E+00  0.99999998245E-14  0.12500000000E+03  0.12500000000E+03 0.  0.
    3000001    1    3    3    0    0  0.44553582556E+01  0.14842083032E+02 -0.42776921302E+01  0.16107026289E+02  0.10000000000E+01 0. -1.
    1000022    2    1    0    0    0  0.82661304728E+00  0.58806832933E+02 -0.18636606986E+02  0.62499999644E+02  0.99999973380E+01 0.  0.
    3000022    2    3    3    0    0 -0.36287452083E+01  0.43964749901E+02 -0.14358914855E+02  0.46392973354E+02  0.25003040004E+00 0.  0.
    1000022    2    1    0    0    0 -0.82661304728E+00 -0.58806832933E+02  0.18636606986E+02  0.62500000356E+02  0.10000001794E+02 0.  0.
    3000022    2    5    5    0    0  0.16591641418E+01 -0.33837966248E+02  0.15274903958E+02  0.37163772559E+02  0.25002885133E+00 0.  0.
        -13    1    4    4    0    0 -0.22426596064E+01  0.27420649590E+02 -0.88952494272E+01  0.28914668136E+02  0.10500000000E+00 0.  1.
         13    1    4    4    0    0 -0.13860856019E+01  0.16544100311E+02 -0.54636654282E+01  0.17478305218E+02  0.10500000000E+00 0. -1.
    3000001    1    5    5    0    0 -0.24857771891E+01 -0.24968866685E+02  0.33617030274E+01  0.25336227797E+02  0.10000000000E+01 0.  1.
        -13    1    6    6    0    0  0.10614983950E+01 -0.20481918078E+02  0.92748123890E+01  0.22509307338E+02  0.10500000000E+00 0. -1.
         13    1    6    6    0    0  0.59766574673E+00 -0.13356048170E+02  0.60000915691E+01  0.14654465221E+02  0.10500000000E+00 0.  1.
</event>
<event>
11    0  0.3467594E-009  0.9118800E+02  0.7816531E-02  0.1126479E+00
         25   -1    0    0    0    0  0.00000000000E+00  0.00000000000E+00  0.99999998245E-14  0.12500000000E+03  0.12500000000E+03 0.  0.
    3000001    1    3    3    0    0  0.82363267195E+01 -0.17537700350E+02  0.19707271311E+01  0.19501071171E+02  0.10000000000E+01 0.  1.
    1000022    2    1    0    0    0  0.36152184727E+02 -0.49927562682E+02 -0.25511043827E+01  0.62499998724E+02  0.99999865557E+01 0.  0.
    3000022    2    3    3    0    0  0.27915858007E+02 -0.32389862332E+02 -0.45218315138E+01  0.42998927553E+02  0.25000066985E+00 0.  0.
    1000022    2    1    0    0    0 -0.36152184727E+02  0.49927562682E+02  0.25511043827E+01  0.62500001276E+02  0.10000002502E+02 0.  0.
    3000022    2    5    5    0    0 -0.12948001360E+02  0.25614117849E+02  0.31215442170E+01  0.28871098128E+02  0.24999277246E+00 0.  0.
        -13    1    4    4    0    0  0.86645093294E+01 -0.10096459972E+02 -0.13671189273E+01  0.13375061310E+02  0.10500000000E+00 0.  1.
         13    1    4    4    0    0  0.19251348678E+02 -0.22293402359E+02 -0.31547125865E+01  0.29623866243E+02  0.10500000000E+00 0. -1.
    3000001    1    5    5    0    0 -0.23204183366E+02  0.24313444833E+02 -0.57043983432E+00  0.33628903148E+02  0.10000000000E+01 0.  1.
        -13    1    6    6    0    0 -0.92247093107E+01  0.18188387878E+02  0.21848099036E+01  0.20510902827E+02  0.10500000000E+00 0.  1.
         13    1    6    6    0    0 -0.37232920496E+01  0.74257299712E+01  0.93673431343E+00  0.83601953007E+01  0.10500000000E+00 0. -1.
</event>
<event>
11    0  0.3467594E-009  0.9118800E+02  0.7816531E-02  0.1126479E+00
         25   -1    0    0    0    0  0.00000000000E+00  0.00000000000E+00  0.99999998245E-14  0.12500000000E+03  0.12500000000E+03 0.  0.
    3000001    1    3    3    0    0  0.19289105962E+01 -0.52306464738E+01  0.92481802949E+01  0.10844777425E+02  0.10000000000E+01 0.  1.
    1000022    2    1    0    0    0  0.76380754168E+01 -0.46299625778E+02  0.40053130085E+02  0.62500009987E+02  0.10000123772E+02 0.  0.
    3000022    2    3    3    0    0  0.57091648207E+01 -0.41068979304E+02  0.30804949791E+02  0.51655232562E+02  0.24999085863E+00 0.  0.
    1000022    2    1    0    0    0 -0.76380754168E+01  0.46299625778E+02 -0.40053130085E+02  0.62499990013E+02  0.99999989391E+01 0.  0.
    3000022    2    5    5    0    0  0.23231859496E+00  0.27989979790E+02 -0.24512057386E+02  0.37207477707E+02  0.24999894228E+00 0.  0.
        -13    1    4    4    0    0  0.21244162783E+01 -0.15650948427E+02  0.11776244578E+02  0.19701682480E+02  0.10500000000E+00 0. -1.
         13    1    4    4    0    0  0.35847485424E+01 -0.25418030877E+02  0.19028705213E+02  0.31953550082E+02  0.10500000000E+00 0.  1.
    3000001    1    5    5    0    0 -0.78703940118E+01  0.18309645988E+02 -0.15541072700E+02  0.25292512306E+02  0.10000000000E+01 0. -1.
        -13    1    6    6    0    0  0.14401844604E+00  0.18893338012E+02 -0.16612047980E+02  0.25158500068E+02  0.10500000000E+00 0.  1.
         13    1    6    6    0    0  0.88300148926E-01  0.90966417777E+01 -0.79000094054E+01  0.12048977639E+02  0.10500000000E+00 0. -1.
</event>
<event>
11    0  0.3467594E-009  0.9118800E+02  0.7816531E-02  0.1126479E+00
         25   -1    0    0    0    0  0.00000000000E+00  0.00000000000E+00  0.99999998245E-14  0.12500000000E+03  0.12500000000E+03 0.  0.
    3000001    1    3    3    0    0  0.98849268749E+01 -0.41190146737E+02  0.39047774159E+02  0.57620036743E+02  0.10000000000E+01 0. -1.
    1000022    2    1    0    0    0  0.10980047918E+02 -0.42142328803E+02  0.43700257313E+02  0.62499999928E+02  0.10000008627E+02 0.  0.
    3000022    2    3    3    0    0  0.10951210430E+01 -0.95218206585E+00  0.46524831542E+01  0.48799631845E+01  0.25000079403E+00 0.  0.
    1000022    2    1    0    0    0 -0.10980047918E+02  0.42142328803E+02 -0.43700257313E+02  0.62500000072E+02  0.10000009531E+02 0.  0.
    3000022    2    5    5    0    0 -0.85880179428E+01  0.25421258890E+02 -0.20419457978E+02  0.33719596946E+02  0.24999672047E+00 0.  0.
        -13    1    4    4    0    0  0.77458008150E+00 -0.61381316481E+00  0.32221196795E+01  0.33719165371E+01  0.10500000000E+00 0. -1.
         13    1    4    4    0    0  0.32054096147E+00 -0.33836890103E+00  0.14303634747E+01  0.15080466474E+01  0.10500000000E+00 0.  1.
    3000001    1    5    5    0    0 -0.23920299750E+01  0.16721069913E+02 -0.23280799335E+02  0.28780403126E+02  0.10000000000E+01 0. -1.
        -13    1    6    6    0    0 -0.34110124789E+01  0.10030304524E+02 -0.81362953093E+01  0.13358605516E+02  0.10500000000E+00 0. -1.
         13    1    6    6    0    0 -0.51770054639E+01  0.15390954366E+02 -0.12283162669E+02  0.20360991430E+02  0.10500000000E+00 0.  1.
</event>
<event>
11    0  0.3467594E-009  0.9118800E+02  0.7816531E-02  0.1126479E+00
         25   -1    0    0    0    0  0.00000000000E+00  0.00000000000E+00  0.99999998245E-14  0.12500000000E+03  0.12500000000E+03 0.  0.
    3000001    1    3    3    0    0  0.14506450546E+02  0.92285153156E+01 -0.50200551871E+02  0.53072573053E+02  0.10000000000E+01 0.  1.
    1000022    2    1    0    0    0  0.13206807014E+02  0.93576562385E+01 -0.59533725893E+02  0.62499999485E+02  0.99999967568E+01 0.  0.
    3000022    2    3    3    0    0 -0.12996435322E+01  0.12914092286E+00 -0.93331740222E+01  0.94274264316E+01  0.24996220728E+00 0.  0.
    1000022    2    1    0    0    0 -0.13206807014E+02 -0.93576562385E+01  0.59533725893E+02  0.62500000515E+02  0.10000003195E+02 0.  0.
    3000022    2    5    5    0    0 -0.56196864490E+01  0.10110402126E+01  0.24869889107E+02  0.25518169229E+02  0.24999699015E+00 0.  0.
        -13    1    4    4    0    0 -0.51690736149E+00  0.59249133043E-01 -0.41945375047E+01  0.42279869393E+01  0.10500000000E+00 0. -1.
         13    1    4    4    0    0 -0.78273617067E+00  0.69891789821E-01 -0.51386365175E+01  0.51994394923E+01  0.10500000000E+00 0.  1.
    3000001    1    5    5    0    0 -0.75871205650E+01 -0.10368696451E+02  0.34663836786E+02  0.36981831286E+02  0.10000000000E+01 0.  1.
        -13    1    6    6    0    0 -0.16835029709E+01  0.33691863221E+00  0.73450367720E+01  0.75437581218E+01  0.10500000000E+00 0. -1.
         13    1    6    6    0    0 -0.39361834780E+01  0.67412158043E+00  0.17524852335E+02  0.17974411107E+02  0.10500000000E+00 0.  1.
</event>
<event>
11    0  0.3467594E-009  0.9118800E+02  0.7816531E-02  0.1126479E+00
         25   -1    0    0    0    0  0.00000000000E+00  0.00000000000E+00  0.99999998245E-14  0.12500000000E+03  0.12500000000E+03 0.  0.
    3000001    1    3    3    0    0  0.23854333617E+02  0.87781135673E+01 -0.54558804908E+02  0.60197572236E+02  0.10000000000E+01 0. -1.
    1000022    2    1    0    0    0  0.25599328698E+02  0.10105436432E+02 -0.55215980879E+02  0.62500000221E+02  0.10000000397E+02 0.  0.
    3000022    2    3    3    0    0  0.17449950807E+01  0.13273228651E+01 -0.65717597077E+00  0.23024279850E+01  0.25000109918E+00 0.  0.
    1000022    2    1    0    0    0 -0.25599328698E+02 -0.10105436432E+02  0.55215980879E+02  0.62499999779E+02  0.99999976370E+01 0.  0.
    3000022    2    5    5    0    0 -0.19086721972E+02 -0.11435843271E+02  0.38260673826E+02  0.44260853254E+02  0.25000435477E+00 0.  0.
        -13    1    4    4    0    0  0.11249164682E+01  0.86068346440E+00 -0.36367927730E+00  0.14661175611E+01  0.10500000000E+00 0.  1.
         13    1    4    4    0    0  0.62007861253E+00  0.46663940067E+00 -0.29349669347E+00  0.83631042386E+00  0.10500000000E+00 0. -1.
    3000001    1    5    5    0    0 -0.65126067254E+01  0.13304068389E+01  0.16955307053E+02  0.18239146525E+02  0.10000000000E+01 0.  1.
        -13    1    6    6    0    0 -0.85772024233E+01 -0.51794628112E+01  0.17116268632E+02  0.19833630865E+02  0.10500000000E+00 0. -1.
         13    1    6    6    0    0 -0.10509519549E+02 -0.62563804600E+01  0.21144405194E+02  0.24427222388E+02  0.10500000000E+00 0.  1.
</event>
<event>
11    0  0.3467594E-009  0.9118800E+02  0.7816531E-02  0.1126479E+00
         25   -1    0    0    0    0  0.00000000000E+00  0.00000000000E+00  0.99999998245E-14  0.12500000000E+03  0.12500000000E+03 0.  0.
    3000001    1    3    3    0    0  0.18837499081E+02  0.20842307059E+02 -0.13141077285E+02  0.31031291422E+02  0.10000000000E+01 0.  1.
    1000022    2    1    0    0    0  0.29358036921E+02  0.46992718583E+02 -0.27130053155E+02  0.62500001016E+02  0.10000020559E+02 0.  0.
    3000022    2    3    3    0    0  0.10520537840E+02  0.26150411524E+02 -0.13988975870E+02  0.31468709593E+02  0.24999654257E+00 0.  0.
    1000022    2    1    0    0    0 -0.29358036921E+02 -0.46992718583E+02  0.27130053155E+02  0.62499998984E+02  0.10000007862E+02 0.  0.
    3000022    2    5    5    0    0 -0.20183455785E+02 -0.23499394043E+02  0.16655548864E+02  0.35171909459E+02  0.24999848399E+00 0.  0.
        -13    1    4    4    0    0  0.52916582662E+01  0.12983638282E+02 -0.69853213863E+01  0.15664681616E+02  0.10500000000E+00 0. -1.
         13    1    4    4    0    0  0.52288795740E+01  0.13166773241E+02 -0.70036544836E+01  0.15804027978E+02  0.10500000000E+00 0.  1.
    3000001    1    5    5    0    0 -0.91745811355E+01 -0.23493324540E+02  0.10474504290E+02  0.27328089525E+02  0.10000000000E+01 0.  1.
        -13    1    6    6    0    0 -0.58268035322E+01 -0.67338036660E+01  0.47579360489E+01  0.10096768377E+02  0.10500000000E+00 0. -1.
         13    1    6    6    0    0 -0.14356652253E+02 -0.16765590376E+02  0.11897612815E+02  0.25075141082E+02  0.10500000000E+00 0.  1.
</event>
<event>
11    0  0.3467594E-009  0.9118800E+02  0.7816531E-02  0.1126479E+00
         25   -1    0    0    0    0  0.00000000000E+00  0.00000000000E+00  0.99999998245E-14  0.12500000000E+03  0.12500000000E+03 0.  0.
    3000001    1    3    3    0    0  0.87809253932E+01 -0.47619261091E+01  0.59395568143E+00  0.10056509055E+02  0.10000000000E+01 0. -1.
    1000022    2    1    0    0    0  0.59441820187E+02 -0.13046829717E+02 -0.10134109110E+02  0.62500000197E+02  0.10000005222E+02 0.  0.
    3000022    2    3    3    0    0  0.50660894793E+02 -0.82849036078E+01 -0.10728064791E+02  0.52443491142E+02  0.24999983303E+00 0.  0.
    1000022    2    1    0    0    0 -0.59441820187E+02  0.13046829717E+02  0.10134109110E+02  0.62499999803E+02  0.10000002758E+02 0.  0.
    3000022    2    5    5    0    0 -0.41132817390E+02  0.53771435708E+01  0.97815714963E+01  0.42621168053E+02  0.24997162831E+00 0.  0.
        -13    1    4    4    0    0  0.24296539100E+02 -0.40060375065E+01 -0.50854576348E+01  0.25144443782E+02  0.10500000000E+00 0.  1.
         13    1    4    4    0    0  0.26364355693E+02 -0.42788661012E+01 -0.56426071566E+01  0.27299047359E+02  0.10500000000E+00 0. -1.
    3000001    1    5    5    0    0 -0.18309002796E+02  0.76696861461E+01  0.35253761361E+00  0.19878831750E+02  0.10000000000E+01 0.  1.
        -13    1    6    6    0    0 -0.14745498559E+02  0.18883515604E+01  0.34614878275E+01  0.15263961555E+02  0.10500000000E+00 0. -1.
         13    1    6    6    0    0 -0.26387318832E+02  0.34887920103E+01  0.63200836689E+01  0.27357206498E+02  0.10500000000E+00 0.  1.
</event>
<event>
11    0  0.3467594E-009  0.9118800E+02  0.7816531E-02  0.1126479E+00
         25   -1    0    0    0    0  0.00000000000E+00  0.00000000000E+00  0.99999998245E-14  0.12500000000E+03  0.12500000000E+03 0.  0.
    3000001    1    3    3    0    0 -0.97749730568E+00 -0.90239326821E+01 -0.12667845230E+02  0.15616054713E+02  0.10000000000E+01 0. -1.
    1000022    2    1    0    0    0 -0.10383710859E+02 -0.21672998843E+02 -0.56821736099E+02  0.62499999789E+02  0.99999975162E+01 0.  0.
    3000022    2    3    3    0    0 -0.94062135533E+01 -0.12649066161E+02 -0.44153890869E+02  0.46883945077E+02  0.24999777057E+00 0.  0.
    1000022    2    1    0    0    0  0.10383710859E+02  0.21672998843E+02  0.56821736099E+02  0.62500000211E+02  0.10000000148E+02 0.  0.
    3000022    2    5    5    0    0  0.10044672076E+02  0.22176618037E+02  0.50399048852E+02  0.55971639691E+02  0.24999979442E+00 0.  0.
        -13    1    4    4    0    0 -0.31857461931E+01 -0.43736724274E+01 -0.15199983707E+02  0.16134699223E+02  0.10500000000E+00 0. -1.
         13    1    4    4    0    0 -0.62204673602E+01 -0.82753937334E+01 -0.28953907162E+02  0.30749245854E+02  0.10500000000E+00 0.  1.
    3000001    1    5    5    0    0  0.33903878274E+00 -0.50361919454E+00  0.64226872475E+01  0.65283605192E+01  0.10000000000E+01 0. -1.
        -13    1    6    6    0    0  0.50589200367E+01  0.11224121945E+02  0.25339966778E+02  0.28172655656E+02  0.10500000000E+00 0.  1.
         13    1    6    6    0    0  0.49857520395E+01  0.10952496093E+02  0.25059082073E+02  0.27798984036E+02  0.10500000000E+00 0. -1.
</event>
<event>
11    0  0.3467594E-009  0.9118800E+02  0.7816531E-02  0.1126479E+00
         25   -1    0    0    0    0  0.00000000000E+00  0.00000000000E+00  0.99999998245E-14  0.12500000000E+03  0.12500000000E+03 0.  0.
    3000001    1    3    3    0    0 -0.11420804431E+02 -0.28046670034E+02 -0.13877712256E+01  0.30331112456E+02  0.10000000000E+01 0.  1.
    1000022    2    1    0    0    0 -0.14964714740E+02 -0.59809546034E+02  0.22639784107E+01  0.62500000566E+02  0.99999994262E+01 0.  0.
    3000022    2    3    3    0    0 -0.35439103092E+01 -0.31762875999E+02  0.36517496364E+01  0.32168888110E+02  0.24998957479E+00 0.  0.
    1000022    2    1    0    0    0  0.14964714740E+02  0.59809546034E+02 -0.22639784107E+01  0.62499999434E+02  0.99999923458E+01 0.  0.
    3000022    2    5    5    0    0  0.38309345187E+01  0.12310860876E+02  0.35059802423E+01  0.13363672987E+02  0.25000692879E+00 0.  0.
        -13    1    4    4    0    0 -0.12834228818E+01 -0.12048907050E+02  0.13800175308E+01  0.12195852114E+02  0.10500000000E+00 0. -1.
         13    1    4    4    0    0 -0.22604874274E+01 -0.19713968949E+02  0.22717321056E+01  0.19973035996E+02  0.10500000000E+00 0.  1.
    3000001    1    5    5    0    0  0.11133780222E+02  0.47498685158E+02 -0.57699586530E+01  0.49136326446E+02  0.10000000000E+01 0. -1.
        -13    1    6    6    0    0  0.13287707426E+01  0.41001049110E+01  0.11911077716E+01  0.44728351960E+01  0.10500000000E+00 0.  1.
         13    1    6    6    0    0  0.25021637761E+01  0.82107559646E+01  0.23148724707E+01  0.88908377911E+01  0.10500000000E+00 0. -1.
</event>
<event>
11    0  0.3467594E-009  0.9118800E+02  0.7816531E-02  0.1126479E+00
         25   -1    0    0    0    0  0.00000000000E+00  0.00000000000E+00  0.99999998245E-14  0.12500000000E+03  0.12500000000E+03 0.  0.
    3000001    1    3    3    0    0 -0.25827036293E+01  0.11655406264E+02  0.17616505814E+02  0.21303993295E+02  0.10000000000E+01 0. -1.
    1000022    2    1    0    0    0 -0.11273040276E+02  0.43465729354E+02  0.42307193609E+02  0.62500002370E+02  0.10000029992E+02 0.  0.
    3000022    2    3    3    0    0 -0.86903366472E+01  0.31810323090E+02  0.24690687795E+02  0.41196009075E+02  0.24998759299E+00 0.  0.
    1000022    2    1    0    0    0  0.11273040276E+02 -0.43465729354E+02 -0.42307193609E+02  0.62499997630E+02  0.10000000369E+02 0.  0.
    3000022    2    5    5    0    0  0.11670355937E+02 -0.25966273758E+02 -0.26458494065E+02  0.38865910317E+02  0.24999205136E+00 0.  0.
        -13    1    4    4    0    0 -0.26967810274E+01  0.98990898090E+01  0.76221776020E+01  0.12781753532E+02  0.10500000000E+00 0.  1.
         13    1    4    4    0    0 -0.59935556197E+01  0.21911233281E+02  0.17068510193E+02  0.28414255543E+02  0.10500000000E+00 0. -1.
    3000001    1    5    5    0    0 -0.39731566045E+00 -0.17499455595E+02 -0.15848699544E+02  0.23634087313E+02  0.10000000000E+01 0. -1.
        -13    1    6    6    0    0  0.39191940633E+01 -0.85920930735E+01 -0.87890579987E+01  0.12901267806E+02  0.10500000000E+00 0.  1.
         13    1    6    6    0    0  0.77511618736E+01 -0.17374180685E+02 -0.17669436066E+02  0.25964642512E+02  0.10500000000E+00 0. -1.
</event>
<event>
11    0  0.3467594E-009  0.9118800E+02  0.7816531E-02  0.1126479E+00
         25   -1    0    0    0    0  0.00000000000E+00  0.00000000000E+00  0.99999998245E-14  0.12500000000E+03  0.12500000000E+03 0.  0.
    3000001    1    3    3    0    0 -0.79624696305E+00 -0.12753005590E+02  0.87785079840E+01  0.15534972264E+02  0.10000000000E+01 0. -1.
    1000022    2    1    0    0    0  0.11661199242E+02 -0.54000500116E+02  0.27462928477E+02  0.62500000096E+02  0.99999995498E+01 0.  0.
    3000022    2    3    3    0    0  0.12457446205E+02 -0.41247494525E+02  0.18684420493E+02  0.46965027833E+02  0.24999913436E+00 0.  0.
    1000022    2    1    0    0    0 -0.11661199242E+02  0.54000500116E+02 -0.27462928477E+02  0.62499999904E+02  0.99999983465E+01 0.  0.
    3000022    2    5    5    0    0 -0.43660016571E+00  0.48269345182E+00 -0.21020578391E+01  0.22146698968E+01  0.25000583944E+00 0.  0.
        -13    1    4    4    0    0  0.50707129326E+01 -0.16675017428E+02  0.74988521550E+01  0.18973985994E+02  0.10500000000E+00 0. -1.
         13    1    4    4    0    0  0.73867332728E+01 -0.24572477098E+02  0.11185568338E+02  0.27991041839E+02  0.10500000000E+00 0.  1.
    3000001    1    5    5    0    0 -0.11224599077E+02  0.53517806664E+02 -0.25360870638E+02  0.60285330007E+02  0.10000000000E+01 0.  1.
        -13    1    6    6    0    0 -0.23812268907E+00  0.16487149942E+00 -0.93349342131E+00  0.98301576488E+00  0.10500000000E+00 0.  1.
         13    1    6    6    0    0 -0.19847747664E+00  0.31782195240E+00 -0.11685644178E+01  0.12316541319E+01  0.10500000000E+00 0.  1.
</event>
<event>
11    0  0.3467594E-009  0.9118800E+02  0.7816531E-02  0.1126479E+00
         25   -1    0    0    0    0  0.00000000000E+00  0.00000000000E+00  0.99999998245E-14  0.12500000000E+03  0.12500000000E+03 0.  0.
    3000001    1    3    3    0    0 -0.20446006476E+02  0.79279238162E+01  0.13372518794E+02  0.25704385147E+02  0.10000000000E+01 0.  1.
    1000022    2    1    0    0    0 -0.41269845664E+02  0.21655152455E+02  0.40424056496E+02  0.62500000064E+02  0.99999937763E+01 0.  0.
    3000022    2    3    3    0    0 -0.20823839187E+02  0.13727228639E+02  0.27051537702E+02  0.36795614918E+02  0.25000110376E+00 0.  0.
    1000022    2    1    0    0    0  0.41269845664E+02 -0.21655152455E+02 -0.40424056496E+02  0.62499999936E+02  0.99999929705E+01 0.  0.
    3000022    2    5    5    0    0  0.26633848080E+02 -0.18763893462E+02 -0.29840821594E+02  0.44181248209E+02  0.24999696884E+00 0.  0.
        -13    1    4    4    0    0 -0.12731228371E+02  0.84243560365E+01  0.16475153767E+02  0.22460980992E+02  0.10500000000E+00 0. -1.
         13    1    4    4    0    0 -0.80926108157E+01  0.53028726023E+01  0.10576383935E+02  0.14334633926E+02  0.10500000000E+00 0.  1.
    3000001    1    5    5    0    0  0.14635997584E+02 -0.28912589927E+01 -0.10583234902E+02  0.18318751727E+02  0.10000000000E+01 0. -1.
        -13    1    6    6    0    0  0.13421972482E+02 -0.93758106097E+01 -0.15019574296E+02  0.22218321425E+02  0.10500000000E+00 0.  1.
         13    1    6    6    0    0  0.13211875598E+02 -0.93880828525E+01 -0.14821247298E+02  0.21962926784E+02  0.10500000000E+00 0. -1.
</event>
<event>
11    0  0.3467594E-009  0.9118800E+02  0.7816531E-02  0.1126479E+00
         25   -1    0    0    0    0  0.00000000000E+00  0.00000000000E+00  0.99999998245E-14  0.12500000000E+03  0.12500000000E+03 0.  0.
    3000001    1    3    3    0    0  0.11682149103E+02  0.39382474379E+02 -0.20403047886E+01  0.41141399339E+02  0.10000000000E+01 0. -1.
    1000022    2    1    0    0    0  0.15514364706E+02  0.58899010942E+02 -0.98214488003E+01  0.62499999043E+02  0.10000001081E+02 0.  0.
    3000022    2    3    3    0    0  0.38322156032E+01  0.19516536563E+02 -0.77811440117E+01  0.21358599705E+02  0.25000672396E+00 0.  0.
    1000022    2    1    0    0    0 -0.15514364706E+02 -0.58899010942E+02  0.98214488003E+01  0.62500000957E+02  0.10000013043E+02 0.  0.
    3000022    2    5    5    0    0 -0.46490329694E+01 -0.19394344835E+02 -0.14396196535E+01  0.19997227627E+02  0.24997778694E+00 0.  0.
        -13    1    4    4    0    0  0.10642620160E+01  0.56220895029E+01 -0.22211915271E+01  0.61388322030E+01  0.10500000000E+00 0.  1.
         13    1    4    4    0    0  0.27679535872E+01  0.13894447060E+02 -0.55599524846E+01  0.15219767502E+02  0.10500000000E+00 0. -1.
    3000001    1    5    5    0    0 -0.10865331737E+02 -0.39504666107E+02  0.11261068454E+02  0.42502773330E+02  0.10000000000E+01 0. -1.
        -13    1    6    6    0    0 -0.16893764781E+01 -0.69750444171E+01 -0.46239372078E+00  0.71923619527E+01  0.10500000000E+00 0. -1.
         13    1    6    6    0    0 -0.29596564913E+01 -0.12419300418E+02 -0.97722593276E+00  0.12804865675E+02  0.10500000000E+00 0.  1.
</event>
<event>
11    0  0.3467594E-009  0.9118800E+02  0.7816531E-02  0.1126479E+00
         25   -1    0    0    0    0  0.00000000000E+00  0.00000000000E+00  0.99999998245E-14  0.12500000000E+03  0.12500000000E+03 0.  0.
    3000001    1    3    3    0    0 -0.83177849127E+01 -0.48787214512E+02  0.29560695412E+02  0.57655984589E+02  0.10000000000E+01 0. -1.
    1000022    2    1    0    0    0 -0.11409846492E+02 -0.52375637301E+02  0.30542726272E+02  0.62500002267E+02  0.10000008781E+02 0.  0.
    3000022    2    3    3    0    0 -0.30920615791E+01 -0.35884227893E+01  0.98203086058E+00  0.48440176787E+01  0.24999947378E+00 0.  0.
    1000022    2    1    0    0    0  0.11409846492E+02  0.52375637301E+02 -0.30542726272E+02  0.62499997733E+02  0.99999804377E+01 0.  0.
    3000022    2    5    5    0    0  0.39259526161E+01  0.17050260082E+02 -0.15477639220E+02  0.23361170577E+02  0.25000417912E+00 0.  0.
        -13    1    4    4    0    0 -0.22594049443E+01 -0.26552583271E+01  0.69591441610E+00  0.35567723234E+01  0.10500000000E+00 0. -1.
         13    1    4    4    0    0 -0.83265663479E+00 -0.93316446220E+00  0.28611644448E+00  0.12872453553E+01  0.10500000000E+00 0.  1.
    3000001    1    5    5    0    0  0.74838938756E+01  0.35325377220E+02 -0.15065087052E+02  0.39138827156E+02  0.10000000000E+01 0. -1.
        -13    1    6    6    0    0  0.10855102646E+01  0.48783933529E+01 -0.44474250593E+01  0.66908645853E+01  0.10500000000E+00 0.  1.
         13    1    6    6    0    0  0.28404423515E+01  0.12171866729E+02 -0.11030214161E+02  0.16670305991E+02  0.10500000000E+00 0. -1.
</event>
<event>
11    0  0.3467594E-009  0.9118800E+02  0.7816531E-02  0.1126479E+00
         25   -1    0    0    0    0  0.00000000000E+00  0.00000000000E+00  0.99999998245E-14  0.12500000000E+03  0.12500000000E+03 0.  0.
    3000001    1    3    3    0    0  0.37925114011E+00 -0.29894221737E+01  0.66349342083E+01  0.73554624809E+01  0.10000000000E+01 0. -1.
    1000022    2    1    0    0    0  0.84268258622E+01 -0.18364050509E+00  0.61116314174E+02  0.62499991990E+02  0.10000001128E+02 0.  0.
    3000022    2    3    3    0    0  0.80475747221E+01  0.28057816687E+01  0.54481379966E+02  0.55144529509E+02  0.25000419419E+00 0.  0.
    1000022    2    1    0    0    0 -0.84268258622E+01  0.18364050509E+00 -0.61116314174E+02  0.62500008010E+02  0.10000101253E+02 0.  0.
    3000022    2    5    5    0    0  0.21441465073E+01 -0.17458782830E+00 -0.16210025484E+02  0.16354059668E+02  0.24999261701E+00 0.  0.
        -13    1    4    4    0    0  0.58469446392E+01  0.20718821710E+01  0.39766765489E+02  0.40247808882E+02  0.10500000000E+00 0. -1.
         13    1    4    4    0    0  0.22006300829E+01  0.73389949764E+00  0.14714614477E+02  0.14896720627E+02  0.10500000000E+00 0.  1.
    3000001    1    5    5    0    0 -0.10570972370E+02  0.35822833338E+00 -0.44906288691E+02  0.46145948342E+02  0.10000000000E+01 0.  1.
        -13    1    6    6    0    0  0.12070258924E+01 -0.32082222886E-01 -0.91056662334E+01  0.91859742721E+01  0.10500000000E+00 0.  1.
         13    1    6    6    0    0  0.93712061496E+00 -0.14250560541E+00 -0.71043592501E+01  0.71680853963E+01  0.10500000000E+00 0. -1.
</event>
<event>
11    0  0.3467594E-009  0.9118800E+02  0.7816531E-02  0.1126479E+00
         25   -1    0    0    0    0  0.00000000000E+00  0.00000000000E+00  0.99999998245E-14  0.12500000000E+03  0.12500000000E+03 0.  0.
    3000001    1    3    3    0    0 -0.15405411477E+01  0.30458183711E+01  0.19045906468E+02  0.19375160123E+02  0.10000000000E+01 0.  1.
    1000022    2    1    0    0    0 -0.16109223433E+02  0.46846061739E+00  0.59552696675E+02  0.62500000116E+02  0.99999899154E+01 0.  0.
    3000022    2    3    3    0    0 -0.14568682286E+02 -0.25773577537E+01  0.40506790206E+02  0.43124839993E+02  0.24999021553E+00 0.  0.
    1000022    2    1    0    0    0  0.16109223433E+02 -0.46846061739E+00 -0.59552696675E+02  0.62499999884E+02  0.99999884657E+01 0.  0.
    3000022    2    5    5    0    0  0.68682951984E+01  0.26376982967E+00 -0.42607798756E+02  0.43159356628E+02  0.24999258875E+00 0.  0.
        -13    1    4    4    0    0 -0.39409707292E+01 -0.73408021511E+00  0.10973638652E+02  0.11683402515E+02  0.10500000000E+00 0.  1.
         13    1    4    4    0    0 -0.10627711556E+02 -0.18432775386E+01  0.29533151554E+02  0.31441437479E+02  0.10500000000E+00 0. -1.
    3000001    1    5    5    0    0  0.92409282349E+01 -0.73223044706E+00 -0.16944897919E+02  0.19340643256E+02  0.10000000000E+01 0. -1.
        -13    1    6    6    0    0  0.34752587910E+01  0.90312913307E-01 -0.21220011454E+02  0.21503150728E+02  0.10500000000E+00 0. -1.
         13    1    6    6    0    0  0.33930364073E+01  0.17345691637E+00 -0.21387787301E+02  0.21656205900E+02  0.10500000000E+00 0.  1.
</event>
<event>
11    0  0.3467594E-009  0.9118800E+02  0.7816531E-02  0.1126479E+00
         25   -1    0    0    0    0  0.00000000000E+00  0.00000000000E+00  0.99999998245E-14  0.12500000000E+03  0.12500000000E+03 0.  0.
    3000001    1    3    3    0    0 -0.14322730626E+02  0.60510473039E+01  0.57321071650E+00  0.15591162773E+02  0.10000000000E+01 0. -1.
    1000022    2    1    0    0    0 -0.52249105014E+02  0.27301350723E+02  0.18191140973E+02  0.62500002397E+02  0.99999981830E+01 0.  0.
    3000022    2    3    3    0    0 -0.37926374387E+02  0.21250303419E+02  0.17617930257E+02  0.46908839624E+02  0.24999760968E+00 0.  0.
    1000022    2    1    0    0    0  0.52249105014E+02 -0.27301350723E+02 -0.18191140973E+02  0.62499997603E+02  0.99999682211E+01 0.  0.
    3000022    2    5    5    0    0  0.33551517848E+02 -0.22707822276E+02 -0.12248779335E+02  0.42325460898E+02  0.25000523871E+00 0.  0.
        -13    1    4    4    0    0 -0.13354264490E+02  0.74742081697E+01  0.62627475703E+01  0.16535815672E+02  0.10500000000E+00 0. -1.
         13    1    4    4    0    0 -0.24572109898E+02  0.13776095250E+02  0.11355182686E+02  0.30373023952E+02  0.10500000000E+00 0.  1.
    3000001    1    5    5    0    0  0.18697587166E+02 -0.45935284472E+01 -0.59423616387E+01  0.20174536705E+02  0.10000000000E+01 0.  1.
        -13    1    6    6    0    0  0.21464748904E+02 -0.14508924745E+02 -0.77743871617E+01  0.27049888420E+02  0.10500000000E+00 0.  1.
         13    1    6    6    0    0  0.12086768944E+02 -0.81988975309E+01 -0.44743921728E+01  0.15275572478E+02  0.10500000000E+00 0. -1.
</event>
<event>
11    0  0.3467594E-009  0.9118800E+02  0.7816531E-02  0.1126479E+00
         25   -1    0    0    0    0  0.00000000000E+00  0.00000000000E+00  0.99999998245E-14  0.12500000000E+03  0.12500000000E+03 0.  0.
    3000001    1    3    3    0    0 -0.45561624381E+01  0.94579378159E+00  0.16657114823E+01  0.50425922681E+01  0.10000000000E+01 0.  1.
    1000022    2    1    0    0    0 -0.57003636767E+02 -0.19113028990E+02  0.13839343959E+02  0.62500000480E+02  0.10000006852E+02 0.  0.
    3000022    2    3    3    0    0 -0.52447474329E+02 -0.20058822771E+02  0.12173632476E+02  0.57457408212E+02  0.24999274577E+00 0.  0.
    1000022    2    1    0    0    0  0.57003636767E+02  0.19113028990E+02 -0.13839343959E+02  0.62499999520E+02  0.10000000850E+02 0.  0.
    3000022    2    5    5    0    0  0.41268880894E+02  0.13482157968E+02 -0.14419996596E+02  0.45748091917E+02  0.24999709525E+00 0.  0.
        -13    1    4    4    0    0 -0.13145331702E+02 -0.50395429830E+01  0.30273346823E+01  0.14400434692E+02  0.10500000000E+00 0.  1.
         13    1    4    4    0    0 -0.39302142627E+02 -0.15019279788E+02  0.91462977939E+01  0.43056973520E+02  0.10500000000E+00 0. -1.
    3000001    1    5    5    0    0  0.15734755873E+02  0.56308710215E+01  0.58065263746E+00  0.16751907603E+02  0.10000000000E+01 0. -1.
        -13    1    6    6    0    0  0.17339957885E+02  0.55967324467E+01 -0.60551725559E+01  0.19200877407E+02  0.10500000000E+00 0. -1.
         13    1    6    6    0    0  0.23928923009E+02  0.78854255213E+01 -0.83648240401E+01  0.26547214510E+02  0.10500000000E+00 0.  1.
</event>
<event>
11    0  0.3467594E-009  0.9118800E+02  0.7816531E-02  0.1126479E+00
         25   -1    0    0    0    0  0.00000000000E+00  0.00000000000E+00  0.99999998245E-14  0.12500000000E+03  0.12500000000E+03 0.  0.
    3000001    1    3    3    0    0  0.23005423955E+00 -0.11630418354E+01 -0.30262359584E+01  0.34005433890E+01  0.10000000000E+01 0.  1.
    1000022    2    1    0    0    0  0.27691647038E+02  0.80463066954E+01 -0.54540623591E+02  0.62500000332E+02  0.10000002639E+02 0.  0.
    3000022    2    3    3    0    0  0.27461592798E+02  0.92093485309E+01 -0.51514387632E+02  0.59099456943E+02  0.24999698435E+00 0.  0.
    1000022    2    1    0    0    0 -0.27691647038E+02 -0.80463066954E+01  0.54540623591E+02  0.62499999668E+02  0.99999984847E+01 0.  0.
    3000022    2    5    5    0    0 -0.38122857581E+01 -0.33007633064E+01  0.17089271374E+02  0.17819490941E+02  0.25000041438E+00 0.  0.
        -13    1    4    4    0    0  0.16706687587E+02  0.56301380383E+01 -0.31469808330E+02  0.36071758008E+02  0.10500000000E+00 0.  1.
         13    1    4    4    0    0  0.10754905211E+02  0.35792104926E+01 -0.20044579302E+02  0.23027698935E+02  0.10500000000E+00 0. -1.
    3000001    1    5    5    0    0 -0.23879361280E+02 -0.47455433891E+01  0.37451352217E+02  0.44680508726E+02  0.10000000000E+01 0. -1.
        -13    1    6    6    0    0 -0.12946826833E+01 -0.11764121880E+01  0.58019686486E+01  0.60608591871E+01  0.10500000000E+00 0.  1.
         13    1    6    6    0    0 -0.25176030747E+01 -0.21243511184E+01  0.11287302725E+02  0.11758631754E+02  0.10500000000E+00 0. -1.
</event>
<event>
11    0  0.3467594E-009  0.9118800E+02  0.7816531E-02  0.1126479E+00
         25   -1    0    0    0    0  0.00000000000E+00  0.00000000000E+00  0.99999998245E-14  0.12500000000E+03  0.12500000000E+03 0.  0.
    3000001    1    3    3    0    0  0.18103576794E+02 -0.12938480904E+02  0.10969252940E+02  0.24828779489E+02  0.10000000000E+01 0.  1.
    1000022    2    1    0    0    0  0.41200461402E+02 -0.26733264072E+02  0.37337718491E+02  0.62499996602E+02  0.99999462698E+01 0.  0.
    3000022    2    3    3    0    0  0.23096884609E+02 -0.13794783168E+02  0.26368465551E+02  0.37671217114E+02  0.25000402015E+00 0.  0.
    1000022    2    1    0    0    0 -0.41200461402E+02  0.26733264072E+02 -0.37337718491E+02  0.62500003398E+02  0.99999887420E+01 0.  0.
    3000022    2    5    5    0    0 -0.14852992205E+02  0.14389878080E+02 -0.12037716338E+02  0.23930087403E+02  0.24999976825E+00 0.  0.
        -13    1    4    4    0    0  0.11966716837E+02 -0.72135971146E+01  0.13746110697E+02  0.19601144852E+02  0.10500000000E+00 0. -1.
         13    1    4    4    0    0  0.11130167772E+02 -0.65811860537E+01  0.12622354854E+02  0.18070072262E+02  0.10500000000E+00 0.  1.
    3000001    1    5    5    0    0 -0.26347469198E+02  0.12343385992E+02 -0.25300002153E+02  0.38569915995E+02  0.10000000000E+01 0.  1.
        -13    1    6    6    0    0 -0.79298983936E+01  0.75965077751E+01 -0.64227894387E+01  0.12722164442E+02  0.10500000000E+00 0.  1.
         13    1    6    6    0    0 -0.69230938110E+01  0.67933703053E+01 -0.56149268994E+01  0.11207922961E+02  0.10500000000E+00 0. -1.
</event>
<event>
11    0  0.3467594E-009  0.9118800E+02  0.7816531E-02  0.1126479E+00
         25   -1    0    0    0    0  0.00000000000E+00  0.00000000000E+00  0.99999998245E-14  0.12500000000E+03  0.12500000000E+03 0.  0.
    3000001    1    3    3    0    0  0.13084726325E+02 -0.85242333569E+01 -0.94601990746E+00  0.15676975824E+02  0.10000000000E+01 0. -1.
    1000022    2    1    0    0    0  0.57816959176E+02 -0.19191964782E+02 -0.97528327828E+01  0.62500000102E+02  0.99999992513E+01 0.  0.
    3000022    2    3    3    0    0  0.44732232850E+02 -0.10667731425E+02 -0.88068128753E+01  0.46823024278E+02  0.25000001124E+00 0.  0.
    1000022    2    1    0    0    0 -0.57816959176E+02  0.19191964782E+02  0.97528327828E+01  0.62499999898E+02  0.99999979700E+01 0.  0.
    3000022    2    5    5    0    0 -0.55870315604E+02  0.20058190351E+02  0.96707281896E+01  0.60144897120E+02  0.24999987890E+00 0.  0.
        -13    1    4    4    0    0  0.33499370894E+02 -0.79659526007E+01 -0.66097612592E+01  0.35062290570E+02  0.10500000000E+00 0.  1.
         13    1    4    4    0    0  0.11232861957E+02 -0.27017788241E+01 -0.21970516161E+01  0.11760733708E+02  0.10500000000E+00 0. -1.
    3000001    1    5    5    0    0 -0.19466435714E+01 -0.86622556905E+00  0.82104593146E-01  0.23551027779E+01  0.10000000000E+01 0. -1.
        -13    1    6    6    0    0 -0.26789285766E+02  0.95596803043E+01  0.46742279366E+01  0.28825557257E+02  0.10500000000E+00 0.  1.
         13    1    6    6    0    0 -0.29081029839E+02  0.10498510046E+02  0.49965002531E+01  0.31319339863E+02  0.10500000000E+00 0. -1.
</event>
<event>
11    0  0.3467594E-009  0.9118800E+02  0.7816531E-02  0.1126479E+00
         25   -1    0    0    0    0  0.00000000000E+00  0.00000000000E+00  0.99999998245E-14  0.12500000000E+03  0.12500000000E+03 0.  0.
    3000001    1    3    3    0    0  0.24589925749E+02 -0.38021527619E+01 -0.10921181319E+01  0.24926161678E+02  0.10000000000E+01 0.  1.
    1000022    2    1    0    0    0  0.60929231717E+02  0.36896070336E+00 -0.96820850071E+01  0.62500000652E+02  0.99999950873E+01 0.  0.
    3000022    2    3    3    0    0  0.36339305968E+02  0.41711134652E+01 -0.85899668752E+01  0.37573838974E+02  0.24999710071E+00 0.  0.
    1000022    2    1    0    0    0 -0.60929231717E+02 -0.36896070336E+00  0.96820850071E+01  0.62499999348E+02  0.99999869430E+01 0.  0.
    3000022    2    5    5    0    0 -0.56861779977E+02  0.20673032208E+01  0.89039858049E+01  0.57592353891E+02  0.24999754484E+00 0.  0.
        -13    1    4    4    0    0  0.18764031652E+02  0.21894201011E+01 -0.43771642154E+01  0.19392086938E+02  0.10500000000E+00 0.  1.
         13    1    4    4    0    0  0.17575274316E+02  0.19816933641E+01 -0.42128026598E+01  0.18181752036E+02  0.10500000000E+00 0. -1.
    3000001    1    5    5    0    0 -0.40674517402E+01 -0.24362639242E+01  0.77809920219E+00  0.49076454574E+01  0.10000000000E+01 0.  1.
        -13    1    6    6    0    0 -0.23528538109E+02  0.83613512044E+00  0.36221436328E+01  0.23820625034E+02  0.10500000000E+00 0. -1.
         13    1    6    6    0    0 -0.33333241867E+02  0.12311681004E+01  0.52818421721E+01  0.33771728857E+02  0.10500000000E+00 0.  1.
</event>
<event>
11    0  0.3467594E-009  0.9118800E+02  0.7816531E-02  0.1126479E+00
         25   -1    0    0    0    0  0.00000000000E+00  0.00000000000E+00  0.99999998245E-14  0.12500000000E+03  0.12500000000E+03 0.  0.
    3000001    1    3    3    0    0 -0.46307440857E+01  0.27838533594E+01  0.29745873520E+01  0.62483437989E+01  0.10000000000E+01 0. -1.
    1000022    2    1    0    0    0 -0.31023088649E+02  0.49589494481E+02  0.19613768952E+02  0.62499999404E+02  0.10000000036E+02 0.  0.
    3000022    2    3    3    0    0 -0.26392344563E+02  0.46805641122E+02  0.16639181600E+02  0.56251655605E+02  0.25000316782E+00 0.  0.
    1000022    2    1    0    0    0  0.31023088649E+02 -0.49589494481E+02 -0.19613768952E+02  0.62500000596E+02  0.10000007490E+02 0.  0.
    3000022    2    5    5    0    0  0.84737329305E+01 -0.20449242430E+02 -0.41224115483E+01  0.22517380783E+02  0.24998923308E+00 0.  0.
        -13    1    4    4    0    0 -0.16998439459E+02  0.30061356064E+02  0.10651993082E+02  0.36140116963E+02  0.10500000000E+00 0. -1.
         13    1    4    4    0    0 -0.93939051035E+01  0.16744285058E+02  0.59871885179E+01  0.20111538642E+02  0.10500000000E+00 0.  1.
    3000001    1    5    5    0    0  0.22549355718E+02 -0.29140252052E+02 -0.15491357404E+02  0.39982619814E+02  0.10000000000E+01 0.  1.
        -13    1    6    6    0    0  0.46040420591E+01 -0.11022864355E+02 -0.22837452936E+01  0.12162535074E+02  0.10500000000E+00 0. -1.
         13    1    6    6    0    0  0.38696908714E+01 -0.94263780747E+01 -0.18386662547E+01  0.10354845708E+02  0.10500000000E+00 0.  1.
</event>
<event>
11    0  0.3467594E-009  0.9118800E+02  0.7816531E-02  0.1126479E+00
         25   -1    0    0    0    0  0.00000000000E+00  0.00000000000E+00  0.99999998245E-14  0.12500000000E+03  0.12500000000E+03 0.  0.
    3000001    1    3    3    0    0  0.39409727803E+02 -0.84193555871E+01  0.83659060792E+01  0.41170384727E+02  0.10000000000E+01 0.  1.
    1000022    2    1    0    0    0  0.60375930809E+02 -0.58092011237E+01  0.11280560316E+02  0.62499995303E+02  0.99999266577E+01 0.  0.
    3000022    2    3    3    0    0  0.20966203006E+02  0.26101544634E+01  0.29146542367E+01  0.21329610577E+02  0.25000647284E+00 0.  0.
    1000022    2    1    0    0    0 -0.60375930809E+02  0.58092011237E+01 -0.11280560316E+02  0.62500004697E+02  0.99999853673E+01 0.  0.
    3000022    2    5    5    0    0 -0.59988947878E+01  0.20057624163E+01  0.14942898173E+01  0.65042460329E+01  0.24998570438E+00 0.  0.
        -13    1    4    4    0    0  0.15547435258E+02  0.19267993114E+01  0.21910633105E+01  0.15819199794E+02  0.10500000000E+00 0. -1.
         13    1    4    4    0    0  0.54187677472E+01  0.68335515200E+00  0.72359092628E+00  0.55104107824E+01  0.10500000000E+00 0.  1.
    3000001    1    5    5    0    0 -0.54377036021E+02  0.38034387074E+01 -0.12774850133E+02  0.55995758664E+02  0.10000000000E+01 0.  1.
        -13    1    6    6    0    0 -0.36121819107E+01  0.12085142835E+01  0.96413808924E+00  0.39305155113E+01  0.10500000000E+00 0. -1.
         13    1    6    6    0    0 -0.23867128772E+01  0.79724813279E+00  0.53015172811E+00  0.25737305216E+01  0.10500000000E+00 0.  1.
</event>
<event>
11    0  0.3467594E-009  0.9118800E+02  0.7816531E-02  0.1126479E+00
         25   -1    0    0    0    0  0.00000000000E+00  0.00000000000E+00  0.99999998245E-14  0.12500000000E+03  0.12500000000E+03 0.  0.
    3000001    1    3    3    0    0  0.37536747052E+01 -0.58818235706E+00  0.38432789740E+01  0.54960736485E+01  0.10000000000E+01 0.  1.
    1000022    2    1    0    0    0  0.52884474104E+02  0.16542021119E+02  0.27126444271E+02  0.62499999876E+02  0.99999970882E+01 0.  0.
    3000022    2    3    3    0    0  0.49130799399E+02  0.17130203476E+02  0.23283165297E+02  0.57003926228E+02  0.24999683156E+00 0.  0.
    1000022    2    1    0    0    0 -0.52884474104E+02 -0.16542021119E+02 -0.27126444271E+02  0.62500000124E+02  0.99999986370E+01 0.  0.
    3000022    2    5    5    0    0 -0.13948204876E+02 -0.95467449682E+00 -0.37621699407E+01  0.14480340076E+02  0.25000680269E+00 0.  0.
        -13    1    4    4    0    0  0.18481445287E+02  0.63800797163E+01  0.87526087037E+01  0.21421681101E+02  0.10500000000E+00 0.  1.
         13    1    4    4    0    0  0.30649354112E+02  0.10750123760E+02  0.14530556594E+02  0.35582245127E+02  0.10500000000E+00 0. -1.
    3000001    1    5    5    0    0 -0.38936269228E+02 -0.15587346622E+02 -0.23364274331E+02  0.48019660048E+02  0.10000000000E+01 0. -1.
        -13    1    6    6    0    0 -0.95838088203E+01 -0.70363664571E+00 -0.25981199962E+01  0.99551870172E+01  0.10500000000E+00 0. -1.
         13    1    6    6    0    0 -0.43643960555E+01 -0.25103785111E+00 -0.11640499445E+01  0.45251530588E+01  0.10500000000E+00 0.  1.
</event>
<event>
11    0  0.3467594E-009  0.9118800E+02  0.7816531E-02  0.1126479E+00
         25   -1    0    0    0    0  0.00000000000E+00  0.00000000000E+00  0.99999998245E-14  0.12500000000E+03  0.12500000000E+03 0.  0.
    3000001    1    3    3    0    0 -0.44682074488E+02  0.18236913741E+02  0.27348517972E+02  0.55479854349E+02  0.10000000000E+01 0. -1.
    1000022    2    1    0    0    0 -0.48550789209E+02  0.18647035541E+02  0.33186734052E+02  0.62499998219E+02  0.99999696481E+01 0.  0.
    3000022    2    3    3    0    0 -0.38687147213E+01  0.41012180003E+00  0.58382160797E+01  0.70201438691E+01  0.24999892818E+00 0.  0.
    1000022    2    1    0    0    0  0.48550789209E+02 -0.18647035541E+02 -0.33186734052E+02  0.62500001781E+02  0.99999919159E+01 0.  0.
    3000022    2    5    5    0    0  0.28105286211E+02 -0.15809332574E+02 -0.18921252918E+02  0.37388747273E+02  0.25000252103E+00 0.  0.
        -13    1    4    4    0    0 -0.11911935567E+01  0.17270542782E+00  0.17839743307E+01  0.21546133451E+01  0.10500000000E+00 0.  1.
         13    1    4    4    0    0 -0.26775211646E+01  0.23741637222E+00  0.40542417490E+01  0.48655305240E+01  0.10500000000E+00 0. -1.
    3000001    1    5    5    0    0  0.20445502998E+02 -0.28377029679E+01 -0.14265481134E+02  0.25111254508E+02  0.10000000000E+01 0. -1.
        -13    1    6    6    0    0  0.99307716461E+01 -0.56367122740E+01 -0.67425842765E+01  0.13261456122E+02  0.10500000000E+00 0. -1.
         13    1    6    6    0    0  0.18174514565E+02 -0.10172620300E+02 -0.12178668642E+02  0.24127291151E+02  0.10500000000E+00 0.  1.
</event>
<event>
11    0  0.3467594E-009  0.9118800E+02  0.7816531E-02  0.1126479E+00
         25   -1    0    0    0    0  0.00000000000E+00  0.00000000000E+00  0.99999998245E-14  0.12500000000E+03  0.12500000000E+03 0.  0.
    3000001    1    3    3    0    0 -0.66121630073E+00  0.19185149200E+02  0.42933619979E+01  0.19696195421E+02  0.10000000000E+01 0.  1.
    1000022    2    1    0    0    0 -0.15644031644E+02  0.59026644997E+02  0.87959835644E+01  0.62499999528E+02  0.10000003420E+02 0.  0.
    3000022    2    3    3    0    0 -0.14982815344E+02  0.39841495797E+02  0.45026215664E+01  0.42803804106E+02  0.25000410630E+00 0.  0.
    1000022    2    1    0    0    0  0.15644031644E+02 -0.59026644997E+02 -0.87959835644E+01  0.62500000472E+02  0.10000009324E+02 0.  0.
    3000022    2    5    5    0    0  0.19625210284E+01 -0.84445038027E+01 -0.48626512104E+01  0.99432897310E+01  0.25000123720E+00 0.  0.
        -13    1    4    4    0    0 -0.10071279463E+02  0.26889138066E+02  0.30728031175E+01  0.28877492273E+02  0.10500000000E+00 0.  1.
         13    1    4    4    0    0 -0.49115358802E+01  0.12952357731E+02  0.14298184490E+01  0.13926311834E+02  0.10500000000E+00 0. -1.
    3000001    1    5    5    0    0  0.13681510616E+02 -0.50582141194E+02 -0.39333323539E+01  0.52556710741E+02  0.10000000000E+01 0. -1.
        -13    1    6    6    0    0  0.87861121274E+00 -0.35256727802E+01 -0.20044032281E+01  0.41510219847E+01  0.10500000000E+00 0.  1.
         13    1    6    6    0    0  0.10839098157E+01 -0.49188310225E+01 -0.28582479823E+01  0.57922677463E+01  0.10500000000E+00 0. -1.
</event>
<event>
11    0  0.3467594E-009  0.9118800E+02  0.7816531E-02  0.1126479E+00
         25   -1    0    0    0    0  0.00000000000E+00  0.00000000000E+00  0.99999998245E-14  0.12500000000E+03  0.12500000000E+03 0.  0.
    3000001    1    3    3    0    0  0.51125270767E+02  0.96541339724E+00  0.10254627789E+02  0.52162081296E+02  0.10000000000E+01 0. -1.
    1000022    2    1    0    0    0  0.60406896211E+02  0.53828042768E+01  0.11326164738E+02  0.62500001950E+02  0.10000027217E+02 0.  0.
    3000022    2    3    3    0    0  0.92816254438E+01  0.44173908795E+01  0.10715369483E+01  0.10337920654E+02  0.24999789937E+00 0.  0.
    1000022    2    1    0    0    0 -0.60406896211E+02 -0.53828042768E+01 -0.11326164738E+02  0.62499998050E+02  0.10000002847E+02 0.  0.
    3000022    2    5    5    0    0 -0.50380605644E+02 -0.55096833710E+01 -0.58137823733E+01  0.51013964785E+02  0.25000345854E+00 0.  0.
        -13    1    4    4    0    0  0.38860350100E+01  0.18171372358E+01  0.38930187323E+00  0.43088092069E+01  0.10500000000E+00 0.  1.
         13    1    4    4    0    0  0.53955904338E+01  0.26002536437E+01  0.68223507511E+00  0.60291114469E+01  0.10500000000E+00 0. -1.
    3000001    1    5    5    0    0 -0.10026290567E+02  0.12687909421E+00 -0.55123823645E+01  0.11486033265E+02  0.10000000000E+01 0.  1.
        -13    1    6    6    0    0 -0.35171533090E+02 -0.38928237797E+01 -0.40553220097E+01  0.35618077972E+02  0.10500000000E+00 0.  1.
         13    1    6    6    0    0 -0.15209072554E+02 -0.16168595912E+01 -0.17584603636E+01  0.15395886813E+02  0.10500000000E+00 0. -1.
</event>
<event>
11    0  0.3467594E-009  0.9118800E+02  0.7816531E-02  0.1126479E+00
         25   -1    0    0    0    0  0.00000000000E+00  0.00000000000E+00  0.99999998245E-14  0.12500000000E+03  0.12500000000E+03 0.  0.
    3000001    1    3    3    0    0 -0.99797288638E+01  0.21686782871E+01  0.73423684820E+01  0.12617786202E+02  0.10000000000E+01 0.  1.
    1000022    2    1    0    0    0 -0.57935124041E+02  0.24346715396E+01  0.21067603495E+02  0.62500000009E+02  0.99999930468E+01 0.  0.
    3000022    2    3    3    0    0 -0.47955395177E+02  0.26599325246E+00  0.13725235013E+02  0.49882213807E+02  0.24999825357E+00 0.  0.
    1000022    2    1    0    0    0  0.57935124041E+02 -0.24346715396E+01 -0.21067603495E+02  0.62499999991E+02  0.99999929316E+01 0.  0.
    3000022    2    5    5    0    0  0.16241355856E+01  0.12765718333E+01 -0.20995094724E+01  0.29559882089E+01  0.24994843468E+00 0.  0.
        -13    1    4    4    0    0 -0.15181235672E+02  0.11308475536E+00  0.43875285782E+01  0.15803295122E+02  0.10500000000E+00 0. -1.
         13    1    4    4    0    0 -0.32774159505E+02  0.15290849710E+00  0.93377064351E+01  0.34078918685E+02  0.10500000000E+00 0.  1.
    3000001    1    5    5    0    0  0.56310988456E+02 -0.37112433729E+01 -0.18968094023E+02  0.59544011782E+02  0.10000000000E+01 0.  1.
        -13    1    6    6    0    0  0.10892362037E+01  0.87996898565E+00 -0.13495530305E+01  0.19475880738E+01  0.10500000000E+00 0. -1.
         13    1    6    6    0    0  0.53489938193E+00  0.39660284768E+00 -0.74995644194E+00  0.10084001351E+01  0.10500000000E+00 0.  1.
</event>
<event>
11    0  0.3467594E-009  0.9118800E+02  0.7816531E-02  0.1126479E+00
         25   -1    0    0    0    0  0.00000000000E+00  0.00000000000E+00  0.99999998245E-14  0.12500000000E+03  0.12500000000E+03 0.  0.
    3000001    1    3    3    0    0  0.28341712942E+01  0.13368816973E+01  0.13601367559E+02  0.13993462012E+02  0.10000000000E+01 0. -1.
    1000022    2    1    0    0    0  0.46495879939E+00  0.19296491733E+02  0.58597602575E+02  0.62500001859E+02  0.10000021246E+02 0.  0.
    3000022    2    3    3    0    0 -0.23692124948E+01  0.17959610036E+02  0.44996235016E+02  0.48506539847E+02  0.24996368743E+00 0.  0.
    1000022    2    1    0    0    0 -0.46495879939E+00 -0.19296491733E+02 -0.58597602575E+02  0.62499998141E+02  0.99999980112E+01 0.  0.
    3000022    2    5    5    0    0  0.31815092166E+01 -0.12584652734E+02 -0.45386432151E+02  0.47206844912E+02  0.24999550442E+00 0.  0.
        -13    1    4    4    0    0 -0.17638898896E+01  0.13416738155E+02  0.33537152307E+02  0.36164509953E+02  0.10500000000E+00 0. -1.
         13    1    4    4    0    0 -0.60532260524E+00  0.45428718807E+01  0.11459082709E+02  0.12342029894E+02  0.10500000000E+00 0.  1.
    3000001    1    5    5    0    0 -0.36464680159E+01 -0.67118389990E+01 -0.13211170424E+02  0.15293153230E+02  0.10000000000E+01 0.  1.
        -13    1    6    6    0    0  0.11470939338E+01 -0.43239990396E+01 -0.15574777943E+02  0.16204861159E+02  0.10500000000E+00 0.  1.
         13    1    6    6    0    0  0.20344152827E+01 -0.82606536944E+01 -0.29811654208E+02  0.31001983753E+02  0.10500000000E+00 0. -1.
</event>
<event>
11    0  0.3467594E-009  0.9118800E+02  0.7816531E-02  0.1126479E+00
         25   -1    0    0    0    0  0.00000000000E+00  0.00000000000E+00  0.99999998245E-14  0.12500000000E+03  0.12500000000E+03 0.  0.
    3000001    1    3    3    0    0  0.13876797756E+02  0.34678213241E+02  0.41891757299E+02  0.56134332802E+02  0.10000000000E+01 0. -1.
    1000022    2    1    0    0    0  0.16761815685E+02  0.39981216603E+02  0.43895260572E+02  0.62500000239E+02  0.99999991547E+01 0.  0.
    3000022    2    3    3    0    0  0.28850179285E+01  0.53030033625E+01  0.20035032723E+01  0.63656674366E+01  0.25004687788E+00 0.  0.
    1000022    2    1    0    0    0 -0.16761815685E+02 -0.39981216603E+02 -0.43895260572E+02  0.62499999761E+02  0.99999961669E+01 0.  0.
    3000022    2    5    5    0    0 -0.76339803483E+01 -0.29269072513E+02 -0.27638592483E+02  0.40974511002E+02  0.24999147451E+00 0.  0.
        -13    1    4    4    0    0  0.22268312224E+01  0.40733632029E+01  0.15390240021E+01  0.48918999330E+01  0.10500000000E+00 0. -1.
         13    1    4    4    0    0  0.65818670603E+00  0.12296401596E+01  0.46447927021E+00  0.14737675036E+01  0.10500000000E+00 0.  1.
    3000001    1    5    5    0    0 -0.91278353366E+01 -0.10712144091E+02 -0.16256668089E+02  0.21525488759E+02  0.10000000000E+01 0.  1.
        -13    1    6    6    0    0 -0.23845693996E+01 -0.93416076346E+01 -0.88032350957E+01  0.13056024570E+02  0.10500000000E+00 0. -1.
         13    1    6    6    0    0 -0.52494109486E+01 -0.19927464878E+02 -0.18835357387E+02  0.27918486432E+02  0.10500000000E+00 0.  1.
</event>
<event>
11    0  0.3467594E-009  0.9118800E+02  0.7816531E-02  0.1126479E+00
         25   -1    0    0    0    0  0.00000000000E+00  0.00000000000E+00  0.99999998245E-14  0.12500000000E+03  0.12500000000E+03 0.  0.
    3000001    1    3    3    0    0 -0.97273677921E+01 -0.16176370842E+02 -0.20128834863E+02  0.27612798676E+02  0.10000000000E+01 0. -1.
    1000022    2    1    0    0    0 -0.31545093167E+02 -0.31892438825E+02 -0.42355988198E+02  0.62499999358E+02  0.99999813219E+01 0.  0.
    3000022    2    3    3    0    0 -0.21817725374E+02 -0.15716067983E+02 -0.22227153335E+02  0.34887200682E+02  0.24998538170E+00 0.  0.
    1000022    2    1    0    0    0  0.31545093167E+02  0.31892438825E+02  0.42355988198E+02  0.62500000642E+02  0.99999893508E+01 0.  0.
    3000022    2    5    5    0    0  0.18092956856E+02  0.20931541895E+02  0.31853303426E+02  0.42192178991E+02  0.24998991082E+00 0.  0.
        -13    1    4    4    0    0 -0.87201248086E+01 -0.62672284414E+01 -0.87967825670E+01  0.13882115745E+02  0.10500000000E+00 0. -1.
         13    1    4    4    0    0 -0.13097600566E+02 -0.94488395415E+01 -0.13430370767E+02  0.21005084937E+02  0.10500000000E+00 0.  1.
    3000001    1    5    5    0    0  0.13452136310E+02  0.10960896930E+02  0.10502684772E+02  0.20307821652E+02  0.10000000000E+01 0. -1.
        -13    1    6    6    0    0  0.90138286461E+01  0.10324582216E+02  0.15786537916E+02  0.20906264831E+02  0.10500000000E+00 0. -1.
         13    1    6    6    0    0  0.90791282103E+01  0.10606959679E+02  0.16066765509E+02  0.21285914160E+02  0.10500000000E+00 0.  1.
</event>
<event>
11    0  0.3467594E-009  0.9118800E+02  0.7816531E-02  0.1126479E+00
         25   -1    0    0    0    0  0.00000000000E+00  0.00000000000E+00  0.99999998245E-14  0.12500000000E+03  0.12500000000E+03 0.  0.
    3000001    1    3    3    0    0  0.34148591762E+01  0.17823506755E+02  0.26535428455E+02  0.32163140698E+02  0.10000000000E+01 0. -1.
    1000022    2    1    0    0    0 -0.23950988461E+01  0.31636043659E+02  0.52911946230E+02  0.62499999101E+02  0.10000003842E+02 0.  0.
    3000022    2    3    3    0    0 -0.58099580224E+01  0.13812536904E+02  0.26376517775E+02  0.30336858403E+02  0.24999976388E+00 0.  0.
    1000022    2    1    0    0    0  0.23950988461E+01 -0.31636043659E+02 -0.52911946230E+02  0.62500000899E+02  0.10000015083E+02 0.  0.
    3000022    2    5    5    0    0  0.56805999957E+01 -0.11621156152E+02 -0.21659822417E+02  0.25229563787E+02  0.24999021854E+00 0.  0.
        -13    1    4    4    0    0 -0.18526470313E+01  0.42973310790E+01  0.82908527931E+01  0.95209569089E+01  0.10500000000E+00 0.  1.
         13    1    4    4    0    0 -0.39573109911E+01  0.95152058250E+01  0.18085664981E+02  0.20815901494E+02  0.10500000000E+00 0. -1.
    3000001    1    5    5    0    0 -0.32855011495E+01 -0.20014887508E+02 -0.31252123813E+02  0.37270437112E+02  0.10000000000E+01 0.  1.
        -13    1    6    6    0    0  0.19432700756E+01 -0.41045050340E+01 -0.76024416240E+01  0.88561506202E+01  0.10500000000E+00 0. -1.
         13    1    6    6    0    0  0.37373299201E+01 -0.75166511176E+01 -0.14057380793E+02  0.16373413167E+02  0.10500000000E+00 0.  1.
</event>
<event>
11    0  0.3467594E-009  0.9118800E+02  0.7816531E-02  0.1126479E+00
         25   -1    0    0    0    0  0.00000000000E+00  0.00000000000E+00  0.99999998245E-14  0.12500000000E+03  0.12500000000E+03 0.  0.
    3000001    1    3    3    0    0 -0.34937264465E+02 -0.43087189034E+02  0.22836695708E+02  0.59996941405E+02  0.10000000000E+01 0.  1.
    1000022    2    1    0    0    0 -0.35638385884E+02 -0.43621389076E+02  0.25166045143E+02  0.62500000319E+02  0.10000003922E+02 0.  0.
    3000022    2    3    3    0    0 -0.70112141932E+00 -0.53420004237E+00  0.23293494348E+01  0.25030589143E+01  0.24998841763E+00 0.  0.
    1000022    2    1    0    0    0  0.35638385884E+02  0.43621389076E+02 -0.25166045143E+02  0.62499999681E+02  0.99999999294E+01 0.  0.
    3000022    2    5    5    0    0  0.25612276722E+01  0.43240127436E+01 -0.55916698134E+01  0.75223828576E+01  0.24999831818E+00 0.  0.
        -13    1    4    4    0    0 -0.46364955420E+00 -0.27530596996E+00  0.14216558420E+01  0.15241045303E+01  0.10500000000E+00 0.  1.
         13    1    4    4    0    0 -0.23747186513E+00 -0.25889407240E+00  0.90769359281E+00  0.97895438397E+00  0.10500000000E+00 0. -1.
    3000001    1    5    5    0    0  0.33077158212E+02  0.39297376333E+02 -0.19574375329E+02  0.54977616823E+02  0.10000000000E+01 0.  1.
        -13    1    6    6    0    0  0.13065894916E+01  0.23211385761E+01 -0.30119035065E+01  0.40221198542E+01  0.10500000000E+00 0.  1.
         13    1    6    6    0    0  0.12546381806E+01  0.20028741675E+01 -0.25797663068E+01  0.35002630034E+01  0.10500000000E+00 0. -1.
</event>
<event>
11    0  0.3467594E-009  0.9118800E+02  0.7816531E-02  0.1126479E+00
         25   -1    0    0    0    0  0.00000000000E+00  0.00000000000E+00  0.99999998245E-14  0.12500000000E+03  0.12500000000E+03 0.  0.
    3000001    1    3    3    0    0  0.23614154486E+02 -0.17698360975E+01  0.26241678343E+01  0.23846317718E+02  0.10000000000E+01 0. -1.
    1000022    2    1    0    0    0  0.59626837639E+02 -0.15766563289E+02  0.15184102459E+01  0.62499996871E+02  0.99999877231E+01 0.  0.
    3000022    2    3    3    0    0  0.36012683153E+02 -0.13996727191E+02 -0.11057575884E+01  0.38653679153E+02  0.24998453123E+00 0.  0.
    1000022    2    1    0    0    0 -0.59626837639E+02  0.15766563289E+02 -0.15184102459E+01  0.62500003129E+02  0.10000026835E+02 0.  0.
    3000022    2    5    5    0    0 -0.40184387739E+02  0.69593640048E+01 -0.40453508004E+01  0.40983473532E+02  0.24994865414E+00 0.  0.
        -13    1    4    4    0    0  0.22311227300E+02 -0.86877977280E+01 -0.62627251479E+00  0.23951449544E+02  0.10500000000E+00 0. -1.
         13    1    4    4    0    0  0.13701455853E+02 -0.53089294634E+01 -0.47948507364E+00  0.14702229609E+02  0.10500000000E+00 0.  1.
    3000001    1    5    5    0    0 -0.19442449899E+02  0.88071992841E+01  0.25269405545E+01  0.21516529597E+02  0.10000000000E+01 0. -1.
        -13    1    6    6    0    0 -0.12521675407E+02  0.21843264482E+01 -0.13073031771E+01  0.12778251196E+02  0.10500000000E+00 0.  1.
         13    1    6    6    0    0 -0.27662712332E+02  0.47750375566E+01 -0.27380476234E+01  0.28205222336E+02  0.10500000000E+00 0. -1.
</event>
<event>
11    0  0.3467594E-009  0.9118800E+02  0.7816531E-02  0.1126479E+00
         25   -1    0    0    0    0  0.00000000000E+00  0.00000000000E+00  0.99999998245E-14  0.12500000000E+03  0.12500000000E+03 0.  0.
    3000001    1    3    3    0    0  0.10319141230E+02 -0.69716720001E+01  0.34879954754E+02  0.37049968014E+02  0.10000000000E+01 0.  1.
    1000022    2    1    0    0    0  0.15080283242E+02 -0.39323841999E+01  0.59693980143E+02  0.62499999455E+02  0.10000003918E+02 0.  0.
    3000022    2    3    3    0    0  0.47611420120E+01  0.30392878002E+01  0.24814025390E+02  0.25450031442E+02  0.25000145901E+00 0.  0.
    1000022    2    1    0    0    0 -0.15080283242E+02  0.39323841999E+01 -0.59693980143E+02  0.62500000545E+02  0.10000010730E+02 0.  0.
    3000022    2    5    5    0    0  0.14782086155E+01  0.32785611449E+00 -0.45063021105E+01  0.47604466675E+01  0.25000683994E+00 0.  0.
        -13    1    4    4    0    0  0.22140885738E+01  0.14702399199E+01  0.11888611782E+02  0.12182524727E+02  0.10500000000E+00 0.  1.
         13    1    4    4    0    0  0.25470534382E+01  0.15690478803E+01  0.12925413608E+02  0.13267506714E+02  0.10500000000E+00 0. -1.
    3000001    1    5    5    0    0 -0.16558491857E+02  0.36045280854E+01 -0.55187678033E+02  0.57739553877E+02  0.10000000000E+01 0.  1.
        -13    1    6    6    0    0  0.38242575006E+00  0.76500756089E-01 -0.10934759409E+01  0.11656828270E+01  0.10500000000E+00 0.  1.
         13    1    6    6    0    0  0.10957828655E+01  0.25135535840E+00 -0.34128261697E+01  0.35947638405E+01  0.10500000000E+00 0.  1.
</event>
<event>
11    0  0.3467594E-009  0.9118800E+02  0.7816531E-02  0.1126479E+00
         25   -1    0    0    0    0  0.00000000000E+00  0.00000000000E+00  0.99999998245E-14  0.12500000000E+03  0.12500000000E+03 0.  0.
    3000001    1    3    3    0    0  0.90431374142E+01 -0.13247226884E+02  0.14708346444E+02  0.21785380638E+02  0.10000000000E+01 0.  1.
    1000022    2    1    0    0    0  0.24655999068E+02 -0.46657967481E+02  0.31958816792E+02  0.62500000338E+02  0.99999926049E+01 0.  0.
    3000022    2    3    3    0    0  0.15612861654E+02 -0.33410740597E+02  0.17250470348E+02  0.40714619701E+02  0.24998783541E+00 0.  0.
    1000022    2    1    0    0    0 -0.24655999068E+02  0.46657967481E+02 -0.31958816792E+02  0.62499999662E+02  0.99999883749E+01 0.  0.
    3000022    2    5    5    0    0 -0.19832334388E+02  0.43499554597E+02 -0.29303364823E+02  0.56073901464E+02  0.24999605309E+00 0.  0.
        -13    1    4    4    0    0  0.81883156369E+01 -0.17609972049E+02  0.91464965344E+01  0.21466929273E+02  0.10500000000E+00 0. -1.
         13    1    4    4    0    0  0.74245460169E+01 -0.15800768547E+02  0.81039738131E+01  0.19247690428E+02  0.10500000000E+00 0.  1.
    3000001    1    5    5    0    0 -0.48236646795E+01  0.31584128837E+01 -0.26554519685E+01  0.64260981973E+01  0.10000000000E+01 0. -1.
        -13    1    6    6    0    0 -0.61308636417E+01  0.13494916802E+02 -0.90336066477E+01  0.17358494824E+02  0.10500000000E+00 0.  1.
         13    1    6    6    0    0 -0.13701470747E+02  0.30004637795E+02 -0.20269758175E+02  0.38715406640E+02  0.10500000000E+00 0. -1.
</event>
<event>
11    0  0.3467594E-009  0.9118800E+02  0.7816531E-02  0.1126479E+00
         25   -1    0    0    0    0  0.00000000000E+00  0.00000000000E+00  0.99999998245E-14  0.12500000000E+03  0.12500000000E+03 0.  0.
    3000001    1    3    3    0    0  0.52505522009E+02  0.45642120704E+01  0.19781569386E+02  0.56302507587E+02  0.10000000000E+01 0. -1.
    1000022    2    1    0    0    0  0.56909243557E+02  0.26244179066E+01  0.23679115516E+02  0.62500000865E+02  0.10000001248E+02 0.  0.
    3000022    2    3    3    0    0  0.44037215482E+01 -0.19397941638E+01  0.38975461304E+01  0.61974932781E+01  0.24998444269E+00 0.  0.
    1000022    2    1    0    0    0 -0.56909243557E+02 -0.26244179066E+01 -0.23679115516E+02  0.62499999135E+02  0.99999904347E+01 0.  0.
    3000022    2    5    5    0    0 -0.81970181774E+01  0.17661583560E+01 -0.66361408325E+01  0.10696321202E+02  0.24999953156E+00 0.  0.
        -13    1    4    4    0    0  0.16844911536E+01 -0.79523841461E+00  0.14608317606E+01  0.23695925842E+01  0.10500000000E+00 0.  1.
         13    1    4    4    0    0  0.27192303947E+01 -0.11445557492E+01  0.24367143698E+01  0.38279006939E+01  0.10500000000E+00 0. -1.
    3000001    1    5    5    0    0 -0.48712225379E+02 -0.43905762627E+01 -0.17042974684E+02  0.51803677933E+02  0.10000000000E+01 0. -1.
        -13    1    6    6    0    0 -0.44708195915E+01  0.93307587323E+00 -0.36907146789E+01  0.58729258676E+01  0.10500000000E+00 0. -1.
         13    1    6    6    0    0 -0.37261985858E+01  0.83308248280E+00 -0.29454261536E+01  0.48233953343E+01  0.10500000000E+00 0.  1.
</event>
<event>
11    0  0.3467594E-009  0.9118800E+02  0.7816531E-02  0.1126479E+00
         25   -1    0    0    0    0  0.00000000000E+00  0.00000000000E+00  0.99999998245E-14  0.12500000000E+03  0.12500000000E+03 0.  0.
    3000001    1    3    3    0    0  0.93130029194E+00 -0.66454222250E+00 -0.62611286607E+00  0.16434579156E+01  0.10000000000E+01 0.  1.
    1000022    2    1    0    0    0  0.52625152523E+02  0.19366091628E+02 -0.25725432282E+02  0.62500002222E+02  0.10000011436E+02 0.  0.
    3000022    2    3    3    0    0  0.51693852231E+02  0.20030633850E+02 -0.25099319416E+02  0.60856544307E+02  0.24999783733E+00 0.  0.
    1000022    2    1    0    0    0 -0.52625152523E+02 -0.19366091628E+02  0.25725432282E+02  0.62499997778E+02  0.99999836556E+01 0.  0.
    3000022    2    5    5    0    0 -0.40492478856E+02 -0.14211261507E+02  0.23994205434E+02  0.49166911478E+02  0.24998464002E+00 0.  0.
        -13    1    4    4    0    0  0.31540414164E+02  0.12166608590E+02 -0.15343537984E+02  0.37124914452E+02  0.10500000000E+00 0.  1.
         13    1    4    4    0    0  0.20153438067E+02  0.78640252601E+01 -0.97557814314E+01  0.23731629855E+02  0.10500000000E+00 0. -1.
    3000001    1    5    5    0    0 -0.12132673667E+02 -0.51548301205E+01  0.17312268477E+01  0.13333086299E+02  0.10000000000E+01 0.  1.
        -13    1    6    6    0    0 -0.26232829948E+02 -0.92626011707E+01  0.15530694497E+02  0.31861742641E+02  0.10500000000E+00 0.  1.
         13    1    6    6    0    0 -0.14259648908E+02 -0.49486603366E+01  0.84635109373E+01  0.17305168837E+02  0.10500000000E+00 0. -1.
</event>
<event>
11    0  0.3467594E-009  0.9118800E+02  0.7816531E-02  0.1126479E+00
         25   -1    0    0    0    0  0.00000000000E+00  0.00000000000E+00  0.99999998245E-14  0.12500000000E+03  0.12500000000E+03 0.  0.
    3000001    1    3    3    0    0 -0.42904882757E+02 -0.26964231748E+02 -0.35326917860E+02  0.61780983188E+02  0.10000000000E+01 0. -1.
    1000022    2    1    0    0    0 -0.42623418608E+02 -0.27530633484E+02 -0.35093566263E+02  0.62500000196E+02  0.10000001880E+02 0.  0.
    3000022    2    3    3    0    0  0.28146414908E+00 -0.56640173603E+00  0.23335159649E+00  0.71901700863E+00  0.24999899462E+00 0.  0.
    1000022    2    1    0    0    0  0.42623418608E+02  0.27530633484E+02  0.35093566263E+02  0.62499999804E+02  0.99999994274E+01 0.  0.
    3000022    2    5    5    0    0  0.14592741507E+02  0.14826558052E+02  0.12068131061E+02  0.24051553053E+02  0.24997715866E+00 0.  0.
        -13    1    4    4    0    0  0.47699125406E-01 -0.13850871845E+00  0.44061348136E-01  0.18554318649E+00  0.10500000000E+00 0.  1.
         13    1    4    4    0    0  0.23376502367E+00 -0.42789301758E+00  0.18929024836E+00  0.53347382214E+00  0.10500000000E+00 0. -1.
    3000001    1    5    5    0    0  0.28030677101E+02  0.12704075432E+02  0.23025435202E+02  0.38448446751E+02  0.10000000000E+01 0. -1.
        -13    1    6    6    0    0  0.11239975851E+02  0.11424580749E+02  0.93018303396E+01  0.18530870867E+02  0.10500000000E+00 0. -1.
         13    1    6    6    0    0  0.33527656563E+01  0.34019773030E+01  0.27663007215E+01  0.55206821859E+01  0.10500000000E+00 0.  1.
</event>
<event>
11    0  0.3467594E-009  0.9118800E+02  0.7816531E-02  0.1126479E+00
         25   -1    0    0    0    0  0.00000000000E+00  0.00000000000E+00  0.99999998245E-14  0.12500000000E+03  0.12500000000E+03 0.  0.
    3000001    1    3    3    0    0 -0.14049343901E+01 -0.15246191367E+01  0.46668393037E+00  0.23486374866E+01  0.10000000000E+01 0. -1.
    1000022    2    1    0    0    0 -0.54308052490E+02 -0.42677833290E+01  0.28959824674E+02  0.62500000115E+02  0.10000001469E+02 0.  0.
    3000022    2    3    3    0    0 -0.52903118100E+02 -0.27431641923E+01  0.28493140744E+02  0.60151362628E+02  0.25000418882E+00 0.  0.
    1000022    2    1    0    0    0  0.54308052490E+02  0.42677833290E+01 -0.28959824674E+02  0.62499999885E+02  0.10000000034E+02 0.  0.
    3000022    2    5    5    0    0  0.32081194800E+02 -0.21581842088E+01 -0.15253391139E+02  0.35589173405E+02  0.25000714293E+00 0.  0.
        -13    1    4    4    0    0 -0.24917815871E+02 -0.12491344869E+01  0.13360215188E+02  0.28301311977E+02  0.10500000000E+00 0.  1.
         13    1    4    4    0    0 -0.27985302229E+02 -0.14940297054E+01  0.15132925556E+02  0.31850050651E+02  0.10500000000E+00 0. -1.
    3000001    1    5    5    0    0  0.22226857691E+02  0.64259675378E+01 -0.13706433535E+02  0.26910826480E+02  0.10000000000E+01 0.  1.
        -13    1    6    6    0    0  0.19307290573E+02 -0.12378835428E+01 -0.91954960497E+01  0.21421297756E+02  0.10500000000E+00 0. -1.
         13    1    6    6    0    0  0.12773904226E+02 -0.92030066599E+00 -0.60578950893E+01  0.14167875649E+02  0.10500000000E+00 0.  1.
</event>
<event>
11    0  0.3467594E-009  0.9118800E+02  0.7816531E-02  0.1126479E+00
         25   -1    0    0    0    0  0.00000000000E+00  0.00000000000E+00  0.99999998245E-14  0.12500000000E+03  0.12500000000E+03 0.  0.
    3000001    1    3    3    0    0  0.46417017827E+02 -0.33862070322E+02 -0.91502807994E+01  0.58188546889E+02  0.10000000000E+01 0. -1.
    1000022    2    1    0    0    0  0.50525317611E+02 -0.34482193575E+02 -0.80262592399E+01  0.62499998134E+02  0.99999767996E+01 0.  0.
    3000022    2    3    3    0    0  0.41082997838E+01 -0.62012325388E+00  0.11240215595E+01  0.43114512450E+01  0.25001481604E+00 0.  0.
    1000022    2    1    0    0    0 -0.50525317611E+02  0.34482193575E+02  0.80262592399E+01  0.62500001866E+02  0.10000000120E+02 0.  0.
    3000022    2    5    5    0    0 -0.19677952192E+02  0.96964996221E+01  0.65213800265E+01  0.22887437704E+02  0.24999962885E+00 0.  0.
        -13    1    4    4    0    0  0.14103997050E+01 -0.15720872063E+00  0.38568336268E+00  0.14743536095E+01  0.10500000000E+00 0.  1.
         13    1    4    4    0    0  0.26979000789E+01 -0.46291453325E+00  0.73833819681E+00  0.28370976355E+01  0.10500000000E+00 0. -1.
    3000001    1    5    5    0    0 -0.30847365418E+02  0.24785693953E+02  0.15048792134E+01  0.39612564161E+02  0.10000000000E+01 0. -1.
        -13    1    6    6    0    0 -0.10025444455E+02  0.49996624880E+01  0.32867634438E+01  0.11675615635E+02  0.10500000000E+00 0.  1.
         13    1    6    6    0    0 -0.96525077369E+01  0.46968371341E+01  0.32346165827E+01  0.11211822069E+02  0.10500000000E+00 0. -1.
</event>
<event>
11    0  0.3467594E-009  0.9118800E+02  0.7816531E-02  0.1126479E+00
         25   -1    0    0    0    0  0.00000000000E+00  0.00000000000E+00  0.99999998245E-14  0.12500000000E+03  0.12500000000E+03 0.  0.
    3000001    1    3    3    0    0  0.17164152077E+02 -0.20925308391E+02 -0.24225209287E+02  0.36336447443E+02  0.10000000000E+01 0.  1.
    1000022    2    1    0    0    0  0.36140459996E+02 -0.33488976276E+02 -0.37129582978E+02  0.62499997917E+02  0.99999713364E+01 0.  0.
    3000022    2    3    3    0    0  0.18976307919E+02 -0.12563667885E+02 -0.12904373691E+02  0.26163550473E+02  0.25000013428E+00 0.  0.
    1000022    2    1    0    0    0 -0.36140459996E+02  0.33488976276E+02  0.37129582978E+02  0.62500002083E+02  0.99999973786E+01 0.  0.
    3000022    2    5    5    0    0 -0.30425469534E+02  0.31772921143E+02  0.30536443546E+02  0.53551513453E+02  0.24998871205E+00 0.  0.
        -13    1    4    4    0    0  0.70422981607E+01 -0.46233206622E+01 -0.48341165659E+01  0.97133292594E+01  0.10500000000E+00 0. -1.
         13    1    4    4    0    0  0.11934009758E+02 -0.79403472225E+01 -0.80702571248E+01  0.16450221214E+02  0.10500000000E+00 0.  1.
    3000001    1    5    5    0    0 -0.57149904624E+01  0.17160551333E+01  0.65931394316E+01  0.89484886305E+01  0.10000000000E+01 0. -1.
        -13    1    6    6    0    0 -0.89397610132E+01  0.93109422786E+01  0.90094541465E+01  0.15741482208E+02  0.10500000000E+00 0.  1.
         13    1    6    6    0    0 -0.21485708520E+02  0.22461978864E+02  0.21526989400E+02  0.37810031245E+02  0.10500000000E+00 0. -1.
</event>
<event>
11    0  0.3467594E-009  0.9118800E+02  0.7816531E-02  0.1126479E+00
         25   -1    0    0    0    0  0.00000000000E+00  0.00000000000E+00  0.99999998245E-14  0.12500000000E+03  0.12500000000E+03 0.  0.
    3000001    1    3    3    0    0  0.55231975028E+01 -0.33119898096E+01 -0.48145563902E+02  0.48584671560E+02  0.10000000000E+01 0.  1.
    1000022    2    1    0    0    0  0.12164820637E+02 -0.43445860889E+01 -0.60327371443E+02  0.62499999436E+02  0.99999947406E+01 0.  0.
    3000022    2    3    3    0    0  0.66416231344E+01 -0.10325962794E+01 -0.12181807541E+02  0.13915327875E+02  0.25000396607E+00 0.  0.
    1000022    2    1    0    0    0 -0.12164820637E+02  0.43445860889E+01  0.60327371443E+02  0.62500000564E+02  0.10000001792E+02 0.  0.
    3000022    2    5    5    0    0 -0.11818540770E+02  0.60700888852E+01  0.41777174671E+02  0.43839693227E+02  0.24998737454E+00 0.  0.
        -13    1    4    4    0    0  0.37449966719E+01 -0.63749768670E+00 -0.69593765186E+01  0.79293978271E+01  0.10500000000E+00 0. -1.
         13    1    4    4    0    0  0.28966264626E+01 -0.39509859267E+00 -0.52224310222E+01  0.59859300483E+01  0.10500000000E+00 0.  1.
    3000001    1    5    5    0    0 -0.34627986698E+00 -0.17255027962E+01  0.18550196772E+02  0.18660307337E+02  0.10000000000E+01 0. -1.
        -13    1    6    6    0    0 -0.71227548001E+01  0.36410245352E+01  0.25352768645E+02  0.26585044641E+02  0.10500000000E+00 0.  1.
         13    1    6    6    0    0 -0.46957859701E+01  0.24290643499E+01  0.16424406026E+02  0.17254648586E+02  0.10500000000E+00 0. -1.
</event>
<event>
11    0  0.3467594E-009  0.9118800E+02  0.7816531E-02  0.1126479E+00
         25   -1    0    0    0    0  0.00000000000E+00  0.00000000000E+00  0.99999998245E-14  0.12500000000E+03  0.12500000000E+03 0.  0.
    3000001    1    3    3    0    0  0.33265602100E+01 -0.56474260029E+01  0.16644888979E+02  0.17916800842E+02  0.10000000000E+01 0.  1.
    1000022    2    1    0    0    0  0.12562892240E+02 -0.33171855965E+02  0.50478230894E+02  0.62499999474E+02  0.99999925193E+01 0.  0.
    3000022    2    3    3    0    0  0.92363320303E+01 -0.27524429962E+02  0.33833341915E+02  0.44583198631E+02  0.25000191007E+00 0.  0.
    1000022    2    1    0    0    0 -0.12562892240E+02  0.33171855965E+02 -0.50478230894E+02  0.62500000526E+02  0.99999990994E+01 0.  0.
    3000022    2    5    5    0    0 -0.57828999803E+01  0.26773534373E+02 -0.39407741804E+02  0.47992673311E+02  0.25000486474E+00 0.  0.
        -13    1    4    4    0    0  0.59601639323E+01 -0.17801028481E+02  0.21961400035E+02  0.28891422353E+02  0.10500000000E+00 0. -1.
         13    1    4    4    0    0  0.32761680980E+01 -0.97234014814E+01  0.11871941880E+02  0.15691776279E+02  0.10500000000E+00 0.  1.
    3000001    1    5    5    0    0 -0.67799922600E+01  0.63983215917E+01 -0.11070489090E+02  0.14507327215E+02  0.10000000000E+01 0. -1.
        -13    1    6    6    0    0 -0.35532103836E+01  0.16362271057E+02 -0.23985574126E+02  0.29251803523E+02  0.10500000000E+00 0.  1.
         13    1    6    6    0    0 -0.22296895967E+01  0.10411263316E+02 -0.15422167678E+02  0.18740869788E+02  0.10500000000E+00 0. -1.
</event>
<event>
11    0  0.3467594E-009  0.9118800E+02  0.7816531E-02  0.1126479E+00
         25   -1    0    0    0    0  0.00000000000E+00  0.00000000000E+00  0.99999998245E-14  0.12500000000E+03  0.12500000000E+03 0.  0.
    3000001    1    3    3    0    0 -0.33634652674E+02 -0.28012181247E+02  0.21321651416E+02  0.48698921732E+02  0.10000000000E+01 0.  1.
    1000022    2    1    0    0    0 -0.42541356947E+02 -0.38453557487E+02  0.22755371218E+02  0.62500000021E+02  0.99999974513E+01 0.  0.
    3000022    2    3    3    0    0 -0.89067042730E+01 -0.10441376240E+02  0.14337198021E+01  0.13801078289E+02  0.24998135667E+00 0.  0.
    1000022    2    1    0    0    0  0.42541356947E+02  0.38453557487E+02 -0.22755371218E+02  0.62499999979E+02  0.99999971881E+01 0.  0.
    3000022    2    5    5    0    0  0.31116273665E+02  0.21962618637E+02 -0.15940936288E+02  0.41288679521E+02  0.25000527712E+00 0.  0.
        -13    1    4    4    0    0 -0.40805434992E+01 -0.48774387866E+01  0.69290658315E+00  0.63977643673E+01  0.10500000000E+00 0. -1.
         13    1    4    4    0    0 -0.48261607738E+01 -0.55639374538E+01  0.74081321897E+00  0.74033139221E+01  0.10500000000E+00 0.  1.
    3000001    1    5    5    0    0  0.11425083282E+02  0.16490938850E+02 -0.68144349303E+01  0.21211320458E+02  0.10000000000E+01 0.  1.
        -13    1    6    6    0    0  0.14447498414E+02  0.10279445972E+02 -0.74275106309E+01  0.19224363685E+02  0.10500000000E+00 0. -1.
         13    1    6    6    0    0  0.16668775251E+02  0.11683172666E+02 -0.85134256571E+01  0.22064315836E+02  0.10500000000E+00 0.  1.
</event>
<event>
11    0  0.3467594E-009  0.9118800E+02  0.7816531E-02  0.1126479E+00
         25   -1    0    0    0    0  0.00000000000E+00  0.00000000000E+00  0.99999998245E-14  0.12500000000E+03  0.12500000000E+03 0.  0.
    3000001    1    3    3    0    0 -0.16743524142E+02 -0.89518064612E+01 -0.12785103414E+02  0.22911554048E+02  0.10000000000E+01 0.  1.
    1000022    2    1    0    0    0 -0.48538942964E+02 -0.29954020459E+02 -0.23515474779E+02  0.62499999559E+02  0.10000003253E+02 0.  0.
    3000022    2    3    3    0    0 -0.31795418823E+02 -0.21002213997E+02 -0.10730371366E+02  0.39588445511E+02  0.24999485948E+00 0.  0.
    1000022    2    1    0    0    0  0.48538942964E+02  0.29954020459E+02  0.23515474779E+02  0.62500000441E+02  0.10000008764E+02 0.  0.
    3000022    2    5    5    0    0  0.29877478369E+02  0.22644371754E+02  0.11999419852E+02  0.39363433148E+02  0.25001308664E+00 0.  0.
        -13    1    4    4    0    0 -0.17398782559E+02 -0.11425799771E+02 -0.58231172126E+01  0.21614491759E+02  0.10500000000E+00 0. -1.
         13    1    4    4    0    0 -0.14396636264E+02 -0.95764142267E+01 -0.49072541531E+01  0.17973953752E+02  0.10500000000E+00 0.  1.
    3000001    1    5    5    0    0  0.18661464596E+02  0.73096487042E+01  0.11516054927E+02  0.23136567293E+02  0.10000000000E+01 0. -1.
        -13    1    6    6    0    0  0.15962921797E+02  0.12158779004E+02  0.63733323138E+01  0.21054243490E+02  0.10500000000E+00 0. -1.
         13    1    6    6    0    0  0.13914556572E+02  0.10485592750E+02  0.56260875385E+01  0.18309189657E+02  0.10500000000E+00 0.  1.
</event>
<event>
11    0  0.3467594E-009  0.9118800E+02  0.7816531E-02  0.1126479E+00
         25   -1    0    0    0    0  0.00000000000E+00  0.00000000000E+00  0.99999998245E-14  0.12500000000E+03  0.12500000000E+03 0.  0.
    3000001    1    3    3    0    0  0.33713597347E+02 -0.16587328304E+02  0.20269262752E+02  0.42703502420E+02  0.10000000000E+01 0.  1.
    1000022    2    1    0    0    0  0.52368712199E+02 -0.19245013633E+02  0.26332426999E+02  0.62499993649E+02  0.99999963669E+01 0.  0.
    3000022    2    3    3    0    0  0.18655114852E+02 -0.26576853288E+01  0.60631642465E+01  0.19796491229E+02  0.25000575153E+00 0.  0.
    1000022    2    1    0    0    0 -0.52368712199E+02  0.19245013633E+02 -0.26332426999E+02  0.62500006351E+02  0.10000075754E+02 0.  0.
    3000022    2    5    5    0    0 -0.97021404226E+01 -0.36883500882E+00 -0.45602478928E+01  0.10729675188E+02  0.25000150101E+00 0.  0.
        -13    1    4    4    0    0  0.84250439412E+01 -0.12175498832E+01  0.28068631358E+01  0.89640001558E+01  0.10500000000E+00 0.  1.
         13    1    4    4    0    0  0.10230070910E+02 -0.14401354456E+01  0.32563011107E+01  0.10832491074E+02  0.10500000000E+00 0. -1.
    3000001    1    5    5    0    0 -0.42666571777E+02  0.19613848642E+02 -0.21772179106E+02  0.51770331163E+02  0.10000000000E+01 0.  1.
        -13    1    6    6    0    0 -0.46781494240E+01 -0.16705137920E+00 -0.22725192518E+01  0.52046476295E+01  0.10500000000E+00 0. -1.
         13    1    6    6    0    0 -0.50239909986E+01 -0.20178362961E+00 -0.22877286410E+01  0.55250275584E+01  0.10500000000E+00 0.  1.
</event>
<event>
11    0  0.3467594E-009  0.9118800E+02  0.7816531E-02  0.1126479E+00
         25   -1    0    0    0    0  0.00000000000E+00  0.00000000000E+00  0.99999998245E-14  0.12500000000E+03  0.12500000000E+03 0.  0.
    3000001    1    3    3    0    0 -0.32325683328E+01 -0.64311487756E+01 -0.25096267533E+02  0.26127223670E+02  0.10000000000E+01 0.  1.
    1000022    2    1    0    0    0 -0.68940546514E+01 -0.38215140928E+01 -0.61189198671E+02  0.62499999952E+02  0.10000000021E+02 0.  0.
    3000022    2    3    3    0    0 -0.36614863187E+01  0.26096346828E+01 -0.36092931138E+02  0.36372776282E+02  0.25000211966E+00 0.  0.
    1000022    2    1    0    0    0  0.68940546514E+01  0.38215140928E+01  0.61189198671E+02  0.62500000048E+02  0.10000000624E+02 0.  0.
    3000022    2    5    5    0    0  0.70312381108E+01  0.66536495987E+01  0.48765863690E+02  0.49718018085E+02  0.24999719668E+00 0.  0.
        -13    1    4    4    0    0 -0.22891990757E+01  0.17035698331E+01 -0.22838117724E+02  0.23015934236E+02  0.10500000000E+00 0.  1.
         13    1    4    4    0    0 -0.13722872429E+01  0.90606484972E+00 -0.13254813414E+02  0.13356842046E+02  0.10500000000E+00 0. -1.
    3000001    1    5    5    0    0 -0.13718345932E+00 -0.28321355060E+01  0.12423334982E+02  0.12781981963E+02  0.10000000000E+01 0.  1.
        -13    1    6    6    0    0  0.31715178631E+01  0.30317745599E+01  0.21780263680E+02  0.22218035321E+02  0.10500000000E+00 0. -1.
         13    1    6    6    0    0  0.38597202477E+01  0.36218750388E+01  0.26985600010E+02  0.27499982765E+02  0.10500000000E+00 0.  1.
</event>
<event>
11    0  0.3467594E-009  0.9118800E+02  0.7816531E-02  0.1126479E+00
         25   -1    0    0    0    0  0.00000000000E+00  0.00000000000E+00  0.99999998245E-14  0.12500000000E+03  0.12500000000E+03 0.  0.
    3000001    1    3    3    0    0  0.39875830311E+02 -0.52404481278E+01  0.14025137550E+02  0.42605734624E+02  0.10000000000E+01 0.  1.
    1000022    2    1    0    0    0  0.55847851430E+02 -0.43608851529E+01  0.25850539712E+02  0.62499998519E+02  0.99999791397E+01 0.  0.
    3000022    2    3    3    0    0  0.15972021118E+02  0.87956297495E+00  0.11825402162E+02  0.19894263894E+02  0.25001992379E+00 0.  0.
    1000022    2    1    0    0    0 -0.55847851430E+02  0.43608851529E+01 -0.25850539712E+02  0.62500001481E+02  0.99999976564E+01 0.  0.
    3000022    2    5    5    0    0 -0.11351778465E+02 -0.19627093827E+01 -0.22991044469E+01  0.11750041283E+02  0.24997288415E+00 0.  0.
        -13    1    4    4    0    0  0.10735397093E+02  0.64346640600E+00  0.79440945641E+01  0.13370955957E+02  0.10500000000E+00 0.  1.
         13    1    4    4    0    0  0.52366240250E+01  0.23609656895E+00  0.38813075980E+01  0.65233079369E+01  0.10500000000E+00 0. -1.
    3000001    1    5    5    0    0 -0.44496072964E+02  0.63235945355E+01 -0.23551435266E+02  0.50749960199E+02  0.10000000000E+01 0.  1.
        -13    1    6    6    0    0 -0.32974184618E+01 -0.60259602475E+00 -0.69877507713E+00  0.34256973144E+01  0.10500000000E+00 0.  1.
         13    1    6    6    0    0 -0.80543600035E+01 -0.13601133579E+01 -0.16003293698E+01  0.83243439684E+01  0.10500000000E+00 0. -1.
</event>
<event>
11    0  0.3467594E-009  0.9118800E+02  0.7816531E-02  0.1126479E+00
         25   -1    0    0    0    0  0.00000000000E+00  0.00000000000E+00  0.99999998245E-14  0.12500000000E+03  0.12500000000E+03 0.  0.
    3000001    1    3    3    0    0 -0.49581481685E+00 -0.18453786338E+02  0.45399726634E+02  0.49019620979E+02  0.10000000000E+01 0.  1.
    1000022    2    1    0    0    0  0.94494858790E+00 -0.27657613897E+02  0.55139944401E+02  0.62499998628E+02  0.99999912793E+01 0.  0.
    3000022    2    3    3    0    0  0.14407634047E+01 -0.92038275589E+01  0.97402177678E+01  0.13480377649E+02  0.24999692408E+00 0.  0.
    1000022    2    1    0    0    0 -0.94494858790E+00  0.27657613897E+02 -0.55139944401E+02  0.62500001372E+02  0.10000008434E+02 0.  0.
    3000022    2    5    5    0    0 -0.34578146443E+01  0.15598862717E+02 -0.39190034232E+02  0.42322597916E+02  0.25002214175E+00 0.  0.
        -13    1    4    4    0    0  0.55194766068E+00 -0.37078486388E+01  0.40020102599E+01  0.54845144606E+01  0.10500000000E+00 0.  1.
         13    1    4    4    0    0  0.88881574407E+00 -0.54959789200E+01  0.57382075079E+01  0.79958631879E+01  0.10500000000E+00 0. -1.
    3000001    1    5    5    0    0  0.25128660564E+01  0.12058751180E+02 -0.15949910169E+02  0.20177403457E+02  0.10000000000E+01 0. -1.
        -13    1    6    6    0    0 -0.23366063624E+01  0.10412656242E+02 -0.26294391337E+02  0.28377617590E+02  0.10500000000E+00 0. -1.
         13    1    6    6    0    0 -0.11212082820E+01  0.51862064751E+01 -0.12895642895E+02  0.13944980326E+02  0.10500000000E+00 0.  1.
</event>
<event>
11    0  0.3467594E-009  0.9118800E+02  0.7816531E-02  0.1126479E+00
         25   -1    0    0    0    0  0.00000000000E+00  0.00000000000E+00  0.99999998245E-14  0.12500000000E+03  0.12500000000E+03 0.  0.
    3000001    1    3    3    0    0 -0.52236691256E+01  0.59481460674E+02 -0.11205153969E+02  0.60760894977E+02  0.10000000000E+01 0.  1.
    1000022    2    1    0    0    0 -0.57637120506E+01  0.60093439490E+02 -0.12720353249E+02  0.62500005982E+02  0.10000075729E+02 0.  0.
    3000022    2    3    3    0    0 -0.54004292496E+00  0.61197881645E+00 -0.15151992803E+01  0.17391110043E+01  0.25002758569E+00 0.  0.
    1000022    2    1    0    0    0  0.57637120506E+01 -0.60093439490E+02  0.12720353249E+02  0.62499994018E+02  0.10000000959E+02 0.  0.
    3000022    2    5    5    0    0  0.10629728939E+01 -0.14332062304E+02 -0.12100950190E+01  0.14424449513E+02  0.24998505396E+00 0.  0.
        -13    1    4    4    0    0 -0.38182738955E+00  0.38192939449E+00 -0.88856201326E+00  0.10450979233E+01  0.10500000000E+00 0. -1.
         13    1    4    4    0    0 -0.15821553541E+00  0.23004942196E+00 -0.62663726704E+00  0.69401308103E+00  0.10500000000E+00 0.  1.
    3000001    1    5    5    0    0  0.47007391567E+01 -0.45761377186E+02  0.13930448268E+02  0.48075544505E+02  0.10000000000E+01 0.  1.
        -13    1    6    6    0    0  0.64925474772E+00 -0.82556201049E+01 -0.64341977807E+00  0.83067327545E+01  0.10500000000E+00 0. -1.
         13    1    6    6    0    0  0.41371814616E+00 -0.60764421996E+01 -0.56667524089E+00  0.61177167585E+01  0.10500000000E+00 0.  1.
</event>
<event>
11    0  0.3467594E-009  0.9118800E+02  0.7816531E-02  0.1126479E+00
         25   -1    0    0    0    0  0.00000000000E+00  0.00000000000E+00  0.99999998245E-14  0.12500000000E+03  0.12500000000E+03 0.  0.
    3000001    1    3    3    0    0 -0.36753783927E+02 -0.20227856117E+02 -0.81701818591E+01  0.42752294297E+02  0.10000000000E+01 0.  1.
    1000022    2    1    0    0    0 -0.49833016078E+02 -0.34850894841E+02 -0.10408444073E+02  0.62500000310E+02  0.99999984030E+01 0.  0.
    3000022    2    3    3    0    0 -0.13079232150E+02 -0.14623038725E+02 -0.22382622136E+01  0.19747706013E+02  0.24999967695E+00 0.  0.
    1000022    2    1    0    0    0  0.49833016078E+02  0.34850894841E+02  0.10408444073E+02  0.62499999690E+02  0.99999945290E+01 0.  0.
    3000022    2    5    5    0    0  0.32844454368E+02  0.21101684759E+02  0.20960145642E+01  0.39095972447E+02  0.25000424604E+00 0.  0.
        -13    1    4    4    0    0 -0.73802894580E+01 -0.83267927945E+01 -0.13120053247E+01  0.11204308711E+02  0.10500000000E+00 0.  1.
         13    1    4    4    0    0 -0.56989426925E+01 -0.62962459303E+01 -0.92625688887E+00  0.85433973015E+01  0.10500000000E+00 0. -1.
    3000001    1    5    5    0    0  0.16988561710E+02  0.13749210083E+02  0.83124295085E+01  0.23404027243E+02  0.10000000000E+01 0. -1.
        -13    1    6    6    0    0  0.24727710805E+02  0.15878697879E+02  0.16014730156E+01  0.29430740202E+02  0.10500000000E+00 0. -1.
         13    1    6    6    0    0  0.81167435626E+01  0.52229868795E+01  0.49454154868E+00  0.96652322449E+01  0.10500000000E+00 0.  1.
</event>
<event>
11    0  0.3467594E-009  0.9118800E+02  0.7816531E-02  0.1126479E+00
         25   -1    0    0    0    0  0.00000000000E+00  0.00000000000E+00  0.99999998245E-14  0.12500000000E+03  0.12500000000E+03 0.  0.
    3000001    1    3    3    0    0 -0.25161353223E+02 -0.97657124488E+01 -0.19049080712E+02  0.33050420748E+02  0.10000000000E+01 0.  1.
    1000022    2    1    0    0    0 -0.52409619448E+02 -0.15675779617E+02 -0.28526332786E+02  0.62500000688E+02  0.10000007321E+02 0.  0.
    3000022    2    3    3    0    0 -0.27248266225E+02 -0.59100671680E+01 -0.94772520744E+01  0.29449579939E+02  0.25009106885E+00 0.  0.
    1000022    2    1    0    0    0  0.52409619448E+02  0.15675779617E+02  0.28526332786E+02  0.62499999312E+02  0.99999987259E+01 0.  0.
    3000022    2    5    5    0    0  0.20995787642E+00  0.12030864870E+00  0.17752041866E+01  0.18089766929E+01  0.24998058029E+00 0.  0.
        -13    1    4    4    0    0 -0.12160463531E+02 -0.25783219765E+01 -0.41906805065E+01  0.13118591601E+02  0.10500000000E+00 0.  1.
         13    1    4    4    0    0 -0.15087802694E+02 -0.33317451915E+01 -0.52865715680E+01  0.16330988338E+02  0.10500000000E+00 0. -1.
    3000001    1    5    5    0    0  0.52199661572E+02  0.15555470968E+02  0.26751128600E+02  0.60691022619E+02  0.10000000000E+01 0. -1.
        -13    1    6    6    0    0  0.18832594262E+00  0.92408864350E-01  0.10989008554E+01  0.11236610471E+01  0.10500000000E+00 0. -1.
         13    1    6    6    0    0  0.21631933796E-01  0.27899784353E-01  0.67630333121E+00  0.68531564577E+00  0.10500000000E+00 0.  1.
</event>
<event>
11    0  0.3467594E-009  0.9118800E+02  0.7816531E-02  0.1126479E+00
         25   -1    0    0    0    0  0.00000000000E+00  0.00000000000E+00  0.99999998245E-14  0.12500000000E+03  0.12500000000E+03 0.  0.
    3000001    1    3    3    0    0 -0.10245020987E+02  0.94667986576E+01 -0.20734023677E+02  0.25009607548E+02  0.10000000000E+01 0. -1.
    1000022    2    1    0    0    0 -0.22572086647E+02  0.12730757970E+02 -0.55988201267E+02  0.62499999733E+02  0.99999995698E+01 0.  0.
    3000022    2    3    3    0    0 -0.12327065659E+02  0.32639593120E+01 -0.35254177591E+02  0.37490392185E+02  0.24998092499E+00 0.  0.
    1000022    2    1    0    0    0  0.22572086647E+02 -0.12730757970E+02  0.55988201267E+02  0.62500000267E+02  0.10000002908E+02 0.  0.
    3000022    2    5    5    0    0  0.67810115315E+01 -0.74527251110E+00  0.76949257232E+01  0.10286492649E+02  0.25000126239E+00 0.  0.
        -13    1    4    4    0    0 -0.70524332689E+01  0.19313323823E+01 -0.20152256810E+02  0.21438081522E+02  0.10500000000E+00 0. -1.
         13    1    4    4    0    0 -0.52746323905E+01  0.13326269297E+01 -0.15101920780E+02  0.16052310664E+02  0.10500000000E+00 0.  1.
    3000001    1    5    5    0    0  0.15791075115E+02 -0.11985485459E+02  0.48293275544E+02  0.52213507618E+02  0.10000000000E+01 0. -1.
        -13    1    6    6    0    0  0.51899498525E+01 -0.56036468598E+00  0.58696093220E+01  0.78557575475E+01  0.10500000000E+00 0.  1.
         13    1    6    6    0    0  0.15910616790E+01 -0.18490782512E+00  0.18253164013E+01  0.24307351018E+01  0.10500000000E+00 0. -1.
</event>
<event>
11    0  0.3467594E-009  0.9118800E+02  0.7816531E-02  0.1126479E+00
         25   -1    0    0    0    0  0.00000000000E+00  0.00000000000E+00  0.99999998245E-14  0.12500000000E+03  0.12500000000E+03 0.  0.
    3000001    1    3    3    0    0  0.66523126371E+01 -0.14916408715E+02 -0.51811546075E+01  0.17163824616E+02  0.10000000000E+01 0.  1.
    1000022    2    1    0    0    0  0.34988357258E+02 -0.50205035900E+02 -0.78434177581E+01  0.62499999735E+02  0.99999995677E+01 0.  0.
    3000022    2    3    3    0    0  0.28336044621E+02 -0.35288627185E+02 -0.26622631506E+01  0.45336175119E+02  0.24999190286E+00 0.  0.
    1000022    2    1    0    0    0 -0.34988357258E+02  0.50205035900E+02  0.78434177581E+01  0.62500000265E+02  0.10000002886E+02 0.  0.
    3000022    2    5    5    0    0 -0.32333011351E+02  0.46838784592E+02  0.96746773833E+01  0.57731769821E+02  0.24999826117E+00 0.  0.
        -13    1    4    4    0    0  0.19070494812E+02 -0.23832593583E+02 -0.17943333447E+01  0.30576248077E+02  0.10500000000E+00 0. -1.
         13    1    4    4    0    0  0.92655498091E+01 -0.11456033601E+02 -0.86792980588E+00  0.14759927042E+02  0.10500000000E+00 0.  1.
    3000001    1    5    5    0    0 -0.26553459079E+01  0.33662513076E+01 -0.18312596252E+01  0.47682304445E+01  0.10000000000E+01 0.  1.
        -13    1    6    6    0    0 -0.23016121817E+02  0.33324335451E+02  0.69262046246E+01  0.41088155620E+02  0.10500000000E+00 0.  1.
         13    1    6    6    0    0 -0.93168895336E+01  0.13514449141E+02  0.27484727587E+01  0.16643614201E+02  0.10500000000E+00 0. -1.
</event>
<event>
11    0  0.3467594E-009  0.9118800E+02  0.7816531E-02  0.1126479E+00
         25   -1    0    0    0    0  0.00000000000E+00  0.00000000000E+00  0.99999998245E-14  0.12500000000E+03  0.12500000000E+03 0.  0.
    3000001    1    3    3    0    0  0.98121145507E+01  0.95935372931E+00  0.12526946333E+02  0.15972549451E+02  0.10000000000E+01 0. -1.
    1000022    2    1    0    0    0  0.25109203950E+02  0.11900250416E+02  0.55083232981E+02  0.62500005834E+02  0.10000004533E+02 0.  0.
    3000022    2    3    3    0    0  0.15297089400E+02  0.10940896687E+02  0.42556286647E+02  0.46527456383E+02  0.24999966352E+00 0.  0.
    1000022    2    1    0    0    0 -0.25109203950E+02 -0.11900250416E+02 -0.55083232981E+02  0.62499994166E+02  0.99999316095E+01 0.  0.
    3000022    2    5    5    0    0 -0.10448230702E+02  0.20814094577E+00 -0.21036414822E+02  0.23490468347E+02  0.25001422858E+00 0.  0.
        -13    1    4    4    0    0  0.61992306273E+01  0.44563394540E+01  0.17125738575E+02  0.18750769810E+02  0.10500000000E+00 0. -1.
         13    1    4    4    0    0  0.90978587723E+01  0.64845572326E+01  0.25430548072E+02  0.27776686573E+02  0.10500000000E+00 0.  1.
    3000001    1    5    5    0    0 -0.14660973248E+02 -0.12108391362E+02 -0.34046818158E+02  0.39009525819E+02  0.10000000000E+01 0. -1.
        -13    1    6    6    0    0 -0.55582672892E+01  0.95958846783E-01 -0.11042311041E+02  0.12363138820E+02  0.10500000000E+00 0. -1.
         13    1    6    6    0    0 -0.48899634133E+01  0.11218209899E+00 -0.99941037816E+01  0.11127329527E+02  0.10500000000E+00 0.  1.
</event>
<event>
11    0  0.3467594E-009  0.9118800E+02  0.7816531E-02  0.1126479E+00
         25   -1    0    0    0    0  0.00000000000E+00  0.00000000000E+00  0.99999998245E-14  0.12500000000E+03  0.12500000000E+03 0.  0.
    3000001    1    3    3    0    0  0.47129223512E+02 -0.23129348891E+01  0.26769339137E+02  0.54259661761E+02  0.10000000000E+01 0. -1.
    1000022    2    1    0    0    0  0.54455637345E+02 -0.56884756067E+01  0.28433688026E+02  0.62499999958E+02  0.10000009330E+02 0.  0.
    3000022    2    3    3    0    0  0.73264138331E+01 -0.33755407175E+01  0.16643488894E+01  0.82403381966E+01  0.25000315821E+00 0.  0.
    1000022    2    1    0    0    0 -0.54455637345E+02  0.56884756067E+01 -0.28433688026E+02  0.62500000042E+02  0.10000009855E+02 0.  0.
    3000022    2    5    5    0    0 -0.84503607033E+01  0.65431043089E+00 -0.63349435154E+00  0.85029717326E+01  0.24999006950E+00 0.  0.
        -13    1    4    4    0    0  0.50606445968E+01 -0.23528528879E+01  0.11062970582E+01  0.56904269285E+01  0.10500000000E+00 0.  1.
         13    1    4    4    0    0  0.22657692362E+01 -0.10226878296E+01  0.55805183125E+00  0.25499112681E+01  0.10500000000E+00 0. -1.
    3000001    1    5    5    0    0 -0.46005276642E+02  0.50341651758E+01 -0.27800193675E+02  0.53997028309E+02  0.10000000000E+01 0. -1.
        -13    1    6    6    0    0 -0.49422461985E+01  0.37245547658E+00 -0.30660991391E+00  0.49668455994E+01  0.10500000000E+00 0.  1.
         13    1    6    6    0    0 -0.35081145048E+01  0.28185495431E+00 -0.32688443763E+00  0.35361261332E+01  0.10500000000E+00 0. -1.
</event>
<event>
11    0  0.3467594E-009  0.9118800E+02  0.7816531E-02  0.1126479E+00
         25   -1    0    0    0    0  0.00000000000E+00  0.00000000000E+00  0.99999998245E-14  0.12500000000E+03  0.12500000000E+03 0.  0.
    3000001    1    3    3    0    0  0.81735978152E+01 -0.12784418547E+02  0.91514751240E+01  0.17748198663E+02  0.10000000000E+01 0.  1.
    1000022    2    1    0    0    0  0.34473992418E+02 -0.47893640981E+02  0.17999809880E+02  0.62500000689E+02  0.99999965358E+01 0.  0.
    3000022    2    3    3    0    0  0.26300394603E+02 -0.35109222435E+02  0.88483347556E+01  0.44751802026E+02  0.25000084041E+00 0.  0.
    1000022    2    1    0    0    0 -0.34473992418E+02  0.47893640981E+02 -0.17999809880E+02  0.62499999311E+02  0.99999879228E+01 0.  0.
    3000022    2    5    5    0    0 -0.30909326074E+02  0.36427064765E+02 -0.15139510786E+02  0.50115713817E+02  0.24999774853E+00 0.  0.
        -13    1    4    4    0    0  0.83651486391E+01 -0.11105574194E+02  0.27698147856E+01  0.14177178453E+02  0.10500000000E+00 0. -1.
         13    1    4    4    0    0  0.17935245964E+02 -0.24003648240E+02  0.60785199700E+01  0.30574623573E+02  0.10500000000E+00 0.  1.
    3000001    1    5    5    0    0 -0.35646663444E+01  0.11466576217E+02 -0.28602990932E+01  0.12384285494E+02  0.10000000000E+01 0. -1.
        -13    1    6    6    0    0 -0.12746492067E+02  0.14924973696E+02 -0.62335286296E+01  0.20593586478E+02  0.10500000000E+00 0. -1.
         13    1    6    6    0    0 -0.18162834006E+02  0.21502091068E+02 -0.89059821567E+01  0.29522127339E+02  0.10500000000E+00 0.  1.
</event>
<event>
11    0  0.3467594E-009  0.9118800E+02  0.7816531E-02  0.1126479E+00
         25   -1    0    0    0    0  0.00000000000E+00  0.00000000000E+00  0.99999998245E-14  0.12500000000E+03  0.12500000000E+03 0.  0.
    3000001    1    3    3    0    0 -0.99979228203E+00  0.75838481411E+00 -0.84505502463E+00  0.18135187146E+01  0.10000000000E+01 0. -1.
    1000022    2    1    0    0    0 -0.10469621423E+02  0.13746487895E+01 -0.60784433247E+02  0.62500000009E+02  0.10000002198E+02 0.  0.
    3000022    2    3    3    0    0 -0.94698291411E+01  0.61626397538E+00 -0.59939378223E+02  0.60686481295E+02  0.25000997332E+00 0.  0.
    1000022    2    1    0    0    0  0.10469621423E+02 -0.13746487895E+01  0.60784433247E+02  0.62499999991E+02  0.10000002079E+02 0.  0.
    3000022    2    5    5    0    0  0.22824219108E+01 -0.26441536016E+01  0.39237450250E+02  0.39393413167E+02  0.25000164640E+00 0.  0.
        -13    1    4    4    0    0 -0.67821115823E+01  0.48234576141E+00 -0.42927322853E+02  0.43462578930E+02  0.10500000000E+00 0.  1.
         13    1    4    4    0    0 -0.26877175588E+01  0.13391821397E+00 -0.17012055370E+02  0.17223902365E+02  0.10500000000E+00 0. -1.
    3000001    1    5    5    0    0  0.81871995124E+01  0.12695048121E+01  0.21546982997E+02  0.23106586823E+02  0.10000000000E+01 0. -1.
        -13    1    6    6    0    0  0.13737495738E+01 -0.15927046158E+01  0.24313461781E+02  0.24404494354E+02  0.10500000000E+00 0. -1.
         13    1    6    6    0    0  0.90867233700E+00 -0.10514489858E+01  0.14923988469E+02  0.14988918814E+02  0.10500000000E+00 0.  1.
</event>
<event>
11    0  0.3467594E-009  0.9118800E+02  0.7816531E-02  0.1126479E+00
         25   -1    0    0    0    0  0.00000000000E+00  0.00000000000E+00  0.99999998245E-14  0.12500000000E+03  0.12500000000E+03 0.  0.
    3000001    1    3    3    0    0 -0.82726392671E+01  0.12945668607E+02  0.99074555359E+00  0.15427523226E+02  0.10000000000E+01 0. -1.
    1000022    2    1    0    0    0 -0.20822394521E+02  0.57748170904E+02 -0.61503339477E+01  0.62500000337E+02  0.10000003903E+02 0.  0.
    3000022    2    3    3    0    0 -0.12549755254E+02  0.44802502297E+02 -0.71410795013E+01  0.47072477111E+02  0.25003183078E+00 0.  0.
    1000022    2    1    0    0    0  0.20822394521E+02 -0.57748170904E+02  0.61503339477E+01  0.62499999663E+02  0.99999996909E+01 0.  0.
    3000022    2    5    5    0    0  0.80108585298E+00 -0.14400824339E+02  0.19709872970E+01  0.14559284259E+02  0.24997403546E+00 0.  0.
        -13    1    4    4    0    0 -0.90599746438E+01  0.32469189968E+02 -0.51916701124E+01  0.34107123908E+02  0.10500000000E+00 0. -1.
         13    1    4    4    0    0 -0.34897806098E+01  0.12333312329E+02 -0.19494093889E+01  0.12965353203E+02  0.10500000000E+00 0.  1.
    3000001    1    5    5    0    0  0.20021308668E+02 -0.43347346566E+02  0.41793466507E+01  0.47940715404E+02  0.10000000000E+01 0.  1.
        -13    1    6    6    0    0  0.59764692005E+00 -0.10900894681E+02  0.15118514118E+01  0.11021951115E+02  0.10500000000E+00 0. -1.
         13    1    6    6    0    0  0.20343893293E+00 -0.34999296581E+01  0.45913588525E+00  0.35373331441E+01  0.10500000000E+00 0.  1.
</event>
<event>
11    0  0.3467594E-009  0.9118800E+02  0.7816531E-02  0.1126479E+00
         25   -1    0    0    0    0  0.00000000000E+00  0.00000000000E+00  0.99999998245E-14  0.12500000000E+03  0.12500000000E+03 0.  0.
    3000001    1    3    3    0    0  0.53695064917E+02 -0.66854078775E+01  0.26587881801E+02  0.60297347649E+02  0.10000000000E+01 0. -1.
    1000022    2    1    0    0    0  0.54205415218E+02 -0.77688941518E+01  0.28419488018E+02  0.62500001126E+02  0.10000004314E+02 0.  0.
    3000022    2    3    3    0    0  0.51035030109E+00 -0.10834862744E+01  0.18316062173E+01  0.22026534768E+01  0.25000213415E+00 0.  0.
    1000022    2    1    0    0    0 -0.54205415218E+02  0.77688941518E+01 -0.28419488018E+02  0.62499998874E+02  0.99999902360E+01 0.  0.
    3000022    2    5    5    0    0 -0.32416066274E+02  0.39649077332E+01 -0.22241018297E+02  0.39512621291E+02  0.25000063786E+00 0.  0.
        -13    1    4    4    0    0  0.10700215774E+00 -0.31559448917E+00  0.49879774817E+00  0.60899387266E+00  0.10500000000E+00 0.  1.
         13    1    4    4    0    0  0.40334814335E+00 -0.76789178520E+00  0.13328084691E+01  0.15936596041E+01  0.10500000000E+00 0. -1.
    3000001    1    5    5    0    0 -0.21789348944E+02  0.38039864186E+01 -0.61784697208E+01  0.22987377583E+02  0.10000000000E+01 0. -1.
        -13    1    6    6    0    0 -0.76611690871E+01  0.92117966273E+00 -0.52527270833E+01  0.93351084923E+01  0.10500000000E+00 0. -1.
         13    1    6    6    0    0 -0.24754897187E+02  0.30437280705E+01 -0.16988291214E+02  0.30177512798E+02  0.10500000000E+00 0.  1.
</event>
<event>
11    0  0.3467594E-009  0.9118800E+02  0.7816531E-02  0.1126479E+00
         25   -1    0    0    0    0  0.00000000000E+00  0.00000000000E+00  0.99999998245E-14  0.12500000000E+03  0.12500000000E+03 0.  0.
    3000001    1    3    3    0    0  0.99996825477E+01  0.26957845853E+02 -0.63564335927E+01  0.29463933073E+02  0.10000000000E+01 0. -1.
    1000022    2    1    0    0    0  0.15083922725E+02  0.59583574736E+02 -0.53406129316E+01  0.62500005613E+02  0.10000072600E+02 0.  0.
    3000022    2    3    3    0    0  0.50842401776E+01  0.32625728883E+02  0.10158206611E+01  0.33036072540E+02  0.25002786548E+00 0.  0.
    1000022    2    1    0    0    0 -0.15083922725E+02 -0.59583574736E+02  0.53406129316E+01  0.62499994387E+02  0.10000002443E+02 0.  0.
    3000022    2    5    5    0    0 -0.40044479965E+01 -0.17899306336E+02 -0.29161727367E+01  0.18573834734E+02  0.25000448777E+00 0.  0.
        -13    1    4    4    0    0  0.25596694169E+01  0.16193129232E+02  0.56202468025E+00  0.16404153089E+02  0.10500000000E+00 0. -1.
         13    1    4    4    0    0  0.25245707607E+01  0.16432599651E+02  0.45379598086E+00  0.16631919451E+02  0.10500000000E+00 0.  1.
    3000001    1    5    5    0    0 -0.11079474729E+02 -0.41684268400E+02  0.82567856684E+01  0.43926159653E+02  0.10000000000E+01 0.  1.
        -13    1    6    6    0    0 -0.23468302863E+01 -0.10652224507E+02 -0.16807164359E+01  0.11036907722E+02  0.10500000000E+00 0.  1.
         13    1    6    6    0    0 -0.16576177102E+01 -0.72470818293E+01 -0.12354563008E+01  0.75369270120E+01  0.10500000000E+00 0. -1.
</event>
<event>
11    0  0.3467594E-009  0.9118800E+02  0.7816531E-02  0.1126479E+00
         25   -1    0    0    0    0  0.00000000000E+00  0.00000000000E+00  0.99999998245E-14  0.12500000000E+03  0.12500000000E+03 0.  0.
    3000001    1    3    3    0    0 -0.25140424911E+02  0.30323552206E+02  0.11829667333E+02  0.41140002580E+02  0.10000000000E+01 0. -1.
    1000022    2    1    0    0    0 -0.35240512634E+02  0.49138687277E+02  0.12237051248E+02  0.62500001190E+02  0.10000020374E+02 0.  0.
    3000022    2    3    3    0    0 -0.10100087723E+02  0.18815135071E+02  0.40738391473E+00  0.21359998610E+02  0.24999839387E+00 0.  0.
    1000022    2    1    0    0    0  0.35240512634E+02 -0.49138687277E+02 -0.12237051248E+02  0.62499998810E+02  0.10000005500E+02 0.  0.
    3000022    2    5    5    0    0  0.55724003856E+01 -0.89597979293E+01  0.15731391398E+01  0.10670842998E+02  0.24999710469E+00 0.  0.
        -13    1    4    4    0    0 -0.35847848583E+01  0.65954144904E+01  0.10200918388E+00  0.75081026667E+01  0.10500000000E+00 0. -1.
         13    1    4    4    0    0 -0.65153028648E+01  0.12219720581E+02  0.30537473085E+00  0.13851895943E+02  0.10500000000E+00 0.  1.
    3000001    1    5    5    0    0  0.29668112248E+02 -0.40178889348E+02 -0.13810190387E+02  0.51829155812E+02  0.10000000000E+01 0. -1.
        -13    1    6    6    0    0  0.42827284286E+01 -0.68723464021E+01  0.11981104779E+01  0.81864156736E+01  0.10500000000E+00 0. -1.
         13    1    6    6    0    0  0.12896719570E+01 -0.20874515272E+01  0.37502866189E+00  0.24844273248E+01  0.10500000000E+00 0.  1.
</event>
<event>
11    0  0.3467594E-009  0.9118800E+02  0.7816531E-02  0.1126479E+00
         25   -1    0    0    0    0  0.00000000000E+00  0.00000000000E+00  0.99999998245E-14  0.12500000000E+03  0.12500000000E+03 0.  0.
    3000001    1    3    3    0    0 -0.22952111296E+01  0.46429764794E+01  0.42605769033E+00  0.52921403868E+01  0.10000000000E+01 0.  1.
    1000022    2    1    0    0    0 -0.41382153967E+02  0.37506473457E+02  0.26211290018E+02  0.62500000274E+02  0.10000004583E+02 0.  0.
    3000022    2    3    3    0    0 -0.39086942837E+02  0.32863496978E+02  0.25785232328E+02  0.57207859887E+02  0.24998535764E+00 0.  0.
    1000022    2    1    0    0    0  0.41382153967E+02 -0.37506473457E+02 -0.26211290018E+02  0.62499999726E+02  0.10000001161E+02 0.  0.
    3000022    2    5    5    0    0  0.95124957364E+01 -0.37401247468E+01 -0.59615245421E+01  0.11835471476E+02  0.25000387778E+00 0.  0.
        -13    1    4    4    0    0 -0.27039742549E+02  0.22686984645E+02  0.17786968891E+02  0.39525108940E+02  0.10500000000E+00 0.  1.
         13    1    4    4    0    0 -0.12047200288E+02  0.10176512333E+02  0.79982634371E+01  0.17682750947E+02  0.10500000000E+00 0. -1.
    3000001    1    5    5    0    0  0.31869658230E+02 -0.33766348711E+02 -0.20249765476E+02  0.50664528250E+02  0.10000000000E+01 0. -1.
        -13    1    6    6    0    0  0.58493847972E+01 -0.23418179902E+01 -0.37290303597E+01  0.73223019897E+01  0.10500000000E+00 0. -1.
         13    1    6    6    0    0  0.36631109392E+01 -0.13983067565E+01 -0.22324941824E+01  0.45131694864E+01  0.10500000000E+00 0.  1.
</event>
<event>
11    0  0.3467594E-009  0.9118800E+02  0.7816531E-02  0.1126479E+00
         25   -1    0    0    0    0  0.00000000000E+00  0.00000000000E+00  0.99999998245E-14  0.12500000000E+03  0.12500000000E+03 0.  0.
    3000001    1    3    3    0    0  0.20413298475E+02  0.26997071224E+01 -0.14602412445E+02  0.25263048557E+02  0.10000000000E+01 0. -1.
    1000022    2    1    0    0    0  0.42066800714E+02  0.97548971854E+01 -0.44062185341E+02  0.62500000389E+02  0.10000006510E+02 0.  0.
    3000022    2    3    3    0    0  0.21653502239E+02  0.70551900630E+01 -0.29459772896E+02  0.37236951832E+02  0.24999326263E+00 0.  0.
    1000022    2    1    0    0    0 -0.42066800714E+02 -0.97548971854E+01  0.44062185341E+02  0.62499999611E+02  0.10000001644E+02 0.  0.
    3000022    2    5    5    0    0 -0.33726068348E+02 -0.44629220319E+01  0.37315188978E+02  0.50496051204E+02  0.24999889810E+00 0.  0.
        -13    1    4    4    0    0  0.78280877353E+01  0.25901262113E+01 -0.10593494612E+02  0.13424636475E+02  0.10500000000E+00 0.  1.
         13    1    4    4    0    0  0.13825414504E+02  0.44650638516E+01 -0.18866278283E+02  0.23812315357E+02  0.10500000000E+00 0. -1.
    3000001    1    5    5    0    0 -0.83407323660E+01 -0.52919751534E+01  0.67469963626E+01  0.12003948406E+02  0.10000000000E+01 0.  1.
        -13    1    6    6    0    0 -0.13859909916E+02 -0.17706237799E+01  0.15343893370E+02  0.20752790178E+02  0.10500000000E+00 0.  1.
         13    1    6    6    0    0 -0.19866158432E+02 -0.26922982521E+01  0.21971295609E+02  0.29743261026E+02  0.10500000000E+00 0. -1.
</event>
<event>
11    0  0.3467594E-009  0.9118800E+02  0.7816531E-02  0.1126479E+00
         25   -1    0    0    0    0  0.00000000000E+00  0.00000000000E+00  0.99999998245E-14  0.12500000000E+03  0.12500000000E+03 0.  0.
    3000001    1    3    3    0    0 -0.51170346977E+02 -0.15694216587E+02 -0.21086592286E+02  0.57535703857E+02  0.10000000000E+01 0. -1.
    1000022    2    1    0    0    0 -0.55182300912E+02 -0.14256576544E+02 -0.23620210930E+02  0.62500006976E+02  0.10000009947E+02 0.  0.
    3000022    2    3    3    0    0 -0.40119539344E+01  0.14376400438E+01 -0.25336186447E+01  0.49643031191E+01  0.24999750984E+00 0.  0.
    1000022    2    1    0    0    0  0.55182300912E+02  0.14256576544E+02  0.23620210930E+02  0.62499993024E+02  0.99999227494E+01 0.  0.
    3000022    2    5    5    0    0  0.11599061471E+02 -0.92829815656E+00  0.36073759719E+01  0.12185057440E+02  0.24999786233E+00 0.  0.
        -13    1    4    4    0    0 -0.23855662536E+01  0.91978605171E+00 -0.15367769781E+01  0.29849022114E+01  0.10500000000E+00 0.  1.
         13    1    4    4    0    0 -0.16263876808E+01  0.51785399208E+00 -0.99684166657E+00  0.19794009077E+01  0.10500000000E+00 0. -1.
    3000001    1    5    5    0    0  0.43583239440E+02  0.15184874700E+02  0.20012834958E+02  0.50314935584E+02  0.10000000000E+01 0.  1.
        -13    1    6    6    0    0  0.32613268362E+01 -0.29809664499E+00  0.99906367583E+00  0.34255317208E+01  0.10500000000E+00 0. -1.
         13    1    6    6    0    0  0.83377346353E+01 -0.63020151157E+00  0.26083122960E+01  0.87595257193E+01  0.10500000000E+00 0.  1.
</event>
<event>
11    0  0.3467594E-009  0.9118800E+02  0.7816531E-02  0.1126479E+00
         25   -1    0    0    0    0  0.00000000000E+00  0.00000000000E+00  0.99999998245E-14  0.12500000000E+03  0.12500000000E+03 0.  0.
    3000001    1    3    3    0    0 -0.54927297393E+01 -0.76752144019E+01  0.19827176512E+02  0.21981717961E+02  0.10000000000E+01 0. -1.
    1000022    2    1    0    0    0 -0.38526646843E+01 -0.16223377456E+02  0.59398729195E+02  0.62500000087E+02  0.99999989829E+01 0.  0.
    3000022    2    3    3    0    0  0.16400650550E+01 -0.85481630541E+01  0.39571552683E+02  0.40518282126E+02  0.24999934850E+00 0.  0.
    1000022    2    1    0    0    0  0.38526646843E+01  0.16223377456E+02 -0.59398729195E+02  0.62499999913E+02  0.99999978993E+01 0.  0.
    3000022    2    5    5    0    0 -0.19406140401E+00  0.15129458173E+02 -0.45980010480E+02  0.48406218896E+02  0.24999918065E+00 0.  0.
        -13    1    4    4    0    0  0.11102505249E+01 -0.57385682073E+01  0.26326659879E+02  0.26967904381E+02  0.10500000000E+00 0.  1.
         13    1    4    4    0    0  0.52981453013E+00 -0.28095948468E+01  0.13244892804E+02  0.13550377745E+02  0.10500000000E+00 0. -1.
    3000001    1    5    5    0    0  0.40467260883E+01  0.10939192825E+01 -0.13418718715E+02  0.14093781018E+02  0.10000000000E+01 0.  1.
        -13    1    6    6    0    0 -0.13404192903E+00  0.99627101559E+01 -0.30101033781E+02  0.31707362246E+02  0.10500000000E+00 0.  1.
         13    1    6    6    0    0 -0.60019474977E-01  0.51667480176E+01 -0.15878976698E+02  0.16698856649E+02  0.10500000000E+00 0. -1.
</event>
<event>
11    0  0.3467594E-009  0.9118800E+02  0.7816531E-02  0.1126479E+00
         25   -1    0    0    0    0  0.00000000000E+00  0.00000000000E+00  0.99999998245E-14  0.12500000000E+03  0.12500000000E+03 0.  0.
    3000001    1    3    3    0    0  0.37471137928E+01  0.11231451930E+02 -0.13894021707E+02  0.18281964157E+02  0.10000000000E+01 0.  1.
    1000022    2    1    0    0    0  0.11540552167E+02  0.48603990125E+02 -0.36203833599E+02  0.62499997810E+02  0.99999979322E+01 0.  0.
    3000022    2    3    3    0    0  0.77934383740E+01  0.37372538194E+02 -0.22309811892E+02  0.44218033653E+02  0.25000145933E+00 0.  0.
    1000022    2    1    0    0    0 -0.11540552167E+02 -0.48603990125E+02  0.36203833599E+02  0.62500002190E+02  0.10000025306E+02 0.  0.
    3000022    2    5    5    0    0 -0.11754345483E+02 -0.47180931073E+02  0.32742302380E+02  0.58620182217E+02  0.25000665478E+00 0.  0.
        -13    1    4    4    0    0  0.32285970419E+01  0.15591681578E+02 -0.93751180075E+01  0.18477776813E+02  0.10500000000E+00 0. -1.
         13    1    4    4    0    0  0.45648413321E+01  0.21780856617E+02 -0.12934693885E+02  0.25740256841E+02  0.10500000000E+00 0.  1.
    3000001    1    5    5    0    0  0.21379331576E+00 -0.14230590516E+01  0.34615312182E+01  0.38798199728E+01  0.10000000000E+01 0. -1.
        -13    1    6    6    0    0 -0.49614240403E+01 -0.19785708369E+02  0.13667609044E+02  0.24554114648E+02  0.10500000000E+00 0.  1.
         13    1    6    6    0    0 -0.67929214423E+01 -0.27395222704E+02  0.19074693337E+02  0.34066067569E+02  0.10500000000E+00 0. -1.
</event>
<event>
11    0  0.3467594E-009  0.9118800E+02  0.7816531E-02  0.1126479E+00
         25   -1    0    0    0    0  0.00000000000E+00  0.00000000000E+00  0.99999998245E-14  0.12500000000E+03  0.12500000000E+03 0.  0.
    3000001    1    3    3    0    0  0.39172564277E+01 -0.84397872379E-01  0.36433054908E+00  0.40601425677E+01  0.10000000000E+01 0.  1.
    1000022    2    1    0    0    0  0.51386584214E+02 -0.34056605793E+02 -0.24117414542E+01  0.62500000948E+02  0.10000009318E+02 0.  0.
    3000022    2    3    3    0    0  0.47469327786E+02 -0.33972207921E+02 -0.27760720033E+01  0.58439858380E+02  0.24996056168E+00 0.  0.
    1000022    2    1    0    0    0 -0.51386584214E+02  0.34056605793E+02  0.24117414542E+01  0.62499999052E+02  0.99999974678E+01 0.  0.
    3000022    2    5    5    0    0 -0.18926874601E+02  0.12307570629E+02 -0.38881583915E+01  0.22910328471E+02  0.24999596605E+00 0.  0.
        -13    1    4    4    0    0  0.23567006848E+02 -0.16884254145E+02 -0.13125008616E+01  0.29020949903E+02  0.10500000000E+00 0. -1.
         13    1    4    4    0    0  0.23902320938E+02 -0.17087953776E+02 -0.14635711417E+01  0.29418908477E+02  0.10500000000E+00 0.  1.
    3000001    1    5    5    0    0 -0.32459709612E+02  0.21749035164E+02  0.62998998457E+01  0.39589670581E+02  0.10000000000E+01 0.  1.
        -13    1    6    6    0    0 -0.65743497480E+01  0.42085839433E+01 -0.13425974860E+01  0.79213538254E+01  0.10500000000E+00 0.  1.
         13    1    6    6    0    0 -0.12352524853E+02  0.80989866862E+01 -0.25455609055E+01  0.14988974645E+02  0.10500000000E+00 0. -1.
</event>
<event>
11    0  0.3467594E-009  0.9118800E+02  0.7816531E-02  0.1126479E+00
         25   -1    0    0    0    0  0.00000000000E+00  0.00000000000E+00  0.99999998245E-14  0.12500000000E+03  0.12500000000E+03 0.  0.
    3000001    1    3    3    0    0 -0.92564382208E+00  0.64203018531E+01  0.58528737872E+01  0.87939310857E+01  0.10000000000E+01 0. -1.
    1000022    2    1    0    0    0  0.15922159298E+02  0.48657242693E+02  0.34426843042E+02  0.62500000180E+02  0.10000003872E+02 0.  0.
    3000022    2    3    3    0    0  0.16847803120E+02  0.42236940840E+02  0.28573969255E+02  0.53706069095E+02  0.24999417841E+00 0.  0.
    1000022    2    1    0    0    0 -0.15922159298E+02 -0.48657242693E+02 -0.34426843042E+02  0.62499999820E+02  0.10000001617E+02 0.  0.
    3000022    2    5    5    0    0 -0.17022511193E+02 -0.45553684254E+02 -0.33022767808E+02  0.58783243634E+02  0.25000400939E+00 0.  0.
        -13    1    4    4    0    0  0.57175658272E+01  0.14292131699E+02  0.96111364120E+01  0.18147742439E+02  0.10500000000E+00 0.  1.
         13    1    4    4    0    0  0.11130237293E+02  0.27944809141E+02  0.18962832843E+02  0.35558326656E+02  0.10500000000E+00 0. -1.
    3000001    1    5    5    0    0  0.11003518946E+01 -0.31035584396E+01 -0.14040752339E+01  0.37167561855E+01  0.10000000000E+01 0.  1.
        -13    1    6    6    0    0 -0.70161400783E+01 -0.18886408349E+02 -0.13743511989E+02  0.24388886582E+02  0.10500000000E+00 0.  1.
         13    1    6    6    0    0 -0.10006371115E+02 -0.26667275905E+02 -0.19279255820E+02  0.34394357053E+02  0.10500000000E+00 0. -1.
</event>
<event>
11    0  0.3467594E-009  0.9118800E+02  0.7816531E-02  0.1126479E+00
         25   -1    0    0    0    0  0.00000000000E+00  0.00000000000E+00  0.99999998245E-14  0.12500000000E+03  0.12500000000E+03 0.  0.
    3000001    1    3    3    0    0 -0.72049208493E+01  0.15768727043E+02 -0.23305384454E+02  0.29063801912E+02  0.10000000000E+01 0. -1.
    1000022    2    1    0    0    0 -0.93797695240E+01  0.40998934463E+02 -0.45137093151E+02  0.62500000049E+02  0.10000006231E+02 0.  0.
    3000022    2    3    3    0    0 -0.21748486746E+01  0.25230207420E+02 -0.21831708697E+02  0.33436198138E+02  0.25001611965E+00 0.  0.
    1000022    2    1    0    0    0  0.93797695240E+01 -0.40998934463E+02  0.45137093151E+02  0.62499999951E+02  0.10000005615E+02 0.  0.
    3000022    2    5    5    0    0  0.20490934252E+01 -0.19208614750E+02  0.26998762723E+02  0.33198875809E+02  0.25000386097E+00 0.  0.
        -13    1    4    4    0    0 -0.14991607925E+01  0.17134958859E+02 -0.14888770426E+02  0.22749523247E+02  0.10500000000E+00 0.  1.
         13    1    4    4    0    0 -0.67568788211E+00  0.80952485613E+01 -0.69429382708E+01  0.10686674891E+02  0.10500000000E+00 0. -1.
    3000001    1    5    5    0    0  0.73306760988E+01 -0.21790319713E+02  0.18138330428E+02  0.29301124142E+02  0.10000000000E+01 0. -1.
        -13    1    6    6    0    0  0.11619189496E+01 -0.11354898802E+02  0.16022517017E+02  0.19672718649E+02  0.10500000000E+00 0.  1.
         13    1    6    6    0    0  0.88717447558E+00 -0.78537159478E+01  0.10976245705E+02  0.13526157160E+02  0.10500000000E+00 0. -1.
</event>
<event>
11    0  0.3467594E-009  0.9118800E+02  0.7816531E-02  0.1126479E+00
         25   -1    0    0    0    0  0.00000000000E+00  0.00000000000E+00  0.99999998245E-14  0.12500000000E+03  0.12500000000E+03 0.  0.
    3000001    1    3    3    0    0  0.10991046752E+02  0.89533809205E+01 -0.85455731049E+00  0.14237148830E+02  0.10000000000E+01 0. -1.
    1000022    2    1    0    0    0  0.53393531622E+02  0.26718662520E+02 -0.15540073282E+02  0.62500000485E+02  0.10000001858E+02 0.  0.
    3000022    2    3    3    0    0  0.42402484870E+02  0.17765281599E+02 -0.14685515972E+02  0.48262851656E+02  0.25003421411E+00 0.  0.
    1000022    2    1    0    0    0 -0.53393531622E+02 -0.26718662520E+02  0.15540073282E+02  0.62499999515E+02  0.99999957895E+01 0.  0.
    3000022    2    5    5    0    0 -0.48306062262E+02 -0.23191192327E+02  0.10858593965E+02  0.54674295773E+02  0.25000524480E+00 0.  0.
        -13    1    4    4    0    0  0.22735751813E+02  0.94932027602E+01 -0.78069267498E+01  0.25845588393E+02  0.10500000000E+00 0. -1.
         13    1    4    4    0    0  0.19666733058E+02  0.82720788389E+01 -0.68785892218E+01  0.22417263262E+02  0.10500000000E+00 0.  1.
    3000001    1    5    5    0    0 -0.50874693604E+01 -0.35274701927E+01  0.46814793167E+01  0.78257037413E+01  0.10000000000E+01 0.  1.
        -13    1    6    6    0    0 -0.34047371437E+02 -0.16394889946E+02  0.76602684642E+01  0.38557835210E+02  0.10500000000E+00 0. -1.
         13    1    6    6    0    0 -0.14258690825E+02 -0.67963023805E+01  0.31983255012E+01  0.16116460564E+02  0.10500000000E+00 0.  1.
</event>
<event>
11    0  0.3467594E-009  0.9118800E+02  0.7816531E-02  0.1126479E+00
         25   -1    0    0    0    0  0.00000000000E+00  0.00000000000E+00  0.99999998245E-14  0.12500000000E+03  0.12500000000E+03 0.  0.
    3000001    1    3    3    0    0  0.20105018159E+02  0.24210730976E+02  0.38888112647E+02  0.50036552188E+02  0.10000000000E+01 0.  1.
    1000022    2    1    0    0    0  0.27344514929E+02  0.25832936046E+02  0.48899764630E+02  0.62500000386E+02  0.99999992945E+01 0.  0.
    3000022    2    3    3    0    0  0.72394967703E+01  0.16222050699E+01  0.10011651983E+02  0.12463448198E+02  0.25000557584E+00 0.  0.
    1000022    2    1    0    0    0 -0.27344514929E+02 -0.25832936046E+02 -0.48899764630E+02  0.62499999614E+02  0.99999944677E+01 0.  0.
    3000022    2    5    5    0    0 -0.26665773907E+01 -0.80317541274E+01 -0.11303071969E+02  0.14122381050E+02  0.25000247006E+00 0.  0.
        -13    1    4    4    0    0  0.24325791362E+01  0.57611521478E+00  0.34506018106E+01  0.42622796541E+01  0.10500000000E+00 0. -1.
         13    1    4    4    0    0  0.48069176340E+01  0.10460898551E+01  0.65610501725E+01  0.82011685442E+01  0.10500000000E+00 0.  1.
    3000001    1    5    5    0    0 -0.24677937539E+02 -0.17801181919E+02 -0.37596692661E+02  0.48377618564E+02  0.10000000000E+01 0.  1.
        -13    1    6    6    0    0 -0.10950311671E+01 -0.33215444975E+01 -0.45655018187E+01  0.57520937894E+01  0.10500000000E+00 0.  1.
         13    1    6    6    0    0 -0.15715462235E+01 -0.47102096299E+01 -0.67375701507E+01  0.83702872607E+01  0.10500000000E+00 0. -1.
</event>
<event>
11    0  0.3467594E-009  0.9118800E+02  0.7816531E-02  0.1126479E+00
         25   -1    0    0    0    0  0.00000000000E+00  0.00000000000E+00  0.99999998245E-14  0.12500000000E+03  0.12500000000E+03 0.  0.
    3000001    1    3    3    0    0 -0.47391018159E+01  0.65187275729E+01  0.28770286211E+00  0.81262333297E+01  0.10000000000E+01 0. -1.
    1000022    2    1    0    0    0 -0.51298157224E+02  0.32380734268E+02  0.11235527084E+02  0.62499999071E+02  0.99999964348E+01 0.  0.
    3000022    2    3    3    0    0 -0.46559055408E+02  0.25862006695E+02  0.10947824222E+02  0.54373765741E+02  0.25002979630E+00 0.  0.
    1000022    2    1    0    0    0  0.51298157224E+02 -0.32380734268E+02 -0.11235527084E+02  0.62500000929E+02  0.10000008046E+02 0.  0.
    3000022    2    5    5    0    0  0.98872440883E+01 -0.68264169242E+01 -0.63287160279E+01  0.13582073168E+02  0.25000260398E+00 0.  0.
        -13    1    4    4    0    0 -0.29428956561E+02  0.16297016372E+02  0.68737089150E+01  0.34335333494E+02  0.10500000000E+00 0.  1.
         13    1    4    4    0    0 -0.17130098847E+02  0.95649903229E+01  0.40741153071E+01  0.20038432247E+02  0.10500000000E+00 0. -1.
    3000001    1    5    5    0    0  0.41410913136E+02 -0.25554317344E+02 -0.49068110564E+01  0.48917927761E+02  0.10000000000E+01 0. -1.
        -13    1    6    6    0    0  0.33067207187E+01 -0.22893219742E+01 -0.20584056524E+01  0.45192317758E+01  0.10500000000E+00 0. -1.
         13    1    6    6    0    0  0.65805233696E+01 -0.45370949500E+01 -0.42703103754E+01  0.90628413925E+01  0.10500000000E+00 0.  1.
</event>
<event>
11    0  0.3467594E-009  0.9118800E+02  0.7816531E-02  0.1126479E+00
         25   -1    0    0    0    0  0.00000000000E+00  0.00000000000E+00  0.99999998245E-14  0.12500000000E+03  0.12500000000E+03 0.  0.
    3000001    1    3    3    0    0 -0.12741311407E+01 -0.99472982804E+00  0.40293760707E+01  0.44551957435E+01  0.10000000000E+01 0.  1.
    1000022    2    1    0    0    0 -0.42148184232E+02 -0.25913582871E+02  0.36854664568E+02  0.62500001814E+02  0.10000035758E+02 0.  0.
    3000022    2    3    3    0    0 -0.40874053091E+02 -0.24918853043E+02  0.32825288497E+02  0.58044806071E+02  0.24998764029E+00 0.  0.
    1000022    2    1    0    0    0  0.42148184232E+02  0.25913582871E+02 -0.36854664568E+02  0.62499998186E+02  0.10000013078E+02 0.  0.
    3000022    2    5    5    0    0  0.25289972691E+01  0.89586057444E+00 -0.54610722102E+01  0.60896795764E+01  0.24998860410E+00 0.  0.
        -13    1    4    4    0    0 -0.26628991669E+02 -0.16292228786E+02  0.21438154911E+02  0.37870112584E+02  0.10500000000E+00 0. -1.
         13    1    4    4    0    0 -0.14245061422E+02 -0.86266242566E+01  0.11387133586E+02  0.20174693487E+02  0.10500000000E+00 0.  1.
    3000001    1    5    5    0    0  0.39619186962E+02  0.25017722296E+02 -0.31393592358E+02  0.56410318609E+02  0.10000000000E+01 0.  1.
        -13    1    6    6    0    0  0.10403258547E+01  0.43542680125E+00 -0.23293475540E+01  0.25901272962E+01  0.10500000000E+00 0. -1.
         13    1    6    6    0    0  0.14886714144E+01  0.46043377319E+00 -0.31317246562E+01  0.34995522802E+01  0.10500000000E+00 0.  1.
</event>
<event>
11    0  0.3467594E-009  0.9118800E+02  0.7816531E-02  0.1126479E+00
         25   -1    0    0    0    0  0.00000000000E+00  0.00000000000E+00  0.99999998245E-14  0.12500000000E+03  0.12500000000E+03 0.  0.
    3000001    1    3    3    0    0 -0.11404588889E+02 -0.91130996804E+01  0.47430494124E+02  0.49636327486E+02  0.10000000000E+01 0.  1.
    1000022    2    1    0    0    0 -0.18744951290E+02 -0.96761319955E+01  0.57976282376E+02  0.62500000119E+02  0.99999983737E+01 0.  0.
    3000022    2    3    3    0    0 -0.73403624011E+01 -0.56303231510E+00  0.10545788252E+02  0.12863672633E+02  0.24999634491E+00 0.  0.
    1000022    2    1    0    0    0  0.18744951290E+02  0.96761319955E+01 -0.57976282376E+02  0.62499999881E+02  0.99999968842E+01 0.  0.
    3000022    2    5    5    0    0  0.61540270329E+01  0.77312627692E+01 -0.32934334004E+02  0.34385714042E+02  0.25000230505E+00 0.  0.
        -13    1    4    4    0    0 -0.31119312595E+01 -0.19698514186E+00  0.45546221658E+01  0.55207361269E+01  0.10500000000E+00 0.  1.
         13    1    4    4    0    0 -0.42284311416E+01 -0.36604717324E+00  0.59911660866E+01  0.73429365059E+01  0.10500000000E+00 0. -1.
    3000001    1    5    5    0    0  0.12590924258E+02  0.19448692263E+01 -0.25041948372E+02  0.28114285839E+02  0.10000000000E+01 0.  1.
        -13    1    6    6    0    0  0.35008082428E+01  0.43974654081E+01 -0.18503996559E+02  0.19339138399E+02  0.10500000000E+00 0. -1.
         13    1    6    6    0    0  0.26532187901E+01  0.33337973611E+01 -0.14430337445E+02  0.15046575643E+02  0.10500000000E+00 0.  1.
</event>
<event>
11    0  0.3467594E-009  0.9118800E+02  0.7816531E-02  0.1126479E+00
         25   -1    0    0    0    0  0.00000000000E+00  0.00000000000E+00  0.99999998245E-14  0.12500000000E+03  0.12500000000E+03 0.  0.
    3000001    1    3    3    0    0  0.27037309370E+02 -0.37150247280E+02  0.33148684365E+02  0.56665617848E+02  0.10000000000E+01 0.  1.
    1000022    2    1    0    0    0  0.30663322140E+02 -0.41693721197E+02  0.33580416282E+02  0.62500000179E+02  0.99999976422E+01 0.  0.
    3000022    2    3    3    0    0  0.36260127705E+01 -0.45434739163E+01  0.43173191739E+00  0.58343823317E+01  0.25000180857E+00 0.  0.
    1000022    2    1    0    0    0 -0.30663322140E+02  0.41693721197E+02 -0.33580416282E+02  0.62499999821E+02  0.99999953988E+01 0.  0.
    3000022    2    5    5    0    0 -0.22493355640E+02  0.36817424584E+02 -0.27480507237E+02  0.51153832555E+02  0.25001209900E+00 0.  0.
        -13    1    4    4    0    0  0.25753250920E+01 -0.32909070287E+01  0.31470701754E+00  0.41919487006E+01  0.10500000000E+00 0. -1.
         13    1    4    4    0    0  0.10506876785E+01 -0.12525668876E+01  0.11702489985E+00  0.16424336312E+01  0.10500000000E+00 0.  1.
    3000001    1    5    5    0    0 -0.81699665001E+01  0.48762966122E+01 -0.60999090454E+01  0.11346167266E+02  0.10000000000E+01 0.  1.
        -13    1    6    6    0    0 -0.14547739831E+02  0.23810599674E+02 -0.17840000663E+02  0.33118847197E+02  0.10500000000E+00 0. -1.
         13    1    6    6    0    0 -0.79456158091E+01  0.13006824911E+02 -0.96405065740E+01  0.18034985358E+02  0.10500000000E+00 0.  1.
</event>
<event>
11    0  0.3467594E-009  0.9118800E+02  0.7816531E-02  0.1126479E+00
         25   -1    0    0    0    0  0.00000000000E+00  0.00000000000E+00  0.99999998245E-14  0.12500000000E+03  0.12500000000E+03 0.  0.
    3000001    1    3    3    0    0  0.14917037677E+02  0.12300839118E+02  0.81370917804E+00  0.19377584439E+02  0.10000000000E+01 0. -1.
    1000022    2    1    0    0    0  0.47271360081E+02  0.35918546410E+02  0.16778736529E+02  0.62500001785E+02  0.10000038174E+02 0.  0.
    3000022    2    3    3    0    0  0.32354322404E+02  0.23617707292E+02  0.15965027351E+02  0.43122417346E+02  0.25000697013E+00 0.  0.
    1000022    2    1    0    0    0 -0.47271360081E+02 -0.35918546410E+02 -0.16778736529E+02  0.62499998215E+02  0.10000015859E+02 0.  0.
    3000022    2    5    5    0    0 -0.27255560952E+02 -0.26650961962E+02 -0.11009922589E+02  0.39678965141E+02  0.25000585185E+00 0.  0.
        -13    1    4    4    0    0  0.83284992586E+01  0.61007070947E+01  0.40875177920E+01  0.11104114267E+02  0.10500000000E+00 0.  1.
         13    1    4    4    0    0  0.24025823145E+02  0.17517000198E+02  0.11877509559E+02  0.32018303079E+02  0.10500000000E+00 0. -1.
    3000001    1    5    5    0    0 -0.20015799129E+02 -0.92675844483E+01 -0.57688139408E+01  0.22821033074E+02  0.10000000000E+01 0.  1.
        -13    1    6    6    0    0 -0.20323318335E+02 -0.19890284882E+02 -0.81864262557E+01  0.29592047930E+02  0.10500000000E+00 0. -1.
         13    1    6    6    0    0 -0.69322426171E+01 -0.67606770797E+01 -0.28234963329E+01  0.10086917211E+02  0.10500000000E+00 0.  1.
</event>
<event>
11    0  0.3467594E-009  0.9118800E+02  0.7816531E-02  0.1126479E+00
         25   -1    0    0    0    0  0.00000000000E+00  0.00000000000E+00  0.99999998245E-14  0.12500000000E+03  0.12500000000E+03 0.  0.
    3000001    1    3    3    0    0  0.81820675598E+00  0.73003594711E+01  0.31506474129E+02  0.32366998977E+02  0.10000000000E+01 0. -1.
    1000022    2    1    0    0    0  0.10524283724E+02  0.16496002904E+02  0.58509579018E+02  0.62500003510E+02  0.10000047107E+02 0.  0.
    3000022    2    3    3    0    0  0.97060769675E+01  0.91956434331E+01  0.27003104889E+02  0.30133004534E+02  0.25000061543E+00 0.  0.
    1000022    2    1    0    0    0 -0.10524283724E+02 -0.16496002904E+02 -0.58509579018E+02  0.62499996490E+02  0.10000003230E+02 0.  0.
    3000022    2    5    5    0    0 -0.90043057106E+01 -0.10053016198E+02 -0.49297330603E+02  0.51111935561E+02  0.24999230227E+00 0.  0.
        -13    1    4    4    0    0  0.51930871531E+01  0.50009963110E+01  0.14486879793E+02  0.16182052695E+02  0.10500000000E+00 0. -1.
         13    1    4    4    0    0  0.45129898144E+01  0.41946471221E+01  0.12516225096E+02  0.13950951839E+02  0.10500000000E+00 0.  1.
    3000001    1    5    5    0    0 -0.15199780129E+01 -0.64429867067E+01 -0.92122484150E+01  0.11388060929E+02  0.10000000000E+01 0. -1.
        -13    1    6    6    0    0 -0.35229840826E+01 -0.39125891916E+01 -0.19004480468E+02  0.19720574888E+02  0.10500000000E+00 0. -1.
         13    1    6    6    0    0 -0.54813216280E+01 -0.61404270059E+01 -0.30292850135E+02  0.31391360673E+02  0.10500000000E+00 0.  1.
</event>
<event>
11    0  0.3467594E-009  0.9118800E+02  0.7816531E-02  0.1126479E+00
         25   -1    0    0    0    0  0.00000000000E+00  0.00000000000E+00  0.99999998245E-14  0.12500000000E+03  0.12500000000E+03 0.  0.
    3000001    1    3    3    0    0  0.26389361369E+02  0.12190991313E+02 -0.17502433449E+02  0.33946337642E+02  0.10000000000E+01 0.  1.
    1000022    2    1    0    0    0  0.50102517521E+02  0.26577418975E+02 -0.24282266634E+02  0.62500001459E+02  0.10000012410E+02 0.  0.
    3000022    2    3    3    0    0  0.23713156152E+02  0.14386427663E+02 -0.67798331845E+01  0.28553663817E+02  0.25000760670E+00 0.  0.
    1000022    2    1    0    0    0 -0.50102517521E+02 -0.26577418975E+02  0.24282266634E+02  0.62499998541E+02  0.99999941730E+01 0.  0.
    3000022    2    5    5    0    0 -0.33256104978E+02 -0.16351418593E+02  0.10798805146E+02  0.38600700788E+02  0.25000092055E+00 0.  0.
        -13    1    4    4    0    0  0.64895675337E+01  0.39805072817E+01 -0.18540197851E+01  0.78362835170E+01  0.10500000000E+00 0.  1.
         13    1    4    4    0    0  0.17223588618E+02  0.10405920381E+02 -0.49258133994E+01  0.20717380300E+02  0.10500000000E+00 0. -1.
    3000001    1    5    5    0    0 -0.16846412543E+02 -0.10226000383E+02  0.13483461488E+02  0.23899297753E+02  0.10000000000E+01 0. -1.
        -13    1    6    6    0    0 -0.76931348463E+01 -0.37752040456E+01  0.24905115285E+01  0.89246939456E+01  0.10500000000E+00 0.  1.
         13    1    6    6    0    0 -0.25562970132E+02 -0.12576214547E+02  0.83082936173E+01  0.29676006843E+02  0.10500000000E+00 0. -1.
</event>
<event>
11    0  0.3467594E-009  0.9118800E+02  0.7816531E-02  0.1126479E+00
         25   -1    0    0    0    0  0.00000000000E+00  0.00000000000E+00  0.99999998245E-14  0.12500000000E+03  0.12500000000E+03 0.  0.
    3000001    1    3    3    0    0 -0.41967892781E+01  0.91592283055E+01  0.27900425151E+02  0.29680603548E+02  0.10000000000E+01 0.  1.
    1000022    2    1    0    0    0 -0.46920925485E+01  0.27962709674E+02  0.54793438816E+02  0.62500002111E+02  0.10000023089E+02 0.  0.
    3000022    2    3    3    0    0 -0.49530327040E+00  0.18803481368E+02  0.26893013665E+02  0.32819398562E+02  0.25000221463E+00 0.  0.
    1000022    2    1    0    0    0  0.46920925485E+01 -0.27962709674E+02 -0.54793438816E+02  0.62499997889E+02  0.99999967031E+01 0.  0.
    3000022    2    5    5    0    0  0.17902730691E+01 -0.26258625144E+02 -0.50555491867E+02  0.56996848362E+02  0.24998631158E+00 0.  0.
        -13    1    4    4    0    0 -0.26448530795E+00  0.90906042852E+01  0.12892787434E+02  0.15777960311E+02  0.10500000000E+00 0.  1.
         13    1    4    4    0    0 -0.23081796246E+00  0.97128770828E+01  0.14000226231E+02  0.17041438252E+02  0.10500000000E+00 0. -1.
    3000001    1    5    5    0    0  0.29018194794E+01 -0.17040845295E+01 -0.42379469493E+01  0.55031495273E+01  0.10000000000E+01 0. -1.
        -13    1    6    6    0    0  0.10026055167E+01 -0.14388696573E+02 -0.27841807906E+02  0.31356292819E+02  0.10500000000E+00 0.  1.
         13    1    6    6    0    0  0.78766755246E+00 -0.11869928571E+02 -0.22713683961E+02  0.25640555543E+02  0.10500000000E+00 0. -1.
</event>
<event>
11    0  0.3467594E-009  0.9118800E+02  0.7816531E-02  0.1126479E+00
         25   -1    0    0    0    0  0.00000000000E+00  0.00000000000E+00  0.99999998245E-14  0.12500000000E+03  0.12500000000E+03 0.  0.
    3000001    1    3    3    0    0 -0.16679812500E+02 -0.19230442848E+02  0.13321615244E+02  0.28748765363E+02  0.10000000000E+01 0.  1.
    1000022    2    1    0    0    0 -0.41503251573E+02 -0.32869708782E+02  0.31675106897E+02  0.62500000279E+02  0.99999995662E+01 0.  0.
    3000022    2    3    3    0    0 -0.24823439073E+02 -0.13639265933E+02  0.18353491653E+02  0.33751234916E+02  0.24999970503E+00 0.  0.
    1000022    2    1    0    0    0  0.41503251573E+02  0.32869708782E+02 -0.31675106897E+02  0.62499999721E+02  0.99999960839E+01 0.  0.
    3000022    2    5    5    0    0  0.18108946986E+02  0.82724328498E+01 -0.11194267768E+02  0.22841655810E+02  0.25000613014E+00 0.  0.
        -13    1    4    4    0    0 -0.17939331885E+02 -0.98186840215E+01  0.13275394166E+02  0.24381823141E+02  0.10500000000E+00 0. -1.
         13    1    4    4    0    0 -0.68841071881E+01 -0.38205819120E+01  0.50780974871E+01  0.93694117751E+01  0.10500000000E+00 0.  1.
    3000001    1    5    5    0    0  0.23394304587E+02  0.24597275932E+02 -0.20480839129E+02  0.39658343912E+02  0.10000000000E+01 0. -1.
        -13    1    6    6    0    0  0.83851628027E+01  0.38965447586E+01 -0.52334813498E+01  0.10625176155E+02  0.10500000000E+00 0. -1.
         13    1    6    6    0    0  0.97237841833E+01  0.43758880911E+01 -0.59607864185E+01  0.12216479655E+02  0.10500000000E+00 0.  1.
</event>
<event>
11    0  0.3467594E-009  0.9118800E+02  0.7816531E-02  0.1126479E+00
         25   -1    0    0    0    0  0.00000000000E+00  0.00000000000E+00  0.99999998245E-14  0.12500000000E+03  0.12500000000E+03 0.  0.
    3000001    1    3    3    0    0  0.61101210272E+01 -0.13210743501E+02  0.37770191431E+01  0.15070607035E+02  0.10000000000E+01 0. -1.
    1000022    2    1    0    0    0  0.10736436244E+02 -0.60223190978E+02  0.80091704129E+01  0.62499992579E+02  0.99999233434E+01 0.  0.
    3000022    2    3    3    0    0  0.46263152170E+01 -0.47012447478E+02  0.42321512698E+01  0.47429385544E+02  0.24999675691E+00 0.  0.
    1000022    2    1    0    0    0 -0.10736436244E+02  0.60223190978E+02 -0.80091704129E+01  0.62500007421E+02  0.10000016102E+02 0.  0.
    3000022    2    5    5    0    0 -0.96773184808E+01  0.45107506036E+02 -0.99363882382E+01  0.47192498470E+02  0.25001381602E+00 0.  0.
        -13    1    4    4    0    0  0.14749955691E+01 -0.15260195881E+02  0.14180954215E+01  0.15397116934E+02  0.10500000000E+00 0. -1.
         13    1    4    4    0    0  0.31513196478E+01 -0.31752251596E+02  0.28140558482E+01  0.32032268610E+02  0.10500000000E+00 0.  1.
    3000001    1    5    5    0    0 -0.10591177634E+01  0.15115684942E+02  0.19272178253E+01  0.15307508950E+02  0.10000000000E+01 0. -1.
        -13    1    6    6    0    0 -0.57696112780E+01  0.26700918574E+02 -0.58329794543E+01  0.27933172775E+02  0.10500000000E+00 0.  1.
         13    1    6    6    0    0 -0.39077072028E+01  0.18406587462E+02 -0.41034087839E+01  0.19259325695E+02  0.10500000000E+00 0. -1.
</event>
<event>
11    0  0.3467594E-009  0.9118800E+02  0.7816531E-02  0.1126479E+00
         25   -1    0    0    0    0  0.00000000000E+00  0.00000000000E+00  0.99999998245E-14  0.12500000000E+03  0.12500000000E+03 0.  0.
    3000001    1    3    3    0    0  0.19181030068E+02 -0.14393634666E+02 -0.23411286761E+02  0.33528748578E+02  0.10000000000E+01 0.  1.
    1000022    2    1    0    0    0  0.41239425632E+02 -0.19789571728E+02 -0.41399670421E+02  0.62499999917E+02  0.99999951528E+01 0.  0.
    3000022    2    3    3    0    0  0.22058395564E+02 -0.53959370618E+01 -0.17988383660E+02  0.28971251339E+02  0.25001171441E+00 0.  0.
    1000022    2    1    0    0    0 -0.41239425632E+02  0.19789571728E+02  0.41399670421E+02  0.62500000083E+02  0.99999961868E+01 0.  0.
    3000022    2    5    5    0    0 -0.38231199550E+02  0.16765516154E+02  0.33742174589E+02  0.53677779348E+02  0.24999761468E+00 0.  0.
        -13    1    4    4    0    0  0.16274989725E+02 -0.39720037344E+01 -0.13229691921E+02  0.21346847017E+02  0.10500000000E+00 0. -1.
         13    1    4    4    0    0  0.57834058386E+01 -0.14239333274E+01 -0.47586917384E+01  0.76244043227E+01  0.10500000000E+00 0.  1.
    3000001    1    5    5    0    0 -0.30082260823E+01  0.30240555742E+01  0.76574958319E+01  0.88222207348E+01  0.10000000000E+01 0. -1.
        -13    1    6    6    0    0 -0.16180091604E+02  0.71453458421E+01  0.14356139414E+02  0.22780717622E+02  0.10500000000E+00 0.  1.
         13    1    6    6    0    0 -0.22051107946E+02  0.96201703115E+01  0.19386035175E+02  0.30897061726E+02  0.10500000000E+00 0. -1.
</event>
<event>
11    0  0.3467594E-009  0.9118800E+02  0.7816531E-02  0.1126479E+00
         25   -1    0    0    0    0  0.00000000000E+00  0.00000000000E+00  0.99999998245E-14  0.12500000000E+03  0.12500000000E+03 0.  0.
    3000001    1    3    3    0    0  0.34438020487E+02 -0.35846073505E+02  0.50409356220E+00  0.49720944793E+02  0.10000000000E+01 0. -1.
    1000022    2    1    0    0    0  0.42966174429E+02 -0.43927703296E+02  0.55240141468E+01  0.62500000031E+02  0.10000000483E+02 0.  0.
    3000022    2    3    3    0    0  0.85281539422E+01 -0.80816297907E+01  0.50199205846E+01  0.12779055238E+02  0.25000072498E+00 0.  0.
    1000022    2    1    0    0    0 -0.42966174429E+02  0.43927703296E+02 -0.55240141468E+01  0.62499999969E+02  0.10000000098E+02 0.  0.
    3000022    2    5    5    0    0 -0.25513022027E+02  0.29577932105E+02  0.60749198703E+00  0.39066608634E+02  0.25000621163E+00 0.  0.
        -13    1    4    4    0    0  0.46349659251E+01 -0.42997742218E+01  0.27018052608E+01  0.68761722020E+01  0.10500000000E+00 0.  1.
         13    1    4    4    0    0  0.38931880171E+01 -0.37818555689E+01  0.23181153239E+01  0.59028830359E+01  0.10500000000E+00 0. -1.
    3000001    1    5    5    0    0 -0.17453152402E+02  0.14349771191E+02 -0.61315061339E+01  0.23433391335E+02  0.10000000000E+01 0. -1.
        -13    1    6    6    0    0 -0.12207966582E+02  0.14099852538E+02  0.34805677366E+00  0.18654019893E+02  0.10500000000E+00 0.  1.
         13    1    6    6    0    0 -0.13305055445E+02  0.15478079568E+02  0.25943521337E+00  0.20412588741E+02  0.10500000000E+00 0. -1.
</event>
<event>
11    0  0.3467594E-009  0.9118800E+02  0.7816531E-02  0.1126479E+00
         25   -1    0    0    0    0  0.00000000000E+00  0.00000000000E+00  0.99999998245E-14  0.12500000000E+03  0.12500000000E+03 0.  0.
    3000001    1    3    3    0    0  0.21338146401E+02  0.35165094858E+02  0.81669317194E+01  0.41947576353E+02  0.10000000000E+01 0. -1.
    1000022    2    1    0    0    0  0.25350449560E+02  0.54598387417E+02  0.13513724779E+02  0.62500000353E+02  0.10000004260E+02 0.  0.
    3000022    2    3    3    0    0  0.40123031592E+01  0.19433292560E+02  0.53467930596E+01  0.20552424000E+02  0.24999978102E+00 0.  0.
    1000022    2    1    0    0    0 -0.25350449560E+02 -0.54598387417E+02 -0.13513724779E+02  0.62499999647E+02  0.99999998511E+01 0.  0.
    3000022    2    5    5    0    0 -0.11491994309E+02 -0.29338829308E+02 -0.23943111118E+01  0.31601077043E+02  0.25001237409E+00 0.  0.
        -13    1    4    4    0    0  0.12209620885E+01  0.61492171506E+01  0.17045164576E+01  0.64976935401E+01  0.10500000000E+00 0.  1.
         13    1    4    4    0    0  0.27913410707E+01  0.13284075409E+02  0.36422766020E+01  0.14054730460E+02  0.10500000000E+00 0. -1.
    3000001    1    5    5    0    0 -0.13858455251E+02 -0.25259558109E+02 -0.11119413667E+02  0.30898922604E+02  0.10000000000E+01 0.  1.
        -13    1    6    6    0    0 -0.72281704300E+01 -0.18304136287E+02 -0.15213259041E+01  0.19738624838E+02  0.10500000000E+00 0. -1.
         13    1    6    6    0    0 -0.42638238794E+01 -0.11034693021E+02 -0.87298520772E+00  0.11862452205E+02  0.10500000000E+00 0.  1.
</event>
<event>
11    0  0.3467594E-009  0.9118800E+02  0.7816531E-02  0.1126479E+00
         25   -1    0    0    0    0  0.00000000000E+00  0.00000000000E+00  0.99999998245E-14  0.12500000000E+03  0.12500000000E+03 0.  0.
    3000001    1    3    3    0    0 -0.32348717079E+02 -0.18889863786E+02  0.11192612386E+02  0.39109346997E+02  0.10000000000E+01 0. -1.
    1000022    2    1    0    0    0 -0.46859403569E+02 -0.32685526811E+02  0.23283096770E+02  0.62500000251E+02  0.10000003521E+02 0.  0.
    3000022    2    3    3    0    0 -0.14510686490E+02 -0.13795663025E+02  0.12090484384E+02  0.23390653254E+02  0.25001260943E+00 0.  0.
    1000022    2    1    0    0    0  0.46859403569E+02  0.32685526811E+02 -0.23283096770E+02  0.62499999749E+02  0.10000000386E+02 0.  0.
    3000022    2    5    5    0    0  0.34344708300E+02  0.18619959852E+02 -0.14160424207E+02  0.41555288573E+02  0.25000318888E+00 0.  0.
        -13    1    4    4    0    0 -0.51591664195E+01 -0.48320744127E+01  0.42435139046E+01  0.82452638849E+01  0.10500000000E+00 0. -1.
         13    1    4    4    0    0 -0.93515200704E+01 -0.89635886118E+01  0.78469704792E+01  0.15145389369E+02  0.10500000000E+00 0.  1.
    3000001    1    5    5    0    0  0.12514695269E+02  0.14065566958E+02 -0.91226725634E+01  0.20944711176E+02  0.10000000000E+01 0.  1.
        -13    1    6    6    0    0  0.25111672604E+02  0.13579197266E+02 -0.10366508324E+02  0.30372128987E+02  0.10500000000E+00 0. -1.
         13    1    6    6    0    0  0.92330356956E+01  0.50407625868E+01 -0.37939158829E+01  0.11183159587E+02  0.10500000000E+00 0.  1.
</event>
<event>
11    0  0.3467594E-009  0.9118800E+02  0.7816531E-02  0.1126479E+00
         25   -1    0    0    0    0  0.00000000000E+00  0.00000000000E+00  0.99999998245E-14  0.12500000000E+03  0.12500000000E+03 0.  0.
    3000001    1    3    3    0    0 -0.12673609486E+01 -0.32779979241E+01  0.45344721919E+01  0.58234793915E+01  0.10000000000E+01 0.  1.
    1000022    2    1    0    0    0  0.11662169215E+02 -0.22137176622E+02  0.56393165843E+02  0.62499999912E+02  0.10000002779E+02 0.  0.
    3000022    2    3    3    0    0  0.12929530164E+02 -0.18859178698E+02  0.51858693651E+02  0.56676520520E+02  0.24999933603E+00 0.  0.
    1000022    2    1    0    0    0 -0.11662169215E+02  0.22137176622E+02 -0.56393165843E+02  0.62500000088E+02  0.10000003880E+02 0.  0.
    3000022    2    5    5    0    0 -0.55129255328E+01  0.16560474181E+02 -0.45738105268E+02  0.48955882404E+02  0.24999083875E+00 0.  0.
        -13    1    4    4    0    0  0.64846900697E+01 -0.95765574737E+01  0.26199128382E+02  0.28638558122E+02  0.10500000000E+00 0. -1.
         13    1    4    4    0    0  0.64448400941E+01 -0.92826212244E+01  0.25659565269E+02  0.28037962398E+02  0.10500000000E+00 0.  1.
    3000001    1    5    5    0    0 -0.61492436825E+01  0.55767024407E+01 -0.10655060575E+02  0.13544117684E+02  0.10000000000E+01 0.  1.
        -13    1    6    6    0    0 -0.22859128623E+01  0.70692711822E+01 -0.19433798890E+02  0.20805853911E+02  0.10500000000E+00 0. -1.
         13    1    6    6    0    0 -0.32270126704E+01  0.94912029993E+01 -0.26304306378E+02  0.28150028493E+02  0.10500000000E+00 0.  1.
</event>
<event>
11    0  0.3467594E-009  0.9118800E+02  0.7816531E-02  0.1126479E+00
         25   -1    0    0    0    0  0.00000000000E+00  0.00000000000E+00  0.99999998245E-14  0.12500000000E+03  0.12500000000E+03 0.  0.
    3000001    1    3    3    0    0 -0.38879649516E+01 -0.41701748656E+01 -0.11718874886E+02  0.13070526327E+02  0.10000000000E+01 0. -1.
    1000022    2    1    0    0    0 -0.26196549115E+02 -0.25655830845E+01 -0.55797925564E+02  0.62499999844E+02  0.10000004058E+02 0.  0.
    3000022    2    3    3    0    0 -0.22308584164E+02  0.16045917811E+01 -0.44079050678E+02  0.49429473516E+02  0.25000263737E+00 0.  0.
    1000022    2    1    0    0    0  0.26196549115E+02  0.25655830845E+01  0.55797925564E+02  0.62500000156E+02  0.10000006008E+02 0.  0.
    3000022    2    5    5    0    0  0.99280488248E+00  0.15467898444E+01  0.86995330768E+00  0.20487900838E+01  0.25000338481E+00 0.  0.
        -13    1    4    4    0    0 -0.13335943227E+02  0.92042779222E+00 -0.26233523636E+02  0.29443222590E+02  0.10500000000E+00 0. -1.
         13    1    4    4    0    0 -0.89726409362E+01  0.68416398885E+00 -0.17845527041E+02  0.19986250927E+02  0.10500000000E+00 0.  1.
    3000001    1    5    5    0    0  0.25203744233E+02  0.10187932401E+01  0.54927972256E+02  0.60451210072E+02  0.10000000000E+01 0. -1.
        -13    1    6    6    0    0  0.76506717785E+00  0.11827897325E+01  0.67892886412E+00  0.15672551612E+01  0.10500000000E+00 0. -1.
         13    1    6    6    0    0  0.22773770463E+00  0.36400011197E+00  0.19102444357E+00  0.48153492258E+00  0.10500000000E+00 0.  1.
</event>
<event>
11    0  0.3467594E-009  0.9118800E+02  0.7816531E-02  0.1126479E+00
         25   -1    0    0    0    0  0.00000000000E+00  0.00000000000E+00  0.99999998245E-14  0.12500000000E+03  0.12500000000E+03 0.  0.
    3000001    1    3    3    0    0 -0.20727722747E+02 -0.23527014420E+02 -0.29758459134E+02  0.43240314382E+02  0.10000000000E+01 0. -1.
    1000022    2    1    0    0    0 -0.32232755642E+02 -0.27981817876E+02 -0.44545678973E+02  0.62499998374E+02  0.99999806844E+01 0.  0.
    3000022    2    3    3    0    0 -0.11505032895E+02 -0.44548034558E+01 -0.14787219839E+02  0.19259683993E+02  0.25000234897E+00 0.  0.
    1000022    2    1    0    0    0  0.32232755642E+02  0.27981817876E+02  0.44545678973E+02  0.62500001626E+02  0.10000001006E+02 0.  0.
    3000022    2    5    5    0    0  0.27163017468E+02  0.27445051887E+02  0.39983022397E+02  0.55585654375E+02  0.25000238470E+00 0.  0.
        -13    1    4    4    0    0 -0.71701349890E+01 -0.27151498929E+01 -0.91562224972E+01  0.11942793229E+02  0.10500000000E+00 0.  1.
         13    1    4    4    0    0 -0.43348979062E+01 -0.17396535629E+01 -0.56309973420E+01  0.73168907632E+01  0.10500000000E+00 0. -1.
    3000001    1    5    5    0    0  0.50697381741E+01  0.53676598927E+00  0.45626565757E+01  0.69143472511E+01  0.10000000000E+01 0. -1.
        -13    1    6    6    0    0  0.18309411568E+02  0.18432383285E+02  0.26933418348E+02  0.37422016974E+02  0.10500000000E+00 0.  1.
         13    1    6    6    0    0  0.88536059004E+01  0.90126686018E+01  0.13049604049E+02  0.18163637400E+02  0.10500000000E+00 0. -1.
</event>
<event>
11    0  0.3467594E-009  0.9118800E+02  0.7816531E-02  0.1126479E+00
         25   -1    0    0    0    0  0.00000000000E+00  0.00000000000E+00  0.99999998245E-14  0.12500000000E+03  0.12500000000E+03 0.  0.
    3000001    1    3    3    0    0 -0.85277455098E+01  0.34398160646E+01  0.11074394966E+02  0.14429033298E+02  0.10000000000E+01 0.  1.
    1000022    2    1    0    0    0 -0.49058224977E+02  0.88622184445E+01  0.36345586521E+02  0.62500000348E+02  0.10000001513E+02 0.  0.
    3000022    2    3    3    0    0 -0.40530479468E+02  0.54224023799E+01  0.25271191555E+02  0.48070967050E+02  0.25007420813E+00 0.  0.
    1000022    2    1    0    0    0  0.49058224977E+02 -0.88622184445E+01 -0.36345586521E+02  0.62499999652E+02  0.99999971624E+01 0.  0.
    3000022    2    5    5    0    0  0.43163865474E+02 -0.10899487493E+02 -0.32227971874E+02  0.54960192658E+02  0.24999119129E+00 0.  0.
        -13    1    4    4    0    0 -0.22979766805E+02  0.31208748429E+01  0.14387050087E+02  0.27291166656E+02  0.10500000000E+00 0. -1.
         13    1    4    4    0    0 -0.17550712662E+02  0.23015275369E+01  0.10884141468E+02  0.20779800395E+02  0.10500000000E+00 0.  1.
    3000001    1    5    5    0    0  0.58943595033E+01  0.20372690482E+01 -0.41176146472E+01  0.75398069943E+01  0.10000000000E+01 0.  1.
        -13    1    6    6    0    0  0.20215477173E+02 -0.51411598630E+01 -0.15171005637E+02  0.25792779592E+02  0.10500000000E+00 0. -1.
         13    1    6    6    0    0  0.22948388301E+02 -0.57583276297E+01 -0.17056966237E+02  0.29167413065E+02  0.10500000000E+00 0.  1.
</event>
<event>
11    0  0.3467594E-009  0.9118800E+02  0.7816531E-02  0.1126479E+00
         25   -1    0    0    0    0  0.00000000000E+00  0.00000000000E+00  0.99999998245E-14  0.12500000000E+03  0.12500000000E+03 0.  0.
    3000001    1    3    3    0    0 -0.17679973934E+00 -0.40023942654E+00  0.23986810609E+00  0.11175806256E+01  0.10000000000E+01 0. -1.
    1000022    2    1    0    0    0 -0.31964268652E+02 -0.27184678426E+01  0.52698629006E+02  0.62500000291E+02  0.99999999693E+01 0.  0.
    3000022    2    3    3    0    0 -0.31787468913E+02 -0.23182284161E+01  0.52458760900E+02  0.61382419665E+02  0.24997190768E+00 0.  0.
    1000022    2    1    0    0    0  0.31964268652E+02  0.27184678426E+01 -0.52698629006E+02  0.62499999709E+02  0.99999963339E+01 0.  0.
    3000022    2    5    5    0    0  0.39579698467E+01  0.24408608745E+01 -0.13744308058E+02  0.14511782834E+02  0.25001978928E+00 0.  0.
        -13    1    4    4    0    0 -0.85221849078E+01 -0.65651225892E+00  0.14077742658E+02  0.16469745210E+02  0.10500000000E+00 0.  1.
         13    1    4    4    0    0 -0.23265284005E+02 -0.16617161572E+01  0.38381018242E+02  0.44912674455E+02  0.10500000000E+00 0. -1.
    3000001    1    5    5    0    0  0.28006298805E+02  0.27760696815E+00 -0.38954320948E+02  0.47988216876E+02  0.10000000000E+01 0. -1.
        -13    1    6    6    0    0  0.20923923359E+01  0.12861357077E+01 -0.74682577373E+01  0.78624518680E+01  0.10500000000E+00 0.  1.
         13    1    6    6    0    0  0.18655775108E+01  0.11547251668E+01 -0.62760503209E+01  0.66493309656E+01  0.10500000000E+00 0. -1.
</event>
<event>
11    0  0.3467594E-009  0.9118800E+02  0.7816531E-02  0.1126479E+00
         25   -1    0    0    0    0  0.00000000000E+00  0.00000000000E+00  0.99999998245E-14  0.12500000000E+03  0.12500000000E+03 0.  0.
    3000001    1    3    3    0    0 -0.86163659196E+01 -0.11667664290E+02 -0.23984770658E+02  0.28047199061E+02  0.10000000000E+01 0. -1.
    1000022    2    1    0    0    0 -0.26730031549E+02 -0.30196131327E+02 -0.46689924558E+02  0.62499999854E+02  0.99999996430E+01 0.  0.
    3000022    2    3    3    0    0 -0.18113665630E+02 -0.18528467037E+02 -0.22705153900E+02  0.34452800794E+02  0.24999126399E+00 0.  0.
    1000022    2    1    0    0    0  0.26730031549E+02  0.30196131327E+02  0.46689924558E+02  0.62500000146E+02  0.10000001463E+02 0.  0.
    3000022    2    5    5    0    0  0.33909788927E+01  0.54646116326E+00  0.65479448873E+01  0.73983409004E+01  0.25001635313E+00 0.  0.
        -13    1    4    4    0    0 -0.10139493679E+02 -0.10463308054E+02 -0.12788147333E+02  0.19386538750E+02  0.10500000000E+00 0.  1.
         13    1    4    4    0    0 -0.79741719505E+01 -0.80651589829E+01 -0.99170065672E+01  0.15066262044E+02  0.10500000000E+00 0. -1.
    3000001    1    5    5    0    0  0.23339052657E+02  0.29649670164E+02  0.40141979670E+02  0.55101659245E+02  0.10000000000E+01 0. -1.
        -13    1    6    6    0    0  0.10630053889E+01  0.13011155579E+00  0.21051189698E+01  0.23642039571E+01  0.10500000000E+00 0.  1.
         13    1    6    6    0    0  0.23279735038E+01  0.41634960747E+00  0.44428259176E+01  0.50341369433E+01  0.10500000000E+00 0. -1.
</event>
<event>
11    0  0.3467594E-009  0.9118800E+02  0.7816531E-02  0.1126479E+00
         25   -1    0    0    0    0  0.00000000000E+00  0.00000000000E+00  0.99999998245E-14  0.12500000000E+03  0.12500000000E+03 0.  0.
    3000001    1    3    3    0    0 -0.63057582117E+00  0.23766813144E+01 -0.65875846068E+01  0.71022891301E+01  0.10000000000E+01 0.  1.
    1000022    2    1    0    0    0  0.13589174657E+02  0.24790036581E+01 -0.60128521365E+02  0.62499998307E+02  0.99999789893E+01 0.  0.
    3000022    2    3    3    0    0  0.14219750478E+02  0.10232234371E+00 -0.53540936758E+02  0.55397709177E+02  0.24999905497E+00 0.  0.
    1000022    2    1    0    0    0 -0.13589174657E+02 -0.24790036581E+01  0.60128521365E+02  0.62500001693E+02  0.10000000155E+02 0.  0.
    3000022    2    5    5    0    0 -0.35704567305E+01 -0.86807102468E+00  0.39381232166E+01  0.53919404677E+01  0.24999793969E+00 0.  0.
        -13    1    4    4    0    0  0.61625725027E+01 -0.21259129267E-01 -0.23186121051E+02  0.23991352321E+02  0.10500000000E+00 0. -1.
         13    1    4    4    0    0  0.80571779752E+01  0.12358147298E+00 -0.30354815707E+02  0.31406356855E+02  0.10500000000E+00 0.  1.
    3000001    1    5    5    0    0 -0.10018717926E+02 -0.16109326335E+01  0.56190398149E+02  0.57108061226E+02  0.10000000000E+01 0. -1.
        -13    1    6    6    0    0 -0.20145552511E+01 -0.42171100479E+00  0.22049039507E+01  0.30180953370E+01  0.10500000000E+00 0.  1.
         13    1    6    6    0    0 -0.15559014794E+01 -0.44636001990E+00  0.17332192659E+01  0.23738451307E+01  0.10500000000E+00 0. -1.
</event>
<event>
11    0  0.3467594E-009  0.9118800E+02  0.7816531E-02  0.1126479E+00
         25   -1    0    0    0    0  0.00000000000E+00  0.00000000000E+00  0.99999998245E-14  0.12500000000E+03  0.12500000000E+03 0.  0.
    3000001    1    3    3    0    0  0.20152506881E+02 -0.18520328337E+02 -0.31665014960E+01  0.27570869174E+02  0.10000000000E+01 0.  1.
    1000022    2    1    0    0    0  0.38705131217E+02 -0.48033283356E+02 -0.98310310120E+00  0.62499999133E+02  0.99999953714E+01 0.  0.
    3000022    2    3    3    0    0  0.18552624336E+02 -0.29512955020E+02  0.21833983948E+01  0.34929129959E+02  0.25001482405E+00 0.  0.
    1000022    2    1    0    0    0 -0.38705131217E+02  0.48033283356E+02  0.98310310120E+00  0.62500000867E+02  0.10000006207E+02 0.  0.
    3000022    2    5    5    0    0  0.24135079269E+00  0.14615351306E+01  0.95723897849E+00  0.17813310635E+01  0.24999750568E+00 0.  0.
        -13    1    4    4    0    0  0.58814529913E+01 -0.94507251876E+01  0.70188870675E+00  0.11153984428E+02  0.10500000000E+00 0.  1.
         13    1    4    4    0    0  0.12671171345E+02 -0.20062229832E+02  0.14815096880E+01  0.23775145532E+02  0.10500000000E+00 0. -1.
    3000001    1    5    5    0    0 -0.38946482010E+02  0.46571748226E+02  0.25864122707E-01  0.60718669803E+02  0.10000000000E+01 0. -1.
        -13    1    6    6    0    0  0.14654917572E+00  0.10862974309E+01  0.71086096348E+00  0.13106742840E+01  0.10500000000E+00 0.  1.
         13    1    6    6    0    0  0.94801616970E-01  0.37523769964E+00  0.24637801501E+00  0.47065677951E+00  0.10500000000E+00 0. -1.
</event>
<event>
11    0  0.3467594E-009  0.9118800E+02  0.7816531E-02  0.1126479E+00
         25   -1    0    0    0    0  0.00000000000E+00  0.00000000000E+00  0.99999998245E-14  0.12500000000E+03  0.12500000000E+03 0.  0.
    3000001    1    3    3    0    0  0.11542909242E+02  0.12228328962E+02 -0.10429643521E+02  0.19812830361E+02  0.10000000000E+01 0.  1.
    1000022    2    1    0    0    0  0.23543328341E+02  0.42210639005E+02 -0.38343490267E+02  0.62499998448E+02  0.10000010281E+02 0.  0.
    3000022    2    3    3    0    0  0.12000419099E+02  0.29982310043E+02 -0.27913846746E+02  0.42687168087E+02  0.25001006396E+00 0.  0.
    1000022    2    1    0    0    0 -0.23543328341E+02 -0.42210639005E+02  0.38343490267E+02  0.62500001552E+02  0.10000029682E+02 0.  0.
    3000022    2    5    5    0    0 -0.18098092712E+02 -0.22643334409E+02  0.23644270251E+02  0.37408228612E+02  0.24999849082E+00 0.  0.
        -13    1    4    4    0    0  0.75743131758E+01  0.19038301307E+02 -0.17763883711E+02  0.27118143856E+02  0.10500000000E+00 0. -1.
         13    1    4    4    0    0  0.44261059233E+01  0.10944008736E+02 -0.10149963035E+02  0.15569024230E+02  0.10500000000E+00 0.  1.
    3000001    1    5    5    0    0 -0.54452356289E+01 -0.19567304596E+02  0.14699220016E+02  0.25091772940E+02  0.10000000000E+01 0.  1.
        -13    1    6    6    0    0 -0.43991772232E+01 -0.55382531075E+01  0.57607400900E+01  0.91226179964E+01  0.10500000000E+00 0.  1.
         13    1    6    6    0    0 -0.13698915488E+02 -0.17105081301E+02  0.17883530161E+02  0.28285610616E+02  0.10500000000E+00 0. -1.
</event>
<event>
11    0  0.3467594E-009  0.9118800E+02  0.7816531E-02  0.1126479E+00
         25   -1    0    0    0    0  0.00000000000E+00  0.00000000000E+00  0.99999998245E-14  0.12500000000E+03  0.12500000000E+03 0.  0.
    3000001    1    3    3    0    0  0.28867905599E+01  0.17935962218E+02 -0.36534075437E+02  0.40813857554E+02  0.10000000000E+01 0. -1.
    1000022    2    1    0    0    0  0.36149100664E+01  0.20597262752E+02 -0.58042529683E+02  0.62500000323E+02  0.99999990405E+01 0.  0.
    3000022    2    3    3    0    0  0.72811950654E+00  0.26613005340E+01 -0.21508454246E+02  0.21686142769E+02  0.25001124679E+00 0.  0.
    1000022    2    1    0    0    0 -0.36149100664E+01 -0.20597262752E+02  0.58042529683E+02  0.62499999677E+02  0.99999950000E+01 0.  0.
    3000022    2    5    5    0    0 -0.14750458988E+01 -0.16324474281E+02  0.53016787223E+02  0.55493300936E+02  0.25000073265E+00 0.  0.
        -13    1    4    4    0    0  0.47387442580E+00  0.15672314367E+01 -0.12377917582E+02  0.12486177959E+02  0.10500000000E+00 0. -1.
         13    1    4    4    0    0  0.25424508074E+00  0.10940690973E+01 -0.91305366634E+01  0.91999648104E+01  0.10500000000E+00 0.  1.
    3000001    1    5    5    0    0 -0.21398641676E+01 -0.42727884712E+01  0.50257424590E+01  0.70066987405E+01  0.10000000000E+01 0.  1.
        -13    1    6    6    0    0 -0.62903632057E+00 -0.63924275796E+01  0.20896396585E+02  0.21861592630E+02  0.10500000000E+00 0. -1.
         13    1    6    6    0    0 -0.84600957822E+00 -0.99320467009E+01  0.32120390638E+02  0.33631708307E+02  0.10500000000E+00 0.  1.
</event>
<event>
11    0  0.3467594E-009  0.9118800E+02  0.7816531E-02  0.1126479E+00
         25   -1    0    0    0    0  0.00000000000E+00  0.00000000000E+00  0.99999998245E-14  0.12500000000E+03  0.12500000000E+03 0.  0.
    3000001    1    3    3    0    0 -0.25916730029E+02 -0.36647276603E+01 -0.35100305156E+02  0.43796558612E+02  0.10000000000E+01 0.  1.
    1000022    2    1    0    0    0 -0.35115052885E+02 -0.11400186970E+02 -0.49428931668E+02  0.62499994510E+02  0.99999412930E+01 0.  0.
    3000022    2    3    3    0    0 -0.91983228560E+01 -0.77354593094E+01 -0.14328626511E+02  0.18703435898E+02  0.25000515654E+00 0.  0.
    1000022    2    1    0    0    0  0.35115052885E+02  0.11400186970E+02  0.49428931668E+02  0.62500005490E+02  0.10000009919E+02 0.  0.
    3000022    2    5    5    0    0  0.17402192534E+02  0.10768138641E+02  0.27729293018E+02  0.34463971098E+02  0.24999557657E+00 0.  0.
        -13    1    4    4    0    0 -0.48209216116E+01 -0.40122155707E+01 -0.75699250751E+01  0.98312740585E+01  0.10500000000E+00 0. -1.
         13    1    4    4    0    0 -0.43774012444E+01 -0.37232437386E+01 -0.67587014364E+01  0.88721618390E+01  0.10500000000E+00 0.  1.
    3000001    1    5    5    0    0  0.17712860351E+02  0.63204832904E+00  0.21699638650E+02  0.28036034392E+02  0.10000000000E+01 0. -1.
        -13    1    6    6    0    0  0.71580114084E+01  0.43605645976E+01  0.11313399466E+02  0.14080329663E+02  0.10500000000E+00 0.  1.
         13    1    6    6    0    0  0.10244181125E+02  0.64075740430E+01  0.16415893551E+02  0.20383641435E+02  0.10500000000E+00 0. -1.
</event>
<event>
11    0  0.3467594E-009  0.9118800E+02  0.7816531E-02  0.1126479E+00
         25   -1    0    0    0    0  0.00000000000E+00  0.00000000000E+00  0.99999998245E-14  0.12500000000E+03  0.12500000000E+03 0.  0.
    3000001    1    3    3    0    0 -0.15733057675E+02  0.29303785901E+02 -0.24189340754E+01  0.33363036642E+02  0.10000000000E+01 0.  1.
    1000022    2    1    0    0    0 -0.36080108295E+02  0.49406597362E+02 -0.79664311879E+01  0.62500001452E+02  0.10000003907E+02 0.  0.
    3000022    2    3    3    0    0 -0.20347050620E+02  0.20102811461E+02 -0.55474971124E+01  0.29136964810E+02  0.24999306276E+00 0.  0.
    1000022    2    1    0    0    0  0.36080108295E+02 -0.49406597362E+02  0.79664311879E+01  0.62499998548E+02  0.99999857612E+01 0.  0.
    3000022    2    5    5    0    0  0.43698040166E+01 -0.10171144386E+02 -0.14622605033E+01  0.11169068353E+02  0.25003369086E+00 0.  0.
        -13    1    4    4    0    0 -0.99118943601E+01  0.98858767690E+01 -0.27000165932E+01  0.14257535688E+02  0.10500000000E+00 0. -1.
         13    1    4    4    0    0 -0.10435156260E+02  0.10216934693E+02 -0.28474805193E+01  0.14879429122E+02  0.10500000000E+00 0.  1.
    3000001    1    5    5    0    0  0.31710304278E+02 -0.39235452976E+02  0.94286916912E+01  0.51330930195E+02  0.10000000000E+01 0. -1.
        -13    1    6    6    0    0  0.29973652779E+01 -0.68956775705E+01 -0.95300238961E+00  0.75798289110E+01  0.10500000000E+00 0.  1.
         13    1    6    6    0    0  0.13724387387E+01 -0.32754668152E+01 -0.50925811369E+00  0.35892394424E+01  0.10500000000E+00 0. -1.
</event>
<event>
11    0  0.3467594E-009  0.9118800E+02  0.7816531E-02  0.1126479E+00
         25   -1    0    0    0    0  0.00000000000E+00  0.00000000000E+00  0.99999998245E-14  0.12500000000E+03  0.12500000000E+03 0.  0.
    3000001    1    3    3    0    0 -0.26263373208E+02  0.23625080225E+02  0.66819315650E+01  0.35966058963E+02  0.10000000000E+01 0.  1.
    1000022    2    1    0    0    0 -0.47525894387E+02  0.39180079063E+02  0.35299901668E+01  0.62499999889E+02  0.99999961421E+01 0.  0.
    3000022    2    3    3    0    0 -0.21262521179E+02  0.15554998839E+02 -0.31519413982E+01  0.26533940926E+02  0.24998145414E+00 0.  0.
    1000022    2    1    0    0    0  0.47525894387E+02 -0.39180079063E+02 -0.35299901668E+01  0.62500000111E+02  0.99999975285E+01 0.  0.
    3000022    2    5    5    0    0  0.57512137297E+00  0.54557512961E+00  0.26616064048E+00  0.87278657138E+00  0.24999619385E+00 0.  0.
        -13    1    4    4    0    0 -0.14044548832E+02  0.10215187111E+02 -0.21047054272E+01  0.17494004960E+02  0.10500000000E+00 0. -1.
         13    1    4    4    0    0 -0.72179723468E+01  0.53398117282E+01 -0.10472359710E+01  0.90399359660E+01  0.10500000000E+00 0.  1.
    3000001    1    5    5    0    0  0.46950773014E+02 -0.39725654193E+02 -0.37961508072E+01  0.61627213540E+02  0.10000000000E+01 0. -1.
        -13    1    6    6    0    0  0.40122189915E+00  0.35378280895E+00  0.22771217912E+00  0.59077840582E+00  0.10500000000E+00 0.  1.
         13    1    6    6    0    0  0.17389947381E+00  0.19179232066E+00  0.38448461361E-01  0.28200816555E+00  0.10500000000E+00 0. -1.
</event>
<event>
11    0  0.3467594E-009  0.9118800E+02  0.7816531E-02  0.1126479E+00
         25   -1    0    0    0    0  0.00000000000E+00  0.00000000000E+00  0.99999998245E-14  0.12500000000E+03  0.12500000000E+03 0.  0.
    3000001    1    3    3    0    0 -0.43356137834E+00  0.11457034725E+01  0.67251797043E+01  0.69085927635E+01  0.10000000000E+01 0. -1.
    1000022    2    1    0    0    0 -0.11358100202E+02  0.34071614176E+02  0.50163418815E+02  0.62499997443E+02  0.99999880186E+01 0.  0.
    3000022    2    3    3    0    0 -0.10924538824E+02  0.32925910704E+02  0.43438239111E+02  0.55591404680E+02  0.25002602292E+00 0.  0.
    1000022    2    1    0    0    0  0.11358100202E+02 -0.34071614176E+02 -0.50163418815E+02  0.62500002557E+02  0.10000019979E+02 0.  0.
    3000022    2    5    5    0    0  0.45113326089E+01 -0.94210536220E+01 -0.79506280512E+01  0.13129484368E+02  0.25000022271E+00 0.  0.
        -13    1    4    4    0    0 -0.77679918104E+01  0.23280782878E+02  0.30752995498E+02  0.39345829580E+02  0.10500000000E+00 0.  1.
         13    1    4    4    0    0 -0.31565470132E+01  0.96451278258E+01  0.12685243612E+02  0.16245575100E+02  0.10500000000E+00 0. -1.
    3000001    1    5    5    0    0  0.68467675930E+01 -0.24650560554E+02 -0.42212790764E+02  0.49370518189E+02  0.10000000000E+01 0.  1.
        -13    1    6    6    0    0  0.15140382062E+01 -0.30728361556E+01 -0.26528843642E+01  0.43339882532E+01  0.10500000000E+00 0.  1.
         13    1    6    6    0    0  0.29972944027E+01 -0.63482174664E+01 -0.52977436870E+01  0.87954961150E+01  0.10500000000E+00 0. -1.
</event>
<event>
11    0  0.3467594E-009  0.9118800E+02  0.7816531E-02  0.1126479E+00
         25   -1    0    0    0    0  0.00000000000E+00  0.00000000000E+00  0.99999998245E-14  0.12500000000E+03  0.12500000000E+03 0.  0.
    3000001    1    3    3    0    0 -0.15154875626E+02  0.31870924809E+02  0.47452778498E+02  0.59145517925E+02  0.10000000000E+01 0. -1.
    1000022    2    1    0    0    0 -0.17927122526E+02  0.32977957405E+02  0.48962459815E+02  0.62499999980E+02  0.10000006482E+02 0.  0.
    3000022    2    3    3    0    0 -0.27722468997E+01  0.11070325960E+01  0.15096813176E+01  0.33544820550E+01  0.25007625921E+00 0.  0.
    1000022    2    1    0    0    0  0.17927122526E+02 -0.32977957405E+02 -0.48962459815E+02  0.62500000020E+02  0.10000006735E+02 0.  0.
    3000022    2    5    5    0    0  0.17608447830E+02 -0.24906257969E+02 -0.35898806376E+02  0.47108023976E+02  0.25000544322E+00 0.  0.
        -13    1    4    4    0    0 -0.16237289364E+01  0.60277406743E+00  0.92988050244E+00  0.19686378499E+01  0.10500000000E+00 0. -1.
         13    1    4    4    0    0 -0.11485179633E+01  0.50425852855E+00  0.57980081512E+00  0.13858442051E+01  0.10500000000E+00 0.  1.
    3000001    1    5    5    0    0  0.31867469517E+00 -0.80716994358E+01 -0.13063653440E+02  0.15391976044E+02  0.10000000000E+01 0.  1.
        -13    1    6    6    0    0  0.83468859323E+01 -0.11915963289E+02 -0.17086097635E+02  0.22441177404E+02  0.10500000000E+00 0. -1.
         13    1    6    6    0    0  0.92615618981E+01 -0.12990294680E+02 -0.18812708740E+02  0.24666846572E+02  0.10500000000E+00 0.  1.
</event>
<event>
11    0  0.3467594E-009  0.9118800E+02  0.7816531E-02  0.1126479E+00
         25   -1    0    0    0    0  0.00000000000E+00  0.00000000000E+00  0.99999998245E-14  0.12500000000E+03  0.12500000000E+03 0.  0.
    3000001    1    3    3    0    0 -0.30038230872E+02  0.32572287298E+01 -0.87314859554E+01  0.31466548904E+02  0.10000000000E+01 0.  1.
    1000022    2    1    0    0    0 -0.60499387973E+02 -0.17105099059E+01 -0.11964453933E+02  0.62500000239E+02  0.10000004140E+02 0.  0.
    3000022    2    3    3    0    0 -0.30461157100E+02 -0.49677386357E+01 -0.32329679775E+01  0.31033451335E+02  0.25000158346E+00 0.  0.
    1000022    2    1    0    0    0  0.60499387973E+02  0.17105099059E+01  0.11964453933E+02  0.62499999761E+02  0.10000001150E+02 0.  0.
    3000022    2    5    5    0    0  0.44610674085E+02  0.46168173334E+01  0.11543082321E+02  0.46311256576E+02  0.24998317268E+00 0.  0.
        -13    1    4    4    0    0 -0.16154589431E+02 -0.26118878390E+01 -0.17780919556E+01  0.16461025295E+02  0.10500000000E+00 0.  1.
         13    1    4    4    0    0 -0.14306567669E+02 -0.23558507967E+01 -0.14548760219E+01  0.14572426040E+02  0.10500000000E+00 0. -1.
    3000001    1    5    5    0    0  0.15888713888E+02 -0.29063074275E+01  0.42137161224E+00  0.16188743185E+02  0.10000000000E+01 0. -1.
        -13    1    6    6    0    0  0.12877435208E+02  0.13012266962E+01  0.33016442975E+01  0.13357896860E+02  0.10500000000E+00 0.  1.
         13    1    6    6    0    0  0.31733238877E+02  0.33155906372E+01  0.82414380232E+01  0.32953359716E+02  0.10500000000E+00 0. -1.
</event>
<event>
11    0  0.3467594E-009  0.9118800E+02  0.7816531E-02  0.1126479E+00
         25   -1    0    0    0    0  0.00000000000E+00  0.00000000000E+00  0.99999998245E-14  0.12500000000E+03  0.12500000000E+03 0.  0.
    3000001    1    3    3    0    0 -0.79185167002E+01  0.12335308778E+02  0.12704904788E+02  0.19423628782E+02  0.10000000000E+01 0.  1.
    1000022    2    1    0    0    0 -0.26141943125E+02  0.47904431922E+02  0.28775234173E+02  0.62500000289E+02  0.10000007314E+02 0.  0.
    3000022    2    3    3    0    0 -0.18223426425E+02  0.35569123144E+02  0.16070329386E+02  0.43076371508E+02  0.25000758003E+00 0.  0.
    1000022    2    1    0    0    0  0.26141943125E+02 -0.47904431922E+02 -0.28775234173E+02  0.62499999711E+02  0.10000003696E+02 0.  0.
    3000022    2    5    5    0    0  0.13268320061E+02 -0.28421939199E+02 -0.21471513750E+02  0.38012410496E+02  0.25000785286E+00 0.  0.
        -13    1    4    4    0    0 -0.12238338641E+02  0.23996528177E+02  0.10847528559E+02  0.29039459329E+02  0.10500000000E+00 0.  1.
         13    1    4    4    0    0 -0.59850877836E+01  0.11572594967E+02  0.52228008265E+01  0.14036912179E+02  0.10500000000E+00 0. -1.
    3000001    1    5    5    0    0  0.12873623064E+02 -0.19482492723E+02 -0.73037204231E+01  0.24487589214E+02  0.10000000000E+01 0.  1.
        -13    1    6    6    0    0  0.99804983909E+01 -0.21324817530E+02 -0.16102259203E+02  0.28524585313E+02  0.10500000000E+00 0.  1.
         13    1    6    6    0    0  0.32878216700E+01 -0.70971216692E+01 -0.53692545477E+01  0.94878251839E+01  0.10500000000E+00 0. -1.
</event>
<event>
11    0  0.3467594E-009  0.9118800E+02  0.7816531E-02  0.1126479E+00
         25   -1    0    0    0    0  0.00000000000E+00  0.00000000000E+00  0.99999998245E-14  0.12500000000E+03  0.12500000000E+03 0.  0.
    3000001    1    3    3    0    0  0.13041819749E+02  0.22616682912E+01  0.71152959669E+01  0.15060930998E+02  0.10000000000E+01 0. -1.
    1000022    2    1    0    0    0  0.44636818977E+02  0.27917985169E+01  0.42497181038E+02  0.62500000881E+02  0.99999983287E+01 0.  0.
    3000022    2    3    3    0    0  0.31594999228E+02  0.53013022561E+00  0.35381885071E+02  0.47439069883E+02  0.25009177308E+00 0.  0.
    1000022    2    1    0    0    0 -0.44636818977E+02 -0.27917985169E+01 -0.42497181038E+02  0.62499999119E+02  0.99999873175E+01 0.  0.
    3000022    2    5    5    0    0 -0.39792962389E+02 -0.22879793953E+00 -0.39904107037E+02  0.56355411958E+02  0.24998866160E+00 0.  0.
        -13    1    4    4    0    0  0.18546763102E+02  0.25721634142E+00  0.20715967430E+02  0.27806670303E+02  0.10500000000E+00 0.  1.
         13    1    4    4    0    0  0.13048236126E+02  0.27291388419E+00  0.14665917641E+02  0.19632399580E+02  0.10500000000E+00 0. -1.
    3000001    1    5    5    0    0 -0.48438565882E+01 -0.25630005773E+01 -0.25930740007E+01  0.61445871610E+01  0.10000000000E+01 0.  1.
        -13    1    6    6    0    0 -0.24950357153E+02 -0.14141644871E+00 -0.25104643034E+02  0.35394836453E+02  0.10500000000E+00 0.  1.
         13    1    6    6    0    0 -0.14842605236E+02 -0.87381490815E-01 -0.14799464004E+02  0.20960575505E+02  0.10500000000E+00 0. -1.
</event>
<event>
11    0  0.3467594E-009  0.9118800E+02  0.7816531E-02  0.1126479E+00
         25   -1    0    0    0    0  0.00000000000E+00  0.00000000000E+00  0.99999998245E-14  0.12500000000E+03  0.12500000000E+03 0.  0.
    3000001    1    3    3    0    0  0.43716909426E+01  0.46657667589E+02 -0.36780791814E+02  0.59580838137E+02  0.10000000000E+01 0. -1.
    1000022    2    1    0    0    0  0.30153371819E+01  0.47549909366E+02 -0.39193927103E+02  0.62500000813E+02  0.10000002044E+02 0.  0.
    3000022    2    3    3    0    0 -0.13563537607E+01  0.89224177618E+00 -0.24131352889E+01  0.29191626765E+01  0.24999579577E+00 0.  0.
    1000022    2    1    0    0    0 -0.30153371819E+01 -0.47549909366E+02  0.39193927103E+02  0.62499999187E+02  0.99999918775E+01 0.  0.
    3000022    2    5    5    0    0 -0.52169303232E+01 -0.44430510827E+02  0.36069057425E+02  0.57465868665E+02  0.25000708852E+00 0.  0.
        -13    1    4    4    0    0 -0.40524159120E+00  0.32326505748E+00 -0.80991384113E+00  0.96731922067E+00  0.10500000000E+00 0.  1.
         13    1    4    4    0    0 -0.95111216955E+00  0.56897671869E+00 -0.16032214478E+01  0.19518434558E+01  0.10500000000E+00 0. -1.
    3000001    1    5    5    0    0  0.22015931413E+01 -0.31193985385E+01  0.31248696781E+01  0.50341305215E+01  0.10000000000E+01 0.  1.
        -13    1    6    6    0    0 -0.29259775885E+01 -0.24496307703E+02  0.19833456018E+02  0.31654501079E+02  0.10500000000E+00 0. -1.
         13    1    6    6    0    0 -0.22909527347E+01 -0.19934203124E+02  0.16235601407E+02  0.25811367586E+02  0.10500000000E+00 0.  1.
</event>
<event>
11    0  0.3467594E-009  0.9118800E+02  0.7816531E-02  0.1126479E+00
         25   -1    0    0    0    0  0.00000000000E+00  0.00000000000E+00  0.99999998245E-14  0.12500000000E+03  0.12500000000E+03 0.  0.
    3000001    1    3    3    0    0  0.48561805202E+02  0.20186396318E+01 -0.34913692662E+02  0.59852232755E+02  0.10000000000E+01 0.  1.
    1000022    2    1    0    0    0  0.49195444192E+02  0.90800257199E+00 -0.37218728680E+02  0.62499999110E+02  0.99999963116E+01 0.  0.
    3000022    2    3    3    0    0  0.63363899046E+00 -0.11106370598E+01 -0.23050360178E+01  0.26477663550E+01  0.24992514665E+00 0.  0.
    1000022    2    1    0    0    0 -0.49195444192E+02 -0.90800257199E+00  0.37218728680E+02  0.62500000890E+02  0.10000007441E+02 0.  0.
    3000022    2    5    5    0    0 -0.12878179657E+02  0.12870350541E+01  0.15182073432E+02  0.19951486603E+02  0.24998698182E+00 0.  0.
        -13    1    4    4    0    0  0.25445009578E+00 -0.47950315190E+00 -0.11125677046E+01  0.12423767630E+01  0.10500000000E+00 0.  1.
         13    1    4    4    0    0  0.37918889468E+00 -0.63113390790E+00 -0.11924683132E+01  0.14053895921E+01  0.10500000000E+00 0. -1.
    3000001    1    5    5    0    0 -0.36317264536E+02 -0.21950376261E+01  0.22036655248E+02  0.42548514287E+02  0.10000000000E+01 0.  1.
        -13    1    6    6    0    0 -0.41394515445E+01  0.42074400960E+00  0.49597874499E+01  0.64747664946E+01  0.10500000000E+00 0. -1.
         13    1    6    6    0    0 -0.87387281121E+01  0.86629104455E+00  0.10222285982E+02  0.13476720109E+02  0.10500000000E+00 0.  1.
</event>
<event>
11    0  0.3467594E-009  0.9118800E+02  0.7816531E-02  0.1126479E+00
         25   -1    0    0    0    0  0.00000000000E+00  0.00000000000E+00  0.99999998245E-14  0.12500000000E+03  0.12500000000E+03 0.  0.
    3000001    1    3    3    0    0  0.37166762885E+01  0.11518158354E+02 -0.76501704569E+01  0.14352935676E+02  0.10000000000E+01 0. -1.
    1000022    2    1    0    0    0  0.13131235704E+02  0.38400263524E+02 -0.46467633065E+02  0.62499995952E+02  0.99999490763E+01 0.  0.
    3000022    2    3    3    0    0  0.94145594157E+01  0.26882105170E+02 -0.38817462608E+02  0.48147060276E+02  0.25000508232E+00 0.  0.
    1000022    2    1    0    0    0 -0.13131235704E+02 -0.38400263524E+02  0.46467633065E+02  0.62500004048E+02  0.99999996703E+01 0.  0.
    3000022    2    5    5    0    0 -0.98584421749E+01 -0.17328898775E+02  0.27330590985E+02  0.33830508595E+02  0.24998676258E+00 0.  0.
        -13    1    4    4    0    0  0.40886198091E+01  0.11500430576E+02 -0.16686799007E+02  0.20674549608E+02  0.10500000000E+00 0.  1.
         13    1    4    4    0    0  0.53259396067E+01  0.15381674595E+02 -0.22130663601E+02  0.27472510669E+02  0.10500000000E+00 0. -1.
    3000001    1    5    5    0    0 -0.32727935294E+01 -0.21071364750E+02  0.19137042080E+02  0.28669495452E+02  0.10000000000E+01 0.  1.
        -13    1    6    6    0    0 -0.60413609008E+01 -0.10637355471E+02  0.16666078684E+02  0.20674152380E+02  0.10500000000E+00 0.  1.
         13    1    6    6    0    0 -0.38170812741E+01 -0.66915433039E+01  0.10664512301E+02  0.13156356215E+02  0.10500000000E+00 0. -1.
</event>
<event>
11    0  0.3467594E-009  0.9118800E+02  0.7816531E-02  0.1126479E+00
         25   -1    0    0    0    0  0.00000000000E+00  0.00000000000E+00  0.99999998245E-14  0.12500000000E+03  0.12500000000E+03 0.  0.
    3000001    1    3    3    0    0  0.15208507800E+00 -0.22532568945E+02 -0.82100504598E+01  0.24003014846E+02  0.10000000000E+01 0. -1.
    1000022    2    1    0    0    0  0.50037428436E+01 -0.60682487592E+02 -0.99422454830E+01  0.62500000136E+02  0.10000001450E+02 0.  0.
    3000022    2    3    3    0    0  0.48516577656E+01 -0.38149918646E+02 -0.17321950232E+01  0.38496985290E+02  0.25000203532E+00 0.  0.
    1000022    2    1    0    0    0 -0.50037428436E+01  0.60682487592E+02  0.99422454830E+01  0.62499999864E+02  0.99999997500E+01 0.  0.
    3000022    2    5    5    0    0 -0.34336771811E+01  0.79044490975E+01 -0.61756843661E+00  0.86437455987E+01  0.24998536309E+00 0.  0.
        -13    1    4    4    0    0  0.18342769504E+01 -0.14068732076E+02 -0.67813605594E+00  0.14204389733E+02  0.10500000000E+00 0. -1.
         13    1    4    4    0    0  0.30173808151E+01 -0.24081186570E+02 -0.10540589673E+01  0.24292595557E+02  0.10500000000E+00 0.  1.
    3000001    1    5    5    0    0 -0.15700656625E+01  0.52778038494E+02  0.10559813920E+02  0.53856254265E+02  0.10000000000E+01 0.  1.
        -13    1    6    6    0    0 -0.20845976581E+01  0.49486043783E+01 -0.37513132208E+00  0.53838630367E+01  0.10500000000E+00 0. -1.
         13    1    6    6    0    0 -0.13490795230E+01  0.29558447192E+01 -0.24243711453E+00  0.32598825620E+01  0.10500000000E+00 0.  1.
</event>
<event>
11    0  0.3467594E-009  0.9118800E+02  0.7816531E-02  0.1126479E+00
         25   -1    0    0    0    0  0.00000000000E+00  0.00000000000E+00  0.99999998245E-14  0.12500000000E+03  0.12500000000E+03 0.  0.
    3000001    1    3    3    0    0 -0.26365309499E+02  0.35452053147E+01 -0.64313672794E+01  0.27387232623E+02  0.10000000000E+01 0.  1.
    1000022    2    1    0    0    0 -0.60242649934E+02 -0.29652467678E+01 -0.12972294637E+02  0.62499999777E+02  0.99999992282E+01 0.  0.
    3000022    2    3    3    0    0 -0.33877340435E+02 -0.65104520826E+01 -0.65409273575E+01  0.35112767154E+02  0.25001045272E+00 0.  0.
    1000022    2    1    0    0    0  0.60242649934E+02  0.29652467678E+01  0.12972294637E+02  0.62500000223E+02  0.10000002015E+02 0.  0.
    3000022    2    5    5    0    0  0.22183887063E+02  0.93755000202E+00  0.97084526858E+01  0.24234694139E+02  0.25000245289E+00 0.  0.
        -13    1    4    4    0    0 -0.23593910652E+02 -0.45708760671E+01 -0.45870076317E+01  0.24466654694E+02  0.10500000000E+00 0.  1.
         13    1    4    4    0    0 -0.10283429783E+02 -0.19395760154E+01 -0.19539197259E+01  0.10646112460E+02  0.10500000000E+00 0. -1.
    3000001    1    5    5    0    0  0.38058762870E+02  0.20276967658E+01  0.32638419511E+01  0.38265306084E+02  0.10000000000E+01 0. -1.
        -13    1    6    6    0    0  0.15820874796E+02  0.70825837260E+00  0.69091559561E+01  0.17278575469E+02  0.10500000000E+00 0.  1.
         13    1    6    6    0    0  0.63630122677E+01  0.22929162942E+00  0.27992967297E+01  0.69561186700E+01  0.10500000000E+00 0. -1.
</event>
<event>
11    0  0.3467594E-009  0.9118800E+02  0.7816531E-02  0.1126479E+00
         25   -1    0    0    0    0  0.00000000000E+00  0.00000000000E+00  0.99999998245E-14  0.12500000000E+03  0.12500000000E+03 0.  0.
    3000001    1    3    3    0    0 -0.53998911517E+01  0.13967131213E+02  0.40365423602E+01  0.15541340129E+02  0.10000000000E+01 0. -1.
    1000022    2    1    0    0    0 -0.50605945947E+01  0.59555345598E+02  0.15290559508E+02  0.62500000856E+02  0.10000004497E+02 0.  0.
    3000022    2    3    3    0    0  0.33929655696E+00  0.45588214385E+02  0.11254017147E+02  0.46958660727E+02  0.25000468551E+00 0.  0.
    1000022    2    1    0    0    0  0.50605945947E+01 -0.59555345598E+02 -0.15290559508E+02  0.62499999144E+02  0.99999938036E+01 0.  0.
    3000022    2    5    5    0    0  0.54300270572E+01 -0.51463549760E+02 -0.98168055577E+01  0.52672709461E+02  0.25000566679E+00 0.  0.
        -13    1    4    4    0    0  0.16976561239E+00  0.15467607111E+02  0.38192637630E+01  0.15933408010E+02  0.10500000000E+00 0.  1.
         13    1    4    4    0    0  0.16953094457E+00  0.30120607274E+02  0.74347533842E+01  0.31025252717E+02  0.10500000000E+00 0. -1.
    3000001    1    5    5    0    0 -0.36943246247E+00 -0.80917958381E+01 -0.54737539498E+01  0.98272896840E+01  0.10000000000E+01 0. -1.
        -13    1    6    6    0    0  0.32029695908E+01 -0.30818959597E+02 -0.59189668307E+01  0.31545403440E+02  0.10500000000E+00 0.  1.
         13    1    6    6    0    0  0.22270574663E+01 -0.20644590162E+02 -0.38978387270E+01  0.21127306020E+02  0.10500000000E+00 0. -1.
</event>
<event>
11    0  0.3467594E-009  0.9118800E+02  0.7816531E-02  0.1126479E+00
         25   -1    0    0    0    0  0.00000000000E+00  0.00000000000E+00  0.99999998245E-14  0.12500000000E+03  0.12500000000E+03 0.  0.
    3000001    1    3    3    0    0  0.33438115890E+02 -0.62661406758E+01  0.62068226194E+01  0.34596195748E+02  0.10000000000E+01 0. -1.
    1000022    2    1    0    0    0  0.58493020794E+02 -0.18545237284E+02  0.63945883867E+01  0.62499998932E+02  0.99999899184E+01 0.  0.
    3000022    2    3    3    0    0  0.25054904904E+02 -0.12279096608E+02  0.18776576731E+00  0.27903803183E+02  0.25000573376E+00 0.  0.
    1000022    2    1    0    0    0 -0.58493020794E+02  0.18545237284E+02 -0.63945883867E+01  0.62500001068E+02  0.10000003271E+02 0.  0.
    3000022    2    5    5    0    0 -0.46416068849E+02  0.12998752284E+02 -0.86811553980E+01  0.48977994826E+02  0.25001950406E+00 0.  0.
        -13    1    4    4    0    0  0.10312807440E+02 -0.50950153870E+01  0.24730462615E-01  0.11503252396E+02  0.10500000000E+00 0. -1.
         13    1    4    4    0    0  0.14742097463E+02 -0.71840812214E+01  0.16303530469E+00  0.16400550787E+02  0.10500000000E+00 0.  1.
    3000001    1    5    5    0    0 -0.12076951944E+02  0.55464850004E+01  0.22865670113E+01  0.13522006243E+02  0.10000000000E+01 0. -1.
        -13    1    6    6    0    0 -0.11780772042E+02  0.32836781814E+01 -0.21780112423E+01  0.12422716703E+02  0.10500000000E+00 0. -1.
         13    1    6    6    0    0 -0.34635296807E+02  0.97150741024E+01 -0.65031441558E+01  0.36555278123E+02  0.10500000000E+00 0.  1.
</event>
<event>
11    0  0.3467594E-009  0.9118800E+02  0.7816531E-02  0.1126479E+00
         25   -1    0    0    0    0  0.00000000000E+00  0.00000000000E+00  0.99999998245E-14  0.12500000000E+03  0.12500000000E+03 0.  0.
    3000001    1    3    3    0    0  0.25817082093E+01 -0.81613062691E+01 -0.11531482407E+02  0.14396083627E+02  0.10000000000E+01 0. -1.
    1000022    2    1    0    0    0  0.27163105821E+02 -0.27650603729E+02 -0.47998541078E+02  0.62499999203E+02  0.99999875152E+01 0.  0.
    3000022    2    3    3    0    0  0.24581397612E+02 -0.19489297460E+02 -0.36467058671E+02  0.48103915576E+02  0.25000313702E+00 0.  0.
    1000022    2    1    0    0    0 -0.27163105821E+02  0.27650603729E+02  0.47998541078E+02  0.62500000797E+02  0.99999974800E+01 0.  0.
    3000022    2    5    5    0    0 -0.25173022395E+02  0.26471643569E+02  0.40268214503E+02  0.54369297995E+02  0.24999096188E+00 0.  0.
        -13    1    4    4    0    0  0.74797886233E+01 -0.58983556557E+01 -0.11134422842E+02  0.14653471749E+02  0.10500000000E+00 0. -1.
         13    1    4    4    0    0  0.17101608988E+02 -0.13590941805E+02 -0.25332635829E+02  0.33450443826E+02  0.10500000000E+00 0.  1.
    3000001    1    5    5    0    0 -0.19900834259E+01  0.11789601605E+01  0.77303265746E+01  0.81307028018E+01  0.10000000000E+01 0. -1.
        -13    1    6    6    0    0 -0.18473506323E+02  0.19469478462E+02  0.29610045466E+02  0.39963694085E+02  0.10500000000E+00 0.  1.
         13    1    6    6    0    0 -0.66995160716E+01  0.70021651071E+01  0.10658169037E+02  0.14405603910E+02  0.10500000000E+00 0. -1.
</event>
<event>
11    0  0.3467594E-009  0.9118800E+02  0.7816531E-02  0.1126479E+00
         25   -1    0    0    0    0  0.00000000000E+00  0.00000000000E+00  0.99999998245E-14  0.12500000000E+03  0.12500000000E+03 0.  0.
    3000001    1    3    3    0    0  0.12330005405E+02 -0.29747147724E+02 -0.26043795860E+02  0.41427057991E+02  0.10000000000E+01 0.  1.
    1000022    2    1    0    0    0  0.15933005763E+02 -0.48878647268E+02 -0.34106703698E+02  0.62499999654E+02  0.99999944104E+01 0.  0.
    3000022    2    3    3    0    0  0.36030003580E+01 -0.19131499544E+02 -0.80629078380E+01  0.21072941663E+02  0.25000227099E+00 0.  0.
    1000022    2    1    0    0    0 -0.15933005763E+02  0.48878647268E+02  0.34106703698E+02  0.62500000346E+02  0.99999987344E+01 0.  0.
    3000022    2    5    5    0    0 -0.12056665844E+02  0.24040767934E+02  0.14172235914E+02  0.30401257896E+02  0.24999354401E+00 0.  0.
        -13    1    4    4    0    0  0.92473201161E+00 -0.50479816933E+01 -0.21489494906E+01  0.55647333613E+01  0.10500000000E+00 0. -1.
         13    1    4    4    0    0  0.26782683464E+01 -0.14083517851E+02 -0.59139583474E+01  0.15508208302E+02  0.10500000000E+00 0.  1.
    3000001    1    5    5    0    0 -0.38763399188E+01  0.24837879334E+02  0.19934467784E+02  0.32098742449E+02  0.10000000000E+01 0.  1.
        -13    1    6    6    0    0 -0.73330314859E+01  0.14618761702E+02  0.85478380462E+01  0.18454216449E+02  0.10500000000E+00 0. -1.
         13    1    6    6    0    0 -0.47236343581E+01  0.94220062312E+01  0.56243978679E+01  0.11947041447E+02  0.10500000000E+00 0.  1.
</event>
<event>
11    0  0.3467594E-009  0.9118800E+02  0.7816531E-02  0.1126479E+00
         25   -1    0    0    0    0  0.00000000000E+00  0.00000000000E+00  0.99999998245E-14  0.12500000000E+03  0.12500000000E+03 0.  0.
    3000001    1    3    3    0    0  0.92546552967E+00 -0.90184540001E+00  0.12651682713E+01  0.20665096967E+01  0.10000000000E+01 0.  1.
    1000022    2    1    0    0    0 -0.12404344889E+02 -0.47418413789E+02  0.37468337045E+02  0.62500001322E+02  0.10000007303E+02 0.  0.
    3000022    2    3    3    0    0 -0.13329810418E+02 -0.46516568389E+02  0.36203168773E+02  0.60433491626E+02  0.25000076984E+00 0.  0.
    1000022    2    1    0    0    0  0.12404344889E+02  0.47418413789E+02 -0.37468337045E+02  0.62499998678E+02  0.99999907727E+01 0.  0.
    3000022    2    5    5    0    0  0.13934308450E+02  0.41957942538E+02 -0.32195525987E+02  0.54692305597E+02  0.25000803520E+00 0.  0.
        -13    1    4    4    0    0 -0.54083168976E+01 -0.19075871170E+02  0.14795605168E+02  0.24739840538E+02  0.10500000000E+00 0.  1.
         13    1    4    4    0    0 -0.79214935207E+01 -0.27440697218E+02  0.21407563605E+02  0.35693651087E+02  0.10500000000E+00 0. -1.
    3000001    1    5    5    0    0 -0.15299635614E+01  0.54604712511E+01 -0.52728110580E+01  0.78076930803E+01  0.10000000000E+01 0. -1.
        -13    1    6    6    0    0  0.58192454951E+01  0.17323642920E+02 -0.13325864525E+02  0.22617734468E+02  0.10500000000E+00 0.  1.
         13    1    6    6    0    0  0.81150629550E+01  0.24634299618E+02 -0.18869661462E+02  0.32074571129E+02  0.10500000000E+00 0. -1.
</event>
<event>
11    0  0.3467594E-009  0.9118800E+02  0.7816531E-02  0.1126479E+00
         25   -1    0    0    0    0  0.00000000000E+00  0.00000000000E+00  0.99999998245E-14  0.12500000000E+03  0.12500000000E+03 0.  0.
    3000001    1    3    3    0    0 -0.17847106760E+02 -0.76923678076E+01 -0.60909287936E+01  0.20390957696E+02  0.10000000000E+01 0.  1.
    1000022    2    1    0    0    0 -0.59215596851E+02 -0.15277292633E+02 -0.81466248609E+01  0.62499999996E+02  0.99999961107E+01 0.  0.
    3000022    2    3    3    0    0 -0.41368490091E+02 -0.75849248259E+01 -0.20556960674E+01  0.42109042300E+02  0.25000011150E+00 0.  0.
    1000022    2    1    0    0    0  0.59215596851E+02  0.15277292633E+02  0.81466248609E+01  0.62500000004E+02  0.99999961644E+01 0.  0.
    3000022    2    5    5    0    0  0.85916814332E+01  0.74692117034E+00  0.44119474910E+01  0.96903387468E+01  0.25000655824E+00 0.  0.
        -13    1    4    4    0    0 -0.29438435426E+02 -0.54093427333E+01 -0.15038097551E+01  0.29969233189E+02  0.10500000000E+00 0. -1.
         13    1    4    4    0    0 -0.11930054665E+02 -0.21755820926E+01 -0.55188631225E+00  0.12139809111E+02  0.10500000000E+00 0.  1.
    3000001    1    5    5    0    0  0.50623915418E+02  0.14530371463E+02  0.37346773700E+01  0.52809661258E+02  0.10000000000E+01 0.  1.
        -13    1    6    6    0    0  0.29465570037E+01  0.28659219036E+00  0.14629793568E+01  0.33038866291E+01  0.10500000000E+00 0.  1.
         13    1    6    6    0    0  0.56451244296E+01  0.46032897998E+00  0.29489681341E+01  0.63864521177E+01  0.10500000000E+00 0. -1.
</event>
<event>
11    0  0.3467594E-009  0.9118800E+02  0.7816531E-02  0.1126479E+00
         25   -1    0    0    0    0  0.00000000000E+00  0.00000000000E+00  0.99999998245E-14  0.12500000000E+03  0.12500000000E+03 0.  0.
    3000001    1    3    3    0    0 -0.41900708886E+00  0.13505178039E+01  0.93577637029E+00  0.19685382126E+01  0.10000000000E+01 0.  1.
    1000022    2    1    0    0    0 -0.88712254179E+01  0.91525527611E+01  0.60363747435E+02  0.62500000925E+02  0.10000012438E+02 0.  0.
    3000022    2    3    3    0    0 -0.84522183290E+01  0.78020349572E+01  0.59427971065E+02  0.60531462712E+02  0.24997813976E+00 0.  0.
    1000022    2    1    0    0    0  0.88712254179E+01 -0.91525527611E+01 -0.60363747435E+02  0.62499999075E+02  0.10000000877E+02 0.  0.
    3000022    2    5    5    0    0 -0.66249693683E+00 -0.42837310782E+01 -0.86282143116E+01  0.96590805169E+01  0.25000016653E+00 0.  0.
        -13    1    4    4    0    0 -0.27085572831E+01  0.24681549335E+01  0.19171285836E+02  0.19518639731E+02  0.10500000000E+00 0. -1.
         13    1    4    4    0    0 -0.57436610459E+01  0.53338800237E+01  0.40256685229E+02  0.41012822982E+02  0.10500000000E+00 0.  1.
    3000001    1    5    5    0    0  0.95337223547E+01 -0.48688216828E+01 -0.51735533123E+02  0.52840918558E+02  0.10000000000E+01 0.  1.
        -13    1    6    6    0    0 -0.50555224402E+00 -0.31723532616E+01 -0.63259503317E+01  0.70956381592E+01  0.10500000000E+00 0. -1.
         13    1    6    6    0    0 -0.15694469280E+00 -0.11113778167E+01 -0.23022639799E+01  0.25634423577E+01  0.10500000000E+00 0.  1.
</event>
<event>
11    0  0.3467594E-009  0.9118800E+02  0.7816531E-02  0.1126479E+00
         25   -1    0    0    0    0  0.00000000000E+00  0.00000000000E+00  0.99999998245E-14  0.12500000000E+03  0.12500000000E+03 0.  0.
    3000001    1    3    3    0    0 -0.53521152197E+02  0.21400583919E+02  0.18367591036E+02  0.60505099992E+02  0.10000000000E+01 0.  1.
    1000022    2    1    0    0    0 -0.55252197328E+02  0.21206392867E+02  0.17427955900E+02  0.62500000644E+02  0.10000001284E+02 0.  0.
    3000022    2    3    3    0    0 -0.17310451304E+01 -0.19419105182E+00 -0.93963513583E+00  0.19949006520E+01  0.24997402777E+00 0.  0.
    1000022    2    1    0    0    0  0.55252197328E+02 -0.21206392867E+02 -0.17427955900E+02  0.62499999356E+02  0.99999932355E+01 0.  0.
    3000022    2    5    5    0    0  0.28113067593E+02 -0.67713526421E+01 -0.50934371798E+01  0.29363265946E+02  0.24999721881E+00 0.  0.
        -13    1    4    4    0    0 -0.10242326057E+01 -0.16359762270E+00 -0.51029614201E+00  0.11607083032E+01  0.10500000000E+00 0. -1.
         13    1    4    4    0    0 -0.70681252480E+00 -0.30593429125E-01 -0.42933899382E+00  0.83419234876E+00  0.10500000000E+00 0.  1.
    3000001    1    5    5    0    0  0.27139129734E+02 -0.14435040225E+02 -0.12334518720E+02  0.33136733410E+02  0.10000000000E+01 0. -1.
        -13    1    6    6    0    0  0.11106100866E+02 -0.27247438468E+01 -0.19738881710E+01  0.11605040499E+02  0.10500000000E+00 0.  1.
         13    1    6    6    0    0  0.17006966727E+02 -0.40466087953E+01 -0.31195490088E+01  0.17758225447E+02  0.10500000000E+00 0. -1.
</event>
<event>
11    0  0.3467594E-009  0.9118800E+02  0.7816531E-02  0.1126479E+00
         25   -1    0    0    0    0  0.00000000000E+00  0.00000000000E+00  0.99999998245E-14  0.12500000000E+03  0.12500000000E+03 0.  0.
    3000001    1    3    3    0    0  0.34090799229E+02 -0.16254442110E+02  0.37317783144E+02  0.53103732629E+02  0.10000000000E+01 0. -1.
    1000022    2    1    0    0    0  0.38272492710E+02 -0.15850955168E+02  0.45718852045E+02  0.62499999201E+02  0.99999994944E+01 0.  0.
    3000022    2    3    3    0    0  0.41816934818E+01  0.40348694218E+00  0.84010689004E+01  0.93962665722E+01  0.25000947496E+00 0.  0.
    1000022    2    1    0    0    0 -0.38272492710E+02  0.15850955168E+02 -0.45718852045E+02  0.62500000799E+02  0.10000009479E+02 0.  0.
    3000022    2    5    5    0    0 -0.31711442494E+02  0.14025721616E+02 -0.32156933297E+02  0.47291302709E+02  0.25000197125E+00 0.  0.
        -13    1    4    4    0    0  0.18618734109E+01  0.23364300660E+00  0.38399382793E+01  0.42751973804E+01  0.10500000000E+00 0.  1.
         13    1    4    4    0    0  0.23198200709E+01  0.16984393558E+00  0.45611306211E+01  0.51210691918E+01  0.10500000000E+00 0. -1.
    3000001    1    5    5    0    0 -0.65610502168E+01  0.18252335520E+01 -0.13561918748E+02  0.15208698090E+02  0.10000000000E+01 0. -1.
        -13    1    6    6    0    0 -0.16805443144E+02  0.73592159051E+01 -0.17010958127E+02  0.25019286549E+02  0.10500000000E+00 0.  1.
         13    1    6    6    0    0 -0.14905999349E+02  0.66665057104E+01 -0.15145975170E+02  0.22272016160E+02  0.10500000000E+00 0. -1.
</event>
<event>
11    0  0.3467594E-009  0.9118800E+02  0.7816531E-02  0.1126479E+00
         25   -1    0    0    0    0  0.00000000000E+00  0.00000000000E+00  0.99999998245E-14  0.12500000000E+03  0.12500000000E+03 0.  0.
    3000001    1    3    3    0    0  0.20041396869E+01  0.49921675395E+01  0.43769515145E+01  0.70068550140E+01  0.10000000000E+01 0.  1.
    1000022    2    1    0    0    0  0.28559562355E+02  0.22413104511E+02  0.49882408584E+02  0.62499995557E+02  0.99999451374E+01 0.  0.
    3000022    2    3    3    0    0  0.26555422668E+02  0.17420936972E+02  0.45505457069E+02  0.55493140543E+02  0.25001234623E+00 0.  0.
    1000022    2    1    0    0    0 -0.28559562355E+02 -0.22413104511E+02 -0.49882408584E+02  0.62500004443E+02  0.10000000678E+02 0.  0.
    3000022    2    5    5    0    0 -0.16530066590E+02 -0.12650712421E+02 -0.36428303560E+02  0.41956732804E+02  0.25000208492E+00 0.  0.
        -13    1    4    4    0    0  0.17356902874E+02  0.11391512164E+02  0.29648944420E+02  0.36195297443E+02  0.10500000000E+00 0.  1.
         13    1    4    4    0    0  0.91985197945E+01  0.60294248073E+01  0.15856512649E+02  0.19297843100E+02  0.10500000000E+00 0. -1.
    3000001    1    5    5    0    0 -0.12029495764E+02 -0.97623920904E+01 -0.13454105023E+02  0.20543271639E+02  0.10000000000E+01 0.  1.
        -13    1    6    6    0    0 -0.51439293120E+01 -0.39428306991E+01 -0.11441238841E+02  0.13149862886E+02  0.10500000000E+00 0. -1.
         13    1    6    6    0    0 -0.11386137279E+02 -0.87078817217E+01 -0.24987064719E+02  0.28806869918E+02  0.10500000000E+00 0.  1.
</event>
<event>
11    0  0.3467594E-009  0.9118800E+02  0.7816531E-02  0.1126479E+00
         25   -1    0    0    0    0  0.00000000000E+00  0.00000000000E+00  0.99999998245E-14  0.12500000000E+03  0.12500000000E+03 0.  0.
    3000001    1    3    3    0    0  0.13932271482E+02  0.39853315274E+02  0.20307665424E+02  0.46859323533E+02  0.10000000000E+01 0. -1.
    1000022    2    1    0    0    0  0.17386104765E+02  0.55032228139E+02  0.21804296385E+02  0.62500000136E+02  0.99999951641E+01 0.  0.
    3000022    2    3    3    0    0  0.34538332832E+01  0.15178912865E+02  0.14966309609E+01  0.15640676603E+02  0.25000051021E+00 0.  0.
    1000022    2    1    0    0    0 -0.17386104765E+02 -0.55032228139E+02 -0.21804296385E+02  0.62499999864E+02  0.99999934666E+01 0.  0.
    3000022    2    5    5    0    0 -0.54200630963E+01 -0.15048269806E+02 -0.10881186764E+02  0.19346582838E+02  0.25006800575E+00 0.  0.
        -13    1    4    4    0    0  0.17072346905E+01  0.71997993850E+01  0.70519902488E+00  0.74337132133E+01  0.10500000000E+00 0. -1.
         13    1    4    4    0    0  0.17465985926E+01  0.79791134800E+01  0.79143193597E+00  0.82069633897E+01  0.10500000000E+00 0.  1.
    3000001    1    5    5    0    0 -0.11966041669E+02 -0.39983958334E+02 -0.10923109620E+02  0.43153417026E+02  0.10000000000E+01 0. -1.
        -13    1    6    6    0    0 -0.37977779789E+01 -0.10672063903E+02 -0.77109742615E+01  0.13703511031E+02  0.10500000000E+00 0.  1.
         13    1    6    6    0    0 -0.16222851174E+01 -0.43762059028E+01 -0.31702125028E+01  0.56430718070E+01  0.10500000000E+00 0. -1.
</event>
<event>
11    0  0.3467594E-009  0.9118800E+02  0.7816531E-02  0.1126479E+00
         25   -1    0    0    0    0  0.00000000000E+00  0.00000000000E+00  0.99999998245E-14  0.12500000000E+03  0.12500000000E+03 0.  0.
    3000001    1    3    3    0    0  0.41537526111E+00 -0.22533030056E+01 -0.12914819118E+02  0.13154560574E+02  0.10000000000E+01 0. -1.
    1000022    2    1    0    0    0  0.20289731902E+02 -0.12203557363E+02 -0.56970605776E+02  0.62500000529E+02  0.10000005537E+02 0.  0.
    3000022    2    3    3    0    0  0.19874356640E+02 -0.99502543572E+01 -0.44055786658E+02  0.49345439955E+02  0.24998537841E+00 0.  0.
    1000022    2    1    0    0    0 -0.20289731902E+02  0.12203557363E+02  0.56970605776E+02  0.62499999471E+02  0.99999989220E+01 0.  0.
    3000022    2    5    5    0    0 -0.38275880680E+01  0.72259486769E+01  0.14162762502E+02  0.16355766748E+02  0.24999904961E+00 0.  0.
        -13    1    4    4    0    0  0.13987545767E+02 -0.70468032365E+01 -0.31090962269E+02  0.34813328370E+02  0.10500000000E+00 0. -1.
         13    1    4    4    0    0  0.58868108740E+01 -0.29034511207E+01 -0.12964824389E+02  0.14532111585E+02  0.10500000000E+00 0.  1.
    3000001    1    5    5    0    0 -0.16462143834E+02  0.49776086858E+01  0.42807843274E+02  0.46144232723E+02  0.10000000000E+01 0.  1.
        -13    1    6    6    0    0 -0.10748220610E+01  0.20258398225E+01  0.38952611918E+01  0.45214327599E+01  0.10500000000E+00 0. -1.
         13    1    6    6    0    0 -0.27527660070E+01  0.52001088544E+01  0.10267501310E+02  0.11834333988E+02  0.10500000000E+00 0.  1.
</event>
<event>
11    0  0.3467594E-009  0.9118800E+02  0.7816531E-02  0.1126479E+00
         25   -1    0    0    0    0  0.00000000000E+00  0.00000000000E+00  0.99999998245E-14  0.12500000000E+03  0.12500000000E+03 0.  0.
    3000001    1    3    3    0    0 -0.25115540118E+02 -0.32803602113E+02 -0.10636301720E+02  0.42673148247E+02  0.10000000000E+01 0. -1.
    1000022    2    1    0    0    0 -0.31352535169E+02 -0.49493280421E+02 -0.19330901903E+02  0.62499999783E+02  0.99999968061E+01 0.  0.
    3000022    2    3    3    0    0 -0.62369950506E+01 -0.16689678308E+02 -0.86946001833E+01  0.19826851536E+02  0.25000040134E+00 0.  0.
    1000022    2    1    0    0    0  0.31352535169E+02  0.49493280421E+02  0.19330901903E+02  0.62500000217E+02  0.99999995187E+01 0.  0.
    3000022    2    5    5    0    0  0.30087135903E+02  0.41926966531E+02  0.15608137993E+02  0.53914587453E+02  0.24999865730E+00 0.  0.
        -13    1    4    4    0    0 -0.27009676086E+01 -0.73022972855E+01 -0.37321329842E+01  0.86347329594E+01  0.10500000000E+00 0. -1.
         13    1    4    4    0    0 -0.35360274419E+01 -0.93873810222E+01 -0.49624671992E+01  0.11192118576E+02  0.10500000000E+00 0.  1.
    3000001    1    5    5    0    0  0.12653992655E+01  0.75663138904E+01  0.37227639105E+01  0.85854127636E+01  0.10000000000E+01 0. -1.
        -13    1    6    6    0    0  0.91311392185E+01  0.12759147549E+02  0.47897151928E+01  0.16405058556E+02  0.10500000000E+00 0.  1.
         13    1    6    6    0    0  0.20955996685E+02  0.29167818982E+02  0.10818422800E+02  0.37509528897E+02  0.10500000000E+00 0. -1.
</event>
<event>
11    0  0.3467594E-009  0.9118800E+02  0.7816531E-02  0.1126479E+00
         25   -1    0    0    0    0  0.00000000000E+00  0.00000000000E+00  0.99999998245E-14  0.12500000000E+03  0.12500000000E+03 0.  0.
    3000001    1    3    3    0    0  0.80334481917E+01  0.19900870141E+02  0.12392002235E+02  0.24802069301E+02  0.10000000000E+01 0. -1.
    1000022    2    1    0    0    0  0.29116671715E+02  0.49314999931E+02  0.22945591123E+02  0.62500001092E+02  0.10000009727E+02 0.  0.
    3000022    2    3    3    0    0  0.21083223524E+02  0.29414129790E+02  0.10553588888E+02  0.37697931791E+02  0.24995490645E+00 0.  0.
    1000022    2    1    0    0    0 -0.29116671715E+02 -0.49314999931E+02 -0.22945591123E+02  0.62499998908E+02  0.99999960755E+01 0.  0.
    3000022    2    5    5    0    0 -0.22740531250E+02 -0.30500002520E+02 -0.17498228331E+02  0.41876394562E+02  0.25002311939E+00 0.  0.
        -13    1    4    4    0    0  0.97083501600E+01  0.13443614885E+02  0.48691847673E+01  0.17283021417E+02  0.10500000000E+00 0.  1.
         13    1    4    4    0    0  0.11374873363E+02  0.15970514905E+02  0.56844041209E+01  0.20414910374E+02  0.10500000000E+00 0. -1.
    3000001    1    5    5    0    0 -0.63761404657E+01 -0.18814997411E+02 -0.54473627918E+01  0.20623604346E+02  0.10000000000E+01 0.  1.
        -13    1    6    6    0    0 -0.13992207427E+02 -0.18867923808E+02 -0.10794532357E+02  0.25851757606E+02  0.10500000000E+00 0.  1.
         13    1    6    6    0    0 -0.87483238224E+01 -0.11632078712E+02 -0.67036959739E+01  0.16024636956E+02  0.10500000000E+00 0. -1.
</event>
<event>
11    0  0.3467594E-009  0.9118800E+02  0.7816531E-02  0.1126479E+00
         25   -1    0    0    0    0  0.00000000000E+00  0.00000000000E+00  0.99999998245E-14  0.12500000000E+03  0.12500000000E+03 0.  0.
    3000001    1    3    3    0    0 -0.73435740638E+01 -0.97668998045E+00 -0.22452974619E+01  0.78053420194E+01  0.10000000000E+01 0. -1.
    1000022    2    1    0    0    0 -0.45762643246E+02 -0.16983511572E+02 -0.37730503637E+02  0.62499999646E+02  0.99999934404E+01 0.  0.
    3000022    2    3    3    0    0 -0.38419069182E+02 -0.16006821592E+02 -0.35485206175E+02  0.54694657626E+02  0.25000250205E+00 0.  0.
    1000022    2    1    0    0    0  0.45762643246E+02  0.16983511572E+02  0.37730503637E+02  0.62500000354E+02  0.99999978708E+01 0.  0.
    3000022    2    5    5    0    0  0.12241018159E+02  0.18002409525E+01  0.53880598012E+01  0.13497299118E+02  0.25000401504E+00 0.  0.
        -13    1    4    4    0    0 -0.13823701757E+02 -0.58192560249E+01 -0.12811935102E+02  0.19726002560E+02  0.10500000000E+00 0.  1.
         13    1    4    4    0    0 -0.24595367426E+02 -0.10187565567E+02 -0.22673271073E+02  0.34968655066E+02  0.10500000000E+00 0. -1.
    3000001    1    5    5    0    0  0.33521625087E+02  0.15183270620E+02  0.32342443836E+02  0.49002701237E+02  0.10000000000E+01 0. -1.
        -13    1    6    6    0    0  0.88165642833E+01  0.13068017331E+01  0.38391514386E+01  0.97051349965E+01  0.10500000000E+00 0.  1.
         13    1    6    6    0    0  0.34244538754E+01  0.49343921937E+00  0.15489083625E+01  0.37921641213E+01  0.10500000000E+00 0. -1.
</event>
<event>
11    0  0.3467594E-009  0.9118800E+02  0.7816531E-02  0.1126479E+00
         25   -1    0    0    0    0  0.00000000000E+00  0.00000000000E+00  0.99999998245E-14  0.12500000000E+03  0.12500000000E+03 0.  0.
    3000001    1    3    3    0    0 -0.12848212596E+02 -0.13679598266E+02  0.40410879625E+02  0.44567332966E+02  0.10000000000E+01 0. -1.
    1000022    2    1    0    0    0 -0.22262661507E+02 -0.14655606277E+02  0.55640247635E+02  0.62500001178E+02  0.10000004881E+02 0.  0.
    3000022    2    3    3    0    0 -0.94144489116E+01 -0.97600801067E+00  0.15229368010E+02  0.17932668212E+02  0.24999854540E+00 0.  0.
    1000022    2    1    0    0    0  0.22262661507E+02  0.14655606277E+02 -0.55640247635E+02  0.62499998822E+02  0.99999901538E+01 0.  0.
    3000022    2    5    5    0    0  0.59048232320E+01 -0.12495615688E+00 -0.75604832756E+01  0.95971856661E+01  0.25002781422E+00 0.  0.
        -13    1    4    4    0    0 -0.35260118904E+01 -0.30543114618E+00  0.57057854503E+01  0.67151366808E+01  0.10500000000E+00 0.  1.
         13    1    4    4    0    0 -0.58884370212E+01 -0.67057686449E+00  0.95235825599E+01  0.11217531531E+02  0.10500000000E+00 0. -1.
    3000001    1    5    5    0    0  0.16357838276E+02  0.14780562434E+02 -0.48079764360E+02  0.52902813156E+02  0.10000000000E+01 0. -1.
        -13    1    6    6    0    0  0.34926383122E+01 -0.10616810039E+00 -0.45610871476E+01  0.57466803473E+01  0.10500000000E+00 0. -1.
         13    1    6    6    0    0  0.24121849197E+01 -0.18788056494E-01 -0.29993961280E+01  0.38505053189E+01  0.10500000000E+00 0.  1.
</event>
<event>
11    0  0.3467594E-009  0.9118800E+02  0.7816531E-02  0.1126479E+00
         25   -1    0    0    0    0  0.00000000000E+00  0.00000000000E+00  0.99999998245E-14  0.12500000000E+03  0.12500000000E+03 0.  0.
    3000001    1    3    3    0    0  0.27734379345E+02 -0.27415438272E+02  0.57834065895E+01  0.39436656110E+02  0.10000000000E+01 0. -1.
    1000022    2    1    0    0    0  0.42814221081E+02 -0.41303804297E+02  0.16345914912E+02  0.62499991196E+02  0.99999094514E+01 0.  0.
    3000022    2    3    3    0    0  0.15079841736E+02 -0.13888366024E+02  0.10562508323E+02  0.23063335086E+02  0.25001128068E+00 0.  0.
    1000022    2    1    0    0    0 -0.42814221081E+02  0.41303804297E+02 -0.16345914912E+02  0.62500008804E+02  0.10000019502E+02 0.  0.
    3000022    2    5    5    0    0 -0.36978297901E+02  0.34504535917E+02 -0.17252730627E+02  0.53438531849E+02  0.24991521452E+00 0.  0.
        -13    1    4    4    0    0  0.83242954603E+01 -0.77056269742E+01  0.57767193530E+01  0.12729968321E+02  0.10500000000E+00 0.  1.
         13    1    4    4    0    0  0.67555462753E+01 -0.61827390502E+01  0.47857889695E+01  0.10333366765E+02  0.10500000000E+00 0. -1.
    3000001    1    5    5    0    0 -0.58359231802E+01  0.67992683798E+01  0.90681571495E+00  0.90614769551E+01  0.10000000000E+01 0.  1.
        -13    1    6    6    0    0 -0.22489323649E+02  0.20930498394E+02 -0.10530569112E+02  0.32477058857E+02  0.10500000000E+00 0.  1.
         13    1    6    6    0    0 -0.14488974252E+02  0.13574037523E+02 -0.67221615155E+01  0.20961472992E+02  0.10500000000E+00 0. -1.
</event>
<event>
11    0  0.3467594E-009  0.9118800E+02  0.7816531E-02  0.1126479E+00
         25   -1    0    0    0    0  0.00000000000E+00  0.00000000000E+00  0.99999998245E-14  0.12500000000E+03  0.12500000000E+03 0.  0.
    3000001    1    3    3    0    0 -0.63595195266E+01 -0.49463694860E+01  0.63089291812E+01  0.10281665581E+02  0.10000000000E+01 0. -1.
    1000022    2    1    0    0    0 -0.30791990632E+02 -0.46518833597E+02  0.26345806890E+02  0.62499999388E+02  0.99999908276E+01 0.  0.
    3000022    2    3    3    0    0 -0.24432471105E+02 -0.41572464111E+02  0.20036877709E+02  0.52218333807E+02  0.25000149591E+00 0.  0.
    1000022    2    1    0    0    0  0.30791990632E+02  0.46518833597E+02 -0.26345806890E+02  0.62500000612E+02  0.99999984750E+01 0.  0.
    3000022    2    5    5    0    0  0.68839613577E+01  0.12574912219E+02 -0.11553835437E+02  0.18413879420E+02  0.25000139516E+00 0.  0.
        -13    1    4    4    0    0 -0.11928889278E+02 -0.20240668406E+02  0.98289647842E+01  0.25467678156E+02  0.10500000000E+00 0. -1.
         13    1    4    4    0    0 -0.12503581827E+02 -0.21331795705E+02  0.10207912925E+02  0.26750655652E+02  0.10500000000E+00 0.  1.
    3000001    1    5    5    0    0  0.23908029274E+02  0.33943921378E+02 -0.14791971453E+02  0.44086121192E+02  0.10000000000E+01 0. -1.
        -13    1    6    6    0    0  0.24199784399E+01  0.45181424726E+01 -0.41743894543E+01  0.66110860960E+01  0.10500000000E+00 0.  1.
         13    1    6    6    0    0  0.44639829178E+01  0.80567697465E+01 -0.73794459825E+01  0.11802793324E+02  0.10500000000E+00 0. -1.
</event>
<event>
11    0  0.3467594E-009  0.9118800E+02  0.7816531E-02  0.1126479E+00
         25   -1    0    0    0    0  0.00000000000E+00  0.00000000000E+00  0.99999998245E-14  0.12500000000E+03  0.12500000000E+03 0.  0.
    3000001    1    3    3    0    0 -0.14945640462E+02  0.98265390994E+01 -0.38087061088E+02  0.42089871250E+02  0.10000000000E+01 0.  1.
    1000022    2    1    0    0    0 -0.15679628330E+02  0.16771966004E+02 -0.57263430872E+02  0.62499999977E+02  0.99999946846E+01 0.  0.
    3000022    2    3    3    0    0 -0.73398786779E+00  0.69454269044E+01 -0.19176369784E+02  0.20410128727E+02  0.25000699616E+00 0.  0.
    1000022    2    1    0    0    0  0.15679628330E+02 -0.16771966004E+02  0.57263430872E+02  0.62500000023E+02  0.99999949750E+01 0.  0.
    3000022    2    5    5    0    0 -0.12062611445E+00 -0.50688724043E+01  0.15887954128E+02  0.16679256728E+02  0.25000106552E+00 0.  0.
        -13    1    4    4    0    0 -0.55557785223E+00  0.48577703309E+01 -0.13365725995E+02  0.14232366483E+02  0.10500000000E+00 0. -1.
         13    1    4    4    0    0 -0.17841001557E+00  0.20876565735E+01 -0.58106437887E+01  0.61777622439E+01  0.10500000000E+00 0.  1.
    3000001    1    5    5    0    0  0.15800254444E+02 -0.11703093600E+02  0.41375476744E+02  0.45820743295E+02  0.10000000000E+01 0. -1.
        -13    1    6    6    0    0 -0.84081695234E-01 -0.15478258616E+01  0.48509934468E+01  0.50937213361E+01  0.10500000000E+00 0. -1.
         13    1    6    6    0    0 -0.36544419216E-01 -0.35210465427E+01  0.11036960681E+02  0.11585535392E+02  0.10500000000E+00 0.  1.
</event>
<event>
11    0  0.3467594E-009  0.9118800E+02  0.7816531E-02  0.1126479E+00
         25   -1    0    0    0    0  0.00000000000E+00  0.00000000000E+00  0.99999998245E-14  0.12500000000E+03  0.12500000000E+03 0.  0.
    3000001    1    3    3    0    0 -0.22697706548E+02  0.10451540426E+02  0.15851014239E+02  0.29608701968E+02  0.10000000000E+01 0. -1.
    1000022    2    1    0    0    0 -0.48032717748E+02  0.12175463910E+02  0.36754131551E+02  0.62500000408E+02  0.99999984582E+01 0.  0.
    3000022    2    3    3    0    0 -0.25335011200E+02  0.17239234835E+01  0.20903117312E+02  0.32891298439E+02  0.24998997117E+00 0.  0.
    1000022    2    1    0    0    0  0.48032717748E+02 -0.12175463910E+02 -0.36754131551E+02  0.62499999592E+02  0.99999933642E+01 0.  0.
    3000022    2    5    5    0    0  0.11017322111E+02 -0.19224322158E+01 -0.13719220504E+02  0.17701882444E+02  0.24999739748E+00 0.  0.
        -13    1    4    4    0    0 -0.17605849086E+02  0.11507901027E+01  0.14527062457E+02  0.22854688984E+02  0.10500000000E+00 0. -1.
         13    1    4    4    0    0 -0.77291621137E+01  0.57313338084E+00  0.63760548544E+01  0.10036609455E+02  0.10500000000E+00 0.  1.
    3000001    1    5    5    0    0  0.37015395637E+02 -0.10253031694E+02 -0.23034911047E+02  0.44798117148E+02  0.10000000000E+01 0.  1.
        -13    1    6    6    0    0  0.56922414882E+01 -0.10267221790E+01 -0.70016166842E+01  0.90823693376E+01  0.10500000000E+00 0. -1.
         13    1    6    6    0    0  0.53250806230E+01 -0.89571003676E+00 -0.67176038202E+01  0.86195131067E+01  0.10500000000E+00 0.  1.
</event>
<event>
11    0  0.3467594E-009  0.9118800E+02  0.7816531E-02  0.1126479E+00
         25   -1    0    0    0    0  0.00000000000E+00  0.00000000000E+00  0.99999998245E-14  0.12500000000E+03  0.12500000000E+03 0.  0.
    3000001    1    3    3    0    0  0.59835444862E+01 -0.11061925696E+02 -0.25193353186E+02  0.28175770611E+02  0.10000000000E+01 0.  1.
    1000022    2    1    0    0    0  0.20732180873E+02 -0.29779602027E+02 -0.49895913038E+02  0.62499998866E+02  0.99999849822E+01 0.  0.
    3000022    2    3    3    0    0  0.14748636387E+02 -0.18717676331E+02 -0.24702559852E+02  0.34324228255E+02  0.24999913626E+00 0.  0.
    1000022    2    1    0    0    0 -0.20732180873E+02  0.29779602027E+02  0.49895913038E+02  0.62500001134E+02  0.99999991631E+01 0.  0.
    3000022    2    5    5    0    0 -0.18183613873E+02  0.29682541010E+02  0.45033955475E+02  0.56919387733E+02  0.24999968861E+00 0.  0.
        -13    1    4    4    0    0  0.72589059036E+01 -0.91541493030E+01 -0.12027915168E+02  0.16768182151E+02  0.10500000000E+00 0.  1.
         13    1    4    4    0    0  0.74897304834E+01 -0.95635270281E+01 -0.12674644684E+02  0.17556046104E+02  0.10500000000E+00 0. -1.
    3000001    1    5    5    0    0 -0.25485669998E+01  0.97061016838E-01  0.48619575626E+01  0.55806134013E+01  0.10000000000E+01 0.  1.
        -13    1    6    6    0    0 -0.64309284493E+01  0.10526156034E+02  0.16049060928E+02  0.20242039997E+02  0.10500000000E+00 0.  1.
         13    1    6    6    0    0 -0.11752685424E+02  0.19156384977E+02  0.28984894547E+02  0.36677347736E+02  0.10500000000E+00 0. -1.
</event>
<event>
11    0  0.3467594E-009  0.9118800E+02  0.7816531E-02  0.1126479E+00
         25   -1    0    0    0    0  0.00000000000E+00  0.00000000000E+00  0.99999998245E-14  0.12500000000E+03  0.12500000000E+03 0.  0.
    3000001    1    3    3    0    0 -0.32396447008E+02  0.15808546072E+02  0.22844326906E+02  0.42688443160E+02  0.10000000000E+01 0. -1.
    1000022    2    1    0    0    0 -0.49559750851E+02  0.24679898014E+02  0.27221018480E+02  0.62500000686E+02  0.99999984102E+01 0.  0.
    3000022    2    3    3    0    0 -0.17163303843E+02  0.88713519423E+01  0.43766915737E+01  0.19811557526E+02  0.24999670315E+00 0.  0.
    1000022    2    1    0    0    0  0.49559750851E+02 -0.24679898014E+02 -0.27221018480E+02  0.62499999314E+02  0.99999898365E+01 0.  0.
    3000022    2    5    5    0    0  0.24741281039E+02 -0.68416152783E+01 -0.12988451152E+02  0.28769794044E+02  0.24999792307E+00 0.  0.
        -13    1    4    4    0    0 -0.75133532165E+01  0.38251519372E+01  0.19516844383E+01  0.86546150143E+01  0.10500000000E+00 0.  1.
         13    1    4    4    0    0 -0.96499506269E+01  0.50462000051E+01  0.24250071354E+01  0.11156942511E+02  0.10500000000E+00 0. -1.
    3000001    1    5    5    0    0  0.24818469813E+02 -0.17838282736E+02 -0.14232567328E+02  0.33730205270E+02  0.10000000000E+01 0.  1.
        -13    1    6    6    0    0  0.93931206554E+01 -0.25766376353E+01 -0.49927314217E+01  0.10945691810E+02  0.10500000000E+00 0.  1.
         13    1    6    6    0    0  0.15348160383E+02 -0.42649776430E+01 -0.79957197307E+01  0.17824102234E+02  0.10500000000E+00 0. -1.
</event>
<event>
11    0  0.3467594E-009  0.9118800E+02  0.7816531E-02  0.1126479E+00
         25   -1    0    0    0    0  0.00000000000E+00  0.00000000000E+00  0.99999998245E-14  0.12500000000E+03  0.12500000000E+03 0.  0.
    3000001    1    3    3    0    0 -0.35671175168E+02 -0.24492636118E+02  0.17381247118E+02  0.46641502047E+02  0.10000000000E+01 0. -1.
    1000022    2    1    0    0    0 -0.46799462291E+02 -0.35742219401E+02  0.18399838952E+02  0.62499999210E+02  0.99999954676E+01 0.  0.
    3000022    2    3    3    0    0 -0.11128287124E+02 -0.11249583283E+02  0.10185918337E+01  0.15858497163E+02  0.25000918415E+00 0.  0.
    1000022    2    1    0    0    0  0.46799462291E+02  0.35742219401E+02 -0.18399838952E+02  0.62500000790E+02  0.10000005341E+02 0.  0.
    3000022    2    5    5    0    0  0.25920130791E+02  0.16729289130E+02 -0.50995540517E+01  0.31269637683E+02  0.24998850831E+00 0.  0.
        -13    1    4    4    0    0 -0.31654336529E+01 -0.32220517580E+01  0.32938841229E+00  0.45300231201E+01  0.10500000000E+00 0. -1.
         13    1    4    4    0    0 -0.79628534711E+01 -0.80275315248E+01  0.68920342142E+00  0.11328474043E+02  0.10500000000E+00 0.  1.
    3000001    1    5    5    0    0  0.20879331501E+02  0.19012930270E+02 -0.13300284900E+02  0.31230363107E+02  0.10000000000E+01 0. -1.
        -13    1    6    6    0    0  0.14952964677E+02  0.96920097013E+01 -0.30013036163E+01  0.18070557631E+02  0.10500000000E+00 0.  1.
         13    1    6    6    0    0  0.10967166114E+02  0.70372794291E+01 -0.20982504354E+01  0.13199080052E+02  0.10500000000E+00 0. -1.
</event>
<event>
11    0  0.3467594E-009  0.9118800E+02  0.7816531E-02  0.1126479E+00
         25   -1    0    0    0    0  0.00000000000E+00  0.00000000000E+00  0.99999998245E-14  0.12500000000E+03  0.12500000000E+03 0.  0.
    3000001    1    3    3    0    0 -0.28487607478E+01 -0.12069791310E+02 -0.19374510690E+02  0.23025354819E+02  0.10000000000E+01 0.  1.
    1000022    2    1    0    0    0  0.97454696859E+00 -0.40273367522E+02 -0.46726398043E+02  0.62500000291E+02  0.99999944521E+01 0.  0.
    3000022    2    3    3    0    0  0.38233077164E+01 -0.28203576212E+02 -0.27351887353E+02  0.39474645473E+02  0.25000076021E+00 0.  0.
    1000022    2    1    0    0    0 -0.97454696859E+00  0.40273367522E+02  0.46726398043E+02  0.62499999709E+02  0.99999908083E+01 0.  0.
    3000022    2    5    5    0    0 -0.49658374098E+01  0.13495309611E+02  0.15023512994E+02  0.20797869004E+02  0.24997951381E+00 0.  0.
        -13    1    4    4    0    0  0.25036155687E+01 -0.18540994437E+02 -0.18054924803E+02  0.26000536539E+02  0.10500000000E+00 0. -1.
         13    1    4    4    0    0  0.13196921477E+01 -0.96625817746E+01 -0.92969625495E+01  0.13474108934E+02  0.10500000000E+00 0.  1.
    3000001    1    5    5    0    0  0.39912904412E+01  0.26778057911E+02  0.31702885049E+02  0.41702130705E+02  0.10000000000E+01 0.  1.
        -13    1    6    6    0    0 -0.25840453156E+01  0.69289439251E+01  0.76398711129E+01  0.10633259601E+02  0.10500000000E+00 0.  1.
         13    1    6    6    0    0 -0.23817920942E+01  0.65663656856E+01  0.73836418808E+01  0.10164609403E+02  0.10500000000E+00 0. -1.
</event>
<event>
11    0  0.3467594E-009  0.9118800E+02  0.7816531E-02  0.1126479E+00
         25   -1    0    0    0    0  0.00000000000E+00  0.00000000000E+00  0.99999998245E-14  0.12500000000E+03  0.12500000000E+03 0.  0.
    3000001    1    3    3    0    0  0.20014234132E+01  0.42885492526E+02 -0.13173028985E+02  0.44918814070E+02  0.10000000000E+01 0.  1.
    1000022    2    1    0    0    0  0.85909979357E+01  0.57871870432E+02 -0.19577823725E+02  0.62499994705E+02  0.99999761739E+01 0.  0.
    3000022    2    3    3    0    0  0.65895745225E+01  0.14986377907E+02 -0.64047947399E+01  0.17581180635E+02  0.25000341175E+00 0.  0.
    1000022    2    1    0    0    0 -0.85909979357E+01 -0.57871870432E+02  0.19577823725E+02  0.62500005295E+02  0.10000042358E+02 0.  0.
    3000022    2    5    5    0    0 -0.87326868497E+01 -0.25638698157E+02  0.81443544613E+01  0.28284194767E+02  0.25000242964E+00 0.  0.
        -13    1    4    4    0    0  0.39826734416E+01  0.91972246109E+01 -0.39483301366E+01  0.10772695306E+02  0.10500000000E+00 0.  1.
         13    1    4    4    0    0  0.26069010809E+01  0.57891532957E+01 -0.24564646033E+01  0.68084853289E+01  0.10500000000E+00 0. -1.
    3000001    1    5    5    0    0  0.14168891400E+00 -0.32233172276E+02  0.11433469264E+02  0.34215810528E+02  0.10000000000E+01 0. -1.
        -13    1    6    6    0    0 -0.34155512391E+01 -0.10072902991E+02  0.31350730133E+01  0.11089142110E+02  0.10500000000E+00 0.  1.
         13    1    6    6    0    0 -0.53171356106E+01 -0.15565795165E+02  0.50092814480E+01  0.17195052656E+02  0.10500000000E+00 0. -1.
</event>
<event>
11    0  0.3467594E-009  0.9118800E+02  0.7816531E-02  0.1126479E+00
         25   -1    0    0    0    0  0.00000000000E+00  0.00000000000E+00  0.99999998245E-14  0.12500000000E+03  0.12500000000E+03 0.  0.
    3000001    1    3    3    0    0 -0.57065488996E+00  0.54814747172E+01  0.15672720799E+01  0.58162319289E+01  0.10000000000E+01 0.  1.
    1000022    2    1    0    0    0  0.21599387026E+02  0.57370557506E+02  0.69523799892E+01  0.62499999933E+02  0.10000000782E+02 0.  0.
    3000022    2    3    3    0    0  0.22170041916E+02  0.51889082789E+02  0.53851079093E+01  0.56683768004E+02  0.24999342106E+00 0.  0.
    1000022    2    1    0    0    0 -0.21599387026E+02 -0.57370557506E+02 -0.69523799892E+01  0.62500000067E+02  0.10000001617E+02 0.  0.
    3000022    2    5    5    0    0 -0.19772669803E+02 -0.55970621188E+02 -0.77549856125E+01  0.59865442552E+02  0.25000570938E+00 0.  0.
        -13    1    4    4    0    0  0.10349606147E+02  0.24151772129E+02  0.25690460114E+01  0.26401391380E+02  0.10500000000E+00 0.  1.
         13    1    4    4    0    0  0.11820435770E+02  0.27737310660E+02  0.28160618979E+01  0.30282376625E+02  0.10500000000E+00 0. -1.
    3000001    1    5    5    0    0 -0.18267172238E+01 -0.13999363187E+01  0.80260562339E+00  0.26345575148E+01  0.10000000000E+01 0.  1.
        -13    1    6    6    0    0 -0.10024474417E+02 -0.28332137477E+02 -0.38594711181E+01  0.30300274647E+02  0.10500000000E+00 0.  1.
         13    1    6    6    0    0 -0.97481953855E+01 -0.27638483710E+02 -0.38955144944E+01  0.29565167905E+02  0.10500000000E+00 0. -1.
</event>
<event>
11    0  0.3467594E-009  0.9118800E+02  0.7816531E-02  0.1126479E+00
         25   -1    0    0    0    0  0.00000000000E+00  0.00000000000E+00  0.99999998245E-14  0.12500000000E+03  0.12500000000E+03 0.  0.
    3000001    1    3    3    0    0 -0.33920217265E+02 -0.93015047914E+01 -0.29333746655E+02  0.45810127958E+02  0.10000000000E+01 0.  1.
    1000022    2    1    0    0    0 -0.42783707971E+02 -0.92670072623E+01 -0.43473291903E+02  0.62500001942E+02  0.10000002126E+02 0.  0.
    3000022    2    3    3    0    0 -0.88634907061E+01  0.34497529103E-01 -0.14139545248E+02  0.16689873984E+02  0.24999243382E+00 0.  0.
    1000022    2    1    0    0    0  0.42783707971E+02  0.92670072623E+01  0.43473291903E+02  0.62499998058E+02  0.99999778506E+01 0.  0.
    3000022    2    5    5    0    0  0.21606137242E+02  0.29157158142E+00  0.17629258732E+02  0.27888410429E+02  0.24998462048E+00 0.  0.
        -13    1    4    4    0    0 -0.57213101127E+01  0.20233129617E-01 -0.90176282596E+01  0.10680002023E+02  0.10500000000E+00 0.  1.
         13    1    4    4    0    0 -0.31421805934E+01  0.14264399485E-01 -0.51219169881E+01  0.60098719610E+01  0.10500000000E+00 0. -1.
    3000001    1    5    5    0    0  0.21177570729E+02  0.89754356809E+01  0.25844033172E+02  0.34611587629E+02  0.10000000000E+01 0.  1.
        -13    1    6    6    0    0  0.86825274079E+01  0.17258688854E+00  0.70459678253E+01  0.11183593162E+02  0.10500000000E+00 0.  1.
         13    1    6    6    0    0  0.12923609834E+02  0.11898469288E+00  0.10583290906E+02  0.16704817267E+02  0.10500000000E+00 0. -1.
</event>
<event>
11    0  0.3467594E-009  0.9118800E+02  0.7816531E-02  0.1126479E+00
         25   -1    0    0    0    0  0.00000000000E+00  0.00000000000E+00  0.99999998245E-14  0.12500000000E+03  0.12500000000E+03 0.  0.
    3000001    1    3    3    0    0 -0.10560828204E+02 -0.53787152781E+02  0.76857719862E+01  0.55359371272E+02  0.10000000000E+01 0. -1.
    1000022    2    1    0    0    0 -0.14752002539E+02 -0.59055631893E+02  0.10052895337E+02  0.62500000474E+02  0.10000005869E+02 0.  0.
    3000022    2    3    3    0    0 -0.41911743358E+01 -0.52684791122E+01  0.23671233503E+01  0.71406292018E+01  0.24999594804E+00 0.  0.
    1000022    2    1    0    0    0  0.14752002539E+02  0.59055631893E+02 -0.10052895337E+02  0.62499999526E+02  0.99999999454E+01 0.  0.
    3000022    2    5    5    0    0  0.12935055988E+02  0.33067478992E+02 -0.76138178727E+01  0.36315376465E+02  0.25000980046E+00 0.  0.
        -13    1    4    4    0    0 -0.17873644567E+01 -0.22190871272E+01  0.10685916287E+01  0.30449848026E+01  0.10500000000E+00 0.  1.
         13    1    4    4    0    0 -0.24038098791E+01 -0.30493919851E+01  0.12985317216E+01  0.40956443993E+01  0.10500000000E+00 0. -1.
    3000001    1    5    5    0    0  0.18169465517E+01  0.25988152901E+02 -0.24390774638E+01  0.26184623061E+02  0.10000000000E+01 0. -1.
        -13    1    6    6    0    0  0.42675107397E+01  0.10828536412E+02 -0.24515191775E+01  0.11894949349E+02  0.10500000000E+00 0. -1.
         13    1    6    6    0    0  0.86675452481E+01  0.22238942580E+02 -0.51622986952E+01  0.24420427116E+02  0.10500000000E+00 0.  1.
</event>
<event>
11    0  0.3467594E-009  0.9118800E+02  0.7816531E-02  0.1126479E+00
         25   -1    0    0    0    0  0.00000000000E+00  0.00000000000E+00  0.99999998245E-14  0.12500000000E+03  0.12500000000E+03 0.  0.
    3000001    1    3    3    0    0 -0.38937178521E+01  0.49252679701E+00  0.27179382521E+01  0.48775823621E+01  0.10000000000E+01 0. -1.
    1000022    2    1    0    0    0 -0.35234197267E+02 -0.19648215465E+02  0.46677070270E+02  0.62499999469E+02  0.10000000829E+02 0.  0.
    3000022    2    3    3    0    0 -0.31340479415E+02 -0.20140742262E+02  0.43959132018E+02  0.57622417107E+02  0.25003321850E+00 0.  0.
    1000022    2    1    0    0    0  0.35234197267E+02  0.19648215465E+02 -0.46677070270E+02  0.62500000531E+02  0.10000007470E+02 0.  0.
    3000022    2    5    5    0    0  0.11370958424E+02  0.89912257092E+01 -0.23182860433E+02  0.27343159169E+02  0.25000043686E+00 0.  0.
        -13    1    4    4    0    0 -0.15032454648E+02 -0.95801129822E+01  0.21035667567E+02  0.27572877842E+02  0.10500000000E+00 0.  1.
         13    1    4    4    0    0 -0.16308024767E+02 -0.10560629279E+02  0.22923464451E+02  0.30049539264E+02  0.10500000000E+00 0. -1.
    3000001    1    5    5    0    0  0.23863238843E+02  0.10656989755E+02 -0.23494209837E+02  0.35156841363E+02  0.10000000000E+01 0.  1.
        -13    1    6    6    0    0  0.49901532933E+01  0.40239610009E+01 -0.10299183026E+02  0.12131697657E+02  0.10500000000E+00 0.  1.
         13    1    6    6    0    0  0.63808051304E+01  0.49672647084E+01 -0.12883677407E+02  0.15211461512E+02  0.10500000000E+00 0. -1.
</event>
<event>
11    0  0.3467594E-009  0.9118800E+02  0.7816531E-02  0.1126479E+00
         25   -1    0    0    0    0  0.00000000000E+00  0.00000000000E+00  0.99999998245E-14  0.12500000000E+03  0.12500000000E+03 0.  0.
    3000001    1    3    3    0    0 -0.13384868591E+02  0.45640553311E+02  0.32554222662E+02  0.57645400744E+02  0.10000000000E+01 0.  1.
    1000022    2    1    0    0    0 -0.14282776139E+02  0.47218396348E+02  0.37049639207E+02  0.62499996665E+02  0.99999584930E+01 0.  0.
    3000022    2    3    3    0    0 -0.89790754795E+00  0.15778430364E+01  0.44954165445E+01  0.48545959211E+01  0.25001007111E+00 0.  0.
    1000022    2    1    0    0    0  0.14282776139E+02 -0.47218396348E+02 -0.37049639207E+02  0.62500003335E+02  0.10000000184E+02 0.  0.
    3000022    2    5    5    0    0  0.17821938496E+01 -0.20108716891E+02 -0.18187648851E+02  0.27173328457E+02  0.24999749945E+00 0.  0.
        -13    1    4    4    0    0 -0.19746973680E+00  0.36480961920E+00  0.10482512437E+01  0.11322261369E+01  0.10500000000E+00 0.  1.
         13    1    4    4    0    0 -0.70043781114E+00  0.12130334172E+01  0.34471653008E+01  0.37223697841E+01  0.10500000000E+00 0. -1.
    3000001    1    5    5    0    0  0.12500582289E+02 -0.27109679456E+02 -0.18861990355E+02  0.35326674878E+02  0.10000000000E+01 0.  1.
        -13    1    6    6    0    0  0.11935423379E+01 -0.12807153216E+02 -0.11595519203E+02  0.17318048603E+02  0.10500000000E+00 0. -1.
         13    1    6    6    0    0  0.58865151176E+00 -0.73015636753E+01 -0.65921296482E+01  0.98552798542E+01  0.10500000000E+00 0.  1.
</event>
<event>
11    0  0.3467594E-009  0.9118800E+02  0.7816531E-02  0.1126479E+00
         25   -1    0    0    0    0  0.00000000000E+00  0.00000000000E+00  0.99999998245E-14  0.12500000000E+03  0.12500000000E+03 0.  0.
    3000001    1    3    3    0    0 -0.22606395777E+02  0.16111857614E+02 -0.40960463367E+02  0.49491419913E+02  0.10000000000E+01 0. -1.
    1000022    2    1    0    0    0 -0.25400479547E+02  0.24218515474E+02 -0.50739819383E+02  0.62499997919E+02  0.99999807942E+01 0.  0.
    3000022    2    3    3    0    0 -0.27940837696E+01  0.81066578600E+01 -0.97793560168E+01  0.13008578006E+02  0.24998373969E+00 0.  0.
    1000022    2    1    0    0    0  0.25400479547E+02 -0.24218515474E+02  0.50739819383E+02  0.62500002081E+02  0.10000006804E+02 0.  0.
    3000022    2    5    5    0    0  0.87620920028E+00 -0.34330856653E+01  0.98859984783E+01  0.10504727191E+02  0.25001538079E+00 0.  0.
        -13    1    4    4    0    0 -0.10100273852E+01  0.27632994098E+01 -0.33415492879E+01  0.44534206617E+01  0.10500000000E+00 0.  1.
         13    1    4    4    0    0 -0.17840563844E+01  0.53433584502E+01 -0.64378067290E+01  0.85551573446E+01  0.10500000000E+00 0. -1.
    3000001    1    5    5    0    0  0.24524270346E+02 -0.20785429809E+02  0.40853820905E+02  0.51995274890E+02  0.10000000000E+01 0.  1.
        -13    1    6    6    0    0  0.37126690324E+00 -0.16578818134E+01  0.48731984397E+01  0.51619278621E+01  0.10500000000E+00 0. -1.
         13    1    6    6    0    0  0.50494229704E+00 -0.17752038519E+01  0.50128000386E+01  0.53427993286E+01  0.10500000000E+00 0.  1.
</event>
<event>
11    0  0.3467594E-009  0.9118800E+02  0.7816531E-02  0.1126479E+00
         25   -1    0    0    0    0  0.00000000000E+00  0.00000000000E+00  0.99999998245E-14  0.12500000000E+03  0.12500000000E+03 0.  0.
    3000001    1    3    3    0    0 -0.17748219792E+02  0.44234913512E+02  0.15278630733E+02  0.50061596421E+02  0.10000000000E+01 0.  1.
    1000022    2    1    0    0    0 -0.17649027108E+02  0.56475268556E+02  0.17473002271E+02  0.62500000551E+02  0.10000007208E+02 0.  0.
    3000022    2    3    3    0    0  0.99192684473E-01  0.12240355045E+02  0.21943715373E+01  0.12438404130E+02  0.25000007284E+00 0.  0.
    1000022    2    1    0    0    0  0.17649027108E+02 -0.56475268556E+02 -0.17473002271E+02  0.62499999449E+02  0.10000000321E+02 0.  0.
    3000022    2    5    5    0    0  0.16916803567E+02 -0.40353435310E+02 -0.11298372221E+02  0.45191743766E+02  0.25001107254E+00 0.  0.
        -13    1    4    4    0    0 -0.37021260376E-03  0.73485211570E+01  0.12973835078E+01  0.74629077643E+01  0.10500000000E+00 0. -1.
         13    1    4    4    0    0  0.99562897077E-01  0.48918338879E+01  0.89698802949E+00  0.49754963654E+01  0.10500000000E+00 0.  1.
    3000001    1    5    5    0    0  0.73222354104E+00 -0.16121833246E+02 -0.61746300502E+01  0.17308255683E+02  0.10000000000E+01 0.  1.
        -13    1    6    6    0    0  0.11029432308E+02 -0.26366832666E+02 -0.73267502373E+01  0.29505093389E+02  0.10500000000E+00 0. -1.
         13    1    6    6    0    0  0.58873712585E+01 -0.13986602644E+02 -0.39716219832E+01  0.15686650377E+02  0.10500000000E+00 0.  1.
</event>
<event>
11    0  0.3467594E-009  0.9118800E+02  0.7816531E-02  0.1126479E+00
         25   -1    0    0    0    0  0.00000000000E+00  0.00000000000E+00  0.99999998245E-14  0.12500000000E+03  0.12500000000E+03 0.  0.
    3000001    1    3    3    0    0 -0.18733108817E+02 -0.38363800511E+02  0.61638076436E+00  0.42709372284E+02  0.10000000000E+01 0. -1.
    1000022    2    1    0    0    0 -0.22691526987E+02 -0.57093237638E+02  0.56309116368E+01  0.62499999154E+02  0.99999773659E+01 0.  0.
    3000022    2    3    3    0    0 -0.39584181707E+01 -0.18729437126E+02  0.50145308724E+01  0.19790626870E+02  0.25000507536E+00 0.  0.
    1000022    2    1    0    0    0  0.22691526987E+02  0.57093237638E+02 -0.56309116368E+01  0.62500000846E+02  0.99999879471E+01 0.  0.
    3000022    2    5    5    0    0  0.56031780561E+01  0.26179978370E+02 -0.44715150446E+01  0.27144867298E+02  0.25000411036E+00 0.  0.
        -13    1    4    4    0    0 -0.95663977689E+00 -0.44842196131E+01  0.11838542835E+01  0.47366571721E+01  0.10500000000E+00 0.  1.
         13    1    4    4    0    0 -0.30017783938E+01 -0.14245217513E+02  0.38306765889E+01  0.15053969698E+02  0.10500000000E+00 0. -1.
    3000001    1    5    5    0    0  0.17088348931E+02  0.30913259268E+02 -0.11593965922E+01  0.35355133549E+02  0.10000000000E+01 0.  1.
        -13    1    6    6    0    0  0.22896293920E+01  0.10913436101E+02 -0.19092236279E+01  0.11313781426E+02  0.10500000000E+00 0.  1.
         13    1    6    6    0    0  0.33135486641E+01  0.15266542269E+02 -0.25622914167E+01  0.15831085872E+02  0.10500000000E+00 0. -1.
</event>
<event>
11    0  0.3467594E-009  0.9118800E+02  0.7816531E-02  0.1126479E+00
         25   -1    0    0    0    0  0.00000000000E+00  0.00000000000E+00  0.99999998245E-14  0.12500000000E+03  0.12500000000E+03 0.  0.
    3000001    1    3    3    0    0  0.19262550577E+02 -0.16350551314E+02 -0.55641551126E+01  0.25891044882E+02  0.10000000000E+01 0.  1.
    1000022    2    1    0    0    0  0.45823072690E+02 -0.41268324001E+02 -0.18497882860E+01  0.62500002124E+02  0.99999996140E+01 0.  0.
    3000022    2    3    3    0    0  0.26560522113E+02 -0.24917772687E+02  0.37143668266E+01  0.36608957242E+02  0.24999764405E+00 0.  0.
    1000022    2    1    0    0    0 -0.45823072690E+02  0.41268324001E+02  0.18497882860E+01  0.62499997876E+02  0.99999730592E+01 0.  0.
    3000022    2    5    5    0    0 -0.10358819200E+02  0.53940050016E+01  0.28924227266E+01  0.12034493560E+02  0.25000168794E+00 0.  0.
        -13    1    4    4    0    0  0.17494406015E+02 -0.16386088653E+02  0.23927254631E+01  0.24089298522E+02  0.10500000000E+00 0.  1.
         13    1    4    4    0    0  0.90661160979E+01 -0.85316840348E+01  0.13216413635E+01  0.12519658720E+02  0.10500000000E+00 0. -1.
    3000001    1    5    5    0    0 -0.35464253490E+02  0.35874318999E+02 -0.10426344406E+01  0.50465504316E+02  0.10000000000E+01 0.  1.
        -13    1    6    6    0    0 -0.72011407857E+01  0.37209068799E+01  0.19660414852E+01  0.83413380669E+01  0.10500000000E+00 0.  1.
         13    1    6    6    0    0 -0.31576784141E+01  0.16730981217E+01  0.92638124132E+00  0.36931554931E+01  0.10500000000E+00 0. -1.
</event>
<event>
11    0  0.3467594E-009  0.9118800E+02  0.7816531E-02  0.1126479E+00
         25   -1    0    0    0    0  0.00000000000E+00  0.00000000000E+00  0.99999998245E-14  0.12500000000E+03  0.12500000000E+03 0.  0.
    3000001    1    3    3    0    0  0.36118787806E+01  0.17117548213E+01 -0.24928604276E+01  0.48156127342E+01  0.10000000000E+01 0. -1.
    1000022    2    1    0    0    0  0.57555872037E+02 -0.61783716631E+01 -0.21340081467E+02  0.62500001798E+02  0.10000023264E+02 0.  0.
    3000022    2    3    3    0    0  0.53943993257E+02 -0.78901264844E+01 -0.18847221039E+02  0.57684389063E+02  0.24999254599E+00 0.  0.
    1000022    2    1    0    0    0 -0.57555872037E+02  0.61783716631E+01  0.21340081467E+02  0.62499998202E+02  0.10000000795E+02 0.  0.
    3000022    2    5    5    0    0 -0.19737926344E+02  0.86774558436E+00  0.12193656474E+02  0.23218235818E+02  0.24999514663E+00 0.  0.
        -13    1    4    4    0    0  0.31662662912E+02 -0.45671996946E+01 -0.11047390001E+02  0.33844340539E+02  0.10500000000E+00 0.  1.
         13    1    4    4    0    0  0.22281330345E+02 -0.33229267898E+01 -0.77998310377E+01  0.23840048524E+02  0.10500000000E+00 0. -1.
    3000001    1    5    5    0    0 -0.37817945694E+02  0.53106260787E+01  0.91464249932E+01  0.39281762384E+02  0.10000000000E+01 0. -1.
        -13    1    6    6    0    0 -0.12271411210E+02  0.54238116440E+00  0.76519899319E+01  0.14472238435E+02  0.10500000000E+00 0. -1.
         13    1    6    6    0    0 -0.74665151340E+01  0.32536441996E+00  0.45416665416E+01  0.87459973832E+01  0.10500000000E+00 0.  1.
</event>
<event>
11    0  0.3467594E-009  0.9118800E+02  0.7816531E-02  0.1126479E+00
         25   -1    0    0    0    0  0.00000000000E+00  0.00000000000E+00  0.99999998245E-14  0.12500000000E+03  0.12500000000E+03 0.  0.
    3000001    1    3    3    0    0 -0.26482282410E+02 -0.45700098274E+02  0.10549397775E+02  0.53871143085E+02  0.10000000000E+01 0. -1.
    1000022    2    1    0    0    0 -0.30205850817E+02 -0.53149562678E+02  0.83054680491E+01  0.62500001393E+02  0.99999969076E+01 0.  0.
    3000022    2    3    3    0    0 -0.37235684063E+01 -0.74494644041E+01 -0.22439297256E+01  0.86288583074E+01  0.24998698331E+00 0.  0.
    1000022    2    1    0    0    0  0.30205850817E+02  0.53149562678E+02 -0.83054680491E+01  0.62499998607E+02  0.99999795001E+01 0.  0.
    3000022    2    5    5    0    0  0.21611259661E+02  0.45199941321E+02 -0.80735437036E+01  0.50747668381E+02  0.24999722447E+00 0.  0.
        -13    1    4    4    0    0 -0.18991450694E+01 -0.38228213008E+01 -0.12193950297E+01  0.44405702258E+01  0.10500000000E+00 0.  1.
         13    1    4    4    0    0 -0.18244233369E+01 -0.36266431033E+01 -0.10245346959E+01  0.41882880815E+01  0.10500000000E+00 0. -1.
    3000001    1    5    5    0    0  0.85945911553E+01  0.79496213566E+01 -0.23192434550E+00  0.11752330226E+02  0.10000000000E+01 0. -1.
        -13    1    6    6    0    0  0.66575217935E+01  0.13855954838E+02 -0.25151474107E+01  0.15577132997E+02  0.10500000000E+00 0.  1.
         13    1    6    6    0    0  0.14953737868E+02  0.31343986483E+02 -0.55583962929E+01  0.35170535385E+02  0.10500000000E+00 0. -1.
</event>
<event>
11    0  0.3467594E-009  0.9118800E+02  0.7816531E-02  0.1126479E+00
         25   -1    0    0    0    0  0.00000000000E+00  0.00000000000E+00  0.99999998245E-14  0.12500000000E+03  0.12500000000E+03 0.  0.
    3000001    1    3    3    0    0  0.59694232951E+00 -0.27659674718E+01 -0.57068032977E+01  0.64478306490E+01  0.10000000000E+01 0. -1.
    1000022    2    1    0    0    0  0.31169385669E+02 -0.15857870142E+02 -0.50825656726E+02  0.62499999607E+02  0.99999960443E+01 0.  0.
    3000022    2    3    3    0    0  0.30572443340E+02 -0.13091902670E+02 -0.45118853428E+02  0.56052168958E+02  0.25000598847E+00 0.  0.
    1000022    2    1    0    0    0 -0.31169385669E+02  0.15857870142E+02  0.50825656726E+02  0.62500000393E+02  0.10000000952E+02 0.  0.
    3000022    2    5    5    0    0 -0.29403835104E+02  0.15049167442E+02  0.50422252984E+02  0.60278761226E+02  0.24999900079E+00 0.  0.
        -13    1    4    4    0    0  0.18027878906E+02 -0.77764619584E+01 -0.26698474180E+02  0.33140569201E+02  0.10500000000E+00 0. -1.
         13    1    4    4    0    0  0.12544564434E+02 -0.53154407121E+01 -0.18420379248E+02  0.22911599757E+02  0.10500000000E+00 0.  1.
    3000001    1    5    5    0    0 -0.17655505649E+01  0.80870270024E+00  0.40340374206E+00  0.22212391662E+01  0.10000000000E+01 0. -1.
        -13    1    6    6    0    0 -0.12695648848E+02  0.64407858808E+01  0.21807224595E+02  0.26042835713E+02  0.10500000000E+00 0.  1.
         13    1    6    6    0    0 -0.16708186256E+02  0.86083815612E+01  0.28615028388E+02  0.34235925513E+02  0.10500000000E+00 0. -1.
</event>
<event>
11    0  0.3467594E-009  0.9118800E+02  0.7816531E-02  0.1126479E+00
         25   -1    0    0    0    0  0.00000000000E+00  0.00000000000E+00  0.99999998245E-14  0.12500000000E+03  0.12500000000E+03 0.  0.
    3000001    1    3    3    0    0  0.24460874688E+02  0.13001252627E+02  0.74201643932E+01  0.28695396843E+02  0.10000000000E+01 0. -1.
    1000022    2    1    0    0    0  0.48583654735E+02  0.27931521309E+02  0.25801329822E+02  0.62499999870E+02  0.99999986586E+01 0.  0.
    3000022    2    3    3    0    0  0.24122780047E+02  0.14930268682E+02  0.18381165429E+02  0.33804603027E+02  0.25000637484E+00 0.  0.
    1000022    2    1    0    0    0 -0.48583654735E+02 -0.27931521309E+02 -0.25801329822E+02  0.62500000130E+02  0.10000000280E+02 0.  0.
    3000022    2    5    5    0    0 -0.10681666054E+02 -0.10900854652E+02 -0.53307395082E+01  0.16168051967E+02  0.24999774403E+00 0.  0.
        -13    1    4    4    0    0  0.90723425214E+01  0.56056981614E+01  0.68387027162E+01  0.12669259274E+02  0.10500000000E+00 0.  1.
         13    1    4    4    0    0  0.15050437526E+02  0.93245705201E+01  0.11542462713E+02  0.21135343754E+02  0.10500000000E+00 0. -1.
    3000001    1    5    5    0    0 -0.37901988681E+02 -0.17030666657E+02 -0.20470590314E+02  0.46331948163E+02  0.10000000000E+01 0.  1.
        -13    1    6    6    0    0 -0.78140935589E+01 -0.79297488974E+01 -0.38688903453E+01  0.11786446166E+02  0.10500000000E+00 0. -1.
         13    1    6    6    0    0 -0.28675724947E+01 -0.29711057544E+01 -0.14618491629E+01  0.43816058005E+01  0.10500000000E+00 0.  1.
</event>
<event>
11    0  0.3467594E-009  0.9118800E+02  0.7816531E-02  0.1126479E+00
         25   -1    0    0    0    0  0.00000000000E+00  0.00000000000E+00  0.99999998245E-14  0.12500000000E+03  0.12500000000E+03 0.  0.
    3000001    1    3    3    0    0  0.16878735883E+02 -0.12632666430E+02 -0.26744580444E+01  0.21275072549E+02  0.10000000000E+01 0.  1.
    1000022    2    1    0    0    0  0.51525324033E+02 -0.28530364724E+02 -0.18368703922E+02  0.62500001161E+02  0.10000006665E+02 0.  0.
    3000022    2    3    3    0    0  0.34646588150E+02 -0.15897698294E+02 -0.15694245878E+02  0.41224928611E+02  0.25000772270E+00 0.  0.
    1000022    2    1    0    0    0 -0.51525324033E+02  0.28530364724E+02  0.18368703922E+02  0.62499998839E+02  0.99999921580E+01 0.  0.
    3000022    2    5    5    0    0 -0.45687774625E+02  0.28424078157E+02  0.16246094952E+02  0.56207642464E+02  0.25000166203E+00 0.  0.
        -13    1    4    4    0    0  0.16694065725E+02 -0.76199622103E+01 -0.76168316592E+01  0.19869142005E+02  0.10500000000E+00 0.  1.
         13    1    4    4    0    0  0.17952522425E+02 -0.82777360841E+01 -0.80774142189E+01  0.21355786606E+02  0.10500000000E+00 0. -1.
    3000001    1    5    5    0    0 -0.58375494076E+01  0.10628656708E+00  0.21226089702E+01  0.62923563759E+01  0.10000000000E+01 0.  1.
        -13    1    6    6    0    0 -0.29997037427E+02  0.18688711131E+02  0.10617945992E+02  0.36903143229E+02  0.10500000000E+00 0. -1.
         13    1    6    6    0    0 -0.15690737198E+02  0.97353670262E+01  0.56281489604E+01  0.19304499234E+02  0.10500000000E+00 0.  1.
</event>
<event>
11    0  0.3467594E-009  0.9118800E+02  0.7816531E-02  0.1126479E+00
         25   -1    0    0    0    0  0.00000000000E+00  0.00000000000E+00  0.99999998245E-14  0.12500000000E+03  0.12500000000E+03 0.  0.
    3000001    1    3    3    0    0 -0.19368453587E+02  0.68684908028E+01 -0.51873186979E+02  0.55804486268E+02  0.10000000000E+01 0. -1.
    1000022    2    1    0    0    0 -0.18304745275E+02  0.82000379011E+01 -0.58343343279E+02  0.62500000694E+02  0.10000003031E+02 0.  0.
    3000022    2    3    3    0    0  0.10637083122E+01  0.13315470982E+01 -0.64701562999E+01  0.66955144261E+01  0.24999567213E+00 0.  0.
    1000022    2    1    0    0    0  0.18304745275E+02 -0.82000379011E+01  0.58343343279E+02  0.62499999306E+02  0.99999943554E+01 0.  0.
    3000022    2    5    5    0    0  0.14297212098E+02 -0.79007274482E+01  0.33021354263E+02  0.36841608151E+02  0.24997163791E+00 0.  0.
        -13    1    4    4    0    0  0.39516295070E+00  0.59692520079E+00 -0.27603234921E+01  0.28535739405E+01  0.10500000000E+00 0.  1.
         13    1    4    4    0    0  0.66854536152E+00  0.73462189744E+00 -0.37098328079E+01  0.38419404856E+01  0.10500000000E+00 0. -1.
    3000001    1    5    5    0    0  0.40075331761E+01 -0.29931045283E+00  0.25321989016E+02  0.25658391155E+02  0.10000000000E+01 0. -1.
        -13    1    6    6    0    0  0.99960758423E+01 -0.54963929394E+01  0.23147926025E+02  0.25806382386E+02  0.10500000000E+00 0.  1.
         13    1    6    6    0    0  0.43011362562E+01 -0.24043345088E+01  0.98734282378E+01  0.11035225765E+02  0.10500000000E+00 0. -1.
</event>
<event>
11    0  0.3467594E-009  0.9118800E+02  0.7816531E-02  0.1126479E+00
         25   -1    0    0    0    0  0.00000000000E+00  0.00000000000E+00  0.99999998245E-14  0.12500000000E+03  0.12500000000E+03 0.  0.
    3000001    1    3    3    0    0 -0.21593531607E+01 -0.26141160742E+02 -0.74277725686E+01  0.27279935783E+02  0.10000000000E+01 0. -1.
    1000022    2    1    0    0    0 -0.11298257794E+01 -0.61334600905E+02 -0.65604762381E+01  0.62499999098E+02  0.10000013214E+02 0.  0.
    3000022    2    3    3    0    0  0.10295273813E+01 -0.35193440163E+02  0.86729633051E+00  0.35220063315E+02  0.24999961709E+00 0.  0.
    1000022    2    1    0    0    0  0.11298257794E+01  0.61334600905E+02  0.65604762381E+01  0.62500000902E+02  0.10000024491E+02 0.  0.
    3000022    2    5    5    0    0 -0.63426500050E+00  0.58113559517E+02  0.48270590574E+01  0.58317673915E+02  0.24999985032E+00 0.  0.
        -13    1    4    4    0    0  0.70595328170E+00 -0.24468016035E+02  0.55689358915E+00  0.24484757181E+02  0.10500000000E+00 0.  1.
         13    1    4    4    0    0  0.32357409961E+00 -0.10725424128E+02  0.31040274135E+00  0.10735306134E+02  0.10500000000E+00 0. -1.
    3000001    1    5    5    0    0  0.17640907799E+01  0.32210413885E+01  0.17334171807E+01  0.41823269873E+01  0.10000000000E+01 0.  1.
        -13    1    6    6    0    0 -0.46634847656E+00  0.41759230811E+02  0.35075066770E+01  0.41909002218E+02  0.10500000000E+00 0. -1.
         13    1    6    6    0    0 -0.16791652394E+00  0.16354328706E+02  0.13195523804E+01  0.16408671697E+02  0.10500000000E+00 0.  1.
</event>
<event>
11    0  0.3467594E-009  0.9118800E+02  0.7816531E-02  0.1126479E+00
         25   -1    0    0    0    0  0.00000000000E+00  0.00000000000E+00  0.99999998245E-14  0.12500000000E+03  0.12500000000E+03 0.  0.
    3000001    1    3    3    0    0 -0.23741760217E+02  0.18444494870E+01 -0.56575570892E+01  0.24496553315E+02  0.10000000000E+01 0.  1.
    1000022    2    1    0    0    0 -0.55907416149E+02  0.39952979841E+01 -0.25780769421E+02  0.62499997169E+02  0.99999993871E+01 0.  0.
    3000022    2    3    3    0    0 -0.32165655933E+02  0.21508484971E+01 -0.20123212332E+02  0.38003443854E+02  0.24999879306E+00 0.  0.
    1000022    2    1    0    0    0  0.55907416149E+02 -0.39952979841E+01  0.25780769421E+02  0.62500002831E+02  0.10000034771E+02 0.  0.
    3000022    2    5    5    0    0  0.38785829225E+02 -0.63195988664E+01  0.20936668018E+02  0.44527344936E+02  0.25000171155E+00 0.  0.
        -13    1    4    4    0    0 -0.24623052779E+02  0.16575694536E+01 -0.15394656385E+02  0.29086916902E+02  0.10500000000E+00 0.  1.
         13    1    4    4    0    0 -0.75426031535E+01  0.49327904354E+00 -0.47285559471E+01  0.89165269523E+01  0.10500000000E+00 0. -1.
    3000001    1    5    5    0    0  0.17121586924E+02  0.23243008823E+01  0.48441014037E+01  0.17972657895E+02  0.10000000000E+01 0. -1.
        -13    1    6    6    0    0  0.22129854057E+02 -0.35574119516E+01  0.11890675487E+02  0.25372914868E+02  0.10500000000E+00 0. -1.
         13    1    6    6    0    0  0.16655975169E+02 -0.27621869148E+01  0.90459925310E+01  0.19154430068E+02  0.10500000000E+00 0.  1.
</event>
<event>
11    0  0.3467594E-009  0.9118800E+02  0.7816531E-02  0.1126479E+00
         25   -1    0    0    0    0  0.00000000000E+00  0.00000000000E+00  0.99999998245E-14  0.12500000000E+03  0.12500000000E+03 0.  0.
    3000001    1    3    3    0    0  0.20725362839E+02  0.37637731409E+02  0.25708615107E+02  0.50080658753E+02  0.10000000000E+01 0.  1.
    1000022    2    1    0    0    0  0.21393589384E+02  0.48815139627E+02  0.31074855735E+02  0.62499999398E+02  0.99999871166E+01 0.  0.
    3000022    2    3    3    0    0  0.66822654531E+00  0.11177408218E+02  0.53662406280E+01  0.12419340645E+02  0.25000481346E+00 0.  0.
    1000022    2    1    0    0    0 -0.21393589384E+02 -0.48815139627E+02 -0.31074855735E+02  0.62500000602E+02  0.99999946373E+01 0.  0.
    3000022    2    5    5    0    0 -0.13251256834E+02 -0.18102067248E+02 -0.13136825755E+02  0.25998448389E+02  0.24996287239E+00 0.  0.
        -13    1    4    4    0    0  0.26986186539E+00  0.56162866554E+01  0.26761534059E+01  0.62280272378E+01  0.10500000000E+00 0. -1.
         13    1    4    4    0    0  0.39836467992E+00  0.55611215622E+01  0.26900872220E+01  0.61913134075E+01  0.10500000000E+00 0.  1.
    3000001    1    5    5    0    0 -0.81423325500E+01 -0.30713072379E+02 -0.17938029981E+02  0.36501552212E+02  0.10000000000E+01 0.  1.
        -13    1    6    6    0    0 -0.65706750910E+01 -0.89476348954E+01 -0.65766665349E+01  0.12903391379E+02  0.10500000000E+00 0.  1.
         13    1    6    6    0    0 -0.66805817429E+01 -0.91544323522E+01 -0.65601592197E+01  0.13095057010E+02  0.10500000000E+00 0. -1.
</event>
<event>
11    0  0.3467594E-009  0.9118800E+02  0.7816531E-02  0.1126479E+00
         25   -1    0    0    0    0  0.00000000000E+00  0.00000000000E+00  0.99999998245E-14  0.12500000000E+03  0.12500000000E+03 0.  0.
    3000001    1    3    3    0    0  0.52195600201E+02 -0.17253781103E+02  0.12458033211E+01  0.54996596882E+02  0.10000000000E+01 0. -1.
    1000022    2    1    0    0    0  0.59041894971E+02 -0.17371810920E+02  0.43040452292E+01  0.62499998408E+02  0.99999909667E+01 0.  0.
    3000022    2    3    3    0    0  0.68462947692E+01 -0.11802981654E+00  0.30582419082E+01  0.75034015257E+01  0.25001556354E+00 0.  0.
    1000022    2    1    0    0    0 -0.59041894971E+02  0.17371810920E+02 -0.43040452292E+01  0.62500001592E+02  0.10000010865E+02 0.  0.
    3000022    2    5    5    0    0 -0.11272972112E+02  0.75143397146E+01 -0.15162851210E+01  0.13634765114E+02  0.24999511557E+00 0.  0.
        -13    1    4    4    0    0  0.22740860370E+01  0.10321539747E-01  0.10377281266E+01  0.25018949823E+01  0.10500000000E+00 0.  1.
         13    1    4    4    0    0  0.45722087322E+01 -0.12835135629E+00  0.20205137815E+01  0.50015065433E+01  0.10500000000E+00 0. -1.
    3000001    1    5    5    0    0 -0.47768922859E+02  0.98574712052E+01 -0.27877601082E+01  0.48865236478E+02  0.10000000000E+01 0. -1.
        -13    1    6    6    0    0 -0.48805723152E+01  0.32769346383E+01 -0.72112660453E+00  0.59236251846E+01  0.10500000000E+00 0. -1.
         13    1    6    6    0    0 -0.63923997968E+01  0.42374050763E+01 -0.79515851647E+00  0.77111399293E+01  0.10500000000E+00 0.  1.
</event>
<event>
11    0  0.3467594E-009  0.9118800E+02  0.7816531E-02  0.1126479E+00
         25   -1    0    0    0    0  0.00000000000E+00  0.00000000000E+00  0.99999998245E-14  0.12500000000E+03  0.12500000000E+03 0.  0.
    3000001    1    3    3    0    0  0.66379652247E+00  0.23976224321E+02 -0.55967383954E+02  0.60898670143E+02  0.10000000000E+01 0.  1.
    1000022    2    1    0    0    0 -0.59351433223E+00  0.23809246953E+02 -0.56912375240E+02  0.62499993155E+02  0.99999094556E+01 0.  0.
    3000022    2    3    3    0    0 -0.12573108547E+01 -0.16697736874E+00 -0.94499128630E+00  0.16013230116E+01  0.25002965684E+00 0.  0.
    1000022    2    1    0    0    0  0.59351433223E+00 -0.23809246953E+02  0.56912375240E+02  0.62500006845E+02  0.99999950217E+01 0.  0.
    3000022    2    5    5    0    0  0.19994098232E+01 -0.55896100111E+01  0.25150583393E+02  0.25842904754E+02  0.25000273358E+00 0.  0.
        -13    1    4    4    0    0 -0.36905792551E+00 -0.75619336831E-02 -0.26149967145E+00  0.46440070348E+00  0.10500000000E+00 0.  1.
         13    1    4    4    0    0 -0.88825292919E+00 -0.15941543505E+00 -0.68349161485E+00  0.11369223081E+01  0.10500000000E+00 0. -1.
    3000001    1    5    5    0    0 -0.14058954909E+01 -0.18219636941E+02  0.31761791847E+02  0.36657102092E+02  0.10000000000E+01 0.  1.
        -13    1    6    6    0    0  0.12407111284E+01 -0.36176274445E+01  0.16316806139E+02  0.16759349033E+02  0.10500000000E+00 0.  1.
         13    1    6    6    0    0  0.75869869480E+00 -0.19719825666E+01  0.88337772545E+01  0.90835557209E+01  0.10500000000E+00 0. -1.
</event>
<event>
11    0  0.3467594E-009  0.9118800E+02  0.7816531E-02  0.1126479E+00
         25   -1    0    0    0    0  0.00000000000E+00  0.00000000000E+00  0.99999998245E-14  0.12500000000E+03  0.12500000000E+03 0.  0.
    3000001    1    3    3    0    0 -0.21527797689E+01  0.35992740580E+00  0.39727789753E+01  0.46418726025E+01  0.10000000000E+01 0.  1.
    1000022    2    1    0    0    0 -0.45075306038E+02 -0.18962753720E+02  0.37614889103E+02  0.62500003772E+02  0.10000067312E+02 0.  0.
    3000022    2    3    3    0    0 -0.42922526269E+02 -0.19322681125E+02  0.33642110128E+02  0.57858131170E+02  0.25000284391E+00 0.  0.
    1000022    2    1    0    0    0  0.45075306038E+02  0.18962753720E+02 -0.37614889103E+02  0.62499996228E+02  0.10000020158E+02 0.  0.
    3000022    2    5    5    0    0  0.29896345566E+02  0.14583904827E+02 -0.30552785450E+02  0.45166546870E+02  0.24999832168E+00 0.  0.
        -13    1    4    4    0    0 -0.22765259648E+02 -0.10210410536E+02  0.17760847223E+02  0.30626267308E+02  0.10500000000E+00 0. -1.
         13    1    4    4    0    0 -0.20157266621E+02 -0.91122705896E+01  0.15881262905E+02  0.27231863862E+02  0.10500000000E+00 0.  1.
    3000001    1    5    5    0    0  0.15178960472E+02  0.43788488921E+01 -0.70621036530E+01  0.17333449358E+02  0.10000000000E+01 0.  1.
        -13    1    6    6    0    0  0.17663877894E+02  0.86779537571E+01 -0.18032322742E+02  0.26692604821E+02  0.10500000000E+00 0.  1.
         13    1    6    6    0    0  0.12232467672E+02  0.59059510703E+01 -0.12520462708E+02  0.18473942049E+02  0.10500000000E+00 0. -1.
</event>
<event>
11    0  0.3467594E-009  0.9118800E+02  0.7816531E-02  0.1126479E+00
         25   -1    0    0    0    0  0.00000000000E+00  0.00000000000E+00  0.99999998245E-14  0.12500000000E+03  0.12500000000E+03 0.  0.
    3000001    1    3    3    0    0 -0.13195138002E+02 -0.29617869315E+01  0.24450548367E+01  0.13779047205E+02  0.10000000000E+01 0.  1.
    1000022    2    1    0    0    0 -0.52169186140E+02 -0.19242498591E+02  0.26727367796E+02  0.62499999811E+02  0.10000002631E+02 0.  0.
    3000022    2    3    3    0    0 -0.38974048138E+02 -0.16280711660E+02  0.24282312959E+02  0.48720952606E+02  0.24999972369E+00 0.  0.
    1000022    2    1    0    0    0  0.52169186140E+02  0.19242498591E+02 -0.26727367796E+02  0.62500000189E+02  0.10000004992E+02 0.  0.
    3000022    2    5    5    0    0  0.54261374112E+01  0.22295467547E+01 -0.65898509978E+01  0.88262382806E+01  0.25000015057E+00 0.  0.
        -13    1    4    4    0    0 -0.21988244021E+02 -0.91974932912E+01  0.13777050005E+02  0.27529890843E+02  0.10500000000E+00 0. -1.
         13    1    4    4    0    0 -0.16985804117E+02 -0.70832183686E+01  0.10505262954E+02  0.21191061764E+02  0.10500000000E+00 0.  1.
    3000001    1    5    5    0    0  0.46743048728E+02  0.17012951837E+02 -0.20137516798E+02  0.53673761908E+02  0.10000000000E+01 0.  1.
        -13    1    6    6    0    0  0.29653358451E+01  0.12750569373E+01 -0.36868395530E+01  0.49013057196E+01  0.10500000000E+00 0.  1.
         13    1    6    6    0    0  0.24608015662E+01  0.95448981733E+00 -0.29030114448E+01  0.39249325609E+01  0.10500000000E+00 0. -1.
</event>
<event>
11    0  0.3467594E-009  0.9118800E+02  0.7816531E-02  0.1126479E+00
         25   -1    0    0    0    0  0.00000000000E+00  0.00000000000E+00  0.99999998245E-14  0.12500000000E+03  0.12500000000E+03 0.  0.
    3000001    1    3    3    0    0 -0.13960614752E+02 -0.41116455973E+01 -0.16671271364E+02  0.22152554766E+02  0.10000000000E+01 0. -1.
    1000022    2    1    0    0    0 -0.31795986559E+02 -0.22487160050E+02 -0.47849690529E+02  0.62499999990E+02  0.99999993358E+01 0.  0.
    3000022    2    3    3    0    0 -0.17835371807E+02 -0.18375514452E+02 -0.31178419165E+02  0.40347445224E+02  0.24999122512E+00 0.  0.
    1000022    2    1    0    0    0  0.31795986559E+02  0.22487160050E+02  0.47849690529E+02  0.62500000010E+02  0.99999994556E+01 0.  0.
    3000022    2    5    5    0    0  0.13310603620E+02  0.10914699398E+02  0.28661658237E+02  0.33434353429E+02  0.25000921085E+00 0.  0.
        -13    1    4    4    0    0 -0.10206156339E+02 -0.10448385879E+02 -0.17855544714E+02  0.23068721177E+02  0.10500000000E+00 0.  1.
         13    1    4    4    0    0 -0.76292154675E+01 -0.79271285737E+01 -0.13322874451E+02  0.17278724047E+02  0.10500000000E+00 0. -1.
    3000001    1    5    5    0    0  0.18485382939E+02  0.11572460651E+02  0.19188032292E+02  0.29065646581E+02  0.10000000000E+01 0.  1.
        -13    1    6    6    0    0  0.38796394744E+01  0.31532779449E+01  0.83980149507E+01  0.97740699998E+01  0.10500000000E+00 0. -1.
         13    1    6    6    0    0  0.94309641452E+01  0.77614214534E+01  0.20263643287E+02  0.23660283429E+02  0.10500000000E+00 0.  1.
</event>
<event>
11    0  0.3467594E-009  0.9118800E+02  0.7816531E-02  0.1126479E+00
         25   -1    0    0    0    0  0.00000000000E+00  0.00000000000E+00  0.99999998245E-14  0.12500000000E+03  0.12500000000E+03 0.  0.
    3000001    1    3    3    0    0  0.12903137198E+02  0.71799315970E+01  0.19819155170E+02  0.24735425586E+02  0.10000000000E+01 0.  1.
    1000022    2    1    0    0    0  0.41687276870E+02  0.17521150838E+02  0.41969396453E+02  0.62500001509E+02  0.10000008522E+02 0.  0.
    3000022    2    3    3    0    0  0.28784139673E+02  0.10341219241E+02  0.22150241283E+02  0.37764575923E+02  0.24998729278E+00 0.  0.
    1000022    2    1    0    0    0 -0.41687276870E+02 -0.17521150838E+02 -0.41969396453E+02  0.62499998491E+02  0.99999896601E+01 0.  0.
    3000022    2    5    5    0    0 -0.20961644276E+02 -0.60004067906E+01 -0.14442130746E+02  0.26154025576E+02  0.25000187626E+00 0.  0.
        -13    1    4    4    0    0  0.14425040456E+02  0.52395655728E+01  0.11165522710E+02  0.18979324591E+02  0.10500000000E+00 0. -1.
         13    1    4    4    0    0  0.14359099217E+02  0.51016536683E+01  0.10984718573E+02  0.18785251332E+02  0.10500000000E+00 0.  1.
    3000001    1    5    5    0    0 -0.20725632594E+02 -0.11520744047E+02 -0.27527265707E+02  0.36345972915E+02  0.10000000000E+01 0. -1.
        -13    1    6    6    0    0 -0.49312024046E+01 -0.13983395033E+01 -0.33869212978E+01  0.61444585928E+01  0.10500000000E+00 0. -1.
         13    1    6    6    0    0 -0.16030441872E+02 -0.46020672873E+01 -0.11055209449E+02  0.20009566983E+02  0.10500000000E+00 0.  1.
</event>
<event>
11    0  0.3467594E-009  0.9118800E+02  0.7816531E-02  0.1126479E+00
         25   -1    0    0    0    0  0.00000000000E+00  0.00000000000E+00  0.99999998245E-14  0.12500000000E+03  0.12500000000E+03 0.  0.
    3000001    1    3    3    0    0  0.74812754125E+01 -0.73465311533E+00  0.20325983221E+01  0.78511561529E+01  0.10000000000E+01 0.  1.
    1000022    2    1    0    0    0  0.48474903305E+02 -0.50104965947E-02  0.38163248397E+02  0.62500001306E+02  0.10000017979E+02 0.  0.
    3000022    2    3    3    0    0  0.40993627892E+02  0.72964261873E+00  0.36130650075E+02  0.54648845153E+02  0.24999131773E+00 0.  0.
    1000022    2    1    0    0    0 -0.48474903305E+02  0.50104965947E-02 -0.38163248397E+02  0.62499998694E+02  0.10000001651E+02 0.  0.
    3000022    2    5    5    0    0 -0.37966742573E+02  0.22438558460E+01 -0.25159463106E+02  0.45602297597E+02  0.25006335421E+00 0.  0.
        -13    1    4    4    0    0  0.22156626102E+02  0.44346928804E+00  0.19468080222E+02  0.29497964638E+02  0.10500000000E+00 0. -1.
         13    1    4    4    0    0  0.18837001790E+02  0.28617333069E+00  0.16662569853E+02  0.25150880515E+02  0.10500000000E+00 0.  1.
    3000001    1    5    5    0    0 -0.10508160731E+02 -0.22388453494E+01 -0.13003785291E+02  0.16897701096E+02  0.10000000000E+01 0. -1.
        -13    1    6    6    0    0 -0.19965452310E+02  0.12469110918E+01 -0.13221112967E+02  0.23978801603E+02  0.10500000000E+00 0. -1.
         13    1    6    6    0    0 -0.18001290263E+02  0.99694475416E+00 -0.11938350139E+02  0.21623495995E+02  0.10500000000E+00 0.  1.
</event>
<event>
11    0  0.3467594E-009  0.9118800E+02  0.7816531E-02  0.1126479E+00
         25   -1    0    0    0    0  0.00000000000E+00  0.00000000000E+00  0.99999998245E-14  0.12500000000E+03  0.12500000000E+03 0.  0.
    3000001    1    3    3    0    0 -0.62518641389E+01 -0.25549907694E+02  0.39211798602E+01  0.26613140361E+02  0.10000000000E+01 0.  1.
    1000022    2    1    0    0    0 -0.12437131084E+02 -0.57005387076E+02  0.20048778199E+02  0.62499999157E+02  0.10000000108E+02 0.  0.
    3000022    2    3    3    0    0 -0.61852669449E+01 -0.31455479382E+02  0.16127598339E+02  0.35886858796E+02  0.24999156872E+00 0.  0.
    1000022    2    1    0    0    0  0.12437131084E+02  0.57005387076E+02 -0.20048778199E+02  0.62500000843E+02  0.10000010643E+02 0.  0.
    3000022    2    5    5    0    0  0.99454130711E+01  0.53328909945E+02 -0.20343615044E+02  0.57937975907E+02  0.25000417732E+00 0.  0.
        -13    1    4    4    0    0 -0.37563359541E+01 -0.18847927633E+02  0.96241474443E+01  0.21493945075E+02  0.10500000000E+00 0. -1.
         13    1    4    4    0    0 -0.24289309908E+01 -0.12607551749E+02  0.65034508942E+01  0.14392913721E+02  0.10500000000E+00 0.  1.
    3000001    1    5    5    0    0  0.24917180127E+01  0.36764771306E+01  0.29483684574E+00  0.45620249355E+01  0.10000000000E+01 0. -1.
        -13    1    6    6    0    0  0.29663685022E+01  0.15924380033E+02 -0.60261929519E+01  0.17283264970E+02  0.10500000000E+00 0. -1.
         13    1    6    6    0    0  0.69790445689E+01  0.37404529912E+02 -0.14317422093E+02  0.40654710937E+02  0.10500000000E+00 0.  1.
</event>
<event>
11    0  0.3467594E-009  0.9118800E+02  0.7816531E-02  0.1126479E+00
         25   -1    0    0    0    0  0.00000000000E+00  0.00000000000E+00  0.99999998245E-14  0.12500000000E+03  0.12500000000E+03 0.  0.
    3000001    1    3    3    0    0  0.37223735061E+02 -0.22179435500E+02 -0.79499516187E+01  0.44065128409E+02  0.10000000000E+01 0. -1.
    1000022    2    1    0    0    0  0.50302149668E+02 -0.31315174543E+02 -0.17184434560E+02  0.62500009302E+02  0.99999976840E+01 0.  0.
    3000022    2    3    3    0    0  0.13078414607E+02 -0.91357390424E+01 -0.92344829415E+01  0.18434880892E+02  0.25000365281E+00 0.  0.
    1000022    2    1    0    0    0 -0.50302149668E+02  0.31315174543E+02  0.17184434560E+02  0.62499990698E+02  0.99998814143E+01 0.  0.
    3000022    2    5    5    0    0 -0.34355249747E+02  0.15786302761E+02  0.10682857629E+02  0.39289648640E+02  0.25000610627E+00 0.  0.
        -13    1    4    4    0    0  0.90438942571E+01 -0.63345096793E+01 -0.63380371754E+01  0.12731841047E+02  0.10500000000E+00 0.  1.
         13    1    4    4    0    0  0.40345203501E+01 -0.28012293631E+01 -0.28964457661E+01  0.57030398452E+01  0.10500000000E+00 0. -1.
    3000001    1    5    5    0    0 -0.15946899921E+02  0.15528871782E+02  0.65015769308E+01  0.23210342059E+02  0.10000000000E+01 0.  1.
        -13    1    6    6    0    0 -0.12406034906E+02  0.57109955473E+01  0.39187469184E+01  0.14208897728E+02  0.10500000000E+00 0.  1.
         13    1    6    6    0    0 -0.21949214841E+02  0.10075307214E+02  0.67641107110E+01  0.25080750912E+02  0.10500000000E+00 0. -1.
</event>
<event>
11    0  0.3467594E-009  0.9118800E+02  0.7816531E-02  0.1126479E+00
         25   -1    0    0    0    0  0.00000000000E+00  0.00000000000E+00  0.99999998245E-14  0.12500000000E+03  0.12500000000E+03 0.  0.
    3000001    1    3    3    0    0 -0.14237982216E+01 -0.12609038964E+02 -0.29976808503E+02  0.32567224521E+02  0.10000000000E+01 0. -1.
    1000022    2    1    0    0    0 -0.77715341895E+01 -0.30774110816E+02 -0.52903756024E+02  0.62499999250E+02  0.99999932288E+01 0.  0.
    3000022    2    3    3    0    0 -0.63477359679E+01 -0.18165071852E+02 -0.22926947521E+02  0.29932774728E+02  0.24998603742E+00 0.  0.
    1000022    2    1    0    0    0  0.77715341895E+01  0.30774110816E+02  0.52903756024E+02  0.62500000750E+02  0.10000002605E+02 0.  0.
    3000022    2    5    5    0    0  0.95662749115E+01  0.29038081128E+02  0.48108547712E+02  0.57001917803E+02  0.24999794472E+00 0.  0.
        -13    1    4    4    0    0 -0.33036644517E+01 -0.96001200216E+01 -0.12169947258E+02  0.15849137027E+02  0.10500000000E+00 0.  1.
         13    1    4    4    0    0 -0.30440715162E+01 -0.85649518303E+01 -0.10757000263E+02  0.14083637702E+02  0.10500000000E+00 0. -1.
    3000001    1    5    5    0    0 -0.17947407220E+01  0.17360296885E+01  0.47952083118E+01  0.54980829471E+01  0.10000000000E+01 0.  1.
        -13    1    6    6    0    0  0.51614045509E+01  0.15545120883E+02  0.25877040262E+02  0.30625530492E+02  0.10500000000E+00 0. -1.
         13    1    6    6    0    0  0.44048703606E+01  0.13492960245E+02  0.22231507450E+02  0.26376387311E+02  0.10500000000E+00 0.  1.
</event>
<event>
11    0  0.3467594E-009  0.9118800E+02  0.7816531E-02  0.1126479E+00
         25   -1    0    0    0    0  0.00000000000E+00  0.00000000000E+00  0.99999998245E-14  0.12500000000E+03  0.12500000000E+03 0.  0.
    3000001    1    3    3    0    0  0.73928990120E+01 -0.19561994289E+02  0.16065173368E+01  0.20997796892E+02  0.10000000000E+01 0.  1.
    1000022    2    1    0    0    0  0.86217471116E+01 -0.60645063945E+02  0.73547037194E+01  0.62499999571E+02  0.99999987695E+01 0.  0.
    3000022    2    3    3    0    0  0.12288480996E+01 -0.41083069656E+02  0.57481863825E+01  0.41502202679E+02  0.25000096613E+00 0.  0.
    1000022    2    1    0    0    0 -0.86217471116E+01  0.60645063945E+02 -0.73547037194E+01  0.62500000429E+02  0.10000004138E+02 0.  0.
    3000022    2    5    5    0    0  0.36621312991E+00  0.27290990560E+02 -0.58164985320E+01  0.27907461988E+02  0.25000321623E+00 0.  0.
        -13    1    4    4    0    0  0.37414200768E+00 -0.11307821863E+02  0.15697615349E+01  0.11422871522E+02  0.10500000000E+00 0. -1.
         13    1    4    4    0    0  0.85470609193E+00 -0.29775247793E+02  0.41784248477E+01  0.30079331157E+02  0.10500000000E+00 0.  1.
    3000001    1    5    5    0    0 -0.89879602416E+01  0.33354073385E+02 -0.15382051874E+01  0.34592538442E+02  0.10000000000E+01 0. -1.
        -13    1    6    6    0    0  0.24709039014E+00  0.14997923624E+02 -0.31470720589E+01  0.15326899694E+02  0.10500000000E+00 0.  1.
         13    1    6    6    0    0  0.11912273978E+00  0.12293066937E+02 -0.26694264732E+01  0.12580562294E+02  0.10500000000E+00 0. -1.
</event>
<event>
11    0  0.3467594E-009  0.9118800E+02  0.7816531E-02  0.1126479E+00
         25   -1    0    0    0    0  0.00000000000E+00  0.00000000000E+00  0.99999998245E-14  0.12500000000E+03  0.12500000000E+03 0.  0.
    3000001    1    3    3    0    0  0.48234098829E+02  0.11153308349E+01  0.35266457966E+02  0.59770354777E+02  0.10000000000E+01 0.  1.
    1000022    2    1    0    0    0  0.49390884025E+02  0.29989683627E+01  0.36848295041E+02  0.62499998964E+02  0.99999893509E+01 0.  0.
    3000022    2    3    3    0    0  0.11567851962E+01  0.18836375277E+01  0.15818370755E+01  0.27296441870E+01  0.25001305562E+00 0.  0.
    1000022    2    1    0    0    0 -0.49390884025E+02 -0.29989683627E+01 -0.36848295041E+02  0.62500001036E+02  0.10000002299E+02 0.  0.
    3000022    2    5    5    0    0 -0.33388748014E+02  0.46726561683E+00 -0.29373408936E+02  0.44473435717E+02  0.25000159976E+00 0.  0.
        -13    1    4    4    0    0  0.42230510231E+00  0.67610562275E+00  0.64440968936E+00  0.10304121798E+01  0.10500000000E+00 0.  1.
         13    1    4    4    0    0  0.73448009390E+00  0.12075319050E+01  0.93742738613E+00  0.16992320072E+01  0.10500000000E+00 0. -1.
    3000001    1    5    5    0    0 -0.16002136011E+02 -0.34662339795E+01 -0.74748861048E+01  0.18026565319E+02  0.10000000000E+01 0.  1.
        -13    1    6    6    0    0 -0.20076060520E+02  0.22318159622E+00 -0.17627618153E+02  0.26717821071E+02  0.10500000000E+00 0.  1.
         13    1    6    6    0    0 -0.13312687494E+02  0.24408402061E+00 -0.11745790784E+02  0.17755614646E+02  0.10500000000E+00 0. -1.
</event>
<event>
11    0  0.3467594E-009  0.9118800E+02  0.7816531E-02  0.1126479E+00
         25   -1    0    0    0    0  0.00000000000E+00  0.00000000000E+00  0.99999998245E-14  0.12500000000E+03  0.12500000000E+03 0.  0.
    3000001    1    3    3    0    0  0.50522425865E+01  0.14577028965E+02  0.14101098382E+02  0.20925006671E+02  0.10000000000E+01 0. -1.
    1000022    2    1    0    0    0  0.99481950250E+01  0.51708430598E+02  0.32148431802E+02  0.62500000306E+02  0.99999995866E+01 0.  0.
    3000022    2    3    3    0    0  0.48959524385E+01  0.37131401632E+02  0.18047333421E+02  0.41574993635E+02  0.25002934002E+00 0.  0.
    1000022    2    1    0    0    0 -0.99481950250E+01 -0.51708430598E+02 -0.32148431802E+02  0.62499999694E+02  0.99999957663E+01 0.  0.
    3000022    2    5    5    0    0 -0.92284878663E+00 -0.66429441927E+01 -0.84157212872E+01  0.10764166000E+02  0.25009491503E+00 0.  0.
        -13    1    4    4    0    0  0.27086507035E+01  0.20048409698E+02  0.97282909328E+01  0.22448300371E+02  0.10500000000E+00 0.  1.
         13    1    4    4    0    0  0.21873017349E+01  0.17082991934E+02  0.83190424879E+01  0.19126693264E+02  0.10500000000E+00 0. -1.
    3000001    1    5    5    0    0 -0.90253462384E+01 -0.45065486405E+02 -0.23732710515E+02  0.51735833694E+02  0.10000000000E+01 0. -1.
        -13    1    6    6    0    0 -0.29830652970E+00 -0.21783822664E+01 -0.28449732227E+01  0.35971146384E+01  0.10500000000E+00 0. -1.
         13    1    6    6    0    0 -0.62454225693E+00 -0.44645619263E+01 -0.55707480645E+01  0.71670513618E+01  0.10500000000E+00 0.  1.
</event>
<event>
11    0  0.3467594E-009  0.9118800E+02  0.7816531E-02  0.1126479E+00
         25   -1    0    0    0    0  0.00000000000E+00  0.00000000000E+00  0.99999998245E-14  0.12500000000E+03  0.12500000000E+03 0.  0.
    3000001    1    3    3    0    0  0.31249996562E+02  0.34225399583E+01  0.43412541946E+02  0.53608999833E+02  0.10000000000E+01 0. -1.
    1000022    2    1    0    0    0  0.39026618066E+02  0.29639958101E+01  0.47690542127E+02  0.62500000401E+02  0.10000002645E+02 0.  0.
    3000022    2    3    3    0    0  0.77766215041E+01 -0.45854414820E+00  0.42780001812E+01  0.88910005680E+01  0.25000159030E+00 0.  0.
    1000022    2    1    0    0    0 -0.39026618066E+02 -0.29639958101E+01 -0.47690542127E+02  0.62499999599E+02  0.99999976323E+01 0.  0.
    3000022    2    5    5    0    0 -0.38466855830E+02 -0.39422783383E+01 -0.44383907149E+02  0.58866240479E+02  0.24999665666E+00 0.  0.
        -13    1    4    4    0    0  0.38636889831E+01 -0.16648928339E+00  0.21567645428E+01  0.44292741542E+01  0.10500000000E+00 0. -1.
         13    1    4    4    0    0  0.39129325210E+01 -0.29205486482E+00  0.21212356384E+01  0.44617264138E+01  0.10500000000E+00 0.  1.
    3000001    1    5    5    0    0 -0.55976223612E+00  0.97828252825E+00 -0.33066349782E+01  0.36337591204E+01  0.10000000000E+01 0.  1.
        -13    1    6    6    0    0 -0.14503889488E+02 -0.14929451541E+01 -0.16644393356E+02  0.22127777807E+02  0.10500000000E+00 0.  1.
         13    1    6    6    0    0 -0.23962966342E+02 -0.24493331842E+01 -0.27739513793E+02  0.36738462671E+02  0.10500000000E+00 0. -1.
</event>
<event>
11    0  0.3467594E-009  0.9118800E+02  0.7816531E-02  0.1126479E+00
         25   -1    0    0    0    0  0.00000000000E+00  0.00000000000E+00  0.99999998245E-14  0.12500000000E+03  0.12500000000E+03 0.  0.
    3000001    1    3    3    0    0 -0.61544371295E+01  0.42941907242E+01  0.25800532196E+02  0.26888373546E+02  0.10000000000E+01 0. -1.
    1000022    2    1    0    0    0 -0.98616966214E+01 -0.44002942649E+00  0.60899944961E+02  0.62499999318E+02  0.99999966198E+01 0.  0.
    3000022    2    3    3    0    0 -0.37072594919E+01 -0.47342201507E+01  0.35099412765E+02  0.35611625772E+02  0.25000064805E+00 0.  0.
    1000022    2    1    0    0    0  0.98616966214E+01  0.44002942649E+00 -0.60899944961E+02  0.62500000682E+02  0.10000005139E+02 0.  0.
    3000022    2    5    5    0    0  0.84473303383E+01 -0.14161091452E+01 -0.23491741955E+02  0.25005743328E+02  0.25000865795E+00 0.  0.
        -13    1    4    4    0    0 -0.12071686965E+01 -0.15884904027E+01  0.11919454020E+02  0.12085734034E+02  0.10500000000E+00 0.  1.
         13    1    4    4    0    0 -0.25000907955E+01 -0.31457297480E+01  0.23179958745E+02  0.23525891738E+02  0.10500000000E+00 0. -1.
    3000001    1    5    5    0    0  0.14143662831E+01  0.18561385717E+01 -0.37408203006E+02  0.37494257354E+02  0.10000000000E+01 0. -1.
        -13    1    6    6    0    0  0.32904914182E+01 -0.49792156726E+00 -0.92218343960E+01  0.98045149950E+01  0.10500000000E+00 0. -1.
         13    1    6    6    0    0  0.51568389201E+01 -0.91818757794E+00 -0.14269907559E+02  0.15201228333E+02  0.10500000000E+00 0.  1.
</event>
<event>
11    0  0.3467594E-009  0.9118800E+02  0.7816531E-02  0.1126479E+00
         25   -1    0    0    0    0  0.00000000000E+00  0.00000000000E+00  0.99999998245E-14  0.12500000000E+03  0.12500000000E+03 0.  0.
    3000001    1    3    3    0    0  0.70641478720E+00 -0.65760150703E+00  0.25536708543E+00  0.14130371340E+01  0.10000000000E+01 0.  1.
    1000022    2    1    0    0    0  0.49935686223E+02  0.96518703449E+01  0.34921605339E+02  0.62499999227E+02  0.10000001212E+02 0.  0.
    3000022    2    3    3    0    0  0.49229271436E+02  0.10309471852E+02  0.34666238253E+02  0.61086962093E+02  0.24997435417E+00 0.  0.
    1000022    2    1    0    0    0 -0.49935686223E+02 -0.96518703449E+01 -0.34921605339E+02  0.62500000773E+02  0.10000010869E+02 0.  0.
    3000022    2    5    5    0    0 -0.31226852574E+02 -0.48784593231E+01 -0.15912196792E+02  0.35386101706E+02  0.25000028032E+00 0.  0.
        -13    1    4    4    0    0  0.22099575678E+02  0.46692515313E+01  0.15632284356E+02  0.27469482962E+02  0.10500000000E+00 0. -1.
         13    1    4    4    0    0  0.27129695758E+02  0.56402203206E+01  0.19033953897E+02  0.33617479131E+02  0.10500000000E+00 0.  1.
    3000001    1    5    5    0    0 -0.18708833649E+02 -0.47734110218E+01 -0.19009408547E+02  0.27113899067E+02  0.10000000000E+01 0.  1.
        -13    1    6    6    0    0 -0.10409300732E+02 -0.15738692358E+01 -0.52851199176E+01  0.11780242937E+02  0.10500000000E+00 0. -1.
         13    1    6    6    0    0 -0.20817551842E+02 -0.33045900873E+01 -0.10627076874E+02  0.23605858769E+02  0.10500000000E+00 0.  1.
</event>
<event>
11    0  0.3467594E-009  0.9118800E+02  0.7816531E-02  0.1126479E+00
         25   -1    0    0    0    0  0.00000000000E+00  0.00000000000E+00  0.99999998245E-14  0.12500000000E+03  0.12500000000E+03 0.  0.
    3000001    1    3    3    0    0 -0.13886149868E+01  0.52787035951E+01  0.58072349191E+01  0.80322438105E+01  0.10000000000E+01 0. -1.
    1000022    2    1    0    0    0 -0.20029484695E+02  0.19941539640E+02  0.54839808672E+02  0.62500001049E+02  0.10000012780E+02 0.  0.
    3000022    2    3    3    0    0 -0.18640869708E+02  0.14662836045E+02  0.49032573753E+02  0.54467757239E+02  0.25001081696E+00 0.  0.
    1000022    2    1    0    0    0  0.20029484695E+02 -0.19941539640E+02 -0.54839808672E+02  0.62499998951E+02  0.99999996636E+01 0.  0.
    3000022    2    5    5    0    0  0.19351612623E+02 -0.20843251814E+02 -0.52648306713E+02  0.59840059811E+02  0.25000230249E+00 0.  0.
        -13    1    4    4    0    0 -0.76541328553E+01  0.60932613259E+01  0.20294273218E+02  0.22529583525E+02  0.10500000000E+00 0.  1.
         13    1    4    4    0    0 -0.10986736853E+02  0.85695747192E+01  0.28738300535E+02  0.31938173714E+02  0.10500000000E+00 0. -1.
    3000001    1    5    5    0    0  0.67787207186E+00  0.90171217364E+00 -0.21915019595E+01  0.26599391399E+01  0.10000000000E+01 0. -1.
        -13    1    6    6    0    0  0.10478848894E+02 -0.11384554443E+02 -0.28629349968E+02  0.32543279776E+02  0.10500000000E+00 0.  1.
         13    1    6    6    0    0  0.88727637286E+01 -0.94586973709E+01 -0.24018956745E+02  0.27296780034E+02  0.10500000000E+00 0. -1.
</event>
<event>
11    0  0.3467594E-009  0.9118800E+02  0.7816531E-02  0.1126479E+00
         25   -1    0    0    0    0  0.00000000000E+00  0.00000000000E+00  0.99999998245E-14  0.12500000000E+03  0.12500000000E+03 0.  0.
    3000001    1    3    3    0    0 -0.21402639315E+02  0.55274122591E+02 -0.13766454373E+02  0.60858991643E+02  0.10000000000E+01 0. -1.
    1000022    2    1    0    0    0 -0.20412808589E+02  0.56558105936E+02 -0.13811207004E+02  0.62499991258E+02  0.99998683380E+01 0.  0.
    3000022    2    3    3    0    0  0.98983072605E+00  0.12839833457E+01 -0.44752630443E-01  0.16409996150E+01  0.24999768046E+00 0.  0.
    1000022    2    1    0    0    0  0.20412808589E+02 -0.56558105936E+02  0.13811207004E+02  0.62500008742E+02  0.99999776113E+01 0.  0.
    3000022    2    5    5    0    0  0.19558383407E+02 -0.42480979438E+02  0.11653948818E+02  0.48197935615E+02  0.24999801919E+00 0.  0.
        -13    1    4    4    0    0  0.55712895802E+00  0.61739963491E+00 -0.44307335182E-01  0.83938258559E+00  0.10500000000E+00 0. -1.
         13    1    4    4    0    0  0.43270176803E+00  0.66658371076E+00 -0.44529526164E-03  0.80161702938E+00  0.10500000000E+00 0.  1.
    3000001    1    5    5    0    0  0.85442518245E+00 -0.14077126498E+02  0.21572581854E+01  0.14302073127E+02  0.10000000000E+01 0. -1.
        -13    1    6    6    0    0  0.79092071232E+01 -0.17158956889E+02  0.46434534844E+01  0.19456568148E+02  0.10500000000E+00 0. -1.
         13    1    6    6    0    0  0.11649176283E+02 -0.25322022549E+02  0.70104953337E+01  0.28741367467E+02  0.10500000000E+00 0.  1.
</event>
<event>
11    0  0.3467594E-009  0.9118800E+02  0.7816531E-02  0.1126479E+00
         25   -1    0    0    0    0  0.00000000000E+00  0.00000000000E+00  0.99999998245E-14  0.12500000000E+03  0.12500000000E+03 0.  0.
    3000001    1    3    3    0    0 -0.10871676672E+02  0.16654496222E+02 -0.46040396202E+01  0.20439246045E+02  0.10000000000E+01 0.  1.
    1000022    2    1    0    0    0 -0.20261788624E+02  0.56463834181E+02 -0.14406438329E+02  0.62500001098E+02  0.10000001161E+02 0.  0.
    3000022    2    3    3    0    0 -0.93901119514E+01  0.39809337960E+02 -0.98023987084E+01  0.42060755053E+02  0.25000783173E+00 0.  0.
    1000022    2    1    0    0    0  0.20261788624E+02 -0.56463834181E+02  0.14406438329E+02  0.62499998902E+02  0.99999874399E+01 0.  0.
    3000022    2    5    5    0    0  0.15948046285E+02 -0.30031039491E+02  0.86706048721E+01  0.35091956405E+02  0.25000450882E+00 0.  0.
        -13    1    4    4    0    0 -0.69683524821E+01  0.29420407330E+02 -0.72617834980E+01  0.31094417961E+02  0.10500000000E+00 0. -1.
         13    1    4    4    0    0 -0.24217594693E+01  0.10388930629E+02 -0.25406152104E+01  0.10966337091E+02  0.10500000000E+00 0.  1.
    3000001    1    5    5    0    0  0.43137423386E+01 -0.26432794690E+02  0.57358334565E+01  0.27408042497E+02  0.10000000000E+01 0.  1.
        -13    1    6    6    0    0  0.50475687154E+01 -0.95632163716E+01  0.28010391289E+01  0.11170940091E+02  0.10500000000E+00 0.  1.
         13    1    6    6    0    0  0.10900477570E+02 -0.20467823120E+02  0.58695657432E+01  0.23921016314E+02  0.10500000000E+00 0. -1.
</event>
<event>
11    0  0.3467594E-009  0.9118800E+02  0.7816531E-02  0.1126479E+00
         25   -1    0    0    0    0  0.00000000000E+00  0.00000000000E+00  0.99999998245E-14  0.12500000000E+03  0.12500000000E+03 0.  0.
    3000001    1    3    3    0    0  0.10292394964E+02  0.54119397980E+00 -0.25437225518E+02  0.27464135287E+02  0.10000000000E+01 0. -1.
    1000022    2    1    0    0    0  0.17742398905E+02 -0.83544969000E+01 -0.58494958507E+02  0.62500003841E+02  0.99999986023E+01 0.  0.
    3000022    2    3    3    0    0  0.74500039409E+01 -0.88956908798E+01 -0.33057732989E+02  0.35035868554E+02  0.25000001560E+00 0.  0.
    1000022    2    1    0    0    0 -0.17742398905E+02  0.83544969000E+01  0.58494958507E+02  0.62499996159E+02  0.99999505857E+01 0.  0.
    3000022    2    5    5    0    0 -0.12109883412E+02  0.24763058542E+01  0.45357705962E+02  0.47012395790E+02  0.25000165532E+00 0.  0.
        -13    1    4    4    0    0  0.51117720487E+01 -0.60278308769E+01 -0.22553889645E+02  0.23898826784E+02  0.10500000000E+00 0.  1.
         13    1    4    4    0    0  0.23382318922E+01 -0.28678600029E+01 -0.10503843344E+02  0.11137041769E+02  0.10500000000E+00 0. -1.
    3000001    1    5    5    0    0 -0.56325154927E+01  0.58781910458E+01  0.13137252545E+02  0.15487600369E+02  0.10000000000E+01 0. -1.
        -13    1    6    6    0    0 -0.34638569310E+01  0.73855586493E+00  0.13112601711E+02  0.13582898006E+02  0.10500000000E+00 0.  1.
         13    1    6    6    0    0 -0.86460264810E+01  0.17377499893E+01  0.32245104251E+02  0.33429497784E+02  0.10500000000E+00 0. -1.
</event>
<event>
11    0  0.3467594E-009  0.9118800E+02  0.7816531E-02  0.1126479E+00
         25   -1    0    0    0    0  0.00000000000E+00  0.00000000000E+00  0.99999998245E-14  0.12500000000E+03  0.12500000000E+03 0.  0.
    3000001    1    3    3    0    0 -0.98372974672E+01  0.76980633923E+00 -0.17563049184E+01  0.10072220720E+02  0.10000000000E+01 0. -1.
    1000022    2    1    0    0    0 -0.60847598161E+02 -0.43674133924E+01  0.92057712560E+01  0.62499993949E+02  0.99999258735E+01 0.  0.
    3000022    2    3    3    0    0 -0.51010300694E+02 -0.51372197316E+01  0.10962076174E+02  0.52427773229E+02  0.24997654387E+00 0.  0.
    1000022    2    1    0    0    0  0.60847598161E+02  0.43674133924E+01 -0.92057712560E+01  0.62500006051E+02  0.10000001512E+02 0.  0.
    3000022    2    5    5    0    0  0.53845315336E+01  0.10256577937E+00 -0.38131017030E+01  0.66034804899E+01  0.25002081396E+00 0.  0.
        -13    1    4    4    0    0 -0.29568162448E+02 -0.30002165816E+01  0.64168592255E+01  0.30405010071E+02  0.10500000000E+00 0. -1.
         13    1    4    4    0    0 -0.21442138246E+02 -0.21370031499E+01  0.45452169489E+01  0.22022763158E+02  0.10500000000E+00 0.  1.
    3000001    1    5    5    0    0  0.55463066628E+02  0.42648476130E+01 -0.53926695530E+01  0.55896525561E+02  0.10000000000E+01 0.  1.
        -13    1    6    6    0    0  0.20334001104E+01  0.37022359422E-01 -0.15151073565E+01  0.25382399346E+01  0.10500000000E+00 0. -1.
         13    1    6    6    0    0  0.33511314232E+01  0.65543419945E-01 -0.22979943465E+01  0.40652405553E+01  0.10500000000E+00 0.  1.
</event>
<event>
11    0  0.3467594E-009  0.9118800E+02  0.7816531E-02  0.1126479E+00
         25   -1    0    0    0    0  0.00000000000E+00  0.00000000000E+00  0.99999998245E-14  0.12500000000E+03  0.12500000000E+03 0.  0.
    3000001    1    3    3    0    0  0.34687188175E+02  0.14304404312E+02 -0.24239541954E+02  0.44680783345E+02  0.10000000000E+01 0.  1.
    1000022    2    1    0    0    0  0.49462141830E+02  0.13822749386E+02 -0.34185931694E+02  0.62499998307E+02  0.99999993794E+01 0.  0.
    3000022    2    3    3    0    0  0.14774953655E+02 -0.48165492632E+00 -0.99463897407E+01  0.17819214962E+02  0.25001202609E+00 0.  0.
    1000022    2    1    0    0    0 -0.49462141830E+02 -0.13822749386E+02  0.34185931694E+02  0.62500001693E+02  0.10000020545E+02 0.  0.
    3000022    2    5    5    0    0 -0.30770037158E+01 -0.35273361563E+01  0.42900456699E+01  0.63542932858E+01  0.24999817104E+00 0.  0.
        -13    1    4    4    0    0  0.53346976292E+01 -0.13936143659E+00 -0.35343643452E+01  0.64016542182E+01  0.10500000000E+00 0.  1.
         13    1    4    4    0    0  0.94402560254E+01 -0.34229348973E+00 -0.64120253955E+01  0.11417560744E+02  0.10500000000E+00 0. -1.
    3000001    1    5    5    0    0 -0.46385138114E+02 -0.10295413229E+02  0.29895886024E+02  0.56145708407E+02  0.10000000000E+01 0. -1.
        -13    1    6    6    0    0 -0.92422309380E+00 -0.10849982357E+01  0.13682279307E+01  0.19785050338E+01  0.10500000000E+00 0.  1.
         13    1    6    6    0    0 -0.21527806220E+01 -0.24423379207E+01  0.29218177392E+01  0.43757882520E+01  0.10500000000E+00 0. -1.
</event>
<event>
11    0  0.3467594E-009  0.9118800E+02  0.7816531E-02  0.1126479E+00
         25   -1    0    0    0    0  0.00000000000E+00  0.00000000000E+00  0.99999998245E-14  0.12500000000E+03  0.12500000000E+03 0.  0.
    3000001    1    3    3    0    0  0.15176906101E+02  0.60092355686E+02 -0.21730621615E+01  0.62025413258E+02  0.10000000000E+01 0.  1.
    1000022    2    1    0    0    0  0.14940205629E+02  0.59812672084E+02 -0.23418331777E+01  0.62499998001E+02  0.10000004073E+02 0.  0.
    3000022    2    3    3    0    0 -0.23670047187E+00 -0.27968360204E+00 -0.16877101613E+00  0.47458474314E+00  0.24999398372E+00 0.  0.
    1000022    2    1    0    0    0 -0.14940205629E+02 -0.59812672084E+02  0.23418331777E+01  0.62500001999E+02  0.10000029058E+02 0.  0.
    3000022    2    5    5    0    0 -0.13814126834E+02 -0.38543044841E+02  0.38418420805E+01  0.41124428949E+02  0.25000000771E+00 0.  0.
        -13    1    4    4    0    0 -0.20727301802E+00 -0.16350020521E+00 -0.11316695357E+00  0.30582050370E+00  0.10500000000E+00 0.  1.
         13    1    4    4    0    0 -0.29427453851E-01 -0.11618339683E+00 -0.55604062564E-01  0.16876423943E+00  0.10500000000E+00 0. -1.
    3000001    1    5    5    0    0 -0.11260787956E+01 -0.21269627242E+02 -0.15000089028E+01  0.21375573049E+02  0.10000000000E+01 0.  1.
        -13    1    6    6    0    0 -0.74397934921E+01 -0.20624609411E+02  0.21075067598E+01  0.22026748519E+02  0.10500000000E+00 0. -1.
         13    1    6    6    0    0 -0.63743333418E+01 -0.17918435430E+02  0.17343353207E+01  0.19097680431E+02  0.10500000000E+00 0.  1.
</event>
<event>
11    0  0.3467594E-009  0.9118800E+02  0.7816531E-02  0.1126479E+00
         25   -1    0    0    0    0  0.00000000000E+00  0.00000000000E+00  0.99999998245E-14  0.12500000000E+03  0.12500000000E+03 0.  0.
    3000001    1    3    3    0    0 -0.34461038042E+01 -0.76683172960E+01  0.50801730997E+02  0.51502374643E+02  0.10000000000E+01 0. -1.
    1000022    2    1    0    0    0 -0.32918113635E+01 -0.13528836561E+02  0.60103116358E+02  0.62500000191E+02  0.99999993578E+01 0.  0.
    3000022    2    3    3    0    0  0.15429244065E+00 -0.58605192653E+01  0.93013853615E+01  0.10997625548E+02  0.25001168068E+00 0.  0.
    1000022    2    1    0    0    0  0.32918113635E+01  0.13528836561E+02 -0.60103116358E+02  0.62499999809E+02  0.99999969710E+01 0.  0.
    3000022    2    5    5    0    0 -0.28251567979E+01  0.81372168624E+01 -0.24828246047E+02  0.26281174070E+02  0.24999903518E+00 0.  0.
        -13    1    4    4    0    0  0.10054442246E+00 -0.35406121662E+01  0.57345487769E+01  0.67410769442E+01  0.10500000000E+00 0. -1.
         13    1    4    4    0    0  0.53748018197E-01 -0.23199070991E+01  0.35668365846E+01  0.42565486041E+01  0.10500000000E+00 0.  1.
    3000001    1    5    5    0    0  0.61169681614E+01  0.53916196989E+01 -0.35274870311E+02  0.36218825739E+02  0.10000000000E+01 0.  1.
        -13    1    6    6    0    0 -0.81028763184E+00  0.23209110356E+01 -0.72162471888E+01  0.76242011104E+01  0.10500000000E+00 0. -1.
         13    1    6    6    0    0 -0.20148691661E+01  0.58163058268E+01 -0.17611998858E+02  0.18656972959E+02  0.10500000000E+00 0.  1.
</event>
<event>
11    0  0.3467594E-009  0.9118800E+02  0.7816531E-02  0.1126479E+00
         25   -1    0    0    0    0  0.00000000000E+00  0.00000000000E+00  0.99999998245E-14  0.12500000000E+03  0.12500000000E+03 0.  0.
    3000001    1    3    3    0    0  0.12854465269E+02  0.10697635668E+02  0.27840487175E+02  0.32492605503E+02  0.10000000000E+01 0.  1.
    1000022    2    1    0    0    0  0.18005401844E+02  0.27201596822E+02  0.52365338710E+02  0.62499999952E+02  0.99999965298E+01 0.  0.
    3000022    2    3    3    0    0  0.51509365748E+01  0.16503961153E+02  0.24524851535E+02  0.30007394449E+02  0.24999490160E+00 0.  0.
    1000022    2    1    0    0    0 -0.18005401844E+02 -0.27201596822E+02 -0.52365338710E+02  0.62500000048E+02  0.99999971289E+01 0.  0.
    3000022    2    5    5    0    0 -0.31709185438E+01 -0.13345159939E+02 -0.23174575757E+02  0.26930864837E+02  0.25000230968E+00 0.  0.
        -13    1    4    4    0    0  0.29592737926E+01  0.96969553019E+01  0.14388768060E+02  0.17602156538E+02  0.10500000000E+00 0. -1.
         13    1    4    4    0    0  0.21916627821E+01  0.68070058514E+01  0.10136083475E+02  0.12405237911E+02  0.10500000000E+00 0.  1.
    3000001    1    5    5    0    0 -0.14834483300E+02 -0.13856436882E+02 -0.29190762953E+02  0.35569135211E+02  0.10000000000E+01 0. -1.
        -13    1    6    6    0    0 -0.21532017152E+01 -0.88432358190E+01 -0.15337917406E+02  0.17835409520E+02  0.10500000000E+00 0.  1.
         13    1    6    6    0    0 -0.10177168286E+01 -0.45019241204E+01 -0.78366583508E+01  0.90954553177E+01  0.10500000000E+00 0. -1.
</event>
<event>
11    0  0.3467594E-009  0.9118800E+02  0.7816531E-02  0.1126479E+00
         25   -1    0    0    0    0  0.00000000000E+00  0.00000000000E+00  0.99999998245E-14  0.12500000000E+03  0.12500000000E+03 0.  0.
    3000001    1    3    3    0    0  0.27201729185E+02  0.30395607089E+02 -0.97029670456E+01  0.41940130787E+02  0.10000000000E+01 0. -1.
    1000022    2    1    0    0    0  0.41862593470E+02  0.44664071581E+02 -0.76742280774E+01  0.62500001416E+02  0.10000018910E+02 0.  0.
    3000022    2    3    3    0    0  0.14660864285E+02  0.14268464492E+02  0.20287389682E+01  0.20559870629E+02  0.24995585740E+00 0.  0.
    1000022    2    1    0    0    0 -0.41862593470E+02 -0.44664071581E+02  0.76742280774E+01  0.62499998584E+02  0.10000001208E+02 0.  0.
    3000022    2    5    5    0    0 -0.30892312567E+02 -0.33637969504E+02  0.13844164908E+01  0.45692746581E+02  0.25002594238E+00 0.  0.
        -13    1    4    4    0    0  0.95825088884E+01  0.93567733176E+01  0.12766992465E+01  0.13454169223E+02  0.10500000000E+00 0.  1.
         13    1    4    4    0    0  0.50783553967E+01  0.49116911745E+01  0.75203972172E+00  0.71057014061E+01  0.10500000000E+00 0. -1.
    3000001    1    5    5    0    0 -0.10970280903E+02 -0.11026102077E+02  0.62898115866E+01  0.16807252003E+02  0.10000000000E+01 0.  1.
        -13    1    6    6    0    0 -0.85595079788E+01 -0.92666209429E+01  0.39489837370E+00  0.12621505864E+02  0.10500000000E+00 0.  1.
         13    1    6    6    0    0 -0.22332804588E+02 -0.24371348561E+02  0.98951811709E+00  0.33071240717E+02  0.10500000000E+00 0. -1.
</event>
<event>
11    0  0.3467594E-009  0.9118800E+02  0.7816531E-02  0.1126479E+00
         25   -1    0    0    0    0  0.00000000000E+00  0.00000000000E+00  0.99999998245E-14  0.12500000000E+03  0.12500000000E+03 0.  0.
    3000001    1    3    3    0    0 -0.17156376268E+02  0.34758900373E+02 -0.54702490337E+01  0.39159239348E+02  0.10000000000E+01 0.  1.
    1000022    2    1    0    0    0 -0.32229156325E+02  0.51058175856E+02 -0.12672574518E+02  0.62499999288E+02  0.99999963464E+01 0.  0.
    3000022    2    3    3    0    0 -0.15072780057E+02  0.16299275482E+02 -0.72023254842E+01  0.23340759940E+02  0.25000459725E+00 0.  0.
    1000022    2    1    0    0    0  0.32229156325E+02 -0.51058175856E+02  0.12672574518E+02  0.62500000712E+02  0.10000005253E+02 0.  0.
    3000022    2    5    5    0    0  0.14458691263E+02 -0.30878269069E+02  0.45870497791E+01  0.34403848365E+02  0.25000584291E+00 0.  0.
        -13    1    4    4    0    0 -0.85956625438E+01  0.92550023901E+01 -0.40349613852E+01  0.13260181831E+02  0.10500000000E+00 0.  1.
         13    1    4    4    0    0 -0.64771175128E+01  0.70442730923E+01 -0.31673640990E+01  0.10080578109E+02  0.10500000000E+00 0. -1.
    3000001    1    5    5    0    0  0.17770465062E+02 -0.20179906787E+02  0.80855247388E+01  0.28096152348E+02  0.10000000000E+01 0.  1.
        -13    1    6    6    0    0  0.68956331194E+01 -0.14694361577E+02  0.21169741251E+01  0.16369686091E+02  0.10500000000E+00 0. -1.
         13    1    6    6    0    0  0.75630581434E+01 -0.16183907492E+02  0.24700756540E+01  0.18034162274E+02  0.10500000000E+00 0.  1.
</event>
<event>
11    0  0.3467594E-009  0.9118800E+02  0.7816531E-02  0.1126479E+00
         25   -1    0    0    0    0  0.00000000000E+00  0.00000000000E+00  0.99999998245E-14  0.12500000000E+03  0.12500000000E+03 0.  0.
    3000001    1    3    3    0    0  0.29485657913E+01 -0.44537033790E+02 -0.41481797545E+02  0.60942439618E+02  0.10000000000E+01 0. -1.
    1000022    2    1    0    0    0  0.30598755972E+01 -0.45994342283E+02 -0.41004970612E+02  0.62499999863E+02  0.10000000357E+02 0.  0.
    3000022    2    3    3    0    0  0.11130980594E+00 -0.14573084935E+01  0.47682693311E+00  0.15575602442E+01  0.24998414407E+00 0.  0.
    1000022    2    1    0    0    0 -0.30598755972E+01  0.45994342283E+02  0.41004970612E+02  0.62500000137E+02  0.10000002075E+02 0.  0.
    3000022    2    5    5    0    0 -0.40057181546E+01  0.16613576872E+02  0.10179419500E+02  0.19893209649E+02  0.24998876939E+00 0.  0.
        -13    1    4    4    0    0  0.97396028897E-02 -0.91788679976E+00  0.29717047305E+00  0.97053919400E+00  0.10500000000E+00 0. -1.
         13    1    4    4    0    0  0.10157020305E+00 -0.53942169370E+00  0.17965646007E+00  0.58702105024E+00  0.10500000000E+00 0.  1.
    3000001    1    5    5    0    0  0.94584255738E+00  0.29380765412E+02  0.30825551112E+02  0.42606790488E+02  0.10000000000E+01 0.  1.
        -13    1    6    6    0    0 -0.27954252301E+01  0.11580362618E+02  0.71496248132E+01  0.13894148429E+02  0.10500000000E+00 0.  1.
         13    1    6    6    0    0 -0.12102929245E+01  0.50332142533E+01  0.30297946867E+01  0.59990612205E+01  0.10500000000E+00 0. -1.
</event>
<event>
11    0  0.3467594E-009  0.9118800E+02  0.7816531E-02  0.1126479E+00
         25   -1    0    0    0    0  0.00000000000E+00  0.00000000000E+00  0.99999998245E-14  0.12500000000E+03  0.12500000000E+03 0.  0.
    3000001    1    3    3    0    0  0.13619841473E+02  0.12642140748E+01 -0.10330444400E+02  0.17170218417E+02  0.10000000000E+01 0. -1.
    1000022    2    1    0    0    0  0.53279803014E+02  0.15748529998E+02 -0.26823430566E+02  0.62500000056E+02  0.99999986651E+01 0.  0.
    3000022    2    3    3    0    0  0.39659961541E+02  0.14484315924E+02 -0.16492986166E+02  0.45329781639E+02  0.25010708177E+00 0.  0.
    1000022    2    1    0    0    0 -0.53279803014E+02 -0.15748529998E+02  0.26823430566E+02  0.62499999944E+02  0.99999979672E+01 0.  0.
    3000022    2    5    5    0    0 -0.40456266123E+02 -0.10004605544E+02  0.15639959236E+02  0.44513733030E+02  0.25000522243E+00 0.  0.
        -13    1    4    4    0    0  0.14429876919E+02  0.53215177262E+01 -0.60436664961E+01  0.16525036415E+02  0.10500000000E+00 0. -1.
         13    1    4    4    0    0  0.25230084623E+02  0.91627981975E+01 -0.10449319670E+02  0.28804745224E+02  0.10500000000E+00 0.  1.
    3000001    1    5    5    0    0 -0.12823536891E+02 -0.57439244547E+01  0.11183471329E+02  0.17986266914E+02  0.10000000000E+01 0.  1.
        -13    1    6    6    0    0 -0.27874785954E+02 -0.69345214373E+01  0.10809131546E+02  0.30691034999E+02  0.10500000000E+00 0. -1.
         13    1    6    6    0    0 -0.12581480170E+02 -0.30700841064E+01  0.48308276904E+01  0.13822698031E+02  0.10500000000E+00 0.  1.
</event>
<event>
11    0  0.3467594E-009  0.9118800E+02  0.7816531E-02  0.1126479E+00
         25   -1    0    0    0    0  0.00000000000E+00  0.00000000000E+00  0.99999998245E-14  0.12500000000E+03  0.12500000000E+03 0.  0.
    3000001    1    3    3    0    0  0.13654945070E+02  0.23005482986E+02  0.24821381082E+02  0.36507680440E+02  0.10000000000E+01 0. -1.
    1000022    2    1    0    0    0  0.18872366956E+02  0.34483876494E+02  0.47549407231E+02  0.62500000214E+02  0.99999963112E+01 0.  0.
    3000022    2    3    3    0    0  0.52174218867E+01  0.11478393508E+02  0.22728026148E+02  0.25992319775E+02  0.25001197714E+00 0.  0.
    1000022    2    1    0    0    0 -0.18872366956E+02 -0.34483876494E+02 -0.47549407231E+02  0.62499999786E+02  0.99999936309E+01 0.  0.
    3000022    2    5    5    0    0 -0.96406157112E+01 -0.26872941058E+02 -0.33020870623E+02  0.43652454979E+02  0.24999325901E+00 0.  0.
        -13    1    4    4    0    0  0.30883688281E+01  0.69428961311E+01  0.13669316488E+02  0.15639791142E+02  0.10500000000E+00 0. -1.
         13    1    4    4    0    0  0.21290530586E+01  0.45354973773E+01  0.90587096600E+01  0.10352528633E+02  0.10500000000E+00 0.  1.
    3000001    1    5    5    0    0 -0.92317512450E+01 -0.76109354364E+01 -0.14528536608E+02  0.18847544806E+02  0.10000000000E+01 0. -1.
        -13    1    6    6    0    0 -0.53099538365E+01 -0.14862543542E+02 -0.18157381871E+02  0.24058103659E+02  0.10500000000E+00 0. -1.
         13    1    6    6    0    0 -0.43306618747E+01 -0.12010397516E+02 -0.14863488752E+02  0.19594351320E+02  0.10500000000E+00 0.  1.
</event>
<event>
11    0  0.3467594E-009  0.9118800E+02  0.7816531E-02  0.1126479E+00
         25   -1    0    0    0    0  0.00000000000E+00  0.00000000000E+00  0.99999998245E-14  0.12500000000E+03  0.12500000000E+03 0.  0.
    3000001    1    3    3    0    0  0.18346153602E+02 -0.23114216335E+02 -0.19454451955E+02  0.35359921516E+02  0.10000000000E+01 0.  1.
    1000022    2    1    0    0    0  0.35353231812E+02 -0.33476517653E+02 -0.37890920815E+02  0.62500000337E+02  0.99999964078E+01 0.  0.
    3000022    2    3    3    0    0  0.17007078210E+02 -0.10362301318E+02 -0.18436468860E+02  0.27140078821E+02  0.24999301111E+00 0.  0.
    1000022    2    1    0    0    0 -0.35353231812E+02  0.33476517653E+02  0.37890920815E+02  0.62499999663E+02  0.99999921991E+01 0.  0.
    3000022    2    5    5    0    0 -0.14835089844E+02  0.76734760319E+01  0.11933530094E+02  0.20528851957E+02  0.24999417457E+00 0.  0.
        -13    1    4    4    0    0  0.11148653285E+02 -0.67656771639E+01 -0.12141157881E+02  0.17818125526E+02  0.10500000000E+00 0. -1.
         13    1    4    4    0    0  0.58584249252E+01 -0.35966241542E+01 -0.62953109787E+01  0.93219532947E+01  0.10500000000E+00 0.  1.
    3000001    1    5    5    0    0 -0.20518141968E+02  0.25803041621E+02  0.25957390721E+02  0.41971147706E+02  0.10000000000E+01 0. -1.
        -13    1    6    6    0    0 -0.66648312357E+01  0.33834779761E+01  0.52977885303E+01  0.91621769753E+01  0.10500000000E+00 0.  1.
         13    1    6    6    0    0 -0.81702586084E+01  0.42899980558E+01  0.66357415636E+01  0.11366674982E+02  0.10500000000E+00 0. -1.
</event>
<event>
11    0  0.3467594E-009  0.9118800E+02  0.7816531E-02  0.1126479E+00
         25   -1    0    0    0    0  0.00000000000E+00  0.00000000000E+00  0.99999998245E-14  0.12500000000E+03  0.12500000000E+03 0.  0.
    3000001    1    3    3    0    0  0.25886755176E+02 -0.28231004572E+02  0.65570500932E+01  0.38872980573E+02  0.10000000000E+01 0. -1.
    1000022    2    1    0    0    0  0.39809451196E+02 -0.43624206804E+02  0.17843377765E+02  0.62499995528E+02  0.99999743532E+01 0.  0.
    3000022    2    3    3    0    0  0.13922696020E+02 -0.15393202232E+02  0.11286327672E+02  0.23627014955E+02  0.25000785880E+00 0.  0.
    1000022    2    1    0    0    0 -0.39809451196E+02  0.43624206804E+02 -0.17843377765E+02  0.62500004472E+02  0.10000030258E+02 0.  0.
    3000022    2    5    5    0    0 -0.37746964651E+02  0.42861149885E+02 -0.18430627957E+02  0.60013848926E+02  0.25001248205E+00 0.  0.
        -13    1    4    4    0    0  0.10054458295E+02 -0.11074416552E+02  0.81017988661E+01  0.17011319862E+02  0.10500000000E+00 0. -1.
         13    1    4    4    0    0  0.38682377249E+01 -0.43187856799E+01  0.31845288061E+01  0.66156950929E+01  0.10500000000E+00 0.  1.
    3000001    1    5    5    0    0 -0.20624865454E+01  0.76305691891E+00  0.58725019192E+00  0.24861555461E+01  0.10000000000E+01 0. -1.
        -13    1    6    6    0    0 -0.28838095836E+02  0.32722830388E+02 -0.14081477674E+02  0.45833595086E+02  0.10500000000E+00 0. -1.
         13    1    6    6    0    0 -0.89088688144E+01  0.10138319497E+02 -0.43491502832E+01  0.14180253840E+02  0.10500000000E+00 0.  1.
</event>
<event>
11    0  0.3467594E-009  0.9118800E+02  0.7816531E-02  0.1126479E+00
         25   -1    0    0    0    0  0.00000000000E+00  0.00000000000E+00  0.99999998245E-14  0.12500000000E+03  0.12500000000E+03 0.  0.
    3000001    1    3    3    0    0  0.21336583452E+02  0.34517506518E+02 -0.10843432227E+02  0.42015331393E+02  0.10000000000E+01 0. -1.
    1000022    2    1    0    0    0  0.36568187134E+02  0.46547201506E+02 -0.17388954251E+02  0.62500000458E+02  0.10000002454E+02 0.  0.
    3000022    2    3    3    0    0  0.15231603682E+02  0.12029694988E+02 -0.65455220237E+01  0.20484669065E+02  0.24999183825E+00 0.  0.
    1000022    2    1    0    0    0 -0.36568187134E+02 -0.46547201506E+02  0.17388954251E+02  0.62499999542E+02  0.99999967278E+01 0.  0.
    3000022    2    5    5    0    0 -0.11091595802E+02 -0.99333762632E+01  0.84667019305E+00  0.14915589630E+02  0.25000438664E+00 0.  0.
        -13    1    4    4    0    0  0.88944100362E+01  0.71065525093E+01 -0.38407322659E+01  0.12015650952E+02  0.10500000000E+00 0.  1.
         13    1    4    4    0    0  0.63371936457E+01  0.49231424784E+01 -0.27047897579E+01  0.84690181131E+01  0.10500000000E+00 0. -1.
    3000001    1    5    5    0    0 -0.25476591332E+02 -0.36613825242E+02  0.16542284058E+02  0.47584409912E+02  0.10000000000E+01 0. -1.
        -13    1    6    6    0    0 -0.54866052937E+01 -0.48726034386E+01  0.47786557972E+00  0.73542152832E+01  0.10500000000E+00 0. -1.
         13    1    6    6    0    0 -0.56049905079E+01 -0.50607728246E+01  0.36880461333E+00  0.75613743472E+01  0.10500000000E+00 0.  1.
</event>
<event>
11    0  0.3467594E-009  0.9118800E+02  0.7816531E-02  0.1126479E+00
         25   -1    0    0    0    0  0.00000000000E+00  0.00000000000E+00  0.99999998245E-14  0.12500000000E+03  0.12500000000E+03 0.  0.
    3000001    1    3    3    0    0  0.20319099267E+02  0.33545260337E+02  0.16550353067E+02  0.42580094795E+02  0.10000000000E+01 0. -1.
    1000022    2    1    0    0    0  0.32993472953E+02  0.48809570117E+02  0.18311386343E+02  0.62500000751E+02  0.99999915736E+01 0.  0.
    3000022    2    3    3    0    0  0.12674373686E+02  0.15264309781E+02  0.17610332758E+01  0.19919905956E+02  0.25002735542E+00 0.  0.
    1000022    2    1    0    0    0 -0.32993472953E+02 -0.48809570117E+02 -0.18311386343E+02  0.62499999249E+02  0.99999821901E+01 0.  0.
    3000022    2    5    5    0    0 -0.18985917455E+02 -0.36003947090E+02 -0.11307508892E+02  0.42245372827E+02  0.25000057071E+00 0.  0.
        -13    1    4    4    0    0  0.50705087174E+01  0.62052542562E+01  0.71887823073E+00  0.80463066029E+01  0.10500000000E+00 0.  1.
         13    1    4    4    0    0  0.76038649682E+01  0.90590555244E+01  0.10421550451E+01  0.11873599353E+02  0.10500000000E+00 0. -1.
    3000001    1    5    5    0    0 -0.14007555498E+02 -0.12805623027E+02 -0.70038774517E+01  0.20254626422E+02  0.10000000000E+01 0.  1.
        -13    1    6    6    0    0 -0.14401328366E+02 -0.27344382519E+02 -0.85977190256E+01  0.32078736127E+02  0.10500000000E+00 0.  1.
         13    1    6    6    0    0 -0.45845890887E+01 -0.86595645715E+01 -0.27097898660E+01  0.10166636700E+02  0.10500000000E+00 0. -1.
</event>
<event>
11    0  0.3467594E-009  0.9118800E+02  0.7816531E-02  0.1126479E+00
         25   -1    0    0    0    0  0.00000000000E+00  0.00000000000E+00  0.99999998245E-14  0.12500000000E+03  0.12500000000E+03 0.  0.
    3000001    1    3    3    0    0  0.14515661480E+02  0.66285189453E+01 -0.17025623403E+02  0.23356231371E+02  0.10000000000E+01 0. -1.
    1000022    2    1    0    0    0  0.27824306143E+02  0.18136714942E+02 -0.51991513205E+02  0.62499999212E+02  0.10000000743E+02 0.  0.
    3000022    2    3    3    0    0  0.13308644664E+02  0.11508195997E+02 -0.34965889802E+02  0.39143767841E+02  0.25002643614E+00 0.  0.
    1000022    2    1    0    0    0 -0.27824306143E+02 -0.18136714942E+02  0.51991513205E+02  0.62500000788E+02  0.10000010594E+02 0.  0.
    3000022    2    5    5    0    0 -0.57728980716E+01 -0.57374845806E+01  0.20730569617E+02  0.22272496446E+02  0.24999973037E+00 0.  0.
        -13    1    4    4    0    0  0.46242528448E+01  0.39965031315E+01 -0.12022845576E+02  0.13487608847E+02  0.10500000000E+00 0.  1.
         13    1    4    4    0    0  0.86843918189E+01  0.75116928656E+01 -0.22943044226E+02  0.25656158994E+02  0.10500000000E+00 0. -1.
    3000001    1    5    5    0    0 -0.22051408072E+02 -0.12399230362E+02  0.31260943589E+02  0.40227504342E+02  0.10000000000E+01 0.  1.
        -13    1    6    6    0    0 -0.18800769496E+01 -0.18892749153E+01  0.69294234146E+01  0.74250914406E+01  0.10500000000E+00 0.  1.
         13    1    6    6    0    0 -0.38928211220E+01 -0.38482096653E+01  0.13801146202E+02  0.14847405006E+02  0.10500000000E+00 0. -1.
</event>
<event>
11    0  0.3467594E-009  0.9118800E+02  0.7816531E-02  0.1126479E+00
         25   -1    0    0    0    0  0.00000000000E+00  0.00000000000E+00  0.99999998245E-14  0.12500000000E+03  0.12500000000E+03 0.  0.
    3000001    1    3    3    0    0 -0.58730845183E+02  0.15957278064E+02  0.17769014369E+01  0.60894205618E+02  0.10000000000E+01 0.  1.
    1000022    2    1    0    0    0 -0.59521221166E+02  0.16226234002E+02  0.42818005196E+00  0.62500001640E+02  0.10000021397E+02 0.  0.
    3000022    2    3    3    0    0 -0.79037598212E+00  0.26895593777E+00 -0.13487213849E+01  0.16057960218E+01  0.25000000006E+00 0.  0.
    1000022    2    1    0    0    0  0.59521221166E+02 -0.16226234002E+02 -0.42818005196E+00  0.62499998360E+02  0.10000000896E+02 0.  0.
    3000022    2    5    5    0    0  0.59126880128E+02 -0.15591525048E+02 -0.92725893828E+00  0.61155587692E+02  0.24997962876E+00 0.  0.
        -13    1    4    4    0    0 -0.49319852655E+00  0.22895814767E+00 -0.85943554483E+00  0.10224094462E+01  0.10500000000E+00 0.  1.
         13    1    4    4    0    0 -0.29717745557E+00  0.39997790098E-01 -0.48928584009E+00  0.58338657563E+00  0.10500000000E+00 0. -1.
    3000001    1    5    5    0    0  0.39434103771E+00 -0.63470895335E+00  0.49907888631E+00  0.13444106680E+01  0.10000000000E+01 0. -1.
        -13    1    6    6    0    0  0.20013011903E+02 -0.53291401942E+01 -0.29251761403E+00  0.20712724886E+02  0.10500000000E+00 0. -1.
         13    1    6    6    0    0  0.39113868225E+02 -0.10262384854E+02 -0.63474132424E+00  0.40442862806E+02  0.10500000000E+00 0.  1.
</event>
<event>
11    0  0.3467594E-009  0.9118800E+02  0.7816531E-02  0.1126479E+00
         25   -1    0    0    0    0  0.00000000000E+00  0.00000000000E+00  0.99999998245E-14  0.12500000000E+03  0.12500000000E+03 0.  0.
    3000001    1    3    3    0    0  0.49069943418E+00 -0.11031247771E+01  0.49640853937E+00  0.16444122496E+01  0.10000000000E+01 0. -1.
    1000022    2    1    0    0    0 -0.19017322295E+02 -0.34515611279E+02  0.47468558587E+02  0.62499999897E+02  0.99999981784E+01 0.  0.
    3000022    2    3    3    0    0 -0.19508021729E+02 -0.33412486502E+02  0.46972150048E+02  0.60855587648E+02  0.25000359515E+00 0.  0.
    1000022    2    1    0    0    0  0.19017322295E+02  0.34515611279E+02 -0.47468558587E+02  0.62500000103E+02  0.99999994636E+01 0.  0.
    3000022    2    5    5    0    0  0.22646598107E+00  0.67778149260E+01 -0.51709847879E+01  0.85318022745E+01  0.25000872500E+00 0.  0.
        -13    1    4    4    0    0 -0.86089077814E+01 -0.14632301777E+02  0.20663954376E+02  0.26743739154E+02  0.10500000000E+00 0. -1.
         13    1    4    4    0    0 -0.10899113948E+02 -0.18780184725E+02  0.26308195672E+02  0.34111848494E+02  0.10500000000E+00 0.  1.
    3000001    1    5    5    0    0  0.18790856314E+02  0.27737796353E+02 -0.42297573799E+02  0.53968197828E+02  0.10000000000E+01 0. -1.
        -13    1    6    6    0    0  0.40527335700E-01  0.29286726066E+01 -0.22736961385E+01  0.37093779575E+01  0.10500000000E+00 0.  1.
         13    1    6    6    0    0  0.18593864537E+00  0.38491423194E+01 -0.28972886494E+01  0.48224243170E+01  0.10500000000E+00 0. -1.
</event>
<event>
11    0  0.3467594E-009  0.9118800E+02  0.7816531E-02  0.1126479E+00
         25   -1    0    0    0    0  0.00000000000E+00  0.00000000000E+00  0.99999998245E-14  0.12500000000E+03  0.12500000000E+03 0.  0.
    3000001    1    3    3    0    0  0.84050835457E+01  0.51771636745E+01 -0.41480106774E+01  0.10754275694E+02  0.10000000000E+01 0.  1.
    1000022    2    1    0    0    0  0.45246591762E+02  0.15351093207E+02 -0.39029984340E+02  0.62500001720E+02  0.10000020438E+02 0.  0.
    3000022    2    3    3    0    0  0.36841508216E+02  0.10173929532E+02 -0.34881973663E+02  0.51745726026E+02  0.25001124856E+00 0.  0.
    1000022    2    1    0    0    0 -0.45246591762E+02 -0.15351093207E+02  0.39029984340E+02  0.62499998280E+02  0.99999989337E+01 0.  0.
    3000022    2    5    5    0    0 -0.38753701340E+02 -0.13352586254E+02  0.37294546834E+02  0.55417385809E+02  0.24999832683E+00 0.  0.
        -13    1    4    4    0    0  0.11133125585E+02  0.30879662482E+01 -0.10484179978E+02  0.15601636954E+02  0.10500000000E+00 0.  1.
         13    1    4    4    0    0  0.25708382631E+02  0.70859632838E+01 -0.24397793685E+02  0.36144089072E+02  0.10500000000E+00 0. -1.
    3000001    1    5    5    0    0 -0.64928904215E+01 -0.19985069525E+01  0.17354375062E+01  0.70826124702E+01  0.10000000000E+01 0.  1.
        -13    1    6    6    0    0 -0.14978668951E+02 -0.51190053469E+01  0.14338715284E+02  0.21358242444E+02  0.10500000000E+00 0.  1.
         13    1    6    6    0    0 -0.23775032390E+02 -0.82335809071E+01  0.22955831550E+02  0.34059143366E+02  0.10500000000E+00 0. -1.
</event>
<event>
11    0  0.3467594E-009  0.9118800E+02  0.7816531E-02  0.1126479E+00
         25   -1    0    0    0    0  0.00000000000E+00  0.00000000000E+00  0.99999998245E-14  0.12500000000E+03  0.12500000000E+03 0.  0.
    3000001    1    3    3    0    0 -0.10173528300E+02  0.28547766659E+01  0.50481439275E+01  0.11753050029E+02  0.10000000000E+01 0. -1.
    1000022    2    1    0    0    0 -0.60527339194E+02  0.75204480033E+01  0.92808412445E+01  0.62500000548E+02  0.10000006313E+02 0.  0.
    3000022    2    3    3    0    0 -0.50353810894E+02  0.46656713374E+01  0.42326973170E+01  0.50746950519E+02  0.24999959796E+00 0.  0.
    1000022    2    1    0    0    0  0.60527339194E+02 -0.75204480033E+01 -0.92808412445E+01  0.62499999452E+02  0.99999994608E+01 0.  0.
    3000022    2    5    5    0    0  0.50502047347E+02 -0.98097978782E+01 -0.84359001371E+01  0.52133634373E+02  0.25000241402E+00 0.  0.
        -13    1    4    4    0    0 -0.25940442439E+02  0.23401505995E+01  0.22045450107E+01  0.26139125893E+02  0.10500000000E+00 0.  1.
         13    1    4    4    0    0 -0.24413368455E+02  0.23255207379E+01  0.20281523063E+01  0.24607824626E+02  0.10500000000E+00 0. -1.
    3000001    1    5    5    0    0  0.10025291847E+02  0.22893498749E+01 -0.84494110736E+00  0.10366365079E+02  0.10000000000E+01 0. -1.
        -13    1    6    6    0    0  0.28795542741E+02 -0.56565715067E+01 -0.48333802864E+01  0.29741430244E+02  0.10500000000E+00 0.  1.
         13    1    6    6    0    0  0.21706504606E+02 -0.41532263716E+01 -0.36025198507E+01  0.22392204130E+02  0.10500000000E+00 0. -1.
</event>
<event>
11    0  0.3467594E-009  0.9118800E+02  0.7816531E-02  0.1126479E+00
         25   -1    0    0    0    0  0.00000000000E+00  0.00000000000E+00  0.99999998245E-14  0.12500000000E+03  0.12500000000E+03 0.  0.
    3000001    1    3    3    0    0  0.53194726560E+01 -0.25702899382E+02 -0.10044911265E+02  0.28121807699E+02  0.10000000000E+01 0. -1.
    1000022    2    1    0    0    0  0.79275183865E+01 -0.59893190909E+02 -0.12498408447E+02  0.62499999808E+02  0.99999948665E+01 0.  0.
    3000022    2    3    3    0    0  0.26080457305E+01 -0.34190291527E+02 -0.24534971828E+01  0.34378192109E+02  0.25001404854E+00 0.  0.
    1000022    2    1    0    0    0 -0.79275183865E+01  0.59893190909E+02  0.12498408447E+02  0.62500000192E+02  0.99999972616E+01 0.  0.
    3000022    2    5    5    0    0 -0.37121979349E+01  0.38384382884E+02  0.32872366544E+01  0.38704130067E+02  0.24999315936E+00 0.  0.
        -13    1    4    4    0    0  0.87904452390E+00 -0.11695155343E+02 -0.78546342456E+00  0.11754886455E+02  0.10500000000E+00 0.  1.
         13    1    4    4    0    0  0.17290012066E+01 -0.22495136184E+02 -0.16680337582E+01  0.22623305654E+02  0.10500000000E+00 0. -1.
    3000001    1    5    5    0    0 -0.42153204517E+01  0.21508808025E+02  0.92111717930E+01  0.23795870124E+02  0.10000000000E+01 0.  1.
        -13    1    6    6    0    0 -0.11931504385E+01  0.12138390779E+02  0.99346768721E+00  0.12237734338E+02  0.10500000000E+00 0.  1.
         13    1    6    6    0    0 -0.25190474964E+01  0.26245992105E+02  0.22937689672E+01  0.26466395730E+02  0.10500000000E+00 0. -1.
</event>
<event>
11    0  0.3467594E-009  0.9118800E+02  0.7816531E-02  0.1126479E+00
         25   -1    0    0    0    0  0.00000000000E+00  0.00000000000E+00  0.99999998245E-14  0.12500000000E+03  0.12500000000E+03 0.  0.
    3000001    1    3    3    0    0  0.44839053843E+00 -0.48291594280E+00  0.11671025826E+01  0.16722411074E+01  0.10000000000E+01 0.  1.
    1000022    2    1    0    0    0 -0.28413297216E+02 -0.70510888119E+01  0.54306689720E+02  0.62499999026E+02  0.10000000891E+02 0.  0.
    3000022    2    3    3    0    0 -0.28861687755E+02 -0.65681728691E+01  0.53139587137E+02  0.60827757919E+02  0.24999486591E+00 0.  0.
    1000022    2    1    0    0    0  0.28413297216E+02  0.70510888119E+01 -0.54306689720E+02  0.62500000974E+02  0.10000013060E+02 0.  0.
    3000022    2    5    5    0    0  0.17508828042E+02  0.84086344038E+01 -0.39666300044E+02  0.44167205555E+02  0.24999073035E+00 0.  0.
        -13    1    4    4    0    0 -0.75902246977E+01 -0.17438621385E+01  0.13923152359E+02  0.15953612842E+02  0.10500000000E+00 0.  1.
         13    1    4    4    0    0 -0.21271463057E+02 -0.48243107306E+01  0.39216434779E+02  0.44874145077E+02  0.10500000000E+00 0. -1.
    3000001    1    5    5    0    0  0.10904469174E+02 -0.13575455919E+01 -0.14640389676E+02  0.18332795419E+02  0.10000000000E+01 0.  1.
        -13    1    6    6    0    0  0.43187613329E+01  0.21003786624E+01 -0.97937314800E+01  0.10908322111E+02  0.10500000000E+00 0.  1.
         13    1    6    6    0    0  0.13190066709E+02  0.63082557413E+01 -0.29872568564E+02  0.33258883444E+02  0.10500000000E+00 0. -1.
</event>
<event>
11    0  0.3467594E-009  0.9118800E+02  0.7816531E-02  0.1126479E+00
         25   -1    0    0    0    0  0.00000000000E+00  0.00000000000E+00  0.99999998245E-14  0.12500000000E+03  0.12500000000E+03 0.  0.
    3000001    1    3    3    0    0  0.39661408985E+02 -0.49397433262E+01 -0.13726054545E+02  0.42270947471E+02  0.10000000000E+01 0. -1.
    1000022    2    1    0    0    0  0.57495979400E+02 -0.86146739525E+00 -0.22354394453E+02  0.62500010281E+02  0.10000128025E+02 0.  0.
    3000022    2    3    3    0    0  0.17834570415E+02  0.40782759310E+01 -0.86283399081E+01  0.20229062809E+02  0.24999220384E+00 0.  0.
    1000022    2    1    0    0    0 -0.57495979400E+02  0.86146739525E+00  0.22354394453E+02  0.62499989719E+02  0.99999995172E+01 0.  0.
    3000022    2    5    5    0    0 -0.22370819199E+02  0.21746509224E+01  0.13567113519E+02  0.26254746772E+02  0.25000110227E+00 0.  0.
        -13    1    4    4    0    0  0.58205522538E+01  0.13843778017E+01 -0.28270098191E+01  0.66180314259E+01  0.10500000000E+00 0.  1.
         13    1    4    4    0    0  0.12014018161E+02  0.26938981293E+01 -0.58013300890E+01  0.13611031383E+02  0.10500000000E+00 0. -1.
    3000001    1    5    5    0    0 -0.35125160201E+02 -0.13131835271E+01  0.87872809342E+01  0.36245242948E+02  0.10000000000E+01 0. -1.
        -13    1    6    6    0    0 -0.80701108204E+01  0.72651610279E+00  0.48997039434E+01  0.94695637721E+01  0.10500000000E+00 0. -1.
         13    1    6    6    0    0 -0.14300708378E+02  0.14481348196E+01  0.86674095755E+01  0.16785183000E+02  0.10500000000E+00 0.  1.
</event>
<event>
11    0  0.3467594E-009  0.9118800E+02  0.7816531E-02  0.1126479E+00
         25   -1    0    0    0    0  0.00000000000E+00  0.00000000000E+00  0.99999998245E-14  0.12500000000E+03  0.12500000000E+03 0.  0.
    3000001    1    3    3    0    0 -0.22677020240E+02 -0.30435112063E+02 -0.23319880691E+02  0.44557380182E+02  0.10000000000E+01 0. -1.
    1000022    2    1    0    0    0 -0.27957918982E+02 -0.46449584393E+02 -0.29445557754E+02  0.62500000815E+02  0.10000005318E+02 0.  0.
    3000022    2    3    3    0    0 -0.52808987414E+01 -0.16014472330E+02 -0.61256770635E+01  0.17942620633E+02  0.25000033896E+00 0.  0.
    1000022    2    1    0    0    0  0.27957918982E+02  0.46449584393E+02  0.29445557754E+02  0.62499999185E+02  0.99999951282E+01 0.  0.
    3000022    2    5    5    0    0  0.88874906269E+00  0.38053448244E+01 -0.20592218605E+00  0.39211515421E+01  0.25000268110E+00 0.  0.
        -13    1    4    4    0    0 -0.36233458248E+01 -0.11119750732E+02 -0.42732409135E+01  0.12451871515E+02  0.10500000000E+00 0.  1.
         13    1    4    4    0    0 -0.16575529166E+01 -0.48947215973E+01 -0.18524361500E+01  0.54907491180E+01  0.10500000000E+00 0. -1.
    3000001    1    5    5    0    0  0.27069169919E+02  0.42644239569E+02  0.29651479940E+02  0.58578847643E+02  0.10000000000E+01 0.  1.
        -13    1    6    6    0    0  0.46113354309E+00  0.16953799945E+01 -0.11290960454E+00  0.17637264666E+01  0.10500000000E+00 0. -1.
         13    1    6    6    0    0  0.42761551960E+00  0.21099648299E+01 -0.93012581509E-01  0.21574250755E+01  0.10500000000E+00 0.  1.
</event>
<event>
11    0  0.3467594E-009  0.9118800E+02  0.7816531E-02  0.1126479E+00
         25   -1    0    0    0    0  0.00000000000E+00  0.00000000000E+00  0.99999998245E-14  0.12500000000E+03  0.12500000000E+03 0.  0.
    3000001    1    3    3    0    0 -0.16661633618E+02 -0.13343930984E+01 -0.33873750707E+02  0.37786527053E+02  0.10000000000E+01 0.  1.
    1000022    2    1    0    0    0 -0.22357592635E+02  0.37374829363E+01 -0.57379608834E+02  0.62500000340E+02  0.99999902742E+01 0.  0.
    3000022    2    3    3    0    0 -0.56959590175E+01  0.50718760347E+01 -0.23505858127E+02  0.24713473288E+02  0.25004003278E+00 0.  0.
    1000022    2    1    0    0    0  0.22357592635E+02 -0.37374829363E+01  0.57379608834E+02  0.62499999660E+02  0.99999860208E+01 0.  0.
    3000022    2    5    5    0    0  0.59161575500E+00  0.20093685661E+01  0.33408738292E+01  0.39511402974E+01  0.25000094249E+00 0.  0.
        -13    1    4    4    0    0 -0.29599733654E+01  0.26558058113E+01 -0.12469449446E+02  0.13088656971E+02  0.10500000000E+00 0.  1.
         13    1    4    4    0    0 -0.27359856521E+01  0.24160702234E+01 -0.11036408681E+02  0.11624816316E+02  0.10500000000E+00 0. -1.
    3000001    1    5    5    0    0  0.21765976880E+02 -0.57468515024E+01  0.54038735005E+02  0.58548859362E+02  0.10000000000E+01 0.  1.
        -13    1    6    6    0    0  0.15669774577E+00  0.56816421580E+00  0.10238991226E+01  0.11860687893E+01  0.10500000000E+00 0. -1.
         13    1    6    6    0    0  0.43491800923E+00  0.14412043503E+01  0.23169747065E+01  0.27650715081E+01  0.10500000000E+00 0.  1.
</event>
<event>
11    0  0.3467594E-009  0.9118800E+02  0.7816531E-02  0.1126479E+00
         25   -1    0    0    0    0  0.00000000000E+00  0.00000000000E+00  0.99999998245E-14  0.12500000000E+03  0.12500000000E+03 0.  0.
    3000001    1    3    3    0    0 -0.49379684965E+00 -0.34646934917E+01 -0.23773170460E+01  0.43473638746E+01  0.10000000000E+01 0.  1.
    1000022    2    1    0    0    0  0.26169716379E+02 -0.48196168979E+02 -0.28258183962E+02  0.62500004510E+02  0.10000042163E+02 0.  0.
    3000022    2    3    3    0    0  0.26663513229E+02 -0.44731475487E+02 -0.25880866916E+02  0.58152640635E+02  0.25000708515E+00 0.  0.
    1000022    2    1    0    0    0 -0.26169716379E+02  0.48196168979E+02  0.28258183962E+02  0.62499995490E+02  0.99999857929E+01 0.  0.
    3000022    2    5    5    0    0 -0.21057660082E+02  0.38654582705E+02  0.18012074117E+02  0.47561529868E+02  0.24999422181E+00 0.  0.
        -13    1    4    4    0    0  0.14191944486E+02 -0.23809716133E+02 -0.13850943626E+02  0.30986667052E+02  0.10500000000E+00 0. -1.
         13    1    4    4    0    0  0.12471568743E+02 -0.20921759354E+02 -0.12029923290E+02  0.27165973583E+02  0.10500000000E+00 0.  1.
    3000001    1    5    5    0    0 -0.51120562974E+01  0.95415862735E+01  0.10246109845E+02  0.14938465623E+02  0.10000000000E+01 0.  1.
        -13    1    6    6    0    0 -0.10498756524E+02  0.19131107381E+02  0.89372712976E+01  0.23581963476E+02  0.10500000000E+00 0. -1.
         13    1    6    6    0    0 -0.10558903558E+02  0.19523475325E+02  0.90748028191E+01  0.23979566391E+02  0.10500000000E+00 0.  1.
</event>
<event>
11    0  0.3467594E-009  0.9118800E+02  0.7816531E-02  0.1126479E+00
         25   -1    0    0    0    0  0.00000000000E+00  0.00000000000E+00  0.99999998245E-14  0.12500000000E+03  0.12500000000E+03 0.  0.
    3000001    1    3    3    0    0 -0.20538248863E+00  0.16575653760E+02  0.13792927834E+02  0.21587944270E+02  0.10000000000E+01 0.  1.
    1000022    2    1    0    0    0  0.10459160363E+02  0.41534274106E+02  0.44404504797E+02  0.62500000375E+02  0.10000001978E+02 0.  0.
    3000022    2    3    3    0    0  0.10664542852E+02  0.24958620346E+02  0.30611576962E+02  0.40912056105E+02  0.24997362143E+00 0.  0.
    1000022    2    1    0    0    0 -0.10459160363E+02 -0.41534274106E+02 -0.44404504797E+02  0.62499999625E+02  0.99999972925E+01 0.  0.
    3000022    2    5    5    0    0 -0.10250235437E+01 -0.25831711396E+01 -0.16086157784E+00  0.27949636136E+01  0.24999750493E+00 0.  0.
        -13    1    4    4    0    0  0.63665027461E+01  0.14937753219E+02  0.18406157157E+02  0.24545192497E+02  0.10500000000E+00 0.  1.
         13    1    4    4    0    0  0.42980401056E+01  0.10020867127E+02  0.12205419806E+02  0.16366863608E+02  0.10500000000E+00 0. -1.
    3000001    1    5    5    0    0 -0.94341368193E+01 -0.38951102967E+02 -0.44243643219E+02  0.59705036012E+02  0.10000000000E+01 0.  1.
        -13    1    6    6    0    0 -0.50609610173E+00 -0.13254083767E+01 -0.16777227538E-01  0.14227252386E+01  0.10500000000E+00 0.  1.
         13    1    6    6    0    0 -0.51892744201E+00 -0.12577627629E+01 -0.14408435031E+00  0.13722383750E+01  0.10500000000E+00 0. -1.
</event>
<event>
11    0  0.3467594E-009  0.9118800E+02  0.7816531E-02  0.1126479E+00
         25   -1    0    0    0    0  0.00000000000E+00  0.00000000000E+00  0.99999998245E-14  0.12500000000E+03  0.12500000000E+03 0.  0.
    3000001    1    3    3    0    0 -0.23316671116E+02 -0.24765141220E+01  0.18931191086E+02  0.30152782128E+02  0.10000000000E+01 0.  1.
    1000022    2    1    0    0    0 -0.49213027774E+02 -0.14128224752E+02  0.34419779526E+02  0.62499999957E+02  0.99999967341E+01 0.  0.
    3000022    2    3    3    0    0 -0.25896356658E+02 -0.11651710630E+02  0.15488588440E+02  0.32347217829E+02  0.24996128145E+00 0.  0.
    1000022    2    1    0    0    0  0.49213027774E+02  0.14128224752E+02 -0.34419779526E+02  0.62500000043E+02  0.99999972729E+01 0.  0.
    3000022    2    5    5    0    0  0.32141464280E+02  0.91865439785E+01 -0.16643782108E+02  0.37343597813E+02  0.24999679373E+00 0.  0.
        -13    1    4    4    0    0 -0.17293879100E+02 -0.77827279408E+01  0.10404237635E+02  0.21631188000E+02  0.10500000000E+00 0. -1.
         13    1    4    4    0    0 -0.86024775580E+01 -0.38689826893E+01  0.50843508046E+01  0.10716029829E+02  0.10500000000E+00 0.  1.
    3000001    1    5    5    0    0  0.17071563494E+02  0.49416807736E+01 -0.17775997417E+02  0.25156402230E+02  0.10000000000E+01 0. -1.
        -13    1    6    6    0    0  0.22748724223E+02  0.64701098316E+01 -0.11810217013E+02  0.26435941933E+02  0.10500000000E+00 0.  1.
         13    1    6    6    0    0  0.93927400567E+01  0.27164341469E+01 -0.48335650957E+01  0.10907655879E+02  0.10500000000E+00 0. -1.
</event>
<event>
11    0  0.3467594E-009  0.9118800E+02  0.7816531E-02  0.1126479E+00
         25   -1    0    0    0    0  0.00000000000E+00  0.00000000000E+00  0.99999998245E-14  0.12500000000E+03  0.12500000000E+03 0.  0.
    3000001    1    3    3    0    0  0.35891052684E+02 -0.21052205366E+02 -0.24489633040E+02  0.48291874472E+02  0.10000000000E+01 0.  1.
    1000022    2    1    0    0    0  0.45675097679E+02 -0.22808296644E+02 -0.34638375120E+02  0.62499999822E+02  0.10000000151E+02 0.  0.
    3000022    2    3    3    0    0  0.97840449945E+01 -0.17560912776E+01 -0.10148742080E+02  0.14208125350E+02  0.24993425296E+00 0.  0.
    1000022    2    1    0    0    0 -0.45675097679E+02  0.22808296644E+02  0.34638375120E+02  0.62500000178E+02  0.10000002378E+02 0.  0.
    3000022    2    5    5    0    0 -0.42653091196E+02  0.20348210361E+02  0.28583785539E+02  0.55230708418E+02  0.25000627769E+00 0.  0.
        -13    1    4    4    0    0  0.42980575205E+01 -0.71062936060E+00 -0.44873752419E+01  0.62550662746E+01  0.10500000000E+00 0.  1.
         13    1    4    4    0    0  0.54859874739E+01 -0.10454619170E+01 -0.56613668379E+01  0.79530590754E+01  0.10500000000E+00 0. -1.
    3000001    1    5    5    0    0 -0.30220064827E+01  0.24600862826E+01  0.60545895809E+01  0.72692917600E+01  0.10000000000E+01 0. -1.
        -13    1    6    6    0    0 -0.16723530547E+02  0.79102798102E+01  0.11201815849E+02  0.21627313840E+02  0.10500000000E+00 0.  1.
         13    1    6    6    0    0 -0.25929560649E+02  0.12437930551E+02  0.17381969690E+02  0.33603394578E+02  0.10500000000E+00 0. -1.
</event>
<event>
11    0  0.3467594E-009  0.9118800E+02  0.7816531E-02  0.1126479E+00
         25   -1    0    0    0    0  0.00000000000E+00  0.00000000000E+00  0.99999998245E-14  0.12500000000E+03  0.12500000000E+03 0.  0.
    3000001    1    3    3    0    0 -0.26947300145E+02  0.61957014472E+01 -0.55489987168E+02  0.62005502800E+02  0.10000000000E+01 0.  1.
    1000022    2    1    0    0    0 -0.26898972672E+02  0.58773471028E+01 -0.55210072714E+02  0.62499999178E+02  0.99999914180E+01 0.  0.
    3000022    2    3    3    0    0  0.48327473075E-01 -0.31835434437E+00  0.27991445415E+00  0.49449637800E+00  0.24997906508E+00 0.  0.
    1000022    2    1    0    0    0  0.26898972672E+02 -0.58773471028E+01  0.55210072714E+02  0.62500000822E+02  0.10000001699E+02 0.  0.
    3000022    2    5    5    0    0  0.19971812413E+01 -0.11706645896E+01  0.78790602711E+00  0.24581462242E+01  0.24999692023E+00 0.  0.
        -13    1    4    4    0    0  0.59261912984E-01 -0.74917294738E-01  0.10745311975E+00  0.17803299786E+00  0.10500000000E+00 0.  1.
         13    1    4    4    0    0 -0.10934439908E-01 -0.24343704963E+00  0.17246133440E+00  0.31646338014E+00  0.10500000000E+00 0. -1.
    3000001    1    5    5    0    0  0.24901791430E+02 -0.47066825132E+01  0.54422166687E+02  0.60041854598E+02  0.10000000000E+01 0. -1.
        -13    1    6    6    0    0  0.93134285365E+00 -0.58664478843E+00  0.43555094615E+00  0.11883943981E+01  0.10500000000E+00 0.  1.
         13    1    6    6    0    0  0.10658383876E+01 -0.58401980114E+00  0.35235508096E+00  0.12697518260E+01  0.10500000000E+00 0. -1.
</event>
<event>
11    0  0.3467594E-009  0.9118800E+02  0.7816531E-02  0.1126479E+00
         25   -1    0    0    0    0  0.00000000000E+00  0.00000000000E+00  0.99999998245E-14  0.12500000000E+03  0.12500000000E+03 0.  0.
    3000001    1    3    3    0    0  0.27004651408E+02 -0.38873409416E+02 -0.28196863553E+02  0.55104049502E+02  0.10000000000E+01 0.  1.
    1000022    2    1    0    0    0  0.29957901382E+02 -0.45626268572E+02 -0.28757914656E+02  0.62499999002E+02  0.99999990474E+01 0.  0.
    3000022    2    3    3    0    0  0.29532499732E+01 -0.67528591557E+01 -0.56105110280E+00  0.73959494999E+01  0.24999696965E+00 0.  0.
    1000022    2    1    0    0    0 -0.29957901382E+02  0.45626268572E+02  0.28757914656E+02  0.62500000998E+02  0.10000011521E+02 0.  0.
    3000022    2    5    5    0    0 -0.13618073528E+02  0.14895507982E+02  0.66318469512E+01  0.21245516481E+02  0.24998379870E+00 0.  0.
        -13    1    4    4    0    0  0.14239854988E+01 -0.34217408732E+01 -0.29598199994E+00  0.37194993814E+01  0.10500000000E+00 0. -1.
         13    1    4    4    0    0  0.15292644745E+01 -0.33311182825E+01 -0.26506910285E+00  0.36764501186E+01  0.10500000000E+00 0.  1.
    3000001    1    5    5    0    0 -0.16339827854E+02  0.30730760590E+02  0.22126067704E+02  0.41254484517E+02  0.10000000000E+01 0.  1.
        -13    1    6    6    0    0 -0.79334431246E+01  0.86196144660E+01  0.39036415262E+01  0.12348551151E+02  0.10500000000E+00 0. -1.
         13    1    6    6    0    0 -0.56846304031E+01  0.62758935159E+01  0.27282054250E+01  0.88969653300E+01  0.10500000000E+00 0.  1.
</event>
<event>
11    0  0.3467594E-009  0.9118800E+02  0.7816531E-02  0.1126479E+00
         25   -1    0    0    0    0  0.00000000000E+00  0.00000000000E+00  0.99999998245E-14  0.12500000000E+03  0.12500000000E+03 0.  0.
    3000001    1    3    3    0    0 -0.60476896343E+01 -0.10359825823E+01 -0.58992309205E+01  0.85702237588E+01  0.10000000000E+01 0. -1.
    1000022    2    1    0    0    0 -0.45108002457E+02  0.16203616945E+02 -0.38845343947E+02  0.62499999114E+02  0.10000002758E+02 0.  0.
    3000022    2    3    3    0    0 -0.39060312822E+02  0.17239599527E+02 -0.32946113026E+02  0.53929775355E+02  0.24995330511E+00 0.  0.
    1000022    2    1    0    0    0  0.45108002457E+02 -0.16203616945E+02  0.38845343947E+02  0.62500000886E+02  0.10000013837E+02 0.  0.
    3000022    2    5    5    0    0  0.16450596623E+02 -0.10475241599E+01  0.14332116494E+02  0.21844713681E+02  0.25003295810E+00 0.  0.
        -13    1    4    4    0    0 -0.22631485743E+02  0.99936999307E+01 -0.19172071891E+02  0.31299162143E+02  0.10500000000E+00 0. -1.
         13    1    4    4    0    0 -0.16428827079E+02  0.72458995967E+01 -0.13774041135E+02  0.22630613212E+02  0.10500000000E+00 0.  1.
    3000001    1    5    5    0    0  0.28657405833E+02 -0.15156092785E+02  0.24513227452E+02  0.40655287205E+02  0.10000000000E+01 0. -1.
        -13    1    6    6    0    0  0.63920893603E+01 -0.39342819607E+00  0.54885659409E+01  0.84349850754E+01  0.10500000000E+00 0.  1.
         13    1    6    6    0    0  0.10058507263E+02 -0.65409596382E+00  0.88435505534E+01  0.13409728606E+02  0.10500000000E+00 0. -1.
</event>
<event>
11    0  0.3467594E-009  0.9118800E+02  0.7816531E-02  0.1126479E+00
         25   -1    0    0    0    0  0.00000000000E+00  0.00000000000E+00  0.99999998245E-14  0.12500000000E+03  0.12500000000E+03 0.  0.
    3000001    1    3    3    0    0 -0.15624252482E+02 -0.45369103778E+02  0.12819867547E+01  0.48011627063E+02  0.10000000000E+01 0. -1.
    1000022    2    1    0    0    0 -0.15684186870E+02 -0.59657710103E+02 -0.11018240790E+01  0.62499998539E+02  0.99999854241E+01 0.  0.
    3000022    2    3    3    0    0 -0.59934388686E-01 -0.14288606325E+02 -0.23838108338E+01  0.14488371475E+02  0.24998213195E+00 0.  0.
    1000022    2    1    0    0    0  0.15684186870E+02  0.59657710103E+02  0.11018240790E+01  0.62500001461E+02  0.10000003692E+02 0.  0.
    3000022    2    5    5    0    0  0.15522446879E+02  0.57537061270E+02 -0.60115816874E+00  0.59597681728E+02  0.24999906631E+00 0.  0.
        -13    1    4    4    0    0 -0.27721233709E-01 -0.10063878439E+02 -0.17215962213E+01  0.10210648180E+02  0.10500000000E+00 0. -1.
         13    1    4    4    0    0 -0.32213154978E-01 -0.42247278866E+01 -0.66221461242E+00  0.42777232959E+01  0.10500000000E+00 0.  1.
    3000001    1    5    5    0    0  0.16173999167E+00  0.21206488331E+01  0.17029822478E+01  0.29023197333E+01  0.10000000000E+01 0.  1.
        -13    1    6    6    0    0  0.10082033844E+02  0.37422460261E+02 -0.33611026860E+00  0.38758378882E+02  0.10500000000E+00 0.  1.
         13    1    6    6    0    0  0.54404130351E+01  0.20114601009E+02 -0.26504790014E+00  0.20839302846E+02  0.10500000000E+00 0. -1.
</event>
<event>
11    0  0.3467594E-009  0.9118800E+02  0.7816531E-02  0.1126479E+00
         25   -1    0    0    0    0  0.00000000000E+00  0.00000000000E+00  0.99999998245E-14  0.12500000000E+03  0.12500000000E+03 0.  0.
    3000001    1    3    3    0    0 -0.14722114497E+02  0.22176849289E+02  0.41570661759E+02  0.49372798368E+02  0.10000000000E+01 0. -1.
    1000022    2    1    0    0    0 -0.22542026756E+02  0.29130254531E+02  0.49492765738E+02  0.62499988138E+02  0.99999978758E+01 0.  0.
    3000022    2    3    3    0    0 -0.78199122587E+01  0.69534052420E+01  0.79221039791E+01  0.13127189769E+02  0.25001518316E+00 0.  0.
    1000022    2    1    0    0    0  0.22542026756E+02 -0.29130254531E+02 -0.49492765738E+02  0.62500011862E+02  0.10000146154E+02 0.  0.
    3000022    2    5    5    0    0  0.23919475475E+01 -0.74299231227E+01 -0.15850891367E+02  0.17670269654E+02  0.25000363058E+00 0.  0.
        -13    1    4    4    0    0 -0.33173032128E+01  0.28776721996E+01  0.33699831512E+01  0.55365430851E+01  0.10500000000E+00 0.  1.
         13    1    4    4    0    0 -0.45026090459E+01  0.40757330425E+01  0.45521208279E+01  0.75906466843E+01  0.10500000000E+00 0. -1.
    3000001    1    5    5    0    0  0.20150079209E+02 -0.21700331408E+02 -0.33641874370E+02  0.44829742209E+02  0.10000000000E+01 0. -1.
        -13    1    6    6    0    0  0.75968587589E+00 -0.22108870761E+01 -0.47561419992E+01  0.53006656195E+01  0.10500000000E+00 0. -1.
         13    1    6    6    0    0  0.16322616716E+01 -0.52190360466E+01 -0.11094749368E+02  0.12369604034E+02  0.10500000000E+00 0.  1.
</event>
<event>
11    0  0.3467594E-009  0.9118800E+02  0.7816531E-02  0.1126479E+00
         25   -1    0    0    0    0  0.00000000000E+00  0.00000000000E+00  0.99999998245E-14  0.12500000000E+03  0.12500000000E+03 0.  0.
    3000001    1    3    3    0    0  0.23183415556E+02  0.30413956222E+02 -0.15930057470E+02  0.41439669653E+02  0.10000000000E+01 0. -1.
    1000022    2    1    0    0    0  0.38940311897E+02  0.40301828678E+02 -0.25800478236E+02  0.62500000159E+02  0.10000002864E+02 0.  0.
    3000022    2    3    3    0    0  0.15756896341E+02  0.98878724553E+01 -0.98704207657E+01  0.21060330506E+02  0.25002189049E+00 0.  0.
    1000022    2    1    0    0    0 -0.38940311897E+02 -0.40301828678E+02  0.25800478236E+02  0.62499999841E+02  0.10000000877E+02 0.  0.
    3000022    2    5    5    0    0 -0.21990637294E+02 -0.22743046944E+02  0.91302616304E+01  0.32928080614E+02  0.25000513778E+00 0.  0.
        -13    1    4    4    0    0  0.78364329431E+01  0.49073989936E+01 -0.48298535890E+01  0.10432198083E+02  0.10500000000E+00 0.  1.
         13    1    4    4    0    0  0.79204633977E+01  0.49804734617E+01 -0.50405671767E+01  0.10628132423E+02  0.10500000000E+00 0. -1.
    3000001    1    5    5    0    0 -0.16949674603E+02 -0.17558781734E+02  0.16670216605E+02  0.29571919227E+02  0.10000000000E+01 0. -1.
        -13    1    6    6    0    0 -0.13808346170E+02 -0.14321599514E+02  0.57961264953E+01  0.20721600902E+02  0.10500000000E+00 0. -1.
         13    1    6    6    0    0 -0.81822911244E+01 -0.84214474300E+01  0.33341351351E+01  0.12206479712E+02  0.10500000000E+00 0.  1.
</event>
<event>
11    0  0.3467594E-009  0.9118800E+02  0.7816531E-02  0.1126479E+00
         25   -1    0    0    0    0  0.00000000000E+00  0.00000000000E+00  0.99999998245E-14  0.12500000000E+03  0.12500000000E+03 0.  0.
    3000001    1    3    3    0    0  0.17206502516E+02  0.24343703156E+02 -0.27390984232E+00  0.29828755233E+02  0.10000000000E+01 0. -1.
    1000022    2    1    0    0    0  0.37155663049E+02  0.48129328965E+02 -0.10453431304E+02  0.62499998844E+02  0.10000001309E+02 0.  0.
    3000022    2    3    3    0    0  0.19949160533E+02  0.23785625810E+02 -0.10179521462E+02  0.32671243610E+02  0.25000147469E+00 0.  0.
    1000022    2    1    0    0    0 -0.37155663049E+02 -0.48129328965E+02  0.10453431304E+02  0.62500001156E+02  0.10000015764E+02 0.  0.
    3000022    2    5    5    0    0 -0.24433699567E+02 -0.37162360540E+02  0.10390935479E+02  0.45673633248E+02  0.25003691951E+00 0.  0.
        -13    1    4    4    0    0  0.11933811547E+02  0.14245509128E+02 -0.60280989052E+01  0.19537128493E+02  0.10500000000E+00 0.  1.
         13    1    4    4    0    0  0.80153489860E+01  0.95401166818E+01 -0.41514225563E+01  0.13134115117E+02  0.10500000000E+00 0. -1.
    3000001    1    5    5    0    0 -0.12721963482E+02 -0.10966968425E+02  0.62495824483E-01  0.16826367908E+02  0.10000000000E+01 0.  1.
        -13    1    6    6    0    0 -0.89068059994E+01 -0.13628448206E+02  0.37644163102E+01  0.16710704616E+02  0.10500000000E+00 0. -1.
         13    1    6    6    0    0 -0.15526893568E+02 -0.23533912334E+02  0.66265191692E+01  0.28962928631E+02  0.10500000000E+00 0.  1.
</event>
<event>
11    0  0.3467594E-009  0.9118800E+02  0.7816531E-02  0.1126479E+00
         25   -1    0    0    0    0  0.00000000000E+00  0.00000000000E+00  0.99999998245E-14  0.12500000000E+03  0.12500000000E+03 0.  0.
    3000001    1    3    3    0    0 -0.28407582680E+02  0.44454059072E+02  0.28864755573E+02  0.60144228618E+02  0.10000000000E+01 0. -1.
    1000022    2    1    0    0    0 -0.30564649616E+02  0.45326211282E+02  0.28593472605E+02  0.62500000878E+02  0.10000009940E+02 0.  0.
    3000022    2    3    3    0    0 -0.21570669353E+01  0.87215220933E+00 -0.27128296798E+00  0.23557722597E+01  0.24996249926E+00 0.  0.
    1000022    2    1    0    0    0  0.30564649616E+02 -0.45326211282E+02 -0.28593472605E+02  0.62499999122E+02  0.99999989710E+01 0.  0.
    3000022    2    5    5    0    0  0.22286048329E+02 -0.37752096929E+02 -0.19317734266E+02  0.47907474693E+02  0.25000323511E+00 0.  0.
        -13    1    4    4    0    0 -0.67228298400E+00  0.29561259476E+00 -0.13124997359E+00  0.75339416797E+00  0.10500000000E+00 0.  1.
         13    1    4    4    0    0 -0.14847839513E+01  0.57653961457E+00 -0.14003299439E+00  0.16023780917E+01  0.10500000000E+00 0. -1.
    3000001    1    5    5    0    0  0.82786012866E+01 -0.75741143524E+01 -0.92757383394E+01  0.14592524430E+02  0.10000000000E+01 0.  1.
        -13    1    6    6    0    0  0.80429880913E+01 -0.13736869339E+02 -0.69999486998E+01  0.17389696475E+02  0.10500000000E+00 0. -1.
         13    1    6    6    0    0  0.14243060238E+02 -0.24015227590E+02 -0.12317785566E+02  0.30517778218E+02  0.10500000000E+00 0.  1.
</event>
<event>
11    0  0.3467594E-009  0.9118800E+02  0.7816531E-02  0.1126479E+00
         25   -1    0    0    0    0  0.00000000000E+00  0.00000000000E+00  0.99999998245E-14  0.12500000000E+03  0.12500000000E+03 0.  0.
    3000001    1    3    3    0    0  0.28219641558E+01 -0.52801553896E+01  0.11479174706E+02  0.12985182885E+02  0.10000000000E+01 0. -1.
    1000022    2    1    0    0    0 -0.51619885715E+01 -0.28663551533E+02  0.54387541766E+02  0.62500000650E+02  0.10000003472E+02 0.  0.
    3000022    2    3    3    0    0 -0.79839527273E+01 -0.23383396144E+02  0.42908367060E+02  0.49514817765E+02  0.24999636730E+00 0.  0.
    1000022    2    1    0    0    0  0.51619885715E+01  0.28663551533E+02 -0.54387541766E+02  0.62499999350E+02  0.99999953438E+01 0.  0.
    3000022    2    5    5    0    0  0.22136268815E+01  0.17770270911E+02 -0.42288972832E+02  0.45924964821E+02  0.24999686233E+00 0.  0.
        -13    1    4    4    0    0 -0.28550254449E+01 -0.85426926642E+01  0.15629690213E+02  0.18039595600E+02  0.10500000000E+00 0. -1.
         13    1    4    4    0    0 -0.51289272824E+01 -0.14840703479E+02  0.27278676847E+02  0.31475222165E+02  0.10500000000E+00 0.  1.
    3000001    1    5    5    0    0  0.29483616900E+01  0.10893280622E+02 -0.12098568934E+02  0.16575034528E+02  0.10000000000E+01 0. -1.
        -13    1    6    6    0    0  0.60532556528E+00  0.50840345141E+01 -0.12171994146E+02  0.13205388766E+02  0.10500000000E+00 0. -1.
         13    1    6    6    0    0  0.16083013162E+01  0.12686236397E+02 -0.30116978686E+02  0.32719576055E+02  0.10500000000E+00 0.  1.
</event>
<event>
11    0  0.3467594E-009  0.9118800E+02  0.7816531E-02  0.1126479E+00
         25   -1    0    0    0    0  0.00000000000E+00  0.00000000000E+00  0.99999998245E-14  0.12500000000E+03  0.12500000000E+03 0.  0.
    3000001    1    3    3    0    0 -0.23755659666E+02 -0.13353407069E+02  0.30695976003E+02  0.41059563919E+02  0.10000000000E+01 0.  1.
    1000022    2    1    0    0    0 -0.39612669995E+02 -0.23267750538E+02  0.41178852987E+02  0.62499997471E+02  0.99999955622E+01 0.  0.
    3000022    2    3    3    0    0 -0.15857010330E+02 -0.99143434697E+01  0.10482876984E+02  0.21440433551E+02  0.24999593844E+00 0.  0.
    1000022    2    1    0    0    0  0.39612669995E+02  0.23267750538E+02 -0.41178852987E+02  0.62500002529E+02  0.10000027181E+02 0.  0.
    3000022    2    5    5    0    0  0.18134719347E+02  0.11198340139E+02 -0.25691642908E+02  0.33382538569E+02  0.24999673173E+00 0.  0.
        -13    1    4    4    0    0 -0.72935047545E+01 -0.45287537032E+01  0.48829329585E+01  0.98771899337E+01  0.10500000000E+00 0.  1.
         13    1    4    4    0    0 -0.85635055751E+01 -0.53855897665E+01  0.55999440254E+01  0.11563243617E+02  0.10500000000E+00 0. -1.
    3000001    1    5    5    0    0  0.21477950649E+02  0.12069410399E+02 -0.15487210079E+02  0.29117463960E+02  0.10000000000E+01 0.  1.
        -13    1    6    6    0    0  0.72064668526E+01  0.45237969915E+01 -0.10264788958E+02  0.13333222456E+02  0.10500000000E+00 0.  1.
         13    1    6    6    0    0  0.10928252494E+02  0.66745431480E+01 -0.15426853950E+02  0.20049316113E+02  0.10500000000E+00 0. -1.
</event>
<event>
11    0  0.3467594E-009  0.9118800E+02  0.7816531E-02  0.1126479E+00
         25   -1    0    0    0    0  0.00000000000E+00  0.00000000000E+00  0.99999998245E-14  0.12500000000E+03  0.12500000000E+03 0.  0.
    3000001    1    3    3    0    0  0.76736831462E+01 -0.23710765209E+01 -0.23386020365E+01  0.84247537875E+01  0.10000000000E+01 0. -1.
    1000022    2    1    0    0    0  0.55096500770E+02  0.45385317429E+01 -0.27386607920E+02  0.62499992322E+02  0.10000003970E+02 0.  0.
    3000022    2    3    3    0    0  0.47422817624E+02  0.69096082638E+01 -0.25048005884E+02  0.54075238535E+02  0.25001213818E+00 0.  0.
    1000022    2    1    0    0    0 -0.55096500770E+02 -0.45385317429E+01  0.27386607920E+02  0.62500007678E+02  0.10000099941E+02 0.  0.
    3000022    2    5    5    0    0 -0.20110315359E+01  0.17953716796E+01  0.12220827797E+01  0.29704540743E+01  0.25000756189E+00 0.  0.
        -13    1    4    4    0    0  0.24608466427E+02  0.36532277634E+01 -0.13013487253E+02  0.28076405904E+02  0.10500000000E+00 0.  1.
         13    1    4    4    0    0  0.22814351197E+02  0.32563805004E+01 -0.12034518630E+02  0.25998832631E+02  0.10500000000E+00 0. -1.
    3000001    1    5    5    0    0 -0.53085469234E+02 -0.63339034225E+01  0.26164525141E+02  0.59529553603E+02  0.10000000000E+01 0. -1.
        -13    1    6    6    0    0 -0.92349954574E+00  0.85577786627E+00  0.64028156668E+00  0.14164013033E+01  0.10500000000E+00 0. -1.
         13    1    6    6    0    0 -0.10875319901E+01  0.93959381329E+00  0.58180121301E+00  0.15540527710E+01  0.10500000000E+00 0.  1.
</event>
<event>
11    0  0.3467594E-009  0.9118800E+02  0.7816531E-02  0.1126479E+00
         25   -1    0    0    0    0  0.00000000000E+00  0.00000000000E+00  0.99999998245E-14  0.12500000000E+03  0.12500000000E+03 0.  0.
    3000001    1    3    3    0    0  0.57865484706E+01  0.40126221295E+01  0.50594878458E+01  0.87283272635E+01  0.10000000000E+01 0. -1.
    1000022    2    1    0    0    0  0.26820132014E+02  0.18751829222E+02  0.52300086263E+02  0.62499997244E+02  0.10000002602E+02 0.  0.
    3000022    2    3    3    0    0  0.21033583544E+02  0.14739207092E+02  0.47240598417E+02  0.53771669981E+02  0.24998271573E+00 0.  0.
    1000022    2    1    0    0    0 -0.26820132014E+02 -0.18751829222E+02 -0.52300086263E+02  0.62500002756E+02  0.10000037047E+02 0.  0.
    3000022    2    5    5    0    0 -0.22976671487E+02 -0.11139349203E+02 -0.41111241118E+02  0.48396375685E+02  0.24999991967E+00 0.  0.
        -13    1    4    4    0    0  0.10923420496E+02  0.76763208952E+01  0.24419899996E+02  0.27831449093E+02  0.10500000000E+00 0.  1.
         13    1    4    4    0    0  0.10110163048E+02  0.70628861969E+01  0.22820698421E+02  0.25940220888E+02  0.10500000000E+00 0. -1.
    3000001    1    5    5    0    0 -0.38434605273E+01 -0.76124800183E+01 -0.11188845145E+02  0.14103627070E+02  0.10000000000E+01 0. -1.
        -13    1    6    6    0    0 -0.17335219599E+02 -0.84146229983E+01 -0.30982744199E+02  0.36486397217E+02  0.10500000000E+00 0. -1.
         13    1    6    6    0    0 -0.56414518878E+01 -0.27247262051E+01 -0.10128496918E+02  0.11909978469E+02  0.10500000000E+00 0.  1.
</event>
<event>
11    0  0.3467594E-009  0.9118800E+02  0.7816531E-02  0.1126479E+00
         25   -1    0    0    0    0  0.00000000000E+00  0.00000000000E+00  0.99999998245E-14  0.12500000000E+03  0.12500000000E+03 0.  0.
    3000001    1    3    3    0    0 -0.38194631649E+02 -0.19022997086E+01  0.22624071233E+02  0.44444316061E+02  0.10000000000E+01 0. -1.
    1000022    2    1    0    0    0 -0.54803540498E+02 -0.70968453578E+01  0.27430946577E+02  0.62499999653E+02  0.99999930704E+01 0.  0.
    3000022    2    3    3    0    0 -0.16608908849E+02 -0.51945456492E+01  0.48068753434E+01  0.18055683592E+02  0.25000349797E+00 0.  0.
    1000022    2    1    0    0    0  0.54803540498E+02  0.70968453578E+01 -0.27430946577E+02  0.62500000347E+02  0.99999974075E+01 0.  0.
    3000022    2    5    5    0    0  0.35183691447E+02  0.41528411302E+01 -0.12207989487E+02  0.37473133579E+02  0.24999923384E+00 0.  0.
        -13    1    4    4    0    0 -0.11990223121E+02 -0.37140087948E+01  0.34473146860E+01  0.13017461940E+02  0.10500000000E+00 0. -1.
         13    1    4    4    0    0 -0.46186857287E+01 -0.14805368544E+01  0.13595606575E+01  0.50382216524E+01  0.10500000000E+00 0.  1.
    3000001    1    5    5    0    0  0.19619849050E+02  0.29440042276E+01 -0.15222957090E+02  0.25026866768E+02  0.10000000000E+01 0. -1.
        -13    1    6    6    0    0  0.12902028371E+02  0.15641229226E+01 -0.45235129068E+01  0.13761613663E+02  0.10500000000E+00 0.  1.
         13    1    6    6    0    0  0.22281663077E+02  0.25887182077E+01 -0.76844765802E+01  0.23711519916E+02  0.10500000000E+00 0. -1.
</event>
<event>
11    0  0.3467594E-009  0.9118800E+02  0.7816531E-02  0.1126479E+00
         25   -1    0    0    0    0  0.00000000000E+00  0.00000000000E+00  0.99999998245E-14  0.12500000000E+03  0.12500000000E+03 0.  0.
    3000001    1    3    3    0    0  0.37883301719E+01 -0.43413626004E+02 -0.14428737473E+02  0.45916041134E+02  0.10000000000E+01 0. -1.
    1000022    2    1    0    0    0  0.10133617152E+02 -0.58606975190E+02 -0.16394590254E+02  0.62499997364E+02  0.99999671710E+01 0.  0.
    3000022    2    3    3    0    0  0.63452869799E+01 -0.15193349186E+02 -0.19658527804E+01  0.16583956230E+02  0.25000151124E+00 0.  0.
    1000022    2    1    0    0    0 -0.10133617152E+02  0.58606975190E+02  0.16394590254E+02  0.62500002636E+02  0.10000000118E+02 0.  0.
    3000022    2    5    5    0    0  0.71726551104E+00  0.88758478407E+00 -0.65148134657E+00  0.13376102657E+01  0.24999343156E+00 0.  0.
        -13    1    4    4    0    0  0.20396106598E+01 -0.47591091791E+01 -0.60619735176E+00  0.52141760664E+01  0.10500000000E+00 0.  1.
         13    1    4    4    0    0  0.43056763200E+01 -0.10434240007E+02 -0.13596554287E+01  0.11369780164E+02  0.10500000000E+00 0. -1.
    3000001    1    5    5    0    0 -0.10850882663E+02  0.57719390406E+02  0.17046071600E+02  0.61162392370E+02  0.10000000000E+01 0. -1.
        -13    1    6    6    0    0  0.44210021190E+00  0.62601731779E+00 -0.45472893305E+00  0.89730356183E+00  0.10500000000E+00 0.  1.
         13    1    6    6    0    0  0.27516529914E+00  0.26156746628E+00 -0.19675241352E+00  0.44030670390E+00  0.10500000000E+00 0. -1.
</event>
<event>
11    0  0.3467594E-009  0.9118800E+02  0.7816531E-02  0.1126479E+00
         25   -1    0    0    0    0  0.00000000000E+00  0.00000000000E+00  0.99999998245E-14  0.12500000000E+03  0.12500000000E+03 0.  0.
    3000001    1    3    3    0    0 -0.69595704305E+00  0.48953112781E+01 -0.10459314633E+01  0.51519318068E+01  0.10000000000E+01 0. -1.
    1000022    2    1    0    0    0 -0.35560007805E+02  0.50415626415E+02  0.20488749517E-01  0.62499999513E+02  0.99999988764E+01 0.  0.
    3000022    2    3    3    0    0 -0.34864050762E+02  0.45520315137E+02  0.10664202128E+01  0.57348067707E+02  0.24998394196E+00 0.  0.
    1000022    2    1    0    0    0  0.35560007805E+02 -0.50415626415E+02 -0.20488749517E-01  0.62500000487E+02  0.10000004959E+02 0.  0.
    3000022    2    5    5    0    0  0.35527219940E+02 -0.50152654768E+02 -0.10846712819E+00  0.61461747470E+02  0.25000004464E+00 0.  0.
        -13    1    4    4    0    0 -0.15426043685E+02  0.20248145300E+02  0.46075724748E+00  0.25459252426E+02  0.10500000000E+00 0. -1.
         13    1    4    4    0    0 -0.19438007077E+02  0.25272169837E+02  0.60566296533E+00  0.31888815281E+02  0.10500000000E+00 0.  1.
    3000001    1    5    5    0    0  0.32787864626E-01 -0.26297164660E+00  0.87978378676E-01  0.10382530164E+01  0.10000000000E+01 0.  1.
        -13    1    6    6    0    0  0.25832997756E+02 -0.36492148388E+02 -0.11304545669E+00  0.44710675138E+02  0.10500000000E+00 0. -1.
         13    1    6    6    0    0  0.96942221839E+01 -0.13660506380E+02  0.45783284951E-02  0.16751072332E+02  0.10500000000E+00 0.  1.
</event>
<event>
11    0  0.3467594E-009  0.9118800E+02  0.7816531E-02  0.1126479E+00
         25   -1    0    0    0    0  0.00000000000E+00  0.00000000000E+00  0.99999998245E-14  0.12500000000E+03  0.12500000000E+03 0.  0.
    3000001    1    3    3    0    0  0.17499350223E+02  0.57070510051E+02  0.32707666322E+00  0.59702406608E+02  0.10000000000E+01 0. -1.
    1000022    2    1    0    0    0  0.16393983845E+02  0.59474262733E+02 -0.54709585053E+00  0.62500000906E+02  0.10000008272E+02 0.  0.
    3000022    2    3    3    0    0 -0.11053663779E+01  0.24037526821E+01 -0.87417251375E+00  0.27975942976E+01  0.24998896816E+00 0.  0.
    1000022    2    1    0    0    0 -0.16393983845E+02 -0.59474262733E+02  0.54709585053E+00  0.62499999094E+02  0.99999969471E+01 0.  0.
    3000022    2    5    5    0    0 -0.36804001438E+01 -0.21195044757E+02 -0.40491139055E+01  0.21891393066E+02  0.24999900354E+00 0.  0.
        -13    1    4    4    0    0 -0.67214940049E+00  0.13198870179E+01 -0.51961667644E+00  0.15731856365E+01  0.10500000000E+00 0.  1.
         13    1    4    4    0    0 -0.43321697739E+00  0.10838656642E+01 -0.35455583730E+00  0.12244086611E+01  0.10500000000E+00 0. -1.
    3000001    1    5    5    0    0 -0.12713583701E+02 -0.38279217976E+02  0.45962097560E+01  0.40608606028E+02  0.10000000000E+01 0. -1.
        -13    1    6    6    0    0 -0.22492973091E+01 -0.12632020827E+02 -0.23828874999E+01  0.13050535100E+02  0.10500000000E+00 0. -1.
         13    1    6    6    0    0 -0.14311028347E+01 -0.85630239294E+01 -0.16662264056E+01  0.88408579659E+01  0.10500000000E+00 0.  1.
</event>
<event>
11    0  0.3467594E-009  0.9118800E+02  0.7816531E-02  0.1126479E+00
         25   -1    0    0    0    0  0.00000000000E+00  0.00000000000E+00  0.99999998245E-14  0.12500000000E+03  0.12500000000E+03 0.  0.
    3000001    1    3    3    0    0  0.21977563039E+00 -0.32500449267E+01 -0.38156341329E+01  0.51156775885E+01  0.10000000000E+01 0. -1.
    1000022    2    1    0    0    0 -0.21955666078E+01 -0.57799671978E+02 -0.21462227423E+02  0.62500000028E+02  0.10000010205E+02 0.  0.
    3000022    2    3    3    0    0 -0.24153422382E+01 -0.54549627051E+02 -0.17646593290E+02  0.57384322440E+02  0.25003514578E+00 0.  0.
    1000022    2    1    0    0    0  0.21955666078E+01  0.57799671978E+02  0.21462227423E+02  0.62499999972E+02  0.10000009854E+02 0.  0.
    3000022    2    5    5    0    0  0.49851046198E+00  0.52431399650E+02  0.21768630900E+02  0.56773549899E+02  0.24998986221E+00 0.  0.
        -13    1    4    4    0    0 -0.16408365800E+01 -0.36596761129E+02 -0.11890221482E+02  0.38514979705E+02  0.10500000000E+00 0. -1.
         13    1    4    4    0    0 -0.77450565815E+00 -0.17952865922E+02 -0.57563718086E+01  0.18869342734E+02  0.10500000000E+00 0.  1.
    3000001    1    5    5    0    0  0.16970561458E+01  0.53682723273E+01 -0.30640347714E+00  0.57264500725E+01  0.10000000000E+01 0. -1.
        -13    1    6    6    0    0  0.13011357900E+00  0.19052685103E+02  0.78790688247E+01  0.20618256224E+02  0.10500000000E+00 0. -1.
         13    1    6    6    0    0  0.36839688298E+00  0.33378714547E+02  0.13889562076E+02  0.36155293675E+02  0.10500000000E+00 0.  1.
</event>
<event>
11    0  0.3467594E-009  0.9118800E+02  0.7816531E-02  0.1126479E+00
         25   -1    0    0    0    0  0.00000000000E+00  0.00000000000E+00  0.99999998245E-14  0.12500000000E+03  0.12500000000E+03 0.  0.
    3000001    1    3    3    0    0  0.11285966924E+02  0.23924883209E+02 -0.15003531756E+01  0.26514602499E+02  0.10000000000E+01 0.  1.
    1000022    2    1    0    0    0  0.35463951936E+02  0.50476877681E+02  0.80250193252E+00  0.62500002536E+02  0.99999620160E+01 0.  0.
    3000022    2    3    3    0    0  0.24177985011E+02  0.26551994472E+02  0.23028551081E+01  0.35985400037E+02  0.25000915739E+00 0.  0.
    1000022    2    1    0    0    0 -0.35463951936E+02 -0.50476877681E+02 -0.80250193252E+00  0.62499997464E+02  0.99999303160E+01 0.  0.
    3000022    2    5    5    0    0 -0.30840632608E+02 -0.45065362919E+02 -0.37376660741E+01  0.54736315208E+02  0.25000049606E+00 0.  0.
        -13    1    4    4    0    0  0.94361043601E+01  0.10452735716E+02  0.88911103150E+00  0.14110325754E+02  0.10500000000E+00 0.  1.
         13    1    4    4    0    0  0.14741880651E+02  0.16099258755E+02  0.14137440766E+01  0.21875074284E+02  0.10500000000E+00 0. -1.
    3000001    1    5    5    0    0 -0.46233193279E+01 -0.54115147622E+01  0.29351641416E+01  0.77636822557E+01  0.10000000000E+01 0. -1.
        -13    1    6    6    0    0 -0.17888797242E+02 -0.26220716949E+02 -0.22184342383E+01  0.31819295082E+02  0.10500000000E+00 0. -1.
         13    1    6    6    0    0 -0.12951835366E+02 -0.18844645970E+02 -0.15192318358E+01  0.22917020126E+02  0.10500000000E+00 0.  1.
</event>
<event>
11    0  0.3467594E-009  0.9118800E+02  0.7816531E-02  0.1126479E+00
         25   -1    0    0    0    0  0.00000000000E+00  0.00000000000E+00  0.99999998245E-14  0.12500000000E+03  0.12500000000E+03 0.  0.
    3000001    1    3    3    0    0 -0.56631806048E+02  0.48627934562E+01  0.68477237985E+01  0.57259929599E+02  0.10000000000E+01 0.  1.
    1000022    2    1    0    0    0 -0.61381704367E+02  0.34636129352E+01  0.51516688595E+01  0.62500000183E+02  0.10000004263E+02 0.  0.
    3000022    2    3    3    0    0 -0.47498983191E+01 -0.13991805210E+01 -0.16960549390E+01  0.52400705839E+01  0.24999439336E+00 0.  0.
    1000022    2    1    0    0    0  0.61381704367E+02 -0.34636129352E+01 -0.51516688595E+01  0.62499999817E+02  0.10000001974E+02 0.  0.
    3000022    2    5    5    0    0  0.35069935884E+02  0.28961607276E+01 -0.34429344983E+01  0.35358230257E+02  0.24999807272E+00 0.  0.
        -13    1    4    4    0    0 -0.34292221837E+01 -0.10154836825E+01 -0.12648822879E+01  0.37949603551E+01  0.10500000000E+00 0.  1.
         13    1    4    4    0    0 -0.13206761353E+01 -0.38369683855E+00 -0.43117265104E+00  0.14451102288E+01  0.10500000000E+00 0. -1.
    3000001    1    5    5    0    0  0.26311768483E+02 -0.63597736628E+01 -0.17087343612E+01  0.27141769560E+02  0.10000000000E+01 0.  1.
        -13    1    6    6    0    0  0.12585139760E+02  0.10504603334E+01 -0.12927603721E+01  0.12695332373E+02  0.10500000000E+00 0.  1.
         13    1    6    6    0    0  0.22484796125E+02  0.18457003943E+01 -0.21501741262E+01  0.22662897884E+02  0.10500000000E+00 0. -1.
</event>
<event>
11    0  0.3467594E-009  0.9118800E+02  0.7816531E-02  0.1126479E+00
         25   -1    0    0    0    0  0.00000000000E+00  0.00000000000E+00  0.99999998245E-14  0.12500000000E+03  0.12500000000E+03 0.  0.
    3000001    1    3    3    0    0 -0.99227039335E+01 -0.20846767400E+02  0.30594567192E+02  0.38341561080E+02  0.10000000000E+01 0.  1.
    1000022    2    1    0    0    0 -0.93010978501E+01 -0.37407862196E+02  0.48170441265E+02  0.62499998631E+02  0.99999921006E+01 0.  0.
    3000022    2    3    3    0    0  0.62160608340E+00 -0.16561094796E+02  0.17575874073E+02  0.24158437551E+02  0.25000109938E+00 0.  0.
    1000022    2    1    0    0    0  0.93010978501E+01  0.37407862196E+02 -0.48170441265E+02  0.62500001369E+02  0.10000009211E+02 0.  0.
    3000022    2    5    5    0    0  0.61760376869E+01  0.31621382186E+02 -0.44384196633E+02  0.54845917469E+02  0.24999897533E+00 0.  0.
        -13    1    4    4    0    0  0.16658720257E+00 -0.43046300035E+01  0.45240697066E+01  0.62478654333E+01  0.10500000000E+00 0. -1.
         13    1    4    4    0    0  0.45501888083E+00 -0.12256464792E+02  0.13051804366E+02  0.17910572118E+02  0.10500000000E+00 0.  1.
    3000001    1    5    5    0    0  0.31250601632E+01  0.57864800100E+01 -0.37862446320E+01  0.76540838997E+01  0.10000000000E+01 0.  1.
        -13    1    6    6    0    0  0.45847311683E+01  0.23614654326E+02 -0.33123660560E+02  0.40937263864E+02  0.10500000000E+00 0.  1.
         13    1    6    6    0    0  0.15913065186E+01  0.80067278594E+01 -0.11260536073E+02  0.13908653605E+02  0.10500000000E+00 0. -1.
</event>
<event>
11    0  0.3467594E-009  0.9118800E+02  0.7816531E-02  0.1126479E+00
         25   -1    0    0    0    0  0.00000000000E+00  0.00000000000E+00  0.99999998245E-14  0.12500000000E+03  0.12500000000E+03 0.  0.
    3000001    1    3    3    0    0 -0.28169053969E+00 -0.36790837924E+02  0.30815835100E+02  0.48002716565E+02  0.10000000000E+01 0.  1.
    1000022    2    1    0    0    0  0.39097233532E+01 -0.49210530185E+02  0.37003888378E+02  0.62499999667E+02  0.99999992769E+01 0.  0.
    3000022    2    3    3    0    0  0.41914138929E+01 -0.12419692261E+02  0.61880532773E+01  0.14497283102E+02  0.25001539020E+00 0.  0.
    1000022    2    1    0    0    0 -0.39097233532E+01  0.49210530185E+02 -0.37003888378E+02  0.62500000333E+02  0.10000003444E+02 0.  0.
    3000022    2    5    5    0    0 -0.73239819720E+00  0.44516950119E+02 -0.31531136061E+02  0.54557953563E+02  0.25000143275E+00 0.  0.
        -13    1    4    4    0    0  0.22780266382E+01 -0.68546271309E+01  0.34735747634E+01  0.80157385876E+01  0.10500000000E+00 0. -1.
         13    1    4    4    0    0  0.19133872546E+01 -0.55650651299E+01  0.27144785140E+01  0.64815445141E+01  0.10500000000E+00 0.  1.
    3000001    1    5    5    0    0 -0.31773251560E+01  0.46935800657E+01 -0.54727523163E+01  0.79420467699E+01  0.10000000000E+01 0. -1.
        -13    1    6    6    0    0 -0.45532744701E+00  0.27085509750E+02 -0.19259786155E+02  0.33238269348E+02  0.10500000000E+00 0. -1.
         13    1    6    6    0    0 -0.27707075019E+00  0.17431440369E+02 -0.12271349906E+02  0.21319684215E+02  0.10500000000E+00 0.  1.
</event>
<event>
11    0  0.3467594E-009  0.9118800E+02  0.7816531E-02  0.1126479E+00
         25   -1    0    0    0    0  0.00000000000E+00  0.00000000000E+00  0.99999998245E-14  0.12500000000E+03  0.12500000000E+03 0.  0.
    3000001    1    3    3    0    0 -0.12979533366E+02  0.31322721069E+02  0.75811457260E+01  0.34757084344E+02  0.10000000000E+01 0. -1.
    1000022    2    1    0    0    0 -0.29834723710E+02  0.51286954781E+02  0.16905260103E+02  0.62500005195E+02  0.10000018034E+02 0.  0.
    3000022    2    3    3    0    0 -0.16855190344E+02  0.19964233712E+02  0.93241143774E+01  0.27742920851E+02  0.24995840645E+00 0.  0.
    1000022    2    1    0    0    0  0.29834723710E+02 -0.51286954781E+02 -0.16905260103E+02  0.62499994805E+02  0.99999530908E+01 0.  0.
    3000022    2    5    5    0    0  0.26584521308E+02 -0.41687389927E+02 -0.17092048067E+02  0.52314203191E+02  0.24999268295E+00 0.  0.
        -13    1    4    4    0    0 -0.40609546198E+01  0.48416395089E+01  0.22595247278E+01  0.67118777219E+01  0.10500000000E+00 0.  1.
         13    1    4    4    0    0 -0.12794235724E+02  0.15122594203E+02  0.70645896496E+01  0.21031043129E+02  0.10500000000E+00 0. -1.
    3000001    1    5    5    0    0  0.32502024023E+01 -0.95995648540E+01  0.18678796313E+00  0.10185791613E+02  0.10000000000E+01 0.  1.
        -13    1    6    6    0    0  0.64733405795E+01 -0.10117046041E+02 -0.41397518914E+01  0.12704618435E+02  0.10500000000E+00 0.  1.
         13    1    6    6    0    0  0.20111180728E+02 -0.31570343886E+02 -0.12952296175E+02  0.39609584757E+02  0.10500000000E+00 0. -1.
</event>
<event>
11    0  0.3467594E-009  0.9118800E+02  0.7816531E-02  0.1126479E+00
         25   -1    0    0    0    0  0.00000000000E+00  0.00000000000E+00  0.99999998245E-14  0.12500000000E+03  0.12500000000E+03 0.  0.
    3000001    1    3    3    0    0  0.20821473962E+02 -0.71687976956E+01  0.40468789774E+02  0.46083059622E+02  0.10000000000E+01 0. -1.
    1000022    2    1    0    0    0  0.32706936444E+02 -0.10862459780E+02  0.51171410228E+02  0.62500000464E+02  0.10000005464E+02 0.  0.
    3000022    2    3    3    0    0  0.11885462482E+02 -0.36936620843E+01  0.10702620454E+02  0.16416940842E+02  0.25000805342E+00 0.  0.
    1000022    2    1    0    0    0 -0.32706936444E+02  0.10862459780E+02 -0.51171410228E+02  0.62499999536E+02  0.99999996600E+01 0.  0.
    3000022    2    5    5    0    0 -0.20973406575E+01  0.19942447996E+00 -0.93006503028E+01  0.95395594625E+01  0.24998145237E+00 0.  0.
        -13    1    4    4    0    0  0.28409500593E+01 -0.88662874760E+00  0.25844701036E+01  0.39430468539E+01  0.10500000000E+00 0.  1.
         13    1    4    4    0    0  0.90445124230E+01 -0.28070333367E+01  0.81181503505E+01  0.12473893989E+02  0.10500000000E+00 0. -1.
    3000001    1    5    5    0    0 -0.30609595786E+02  0.10663035300E+02 -0.41870759925E+02  0.52960440073E+02  0.10000000000E+01 0. -1.
        -13    1    6    6    0    0 -0.16106100544E+01  0.16502057620E+00 -0.71308387332E+01  0.73130829735E+01  0.10500000000E+00 0.  1.
         13    1    6    6    0    0 -0.48673060318E+00  0.34403903759E-01 -0.21698115696E+01  0.22264764890E+01  0.10500000000E+00 0. -1.
</event>
<event>
11    0  0.3467594E-009  0.9118800E+02  0.7816531E-02  0.1126479E+00
         25   -1    0    0    0    0  0.00000000000E+00  0.00000000000E+00  0.99999998245E-14  0.12500000000E+03  0.12500000000E+03 0.  0.
    3000001    1    3    3    0    0  0.40082257894E+02  0.10690562653E+01 -0.31033173133E+01  0.40228856031E+02  0.10000000000E+01 0.  1.
    1000022    2    1    0    0    0  0.60473413081E+02  0.50262628010E+01 -0.11133441210E+02  0.62500005136E+02  0.10000006071E+02 0.  0.
    3000022    2    3    3    0    0  0.20391155186E+02  0.39572065357E+01 -0.80301238967E+01  0.22271149105E+02  0.24999851094E+00 0.  0.
    1000022    2    1    0    0    0 -0.60473413081E+02 -0.50262628010E+01  0.11133441210E+02  0.62499994864E+02  0.99999418725E+01 0.  0.
    3000022    2    5    5    0    0 -0.84706689392E+00  0.10743588401E+01  0.97720607114E+00  0.16997657840E+01  0.25000554955E+00 0.  0.
        -13    1    4    4    0    0  0.55557819014E+01  0.11121306352E+01 -0.21732817398E+01  0.60694089998E+01  0.10500000000E+00 0. -1.
         13    1    4    4    0    0  0.14835373285E+02  0.28450759005E+01 -0.58568421569E+01  0.16201740105E+02  0.10500000000E+00 0.  1.
    3000001    1    5    5    0    0 -0.59626346187E+02 -0.61006216411E+01  0.10156235139E+02  0.60800229080E+02  0.10000000000E+01 0. -1.
        -13    1    6    6    0    0 -0.38199080323E+00  0.47061436784E+00  0.51512042083E+00  0.80235210782E+00  0.10500000000E+00 0. -1.
         13    1    6    6    0    0 -0.46507609070E+00  0.60374447223E+00  0.46208565030E+00  0.89741367613E+00  0.10500000000E+00 0.  1.
</event>
<event>
11    0  0.3467594E-009  0.9118800E+02  0.7816531E-02  0.1126479E+00
         25   -1    0    0    0    0  0.00000000000E+00  0.00000000000E+00  0.99999998245E-14  0.12500000000E+03  0.12500000000E+03 0.  0.
    3000001    1    3    3    0    0 -0.21797811980E+02  0.29167685385E+02 -0.19079181472E+02  0.41120720367E+02  0.10000000000E+01 0.  1.
    1000022    2    1    0    0    0 -0.27073804992E+02  0.44709215190E+02 -0.32777206845E+02  0.62500001138E+02  0.10000000701E+02 0.  0.
    3000022    2    3    3    0    0 -0.52759930120E+01  0.15541529805E+02 -0.13698025372E+02  0.21379280771E+02  0.24999247795E+00 0.  0.
    1000022    2    1    0    0    0  0.27073804992E+02 -0.44709215190E+02  0.32777206845E+02  0.62499998862E+02  0.99999864778E+01 0.  0.
    3000022    2    5    5    0    0  0.16278928043E+02 -0.22180467310E+02  0.12106601082E+02  0.30060088382E+02  0.24999084778E+00 0.  0.
        -13    1    4    4    0    0 -0.20284753378E+01  0.58614025902E+01 -0.52397277977E+01  0.81201308434E+01  0.10500000000E+00 0. -1.
         13    1    4    4    0    0 -0.32475176742E+01  0.96801272147E+01 -0.84582975745E+01  0.13259149927E+02  0.10500000000E+00 0.  1.
    3000001    1    5    5    0    0  0.10794876949E+02 -0.22528747880E+02  0.20670605762E+02  0.32439910480E+02  0.10000000000E+01 0.  1.
        -13    1    6    6    0    0  0.84167300666E+01 -0.11383028671E+02  0.61797884673E+01  0.15447184120E+02  0.10500000000E+00 0. -1.
         13    1    6    6    0    0  0.78621979768E+01 -0.10797438639E+02  0.59268126149E+01  0.14612904261E+02  0.10500000000E+00 0.  1.
</event>
<event>
11    0  0.3467594E-009  0.9118800E+02  0.7816531E-02  0.1126479E+00
         25   -1    0    0    0    0  0.00000000000E+00  0.00000000000E+00  0.99999998245E-14  0.12500000000E+03  0.12500000000E+03 0.  0.
    3000001    1    3    3    0    0  0.31855644494E+00  0.46969919508E+02 -0.11534726131E+02  0.48376902792E+02  0.10000000000E+01 0. -1.
    1000022    2    1    0    0    0 -0.18051517687E+01  0.60848228205E+02 -0.10024184389E+02  0.62499998197E+02  0.10000002664E+02 0.  0.
    3000022    2    3    3    0    0 -0.21237082136E+01  0.13878308697E+02  0.15105417421E+01  0.14123095405E+02  0.24999717708E+00 0.  0.
    1000022    2    1    0    0    0  0.18051517687E+01 -0.60848228205E+02  0.10024184389E+02  0.62500001803E+02  0.10000025205E+02 0.  0.
    3000022    2    5    5    0    0 -0.26168019302E+01 -0.16647193613E+02 -0.40973997777E+00  0.16858442767E+02  0.24999630400E+00 0.  0.
        -13    1    4    4    0    0 -0.80944578735E+00  0.56209542586E+01  0.65020936389E+00  0.57170032777E+01  0.10500000000E+00 0. -1.
         13    1    4    4    0    0 -0.13142624262E+01  0.82573544385E+01  0.86033237819E+00  0.84060921271E+01  0.10500000000E+00 0.  1.
    3000001    1    5    5    0    0  0.44219536989E+01 -0.44201034592E+02  0.10433924367E+02  0.45641559036E+02  0.10000000000E+01 0. -1.
        -13    1    6    6    0    0 -0.15578252402E+01 -0.10092717432E+02 -0.30394850815E+00  0.10217297800E+02  0.10500000000E+00 0.  1.
         13    1    6    6    0    0 -0.10589766900E+01 -0.65544761815E+01 -0.10579146962E+00  0.66411449675E+01  0.10500000000E+00 0. -1.
</event>
<event>
11    0  0.3467594E-009  0.9118800E+02  0.7816531E-02  0.1126479E+00
         25   -1    0    0    0    0  0.00000000000E+00  0.00000000000E+00  0.99999998245E-14  0.12500000000E+03  0.12500000000E+03 0.  0.
    3000001    1    3    3    0    0  0.15560848993E+01 -0.19667874075E+01 -0.70866328097E+00  0.27913897195E+01  0.10000000000E+01 0. -1.
    1000022    2    1    0    0    0  0.45097162255E+02 -0.35511728235E+02  0.22614439639E+02  0.62499999807E+02  0.10000010500E+02 0.  0.
    3000022    2    3    3    0    0  0.43541077355E+02 -0.33544940827E+02  0.23323102920E+02  0.59708610087E+02  0.25003271531E+00 0.  0.
    1000022    2    1    0    0    0 -0.45097162255E+02  0.35511728235E+02 -0.22614439639E+02  0.62500000193E+02  0.10000012913E+02 0.  0.
    3000022    2    5    5    0    0 -0.41173729365E+02  0.29796018949E+02 -0.17232180035E+02  0.53666463148E+02  0.25000599670E+00 0.  0.
        -13    1    4    4    0    0  0.27629641521E+02 -0.21285512901E+02  0.14735711330E+02  0.37863205931E+02  0.10500000000E+00 0.  1.
         13    1    4    4    0    0  0.15911435835E+02 -0.12259427927E+02  0.85873915901E+01  0.21845404156E+02  0.10500000000E+00 0. -1.
    3000001    1    5    5    0    0 -0.39234328901E+01  0.57157092855E+01 -0.53822596049E+01  0.88335370455E+01  0.10000000000E+01 0.  1.
        -13    1    6    6    0    0 -0.19727052909E+02  0.14354242397E+02 -0.82963035928E+01  0.25768984644E+02  0.10500000000E+00 0. -1.
         13    1    6    6    0    0 -0.21446676456E+02  0.15441776552E+02 -0.89358764418E+01  0.27897478504E+02  0.10500000000E+00 0.  1.
</event>
<event>
11    0  0.3467594E-009  0.9118800E+02  0.7816531E-02  0.1126479E+00
         25   -1    0    0    0    0  0.00000000000E+00  0.00000000000E+00  0.99999998245E-14  0.12500000000E+03  0.12500000000E+03 0.  0.
    3000001    1    3    3    0    0 -0.31981992679E+02  0.92345847304E+01  0.27572273958E+02  0.43236046328E+02  0.10000000000E+01 0. -1.
    1000022    2    1    0    0    0 -0.49508698570E+02  0.13809268371E+02  0.34123935557E+02  0.62500000170E+02  0.99999958121E+01 0.  0.
    3000022    2    3    3    0    0 -0.17526705891E+02  0.45746836409E+01  0.65516615988E+01  0.19263953842E+02  0.24999618371E+00 0.  0.
    1000022    2    1    0    0    0  0.49508698570E+02 -0.13809268371E+02 -0.34123935557E+02  0.62499999830E+02  0.99999936927E+01 0.  0.
    3000022    2    5    5    0    0  0.46241379226E+02 -0.12719663522E+02 -0.28377202501E+02  0.55725964457E+02  0.25000010069E+00 0.  0.
        -13    1    4    4    0    0 -0.88967202630E+01  0.23640332505E+01  0.33872883292E+01  0.98094358590E+01  0.10500000000E+00 0.  1.
         13    1    4    4    0    0 -0.86299856284E+01  0.22106503904E+01  0.31643732696E+01  0.94545179826E+01  0.10500000000E+00 0. -1.
    3000001    1    5    5    0    0  0.32673193438E+01 -0.10896048495E+01 -0.57467330556E+01  0.67740353730E+01  0.10000000000E+01 0.  1.
        -13    1    6    6    0    0  0.28112758102E+02 -0.76835145278E+01 -0.17197809492E+02  0.33839906027E+02  0.10500000000E+00 0.  1.
         13    1    6    6    0    0  0.18128621125E+02 -0.50361489940E+01 -0.11179393009E+02  0.21886058430E+02  0.10500000000E+00 0. -1.
</event>
<event>
11    0  0.3467594E-009  0.9118800E+02  0.7816531E-02  0.1126479E+00
         25   -1    0    0    0    0  0.00000000000E+00  0.00000000000E+00  0.99999998245E-14  0.12500000000E+03  0.12500000000E+03 0.  0.
    3000001    1    3    3    0    0 -0.53875825089E+01  0.20307758606E+02 -0.27011431098E+01  0.21206774365E+02  0.10000000000E+01 0. -1.
    1000022    2    1    0    0    0 -0.11848055990E+02  0.60325616396E+02  0.51665935610E+01  0.62499999603E+02  0.99999918495E+01 0.  0.
    3000022    2    3    3    0    0 -0.64604734811E+01  0.40017857791E+02  0.78677366708E+01  0.41293225238E+02  0.25002090055E+00 0.  0.
    1000022    2    1    0    0    0  0.11848055990E+02 -0.60325616396E+02 -0.51665935610E+01  0.62500000397E+02  0.99999968125E+01 0.  0.
    3000022    2    5    5    0    0  0.11376526030E+02 -0.41335974201E+02 -0.67943433433E+01  0.43408682460E+02  0.25000759929E+00 0.  0.
        -13    1    4    4    0    0 -0.31994686756E+01  0.19836505521E+02  0.38308426420E+01  0.20455071045E+02  0.10500000000E+00 0. -1.
         13    1    4    4    0    0 -0.32610048054E+01  0.20181352270E+02  0.40368940288E+01  0.20838154193E+02  0.10500000000E+00 0.  1.
    3000001    1    5    5    0    0  0.47152996012E+00 -0.18989642196E+02  0.16277497823E+01  0.19091317937E+02  0.10000000000E+01 0.  1.
        -13    1    6    6    0    0  0.79763311710E+01 -0.28824023358E+02 -0.47601389720E+01  0.30283925266E+02  0.10500000000E+00 0. -1.
         13    1    6    6    0    0  0.34001948589E+01 -0.12511950843E+02 -0.20342043713E+01  0.13124757194E+02  0.10500000000E+00 0.  1.
</event>
<event>
11    0  0.3467594E-009  0.9118800E+02  0.7816531E-02  0.1126479E+00
         25   -1    0    0    0    0  0.00000000000E+00  0.00000000000E+00  0.99999998245E-14  0.12500000000E+03  0.12500000000E+03 0.  0.
    3000001    1    3    3    0    0  0.41964165306E+02  0.52937992479E+01  0.37207338161E+01  0.42471865281E+02  0.10000000000E+01 0.  1.
    1000022    2    1    0    0    0  0.59749591265E+02  0.14296211598E+02  0.56439821900E+01  0.62500000246E+02  0.10000008666E+02 0.  0.
    3000022    2    3    3    0    0  0.17785425959E+02  0.90024123503E+01  0.19232483739E+01  0.20028134964E+02  0.25000236062E+00 0.  0.
    1000022    2    1    0    0    0 -0.59749591265E+02 -0.14296211598E+02 -0.56439821900E+01  0.62499999754E+02  0.10000005596E+02 0.  0.
    3000022    2    5    5    0    0 -0.19445958304E+02 -0.90945800241E+01 -0.67961071062E-01  0.21469135610E+02  0.24996993396E+00 0.  0.
        -13    1    4    4    0    0  0.57139347217E+01  0.28530240993E+01  0.65330379985E+00  0.64207964747E+01  0.10500000000E+00 0.  1.
         13    1    4    4    0    0  0.12071491237E+02  0.61493882510E+01  0.12699445740E+01  0.13607338490E+02  0.10500000000E+00 0. -1.
    3000001    1    5    5    0    0 -0.40303632961E+02 -0.52016315741E+01 -0.55760211189E+01  0.41030864144E+02  0.10000000000E+01 0.  1.
        -13    1    6    6    0    0 -0.10689798426E+02 -0.49931244614E+01  0.29055262162E-01  0.11798938574E+02  0.10500000000E+00 0. -1.
         13    1    6    6    0    0 -0.87561598787E+01 -0.41014555627E+01 -0.97016333225E-01  0.96701970364E+01  0.10500000000E+00 0.  1.
</event>
<event>
11    0  0.3467594E-009  0.9118800E+02  0.7816531E-02  0.1126479E+00
         25   -1    0    0    0    0  0.00000000000E+00  0.00000000000E+00  0.99999998245E-14  0.12500000000E+03  0.12500000000E+03 0.  0.
    3000001    1    3    3    0    0 -0.18055115138E+01  0.12920151574E+02  0.32763008687E+02  0.35278958697E+02  0.10000000000E+01 0.  1.
    1000022    2    1    0    0    0  0.34071483608E+01  0.27682070679E+02  0.55030393512E+02  0.62499998408E+02  0.99999946953E+01 0.  0.
    3000022    2    3    3    0    0  0.52126598747E+01  0.14761919104E+02  0.22267384825E+02  0.27221039711E+02  0.24999476969E+00 0.  0.
    1000022    2    1    0    0    0 -0.34071483608E+01 -0.27682070679E+02 -0.55030393512E+02  0.62500001592E+02  0.10000014599E+02 0.  0.
    3000022    2    5    5    0    0 -0.28123568320E+01 -0.47071526991E+01 -0.49606372499E+01  0.73984487536E+01  0.24996910001E+00 0.  0.
        -13    1    4    4    0    0  0.20787078618E+01  0.58643759428E+01  0.89587368578E+01  0.10907883510E+02  0.10500000000E+00 0. -1.
         13    1    4    4    0    0  0.31339520128E+01  0.88975431615E+01  0.13308647967E+02  0.16313156201E+02  0.10500000000E+00 0.  1.
    3000001    1    5    5    0    0 -0.59479152880E+00 -0.22974917979E+02 -0.50069756262E+02  0.55101552839E+02  0.10000000000E+01 0. -1.
        -13    1    6    6    0    0 -0.20509734063E+01 -0.34811048995E+01 -0.36230634263E+01  0.54279090657E+01  0.10500000000E+00 0. -1.
         13    1    6    6    0    0 -0.76138342570E+00 -0.12260477996E+01 -0.13375738236E+01  0.19705396879E+01  0.10500000000E+00 0.  1.
</event>
<event>
11    0  0.3467594E-009  0.9118800E+02  0.7816531E-02  0.1126479E+00
         25   -1    0    0    0    0  0.00000000000E+00  0.00000000000E+00  0.99999998245E-14  0.12500000000E+03  0.12500000000E+03 0.  0.
    3000001    1    3    3    0    0  0.27149073789E+01  0.59606355021E+01 -0.76241718010E+01  0.10100885769E+02  0.10000000000E+01 0.  1.
    1000022    2    1    0    0    0  0.30541137029E+02  0.43541470335E+02 -0.31267065294E+02  0.62499999726E+02  0.99999951880E+01 0.  0.
    3000022    2    3    3    0    0  0.27826229650E+02  0.37580834832E+02 -0.23642893493E+02  0.52399113957E+02  0.25005509056E+00 0.  0.
    1000022    2    1    0    0    0 -0.30541137029E+02 -0.43541470335E+02  0.31267065294E+02  0.62500000274E+02  0.99999986106E+01 0.  0.
    3000022    2    5    5    0    0 -0.10447184768E+02 -0.17713979411E+02  0.17422391257E+02  0.26954238162E+02  0.25000332575E+00 0.  0.
        -13    1    4    4    0    0  0.12278226189E+02  0.16475382772E+02 -0.10408969409E+02  0.23033687177E+02  0.10500000000E+00 0.  1.
         13    1    4    4    0    0  0.15548003462E+02  0.21105452061E+02 -0.13233924084E+02  0.29365426780E+02  0.10500000000E+00 0. -1.
    3000001    1    5    5    0    0 -0.20093952261E+02 -0.25827490924E+02  0.13844674037E+02  0.35545762112E+02  0.10000000000E+01 0.  1.
        -13    1    6    6    0    0 -0.30979200246E+01 -0.52925912387E+01  0.52490491915E+01  0.80729283976E+01  0.10500000000E+00 0.  1.
         13    1    6    6    0    0 -0.73492647430E+01 -0.12421388172E+02  0.12173342065E+02  0.18881309765E+02  0.10500000000E+00 0. -1.
</event>
<event>
11    0  0.3467594E-009  0.9118800E+02  0.7816531E-02  0.1126479E+00
         25   -1    0    0    0    0  0.00000000000E+00  0.00000000000E+00  0.99999998245E-14  0.12500000000E+03  0.12500000000E+03 0.  0.
    3000001    1    3    3    0    0  0.14538847876E+02  0.23778274720E+01  0.12010519152E+02  0.19033778694E+02  0.10000000000E+01 0.  1.
    1000022    2    1    0    0    0  0.54598364549E+02  0.13321563074E+00  0.28727179457E+02  0.62499999955E+02  0.99999998531E+01 0.  0.
    3000022    2    3    3    0    0  0.40059516673E+02 -0.22446118412E+01  0.16716660304E+02  0.43466221262E+02  0.25000132213E+00 0.  0.
    1000022    2    1    0    0    0 -0.54598364549E+02 -0.13321563074E+00 -0.28727179457E+02  0.62500000045E+02  0.10000000409E+02 0.  0.
    3000022    2    5    5    0    0 -0.47046708510E+02  0.12772667153E+00 -0.20605899905E+02  0.51362191401E+02  0.24999780843E+00 0.  0.
        -13    1    4    4    0    0  0.26512515216E+02 -0.15395294295E+01  0.11072885582E+02  0.28773311142E+02  0.10500000000E+00 0. -1.
         13    1    4    4    0    0  0.13547001456E+02 -0.70508241173E+00  0.56437747222E+01  0.14692910120E+02  0.10500000000E+00 0.  1.
    3000001    1    5    5    0    0 -0.75516560391E+01 -0.26094230227E+00 -0.81212795521E+01  0.11137808644E+02  0.10000000000E+01 0.  1.
        -13    1    6    6    0    0 -0.25467409856E+02  0.24439439997E-01 -0.11099817531E+02  0.27781406305E+02  0.10500000000E+00 0. -1.
         13    1    6    6    0    0 -0.21579298654E+02  0.10328723153E+00 -0.95060823735E+01  0.23580785096E+02  0.10500000000E+00 0.  1.
</event>
<event>
11    0  0.3467594E-009  0.9118800E+02  0.7816531E-02  0.1126479E+00
         25   -1    0    0    0    0  0.00000000000E+00  0.00000000000E+00  0.99999998245E-14  0.12500000000E+03  0.12500000000E+03 0.  0.
    3000001    1    3    3    0    0 -0.27682366628E+02  0.22817863350E+01 -0.18575473001E+02  0.33430048881E+02  0.10000000000E+01 0.  1.
    1000022    2    1    0    0    0 -0.45451735442E+02  0.45804460187E+01 -0.41465760269E+02  0.62500000224E+02  0.10000000644E+02 0.  0.
    3000022    2    3    3    0    0 -0.17769368815E+02  0.22986596837E+01 -0.22890287268E+02  0.29069951343E+02  0.25003090685E+00 0.  0.
    1000022    2    1    0    0    0  0.45451735442E+02 -0.45804460187E+01  0.41465760269E+02  0.62499999776E+02  0.99999978468E+01 0.  0.
    3000022    2    5    5    0    0  0.40721144798E+02 -0.23247100473E+01  0.32875927068E+02  0.52388023361E+02  0.25000118780E+00 0.  0.
        -13    1    4    4    0    0 -0.10168409252E+02  0.13212462454E+01 -0.12993779723E+02  0.16552690864E+02  0.10500000000E+00 0.  1.
         13    1    4    4    0    0 -0.76009595629E+01  0.97741343834E+00 -0.98965075452E+01  0.12517260479E+02  0.10500000000E+00 0. -1.
    3000001    1    5    5    0    0  0.47305906441E+01 -0.22557359714E+01  0.85898332001E+01  0.10111976415E+02  0.10000000000E+01 0.  1.
        -13    1    6    6    0    0  0.24555193196E+02 -0.13666954765E+01  0.19889556830E+02  0.31629588447E+02  0.10500000000E+00 0.  1.
         13    1    6    6    0    0  0.16165951602E+02 -0.95801457075E+00  0.12986370238E+02  0.20758434914E+02  0.10500000000E+00 0. -1.
</event>
<event>
11    0  0.3467594E-009  0.9118800E+02  0.7816531E-02  0.1126479E+00
         25   -1    0    0    0    0  0.00000000000E+00  0.00000000000E+00  0.99999998245E-14  0.12500000000E+03  0.12500000000E+03 0.  0.
    3000001    1    3    3    0    0  0.51653798445E+02 -0.61068718758E+01 -0.27440803007E+02  0.58816719116E+02  0.10000000000E+01 0. -1.
    1000022    2    1    0    0    0  0.53207088757E+02 -0.55721549294E+01 -0.30727959185E+02  0.62499995285E+02  0.99999365215E+01 0.  0.
    3000022    2    3    3    0    0  0.15532903122E+01  0.53471694642E+00 -0.32871561780E+01  0.36832761694E+01  0.24998919019E+00 0.  0.
    1000022    2    1    0    0    0 -0.53207088757E+02  0.55721549294E+01  0.30727959185E+02  0.62500004715E+02  0.99999954531E+01 0.  0.
    3000022    2    5    5    0    0 -0.44463940210E+02  0.96020890306E+00  0.24559868354E+02  0.50805645511E+02  0.25000428817E+00 0.  0.
        -13    1    4    4    0    0  0.10364275650E+01  0.31858340746E+00 -0.20642138260E+01  0.23340268217E+01  0.10500000000E+00 0. -1.
         13    1    4    4    0    0  0.51686274720E+00  0.21613353895E+00 -0.12229423520E+01  0.13492493477E+01  0.10500000000E+00 0.  1.
    3000001    1    5    5    0    0 -0.87431485475E+01  0.46119460264E+01  0.61680908314E+01  0.11694359203E+02  0.10000000000E+01 0.  1.
        -13    1    6    6    0    0 -0.17771543165E+02  0.32427125462E+00  0.97918346513E+01  0.20293445965E+02  0.10500000000E+00 0.  1.
         13    1    6    6    0    0 -0.26692397045E+02  0.63593764844E+00  0.14768033702E+02  0.30512199546E+02  0.10500000000E+00 0. -1.
</event>
<event>
11    0  0.3467594E-009  0.9118800E+02  0.7816531E-02  0.1126479E+00
         25   -1    0    0    0    0  0.00000000000E+00  0.00000000000E+00  0.99999998245E-14  0.12500000000E+03  0.12500000000E+03 0.  0.
    3000001    1    3    3    0    0 -0.16775155264E+02 -0.25246036972E+02  0.24332866840E+02  0.38882600550E+02  0.10000000000E+01 0.  1.
    1000022    2    1    0    0    0 -0.27096865356E+02 -0.44794919017E+02  0.32640846823E+02  0.62499999258E+02  0.10000007206E+02 0.  0.
    3000022    2    3    3    0    0 -0.10321710092E+02 -0.19548882046E+02  0.83079799831E+01  0.23617398708E+02  0.25000377707E+00 0.  0.
    1000022    2    1    0    0    0  0.27096865356E+02  0.44794919017E+02 -0.32640846823E+02  0.62500000742E+02  0.10000016475E+02 0.  0.
    3000022    2    5    5    0    0 -0.58275256028E+00  0.34645508667E+01 -0.17013669209E+01  0.39115036107E+01  0.24999568558E+00 0.  0.
        -13    1    4    4    0    0 -0.77494988725E+01 -0.14722447019E+02  0.62661611567E+01  0.17778666419E+02  0.10500000000E+00 0.  1.
         13    1    4    4    0    0 -0.25722112200E+01 -0.48264350269E+01  0.20418188264E+01  0.58387322896E+01  0.10500000000E+00 0. -1.
    3000001    1    5    5    0    0  0.27679617916E+02  0.41330368151E+02 -0.30939479902E+02  0.58588497131E+02  0.10000000000E+01 0. -1.
        -13    1    6    6    0    0 -0.12378647265E+00  0.97557273207E+00 -0.47660572549E+00  0.10978357181E+01  0.10500000000E+00 0.  1.
         13    1    6    6    0    0 -0.45896608764E+00  0.24889781346E+01 -0.12247611954E+01  0.28136678926E+01  0.10500000000E+00 0. -1.
</event>
<event>
11    0  0.3467594E-009  0.9118800E+02  0.7816531E-02  0.1126479E+00
         25   -1    0    0    0    0  0.00000000000E+00  0.00000000000E+00  0.99999998245E-14  0.12500000000E+03  0.12500000000E+03 0.  0.
    3000001    1    3    3    0    0  0.18391117045E+02  0.29689593489E+02 -0.31644013703E+01  0.35081598934E+02  0.10000000000E+01 0. -1.
    1000022    2    1    0    0    0  0.32050598922E+02  0.50793711474E+02 -0.14107021206E+02  0.62499999146E+02  0.99999914674E+01 0.  0.
    3000022    2    3    3    0    0  0.13659481877E+02  0.21104117985E+02 -0.10942619836E+02  0.27418400212E+02  0.25000050223E+00 0.  0.
    1000022    2    1    0    0    0 -0.32050598922E+02 -0.50793711474E+02  0.14107021206E+02  0.62500000854E+02  0.10000002140E+02 0.  0.
    3000022    2    5    5    0    0 -0.20322965360E+02 -0.23963563489E+02  0.49885080463E+01  0.31815452428E+02  0.25000904437E+00 0.  0.
        -13    1    4    4    0    0  0.73133051492E+01  0.11179139945E+02 -0.57963962996E+01  0.14562514796E+02  0.10500000000E+00 0.  1.
         13    1    4    4    0    0  0.63461767282E+01  0.99249780404E+01 -0.51462235361E+01  0.12855885417E+02  0.10500000000E+00 0. -1.
    3000001    1    5    5    0    0 -0.11727633562E+02 -0.26830147985E+02  0.91185131597E+01  0.30684548426E+02  0.10000000000E+01 0. -1.
        -13    1    6    6    0    0 -0.11220209194E+02 -0.13211202118E+02  0.28180906872E+01  0.17560797701E+02  0.10500000000E+00 0. -1.
         13    1    6    6    0    0 -0.91027561660E+01 -0.10752361371E+02  0.21704173591E+01  0.14254654727E+02  0.10500000000E+00 0.  1.
</event>
<event>
11    0  0.3467594E-009  0.9118800E+02  0.7816531E-02  0.1126479E+00
         25   -1    0    0    0    0  0.00000000000E+00  0.00000000000E+00  0.99999998245E-14  0.12500000000E+03  0.12500000000E+03 0.  0.
    3000001    1    3    3    0    0  0.61985063727E+00  0.21713124970E+02  0.65807394577E+00  0.21754932132E+02  0.10000000000E+01 0.  1.
    1000022    2    1    0    0    0  0.16149402783E+01  0.59791657923E+02  0.15119515793E+02  0.62500001469E+02  0.10000001827E+02 0.  0.
    3000022    2    3    3    0    0  0.99508964105E+00  0.38078532953E+02  0.14461441847E+02  0.40745069337E+02  0.24999937788E+00 0.  0.
    1000022    2    1    0    0    0 -0.16149402783E+01 -0.59791657923E+02 -0.15119515793E+02  0.62499998531E+02  0.99999834598E+01 0.  0.
    3000022    2    5    5    0    0 -0.94387999101E+00 -0.18630558914E+02 -0.95124586830E+01  0.20941299285E+02  0.25002131590E+00 0.  0.
        -13    1    4    4    0    0  0.63762207628E+00  0.24226479726E+02  0.91381272171E+01  0.25900680992E+02  0.10500000000E+00 0.  1.
         13    1    4    4    0    0  0.35746756477E+00  0.13852053227E+02  0.53233146303E+01  0.14844388345E+02  0.10500000000E+00 0. -1.
    3000001    1    5    5    0    0 -0.67106028731E+00 -0.41161099010E+02 -0.56070571102E+01  0.41558699246E+02  0.10000000000E+01 0. -1.
        -13    1    6    6    0    0 -0.55154822618E+00 -0.10497538716E+02 -0.52896082022E+01  0.11768326324E+02  0.10500000000E+00 0. -1.
         13    1    6    6    0    0 -0.39233176483E+00 -0.81330201979E+01 -0.42228504808E+01  0.91729729607E+01  0.10500000000E+00 0.  1.
</event>
<event>
11    0  0.3467594E-009  0.9118800E+02  0.7816531E-02  0.1126479E+00
         25   -1    0    0    0    0  0.00000000000E+00  0.00000000000E+00  0.99999998245E-14  0.12500000000E+03  0.12500000000E+03 0.  0.
    3000001    1    3    3    0    0  0.16883739803E+02 -0.31431608255E+02 -0.13003456336E+02  0.37988110560E+02  0.10000000000E+01 0.  1.
    1000022    2    1    0    0    0  0.30941779660E+02 -0.51480391152E+02 -0.14093450859E+02  0.62500001384E+02  0.10000020709E+02 0.  0.
    3000022    2    3    3    0    0  0.14058039857E+02 -0.20048782897E+02 -0.10899945228E+01  0.24511890824E+02  0.25004686196E+00 0.  0.
    1000022    2    1    0    0    0 -0.30941779660E+02  0.51480391152E+02  0.14093450859E+02  0.62499998616E+02  0.10000003407E+02 0.  0.
    3000022    2    5    5    0    0 -0.24306841610E+02  0.31357562058E+02  0.94403591302E+01  0.40783601209E+02  0.24999962345E+00 0.  0.
        -13    1    4    4    0    0  0.98914371226E+01 -0.14030559757E+02 -0.77726924530E+00  0.17184653268E+02  0.10500000000E+00 0. -1.
         13    1    4    4    0    0  0.41666027343E+01 -0.60182231398E+01 -0.31272527750E+00  0.73272375562E+01  0.10500000000E+00 0.  1.
    3000001    1    5    5    0    0 -0.66349380506E+01  0.20122829095E+02  0.46530917288E+01  0.21716397407E+02  0.10000000000E+01 0. -1.
        -13    1    6    6    0    0 -0.16015791151E+02  0.20627326688E+02  0.62661498681E+01  0.26856429987E+02  0.10500000000E+00 0.  1.
         13    1    6    6    0    0 -0.82910504586E+01  0.10730235369E+02  0.31742092621E+01  0.13927171221E+02  0.10500000000E+00 0. -1.
</event>
<event>
11    0  0.3467594E-009  0.9118800E+02  0.7816531E-02  0.1126479E+00
         25   -1    0    0    0    0  0.00000000000E+00  0.00000000000E+00  0.99999998245E-14  0.12500000000E+03  0.12500000000E+03 0.  0.
    3000001    1    3    3    0    0  0.77534221863E+01  0.54566862700E+02  0.31730661558E+01  0.55215273334E+02  0.10000000000E+01 0.  1.
    1000022    2    1    0    0    0  0.73375342736E+01  0.60881348158E+02  0.67729268504E+01  0.62499996075E+02  0.99999504230E+01 0.  0.
    3000022    2    3    3    0    0 -0.41588791273E+00  0.63144854588E+01  0.35998606946E+01  0.72847227415E+01  0.24999806761E+00 0.  0.
    1000022    2    1    0    0    0 -0.73375342736E+01 -0.60881348158E+02 -0.67729268504E+01  0.62500003925E+02  0.99999994857E+01 0.  0.
    3000022    2    5    5    0    0  0.14666065092E+01 -0.22409244898E+01 -0.11586649364E+01  0.29287682505E+01  0.25000361695E+00 0.  0.
        -13    1    4    4    0    0 -0.12347082515E+00  0.28122627292E+01  0.15727977577E+01  0.32262647891E+01  0.10500000000E+00 0. -1.
         13    1    4    4    0    0 -0.29241708758E+00  0.35022227296E+01  0.20270629369E+01  0.40584579523E+01  0.10500000000E+00 0.  1.
    3000001    1    5    5    0    0 -0.88041407828E+01 -0.58640423668E+02 -0.56142619140E+01  0.59571235674E+02  0.10000000000E+01 0.  1.
        -13    1    6    6    0    0  0.47643709312E+00 -0.64704655163E+00 -0.36231422285E+00  0.88767006244E+00  0.10500000000E+00 0. -1.
         13    1    6    6    0    0  0.99016941609E+00 -0.15938779382E+01 -0.79635071359E+00  0.20410981881E+01  0.10500000000E+00 0.  1.
</event>
<event>
11    0  0.3467594E-009  0.9118800E+02  0.7816531E-02  0.1126479E+00
         25   -1    0    0    0    0  0.00000000000E+00  0.00000000000E+00  0.99999998245E-14  0.12500000000E+03  0.12500000000E+03 0.  0.
    3000001    1    3    3    0    0  0.74856120830E+01 -0.86490552973E+01 -0.56987706656E+02  0.58132944668E+02  0.10000000000E+01 0.  1.
    1000022    2    1    0    0    0  0.10485348922E+02 -0.93353512482E+01 -0.60076273988E+02  0.62499999927E+02  0.99999984830E+01 0.  0.
    3000022    2    3    3    0    0  0.29997368394E+01 -0.68629595083E+00 -0.30885673315E+01  0.43670552592E+01  0.25000047670E+00 0.  0.
    1000022    2    1    0    0    0 -0.10485348922E+02  0.93353512482E+01  0.60076273988E+02  0.62500000073E+02  0.99999993950E+01 0.  0.
    3000022    2    5    5    0    0 -0.62023329475E+01  0.10850165192E+02  0.46396988558E+02  0.48051410626E+02  0.24999446169E+00 0.  0.
        -13    1    4    4    0    0  0.21167943151E+01 -0.45925825448E+00 -0.21163601738E+01  0.30301388915E+01  0.10500000000E+00 0. -1.
         13    1    4    4    0    0  0.88294252431E+00 -0.22703769636E+00 -0.97220715768E+00  0.13369163677E+01  0.10500000000E+00 0.  1.
    3000001    1    5    5    0    0 -0.42830159749E+01 -0.15148139442E+01  0.13679285430E+02  0.14448589447E+02  0.10000000000E+01 0. -1.
        -13    1    6    6    0    0 -0.17114445723E+01  0.30476626657E+01  0.13092252514E+02  0.13551213641E+02  0.10500000000E+00 0.  1.
         13    1    6    6    0    0 -0.44908883752E+01  0.78025025267E+01  0.33304736043E+02  0.34500196985E+02  0.10500000000E+00 0. -1.
</event>
<event>
11    0  0.3467594E-009  0.9118800E+02  0.7816531E-02  0.1126479E+00
         25   -1    0    0    0    0  0.00000000000E+00  0.00000000000E+00  0.99999998245E-14  0.12500000000E+03  0.12500000000E+03 0.  0.
    3000001    1    3    3    0    0 -0.18098400583E+02  0.19590214274E+02 -0.36776773724E+00  0.26692018509E+02  0.10000000000E+01 0.  1.
    1000022    2    1    0    0    0 -0.39375099996E+02  0.45981117360E+02 -0.11899085699E+02  0.62499999544E+02  0.10000002461E+02 0.  0.
    3000022    2    3    3    0    0 -0.21276699413E+02  0.26390903085E+02 -0.11531317962E+02  0.35807981035E+02  0.25001662787E+00 0.  0.
    1000022    2    1    0    0    0  0.39375099996E+02 -0.45981117360E+02  0.11899085699E+02  0.62500000456E+02  0.10000008158E+02 0.  0.
    3000022    2    5    5    0    0  0.48094743796E+01 -0.10112009928E+02  0.47515301253E+01  0.12166483861E+02  0.25000479498E+00 0.  0.
        -13    1    4    4    0    0 -0.15328939979E+02  0.18950231563E+02 -0.82854130303E+01  0.25743868615E+02  0.10500000000E+00 0.  1.
         13    1    4    4    0    0 -0.59477594335E+01  0.74406715227E+01 -0.32459049318E+01  0.10064112421E+02  0.10500000000E+00 0. -1.
    3000001    1    5    5    0    0  0.34565625616E+02 -0.35869107431E+02  0.71475555740E+01  0.50333516595E+02  0.10000000000E+01 0.  1.
        -13    1    6    6    0    0  0.16783497750E+01 -0.36532715839E+01  0.16819149837E+01  0.43592561573E+01  0.10500000000E+00 0. -1.
         13    1    6    6    0    0  0.31311246047E+01 -0.64587383445E+01  0.30696151416E+01  0.78072277032E+01  0.10500000000E+00 0.  1.
</event>
<event>
11    0  0.3467594E-009  0.9118800E+02  0.7816531E-02  0.1126479E+00
         25   -1    0    0    0    0  0.00000000000E+00  0.00000000000E+00  0.99999998245E-14  0.12500000000E+03  0.12500000000E+03 0.  0.
    3000001    1    3    3    0    0 -0.57859413925E+01  0.46822548911E+02 -0.13713997695E+02  0.49141651754E+02  0.10000000000E+01 0.  1.
    1000022    2    1    0    0    0 -0.74844402873E+01  0.57143658307E+02 -0.22018982894E+02  0.62500000467E+02  0.99999959751E+01 0.  0.
    3000022    2    3    3    0    0 -0.16984988948E+01  0.10321109396E+02 -0.83049851983E+01  0.13358348712E+02  0.25000703367E+00 0.  0.
    1000022    2    1    0    0    0  0.74844402873E+01 -0.57143658307E+02  0.22018982894E+02  0.62499999533E+02  0.99999901422E+01 0.  0.
    3000022    2    5    5    0    0  0.34270681728E+01 -0.15891970699E+02  0.17650691561E+01  0.16354739531E+02  0.25001407571E+00 0.  0.
        -13    1    4    4    0    0 -0.74808166959E+00  0.45021520106E+01 -0.37076251529E+01  0.58810295174E+01  0.10500000000E+00 0.  1.
         13    1    4    4    0    0 -0.95041722517E+00  0.58189573854E+01 -0.45973600454E+01  0.74773191949E+01  0.10500000000E+00 0. -1.
    3000001    1    5    5    0    0  0.40573721145E+01 -0.41251687608E+02  0.20253913737E+02  0.46145260002E+02  0.10000000000E+01 0.  1.
        -13    1    6    6    0    0  0.23615173284E+01 -0.10704112090E+02  0.11901497243E+01  0.11026434650E+02  0.10500000000E+00 0.  1.
         13    1    6    6    0    0  0.10655508444E+01 -0.51878586088E+01  0.57491943178E+00  0.53283048805E+01  0.10500000000E+00 0. -1.
</event>
<event>
11    0  0.3467594E-009  0.9118800E+02  0.7816531E-02  0.1126479E+00
         25   -1    0    0    0    0  0.00000000000E+00  0.00000000000E+00  0.99999998245E-14  0.12500000000E+03  0.12500000000E+03 0.  0.
    3000001    1    3    3    0    0 -0.21397341750E+01 -0.67984134769E+00 -0.37618139751E+00  0.24863947880E+01  0.10000000000E+01 0.  1.
    1000022    2    1    0    0    0 -0.42727868691E+02  0.46275989632E+01 -0.44262449386E+02  0.62499998271E+02  0.99999961617E+01 0.  0.
    3000022    2    3    3    0    0 -0.40588134516E+02  0.53074403109E+01 -0.43886267989E+02  0.60013603483E+02  0.24999793115E+00 0.  0.
    1000022    2    1    0    0    0  0.42727868691E+02 -0.46275989632E+01  0.44262449386E+02  0.62500001729E+02  0.10000017772E+02 0.  0.
    3000022    2    5    5    0    0  0.31060092972E+02 -0.52473917944E+01  0.26241025058E+02  0.40999004818E+02  0.25000771360E+00 0.  0.
        -13    1    4    4    0    0 -0.27465205822E+02  0.35560376971E+01 -0.29636552951E+02  0.40562534816E+02  0.10500000000E+00 0. -1.
         13    1    4    4    0    0 -0.13122928694E+02  0.17514026138E+01 -0.14249715038E+02  0.19451068667E+02  0.10500000000E+00 0.  1.
    3000001    1    5    5    0    0  0.11667775718E+02  0.61979283125E+00  0.18021424328E+02  0.21500996911E+02  0.10000000000E+01 0.  1.
        -13    1    6    6    0    0  0.12507391946E+02 -0.20827431809E+01  0.10490152098E+02  0.16456821943E+02  0.10500000000E+00 0. -1.
         13    1    6    6    0    0  0.18552701026E+02 -0.31646486136E+01  0.15750872961E+02  0.24542182874E+02  0.10500000000E+00 0.  1.
</event>
<event>
11    0  0.3467594E-009  0.9118800E+02  0.7816531E-02  0.1126479E+00
         25   -1    0    0    0    0  0.00000000000E+00  0.00000000000E+00  0.99999998245E-14  0.12500000000E+03  0.12500000000E+03 0.  0.
    3000001    1    3    3    0    0 -0.33830261460E+02 -0.58544495313E+01  0.47925979409E+01  0.34680400297E+02  0.10000000000E+01 0.  1.
    1000022    2    1    0    0    0 -0.57775831719E+02 -0.14942676844E+02  0.15649917102E+02  0.62499999349E+02  0.99999845612E+01 0.  0.
    3000022    2    3    3    0    0 -0.23945570259E+02 -0.90882273128E+01  0.10857319161E+02  0.27819599051E+02  0.25000260332E+00 0.  0.
    1000022    2    1    0    0    0  0.57775831719E+02  0.14942676844E+02 -0.15649917102E+02  0.62500000651E+02  0.99999927028E+01 0.  0.
    3000022    2    5    5    0    0  0.25902921558E+02  0.11338472737E+02 -0.94558857246E+01  0.29816079312E+02  0.25000299254E+00 0.  0.
        -13    1    4    4    0    0 -0.16205594714E+02 -0.61967994821E+01  0.73245206307E+01  0.18832983070E+02  0.10500000000E+00 0. -1.
         13    1    4    4    0    0 -0.77399755450E+01 -0.28914278307E+01  0.35327985304E+01  0.89866159812E+01  0.10500000000E+00 0.  1.
    3000001    1    5    5    0    0  0.31872910161E+02  0.36042041070E+01 -0.61940313772E+01  0.32683921339E+02  0.10000000000E+01 0. -1.
        -13    1    6    6    0    0  0.15278730241E+02  0.67144323379E+01 -0.56434082833E+01  0.17617669581E+02  0.10500000000E+00 0.  1.
         13    1    6    6    0    0  0.10624191316E+02  0.46240403992E+01 -0.38124774413E+01  0.12198409732E+02  0.10500000000E+00 0. -1.
</event>
<event>
11    0  0.3467594E-009  0.9118800E+02  0.7816531E-02  0.1126479E+00
         25   -1    0    0    0    0  0.00000000000E+00  0.00000000000E+00  0.99999998245E-14  0.12500000000E+03  0.12500000000E+03 0.  0.
    3000001    1    3    3    0    0 -0.10187413995E+01 -0.58564872932E+00 -0.20712269995E+01  0.25827891429E+01  0.10000000000E+01 0.  1.
    1000022    2    1    0    0    0 -0.20914072196E+02  0.27566402334E+02 -0.51077832919E+02  0.62499999437E+02  0.99999980196E+01 0.  0.
    3000022    2    3    3    0    0 -0.19895330797E+02  0.28152051064E+02 -0.49006605920E+02  0.59917210294E+02  0.24999806907E+00 0.  0.
    1000022    2    1    0    0    0  0.20914072196E+02 -0.27566402334E+02  0.51077832919E+02  0.62500000563E+02  0.10000005059E+02 0.  0.
    3000022    2    5    5    0    0  0.90649942646E+00 -0.78632984287E+01  0.11097359958E+02  0.13633309557E+02  0.25005611079E+00 0.  0.
        -13    1    4    4    0    0 -0.58865132138E+01  0.83103071203E+01 -0.14553071105E+02  0.17762746010E+02  0.10500000000E+00 0. -1.
         13    1    4    4    0    0 -0.14008817583E+02  0.19841743943E+02 -0.34453534815E+02  0.42154464284E+02  0.10500000000E+00 0.  1.
    3000001    1    5    5    0    0  0.20007572770E+02 -0.19703103906E+02  0.39980472962E+02  0.48866691006E+02  0.10000000000E+01 0. -1.
        -13    1    6    6    0    0  0.46642434342E+00 -0.35298036911E+01  0.49384570181E+01  0.60890433144E+01  0.10500000000E+00 0. -1.
         13    1    6    6    0    0  0.44007508304E+00 -0.43334947377E+01  0.61589029395E+01  0.75442662426E+01  0.10500000000E+00 0.  1.
</event>
<event>
11    0  0.3467594E-009  0.9118800E+02  0.7816531E-02  0.1126479E+00
         25   -1    0    0    0    0  0.00000000000E+00  0.00000000000E+00  0.99999998245E-14  0.12500000000E+03  0.12500000000E+03 0.  0.
    3000001    1    3    3    0    0 -0.49209482767E+02 -0.74272566350E+01 -0.35176109127E+02  0.60951587253E+02  0.10000000000E+01 0. -1.
    1000022    2    1    0    0    0 -0.49414741034E+02 -0.87664331126E+01 -0.35882908854E+02  0.62500001463E+02  0.10000002704E+02 0.  0.
    3000022    2    3    3    0    0 -0.20525826687E+00 -0.13391764776E+01 -0.70679972660E+00  0.15484142099E+01  0.24999223479E+00 0.  0.
    1000022    2    1    0    0    0  0.49414741034E+02  0.87664331126E+01  0.35882908854E+02  0.62499998537E+02  0.99999844198E+01 0.  0.
    3000022    2    5    5    0    0  0.20073111228E+02  0.29977967872E+01  0.87268896746E+01  0.22093838334E+02  0.25001796463E+00 0.  0.
        -13    1    4    4    0    0 -0.16570438670E+00 -0.73272861985E+00 -0.43526065727E+00  0.87454331733E+00  0.10500000000E+00 0. -1.
         13    1    4    4    0    0 -0.39553880173E-01 -0.60644785780E+00 -0.27153906933E+00  0.67387089256E+00  0.10500000000E+00 0.  1.
    3000001    1    5    5    0    0  0.29341629805E+02  0.57686363254E+01  0.27156019179E+02  0.40406160203E+02  0.10000000000E+01 0. -1.
        -13    1    6    6    0    0  0.12907239833E+02  0.19135506428E+01  0.56713274495E+01  0.14227912574E+02  0.10500000000E+00 0.  1.
         13    1    6    6    0    0  0.71658713958E+01  0.10842461444E+01  0.30555622251E+01  0.78659257608E+01  0.10500000000E+00 0. -1.
</event>
<event>
11    0  0.3467594E-009  0.9118800E+02  0.7816531E-02  0.1126479E+00
         25   -1    0    0    0    0  0.00000000000E+00  0.00000000000E+00  0.99999998245E-14  0.12500000000E+03  0.12500000000E+03 0.  0.
    3000001    1    3    3    0    0 -0.15836416204E+01  0.23090114894E+01 -0.11137626241E+02  0.11527626518E+02  0.10000000000E+01 0.  1.
    1000022    2    1    0    0    0  0.27578562705E+01 -0.44515638665E+01 -0.61472171519E+02  0.62500000734E+02  0.10000001421E+02 0.  0.
    3000022    2    3    3    0    0  0.43414978909E+01 -0.67605753559E+01 -0.50334545278E+02  0.50972374216E+02  0.25000369528E+00 0.  0.
    1000022    2    1    0    0    0 -0.27578562705E+01  0.44515638665E+01  0.61472171519E+02  0.62499999266E+02  0.99999922465E+01 0.  0.
    3000022    2    5    5    0    0 -0.12952372288E+01  0.10466059242E+01  0.54620417087E+02  0.54646367505E+02  0.24999047623E+00 0.  0.
        -13    1    4    4    0    0  0.20094499783E+01 -0.32117828943E+01 -0.24054851906E+02  0.24351598794E+02  0.10500000000E+00 0.  1.
         13    1    4    4    0    0  0.23320479126E+01 -0.35487924616E+01 -0.26279693372E+02  0.26620775423E+02  0.10500000000E+00 0. -1.
    3000001    1    5    5    0    0 -0.14626190417E+01  0.34049579422E+01  0.68517544317E+01  0.78536317613E+01  0.10000000000E+01 0.  1.
        -13    1    6    6    0    0 -0.99727698495E+00  0.80971405018E+00  0.42111685532E+02  0.42131404932E+02  0.10500000000E+00 0.  1.
         13    1    6    6    0    0 -0.29796024387E+00  0.23689187404E+00  0.12508731555E+02  0.12514962572E+02  0.10500000000E+00 0. -1.
</event>
<event>
11    0  0.3467594E-009  0.9118800E+02  0.7816531E-02  0.1126479E+00
         25   -1    0    0    0    0  0.00000000000E+00  0.00000000000E+00  0.99999998245E-14  0.12500000000E+03  0.12500000000E+03 0.  0.
    3000001    1    3    3    0    0 -0.10310265715E+02  0.27890644816E+01 -0.14374899610E+01  0.10823439249E+02  0.10000000000E+01 0.  1.
    1000022    2    1    0    0    0 -0.57064643720E+02  0.19894733430E+02  0.12412734399E+02  0.62500000542E+02  0.10000005568E+02 0.  0.
    3000022    2    3    3    0    0 -0.46754378005E+02  0.17105668949E+02  0.13850224360E+02  0.51676561292E+02  0.24999882347E+00 0.  0.
    1000022    2    1    0    0    0  0.57064643720E+02 -0.19894733430E+02 -0.12412734399E+02  0.62499999458E+02  0.99999987936E+01 0.  0.
    3000022    2    5    5    0    0  0.44792417309E+02 -0.11974466992E+02 -0.11813934164E+02  0.47847466461E+02  0.24999624696E+00 0.  0.
        -13    1    4    4    0    0 -0.31775259525E+02  0.11621578754E+02  0.94651126465E+01  0.35132998635E+02  0.10500000000E+00 0. -1.
         13    1    4    4    0    0 -0.14979118479E+02  0.54840901942E+01  0.43851117132E+01  0.16543562658E+02  0.10500000000E+00 0.  1.
    3000001    1    5    5    0    0  0.12272226411E+02 -0.79202664378E+01 -0.59880023515E+00  0.14652532998E+02  0.10000000000E+01 0. -1.
        -13    1    6    6    0    0  0.18278839050E+02 -0.48416850970E+01 -0.48664115291E+01  0.19525646154E+02  0.10500000000E+00 0. -1.
         13    1    6    6    0    0  0.26513578260E+02 -0.71327818954E+01 -0.69475226346E+01  0.28321820306E+02  0.10500000000E+00 0.  1.
</event>
<event>
11    0  0.3467594E-009  0.9118800E+02  0.7816531E-02  0.1126479E+00
         25   -1    0    0    0    0  0.00000000000E+00  0.00000000000E+00  0.99999998245E-14  0.12500000000E+03  0.12500000000E+03 0.  0.
    3000001    1    3    3    0    0  0.37479137101E+02 -0.20254293063E+02  0.13225341032E+02  0.44618737664E+02  0.10000000000E+01 0. -1.
    1000022    2    1    0    0    0  0.50796386885E+02 -0.32169380059E+02  0.13824180794E+02  0.62500000285E+02  0.10000006351E+02 0.  0.
    3000022    2    3    3    0    0  0.13317249784E+02 -0.11915086996E+02  0.59883976268E+00  0.17881262621E+02  0.25000784907E+00 0.  0.
    1000022    2    1    0    0    0 -0.50796386885E+02  0.32169380059E+02 -0.13824180794E+02  0.62499999715E+02  0.10000002789E+02 0.  0.
    3000022    2    5    5    0    0 -0.28936819344E+02  0.12479610814E+02 -0.73225108583E+01  0.32353699478E+02  0.25000967796E+00 0.  0.
        -13    1    4    4    0    0  0.49537426386E+01 -0.44721277228E+01  0.17154224635E+00  0.66768214175E+01  0.10500000000E+00 0.  1.
         13    1    4    4    0    0  0.83635071454E+01 -0.74429592732E+01  0.42729751633E+00  0.11204441203E+02  0.10500000000E+00 0. -1.
    3000001    1    5    5    0    0 -0.21859567541E+02  0.19689769245E+02 -0.65016699361E+01  0.30146300237E+02  0.10000000000E+01 0. -1.
        -13    1    6    6    0    0 -0.11610412511E+02  0.50460310337E+01 -0.28880243733E+01  0.12985215349E+02  0.10500000000E+00 0. -1.
         13    1    6    6    0    0 -0.17326406833E+02  0.74335797799E+01 -0.44344864851E+01  0.19368484130E+02  0.10500000000E+00 0.  1.
</event>
<event>
11    0  0.3467594E-009  0.9118800E+02  0.7816531E-02  0.1126479E+00
         25   -1    0    0    0    0  0.00000000000E+00  0.00000000000E+00  0.99999998245E-14  0.12500000000E+03  0.12500000000E+03 0.  0.
    3000001    1    3    3    0    0  0.13146735754E+02  0.69551875660E+01  0.13796443007E+02  0.20311404056E+02  0.10000000000E+01 0. -1.
    1000022    2    1    0    0    0  0.40799302682E+02  0.75896181692E+01  0.45651555091E+02  0.62500000012E+02  0.10000005798E+02 0.  0.
    3000022    2    3    3    0    0  0.27652566928E+02  0.63443060318E+00  0.31855112083E+02  0.42188595956E+02  0.25000597001E+00 0.  0.
    1000022    2    1    0    0    0 -0.40799302682E+02 -0.75896181692E+01 -0.45651555091E+02  0.62499999988E+02  0.10000005653E+02 0.  0.
    3000022    2    5    5    0    0 -0.38103311283E+02 -0.43981035276E+01 -0.41777591560E+02  0.56715388613E+02  0.25000713332E+00 0.  0.
        -13    1    4    4    0    0  0.18193975658E+02  0.45690258564E+00  0.21018404245E+02  0.27803126663E+02  0.10500000000E+00 0.  1.
         13    1    4    4    0    0  0.94585912695E+01  0.17752801754E+00  0.10836707838E+02  0.14385469293E+02  0.10500000000E+00 0. -1.
    3000001    1    5    5    0    0 -0.26959913991E+01 -0.31915146416E+01 -0.38739635307E+01  0.57846113758E+01  0.10000000000E+01 0.  1.
        -13    1    6    6    0    0 -0.16026331727E+02 -0.18405900390E+01 -0.17475795139E+02  0.23783303409E+02  0.10500000000E+00 0. -1.
         13    1    6    6    0    0 -0.22076979556E+02 -0.25575134886E+01 -0.24301796421E+02  0.32932085203E+02  0.10500000000E+00 0.  1.
</event>
<event>
11    0  0.3467594E-009  0.9118800E+02  0.7816531E-02  0.1126479E+00
         25   -1    0    0    0    0  0.00000000000E+00  0.00000000000E+00  0.99999998245E-14  0.12500000000E+03  0.12500000000E+03 0.  0.
    3000001    1    3    3    0    0  0.81364865857E+01 -0.38320316380E+02 -0.34020337726E+01  0.39334754292E+02  0.10000000000E+01 0. -1.
    1000022    2    1    0    0    0  0.19574417662E+02 -0.57996545385E+02 -0.77131645058E+01  0.62499999997E+02  0.99999994766E+01 0.  0.
    3000022    2    3    3    0    0  0.11437931077E+02 -0.19676229005E+02 -0.43111307331E+01  0.23165245705E+02  0.25001041293E+00 0.  0.
    1000022    2    1    0    0    0 -0.19574417662E+02  0.57996545385E+02  0.77131645058E+01  0.62500000003E+02  0.99999995100E+01 0.  0.
    3000022    2    5    5    0    0 -0.17901488169E+02  0.56218997492E+02  0.58915559348E+01  0.59294282082E+02  0.24999712670E+00 0.  0.
        -13    1    4    4    0    0  0.64553266070E+01 -0.10973251395E+02 -0.24088324648E+01  0.12957506960E+02  0.10500000000E+00 0.  1.
         13    1    4    4    0    0  0.49826044698E+01 -0.87029776103E+01 -0.19022982684E+01  0.10207738745E+02  0.10500000000E+00 0. -1.
    3000001    1    5    5    0    0 -0.16729294935E+01  0.17775478927E+01  0.18216085710E+01  0.32057179207E+01  0.10000000000E+01 0. -1.
        -13    1    6    6    0    0 -0.51741659045E+01  0.16232945734E+02  0.16588582205E+01  0.17118509153E+02  0.10500000000E+00 0.  1.
         13    1    6    6    0    0 -0.12727322265E+02  0.39986051758E+02  0.42326977143E+01  0.42175772929E+02  0.10500000000E+00 0. -1.
</event>
<event>
11    0  0.3467594E-009  0.9118800E+02  0.7816531E-02  0.1126479E+00
         25   -1    0    0    0    0  0.00000000000E+00  0.00000000000E+00  0.99999998245E-14  0.12500000000E+03  0.12500000000E+03 0.  0.
    3000001    1    3    3    0    0 -0.28879834572E+02 -0.53695567578E+02 -0.67535537087E+00  0.60981267020E+02  0.10000000000E+01 0. -1.
    1000022    2    1    0    0    0 -0.30110746710E+02 -0.53847616875E+02  0.16476574658E+00  0.62500000426E+02  0.99999997487E+01 0.  0.
    3000022    2    3    3    0    0 -0.12309121379E+01 -0.15204929664E+00  0.84012111745E+00  0.15187334063E+01  0.24996797335E+00 0.  0.
    1000022    2    1    0    0    0  0.30110746710E+02  0.53847616875E+02 -0.16476574658E+00  0.62499999574E+02  0.99999944235E+01 0.  0.
    3000022    2    5    5    0    0  0.26845085131E+01  0.19293514274E+01  0.17384622387E+01  0.37434926538E+01  0.25000681270E+00 0.  0.
        -13    1    4    4    0    0 -0.47166434096E+00 -0.30027192641E-01  0.38871420421E+00  0.62088051619E+00  0.10500000000E+00 0.  1.
         13    1    4    4    0    0 -0.75924779690E+00 -0.12202210400E+00  0.45140691323E+00  0.89785289011E+00  0.10500000000E+00 0. -1.
    3000001    1    5    5    0    0  0.27426238197E+02  0.51918265447E+02 -0.19032279852E+01  0.58756506920E+02  0.10000000000E+01 0. -1.
        -13    1    6    6    0    0  0.10821672222E+01  0.76003185542E+00  0.76570139904E+00  0.15316846773E+01  0.10500000000E+00 0. -1.
         13    1    6    6    0    0  0.16023412909E+01  0.11693195720E+01  0.97276083963E+00  0.22118079766E+01  0.10500000000E+00 0.  1.
</event>
<event>
11    0  0.3467594E-009  0.9118800E+02  0.7816531E-02  0.1126479E+00
         25   -1    0    0    0    0  0.00000000000E+00  0.00000000000E+00  0.99999998245E-14  0.12500000000E+03  0.12500000000E+03 0.  0.
    3000001    1    3    3    0    0 -0.10229005732E+02 -0.76190005820E+01 -0.32618198496E+02  0.35037531323E+02  0.10000000000E+01 0. -1.
    1000022    2    1    0    0    0 -0.12579104612E+02 -0.20162517214E+02 -0.56934075525E+02  0.62499999409E+02  0.99999998526E+01 0.  0.
    3000022    2    3    3    0    0 -0.23500988807E+01 -0.12543516632E+02 -0.24315877029E+02  0.27462468086E+02  0.25000687281E+00 0.  0.
    1000022    2    1    0    0    0  0.12579104612E+02  0.20162517214E+02  0.56934075525E+02  0.62500000591E+02  0.10000007237E+02 0.  0.
    3000022    2    5    5    0    0  0.87215727617E+01  0.64193638824E+01  0.17859251365E+02  0.20887542137E+02  0.24998621164E+00 0.  0.
        -13    1    4    4    0    0 -0.13438728510E+01 -0.68226864741E+01 -0.13286841287E+02  0.14996873719E+02  0.10500000000E+00 0.  1.
         13    1    4    4    0    0 -0.10062260298E+01 -0.57208301580E+01 -0.11029035742E+02  0.12465594367E+02  0.10500000000E+00 0. -1.
    3000001    1    5    5    0    0  0.38575318507E+01  0.13743153332E+02  0.39074824159E+02  0.41612458454E+02  0.10000000000E+01 0. -1.
        -13    1    6    6    0    0  0.42070322463E+01  0.30126603501E+01  0.85380315587E+01  0.99842000483E+01  0.10500000000E+00 0. -1.
         13    1    6    6    0    0  0.45145405153E+01  0.34067035323E+01  0.93212198066E+01  0.10903342089E+02  0.10500000000E+00 0.  1.
</event>
<event>
11    0  0.3467594E-009  0.9118800E+02  0.7816531E-02  0.1126479E+00
         25   -1    0    0    0    0  0.00000000000E+00  0.00000000000E+00  0.99999998245E-14  0.12500000000E+03  0.12500000000E+03 0.  0.
    3000001    1    3    3    0    0  0.28483504600E+02  0.38146226816E+01  0.21987870718E+02  0.36198450785E+02  0.10000000000E+01 0.  1.
    1000022    2    1    0    0    0  0.52983160879E+02  0.80415737729E+01  0.30567437627E+02  0.62500004654E+02  0.10000004656E+02 0.  0.
    3000022    2    3    3    0    0  0.24499656280E+02  0.42269510913E+01  0.85795669090E+01  0.26301553869E+02  0.24998847318E+00 0.  0.
    1000022    2    1    0    0    0 -0.52983160879E+02 -0.80415737729E+01 -0.30567437627E+02  0.62499995346E+02  0.99999464823E+01 0.  0.
    3000022    2    5    5    0    0 -0.41358115292E+02 -0.96173912031E+01 -0.26451887678E+02  0.50027520176E+02  0.24999833696E+00 0.  0.
        -13    1    4    4    0    0  0.10728391473E+02  0.18603314851E+01  0.38267439702E+01  0.11541846094E+02  0.10500000000E+00 0.  1.
         13    1    4    4    0    0  0.13771264807E+02  0.23666196062E+01  0.47528229388E+01  0.14759707776E+02  0.10500000000E+00 0. -1.
    3000001    1    5    5    0    0 -0.11625045588E+02  0.15758174302E+01 -0.41155499491E+01  0.12472475170E+02  0.10000000000E+01 0. -1.
        -13    1    6    6    0    0 -0.27318259689E+02 -0.63090533408E+01 -0.17425202136E+02  0.33011212656E+02  0.10500000000E+00 0. -1.
         13    1    6    6    0    0 -0.14039855602E+02 -0.33083378623E+01 -0.90266855419E+01  0.17016307520E+02  0.10500000000E+00 0.  1.
</event>
<event>
11    0  0.3467594E-009  0.9118800E+02  0.7816531E-02  0.1126479E+00
         25   -1    0    0    0    0  0.00000000000E+00  0.00000000000E+00  0.99999998245E-14  0.12500000000E+03  0.12500000000E+03 0.  0.
    3000001    1    3    3    0    0 -0.58404635261E+01  0.15371903089E+02 -0.21480555890E+00  0.16475817437E+02  0.10000000000E+01 0.  1.
    1000022    2    1    0    0    0 -0.27046589735E+02  0.53626100306E+02  0.14105791534E+02  0.62500000166E+02  0.10000000784E+02 0.  0.
    3000022    2    3    3    0    0 -0.21206126209E+02  0.38254197217E+02  0.14320597093E+02  0.46024182730E+02  0.25000266296E+00 0.  0.
    1000022    2    1    0    0    0  0.27046589735E+02 -0.53626100306E+02 -0.14105791534E+02  0.62499999834E+02  0.99999987054E+01 0.  0.
    3000022    2    5    5    0    0  0.25757083841E+02 -0.51633597165E+02 -0.11501048027E+02  0.58836997929E+02  0.24999070772E+00 0.  0.
        -13    1    4    4    0    0 -0.64112154037E+01  0.11518890991E+02  0.43587773445E+01  0.13885189864E+02  0.10500000000E+00 0. -1.
         13    1    4    4    0    0 -0.14794910805E+02  0.26735306225E+02  0.99618197488E+01  0.32138992866E+02  0.10500000000E+00 0.  1.
    3000001    1    5    5    0    0  0.12895058940E+01 -0.19925031408E+01 -0.26047435075E+01  0.36630019051E+01  0.10000000000E+01 0.  1.
        -13    1    6    6    0    0  0.16038331293E+02 -0.32017091072E+02 -0.71265667416E+01  0.36511931884E+02  0.10500000000E+00 0.  1.
         13    1    6    6    0    0  0.97187525478E+01 -0.19616506093E+02 -0.43744812853E+01  0.22325066044E+02  0.10500000000E+00 0. -1.
</event>
<event>
11    0  0.3467594E-009  0.9118800E+02  0.7816531E-02  0.1126479E+00
         25   -1    0    0    0    0  0.00000000000E+00  0.00000000000E+00  0.99999998245E-14  0.12500000000E+03  0.12500000000E+03 0.  0.
    3000001    1    3    3    0    0  0.95789464323E+01 -0.19815231188E+02 -0.24790641875E+02  0.33165878948E+02  0.10000000000E+01 0. -1.
    1000022    2    1    0    0    0  0.26105802344E+02 -0.36794896316E+02 -0.42081740155E+02  0.62499998513E+02  0.99999824365E+01 0.  0.
    3000022    2    3    3    0    0  0.16526855912E+02 -0.16979665128E+02 -0.17291098279E+02  0.29334119565E+02  0.24999353322E+00 0.  0.
    1000022    2    1    0    0    0 -0.26105802344E+02  0.36794896316E+02  0.42081740155E+02  0.62500001487E+02  0.10000001022E+02 0.  0.
    3000022    2    5    5    0    0 -0.20544418753E+02  0.21964103240E+02  0.30643158791E+02  0.42936705385E+02  0.25003132961E+00 0.  0.
        -13    1    4    4    0    0  0.49074314963E+01 -0.50959815351E+01 -0.51317152614E+01  0.87405628091E+01  0.10500000000E+00 0.  1.
         13    1    4    4    0    0  0.11619424416E+02 -0.11883683593E+02 -0.12159383018E+02  0.20593556756E+02  0.10500000000E+00 0. -1.
    3000001    1    5    5    0    0 -0.55613835913E+01  0.14830793077E+02  0.11438581364E+02  0.19563296102E+02  0.10000000000E+01 0. -1.
        -13    1    6    6    0    0 -0.92159301952E+01  0.99357552307E+01  0.13757683608E+02  0.19311589386E+02  0.10500000000E+00 0.  1.
         13    1    6    6    0    0 -0.11328488558E+02  0.12028348009E+02  0.16885475183E+02  0.23625115999E+02  0.10500000000E+00 0. -1.
</event>
<event>
11    0  0.3467594E-009  0.9118800E+02  0.7816531E-02  0.1126479E+00
         25   -1    0    0    0    0  0.00000000000E+00  0.00000000000E+00  0.99999998245E-14  0.12500000000E+03  0.12500000000E+03 0.  0.
    3000001    1    3    3    0    0  0.17804263135E+02  0.10989858797E+01  0.12399806251E+02  0.21747522866E+02  0.10000000000E+01 0.  1.
    1000022    2    1    0    0    0  0.41927830775E+02  0.68486722683E+01  0.44737038132E+02  0.62500000940E+02  0.10000011571E+02 0.  0.
    3000022    2    3    3    0    0  0.24123567639E+02  0.57496863886E+01  0.32337231880E+02  0.40752478074E+02  0.24998851415E+00 0.  0.
    1000022    2    1    0    0    0 -0.41927830775E+02 -0.68486722683E+01 -0.44737038132E+02  0.62499999060E+02  0.99999998211E+01 0.  0.
    3000022    2    5    5    0    0 -0.34646177714E+02 -0.35204059400E+01 -0.31286901053E+02  0.46815420154E+02  0.24999690962E+00 0.  0.
        -13    1    4    4    0    0  0.12679969700E+02  0.30904050095E+01  0.17038045735E+02  0.21462484996E+02  0.10500000000E+00 0.  1.
         13    1    4    4    0    0  0.11443597939E+02  0.26592813791E+01  0.15299186145E+02  0.19289993078E+02  0.10500000000E+00 0. -1.
    3000001    1    5    5    0    0 -0.72816530600E+01 -0.33282663283E+01 -0.13450137078E+02  0.15684578906E+02  0.10000000000E+01 0.  1.
        -13    1    6    6    0    0 -0.15615277724E+02 -0.16027430274E+01 -0.14189807896E+02  0.21160514095E+02  0.10500000000E+00 0. -1.
         13    1    6    6    0    0 -0.19030899990E+02 -0.19176629126E+01 -0.17097093157E+02  0.25654906059E+02  0.10500000000E+00 0.  1.
</event>
<event>
11    0  0.3467594E-009  0.9118800E+02  0.7816531E-02  0.1126479E+00
         25   -1    0    0    0    0  0.00000000000E+00  0.00000000000E+00  0.99999998245E-14  0.12500000000E+03  0.12500000000E+03 0.  0.
    3000001    1    3    3    0    0  0.14034234599E+02  0.41195904507E+02  0.22421786974E+01  0.43590017828E+02  0.10000000000E+01 0.  1.
    1000022    2    1    0    0    0  0.13685724703E+02  0.60040469894E+02  0.37540750536E+01  0.62500000388E+02  0.99999941644E+01 0.  0.
    3000022    2    3    3    0    0 -0.34850989581E+00  0.18844565386E+02  0.15118963562E+01  0.18909982560E+02  0.25001213888E+00 0.  0.
    1000022    2    1    0    0    0 -0.13685724703E+02 -0.60040469894E+02 -0.37540750536E+01  0.62499999612E+02  0.99999893157E+01 0.  0.
    3000022    2    5    5    0    0 -0.12539848375E+02 -0.58184069625E+02 -0.51170652370E+01  0.59740108898E+02  0.24999808962E+00 0.  0.
        -13    1    4    4    0    0 -0.23725551997E+00  0.13399948084E+02  0.11164387796E+01  0.13448879484E+02  0.10500000000E+00 0.  1.
         13    1    4    4    0    0 -0.11125437584E+00  0.54446173026E+01  0.39545757663E+00  0.54611030757E+01  0.10500000000E+00 0. -1.
    3000001    1    5    5    0    0 -0.11458763281E+01 -0.18564002682E+01  0.13629901833E+01  0.27598907143E+01  0.10000000000E+01 0. -1.
        -13    1    6    6    0    0 -0.56803847721E+01 -0.26076586668E+02 -0.23254132881E+01  0.26789432905E+02  0.10500000000E+00 0. -1.
         13    1    6    6    0    0 -0.68594636031E+01 -0.32107482957E+02 -0.27916519489E+01  0.32950675992E+02  0.10500000000E+00 0.  1.
</event>
<event>
11    0  0.3467594E-009  0.9118800E+02  0.7816531E-02  0.1126479E+00
         25   -1    0    0    0    0  0.00000000000E+00  0.00000000000E+00  0.99999998245E-14  0.12500000000E+03  0.12500000000E+03 0.  0.
    3000001    1    3    3    0    0  0.19250829415E+01 -0.20598021677E+02  0.22825372555E+01  0.20837332307E+02  0.10000000000E+01 0.  1.
    1000022    2    1    0    0    0  0.14076114805E+02 -0.59922592333E+02 -0.41708248764E+01  0.62499999263E+02  0.10000002393E+02 0.  0.
    3000022    2    3    3    0    0  0.12151031863E+02 -0.39324570655E+02 -0.64533621319E+01  0.41662666956E+02  0.25000501075E+00 0.  0.
    1000022    2    1    0    0    0 -0.14076114805E+02  0.59922592333E+02  0.41708248764E+01  0.62500000737E+02  0.10000011607E+02 0.  0.
    3000022    2    5    5    0    0  0.13608305988E+01  0.29321010692E+01 -0.41963532907E+00  0.32692004495E+01  0.25000234069E+00 0.  0.
        -13    1    4    4    0    0  0.64724373479E+01 -0.20777850468E+02 -0.33662216834E+01  0.22021670889E+02  0.10500000000E+00 0. -1.
         13    1    4    4    0    0  0.56785945153E+01 -0.18546720187E+02 -0.30871404485E+01  0.19640996067E+02  0.10500000000E+00 0.  1.
    3000001    1    5    5    0    0 -0.15436945404E+02  0.56990491263E+02  0.45904602055E+01  0.59230800288E+02  0.10000000000E+01 0. -1.
        -13    1    6    6    0    0  0.75409348188E+00  0.17282485033E+01 -0.29259491186E+00  0.19110564228E+01  0.10500000000E+00 0. -1.
         13    1    6    6    0    0  0.60673711695E+00  0.12038525660E+01 -0.12704041721E+00  0.13581440267E+01  0.10500000000E+00 0.  1.
</event>
<event>
11    0  0.3467594E-009  0.9118800E+02  0.7816531E-02  0.1126479E+00
         25   -1    0    0    0    0  0.00000000000E+00  0.00000000000E+00  0.99999998245E-14  0.12500000000E+03  0.12500000000E+03 0.  0.
    3000001    1    3    3    0    0  0.69625928753E+01  0.34931394867E+02 -0.32635211674E+02  0.48319117209E+02  0.10000000000E+01 0.  1.
    1000022    2    1    0    0    0  0.72446769820E+01  0.48045301046E+02 -0.38018596682E+02  0.62500000948E+02  0.10000006383E+02 0.  0.
    3000022    2    3    3    0    0  0.28208410668E+00  0.13113906179E+02 -0.53833850076E+01  0.14180883738E+02  0.25004547342E+00 0.  0.
    1000022    2    1    0    0    0 -0.72446769820E+01 -0.48045301046E+02  0.38018596682E+02  0.62499999052E+02  0.99999945357E+01 0.  0.
    3000022    2    5    5    0    0  0.24862676412E+01 -0.78900467136E+01  0.62005303763E+01  0.10341346106E+02  0.24999681894E+00 0.  0.
        -13    1    4    4    0    0  0.12270014932E+00  0.83194789974E+01 -0.34336564823E+01  0.90016558451E+01  0.10500000000E+00 0.  1.
         13    1    4    4    0    0  0.15938395735E+00  0.47944271819E+01 -0.19497285253E+01  0.51792278933E+01  0.10500000000E+00 0. -1.
    3000001    1    5    5    0    0 -0.97309446232E+01 -0.40155254332E+02  0.31818066306E+02  0.52158652946E+02  0.10000000000E+01 0.  1.
        -13    1    6    6    0    0  0.14804890005E+01 -0.47798643323E+01  0.38218550599E+01  0.62973448226E+01  0.10500000000E+00 0. -1.
         13    1    6    6    0    0  0.10057786407E+01 -0.31101823814E+01  0.23786753164E+01  0.40440012834E+01  0.10500000000E+00 0.  1.
</event>
<event>
11    0  0.3467594E-009  0.9118800E+02  0.7816531E-02  0.1126479E+00
         25   -1    0    0    0    0  0.00000000000E+00  0.00000000000E+00  0.99999998245E-14  0.12500000000E+03  0.12500000000E+03 0.  0.
    3000001    1    3    3    0    0 -0.65084843284E+01  0.48566200080E+02 -0.35555906365E+02  0.60549637785E+02  0.10000000000E+01 0. -1.
    1000022    2    1    0    0    0 -0.62153168994E+01  0.50404142309E+02 -0.35029169416E+02  0.62500002276E+02  0.99999924242E+01 0.  0.
    3000022    2    3    3    0    0  0.29316742896E+00  0.18379422283E+01  0.52673694906E+00  0.19503644906E+01  0.24998211244E+00 0.  0.
    1000022    2    1    0    0    0  0.62153168994E+01 -0.50404142309E+02  0.35029169416E+02  0.62499997724E+02  0.99999639778E+01 0.  0.
    3000022    2    5    5    0    0  0.14415413771E+00 -0.34712463518E+02  0.21007841908E+02  0.40575458376E+02  0.24999382611E+00 0.  0.
        -13    1    4    4    0    0  0.10914768742E+00  0.49837912951E+00  0.12091048482E+00  0.53473294244E+00  0.10500000000E+00 0. -1.
         13    1    4    4    0    0  0.18401974154E+00  0.13395630988E+01  0.40582646424E+00  0.14156315481E+01  0.10500000000E+00 0.  1.
    3000001    1    5    5    0    0  0.60711627617E+01 -0.15691678791E+02  0.14021327508E+02  0.21924539348E+02  0.10000000000E+01 0.  1.
        -13    1    6    6    0    0  0.14906757003E+00 -0.21707990816E+02  0.13151703422E+02  0.25381832367E+02  0.10500000000E+00 0. -1.
         13    1    6    6    0    0 -0.49134323156E-02 -0.13004472702E+02  0.78561384868E+01  0.15193626009E+02  0.10500000000E+00 0.  1.
</event>
<event>
11    0  0.3467594E-009  0.9118800E+02  0.7816531E-02  0.1126479E+00
         25   -1    0    0    0    0  0.00000000000E+00  0.00000000000E+00  0.99999998245E-14  0.12500000000E+03  0.12500000000E+03 0.  0.
    3000001    1    3    3    0    0 -0.11248913209E+01 -0.32382131819E+00 -0.49064048919E+00  0.16158492565E+01  0.10000000000E+01 0.  1.
    1000022    2    1    0    0    0 -0.13553791069E+02 -0.29148732506E+02 -0.52658295351E+02  0.62499999632E+02  0.10000001282E+02 0.  0.
    3000022    2    3    3    0    0 -0.12428899748E+02 -0.28824911188E+02 -0.52167654862E+02  0.60884150375E+02  0.24999840702E+00 0.  0.
    1000022    2    1    0    0    0  0.13553791069E+02  0.29148732506E+02  0.52658295351E+02  0.62500000368E+02  0.10000005885E+02 0.  0.
    3000022    2    5    5    0    0  0.26137336748E+01  0.14523749292E+02  0.17705189248E+02  0.23050100292E+02  0.24999985887E+00 0.  0.
        -13    1    4    4    0    0 -0.71915546912E+01 -0.16525904053E+02 -0.29999484894E+02  0.34997201067E+02  0.10500000000E+00 0. -1.
         13    1    4    4    0    0 -0.52373450568E+01 -0.12299007135E+02 -0.22168169968E+02  0.25886949308E+02  0.10500000000E+00 0.  1.
    3000001    1    5    5    0    0  0.10940057394E+02  0.14624983214E+02  0.34953106103E+02  0.39449900076E+02  0.10000000000E+01 0.  1.
        -13    1    6    6    0    0  0.19897400226E+01  0.10999188481E+02  0.13379982158E+02  0.17434912106E+02  0.10500000000E+00 0.  1.
         13    1    6    6    0    0  0.62399365215E+00  0.35245608114E+01  0.43252070900E+01  0.56151881858E+01  0.10500000000E+00 0. -1.
</event>
<event>
11    0  0.3467594E-009  0.9118800E+02  0.7816531E-02  0.1126479E+00
         25   -1    0    0    0    0  0.00000000000E+00  0.00000000000E+00  0.99999998245E-14  0.12500000000E+03  0.12500000000E+03 0.  0.
    3000001    1    3    3    0    0 -0.13893016418E+02  0.81794296568E+01  0.21577941509E+02  0.26954156163E+02  0.10000000000E+01 0.  1.
    1000022    2    1    0    0    0 -0.40306645983E+02  0.12906123338E+02  0.44889377074E+02  0.62499999648E+02  0.10000002598E+02 0.  0.
    3000022    2    3    3    0    0 -0.26413629565E+02  0.47266936817E+01  0.23311435565E+02  0.35545843486E+02  0.25000207470E+00 0.  0.
    1000022    2    1    0    0    0  0.40306645983E+02 -0.12906123338E+02 -0.44889377074E+02  0.62500000352E+02  0.10000006993E+02 0.  0.
    3000022    2    5    5    0    0  0.30562311668E+02 -0.51864169624E+01 -0.32765820493E+02  0.45106710210E+02  0.24999603074E+00 0.  0.
        -13    1    4    4    0    0 -0.15203696330E+02  0.26738785652E+01  0.13349723530E+02  0.20409021339E+02  0.10500000000E+00 0. -1.
         13    1    4    4    0    0 -0.11209933235E+02  0.20528151164E+01  0.99617120346E+01  0.15136822147E+02  0.10500000000E+00 0.  1.
    3000001    1    5    5    0    0  0.97443343152E+01 -0.77197063760E+01 -0.12123556581E+02  0.17393290141E+02  0.10000000000E+01 0. -1.
        -13    1    6    6    0    0  0.10365323836E+02 -0.17299894672E+01 -0.11175520042E+02  0.15340667358E+02  0.10500000000E+00 0. -1.
         13    1    6    6    0    0  0.20196987832E+02 -0.34564274952E+01 -0.21590300451E+02  0.29766042852E+02  0.10500000000E+00 0.  1.
</event>
<event>
11    0  0.3467594E-009  0.9118800E+02  0.7816531E-02  0.1126479E+00
         25   -1    0    0    0    0  0.00000000000E+00  0.00000000000E+00  0.99999998245E-14  0.12500000000E+03  0.12500000000E+03 0.  0.
    3000001    1    3    3    0    0  0.34116339153E+01 -0.37135096275E+02 -0.28518125101E+02  0.46956768209E+02  0.10000000000E+01 0.  1.
    1000022    2    1    0    0    0  0.77450476330E+01 -0.51178524816E+02 -0.33571160634E+02  0.62499999504E+02  0.99999973278E+01 0.  0.
    3000022    2    3    3    0    0  0.43334137177E+01 -0.14043428540E+02 -0.50530355327E+01  0.15543231295E+02  0.25002275939E+00 0.  0.
    1000022    2    1    0    0    0 -0.77450476330E+01  0.51178524816E+02  0.33571160634E+02  0.62500000496E+02  0.10000003528E+02 0.  0.
    3000022    2    5    5    0    0 -0.91873022299E+01  0.31618239903E+02  0.18705016446E+02  0.37868981695E+02  0.25003502470E+00 0.  0.
        -13    1    4    4    0    0  0.31201032220E+01 -0.10049805429E+02 -0.36566354878E+01  0.11140719966E+02  0.10500000000E+00 0.  1.
         13    1    4    4    0    0  0.12133104957E+01 -0.39936231119E+01 -0.13964000450E+01  0.44025113292E+01  0.10500000000E+00 0. -1.
    3000001    1    5    5    0    0  0.14422545969E+01  0.19560284913E+02  0.14866144188E+02  0.24631018801E+02  0.10000000000E+01 0. -1.
        -13    1    6    6    0    0 -0.52566568643E+01  0.18141873171E+02  0.10656805627E+02  0.21687289704E+02  0.10500000000E+00 0. -1.
         13    1    6    6    0    0 -0.39306453656E+01  0.13476366732E+02  0.80482108191E+01  0.16181691990E+02  0.10500000000E+00 0.  1.
</event>
<event>
11    0  0.3467594E-009  0.9118800E+02  0.7816531E-02  0.1126479E+00
         25   -1    0    0    0    0  0.00000000000E+00  0.00000000000E+00  0.99999998245E-14  0.12500000000E+03  0.12500000000E+03 0.  0.
    3000001    1    3    3    0    0 -0.15656930841E+02  0.12544294785E+01 -0.10329631559E+02  0.18825896122E+02  0.10000000000E+01 0. -1.
    1000022    2    1    0    0    0 -0.42226998360E+02  0.31669458205E+00 -0.44978108972E+02  0.62499999693E+02  0.99999994466E+01 0.  0.
    3000022    2    3    3    0    0 -0.26570067519E+02 -0.93773489649E+00 -0.34648477413E+02  0.43674103570E+02  0.25000179632E+00 0.  0.
    1000022    2    1    0    0    0  0.42226998360E+02 -0.31669458205E+00  0.44978108972E+02  0.62500000307E+02  0.10000003289E+02 0.  0.
    3000022    2    5    5    0    0  0.59232156922E-01  0.11581180296E+01  0.13793462238E+01  0.18192975102E+01  0.25000321279E+00 0.  0.
        -13    1    4    4    0    0 -0.20199707952E+02 -0.72233125712E+00 -0.26313485037E+02  0.33180724579E+02  0.10500000000E+00 0. -1.
         13    1    4    4    0    0 -0.63703595670E+01 -0.21540363937E+00 -0.83349923758E+01  0.10493378991E+02  0.10500000000E+00 0.  1.
    3000001    1    5    5    0    0  0.42167766203E+02 -0.14748126117E+01  0.43598762748E+02  0.60680702797E+02  0.10000000000E+01 0.  1.
        -13    1    6    6    0    0  0.78567520924E-02  0.79106378095E+00  0.86829969756E+00  0.11793273502E+01  0.10500000000E+00 0. -1.
         13    1    6    6    0    0  0.51375404829E-01  0.36705424870E+00  0.51104652626E+00  0.63997016002E+00  0.10500000000E+00 0.  1.
</event>
<event>
11    0  0.3467594E-009  0.9118800E+02  0.7816531E-02  0.1126479E+00
         25   -1    0    0    0    0  0.00000000000E+00  0.00000000000E+00  0.99999998245E-14  0.12500000000E+03  0.12500000000E+03 0.  0.
    3000001    1    3    3    0    0 -0.25598939216E+02 -0.42812839947E+02  0.15980321489E+02  0.52389079283E+02  0.10000000000E+01 0.  1.
    1000022    2    1    0    0    0 -0.32007185910E+02 -0.48023200990E+02  0.21807392391E+02  0.62500001429E+02  0.10000001627E+02 0.  0.
    3000022    2    3    3    0    0 -0.64082466940E+01 -0.52103610433E+01  0.58270709020E+01  0.10110922146E+02  0.25000688634E+00 0.  0.
    1000022    2    1    0    0    0  0.32007185910E+02  0.48023200990E+02 -0.21807392391E+02  0.62499998571E+02  0.99999837640E+01 0.  0.
    3000022    2    5    5    0    0  0.28710737016E+02  0.46158101317E+02 -0.18653277522E+02  0.57470723007E+02  0.25000672587E+00 0.  0.
        -13    1    4    4    0    0 -0.23981909693E+01 -0.20283484100E+01  0.22157820378E+01  0.38452870162E+01  0.10500000000E+00 0.  1.
         13    1    4    4    0    0 -0.40100557247E+01 -0.31820126333E+01  0.36112888642E+01  0.62656351294E+01  0.10500000000E+00 0. -1.
    3000001    1    5    5    0    0  0.32964488931E+01  0.18650996729E+01 -0.31541148686E+01  0.50292755640E+01  0.10000000000E+01 0.  1.
        -13    1    6    6    0    0  0.72375861649E+01  0.11658470045E+02 -0.47354127782E+01  0.14516808756E+02  0.10500000000E+00 0. -1.
         13    1    6    6    0    0  0.21473150852E+02  0.34499631273E+02 -0.13917864744E+02  0.42953914251E+02  0.10500000000E+00 0.  1.
</event>
<event>
11    0  0.3467594E-009  0.9118800E+02  0.7816531E-02  0.1126479E+00
         25   -1    0    0    0    0  0.00000000000E+00  0.00000000000E+00  0.99999998245E-14  0.12500000000E+03  0.12500000000E+03 0.  0.
    3000001    1    3    3    0    0  0.93131010678E+00  0.32822168442E+02 -0.15563814556E+02  0.36350989027E+02  0.10000000000E+01 0.  1.
    1000022    2    1    0    0    0 -0.48137448658E+01  0.57638008316E+02 -0.21469466089E+02  0.62500000222E+02  0.99999955616E+01 0.  0.
    3000022    2    3    3    0    0 -0.57450549726E+01  0.24815839875E+02 -0.59056515334E+01  0.26149011194E+02  0.25000217056E+00 0.  0.
    1000022    2    1    0    0    0  0.48137448658E+01 -0.57638008316E+02  0.21469466089E+02  0.62499999778E+02  0.99999927925E+01 0.  0.
    3000022    2    5    5    0    0 -0.87042050874E+00 -0.17647620689E+02  0.24404748992E+01  0.17838569614E+02  0.25000062454E+00 0.  0.
        -13    1    4    4    0    0 -0.34043772121E+01  0.14820767048E+02 -0.34663112124E+01  0.15597155462E+02  0.10500000000E+00 0.  1.
         13    1    4    4    0    0 -0.23406777605E+01  0.99950728266E+01 -0.24393403209E+01  0.10551855732E+02  0.10500000000E+00 0. -1.
    3000001    1    5    5    0    0  0.56841653745E+01 -0.39990387628E+02  0.19028991190E+02  0.44661430164E+02  0.10000000000E+01 0.  1.
        -13    1    6    6    0    0 -0.38576579062E+00 -0.66291196801E+01  0.90339766805E+00  0.67023276050E+01  0.10500000000E+00 0. -1.
         13    1    6    6    0    0 -0.48465471811E+00 -0.11018501008E+02  0.15370772311E+01  0.11136242009E+02  0.10500000000E+00 0.  1.
</event>
<event>
11    0  0.3467594E-009  0.9118800E+02  0.7816531E-02  0.1126479E+00
         25   -1    0    0    0    0  0.00000000000E+00  0.00000000000E+00  0.99999998245E-14  0.12500000000E+03  0.12500000000E+03 0.  0.
    3000001    1    3    3    0    0 -0.32619863621E+01  0.17229773250E+00  0.11548569002E+01  0.36060970585E+01  0.10000000000E+01 0. -1.
    1000022    2    1    0    0    0 -0.56077537962E+02 -0.25529830444E+02 -0.31285108235E+01  0.62499998477E+02  0.99999861612E+01 0.  0.
    3000022    2    3    3    0    0 -0.52815551600E+02 -0.25702128177E+02 -0.42833677237E+01  0.58893901418E+02  0.25000317780E+00 0.  0.
    1000022    2    1    0    0    0  0.56077537962E+02  0.25529830444E+02  0.31285108235E+01  0.62500001523E+02  0.10000005204E+02 0.  0.
    3000022    2    5    5    0    0  0.26730647922E+02  0.89172925909E+01 -0.25222792398E+01  0.28292578392E+02  0.24990804733E+00 0.  0.
        -13    1    4    4    0    0 -0.40355213828E+02 -0.19621015984E+02 -0.32730828606E+01  0.44991684207E+02  0.10500000000E+00 0.  1.
         13    1    4    4    0    0 -0.12460337771E+02 -0.60811121925E+01 -0.10102848631E+01  0.13902217211E+02  0.10500000000E+00 0. -1.
    3000001    1    5    5    0    0  0.29346890040E+02  0.16612537853E+02  0.56507900633E+01  0.34207423131E+02  0.10000000000E+01 0. -1.
        -13    1    6    6    0    0  0.12027642354E+02  0.39438968664E+01 -0.11473529490E+01  0.12710072654E+02  0.10500000000E+00 0.  1.
         13    1    6    6    0    0  0.14703005569E+02  0.49733957246E+01 -0.13749262908E+01  0.15582505738E+02  0.10500000000E+00 0. -1.
</event>
<event>
11    0  0.3467594E-009  0.9118800E+02  0.7816531E-02  0.1126479E+00
         25   -1    0    0    0    0  0.00000000000E+00  0.00000000000E+00  0.99999998245E-14  0.12500000000E+03  0.12500000000E+03 0.  0.
    3000001    1    3    3    0    0  0.25910350460E+02 -0.10514815217E+01 -0.11557260204E+02  0.28408135063E+02  0.10000000000E+01 0.  1.
    1000022    2    1    0    0    0  0.53206593203E+02 -0.11839656349E+02 -0.28898632312E+02  0.62500000214E+02  0.10000002730E+02 0.  0.
    3000022    2    3    3    0    0  0.27296242742E+02 -0.10788174827E+02 -0.17341372108E+02  0.34091865151E+02  0.24999785609E+00 0.  0.
    1000022    2    1    0    0    0 -0.53206593203E+02  0.11839656349E+02  0.28898632312E+02  0.62499999786E+02  0.10000000050E+02 0.  0.
    3000022    2    5    5    0    0 -0.19465731601E+01  0.93223745843E+00 -0.72564473271E+00  0.22907045560E+01  0.25010665400E+00 0.  0.
        -13    1    4    4    0    0  0.12821431709E+02 -0.49957725449E+01 -0.81419816661E+01  0.15989050780E+02  0.10500000000E+00 0.  1.
         13    1    4    4    0    0  0.14474811034E+02 -0.57924022821E+01 -0.91993904421E+01  0.18102814371E+02  0.10500000000E+00 0. -1.
    3000001    1    5    5    0    0 -0.51260020043E+02  0.10907418890E+02  0.29624277045E+02  0.60209295230E+02  0.10000000000E+01 0.  1.
        -13    1    6    6    0    0 -0.76359322244E+00  0.42274601448E+00 -0.25451205829E+00  0.91519953558E+00  0.10500000000E+00 0.  1.
         13    1    6    6    0    0 -0.11829799376E+01  0.50949144394E+00 -0.47113267442E+00  0.13755050204E+01  0.10500000000E+00 0. -1.
</event>
<event>
11    0  0.3467594E-009  0.9118800E+02  0.7816531E-02  0.1126479E+00
         25   -1    0    0    0    0  0.00000000000E+00  0.00000000000E+00  0.99999998245E-14  0.12500000000E+03  0.12500000000E+03 0.  0.
    3000001    1    3    3    0    0 -0.14597953810E+02  0.10585779025E+02  0.25574569651E+02  0.31308426755E+02  0.10000000000E+01 0. -1.
    1000022    2    1    0    0    0 -0.21066358909E+02  0.26804110474E+02  0.51419824181E+02  0.62499999679E+02  0.99999912559E+01 0.  0.
    3000022    2    3    3    0    0 -0.64684050986E+01  0.16218331450E+02  0.25845254529E+02  0.31191572924E+02  0.25000055830E+00 0.  0.
    1000022    2    1    0    0    0  0.21066358909E+02 -0.26804110474E+02 -0.51419824181E+02  0.62500000321E+02  0.99999952681E+01 0.  0.
    3000022    2    5    5    0    0  0.27950270976E+01 -0.16682493375E+01 -0.12875662045E+01  0.35093538503E+01  0.25001077368E+00 0.  0.
        -13    1    4    4    0    0 -0.36236106157E+01  0.92179951369E+01  0.14582259271E+02  0.17628252854E+02  0.10500000000E+00 0. -1.
         13    1    4    4    0    0 -0.28447944829E+01  0.70003363128E+01  0.11262995258E+02  0.13563320070E+02  0.10500000000E+00 0.  1.
    3000001    1    5    5    0    0  0.18271331811E+02 -0.25135861137E+02 -0.50132257976E+02  0.58990646471E+02  0.10000000000E+01 0.  1.
        -13    1    6    6    0    0  0.11797939440E+01 -0.74959692279E+00 -0.49666208239E+00  0.14871138225E+01  0.10500000000E+00 0. -1.
         13    1    6    6    0    0  0.16152331536E+01 -0.91865241474E+00 -0.79090412208E+00  0.20222400278E+01  0.10500000000E+00 0.  1.
</event>
<event>
11    0  0.3467594E-009  0.9118800E+02  0.7816531E-02  0.1126479E+00
         25   -1    0    0    0    0  0.00000000000E+00  0.00000000000E+00  0.99999998245E-14  0.12500000000E+03  0.12500000000E+03 0.  0.
    3000001    1    3    3    0    0  0.42138232386E+01 -0.31334255165E+01 -0.25546838198E+01  0.59246156983E+01  0.10000000000E+01 0.  1.
    1000022    2    1    0    0    0  0.42739591362E+02 -0.90796752185E+01 -0.43556133856E+02  0.62499999893E+02  0.10000000917E+02 0.  0.
    3000022    2    3    3    0    0  0.38525768124E+02 -0.59462497021E+01 -0.41001450036E+02  0.56575384195E+02  0.24999347646E+00 0.  0.
    1000022    2    1    0    0    0 -0.42739591362E+02  0.90796752185E+01  0.43556133856E+02  0.62500000107E+02  0.10000002248E+02 0.  0.
    3000022    2    5    5    0    0 -0.60721970842E+01  0.26378698412E+01  0.25315855672E+01  0.70923452027E+01  0.25000052187E+00 0.  0.
        -13    1    4    4    0    0  0.22750204633E+02 -0.35523556109E+01 -0.24290325371E+02  0.33469717251E+02  0.10500000000E+00 0.  1.
         13    1    4    4    0    0  0.15775563490E+02 -0.23938940912E+01 -0.16711124665E+02  0.23105666944E+02  0.10500000000E+00 0. -1.
    3000001    1    5    5    0    0 -0.36667394278E+02  0.64418053774E+01  0.41024548289E+02  0.55407654904E+02  0.10000000000E+01 0.  1.
        -13    1    6    6    0    0 -0.38684639844E+01  0.16724670277E+01  0.16733433791E+01  0.45357758566E+01  0.10500000000E+00 0. -1.
         13    1    6    6    0    0 -0.22037330999E+01  0.96540281344E+00  0.85824218810E+00  0.25565693461E+01  0.10500000000E+00 0.  1.
</event>
<event>
11    0  0.3467594E-009  0.9118800E+02  0.7816531E-02  0.1126479E+00
         25   -1    0    0    0    0  0.00000000000E+00  0.00000000000E+00  0.99999998245E-14  0.12500000000E+03  0.12500000000E+03 0.  0.
    3000001    1    3    3    0    0 -0.35661566739E+02  0.35435791252E+02 -0.60857199597E+01  0.50650554107E+02  0.10000000000E+01 0.  1.
    1000022    2    1    0    0    0 -0.41748690168E+02  0.45282984738E+02 -0.35704535744E+01  0.62499999403E+02  0.99999974541E+01 0.  0.
    3000022    2    3    3    0    0 -0.60871234292E+01  0.98471934863E+01  0.25152663853E+01  0.11849445296E+02  0.24999526246E+00 0.  0.
    1000022    2    1    0    0    0  0.41748690168E+02 -0.45282984738E+02  0.35704535744E+01  0.62500000597E+02  0.10000004917E+02 0.  0.
    3000022    2    5    5    0    0  0.19310932375E+02 -0.25069720490E+02 -0.22589355188E+01  0.31726459957E+02  0.24995409812E+00 0.  0.
        -13    1    4    4    0    0 -0.36788391258E+01  0.58820274973E+01  0.14544677778E+01  0.70893304556E+01  0.10500000000E+00 0.  1.
         13    1    4    4    0    0 -0.24082843034E+01  0.39651659890E+01  0.10607986075E+01  0.47601148402E+01  0.10500000000E+00 0. -1.
    3000001    1    5    5    0    0  0.22437757793E+02 -0.20213264248E+02  0.58293890932E+01  0.30773540640E+02  0.10000000000E+01 0. -1.
        -13    1    6    6    0    0  0.51577935169E+01 -0.66531902244E+01 -0.57867194114E+00  0.84388186579E+01  0.10500000000E+00 0.  1.
         13    1    6    6    0    0  0.14153138859E+02 -0.18416530266E+02 -0.16802635777E+01  0.23287641299E+02  0.10500000000E+00 0. -1.
</event>
<event>
11    0  0.3467594E-009  0.9118800E+02  0.7816531E-02  0.1126479E+00
         25   -1    0    0    0    0  0.00000000000E+00  0.00000000000E+00  0.99999998245E-14  0.12500000000E+03  0.12500000000E+03 0.  0.
    3000001    1    3    3    0    0  0.33000246992E+02 -0.16919426737E+02  0.42676115635E+01  0.37342948613E+02  0.10000000000E+01 0. -1.
    1000022    2    1    0    0    0  0.56869034372E+02 -0.23914612961E+02  0.50422080854E+00  0.62500000347E+02  0.10000001062E+02 0.  0.
    3000022    2    3    3    0    0  0.23868787380E+02 -0.69951862240E+01 -0.37633907549E+01  0.25157051734E+02  0.25000133899E+00 0.  0.
    1000022    2    1    0    0    0 -0.56869034372E+02  0.23914612961E+02 -0.50422080854E+00  0.62499999653E+02  0.99999967271E+01 0.  0.
    3000022    2    5    5    0    0 -0.30357145876E+02  0.10587989001E+02  0.42527121008E+01  0.32431618445E+02  0.24999582029E+00 0.  0.
        -13    1    4    4    0    0  0.60074035144E+01 -0.17723825937E+01 -0.92254808435E+00  0.63318525734E+01  0.10500000000E+00 0.  1.
         13    1    4    4    0    0  0.17861383865E+02 -0.52228036304E+01 -0.28408426706E+01  0.18825199160E+02  0.10500000000E+00 0. -1.
    3000001    1    5    5    0    0 -0.26511888496E+02  0.13326623960E+02 -0.47569329093E+01  0.30068381209E+02  0.10000000000E+01 0.  1.
        -13    1    6    6    0    0 -0.11879193516E+02  0.41914286176E+01  0.17090377856E+01  0.12712794642E+02  0.10500000000E+00 0.  1.
         13    1    6    6    0    0 -0.18477952359E+02  0.63965603839E+01  0.25436743152E+01  0.19718823803E+02  0.10500000000E+00 0. -1.
</event>
<event>
11    0  0.3467594E-009  0.9118800E+02  0.7816531E-02  0.1126479E+00
         25   -1    0    0    0    0  0.00000000000E+00  0.00000000000E+00  0.99999998245E-14  0.12500000000E+03  0.12500000000E+03 0.  0.
    3000001    1    3    3    0    0  0.36831564253E+02 -0.75166657270E+01  0.65394049813E+01  0.38168418967E+02  0.10000000000E+01 0. -1.
    1000022    2    1    0    0    0  0.57159359308E+02 -0.15649822457E+02  0.17150533444E+02  0.62500004153E+02  0.10000021110E+02 0.  0.
    3000022    2    3    3    0    0  0.20327795056E+02 -0.81331567302E+01  0.10611128462E+02  0.24331585185E+02  0.25000033616E+00 0.  0.
    1000022    2    1    0    0    0 -0.57159359308E+02  0.15649822457E+02 -0.17150533444E+02  0.62499995847E+02  0.99999692019E+01 0.  0.
    3000022    2    5    5    0    0 -0.12913139159E+02 -0.28645411521E+00 -0.54909094457E+01  0.14037229311E+02  0.25000263044E+00 0.  0.
        -13    1    4    4    0    0  0.67398460445E+01 -0.27512306086E+01  0.35098388483E+01  0.80823751649E+01  0.10500000000E+00 0.  1.
         13    1    4    4    0    0  0.13587949011E+02 -0.53819261216E+01  0.71012896141E+01  0.16249210021E+02  0.10500000000E+00 0. -1.
    3000001    1    5    5    0    0 -0.44246220150E+02  0.15936276572E+02 -0.11659623998E+02  0.48462766536E+02  0.10000000000E+01 0. -1.
        -13    1    6    6    0    0 -0.38876741113E+01 -0.11657796668E+00 -0.16915901474E+01  0.42426527839E+01  0.10500000000E+00 0. -1.
         13    1    6    6    0    0 -0.90254650472E+01 -0.16987614853E+00 -0.37993192983E+01  0.97945765276E+01  0.10500000000E+00 0.  1.
</event>
<event>
11    0  0.3467594E-009  0.9118800E+02  0.7816531E-02  0.1126479E+00
         25   -1    0    0    0    0  0.00000000000E+00  0.00000000000E+00  0.99999998245E-14  0.12500000000E+03  0.12500000000E+03 0.  0.
    3000001    1    3    3    0    0  0.94491533256E+00  0.15921718873E+02  0.28687475354E+02  0.32838471935E+02  0.10000000000E+01 0. -1.
    1000022    2    1    0    0    0  0.10365959773E+01  0.37693571085E+02  0.48830003793E+02  0.62499994253E+02  0.10000008939E+02 0.  0.
    3000022    2    3    3    0    0  0.91680644768E-01  0.21771852212E+02  0.20142528439E+02  0.29661522317E+02  0.25000033191E+00 0.  0.
    1000022    2    1    0    0    0 -0.10365959773E+01 -0.37693571085E+02 -0.48830003793E+02  0.62500005747E+02  0.10000080778E+02 0.  0.
    3000022    2    5    5    0    0  0.15034254789E+01 -0.19025327354E+01 -0.85570419280E+00  0.25835342447E+01  0.25000109592E+00 0.  0.
        -13    1    4    4    0    0 -0.12009406042E-01  0.72630950962E+01  0.67640826515E+01  0.99255495424E+01  0.10500000000E+00 0. -1.
         13    1    4    4    0    0  0.10369005081E+00  0.14508757116E+02  0.13378445788E+02  0.19735972775E+02  0.10500000000E+00 0.  1.
    3000001    1    5    5    0    0 -0.25400214562E+01 -0.35791038350E+02 -0.47974299601E+02  0.59916471503E+02  0.10000000000E+01 0. -1.
        -13    1    6    6    0    0  0.99266910283E+00 -0.13356604985E+01 -0.59142238023E+00  0.17692332653E+01  0.10500000000E+00 0.  1.
         13    1    6    6    0    0  0.51075637607E+00 -0.56687223687E+00 -0.26428181257E+00  0.81430097941E+00  0.10500000000E+00 0. -1.
</event>
<event>
11    0  0.3467594E-009  0.9118800E+02  0.7816531E-02  0.1126479E+00
         25   -1    0    0    0    0  0.00000000000E+00  0.00000000000E+00  0.99999998245E-14  0.12500000000E+03  0.12500000000E+03 0.  0.
    3000001    1    3    3    0    0  0.23527527442E+02  0.55747161549E+01  0.52889995708E+01  0.24770860385E+02  0.10000000000E+01 0.  1.
    1000022    2    1    0    0    0  0.56191861617E+02  0.88500969182E+01  0.23883048839E+02  0.62500000515E+02  0.10000025753E+02 0.  0.
    3000022    2    3    3    0    0  0.32664334175E+02  0.32753807634E+01  0.18594049268E+02  0.37729140130E+02  0.25000104772E+00 0.  0.
    1000022    2    1    0    0    0 -0.56191861617E+02 -0.88500969182E+01 -0.23883048839E+02  0.62499999485E+02  0.10000019320E+02 0.  0.
    3000022    2    5    5    0    0 -0.47385600015E+02 -0.73855859036E+01 -0.16024560786E+02  0.50564721089E+02  0.25000508432E+00 0.  0.
        -13    1    4    4    0    0  0.11392952594E+02  0.11436802932E+01  0.65503326545E+01  0.13191863261E+02  0.10500000000E+00 0.  1.
         13    1    4    4    0    0  0.21271381581E+02  0.21317004702E+01  0.12043716613E+02  0.24537276869E+02  0.10500000000E+00 0. -1.
    3000001    1    5    5    0    0 -0.88062616023E+01 -0.14645110146E+01 -0.78584880529E+01  0.11935278396E+02  0.10000000000E+01 0.  1.
        -13    1    6    6    0    0 -0.32366942235E+02 -0.50903955122E+01 -0.10970759907E+02  0.34552853342E+02  0.10500000000E+00 0. -1.
         13    1    6    6    0    0 -0.15018657779E+02 -0.22951903914E+01 -0.50538008787E+01  0.16011867747E+02  0.10500000000E+00 0.  1.
</event>
<event>
11    0  0.3467594E-009  0.9118800E+02  0.7816531E-02  0.1126479E+00
         25   -1    0    0    0    0  0.00000000000E+00  0.00000000000E+00  0.99999998245E-14  0.12500000000E+03  0.12500000000E+03 0.  0.
    3000001    1    3    3    0    0 -0.26396786563E+02  0.64026170100E+01 -0.67059947718E+01  0.27995610572E+02  0.10000000000E+01 0.  1.
    1000022    2    1    0    0    0 -0.53862299738E+02  0.18432980187E+02 -0.23776623733E+02  0.62500000143E+02  0.10000004507E+02 0.  0.
    3000022    2    3    3    0    0 -0.27465513175E+02  0.12030363177E+02 -0.17070628961E+02  0.34504389572E+02  0.24994882015E+00 0.  0.
    1000022    2    1    0    0    0  0.53862299738E+02 -0.18432980187E+02  0.23776623733E+02  0.62499999857E+02  0.10000002714E+02 0.  0.
    3000022    2    5    5    0    0  0.37637951659E+02 -0.87167190777E+01  0.18531113035E+02  0.42849285289E+02  0.25000580504E+00 0.  0.
        -13    1    4    4    0    0 -0.19897837778E+02  0.87456876539E+01 -0.12343810808E+02  0.24995833474E+02  0.10500000000E+00 0.  1.
         13    1    4    4    0    0 -0.75676753975E+01  0.32846755229E+01 -0.47268181533E+01  0.95085560979E+01  0.10500000000E+00 0. -1.
    3000001    1    5    5    0    0  0.16224348079E+02 -0.97162611090E+01  0.52455106982E+01  0.19650714567E+02  0.10000000000E+01 0. -1.
        -13    1    6    6    0    0  0.13783871208E+02 -0.31395574814E+01  0.68130750251E+01  0.15693340720E+02  0.10500000000E+00 0. -1.
         13    1    6    6    0    0  0.23854080451E+02 -0.55771615962E+01  0.11718038010E+02  0.27155944569E+02  0.10500000000E+00 0.  1.
</event>
<event>
11    0  0.3467594E-009  0.9118800E+02  0.7816531E-02  0.1126479E+00
         25   -1    0    0    0    0  0.00000000000E+00  0.00000000000E+00  0.99999998245E-14  0.12500000000E+03  0.12500000000E+03 0.  0.
    3000001    1    3    3    0    0 -0.57461020208E+02 -0.15083452226E+02  0.13869614933E+02  0.61013486974E+02  0.10000000000E+01 0. -1.
    1000022    2    1    0    0    0 -0.57882116142E+02 -0.14929807288E+02  0.15264710645E+02  0.62500000507E+02  0.10000007875E+02 0.  0.
    3000022    2    3    3    0    0 -0.42109593471E+00  0.15364493761E+00  0.13950957120E+01  0.14865135327E+01  0.25000376801E+00 0.  0.
    1000022    2    1    0    0    0  0.57882116142E+02  0.14929807288E+02 -0.15264710645E+02  0.62499999493E+02  0.10000001539E+02 0.  0.
    3000022    2    5    5    0    0  0.56177957475E+02  0.15333496488E+02 -0.13404471284E+02  0.59756350060E+02  0.25000290042E+00 0.  0.
        -13    1    4    4    0    0 -0.10012589416E+00  0.14380126797E-01  0.33890764553E+00  0.36893817222E+00  0.10500000000E+00 0.  1.
         13    1    4    4    0    0 -0.32097004055E+00  0.13926481081E+00  0.10561880665E+01  0.11175753604E+01  0.10500000000E+00 0. -1.
    3000001    1    5    5    0    0  0.17041586669E+01 -0.40368919932E+00 -0.18602393606E+01  0.27436494329E+01  0.10000000000E+01 0. -1.
        -13    1    6    6    0    0  0.21782335133E+02  0.60094189342E+01 -0.52018072204E+01  0.23187347048E+02  0.10500000000E+00 0. -1.
         13    1    6    6    0    0  0.34395622342E+02  0.93240775535E+01 -0.82026640641E+01  0.36569003012E+02  0.10500000000E+00 0.  1.
</event>
<event>
11    0  0.3467594E-009  0.9118800E+02  0.7816531E-02  0.1126479E+00
         25   -1    0    0    0    0  0.00000000000E+00  0.00000000000E+00  0.99999998245E-14  0.12500000000E+03  0.12500000000E+03 0.  0.
    3000001    1    3    3    0    0  0.85442498727E+01  0.11086418309E+02  0.10053992111E+02  0.17262550049E+02  0.10000000000E+01 0.  1.
    1000022    2    1    0    0    0  0.19698129406E+02  0.35359306876E+02  0.46561282992E+02  0.62500000638E+02  0.10000006053E+02 0.  0.
    3000022    2    3    3    0    0  0.11153879533E+02  0.24272888567E+02  0.36507290881E+02  0.45237450590E+02  0.25000069667E+00 0.  0.
    1000022    2    1    0    0    0 -0.19698129406E+02 -0.35359306876E+02 -0.46561282992E+02  0.62499999362E+02  0.99999980726E+01 0.  0.
    3000022    2    5    5    0    0  0.84676945974E+00 -0.17619209075E+01 -0.42739655143E+01  0.47064492646E+01  0.24999932071E+00 0.  0.
        -13    1    4    4    0    0  0.63746395594E+01  0.13750704930E+02  0.20642707356E+02  0.25609574529E+02  0.10500000000E+00 0. -1.
         13    1    4    4    0    0  0.47792399740E+01  0.10522183637E+02  0.15864583526E+02  0.19627876061E+02  0.10500000000E+00 0.  1.
    3000001    1    5    5    0    0 -0.20544898866E+02 -0.33597385969E+02 -0.42287317478E+02  0.57793550097E+02  0.10000000000E+01 0. -1.
        -13    1    6    6    0    0  0.53354281735E+00 -0.10279480862E+01 -0.26511888047E+01  0.28950254376E+01  0.10500000000E+00 0. -1.
         13    1    6    6    0    0  0.31322664239E+00 -0.73397282129E+00 -0.16227767096E+01  0.18114238270E+01  0.10500000000E+00 0.  1.
</event>
<event>
11    0  0.3467594E-009  0.9118800E+02  0.7816531E-02  0.1126479E+00
         25   -1    0    0    0    0  0.00000000000E+00  0.00000000000E+00  0.99999998245E-14  0.12500000000E+03  0.12500000000E+03 0.  0.
    3000001    1    3    3    0    0 -0.61925201060E+01 -0.42028573779E+02  0.26314818818E+02  0.49982176909E+02  0.10000000000E+01 0.  1.
    1000022    2    1    0    0    0 -0.32077824251E+01 -0.51145285054E+02  0.34352872660E+02  0.62499999948E+02  0.10000004108E+02 0.  0.
    3000022    2    3    3    0    0  0.29847376809E+01 -0.91167112756E+01  0.80380538423E+01  0.12517823039E+02  0.25000113451E+00 0.  0.
    1000022    2    1    0    0    0  0.32077824251E+01  0.51145285054E+02 -0.34352872660E+02  0.62500000052E+02  0.10000004758E+02 0.  0.
    3000022    2    5    5    0    0 -0.84732727020E+00  0.21412791488E+02 -0.91608550443E+01  0.23306852183E+02  0.24998149331E+00 0.  0.
        -13    1    4    4    0    0  0.19332825999E+01 -0.57515517137E+01  0.51290116562E+01  0.79457985310E+01  0.10500000000E+00 0. -1.
         13    1    4    4    0    0  0.10514550810E+01 -0.33651595620E+01  0.29090421861E+01  0.45720245084E+01  0.10500000000E+00 0.  1.
    3000001    1    5    5    0    0  0.40551096953E+01  0.29732493566E+02 -0.25192017616E+02  0.39193147869E+02  0.10000000000E+01 0.  1.
        -13    1    6    6    0    0 -0.39033501733E+00  0.83226718914E+01 -0.35503824112E+01  0.90573433801E+01  0.10500000000E+00 0.  1.
         13    1    6    6    0    0 -0.45699225287E+00  0.13090119596E+02 -0.56104726331E+01  0.14249508803E+02  0.10500000000E+00 0. -1.
</event>
<event>
11    0  0.3467594E-009  0.9118800E+02  0.7816531E-02  0.1126479E+00
         25   -1    0    0    0    0  0.00000000000E+00  0.00000000000E+00  0.99999998245E-14  0.12500000000E+03  0.12500000000E+03 0.  0.
    3000001    1    3    3    0    0 -0.46075711566E+02  0.13723007207E+02  0.14807198299E+01  0.48109091182E+02  0.10000000000E+01 0. -1.
    1000022    2    1    0    0    0 -0.59842789867E+02  0.14781819796E+02 -0.25667728000E+01  0.62499999098E+02  0.99999934527E+01 0.  0.
    3000022    2    3    3    0    0 -0.13767078301E+02  0.10588125898E+01 -0.40474926299E+01  0.14390907916E+02  0.25001003216E+00 0.  0.
    1000022    2    1    0    0    0  0.59842789867E+02 -0.14781819796E+02  0.25667728000E+01  0.62500000902E+02  0.10000004727E+02 0.  0.
    3000022    2    5    5    0    0  0.25728043003E+02 -0.13926569670E+01  0.18100762509E+01  0.25830419168E+02  0.24997632031E+00 0.  0.
        -13    1    4    4    0    0 -0.63042468748E+01  0.42057840752E+00 -0.18316869835E+01  0.65792489739E+01  0.10500000000E+00 0.  1.
         13    1    4    4    0    0 -0.74628314265E+01  0.63823418226E+00 -0.22158056464E+01  0.78116589426E+01  0.10500000000E+00 0. -1.
    3000001    1    5    5    0    0  0.34114746865E+02 -0.13389162829E+02  0.75669654909E+00  0.36669581734E+02  0.10000000000E+01 0.  1.
        -13    1    6    6    0    0  0.18645390770E+02 -0.10330293401E+01  0.12821311245E+01  0.18718243288E+02  0.10500000000E+00 0.  1.
         13    1    6    6    0    0  0.70826522331E+01 -0.35962762693E+00  0.52794512635E+00  0.71121758796E+01  0.10500000000E+00 0. -1.
</event>
<event>
11    0  0.3467594E-009  0.9118800E+02  0.7816531E-02  0.1126479E+00
         25   -1    0    0    0    0  0.00000000000E+00  0.00000000000E+00  0.99999998245E-14  0.12500000000E+03  0.12500000000E+03 0.  0.
    3000001    1    3    3    0    0 -0.74473911941E+01  0.54517497623E+01 -0.88877591464E+01  0.12852138877E+02  0.10000000000E+01 0.  1.
    1000022    2    1    0    0    0 -0.47272969691E+02  0.11814048364E+02 -0.37841039327E+02  0.62500003698E+02  0.10000040142E+02 0.  0.
    3000022    2    3    3    0    0 -0.39825578497E+02  0.63622986014E+01 -0.28953280180E+02  0.49647864821E+02  0.25000404853E+00 0.  0.
    1000022    2    1    0    0    0  0.47272969691E+02 -0.11814048364E+02  0.37841039327E+02  0.62499996302E+02  0.99999939134E+01 0.  0.
    3000022    2    5    5    0    0  0.47090479969E+02 -0.10999529332E+02  0.36211904853E+02  0.60414133678E+02  0.25009153121E+00 0.  0.
        -13    1    4    4    0    0 -0.12641170808E+02  0.20692854792E+01 -0.92084557702E+01  0.15776179020E+02  0.10500000000E+00 0. -1.
         13    1    4    4    0    0 -0.27184407688E+02  0.42930131221E+01 -0.19744824410E+02  0.33871685801E+02  0.10500000000E+00 0.  1.
    3000001    1    5    5    0    0  0.18248972212E+00 -0.81451903184E+00  0.16291344738E+01  0.20858626238E+01  0.10000000000E+01 0. -1.
        -13    1    6    6    0    0  0.12658379855E+02 -0.29558929899E+01  0.96897055408E+01  0.16213368015E+02  0.10500000000E+00 0.  1.
         13    1    6    6    0    0  0.34432100114E+02 -0.80436363419E+01  0.26522199312E+02  0.44200765663E+02  0.10500000000E+00 0. -1.
</event>
<event>
11    0  0.3467594E-009  0.9118800E+02  0.7816531E-02  0.1126479E+00
         25   -1    0    0    0    0  0.00000000000E+00  0.00000000000E+00  0.99999998245E-14  0.12500000000E+03  0.12500000000E+03 0.  0.
    3000001    1    3    3    0    0  0.72137904513E+01  0.68001743663E+01  0.19684470442E+01  0.10156570674E+02  0.10000000000E+01 0.  1.
    1000022    2    1    0    0    0  0.30889248827E+02  0.44698847368E+02  0.29225286400E+02  0.62499999449E+02  0.99999958402E+01 0.  0.
    3000022    2    3    3    0    0  0.23675458376E+02  0.37898673002E+02  0.27256839356E+02  0.52343428775E+02  0.24999930512E+00 0.  0.
    1000022    2    1    0    0    0 -0.30889248827E+02 -0.44698847368E+02 -0.29225286400E+02  0.62500000551E+02  0.10000002727E+02 0.  0.
    3000022    2    5    5    0    0 -0.12645319050E+02 -0.26846671905E+02 -0.14777831441E+02  0.33152596964E+02  0.24999427354E+00 0.  0.
        -13    1    4    4    0    0  0.83382627331E+01  0.13257923661E+02  0.95894338486E+01  0.18364842274E+02  0.10500000000E+00 0. -1.
         13    1    4    4    0    0  0.15337195643E+02  0.24640749341E+02  0.17667405507E+02  0.33978586502E+02  0.10500000000E+00 0.  1.
    3000001    1    5    5    0    0 -0.18243929777E+02 -0.17852175464E+02 -0.14447454959E+02  0.29347403586E+02  0.10000000000E+01 0.  1.
        -13    1    6    6    0    0 -0.61686862250E+01 -0.13200825180E+02 -0.71988750246E+01  0.16252670605E+02  0.10500000000E+00 0. -1.
         13    1    6    6    0    0 -0.64766328255E+01 -0.13645846725E+02 -0.75789564168E+01  0.16899926360E+02  0.10500000000E+00 0.  1.
</event>
<event>
11    0  0.3467594E-009  0.9118800E+02  0.7816531E-02  0.1126479E+00
         25   -1    0    0    0    0  0.00000000000E+00  0.00000000000E+00  0.99999998245E-14  0.12500000000E+03  0.12500000000E+03 0.  0.
    3000001    1    3    3    0    0 -0.15728822069E+02 -0.40341260892E+02  0.99571436007E+01  0.44440498227E+02  0.10000000000E+01 0. -1.
    1000022    2    1    0    0    0 -0.17009972872E+02 -0.58340402408E+02  0.10644639730E+02  0.62499999973E+02  0.99999955716E+01 0.  0.
    3000022    2    3    3    0    0 -0.12811508023E+01 -0.17999141516E+02  0.68749612959E+00  0.18059501745E+02  0.25001934411E+00 0.  0.
    1000022    2    1    0    0    0  0.17009972872E+02  0.58340402408E+02 -0.10644639730E+02  0.62500000027E+02  0.99999959113E+01 0.  0.
    3000022    2    5    5    0    0  0.14705634760E+02  0.54859443683E+02 -0.11894807618E+02  0.58028985878E+02  0.24999766563E+00 0.  0.
        -13    1    4    4    0    0 -0.49207797243E+00 -0.61764615424E+01  0.21784135499E+00  0.62007497750E+01  0.10500000000E+00 0.  1.
         13    1    4    4    0    0 -0.78907282990E+00 -0.11822679974E+02  0.46965477461E+00  0.11858751970E+02  0.10500000000E+00 0. -1.
    3000001    1    5    5    0    0  0.23043381114E+01  0.34809587243E+01  0.12501678879E+01  0.44710141490E+01  0.10000000000E+01 0.  1.
        -13    1    6    6    0    0  0.95892301601E+01  0.35838882803E+02 -0.78241454978E+01  0.37915790027E+02  0.10500000000E+00 0.  1.
         13    1    6    6    0    0  0.51164046001E+01  0.19020560880E+02 -0.40706621204E+01  0.20113195851E+02  0.10500000000E+00 0. -1.
</event>
<event>
11    0  0.3467594E-009  0.9118800E+02  0.7816531E-02  0.1126479E+00
         25   -1    0    0    0    0  0.00000000000E+00  0.00000000000E+00  0.99999998245E-14  0.12500000000E+03  0.12500000000E+03 0.  0.
    3000001    1    3    3    0    0 -0.38592590414E+02 -0.16973808409E+02  0.66988023997E+00  0.42177564490E+02  0.10000000000E+01 0.  1.
    1000022    2    1    0    0    0 -0.54549675727E+02 -0.28478006888E+02 -0.44255885226E+01  0.62500001723E+02  0.10000019173E+02 0.  0.
    3000022    2    3    3    0    0 -0.15957085312E+02 -0.11504198479E+02 -0.50954687626E+01  0.20322437233E+02  0.24999774902E+00 0.  0.
    1000022    2    1    0    0    0  0.54549675727E+02  0.28478006888E+02  0.44255885226E+01  0.62499998277E+02  0.99999976328E+01 0.  0.
    3000022    2    5    5    0    0  0.20947589440E+02  0.16434925465E+02  0.14089099759E+01  0.26663754579E+02  0.25000500094E+00 0.  0.
        -13    1    4    4    0    0 -0.74187546279E+01 -0.53922275665E+01 -0.23165447000E+01  0.94599916863E+01  0.10500000000E+00 0. -1.
         13    1    4    4    0    0 -0.85383306842E+01 -0.61119709127E+01 -0.27789240626E+01  0.10862445547E+02  0.10500000000E+00 0.  1.
    3000001    1    5    5    0    0  0.33602086286E+02  0.12043081422E+02  0.30166785467E+01  0.35836243698E+02  0.10000000000E+01 0. -1.
        -13    1    6    6    0    0  0.50094868101E+01  0.39402042448E+01  0.32009240912E+00  0.63822920445E+01  0.10500000000E+00 0.  1.
         13    1    6    6    0    0  0.15938102630E+02  0.12494721221E+02  0.10888175668E+01  0.20281462534E+02  0.10500000000E+00 0. -1.
</event>
<event>
11    0  0.3467594E-009  0.9118800E+02  0.7816531E-02  0.1126479E+00
         25   -1    0    0    0    0  0.00000000000E+00  0.00000000000E+00  0.99999998245E-14  0.12500000000E+03  0.12500000000E+03 0.  0.
    3000001    1    3    3    0    0 -0.23732223701E+02 -0.20921706203E+02  0.27514395550E+02  0.41940173995E+02  0.10000000000E+01 0.  1.
    1000022    2    1    0    0    0 -0.36000473394E+02 -0.24754688366E+02  0.43559401602E+02  0.62499999459E+02  0.99999891881E+01 0.  0.
    3000022    2    3    3    0    0 -0.12268249693E+02 -0.38329821632E+01  0.16045006051E+02  0.20559825464E+02  0.25000223658E+00 0.  0.
    1000022    2    1    0    0    0  0.36000473394E+02  0.24754688366E+02 -0.43559401602E+02  0.62500000541E+02  0.99999959560E+01 0.  0.
    3000022    2    5    5    0    0  0.32750342974E+02  0.18395552416E+02 -0.35485967885E+02  0.51674923648E+02  0.25000736791E+00 0.  0.
        -13    1    4    4    0    0 -0.77686097560E+01 -0.23678896567E+01  0.10165640877E+02  0.13011897571E+02  0.10500000000E+00 0.  1.
         13    1    4    4    0    0 -0.44996399367E+01 -0.14650925065E+01  0.58793651746E+01  0.75479278924E+01  0.10500000000E+00 0. -1.
    3000001    1    5    5    0    0  0.32501304199E+01  0.63591359500E+01 -0.80734337160E+01  0.10825076893E+02  0.10000000000E+01 0. -1.
        -13    1    6    6    0    0  0.12242447660E+02  0.68239484946E+01 -0.13187709026E+02  0.19245012137E+02  0.10500000000E+00 0. -1.
         13    1    6    6    0    0  0.20507895313E+02  0.11571603922E+02 -0.22298258859E+02  0.32429911512E+02  0.10500000000E+00 0.  1.
</event>
<event>
11    0  0.3467594E-009  0.9118800E+02  0.7816531E-02  0.1126479E+00
         25   -1    0    0    0    0  0.00000000000E+00  0.00000000000E+00  0.99999998245E-14  0.12500000000E+03  0.12500000000E+03 0.  0.
    3000001    1    3    3    0    0 -0.84557204966E+00 -0.66657752840E+01 -0.32774389416E+01  0.75424901885E+01  0.10000000000E+01 0. -1.
    1000022    2    1    0    0    0 -0.28272101288E+02 -0.42564051162E+02 -0.34572240169E+02  0.62499999303E+02  0.99999979994E+01 0.  0.
    3000022    2    3    3    0    0 -0.27426529238E+02 -0.35898275879E+02 -0.31294801228E+02  0.54957509115E+02  0.25001422458E+00 0.  0.
    1000022    2    1    0    0    0  0.28272101288E+02  0.42564051162E+02  0.34572240169E+02  0.62500000697E+02  0.10000006709E+02 0.  0.
    3000022    2    5    5    0    0  0.21915780306E+02  0.26108443611E+02  0.25936760364E+02  0.42833751746E+02  0.24999254146E+00 0.  0.
        -13    1    4    4    0    0 -0.15863652732E+02 -0.20771360856E+02 -0.18026402669E+02  0.31750072882E+02  0.10500000000E+00 0. -1.
         13    1    4    4    0    0 -0.11562876506E+02 -0.15126915022E+02 -0.13268398558E+02  0.23207436232E+02  0.10500000000E+00 0.  1.
    3000001    1    5    5    0    0  0.63563209818E+01  0.16455607552E+02  0.86354798054E+01  0.19666248951E+02  0.10000000000E+01 0.  1.
        -13    1    6    6    0    0  0.15236838236E+02  0.18109652842E+02  0.17958815627E+02  0.29709440406E+02  0.10500000000E+00 0. -1.
         13    1    6    6    0    0  0.66789420706E+01  0.79987907690E+01  0.79779447362E+01  0.13124311341E+02  0.10500000000E+00 0.  1.
</event>
<event>
11    0  0.3467594E-009  0.9118800E+02  0.7816531E-02  0.1126479E+00
         25   -1    0    0    0    0  0.00000000000E+00  0.00000000000E+00  0.99999998245E-14  0.12500000000E+03  0.12500000000E+03 0.  0.
    3000001    1    3    3    0    0  0.12636303229E+02 -0.10210032383E+02  0.17979068895E+01  0.16375389758E+02  0.10000000000E+01 0.  1.
    1000022    2    1    0    0    0  0.51732105960E+02 -0.27995295200E+02  0.18609186677E+02  0.62499992652E+02  0.99999956139E+01 0.  0.
    3000022    2    3    3    0    0  0.39095802731E+02 -0.17785262817E+02  0.16811279788E+02  0.46124602893E+02  0.24999862241E+00 0.  0.
    1000022    2    1    0    0    0 -0.51732105960E+02  0.27995295200E+02 -0.18609186677E+02  0.62500007348E+02  0.10000087468E+02 0.  0.
    3000022    2    5    5    0    0 -0.22805012174E+02  0.70981901751E+01 -0.90522041544E+01  0.25543253321E+02  0.25001226922E+00 0.  0.
        -13    1    4    4    0    0  0.21849036115E+02 -0.98928592386E+01  0.93329183086E+01  0.25736422289E+02  0.10500000000E+00 0.  1.
         13    1    4    4    0    0  0.17246766615E+02 -0.78924035783E+01  0.74783614793E+01  0.20388180604E+02  0.10500000000E+00 0. -1.
    3000001    1    5    5    0    0 -0.28927093786E+02  0.20897105024E+02 -0.95569825231E+01  0.36956754028E+02  0.10000000000E+01 0. -1.
        -13    1    6    6    0    0 -0.97477029061E+01  0.30409858750E+01 -0.38005562467E+01  0.10895896467E+02  0.10500000000E+00 0. -1.
         13    1    6    6    0    0 -0.13057309268E+02  0.40572043000E+01 -0.52516479077E+01  0.14647356854E+02  0.10500000000E+00 0.  1.
</event>
<event>
11    0  0.3467594E-009  0.9118800E+02  0.7816531E-02  0.1126479E+00
         25   -1    0    0    0    0  0.00000000000E+00  0.00000000000E+00  0.99999998245E-14  0.12500000000E+03  0.12500000000E+03 0.  0.
    3000001    1    3    3    0    0 -0.10945949887E+02  0.75113302938E+01  0.36427132785E+02  0.38783629339E+02  0.10000000000E+01 0.  1.
    1000022    2    1    0    0    0 -0.23203066031E+02  0.15932419604E+02  0.54900143193E+02  0.62500000222E+02  0.10000001876E+02 0.  0.
    3000022    2    3    3    0    0 -0.12257116144E+02  0.84210893104E+01  0.18473010407E+02  0.23716370884E+02  0.24998608457E+00 0.  0.
    1000022    2    1    0    0    0  0.23203066031E+02 -0.15932419604E+02 -0.54900143193E+02  0.62499999778E+02  0.99999990959E+01 0.  0.
    3000022    2    5    5    0    0  0.14081428134E+02 -0.38815653642E+01 -0.24224195587E+02  0.28288289394E+02  0.24999410214E+00 0.  0.
        -13    1    4    4    0    0 -0.52304995740E+01  0.36528821036E+01  0.79944756928E+01  0.10228604013E+02  0.10500000000E+00 0.  1.
         13    1    4    4    0    0 -0.70266165701E+01  0.47682072068E+01  0.10478534714E+02  0.13487766870E+02  0.10500000000E+00 0. -1.
    3000001    1    5    5    0    0  0.91216378977E+01 -0.12050854240E+02 -0.30675947606E+02  0.34211710383E+02  0.10000000000E+01 0. -1.
        -13    1    6    6    0    0  0.80407462040E+01 -0.21754504947E+01 -0.13712725396E+02  0.16044813715E+02  0.10500000000E+00 0. -1.
         13    1    6    6    0    0  0.60406819297E+01 -0.17061148695E+01 -0.10511470191E+02  0.12243475679E+02  0.10500000000E+00 0.  1.
</event>
<event>
11    0  0.3467594E-009  0.9118800E+02  0.7816531E-02  0.1126479E+00
         25   -1    0    0    0    0  0.00000000000E+00  0.00000000000E+00  0.99999998245E-14  0.12500000000E+03  0.12500000000E+03 0.  0.
    3000001    1    3    3    0    0  0.34291457722E+02  0.17009447691E+02  0.30889893817E+02  0.49197671932E+02  0.10000000000E+01 0.  1.
    1000022    2    1    0    0    0  0.39878004898E+02  0.25179333946E+02  0.39774312237E+02  0.62500000411E+02  0.10000000240E+02 0.  0.
    3000022    2    3    3    0    0  0.55865471760E+01  0.81698862550E+01  0.88844184195E+01  0.13302328479E+02  0.25000307388E+00 0.  0.
    1000022    2    1    0    0    0 -0.39878004898E+02 -0.25179333946E+02 -0.39774312237E+02  0.62499999589E+02  0.99999951080E+01 0.  0.
    3000022    2    5    5    0    0 -0.22426704448E+02 -0.13104073784E+02 -0.28067228634E+02  0.38242720231E+02  0.25001069966E+00 0.  0.
        -13    1    4    4    0    0  0.35580568676E+01  0.51700349415E+01  0.57080768313E+01  0.84842322034E+01  0.10500000000E+00 0.  1.
         13    1    4    4    0    0  0.20284903084E+01  0.29998513135E+01  0.31763415882E+01  0.48180962754E+01  0.10500000000E+00 0. -1.
    3000001    1    5    5    0    0 -0.17451300450E+02 -0.12075260162E+02 -0.11707083602E+02  0.24257279358E+02  0.10000000000E+01 0.  1.
        -13    1    6    6    0    0 -0.63267221363E+01 -0.37286137250E+01 -0.78918741675E+01  0.10780662140E+02  0.10500000000E+00 0.  1.
         13    1    6    6    0    0 -0.16099982311E+02 -0.93754600592E+01 -0.20175354467E+02  0.27462058091E+02  0.10500000000E+00 0. -1.
</event>
<event>
11    0  0.3467594E-009  0.9118800E+02  0.7816531E-02  0.1126479E+00
         25   -1    0    0    0    0  0.00000000000E+00  0.00000000000E+00  0.99999998245E-14  0.12500000000E+03  0.12500000000E+03 0.  0.
    3000001    1    3    3    0    0 -0.27640423890E+01  0.51340962776E+01  0.38560748194E+02  0.39011923513E+02  0.10000000000E+01 0.  1.
    1000022    2    1    0    0    0 -0.10573609345E+02  0.37369849702E+01  0.60666990698E+02  0.62499999638E+02  0.99999961579E+01 0.  0.
    3000022    2    3    3    0    0 -0.78095669557E+01 -0.13971113074E+01  0.22106242504E+02  0.23488076125E+02  0.25001272067E+00 0.  0.
    1000022    2    1    0    0    0  0.10573609345E+02 -0.37369849702E+01 -0.60666990698E+02  0.62500000362E+02  0.10000000677E+02 0.  0.
    3000022    2    5    5    0    0  0.11695784334E+02 -0.80873365575E+00 -0.48178294765E+02  0.49584836461E+02  0.24999815227E+00 0.  0.
        -13    1    4    4    0    0 -0.37634281556E+01 -0.74200047948E+00  0.10679407759E+02  0.11347895456E+02  0.10500000000E+00 0.  1.
         13    1    4    4    0    0 -0.40461388001E+01 -0.65511082788E+00  0.11426834746E+02  0.12140180670E+02  0.10500000000E+00 0. -1.
    3000001    1    5    5    0    0 -0.11221749888E+01 -0.29282513145E+01 -0.12488695933E+02  0.12915163901E+02  0.10000000000E+01 0. -1.
        -13    1    6    6    0    0  0.70442805810E+01 -0.54660920801E+00 -0.29118325846E+02  0.29963454333E+02  0.10500000000E+00 0.  1.
         13    1    6    6    0    0  0.46515037525E+01 -0.26212444774E+00 -0.19059968919E+02  0.19621382128E+02  0.10500000000E+00 0. -1.
</event>
<event>
11    0  0.3467594E-009  0.9118800E+02  0.7816531E-02  0.1126479E+00
         25   -1    0    0    0    0  0.00000000000E+00  0.00000000000E+00  0.99999998245E-14  0.12500000000E+03  0.12500000000E+03 0.  0.
    3000001    1    3    3    0    0  0.27798704412E+02  0.20184740717E+02 -0.67550785714E+01  0.35026030482E+02  0.10000000000E+01 0. -1.
    1000022    2    1    0    0    0  0.44694933600E+02  0.38028118449E+02 -0.19038743956E+02  0.62500011374E+02  0.10000138403E+02 0.  0.
    3000022    2    3    3    0    0  0.16896229188E+02  0.17843377732E+02 -0.12283665384E+02  0.27473980892E+02  0.25000230216E+00 0.  0.
    1000022    2    1    0    0    0 -0.44694933600E+02 -0.38028118449E+02  0.19038743956E+02  0.62499988626E+02  0.99999962236E+01 0.  0.
    3000022    2    5    5    0    0 -0.21099746512E+02 -0.19766946877E+02  0.43843180518E+01  0.29244080286E+02  0.24999057328E+00 0.  0.
        -13    1    4    4    0    0  0.86801582325E+01  0.92259662936E+01 -0.63924909453E+01  0.14189382174E+02  0.10500000000E+00 0.  1.
         13    1    4    4    0    0  0.82160709558E+01  0.86174114380E+01 -0.58911744389E+01  0.13284598719E+02  0.10500000000E+00 0. -1.
    3000001    1    5    5    0    0 -0.23595187088E+02 -0.18261171572E+02  0.14654425904E+02  0.33255908340E+02  0.10000000000E+01 0. -1.
        -13    1    6    6    0    0 -0.10687338413E+02 -0.99316537914E+01  0.22464780011E+01  0.14761932048E+02  0.10500000000E+00 0.  1.
         13    1    6    6    0    0 -0.10412408099E+02 -0.98352930853E+01  0.21378400507E+01  0.14482148238E+02  0.10500000000E+00 0. -1.
</event>
<event>
11    0  0.3467594E-009  0.9118800E+02  0.7816531E-02  0.1126479E+00
         25   -1    0    0    0    0  0.00000000000E+00  0.00000000000E+00  0.99999998245E-14  0.12500000000E+03  0.12500000000E+03 0.  0.
    3000001    1    3    3    0    0 -0.25402352316E+01  0.11436490893E+01  0.91628997887E+00  0.30984376057E+01  0.10000000000E+01 0. -1.
    1000022    2    1    0    0    0 -0.33980644432E+02  0.51448271891E+02 -0.21543239429E+01  0.62499999647E+02  0.99999983851E+01 0.  0.
    3000022    2    3    3    0    0 -0.31440409200E+02  0.50304622801E+02 -0.30706139218E+01  0.59401562041E+02  0.24999447036E+00 0.  0.
    1000022    2    1    0    0    0  0.33980644432E+02 -0.51448271891E+02  0.21543239429E+01  0.62500000353E+02  0.10000002797E+02 0.  0.
    3000022    2    5    5    0    0  0.83326498291E+01 -0.14872637898E+02  0.48780788951E+01  0.17733768993E+02  0.24999556730E+00 0.  0.
        -13    1    4    4    0    0 -0.21193673957E+02  0.33816511962E+02 -0.20488126509E+01  0.39961693599E+02  0.10500000000E+00 0. -1.
         13    1    4    4    0    0 -0.10246735243E+02  0.16488110840E+02 -0.10218012709E+01  0.19439868442E+02  0.10500000000E+00 0.  1.
    3000001    1    5    5    0    0  0.25647994603E+02 -0.36575633993E+02 -0.27237549522E+01  0.44766231360E+02  0.10000000000E+01 0.  1.
        -13    1    6    6    0    0  0.43180362793E+01 -0.75762623821E+01  0.24718927247E+01  0.90645721153E+01  0.10500000000E+00 0.  1.
         13    1    6    6    0    0  0.40146135498E+01 -0.72963755160E+01  0.24061861705E+01  0.86691968781E+01  0.10500000000E+00 0. -1.
</event>
<event>
11    0  0.3467594E-009  0.9118800E+02  0.7816531E-02  0.1126479E+00
         25   -1    0    0    0    0  0.00000000000E+00  0.00000000000E+00  0.99999998245E-14  0.12500000000E+03  0.12500000000E+03 0.  0.
    3000001    1    3    3    0    0  0.24681962125E+02  0.90881795510E+01  0.29036448975E+02  0.39190682961E+02  0.10000000000E+01 0.  1.
    1000022    2    1    0    0    0  0.40948874496E+02  0.70492791984E+01  0.45604249849E+02  0.62499996182E+02  0.99999629361E+01 0.  0.
    3000022    2    3    3    0    0  0.16266912371E+02 -0.20389003526E+01  0.16567800874E+02  0.23309313220E+02  0.25000855229E+00 0.  0.
    1000022    2    1    0    0    0 -0.40948874496E+02 -0.70492791984E+01 -0.45604249849E+02  0.62500003818E+02  0.10000010666E+02 0.  0.
    3000022    2    5    5    0    0 -0.62313584868E+01  0.64681735574E+00 -0.12120618481E+02  0.13646248695E+02  0.25001963558E+00 0.  0.
        -13    1    4    4    0    0  0.51601937999E+01 -0.67943881944E+00  0.53149367621E+01  0.74396784169E+01  0.10500000000E+00 0. -1.
         13    1    4    4    0    0  0.11106718571E+02 -0.13594615332E+01  0.11252864112E+02  0.15869634804E+02  0.10500000000E+00 0.  1.
    3000001    1    5    5    0    0 -0.34717516009E+02 -0.76960965541E+01 -0.33483631368E+02  0.48853755123E+02  0.10000000000E+01 0.  1.
        -13    1    6    6    0    0 -0.24508021249E+01  0.26588028068E+00 -0.49049335549E+01  0.54905848101E+01  0.10500000000E+00 0.  1.
         13    1    6    6    0    0 -0.37805563619E+01  0.38093707507E+00 -0.72156849257E+01  0.81556638851E+01  0.10500000000E+00 0. -1.
</event>
<event>
11    0  0.3467594E-009  0.9118800E+02  0.7816531E-02  0.1126479E+00
         25   -1    0    0    0    0  0.00000000000E+00  0.00000000000E+00  0.99999998245E-14  0.12500000000E+03  0.12500000000E+03 0.  0.
    3000001    1    3    3    0    0  0.44952342267E+02  0.15349450269E+02 -0.52785830556E+00  0.47514180338E+02  0.10000000000E+01 0.  1.
    1000022    2    1    0    0    0  0.57727763737E+02  0.21277041262E+02  0.45872677810E+01  0.62499998395E+02  0.99999791400E+01 0.  0.
    3000022    2    3    3    0    0  0.12775421470E+02  0.59275909934E+01  0.51151260865E+01  0.14985818057E+02  0.24999847642E+00 0.  0.
    1000022    2    1    0    0    0 -0.57727763737E+02 -0.21277041262E+02 -0.45872677810E+01  0.62500001605E+02  0.99999991964E+01 0.  0.
    3000022    2    5    5    0    0 -0.42001340435E+02 -0.17361525985E+02 -0.73192079532E+01  0.46034427005E+02  0.24996366996E+00 0.  0.
        -13    1    4    4    0    0  0.62777258400E+01  0.29360114470E+01  0.24485463415E+01  0.73509461381E+01  0.10500000000E+00 0. -1.
         13    1    4    4    0    0  0.64976956300E+01  0.29915795464E+01  0.26665797450E+01  0.76348719190E+01  0.10500000000E+00 0.  1.
    3000001    1    5    5    0    0 -0.15726423302E+02 -0.39155152775E+01  0.27319401723E+01  0.16465574599E+02  0.10000000000E+01 0. -1.
        -13    1    6    6    0    0 -0.30303918454E+02 -0.12567118285E+02 -0.52933412613E+01  0.33230865507E+02  0.10500000000E+00 0.  1.
         13    1    6    6    0    0 -0.11697421981E+02 -0.47944076995E+01 -0.20258666919E+01  0.12803561498E+02  0.10500000000E+00 0. -1.
</event>
<event>
11    0  0.3467594E-009  0.9118800E+02  0.7816531E-02  0.1126479E+00
         25   -1    0    0    0    0  0.00000000000E+00  0.00000000000E+00  0.99999998245E-14  0.12500000000E+03  0.12500000000E+03 0.  0.
    3000001    1    3    3    0    0 -0.51797840768E+02  0.15362921422E+02  0.13928850896E+02  0.55803660724E+02  0.10000000000E+01 0.  1.
    1000022    2    1    0    0    0 -0.56048491051E+02  0.18245863816E+02  0.18218265141E+02  0.62500000258E+02  0.99999975986E+01 0.  0.
    3000022    2    3    3    0    0 -0.42506502832E+01  0.28829423942E+01  0.42894142448E+01  0.66963395344E+01  0.25000783764E+00 0.  0.
    1000022    2    1    0    0    0  0.56048491051E+02 -0.18245863816E+02 -0.18218265141E+02  0.62499999742E+02  0.99999943722E+01 0.  0.
    3000022    2    5    5    0    0  0.50890713322E+02 -0.17146642583E+02 -0.13547511935E+02  0.55384741916E+02  0.25000622310E+00 0.  0.
        -13    1    4    4    0    0 -0.28058160767E+01  0.19663408364E+01  0.28454935589E+01  0.44549925628E+01  0.10500000000E+00 0.  1.
         13    1    4    4    0    0 -0.14448342065E+01  0.91660155784E+00  0.14439206858E+01  0.22413469716E+01  0.10500000000E+00 0. -1.
    3000001    1    5    5    0    0  0.51577777292E+01 -0.10992212334E+01 -0.46707532061E+01  0.71152578263E+01  0.10000000000E+01 0.  1.
        -13    1    6    6    0    0  0.20136541957E+02 -0.68307636833E+01 -0.54105145685E+01  0.21941384354E+02  0.10500000000E+00 0.  1.
         13    1    6    6    0    0  0.30754171365E+02 -0.10315878900E+02 -0.81369973667E+01  0.33443357561E+02  0.10500000000E+00 0. -1.
</event>
<event>
11    0  0.3467594E-009  0.9118800E+02  0.7816531E-02  0.1126479E+00
         25   -1    0    0    0    0  0.00000000000E+00  0.00000000000E+00  0.99999998245E-14  0.12500000000E+03  0.12500000000E+03 0.  0.
    3000001    1    3    3    0    0 -0.25456468521E+02  0.76802923795E+01 -0.23468989116E+02  0.35479742540E+02  0.10000000000E+01 0.  1.
    1000022    2    1    0    0    0 -0.39557099911E+02  0.20206968120E+02 -0.42815470623E+02  0.62499998847E+02  0.99999808609E+01 0.  0.
    3000022    2    3    3    0    0 -0.14100631390E+02  0.12526675741E+02 -0.19346481508E+02  0.27020256307E+02  0.24998694164E+00 0.  0.
    1000022    2    1    0    0    0  0.39557099911E+02 -0.20206968120E+02  0.42815470623E+02  0.62500001153E+02  0.99999952701E+01 0.  0.
    3000022    2    5    5    0    0  0.37422234567E+02 -0.17320201153E+02  0.41611702032E+02  0.58583353047E+02  0.25000063567E+00 0.  0.
        -13    1    4    4    0    0 -0.55371678277E+01  0.49902890521E+01 -0.75989620955E+01  0.10645114481E+02  0.10500000000E+00 0.  1.
         13    1    4    4    0    0 -0.85634635628E+01  0.75363866886E+01 -0.11747519412E+02  0.16375141827E+02  0.10500000000E+00 0. -1.
    3000001    1    5    5    0    0  0.21348653442E+01 -0.28867669668E+01  0.12037685914E+01  0.39166481053E+01  0.10000000000E+01 0. -1.
        -13    1    6    6    0    0  0.18638173019E+02 -0.86941138647E+01  0.20712861753E+02  0.29189086597E+02  0.10500000000E+00 0.  1.
         13    1    6    6    0    0  0.18784061548E+02 -0.86260872887E+01  0.20898840279E+02  0.29394266450E+02  0.10500000000E+00 0. -1.
</event>
<event>
11    0  0.3467594E-009  0.9118800E+02  0.7816531E-02  0.1126479E+00
         25   -1    0    0    0    0  0.00000000000E+00  0.00000000000E+00  0.99999998245E-14  0.12500000000E+03  0.12500000000E+03 0.  0.
    3000001    1    3    3    0    0 -0.39389587197E+02 -0.64386201441E+01  0.32176189927E+02  0.51276725784E+02  0.10000000000E+01 0.  1.
    1000022    2    1    0    0    0 -0.44370386673E+02 -0.86456153723E+01  0.41985384353E+02  0.62500004523E+02  0.10000009369E+02 0.  0.
    3000022    2    3    3    0    0 -0.49807994759E+01 -0.22069952282E+01  0.98091944268E+01  0.11223278739E+02  0.24999799038E+00 0.  0.
    1000022    2    1    0    0    0  0.44370386673E+02  0.86456153723E+01 -0.41985384353E+02  0.62499995477E+02  0.99999528333E+01 0.  0.
    3000022    2    5    5    0    0  0.32092068218E+02  0.10646117817E+02 -0.30274195817E+02  0.45385351132E+02  0.24999592089E+00 0.  0.
        -13    1    4    4    0    0 -0.28201451593E+01 -0.12345436997E+01  0.56741774738E+01  0.64563636724E+01  0.10500000000E+00 0. -1.
         13    1    4    4    0    0 -0.21606543166E+01 -0.97245152849E+00  0.41350169530E+01  0.47669150667E+01  0.10500000000E+00 0.  1.
    3000001    1    5    5    0    0  0.12278318455E+02 -0.20005024448E+01 -0.11711188537E+02  0.17114644345E+02  0.10000000000E+01 0. -1.
        -13    1    6    6    0    0  0.90748893472E+01  0.30308606211E+01 -0.85188962262E+01  0.12811024576E+02  0.10500000000E+00 0.  1.
         13    1    6    6    0    0  0.23017178871E+02  0.76152571959E+01 -0.21755299591E+02  0.32574326557E+02  0.10500000000E+00 0. -1.
</event>
<event>
11    0  0.3467594E-009  0.9118800E+02  0.7816531E-02  0.1126479E+00
         25   -1    0    0    0    0  0.00000000000E+00  0.00000000000E+00  0.99999998245E-14  0.12500000000E+03  0.12500000000E+03 0.  0.
    3000001    1    3    3    0    0 -0.57453837890E+00 -0.17427623352E+02  0.17722524300E+02  0.24882524342E+02  0.10000000000E+01 0. -1.
    1000022    2    1    0    0    0 -0.93884570398E+01 -0.35930447362E+02  0.49265706795E+02  0.62500000314E+02  0.10000000003E+02 0.  0.
    3000022    2    3    3    0    0 -0.88139186609E+01 -0.18502824009E+02  0.31543182495E+02  0.37617475973E+02  0.24995624875E+00 0.  0.
    1000022    2    1    0    0    0  0.93884570398E+01  0.35930447362E+02 -0.49265706795E+02  0.62499999686E+02  0.99999960725E+01 0.  0.
    3000022    2    5    5    0    0  0.23618893685E+01  0.10313595009E+02 -0.74209166353E+01  0.12925991968E+02  0.25000246622E+00 0.  0.
        -13    1    4    4    0    0 -0.53932578183E+01 -0.11283896340E+02  0.19357625696E+02  0.23046523471E+02  0.10500000000E+00 0. -1.
         13    1    4    4    0    0 -0.34206608426E+01 -0.72189276695E+01  0.12185556799E+02  0.14570952502E+02  0.10500000000E+00 0.  1.
    3000001    1    5    5    0    0  0.70265676713E+01  0.25616852352E+02 -0.41844790160E+02  0.49574007718E+02  0.10000000000E+01 0. -1.
        -13    1    6    6    0    0  0.89574008751E+00  0.40945568040E+01 -0.28820175076E+01  0.50877102551E+01  0.10500000000E+00 0.  1.
         13    1    6    6    0    0  0.14661492810E+01  0.62190382053E+01 -0.45388991277E+01  0.78382817125E+01  0.10500000000E+00 0. -1.
</event>
<event>
11    0  0.3467594E-009  0.9118800E+02  0.7816531E-02  0.1126479E+00
         25   -1    0    0    0    0  0.00000000000E+00  0.00000000000E+00  0.99999998245E-14  0.12500000000E+03  0.12500000000E+03 0.  0.
    3000001    1    3    3    0    0 -0.12025872806E+02 -0.18873968564E+02  0.27618539412E+02  0.35561665110E+02  0.10000000000E+01 0.  1.
    1000022    2    1    0    0    0 -0.28250453255E+02 -0.33179068624E+02  0.43672778643E+02  0.62500002067E+02  0.99999980059E+01 0.  0.
    3000022    2    3    3    0    0 -0.16224580449E+02 -0.14305100060E+02  0.16054239231E+02  0.26938336957E+02  0.25000458198E+00 0.  0.
    1000022    2    1    0    0    0  0.28250453255E+02  0.33179068624E+02 -0.43672778643E+02  0.62499997933E+02  0.99999721678E+01 0.  0.
    3000022    2    5    5    0    0  0.16132094354E+02  0.25093556843E+02 -0.32479069815E+02  0.44100833807E+02  0.25000624741E+00 0.  0.
        -13    1    4    4    0    0 -0.86309820752E+01 -0.75212428942E+01  0.84827580811E+01  0.14248900165E+02  0.10500000000E+00 0. -1.
         13    1    4    4    0    0 -0.75935983736E+01 -0.67838571658E+01  0.75714811497E+01  0.12689436792E+02  0.10500000000E+00 0.  1.
    3000001    1    5    5    0    0  0.12118358901E+02  0.80855117808E+01 -0.11193708828E+02  0.18399164126E+02  0.10000000000E+01 0.  1.
        -13    1    6    6    0    0  0.10915688107E+02  0.16929300286E+02 -0.21995718624E+02  0.29825762653E+02  0.10500000000E+00 0.  1.
         13    1    6    6    0    0  0.52164062467E+01  0.81642565573E+01 -0.10483351191E+02  0.14275071154E+02  0.10500000000E+00 0. -1.
</event>
<event>
11    0  0.3467594E-009  0.9118800E+02  0.7816531E-02  0.1126479E+00
         25   -1    0    0    0    0  0.00000000000E+00  0.00000000000E+00  0.99999998245E-14  0.12500000000E+03  0.12500000000E+03 0.  0.
    3000001    1    3    3    0    0  0.10684941861E+02 -0.79792989735E+00  0.28482890077E+00  0.10765026809E+02  0.10000000000E+01 0. -1.
    1000022    2    1    0    0    0  0.57651606738E+02 -0.13992031778E+02 -0.16934138670E+02  0.62499998338E+02  0.10000001349E+02 0.  0.
    3000022    2    3    3    0    0  0.46966664878E+02 -0.13194101881E+02 -0.17218967570E+02  0.51734971530E+02  0.25000157219E+00 0.  0.
    1000022    2    1    0    0    0 -0.57651606738E+02  0.13992031778E+02  0.16934138670E+02  0.62500001662E+02  0.10000022122E+02 0.  0.
    3000022    2    5    5    0    0 -0.34210226804E+02  0.12718313935E+02  0.12558021387E+02  0.38598724440E+02  0.24999979621E+00 0.  0.
        -13    1    4    4    0    0  0.12188140619E+02 -0.33968977805E+01 -0.44475094000E+01  0.13411974170E+02  0.10500000000E+00 0.  1.
         13    1    4    4    0    0  0.34778524259E+02 -0.97972041002E+01 -0.12771458171E+02  0.38322997359E+02  0.10500000000E+00 0. -1.
    3000001    1    5    5    0    0 -0.23441379935E+02  0.12737178435E+01  0.43761172824E+01  0.23901277222E+02  0.10000000000E+01 0.  1.
        -13    1    6    6    0    0 -0.25183533113E+02  0.93270343763E+01  0.92351174813E+01  0.28398984669E+02  0.10500000000E+00 0.  1.
         13    1    6    6    0    0 -0.90266936906E+01  0.33912795583E+01  0.33229039061E+01  0.10199739771E+02  0.10500000000E+00 0. -1.
</event>
<event>
11    0  0.3467594E-009  0.9118800E+02  0.7816531E-02  0.1126479E+00
         25   -1    0    0    0    0  0.00000000000E+00  0.00000000000E+00  0.99999998245E-14  0.12500000000E+03  0.12500000000E+03 0.  0.
    3000001    1    3    3    0    0 -0.24426407451E+02  0.30289092959E+02 -0.10417599712E+02  0.40293981151E+02  0.10000000000E+01 0.  1.
    1000022    2    1    0    0    0 -0.34958455231E+02  0.45466030097E+02 -0.22737555210E+02  0.62499999615E+02  0.10000002506E+02 0.  0.
    3000022    2    3    3    0    0 -0.10532047779E+02  0.15176937138E+02 -0.12319955498E+02  0.22206018464E+02  0.25000250537E+00 0.  0.
    1000022    2    1    0    0    0  0.34958455231E+02 -0.45466030097E+02  0.22737555210E+02  0.62500000385E+02  0.10000007313E+02 0.  0.
    3000022    2    5    5    0    0  0.27850057933E+02 -0.35725871005E+02  0.22050153160E+02  0.50380902528E+02  0.24999847435E+00 0.  0.
        -13    1    4    4    0    0 -0.30062422476E+01  0.43775193761E+01 -0.35019888116E+01  0.63620058925E+01  0.10500000000E+00 0. -1.
         13    1    4    4    0    0 -0.75258055317E+01  0.10799417762E+02 -0.88179666859E+01  0.15844012572E+02  0.10500000000E+00 0.  1.
    3000001    1    5    5    0    0  0.71083972975E+01 -0.97401590921E+01  0.68740205032E+00  0.12119097857E+02  0.10000000000E+01 0. -1.
        -13    1    6    6    0    0  0.13944320671E+02 -0.17804647690E+02  0.10958815234E+02  0.25130782213E+02  0.10500000000E+00 0.  1.
         13    1    6    6    0    0  0.13905737262E+02 -0.17921223315E+02  0.11091337925E+02  0.25250120315E+02  0.10500000000E+00 0. -1.
</event>
<event>
11    0  0.3467594E-009  0.9118800E+02  0.7816531E-02  0.1126479E+00
         25   -1    0    0    0    0  0.00000000000E+00  0.00000000000E+00  0.99999998245E-14  0.12500000000E+03  0.12500000000E+03 0.  0.
    3000001    1    3    3    0    0  0.57149303969E+01  0.54224340967E+01  0.72685709497E+01  0.10765470014E+02  0.10000000000E+01 0.  1.
    1000022    2    1    0    0    0  0.23944138454E+02  0.16676434134E+02  0.54358297482E+02  0.62499998059E+02  0.10000001521E+02 0.  0.
    3000022    2    3    3    0    0  0.18229208057E+02  0.11254000037E+02  0.47089726533E+02  0.51734528045E+02  0.25000768010E+00 0.  0.
    1000022    2    1    0    0    0 -0.23944138454E+02 -0.16676434134E+02 -0.54358297482E+02  0.62500001941E+02  0.10000025788E+02 0.  0.
    3000022    2    5    5    0    0 -0.18997109728E+02 -0.78991678811E+01 -0.33498482228E+02  0.39312820384E+02  0.25000758782E+00 0.  0.
        -13    1    4    4    0    0  0.85746698310E+01  0.52590177655E+01  0.21963933203E+02  0.24157972128E+02  0.10500000000E+00 0. -1.
         13    1    4    4    0    0  0.96545382264E+01  0.59949822719E+01  0.25125793329E+02  0.27576555917E+02  0.10500000000E+00 0.  1.
    3000001    1    5    5    0    0 -0.49470287263E+01 -0.87772662531E+01 -0.20859815255E+02  0.23187181557E+02  0.10000000000E+01 0.  1.
        -13    1    6    6    0    0 -0.12356986418E+02 -0.50768521334E+01 -0.21746567872E+02  0.25522417208E+02  0.10500000000E+00 0. -1.
         13    1    6    6    0    0 -0.66401233095E+01 -0.28223157477E+01 -0.11751914356E+02  0.13790403177E+02  0.10500000000E+00 0.  1.
</event>
<event>
11    0  0.3467594E-009  0.9118800E+02  0.7816531E-02  0.1126479E+00
         25   -1    0    0    0    0  0.00000000000E+00  0.00000000000E+00  0.99999998245E-14  0.12500000000E+03  0.12500000000E+03 0.  0.
    3000001    1    3    3    0    0 -0.10264193895E+02  0.37718168776E+02 -0.40654382312E+02  0.56407381904E+02  0.10000000000E+01 0.  1.
    1000022    2    1    0    0    0 -0.13350638231E+02  0.42596999859E+02 -0.42585283736E+02  0.62500001326E+02  0.99999918311E+01 0.  0.
    3000022    2    3    3    0    0 -0.30864443356E+01  0.48788310839E+01 -0.19309014243E+01  0.60926194217E+01  0.24999945038E+00 0.  0.
    1000022    2    1    0    0    0  0.13350638231E+02 -0.42596999859E+02  0.42585283736E+02  0.62499998674E+02  0.99999752590E+01 0.  0.
    3000022    2    5    5    0    0  0.88259964595E+01 -0.34085516673E+02  0.27989808764E+02  0.44980135123E+02  0.25000129328E+00 0.  0.
        -13    1    4    4    0    0 -0.84094786073E+00  0.13998121291E+01 -0.56300940565E+00  0.17305120318E+01  0.10500000000E+00 0. -1.
         13    1    4    4    0    0 -0.22454964749E+01  0.34790189547E+01 -0.13678920186E+01  0.43621073899E+01  0.10500000000E+00 0.  1.
    3000001    1    5    5    0    0  0.45246417715E+01 -0.85114831864E+01  0.14595474973E+02  0.17519863552E+02  0.10000000000E+01 0. -1.
        -13    1    6    6    0    0  0.46522980808E+01 -0.17733992836E+02  0.14618098159E+02  0.23448628918E+02  0.10500000000E+00 0. -1.
         13    1    6    6    0    0  0.41736983787E+01 -0.16351523837E+02  0.13371710604E+02  0.21531506205E+02  0.10500000000E+00 0.  1.
</event>
<event>
11    0  0.3467594E-009  0.9118800E+02  0.7816531E-02  0.1126479E+00
         25   -1    0    0    0    0  0.00000000000E+00  0.00000000000E+00  0.99999998245E-14  0.12500000000E+03  0.12500000000E+03 0.  0.
    3000001    1    3    3    0    0  0.11017926588E+02 -0.40993537054E+02  0.28933849168E+02  0.51381245743E+02  0.10000000000E+01 0. -1.
    1000022    2    1    0    0    0  0.15556083513E+02 -0.50875294689E+02  0.31240396386E+02  0.62499998176E+02  0.10000003079E+02 0.  0.
    3000022    2    3    3    0    0  0.45381569246E+01 -0.98817576358E+01  0.23065472188E+01  0.11118752432E+02  0.24998667351E+00 0.  0.
    1000022    2    1    0    0    0 -0.15556083513E+02  0.50875294689E+02 -0.31240396386E+02  0.62500001824E+02  0.10000025883E+02 0.  0.
    3000022    2    5    5    0    0 -0.14372802314E+02  0.50019972794E+02 -0.28788497668E+02  0.59476173578E+02  0.25000152788E+00 0.  0.
        -13    1    4    4    0    0  0.31979468355E+01 -0.68580821950E+01  0.15881070325E+01  0.77326104456E+01  0.10500000000E+00 0.  1.
         13    1    4    4    0    0  0.13402100891E+01 -0.30236754407E+01  0.71844018626E+00  0.33861419869E+01  0.10500000000E+00 0. -1.
    3000001    1    5    5    0    0 -0.11832811986E+01  0.85532189522E+00 -0.24518987184E+01  0.30238282466E+01  0.10000000000E+01 0.  1.
        -13    1    6    6    0    0 -0.58213055748E+01  0.20276110792E+02 -0.11596592889E+02  0.24072811616E+02  0.10500000000E+00 0. -1.
         13    1    6    6    0    0 -0.85514967396E+01  0.29743862002E+02 -0.17191904779E+02  0.35403361962E+02  0.10500000000E+00 0.  1.
</event>
<event>
11    0  0.3467594E-009  0.9118800E+02  0.7816531E-02  0.1126479E+00
         25   -1    0    0    0    0  0.00000000000E+00  0.00000000000E+00  0.99999998245E-14  0.12500000000E+03  0.12500000000E+03 0.  0.
    3000001    1    3    3    0    0 -0.37603090089E+02 -0.13597837711E+02  0.10307931692E+02  0.41305532685E+02  0.10000000000E+01 0.  1.
    1000022    2    1    0    0    0 -0.53063241503E+02 -0.23729166956E+02  0.20675323146E+02  0.62499999446E+02  0.99999990125E+01 0.  0.
    3000022    2    3    3    0    0 -0.15460151414E+02 -0.10131329245E+02  0.10367391454E+02  0.21194466760E+02  0.25000334219E+00 0.  0.
    1000022    2    1    0    0    0  0.53063241503E+02  0.23729166956E+02 -0.20675323146E+02  0.62500000554E+02  0.10000005943E+02 0.  0.
    3000022    2    5    5    0    0  0.23293823682E+02  0.87339608016E+01 -0.39405514142E+01  0.25188782001E+02  0.25000046524E+00 0.  0.
        -13    1    4    4    0    0 -0.56138756066E+01 -0.36099840908E+01  0.37338271726E+01  0.76485341614E+01  0.10500000000E+00 0. -1.
         13    1    4    4    0    0 -0.98462758077E+01 -0.65213451540E+01  0.66335642815E+01  0.13545932599E+02  0.10500000000E+00 0.  1.
    3000001    1    5    5    0    0  0.29769417821E+02  0.14995206155E+02 -0.16734771732E+02  0.37311218554E+02  0.10000000000E+01 0.  1.
        -13    1    6    6    0    0  0.16139409083E+02  0.60284639548E+01 -0.27721089288E+01  0.17450458908E+02  0.10500000000E+00 0.  1.
         13    1    6    6    0    0  0.71544145994E+01  0.27054968468E+01 -0.11684424854E+01  0.77383230929E+01  0.10500000000E+00 0. -1.
</event>
<event>
11    0  0.3467594E-009  0.9118800E+02  0.7816531E-02  0.1126479E+00
         25   -1    0    0    0    0  0.00000000000E+00  0.00000000000E+00  0.99999998245E-14  0.12500000000E+03  0.12500000000E+03 0.  0.
    3000001    1    3    3    0    0 -0.14417603996E+02 -0.28192754705E+02  0.52188816372E+02  0.61052201247E+02  0.10000000000E+01 0.  1.
    1000022    2    1    0    0    0 -0.14189192371E+02 -0.27462494116E+02  0.53392210877E+02  0.62499998295E+02  0.99999920659E+01 0.  0.
    3000022    2    3    3    0    0  0.22841162463E+00  0.73026058957E+00  0.12033945052E+01  0.14477970475E+01  0.25001111323E+00 0.  0.
    1000022    2    1    0    0    0  0.14189192371E+02  0.27462494116E+02 -0.53392210877E+02  0.62500001705E+02  0.10000013378E+02 0.  0.
    3000022    2    5    5    0    0  0.11537845574E+02  0.12317738434E+02 -0.31372992690E+02  0.35625492703E+02  0.24999883710E+00 0.  0.
        -13    1    4    4    0    0  0.37619402790E-01  0.31583715591E+00  0.45403331507E+00  0.56421589814E+00  0.10500000000E+00 0.  1.
         13    1    4    4    0    0  0.19079222184E+00  0.41442343366E+00  0.74936119015E+00  0.88358114940E+00  0.10500000000E+00 0. -1.
    3000001    1    5    5    0    0  0.26513467970E+01  0.15144755682E+02 -0.22019218187E+02  0.26874509002E+02  0.10000000000E+01 0.  1.
        -13    1    6    6    0    0  0.88109535118E+01  0.94044659672E+01 -0.23919747880E+02  0.27170613640E+02  0.10500000000E+00 0. -1.
         13    1    6    6    0    0  0.27268920622E+01  0.29132724666E+01 -0.74532448095E+01  0.84548790632E+01  0.10500000000E+00 0.  1.
</event>
<event>
11    0  0.3467594E-009  0.9118800E+02  0.7816531E-02  0.1126479E+00
         25   -1    0    0    0    0  0.00000000000E+00  0.00000000000E+00  0.99999998245E-14  0.12500000000E+03  0.12500000000E+03 0.  0.
    3000001    1    3    3    0    0 -0.20172457297E+02  0.90781243063E+01  0.15337993121E+02  0.26936859640E+02  0.10000000000E+01 0.  1.
    1000022    2    1    0    0    0 -0.38162629449E+02  0.26390497008E+02  0.40662098367E+02  0.62500005582E+02  0.99999917694E+01 0.  0.
    3000022    2    3    3    0    0 -0.17990172152E+02  0.17312372702E+02  0.25324105246E+02  0.35563145942E+02  0.25000025756E+00 0.  0.
    1000022    2    1    0    0    0  0.38162629449E+02 -0.26390497008E+02 -0.40662098367E+02  0.62499994418E+02  0.99999219939E+01 0.  0.
    3000022    2    5    5    0    0  0.37459436433E+02 -0.25426644491E+02 -0.40788127189E+02  0.60938144439E+02  0.25000038191E+00 0.  0.
        -13    1    4    4    0    0 -0.12171865844E+02  0.11715628450E+02  0.17208374297E+02  0.24115336180E+02  0.10500000000E+00 0. -1.
         13    1    4    4    0    0 -0.58183063071E+01  0.55967442512E+01  0.81157309491E+01  0.11447809762E+02  0.10500000000E+00 0.  1.
    3000001    1    5    5    0    0  0.70319301591E+00 -0.96385251685E+00  0.12602882202E+00  0.15618499787E+01  0.10000000000E+01 0. -1.
        -13    1    6    6    0    0  0.23295711418E+02 -0.15846963889E+02 -0.25311073650E+02  0.37874502100E+02  0.10500000000E+00 0.  1.
         13    1    6    6    0    0  0.14163725015E+02 -0.95796806019E+01 -0.15477053539E+02  0.23063642340E+02  0.10500000000E+00 0. -1.
</event>
<event>
11    0  0.3467594E-009  0.9118800E+02  0.7816531E-02  0.1126479E+00
         25   -1    0    0    0    0  0.00000000000E+00  0.00000000000E+00  0.99999998245E-14  0.12500000000E+03  0.12500000000E+03 0.  0.
    3000001    1    3    3    0    0 -0.19371397165E+02  0.46208211593E+02 -0.14021702537E+02  0.52039004495E+02  0.10000000000E+01 0. -1.
    1000022    2    1    0    0    0 -0.21399268400E+02  0.54067393187E+02 -0.20616462277E+02  0.62499996534E+02  0.99999677945E+01 0.  0.
    3000022    2    3    3    0    0 -0.20278712347E+01  0.78591815940E+01 -0.65947597395E+01  0.10460992040E+02  0.25000271734E+00 0.  0.
    1000022    2    1    0    0    0  0.21399268400E+02 -0.54067393187E+02  0.20616462277E+02  0.62500003466E+02  0.10000011118E+02 0.  0.
    3000022    2    5    5    0    0  0.11078253914E+01 -0.11015047581E+02  0.65258937541E+01  0.12853339501E+02  0.24999346645E+00 0.  0.
        -13    1    4    4    0    0 -0.65364301512E+00  0.23818416536E+01 -0.19718806079E+01  0.31622392360E+01  0.10500000000E+00 0.  1.
         13    1    4    4    0    0 -0.13742282196E+01  0.54773399404E+01 -0.46228791317E+01  0.72987528036E+01  0.10500000000E+00 0. -1.
    3000001    1    5    5    0    0  0.20291443009E+02 -0.43052345606E+02  0.14090568522E+02  0.49646663965E+02  0.10000000000E+01 0. -1.
        -13    1    6    6    0    0  0.36413696686E+00 -0.38362603324E+01  0.22118071969E+01  0.44443903007E+01  0.10500000000E+00 0. -1.
         13    1    6    6    0    0  0.74368842458E+00 -0.71787872484E+01  0.43140865572E+01  0.84089492003E+01  0.10500000000E+00 0.  1.
</event>
<event>
11    0  0.3467594E-009  0.9118800E+02  0.7816531E-02  0.1126479E+00
         25   -1    0    0    0    0  0.00000000000E+00  0.00000000000E+00  0.99999998245E-14  0.12500000000E+03  0.12500000000E+03 0.  0.
    3000001    1    3    3    0    0 -0.18898119984E+02 -0.43856264213E+02  0.12998021288E+02  0.49502115177E+02  0.10000000000E+01 0.  1.
    1000022    2    1    0    0    0 -0.26881614365E+02 -0.52187562615E+02  0.18975962245E+02  0.62499999416E+02  0.99999950668E+01 0.  0.
    3000022    2    3    3    0    0 -0.79834943813E+01 -0.83312984024E+01  0.59779409565E+01  0.12997884239E+02  0.25000200764E+00 0.  0.
    1000022    2    1    0    0    0  0.26881614365E+02  0.52187562615E+02 -0.18975962245E+02  0.62500000584E+02  0.10000002362E+02 0.  0.
    3000022    2    5    5    0    0  0.45674035274E+01  0.97557314295E+01  0.39784968377E+00  0.10782219389E+02  0.24999973764E+00 0.  0.
        -13    1    4    4    0    0 -0.45336132216E+01 -0.46526483008E+01  0.33229738717E+01  0.72975314597E+01  0.10500000000E+00 0.  1.
         13    1    4    4    0    0 -0.34498811597E+01 -0.36786501016E+01  0.26549670848E+01  0.57003527792E+01  0.10500000000E+00 0. -1.
    3000001    1    5    5    0    0  0.22314210838E+02  0.42431831186E+02 -0.19373811928E+02  0.51717781195E+02  0.10000000000E+01 0. -1.
        -13    1    6    6    0    0  0.25723430410E+01  0.56100661262E+01  0.27110200993E+00  0.61785363931E+01  0.10500000000E+00 0.  1.
         13    1    6    6    0    0  0.19950604864E+01  0.41456653033E+01  0.12674767383E+00  0.46036829956E+01  0.10500000000E+00 0. -1.
</event>
<event>
11    0  0.3467594E-009  0.9118800E+02  0.7816531E-02  0.1126479E+00
         25   -1    0    0    0    0  0.00000000000E+00  0.00000000000E+00  0.99999998245E-14  0.12500000000E+03  0.12500000000E+03 0.  0.
    3000001    1    3    3    0    0 -0.64842360483E+01  0.16366748162E+02  0.12937406934E+02  0.21869893935E+02  0.10000000000E+01 0. -1.
    1000022    2    1    0    0    0 -0.30228107065E+02  0.40328504678E+02  0.35582625263E+02  0.62500001012E+02  0.10000007977E+02 0.  0.
    3000022    2    3    3    0    0 -0.23743871017E+02  0.23961756516E+02  0.22645218329E+02  0.40630107077E+02  0.25000347125E+00 0.  0.
    1000022    2    1    0    0    0  0.30228107065E+02 -0.40328504678E+02 -0.35582625263E+02  0.62499998988E+02  0.99999953300E+01 0.  0.
    3000022    2    5    5    0    0  0.12998750209E+02 -0.25266147970E+02 -0.18190842182E+02  0.33738923799E+02  0.24999923037E+00 0.  0.
        -13    1    4    4    0    0 -0.11882513381E+02  0.11906905252E+02  0.11253300142E+02  0.20238979865E+02  0.10500000000E+00 0. -1.
         13    1    4    4    0    0 -0.11861357637E+02  0.12054851264E+02  0.11391918188E+02  0.20391127212E+02  0.10500000000E+00 0.  1.
    3000001    1    5    5    0    0  0.17229356856E+02 -0.15062356708E+02 -0.17391783081E+02  0.28761075189E+02  0.10000000000E+01 0. -1.
        -13    1    6    6    0    0  0.41769228172E+01 -0.82305223738E+01 -0.59191938107E+01  0.10965220615E+02  0.10500000000E+00 0. -1.
         13    1    6    6    0    0  0.88218273918E+01 -0.17035625596E+02 -0.12271648371E+02  0.22773703184E+02  0.10500000000E+00 0.  1.
</event>
<event>
11    0  0.3467594E-009  0.9118800E+02  0.7816531E-02  0.1126479E+00
         25   -1    0    0    0    0  0.00000000000E+00  0.00000000000E+00  0.99999998245E-14  0.12500000000E+03  0.12500000000E+03 0.  0.
    3000001    1    3    3    0    0 -0.19113671484E+01 -0.26753794544E+01 -0.20915366775E+01  0.40231213347E+01  0.10000000000E+01 0.  1.
    1000022    2    1    0    0    0 -0.14930354105E+02 -0.59528465532E+02 -0.63005014576E+01  0.62499999601E+02  0.99999974610E+01 0.  0.
    3000022    2    3    3    0    0 -0.13018986956E+02 -0.56853086078E+02 -0.42089647802E+01  0.58476878267E+02  0.24997865301E+00 0.  0.
    1000022    2    1    0    0    0  0.14930354105E+02  0.59528465532E+02  0.63005014576E+01  0.62500000399E+02  0.10000002445E+02 0.  0.
    3000022    2    5    5    0    0  0.85601583821E+00  0.16328223172E+01 -0.15152288063E+01  0.23994335088E+01  0.24998198490E+00 0.  0.
        -13    1    4    4    0    0 -0.56286810626E+01 -0.24670587253E+02 -0.17633517368E+01  0.25366126237E+02  0.10500000000E+00 0.  1.
         13    1    4    4    0    0 -0.73903058935E+01 -0.32182498825E+02 -0.24456130434E+01  0.33110752030E+02  0.10500000000E+00 0. -1.
    3000001    1    5    5    0    0  0.14074338266E+02  0.57895643215E+02  0.78157302640E+01  0.60100566890E+02  0.10000000000E+01 0. -1.
        -13    1    6    6    0    0  0.37622637326E+00  0.72293339039E+00 -0.58598616673E+00  0.10092491063E+01  0.10500000000E+00 0. -1.
         13    1    6    6    0    0  0.47978946496E+00  0.90988892678E+00 -0.92924263959E+00  0.13901844025E+01  0.10500000000E+00 0.  1.
</event>
<event>
11    0  0.3467594E-009  0.9118800E+02  0.7816531E-02  0.1126479E+00
         25   -1    0    0    0    0  0.00000000000E+00  0.00000000000E+00  0.99999998245E-14  0.12500000000E+03  0.12500000000E+03 0.  0.
    3000001    1    3    3    0    0 -0.60151283362E+01  0.54864097682E+01  0.48001806925E+02  0.48697596749E+02  0.10000000000E+01 0.  1.
    1000022    2    1    0    0    0 -0.94430941938E+01  0.11708644636E+02  0.59832980943E+02  0.62499999980E+02  0.10000000093E+02 0.  0.
    3000022    2    3    3    0    0 -0.34279658576E+01  0.62222348680E+01  0.11831174017E+02  0.13802403231E+02  0.24999929773E+00 0.  0.
    1000022    2    1    0    0    0  0.94430941938E+01 -0.11708644636E+02 -0.59832980943E+02  0.62500000020E+02  0.10000000343E+02 0.  0.
    3000022    2    5    5    0    0  0.49656614939E+01 -0.11573853024E+01 -0.31648630961E+02  0.32057692929E+02  0.24999888828E+00 0.  0.
        -13    1    4    4    0    0 -0.15742160924E+01  0.27201616334E+01  0.52293511545E+01  0.61020139392E+01  0.10500000000E+00 0. -1.
         13    1    4    4    0    0 -0.18537497653E+01  0.35020732346E+01  0.66018228630E+01  0.77003892919E+01  0.10500000000E+00 0.  1.
    3000001    1    5    5    0    0  0.44774326999E+01 -0.10551259334E+02 -0.28184349982E+02  0.30442307091E+02  0.10000000000E+01 0.  1.
        -13    1    6    6    0    0  0.11983162128E+01 -0.26752746296E+00 -0.75355934564E+01  0.76356876854E+01  0.10500000000E+00 0. -1.
         13    1    6    6    0    0  0.37673452811E+01 -0.88985783946E+00 -0.24113037504E+02  0.24422005244E+02  0.10500000000E+00 0.  1.
</event>
<event>
11    0  0.3467594E-009  0.9118800E+02  0.7816531E-02  0.1126479E+00
         25   -1    0    0    0    0  0.00000000000E+00  0.00000000000E+00  0.99999998245E-14  0.12500000000E+03  0.12500000000E+03 0.  0.
    3000001    1    3    3    0    0  0.38611109284E+02 -0.24896478791E+02 -0.73741603250E+01  0.46540634469E+02  0.10000000000E+01 0. -1.
    1000022    2    1    0    0    0  0.49077346986E+02 -0.36878313878E+02 -0.61362900747E+01  0.62499999357E+02  0.99999921084E+01 0.  0.
    3000022    2    3    3    0    0  0.10466237702E+02 -0.11981835087E+02  0.12378702503E+01  0.15959364888E+02  0.25000237723E+00 0.  0.
    1000022    2    1    0    0    0 -0.49077346986E+02  0.36878313878E+02  0.61362900747E+01  0.62500000643E+02  0.10000000145E+02 0.  0.
    3000022    2    5    5    0    0 -0.35260214513E+02  0.22058061405E+02  0.11432596180E+01  0.41607815830E+02  0.24999026992E+00 0.  0.
        -13    1    4    4    0    0  0.34321630192E+01 -0.38521295827E+01  0.39132622324E+00  0.51752107711E+01  0.10500000000E+00 0.  1.
         13    1    4    4    0    0  0.70340746824E+01 -0.81297055042E+01  0.84654402704E+00  0.10784154117E+02  0.10500000000E+00 0. -1.
    3000001    1    5    5    0    0 -0.13817132472E+02  0.14820252473E+02  0.49930304567E+01  0.20892184813E+02  0.10000000000E+01 0. -1.
        -13    1    6    6    0    0 -0.23399761252E+02  0.14593717682E+02  0.79681137009E+00  0.27589334095E+02  0.10500000000E+00 0.  1.
         13    1    6    6    0    0 -0.11860453261E+02  0.74643437221E+01  0.34644824795E+00  0.14018481734E+02  0.10500000000E+00 0. -1.
</event>
<event>
11    0  0.3467594E-009  0.9118800E+02  0.7816531E-02  0.1126479E+00
         25   -1    0    0    0    0  0.00000000000E+00  0.00000000000E+00  0.99999998245E-14  0.12500000000E+03  0.12500000000E+03 0.  0.
    3000001    1    3    3    0    0 -0.64297595570E+00 -0.10674985086E+02 -0.86460181664E+01  0.13788486313E+02  0.10000000000E+01 0.  1.
    1000022    2    1    0    0    0 -0.67361898592E+01 -0.56730612005E+02 -0.23291874163E+02  0.62500000590E+02  0.10000003969E+02 0.  0.
    3000022    2    3    3    0    0 -0.60932139035E+01 -0.46055626919E+02 -0.14645855997E+02  0.48711514277E+02  0.24999736113E+00 0.  0.
    1000022    2    1    0    0    0  0.67361898592E+01  0.56730612005E+02  0.23291874163E+02  0.62499999410E+02  0.99999965966E+01 0.  0.
    3000022    2    5    5    0    0  0.39562813955E+01  0.29976234333E+02  0.17604614785E+02  0.34988737445E+02  0.24999795876E+00 0.  0.
        -13    1    4    4    0    0 -0.31975859157E+01 -0.23653028967E+02 -0.75215533637E+01  0.25025489506E+02  0.10500000000E+00 0.  1.
         13    1    4    4    0    0 -0.28956279878E+01 -0.22402597952E+02 -0.71243026332E+01  0.23686024771E+02  0.10500000000E+00 0. -1.
    3000001    1    5    5    0    0  0.27799084637E+01  0.26754377672E+02  0.56872593779E+01  0.27511261965E+02  0.10000000000E+01 0.  1.
        -13    1    6    6    0    0  0.22298986406E+01  0.16757571892E+02  0.99164853703E+01  0.19599397204E+02  0.10500000000E+00 0.  1.
         13    1    6    6    0    0  0.17263827549E+01  0.13218662442E+02  0.76881294151E+01  0.15389340241E+02  0.10500000000E+00 0. -1.
</event>
<event>
11    0  0.3467594E-009  0.9118800E+02  0.7816531E-02  0.1126479E+00
         25   -1    0    0    0    0  0.00000000000E+00  0.00000000000E+00  0.99999998245E-14  0.12500000000E+03  0.12500000000E+03 0.  0.
    3000001    1    3    3    0    0  0.51215438458E+00 -0.17018810250E+02  0.94490836708E+01  0.19498394464E+02  0.10000000000E+01 0.  1.
    1000022    2    1    0    0    0 -0.56520745995E+00 -0.45567545604E+02  0.41587607167E+02  0.62500001949E+02  0.10000025096E+02 0.  0.
    3000022    2    3    3    0    0 -0.10773618445E+01 -0.28548735354E+02  0.32138523496E+02  0.43001607486E+02  0.25010991786E+00 0.  0.
    1000022    2    1    0    0    0  0.56520745995E+00  0.45567545604E+02 -0.41587607167E+02  0.62499998051E+02  0.10000000732E+02 0.  0.
    3000022    2    5    5    0    0  0.34472685462E+01  0.14293500036E+02 -0.90530124377E+01  0.17268680841E+02  0.25000019983E+00 0.  0.
        -13    1    4    4    0    0 -0.30122073613E+00 -0.80950371280E+01  0.90518645738E+01  0.12147742066E+02  0.10500000000E+00 0. -1.
         13    1    4    4    0    0 -0.77614110841E+00 -0.20453698226E+02  0.23086658923E+02  0.30853865420E+02  0.10500000000E+00 0.  1.
    3000001    1    5    5    0    0 -0.28820610863E+01  0.31274045568E+02 -0.32534594730E+02  0.45231317210E+02  0.10000000000E+01 0.  1.
        -13    1    6    6    0    0  0.23446111860E+01  0.99156960067E+01 -0.62896346351E+01  0.11974504489E+02  0.10500000000E+00 0.  1.
         13    1    6    6    0    0  0.11026573602E+01  0.43778040290E+01 -0.27633778026E+01  0.52941763524E+01  0.10500000000E+00 0. -1.
</event>
<event>
11    0  0.3467594E-009  0.9118800E+02  0.7816531E-02  0.1126479E+00
         25   -1    0    0    0    0  0.00000000000E+00  0.00000000000E+00  0.99999998245E-14  0.12500000000E+03  0.12500000000E+03 0.  0.
    3000001    1    3    3    0    0 -0.30223640787E+01  0.13584189212E+02  0.20119463191E+02  0.24483824870E+02  0.10000000000E+01 0. -1.
    1000022    2    1    0    0    0  0.15893253018E+01  0.40845712954E+02  0.46209862641E+02  0.62500002993E+02  0.10000037359E+02 0.  0.
    3000022    2    3    3    0    0  0.46116893804E+01  0.27261523742E+02  0.26090399449E+02  0.38016178122E+02  0.24999986487E+00 0.  0.
    1000022    2    1    0    0    0 -0.15893253018E+01 -0.40845712954E+02 -0.46209862641E+02  0.62499997007E+02  0.99999999531E+01 0.  0.
    3000022    2    5    5    0    0 -0.19687117656E+01 -0.61424515937E+01 -0.12702354542E+02  0.14248433488E+02  0.25001670486E+00 0.  0.
        -13    1    4    4    0    0  0.20784753074E+01  0.12359931642E+02  0.11736801718E+02  0.17171240764E+02  0.10500000000E+00 0. -1.
         13    1    4    4    0    0  0.25332140730E+01  0.14901592100E+02  0.14353597732E+02  0.20844937359E+02  0.10500000000E+00 0.  1.
    3000001    1    5    5    0    0  0.37938646386E+00 -0.34703261360E+02 -0.33507508099E+02  0.48251563520E+02  0.10000000000E+01 0.  1.
        -13    1    6    6    0    0 -0.12583925424E+01 -0.37317276210E+01 -0.77131936172E+01  0.86610463343E+01  0.10500000000E+00 0. -1.
         13    1    6    6    0    0 -0.71031922324E+00 -0.24107239727E+01 -0.49891609245E+01  0.55873871534E+01  0.10500000000E+00 0.  1.
</event>
<event>
11    0  0.3467594E-009  0.9118800E+02  0.7816531E-02  0.1126479E+00
         25   -1    0    0    0    0  0.00000000000E+00  0.00000000000E+00  0.99999998245E-14  0.12500000000E+03  0.12500000000E+03 0.  0.
    3000001    1    3    3    0    0 -0.37702239928E+02  0.20131868255E+02  0.24191586585E+02  0.49122132247E+02  0.10000000000E+01 0. -1.
    1000022    2    1    0    0    0 -0.47935385748E+02  0.28445181848E+02  0.26444668169E+02  0.62499999448E+02  0.99999939657E+01 0.  0.
    3000022    2    3    3    0    0 -0.10233145820E+02  0.83133135929E+01  0.22530815839E+01  0.13377867201E+02  0.24999591549E+00 0.  0.
    1000022    2    1    0    0    0  0.47935385748E+02 -0.28445181848E+02 -0.26444668169E+02  0.62500000552E+02  0.10000000861E+02 0.  0.
    3000022    2    5    5    0    0  0.47589278939E+02 -0.27161628365E+02 -0.26429392194E+02  0.60836410211E+02  0.25002055081E+00 0.  0.
        -13    1    4    4    0    0 -0.64233041539E+01  0.51406529139E+01  0.14094919742E+01  0.83476248874E+01  0.10500000000E+00 0. -1.
         13    1    4    4    0    0 -0.38098416663E+01  0.31726606789E+01  0.84358960964E+00  0.50302423138E+01  0.10500000000E+00 0.  1.
    3000001    1    5    5    0    0  0.34610680950E+00 -0.12835534828E+01 -0.15275975263E-01  0.16635903409E+01  0.10000000000E+01 0. -1.
        -13    1    6    6    0    0  0.36492372591E+02 -0.20821025253E+02 -0.20252716877E+02  0.46641096855E+02  0.10500000000E+00 0. -1.
         13    1    6    6    0    0  0.11096906347E+02 -0.63406031124E+01 -0.61766753164E+01  0.14195313356E+02  0.10500000000E+00 0.  1.
</event>
<event>
11    0  0.3467594E-009  0.9118800E+02  0.7816531E-02  0.1126479E+00
         25   -1    0    0    0    0  0.00000000000E+00  0.00000000000E+00  0.99999998245E-14  0.12500000000E+03  0.12500000000E+03 0.  0.
    3000001    1    3    3    0    0 -0.16622191488E+01  0.27971673371E+01 -0.86483596225E-02  0.34039965341E+01  0.10000000000E+01 0.  1.
    1000022    2    1    0    0    0 -0.27388134182E+02  0.41852423264E+02  0.36118065743E+02  0.62500000561E+02  0.10000008503E+02 0.  0.
    3000022    2    3    3    0    0 -0.25725915033E+02  0.39055255927E+02  0.36126714102E+02  0.59096004026E+02  0.25000054554E+00 0.  0.
    1000022    2    1    0    0    0  0.27388134182E+02 -0.41852423264E+02 -0.36118065743E+02  0.62499999439E+02  0.10000001497E+02 0.  0.
    3000022    2    5    5    0    0  0.22071013007E+02 -0.36249947012E+02 -0.34129634701E+02  0.54461754871E+02  0.25001051126E+00 0.  0.
        -13    1    4    4    0    0 -0.13664178311E+02  0.20631925751E+02  0.19081644305E+02  0.31249100843E+02  0.10500000000E+00 0.  1.
         13    1    4    4    0    0 -0.12061736721E+02  0.18423330175E+02  0.17045069797E+02  0.27846903183E+02  0.10500000000E+00 0. -1.
    3000001    1    5    5    0    0  0.53171211745E+01 -0.56024762515E+01 -0.19884310416E+01  0.80382445683E+01  0.10000000000E+01 0. -1.
        -13    1    6    6    0    0  0.13053579295E+02 -0.21396062705E+02 -0.20232291687E+02  0.32210931119E+02  0.10500000000E+00 0.  1.
         13    1    6    6    0    0  0.90174337118E+01 -0.14853884307E+02 -0.13897343015E+02  0.22250823752E+02  0.10500000000E+00 0. -1.
</event>
<event>
11    0  0.3467594E-009  0.9118800E+02  0.7816531E-02  0.1126479E+00
         25   -1    0    0    0    0  0.00000000000E+00  0.00000000000E+00  0.99999998245E-14  0.12500000000E+03  0.12500000000E+03 0.  0.
    3000001    1    3    3    0    0  0.35175391247E+01  0.20606109459E+01 -0.77032323711E+00  0.42676219202E+01  0.10000000000E+01 0.  1.
    1000022    2    1    0    0    0  0.50786794737E+02  0.53101482416E+01 -0.34623023822E+02  0.62499999939E+02  0.10000000988E+02 0.  0.
    3000022    2    3    3    0    0  0.47269255612E+02  0.32495372957E+01 -0.33852700585E+02  0.58232378018E+02  0.24998806582E+00 0.  0.
    1000022    2    1    0    0    0 -0.50786794737E+02 -0.53101482416E+01  0.34623023822E+02  0.62500000061E+02  0.10000001756E+02 0.  0.
    3000022    2    5    5    0    0 -0.63086091559E+01  0.19695699371E+01  0.69946007342E+01  0.96262537251E+01  0.25013222611E+00 0.  0.
        -13    1    4    4    0    0  0.22526917792E+02  0.15252754459E+01 -0.16209863185E+02  0.27794948820E+02  0.10500000000E+00 0. -1.
         13    1    4    4    0    0  0.24742337820E+02  0.17242618498E+01 -0.17642837400E+02  0.30437429199E+02  0.10500000000E+00 0.  1.
    3000001    1    5    5    0    0 -0.44478185581E+02 -0.72797181787E+01  0.27628423088E+02  0.52873746336E+02  0.10000000000E+01 0. -1.
        -13    1    6    6    0    0 -0.16472573337E+01  0.53474127874E+00  0.17967820580E+01  0.24977701500E+01  0.10500000000E+00 0. -1.
         13    1    6    6    0    0 -0.46613518223E+01  0.14348286583E+01  0.51978186762E+01  0.71284835751E+01  0.10500000000E+00 0.  1.
</event>
<event>
11    0  0.3467594E-009  0.9118800E+02  0.7816531E-02  0.1126479E+00
         25   -1    0    0    0    0  0.00000000000E+00  0.00000000000E+00  0.99999998245E-14  0.12500000000E+03  0.12500000000E+03 0.  0.
    3000001    1    3    3    0    0 -0.33593389756E+02  0.84005986635E+01 -0.99721236050E+01  0.36048982543E+02  0.10000000000E+01 0.  1.
    1000022    2    1    0    0    0 -0.55628424973E+02  0.10763615176E+02 -0.24410509239E+02  0.62499995802E+02  0.99999718697E+01 0.  0.
    3000022    2    3    3    0    0 -0.22035035217E+02  0.23630165127E+01 -0.14438385634E+02  0.26451013259E+02  0.24999737474E+00 0.  0.
    1000022    2    1    0    0    0  0.55628424973E+02 -0.10763615176E+02  0.24410509239E+02  0.62500004198E+02  0.10000024340E+02 0.  0.
    3000022    2    5    5    0    0  0.52606381572E+02 -0.11723938739E+02  0.21321548975E+02  0.57961651724E+02  0.24999650920E+00 0.  0.
        -13    1    4    4    0    0 -0.11945024080E+02  0.12495925682E+01 -0.78954522906E+01  0.14373387692E+02  0.10500000000E+00 0.  1.
         13    1    4    4    0    0 -0.10090011137E+02  0.11134239445E+01 -0.65429333434E+01  0.12077625568E+02  0.10500000000E+00 0. -1.
    3000001    1    5    5    0    0  0.30220434005E+01  0.96032356232E+00  0.30889602644E+01  0.45383524735E+01  0.10000000000E+01 0.  1.
        -13    1    6    6    0    0  0.32039166584E+02 -0.72009927203E+01  0.13010693437E+02  0.35322112907E+02  0.10500000000E+00 0. -1.
         13    1    6    6    0    0  0.20567214988E+02 -0.45229460182E+01  0.83108555377E+01  0.22639538817E+02  0.10500000000E+00 0.  1.
</event>
<event>
11    0  0.3467594E-009  0.9118800E+02  0.7816531E-02  0.1126479E+00
         25   -1    0    0    0    0  0.00000000000E+00  0.00000000000E+00  0.99999998245E-14  0.12500000000E+03  0.12500000000E+03 0.  0.
    3000001    1    3    3    0    0 -0.22133580121E+02  0.67069966648E+01 -0.60324006583E+01  0.23922145199E+02  0.10000000000E+01 0.  1.
    1000022    2    1    0    0    0 -0.51913427659E+02  0.28444758361E+02 -0.17382229747E+02  0.62499997934E+02  0.99999790621E+01 0.  0.
    3000022    2    3    3    0    0 -0.29779847539E+02  0.21737761696E+02 -0.11349829089E+02  0.38577852735E+02  0.24999665964E+00 0.  0.
    1000022    2    1    0    0    0  0.51913427659E+02 -0.28444758361E+02  0.17382229747E+02  0.62500002066E+02  0.10000004884E+02 0.  0.
    3000022    2    5    5    0    0  0.17323373663E+02 -0.14067907806E+02  0.92328792829E+01  0.24151891547E+02  0.25000071052E+00 0.  0.
        -13    1    4    4    0    0 -0.17212447930E+02  0.12526084356E+02 -0.66130256709E+01  0.22291574340E+02  0.10500000000E+00 0. -1.
         13    1    4    4    0    0 -0.12567399609E+02  0.92116773402E+01 -0.47368034179E+01  0.16286278395E+02  0.10500000000E+00 0.  1.
    3000001    1    5    5    0    0  0.34590053996E+02 -0.14376850555E+02  0.81493504642E+01  0.38348110518E+02  0.10000000000E+01 0. -1.
        -13    1    6    6    0    0  0.72409265769E+01 -0.59588152550E+01  0.38561844803E+01  0.10140003978E+02  0.10500000000E+00 0. -1.
         13    1    6    6    0    0  0.10082447087E+02 -0.81090925505E+01  0.53766948026E+01  0.14011887569E+02  0.10500000000E+00 0.  1.
</event>
<event>
11    0  0.3467594E-009  0.9118800E+02  0.7816531E-02  0.1126479E+00
         25   -1    0    0    0    0  0.00000000000E+00  0.00000000000E+00  0.99999998245E-14  0.12500000000E+03  0.12500000000E+03 0.  0.
    3000001    1    3    3    0    0 -0.13432950608E+02 -0.40381977966E+01 -0.30748567308E+01  0.14394649958E+02  0.10000000000E+01 0. -1.
    1000022    2    1    0    0    0 -0.60808520207E+02 -0.79326059114E-01 -0.10419566874E+02  0.62499998183E+02  0.99999988304E+01 0.  0.
    3000022    2    3    3    0    0 -0.47375569599E+02  0.39588717375E+01 -0.73447101430E+01  0.48105348225E+02  0.25000105271E+00 0.  0.
    1000022    2    1    0    0    0  0.60808520207E+02  0.79326059114E-01  0.10419566874E+02  0.62500001817E+02  0.10000021544E+02 0.  0.
    3000022    2    5    5    0    0  0.29804507386E+02 -0.39895376234E+01  0.80188816509E+01  0.31122179200E+02  0.25000844658E+00 0.  0.
        -13    1    4    4    0    0 -0.24256867689E+02  0.20487266887E+01 -0.38258215263E+01  0.24642257333E+02  0.10500000000E+00 0.  1.
         13    1    4    4    0    0 -0.23118701910E+02  0.19101450488E+01 -0.35188886167E+01  0.23463090892E+02  0.10500000000E+00 0. -1.
    3000001    1    5    5    0    0  0.31004012821E+02  0.40688636825E+01  0.24006852229E+01  0.31377822617E+02  0.10000000000E+01 0.  1.
        -13    1    6    6    0    0  0.95692080698E+01 -0.12348213490E+01  0.25497040419E+01  0.99803077382E+01  0.10500000000E+00 0.  1.
         13    1    6    6    0    0  0.20235299316E+02 -0.27547162744E+01  0.54691776090E+01  0.21141871462E+02  0.10500000000E+00 0. -1.
</event>
<event>
11    0  0.3467594E-009  0.9118800E+02  0.7816531E-02  0.1126479E+00
         25   -1    0    0    0    0  0.00000000000E+00  0.00000000000E+00  0.99999998245E-14  0.12500000000E+03  0.12500000000E+03 0.  0.
    3000001    1    3    3    0    0 -0.47697620173E+02  0.83768612169E+01  0.34785124171E+02  0.59634215327E+02  0.10000000000E+01 0. -1.
    1000022    2    1    0    0    0 -0.50369489907E+02  0.73735655631E+01  0.34853908233E+02  0.62499999446E+02  0.10000001450E+02 0.  0.
    3000022    2    3    3    0    0 -0.26718697335E+01 -0.10032956539E+01  0.68784062312E-01  0.28657841191E+01  0.24999465600E+00 0.  0.
    1000022    2    1    0    0    0  0.50369489907E+02 -0.73735655631E+01 -0.34853908233E+02  0.62500000554E+02  0.10000008379E+02 0.  0.
    3000022    2    5    5    0    0  0.10100094005E+02  0.86845855955E+00 -0.11018065650E+02  0.14974190728E+02  0.24999625564E+00 0.  0.
        -13    1    4    4    0    0 -0.94631968475E+00 -0.37901490296E+00  0.77960580518E-01  0.10277529346E+01  0.10500000000E+00 0. -1.
         13    1    4    4    0    0 -0.17255500488E+01 -0.62428075089E+00 -0.91765182055E-02  0.18380311845E+01  0.10500000000E+00 0. -1.
    3000001    1    5    5    0    0  0.40269395902E+02 -0.82420241226E+01 -0.23835842583E+02  0.47525809826E+02  0.10000000000E+01 0. -1.
        -13    1    6    6    0    0  0.77494389969E+01  0.67105832040E+00 -0.84682191528E+01  0.11498951459E+02  0.10500000000E+00 0. -1.
         13    1    6    6    0    0  0.23506550076E+01  0.19740023916E+00 -0.25498464974E+01  0.34752392694E+01  0.10500000000E+00 0.  1.
</event>
<event>
11    0  0.3467594E-009  0.9118800E+02  0.7816531E-02  0.1126479E+00
         25   -1    0    0    0    0  0.00000000000E+00  0.00000000000E+00  0.99999998245E-14  0.12500000000E+03  0.12500000000E+03 0.  0.
    3000001    1    3    3    0    0  0.91737701016E+01  0.11910468788E+02 -0.95274926865E+01  0.17826677803E+02  0.10000000000E+01 0.  1.
    1000022    2    1    0    0    0  0.21123668025E+02  0.38075589270E+02 -0.43706866723E+02  0.62499999851E+02  0.99999966757E+01 0.  0.
    3000022    2    3    3    0    0  0.11949897924E+02  0.26165120482E+02 -0.34179374036E+02  0.44673322047E+02  0.25000595188E+00 0.  0.
    1000022    2    1    0    0    0 -0.21123668025E+02 -0.38075589270E+02  0.43706866723E+02  0.62500000149E+02  0.99999985439E+01 0.  0.
    3000022    2    5    5    0    0 -0.74350255938E+01 -0.22429292503E+02  0.20048634809E+02  0.30989724502E+02  0.24999840305E+00 0.  0.
        -13    1    4    4    0    0  0.91389785023E+01  0.20017689459E+02 -0.26124589249E+02  0.34157488312E+02  0.10500000000E+00 0. -1.
         13    1    4    4    0    0  0.28109194214E+01  0.61474310229E+01 -0.80547847870E+01  0.10515833735E+02  0.10500000000E+00 0.  1.
    3000001    1    5    5    0    0 -0.13688642431E+02 -0.15646296767E+02  0.23658231914E+02  0.31510275648E+02  0.10000000000E+01 0.  1.
        -13    1    6    6    0    0 -0.30131862241E+01 -0.92207286483E+01  0.81663468055E+01  0.12680748132E+02  0.10500000000E+00 0.  1.
         13    1    6    6    0    0 -0.44218393698E+01 -0.13208563855E+02  0.11882288004E+02  0.18308976370E+02  0.10500000000E+00 0. -1.
</event>
<event>
11    0  0.3467594E-009  0.9118800E+02  0.7816531E-02  0.1126479E+00
         25   -1    0    0    0    0  0.00000000000E+00  0.00000000000E+00  0.99999998245E-14  0.12500000000E+03  0.12500000000E+03 0.  0.
    3000001    1    3    3    0    0  0.22593468254E+02  0.49377582193E+01 -0.20563894795E+02  0.30963204503E+02  0.10000000000E+01 0.  1.
    1000022    2    1    0    0    0  0.43893679034E+02  0.30582347910E+00 -0.43353217194E+02  0.62500000546E+02  0.10000002000E+02 0.  0.
    3000022    2    3    3    0    0  0.21300210780E+02 -0.46319347402E+01 -0.22789322399E+02  0.31536796043E+02  0.24998100557E+00 0.  0.
    1000022    2    1    0    0    0 -0.43893679034E+02 -0.30582347910E+00  0.43353217194E+02  0.62499999454E+02  0.99999951769E+01 0.  0.
    3000022    2    5    5    0    0 -0.96734537323E+01 -0.14004926768E+01  0.15620254034E+02  0.18428020080E+02  0.25000222492E+00 0.  0.
        -13    1    4    4    0    0  0.15369483186E+02 -0.33063781472E+01 -0.16409794527E+02  0.22725437978E+02  0.10500000000E+00 0.  1.
         13    1    4    4    0    0  0.59307275940E+01 -0.13255565930E+01 -0.63795278721E+01  0.88113580648E+01  0.10500000000E+00 0. -1.
    3000001    1    5    5    0    0 -0.34220225302E+02  0.10946691977E+01  0.27732963160E+02  0.44071979374E+02  0.10000000000E+01 0. -1.
        -13    1    6    6    0    0 -0.72118613869E+01 -0.10671951732E+01  0.11680941698E+02  0.13769723096E+02  0.10500000000E+00 0. -1.
         13    1    6    6    0    0 -0.24615923454E+01 -0.33329750353E+00  0.39393123365E+01  0.46582969834E+01  0.10500000000E+00 0.  1.
</event>
<event>
11    0  0.3467594E-009  0.9118800E+02  0.7816531E-02  0.1126479E+00
         25   -1    0    0    0    0  0.00000000000E+00  0.00000000000E+00  0.99999998245E-14  0.12500000000E+03  0.12500000000E+03 0.  0.
    3000001    1    3    3    0    0  0.34480932869E+01  0.46776241039E+00  0.45896766339E+00  0.36494931571E+01  0.10000000000E+01 0.  1.
    1000022    2    1    0    0    0  0.50860896406E+02  0.26790722594E+02 -0.22398138918E+02  0.62499998335E+02  0.99999782326E+01 0.  0.
    3000022    2    3    3    0    0  0.47412803119E+02  0.26322960183E+02 -0.22857106581E+02  0.58850505178E+02  0.25001214863E+00 0.  0.
    1000022    2    1    0    0    0 -0.50860896406E+02 -0.26790722594E+02  0.22398138918E+02  0.62500001665E+02  0.99999990412E+01 0.  0.
    3000022    2    5    5    0    0 -0.49354698935E+01 -0.16337811109E+01  0.52438870917E+01  0.73884342690E+01  0.25001065798E+00 0.  0.
        -13    1    4    4    0    0  0.30224589428E+02  0.16792500553E+02 -0.14635700170E+02  0.37546353024E+02  0.10500000000E+00 0. -1.
         13    1    4    4    0    0  0.17188213690E+02  0.95304596297E+01 -0.82214064110E+01  0.21304152154E+02  0.10500000000E+00 0.  1.
    3000001    1    5    5    0    0 -0.45925426512E+02 -0.25156941483E+02  0.17154251826E+02  0.55111567396E+02  0.10000000000E+01 0. -1.
        -13    1    6    6    0    0 -0.13597227583E+01 -0.41179492806E+00  0.14233908245E+01  0.20138240939E+01  0.10500000000E+00 0.  1.
         13    1    6    6    0    0 -0.35757471352E+01 -0.12219861828E+01  0.38204962672E+01  0.53746101750E+01  0.10500000000E+00 0. -1.
</event>
<event>
11    0  0.3467594E-009  0.9118800E+02  0.7816531E-02  0.1126479E+00
         25   -1    0    0    0    0  0.00000000000E+00  0.00000000000E+00  0.99999998245E-14  0.12500000000E+03  0.12500000000E+03 0.  0.
    3000001    1    3    3    0    0  0.30513649040E+02 -0.43238780940E+02  0.63924630403E+01  0.53315462472E+02  0.10000000000E+01 0.  1.
    1000022    2    1    0    0    0  0.36692304487E+02 -0.48408326950E+02  0.10796238861E+02  0.62500000088E+02  0.99999955412E+01 0.  0.
    3000022    2    3    3    0    0  0.61786554471E+01 -0.51695460100E+01  0.44037758208E+01  0.91845376160E+01  0.25000131378E+00 0.  0.
    1000022    2    1    0    0    0 -0.36692304487E+02  0.48408326950E+02 -0.10796238861E+02  0.62499999912E+02  0.99999944374E+01 0.  0.
    3000022    2    5    5    0    0 -0.30159382786E+02  0.43598845272E+02 -0.11658063023E+02  0.54280941520E+02  0.24999952765E+00 0.  0.
        -13    1    4    4    0    0  0.46140031572E+01 -0.38562383479E+01  0.33182575756E+01  0.68688760120E+01  0.10500000000E+00 0. -1.
         13    1    4    4    0    0  0.15646522899E+01 -0.13133076621E+01  0.10855182452E+01  0.23156616040E+01  0.10500000000E+00 0.  1.
    3000001    1    5    5    0    0 -0.65329217005E+01  0.48094816784E+01  0.86182416205E+00  0.82190583917E+01  0.10000000000E+01 0. -1.
        -13    1    6    6    0    0 -0.21299509960E+02  0.30866941915E+02 -0.82405974005E+01  0.38397339729E+02  0.10500000000E+00 0. -1.
         13    1    6    6    0    0 -0.88598728260E+01  0.12731903357E+02 -0.34174656227E+01  0.15883601791E+02  0.10500000000E+00 0.  1.
</event>
<event>
11    0  0.3467594E-009  0.9118800E+02  0.7816531E-02  0.1126479E+00
         25   -1    0    0    0    0  0.00000000000E+00  0.00000000000E+00  0.99999998245E-14  0.12500000000E+03  0.12500000000E+03 0.  0.
    3000001    1    3    3    0    0 -0.16145385794E+02  0.29651263535E+02 -0.31971163443E+02  0.46508345526E+02  0.10000000000E+01 0.  1.
    1000022    2    1    0    0    0 -0.24986996767E+02  0.35183621577E+02 -0.44090958700E+02  0.62500001866E+02  0.10000017969E+02 0.  0.
    3000022    2    3    3    0    0 -0.88416109728E+01  0.55323580421E+01 -0.12119795257E+02  0.15991656340E+02  0.25013058258E+00 0.  0.
    1000022    2    1    0    0    0  0.24986996767E+02 -0.35183621577E+02  0.44090958700E+02  0.62499998134E+02  0.99999946489E+01 0.  0.
    3000022    2    5    5    0    0  0.27195998652E+01 -0.36959042977E+00  0.43998729239E+01  0.51917437585E+01  0.25000198976E+00 0.  0.
        -13    1    4    4    0    0 -0.37134720669E+01  0.23149327345E+01 -0.51843724948E+01  0.67850962795E+01  0.10500000000E+00 0. -1.
         13    1    4    4    0    0 -0.51281389059E+01  0.32174253076E+01 -0.69354227624E+01  0.92065600602E+01  0.10500000000E+00 0.  1.
    3000001    1    5    5    0    0  0.22267396902E+02 -0.34814031147E+02  0.39691085777E+02  0.57308254376E+02  0.10000000000E+01 0.  1.
        -13    1    6    6    0    0  0.16134729019E+01 -0.25733569726E+00  0.27114690078E+01  0.31674288701E+01  0.10500000000E+00 0. -1.
         13    1    6    6    0    0  0.11061269632E+01 -0.11225473252E+00  0.16884039161E+01  0.20243148884E+01  0.10500000000E+00 0.  1.
</event>
<event>
11    0  0.3467594E-009  0.9118800E+02  0.7816531E-02  0.1126479E+00
         25   -1    0    0    0    0  0.00000000000E+00  0.00000000000E+00  0.99999998245E-14  0.12500000000E+03  0.12500000000E+03 0.  0.
    3000001    1    3    3    0    0  0.11287284885E+02 -0.11372206484E+02 -0.49472010511E+02  0.52011630473E+02  0.10000000000E+01 0. -1.
    1000022    2    1    0    0    0  0.14930002081E+02 -0.17321456478E+02 -0.57300193542E+02  0.62500000979E+02  0.10000006287E+02 0.  0.
    3000022    2    3    3    0    0  0.36427171955E+01 -0.59492499947E+01 -0.78281830307E+01  0.10488370506E+02  0.25000449545E+00 0.  0.
    1000022    2    1    0    0    0 -0.14930002081E+02  0.17321456478E+02  0.57300193542E+02  0.62499999021E+02  0.99999940515E+01 0.  0.
    3000022    2    5    5    0    0 -0.30819348095E+01  0.10269785749E+02  0.30745662717E+02  0.32562633314E+02  0.24998189385E+00 0.  0.
        -13    1    4    4    0    0  0.23878038184E+01 -0.38629870122E+01 -0.50150587851E+01  0.67665438261E+01  0.10500000000E+00 0. -1.
         13    1    4    4    0    0  0.12549133771E+01 -0.20862629824E+01 -0.28131242456E+01  0.37218266802E+01  0.10500000000E+00 0.  1.
    3000001    1    5    5    0    0 -0.11848067271E+02  0.70516707296E+01  0.26554530825E+02  0.29937365707E+02  0.10000000000E+01 0.  1.
        -13    1    6    6    0    0 -0.20794186721E+01  0.69031563351E+01  0.20512859639E+02  0.21743182494E+02  0.10500000000E+00 0. -1.
         13    1    6    6    0    0 -0.10025161374E+01  0.33666294137E+01  0.10232803078E+02  0.10819450820E+02  0.10500000000E+00 0.  1.
</event>
<event>
11    0  0.3467594E-009  0.9118800E+02  0.7816531E-02  0.1126479E+00
         25   -1    0    0    0    0  0.00000000000E+00  0.00000000000E+00  0.99999998245E-14  0.12500000000E+03  0.12500000000E+03 0.  0.
    3000001    1    3    3    0    0  0.15268596202E+02 -0.77770573616E+01 -0.15207318746E+02  0.22931968834E+02  0.10000000000E+01 0. -1.
    1000022    2    1    0    0    0  0.37570703535E+02 -0.10640887510E+02 -0.47764670168E+02  0.62500000561E+02  0.10000005138E+02 0.  0.
    3000022    2    3    3    0    0  0.22302107333E+02 -0.28638301489E+01 -0.32557351422E+02  0.39568031727E+02  0.24997698614E+00 0.  0.
    1000022    2    1    0    0    0 -0.37570703535E+02  0.10640887510E+02  0.47764670168E+02  0.62499999439E+02  0.99999981245E+01 0.  0.
    3000022    2    5    5    0    0 -0.32047140926E+02  0.74802743296E+01  0.34085919852E+02  0.47380229937E+02  0.25002235543E+00 0.  0.
        -13    1    4    4    0    0  0.16516105938E+02 -0.21468351920E+01 -0.24083479166E+02  0.29281660650E+02  0.10500000000E+00 0. -1.
         13    1    4    4    0    0  0.57860013951E+01 -0.71699495683E+00 -0.84738722558E+01  0.10286371076E+02  0.10500000000E+00 0.  1.
    3000001    1    5    5    0    0 -0.55235626088E+01  0.31606131809E+01  0.13678750316E+02  0.15119769502E+02  0.10000000000E+01 0. -1.
        -13    1    6    6    0    0 -0.13698611328E+02  0.31387448960E+01  0.14601963328E+02  0.20266524860E+02  0.10500000000E+00 0. -1.
         13    1    6    6    0    0 -0.18348529598E+02  0.43415294336E+01  0.19483956523E+02  0.27113705077E+02  0.10500000000E+00 0.  1.
</event>
<event>
11    0  0.3467594E-009  0.9118800E+02  0.7816531E-02  0.1126479E+00
         25   -1    0    0    0    0  0.00000000000E+00  0.00000000000E+00  0.99999998245E-14  0.12500000000E+03  0.12500000000E+03 0.  0.
    3000001    1    3    3    0    0 -0.36890792862E+01 -0.93978372384E+01  0.32802916502E+01  0.10662502710E+02  0.10000000000E+01 0.  1.
    1000022    2    1    0    0    0 -0.16984985973E+02 -0.45660244513E+02  0.37853695957E+02  0.62499999737E+02  0.99999996007E+01 0.  0.
    3000022    2    3    3    0    0 -0.13295906687E+02 -0.36262407274E+02  0.34573404307E+02  0.51837497026E+02  0.24999325938E+00 0.  0.
    1000022    2    1    0    0    0  0.16984985973E+02  0.45660244513E+02 -0.37853695957E+02  0.62500000263E+02  0.10000002892E+02 0.  0.
    3000022    2    5    5    0    0  0.37806277796E+01  0.69288741771E+01 -0.21514874448E+01  0.81849764116E+01  0.24999372479E+00 0.  0.
        -13    1    4    4    0    0 -0.35381946226E+01 -0.95643866628E+01  0.91502914593E+01  0.13701648522E+02  0.10500000000E+00 0. -1.
         13    1    4    4    0    0 -0.97577120643E+01 -0.26698020611E+02  0.25423112848E+02  0.38135848505E+02  0.10500000000E+00 0.  1.
    3000001    1    5    5    0    0  0.13204358194E+02  0.38731370335E+02 -0.35702208512E+02  0.54315023852E+02  0.10000000000E+01 0.  1.
        -13    1    6    6    0    0  0.24519862626E+01  0.44764723754E+01 -0.13323947865E+01  0.52761105397E+01  0.10500000000E+00 0. -1.
         13    1    6    6    0    0  0.13286415170E+01  0.24524018017E+01 -0.81909265836E+00  0.29088658719E+01  0.10500000000E+00 0.  1.
</event>
<event>
11    0  0.3467594E-009  0.9118800E+02  0.7816531E-02  0.1126479E+00
         25   -1    0    0    0    0  0.00000000000E+00  0.00000000000E+00  0.99999998245E-14  0.12500000000E+03  0.12500000000E+03 0.  0.
    3000001    1    3    3    0    0 -0.73246238231E+01 -0.49087518138E+01 -0.21741675663E+02  0.23482896311E+02  0.10000000000E+01 0.  1.
    1000022    2    1    0    0    0 -0.16847726096E+02 -0.24846755175E+02 -0.53898451995E+02  0.62499998072E+02  0.99999757086E+01 0.  0.
    3000022    2    3    3    0    0 -0.95231022732E+01 -0.19938003362E+02 -0.32156776332E+02  0.39017101761E+02  0.25002160600E+00 0.  0.
    1000022    2    1    0    0    0  0.16847726096E+02  0.24846755175E+02  0.53898451995E+02  0.62500001928E+02  0.99999998085E+01 0.  0.
    3000022    2    5    5    0    0  0.37680594231E+00  0.12559752867E+01 -0.65931133198E-01  0.13365262837E+01  0.24999790736E+00 0.  0.
        -13    1    4    4    0    0 -0.41477127214E+01 -0.88285822813E+01 -0.14235311190E+02  0.17256954992E+02  0.10500000000E+00 0. -1.
         13    1    4    4    0    0 -0.53753895517E+01 -0.11109421080E+02 -0.17921465142E+02  0.21760146769E+02  0.10500000000E+00 0.  1.
    3000001    1    5    5    0    0  0.16470920154E+02  0.23590779889E+02  0.53964383128E+02  0.61163475644E+02  0.10000000000E+01 0.  1.
        -13    1    6    6    0    0  0.85515692475E-01  0.44498139414E+00  0.88805887563E-02  0.46521526162E+00  0.10500000000E+00 0. -1.
         13    1    6    6    0    0  0.29129024984E+00  0.81099389255E+00 -0.74811721954E-01  0.87131102205E+00  0.10500000000E+00 0.  1.
</event>
<event>
11    0  0.3467594E-009  0.9118800E+02  0.7816531E-02  0.1126479E+00
         25   -1    0    0    0    0  0.00000000000E+00  0.00000000000E+00  0.99999998245E-14  0.12500000000E+03  0.12500000000E+03 0.  0.
    3000001    1    3    3    0    0  0.23232498676E+01  0.95886960591E+01  0.20045814818E+01  0.10117258966E+02  0.10000000000E+01 0. -1.
    1000022    2    1    0    0    0  0.32563766119E+02  0.48802522238E+02  0.19083106561E+02  0.62499999541E+02  0.99999972965E+01 0.  0.
    3000022    2    3    3    0    0  0.30240516251E+02  0.39213826179E+02  0.17078525080E+02  0.52382740575E+02  0.25000906639E+00 0.  0.
    1000022    2    1    0    0    0 -0.32563766119E+02 -0.48802522238E+02 -0.19083106561E+02  0.62500000459E+02  0.10000003039E+02 0.  0.
    3000022    2    5    5    0    0 -0.78433638191E+01 -0.58061484061E+01 -0.48018238168E+01  0.10878866325E+02  0.25001045330E+00 0.  0.
        -13    1    4    4    0    0  0.15674632741E+02  0.20308237648E+02  0.87768581599E+01  0.27113887440E+02  0.10500000000E+00 0. -1.
         13    1    4    4    0    0  0.14565883510E+02  0.18905588530E+02  0.83016669197E+01  0.25268853135E+02  0.10500000000E+00 0.  1.
    3000001    1    5    5    0    0 -0.24720402300E+02 -0.42996373832E+02 -0.14281282744E+02  0.51621134135E+02  0.10000000000E+01 0.  1.
        -13    1    6    6    0    0 -0.39175366814E+01 -0.28157202567E+01 -0.23772581107E+01  0.53793824310E+01  0.10500000000E+00 0. -1.
         13    1    6    6    0    0 -0.39258271376E+01 -0.29904281495E+01 -0.24245657062E+01  0.54994838936E+01  0.10500000000E+00 0.  1.
</event>
<event>
11    0  0.3467594E-009  0.9118800E+02  0.7816531E-02  0.1126479E+00
         25   -1    0    0    0    0  0.00000000000E+00  0.00000000000E+00  0.99999998245E-14  0.12500000000E+03  0.12500000000E+03 0.  0.
    3000001    1    3    3    0    0 -0.10770888936E+02 -0.54553797082E+02  0.22885242823E+02  0.60140362184E+02  0.10000000000E+01 0. -1.
    1000022    2    1    0    0    0 -0.94659290308E+01 -0.56503785766E+02  0.22890354966E+02  0.62500002179E+02  0.10000015180E+02 0.  0.
    3000022    2    3    3    0    0  0.13049599052E+01 -0.19499886831E+01  0.51121428859E-02  0.23596399944E+01  0.24999710082E+00 0.  0.
    1000022    2    1    0    0    0  0.94659290308E+01  0.56503785766E+02 -0.22890354966E+02  0.62499997821E+02  0.99999879480E+01 0.  0.
    3000022    2    5    5    0    0  0.70194563684E+01  0.54137101108E+02 -0.21867814387E+02  0.58807842084E+02  0.25000079717E+00 0.  0.
        -13    1    4    4    0    0  0.57664680213E+00 -0.96629694898E+00  0.36897870116E-01  0.11307686681E+01  0.10500000000E+00 0.  1.
         13    1    4    4    0    0  0.72831310309E+00 -0.98369173414E+00 -0.31785727230E-01  0.12288713262E+01  0.10500000000E+00 0. -1.
    3000001    1    5    5    0    0  0.24464726624E+01  0.23666846577E+01 -0.10225405789E+01  0.36921557378E+01  0.10000000000E+01 0.  1.
        -13    1    6    6    0    0  0.28133543907E+01  0.21556547011E+02 -0.86435726085E+01  0.23394915140E+02  0.10500000000E+00 0.  1.
         13    1    6    6    0    0  0.42061019777E+01  0.32580554097E+02 -0.13224241778E+02  0.35412926943E+02  0.10500000000E+00 0. -1.
</event>
<event>
11    0  0.3467594E-009  0.9118800E+02  0.7816531E-02  0.1126479E+00
         25   -1    0    0    0    0  0.00000000000E+00  0.00000000000E+00  0.99999998245E-14  0.12500000000E+03  0.12500000000E+03 0.  0.
    3000001    1    3    3    0    0  0.19548996765E+02  0.57506927182E+02 -0.33182156129E+01  0.60837656951E+02  0.10000000000E+01 0.  1.
    1000022    2    1    0    0    0  0.21073222935E+02  0.57858083342E+02 -0.38224994013E+01  0.62499999942E+02  0.99999979077E+01 0.  0.
    3000022    2    3    3    0    0  0.15242261695E+01  0.35115616028E+00 -0.50428378844E+00  0.16623429907E+01  0.25001202968E+00 0.  0.
    1000022    2    1    0    0    0 -0.21073222935E+02 -0.57858083342E+02  0.38224994013E+01  0.62500000058E+02  0.99999986366E+01 0.  0.
    3000022    2    5    5    0    0 -0.68427353805E+01 -0.27414599900E+02 -0.22095401911E+01  0.28343039395E+02  0.24999823263E+00 0.  0.
        -13    1    4    4    0    0  0.10374693261E+01  0.18631195740E+00 -0.32493270608E+00  0.11079986514E+01  0.10500000000E+00 0.  1.
         13    1    4    4    0    0  0.48675684334E+00  0.16484420288E+00 -0.17935108237E+00  0.55434433929E+00  0.10500000000E+00 0. -1.
    3000001    1    5    5    0    0 -0.14230487554E+02 -0.30443483442E+02  0.60320395924E+01  0.34156960664E+02  0.10000000000E+01 0. -1.
        -13    1    6    6    0    0 -0.44192060768E+01 -0.17587591505E+02 -0.13675426436E+01  0.18186092356E+02  0.10500000000E+00 0.  1.
         13    1    6    6    0    0 -0.24235293037E+01 -0.98270083949E+01 -0.84199754745E+00  0.10156947039E+02  0.10500000000E+00 0. -1.
</event>
<event>
11    0  0.3467594E-009  0.9118800E+02  0.7816531E-02  0.1126479E+00
         25   -1    0    0    0    0  0.00000000000E+00  0.00000000000E+00  0.99999998245E-14  0.12500000000E+03  0.12500000000E+03 0.  0.
    3000001    1    3    3    0    0  0.38384072389E+01 -0.15352178461E+02 -0.40070285929E+02  0.43093509581E+02  0.10000000000E+01 0.  1.
    1000022    2    1    0    0    0 -0.43110218391E+00 -0.24681329609E+02 -0.56541098837E+02  0.62500001794E+02  0.10000024309E+02 0.  0.
    3000022    2    3    3    0    0 -0.42695094228E+01 -0.93291511479E+01 -0.16470812908E+02  0.19406492212E+02  0.24998055824E+00 0.  0.
    1000022    2    1    0    0    0  0.43110218391E+00  0.24681329609E+02  0.56541098837E+02  0.62499998206E+02  0.10000001888E+02 0.  0.
    3000022    2    5    5    0    0  0.26994008555E+01  0.20368239128E+01  0.12025546642E+02  0.12494466469E+02  0.25000736808E+00 0.  0.
        -13    1    4    4    0    0 -0.23892287863E+01 -0.50897067741E+01 -0.90984313489E+01  0.10696074385E+02  0.10500000000E+00 0.  1.
         13    1    4    4    0    0 -0.18802806366E+01 -0.42394443738E+01 -0.73723815592E+01  0.87104178273E+01  0.10500000000E+00 0. -1.
    3000001    1    5    5    0    0 -0.22682986716E+01  0.22644505697E+02  0.44515552195E+02  0.50005531737E+02  0.10000000000E+01 0.  1.
        -13    1    6    6    0    0  0.90181504348E+00  0.71872451403E+00  0.42784787312E+01  0.44324079859E+01  0.10500000000E+00 0.  1.
         13    1    6    6    0    0  0.17975858120E+01  0.13180993987E+01  0.77470679106E+01  0.80620584833E+01  0.10500000000E+00 0. -1.
</event>
<event>
11    0  0.3467594E-009  0.9118800E+02  0.7816531E-02  0.1126479E+00
         25   -1    0    0    0    0  0.00000000000E+00  0.00000000000E+00  0.99999998245E-14  0.12500000000E+03  0.12500000000E+03 0.  0.
    3000001    1    3    3    0    0 -0.15872365939E+02  0.12164509621E+02  0.39050962133E+01  0.20399928217E+02  0.10000000000E+01 0. -1.
    1000022    2    1    0    0    0 -0.54314555977E+02  0.29202525695E+02  0.18417881555E+01  0.62499996003E+02  0.99999409398E+01 0.  0.
    3000022    2    3    3    0    0 -0.38442190038E+02  0.17038016075E+02 -0.20633080578E+01  0.42100067787E+02  0.25000156650E+00 0.  0.
    1000022    2    1    0    0    0  0.54314555977E+02 -0.29202525695E+02 -0.18417881555E+01  0.62500003997E+02  0.99999909009E+01 0.  0.
    3000022    2    5    5    0    0  0.19856389492E+02 -0.89340723410E+01 -0.51431262835E+01  0.22374273196E+02  0.25000162570E+00 0.  0.
        -13    1    4    4    0    0 -0.17264412912E+02  0.76198249945E+01 -0.86607434033E+00  0.18891341824E+02  0.10500000000E+00 0.  1.
         13    1    4    4    0    0 -0.21177777126E+02  0.94181910802E+01 -0.11972337175E+01  0.23208725963E+02  0.10500000000E+00 0. -1.
    3000001    1    5    5    0    0  0.34458166485E+02 -0.20268453354E+02  0.33013381281E+01  0.40125730801E+02  0.10000000000E+01 0. -1.
        -13    1    6    6    0    0  0.13830243244E+02 -0.62331821886E+01 -0.36301214738E+01  0.15598621584E+02  0.10500000000E+00 0. -1.
         13    1    6    6    0    0  0.60261462479E+01 -0.27008901524E+01 -0.15130048097E+01  0.67756516122E+01  0.10500000000E+00 0.  1.
</event>
<event>
11    0  0.3467594E-009  0.9118800E+02  0.7816531E-02  0.1126479E+00
         25   -1    0    0    0    0  0.00000000000E+00  0.00000000000E+00  0.99999998245E-14  0.12500000000E+03  0.12500000000E+03 0.  0.
    3000001    1    3    3    0    0 -0.56712289396E+01 -0.52705403053E+02 -0.41331323871E+00  0.53020686307E+02  0.10000000000E+01 0. -1.
    1000022    2    1    0    0    0 -0.31272888213E+01 -0.61592893334E+02  0.16689382004E+01  0.62500000053E+02  0.10000010364E+02 0.  0.
    3000022    2    3    3    0    0  0.25439401183E+01 -0.88874902806E+01  0.20822514391E+01  0.94793137453E+01  0.25000642638E+00 0.  0.
    1000022    2    1    0    0    0  0.31272888213E+01  0.61592893334E+02 -0.16689382004E+01  0.62499999947E+02  0.10000009706E+02 0.  0.
    3000022    2    5    5    0    0  0.31076326521E+01  0.25798271909E+02  0.38465844699E+01  0.26269124997E+02  0.25000372492E+00 0.  0.
        -13    1    4    4    0    0  0.16741734196E+01 -0.56507775579E+01  0.13489243596E+01  0.60468806484E+01  0.10500000000E+00 0.  1.
         13    1    4    4    0    0  0.86976669876E+00 -0.32367127227E+01  0.73332707949E+00  0.34324330969E+01  0.10500000000E+00 0. -1.
    3000001    1    5    5    0    0  0.19656169256E-01  0.35794621425E+02 -0.55155226703E+01  0.36230874950E+02  0.10000000000E+01 0. -1.
        -13    1    6    6    0    0  0.23673576081E+01  0.19469134935E+02  0.29111185200E+01  0.19827688549E+02  0.10500000000E+00 0. -1.
         13    1    6    6    0    0  0.74027504397E+00  0.63291369741E+01  0.93546594994E+00  0.64414364486E+01  0.10500000000E+00 0.  1.
</event>
<event>
11    0  0.3467594E-009  0.9118800E+02  0.7816531E-02  0.1126479E+00
         25   -1    0    0    0    0  0.00000000000E+00  0.00000000000E+00  0.99999998245E-14  0.12500000000E+03  0.12500000000E+03 0.  0.
    3000001    1    3    3    0    0 -0.10884611990E+02  0.26827989535E+02 -0.31400855430E+02  0.42722704998E+02  0.10000000000E+01 0. -1.
    1000022    2    1    0    0    0 -0.20693723803E+02  0.40775677318E+02 -0.41416953059E+02  0.62499999586E+02  0.99999940957E+01 0.  0.
    3000022    2    3    3    0    0 -0.98091118128E+01  0.13947687783E+02 -0.10016097630E+02  0.19777294587E+02  0.25000083215E+00 0.  0.
    1000022    2    1    0    0    0  0.20693723803E+02 -0.40775677318E+02  0.41416953059E+02  0.62500000414E+02  0.99999992752E+01 0.  0.
    3000022    2    5    5    0    0  0.21111857815E+01 -0.12439097947E+01  0.26260042541E+00  0.24770705996E+01  0.25000558104E+00 0.  0.
        -13    1    4    4    0    0 -0.22601170672E+01  0.32037423315E+01 -0.23072460975E+01  0.45504399390E+01  0.10500000000E+00 0.  1.
         13    1    4    4    0    0 -0.75489947456E+01  0.10743945451E+02 -0.77088515321E+01  0.15226854648E+02  0.10500000000E+00 0. -1.
    3000001    1    5    5    0    0  0.18582538021E+02 -0.39531767524E+02  0.41154352634E+02  0.60022929815E+02  0.10000000000E+01 0. -1.
        -13    1    6    6    0    0  0.15661828416E+01 -0.95223893140E+00  0.20822527503E+00  0.18477203363E+01  0.10500000000E+00 0. -1.
         13    1    6    6    0    0  0.54500293988E+00 -0.29167086335E+00  0.54375150381E-01  0.62935026335E+00  0.10500000000E+00 0.  1.
</event>
<event>
11    0  0.3467594E-009  0.9118800E+02  0.7816531E-02  0.1126479E+00
         25   -1    0    0    0    0  0.00000000000E+00  0.00000000000E+00  0.99999998245E-14  0.12500000000E+03  0.12500000000E+03 0.  0.
    3000001    1    3    3    0    0  0.96839673799E+01 -0.81698335824E+01 -0.20088730907E+02  0.23771464289E+02  0.10000000000E+01 0.  1.
    1000022    2    1    0    0    0  0.28323375434E+02 -0.31055030921E+02 -0.45162162055E+02  0.62499996981E+02  0.10000009981E+02 0.  0.
    3000022    2    3    3    0    0  0.18639408054E+02 -0.22885197339E+02 -0.25073431148E+02  0.38728532692E+02  0.25001018817E+00 0.  0.
    1000022    2    1    0    0    0 -0.28323375434E+02  0.31055030921E+02  0.45162162055E+02  0.62500003019E+02  0.10000047722E+02 0.  0.
    3000022    2    5    5    0    0 -0.21754121507E+02  0.17791244693E+02  0.26182489535E+02  0.38410356047E+02  0.25000632098E+00 0.  0.
        -13    1    4    4    0    0  0.14332009559E+02 -0.17587308481E+02 -0.19262807373E+02  0.29762168779E+02  0.10500000000E+00 0. -1.
         13    1    4    4    0    0  0.43073984950E+01 -0.52978888583E+01 -0.58106237751E+01  0.89663639121E+01  0.10500000000E+00 0.  1.
    3000001    1    5    5    0    0 -0.65692539267E+01  0.13263786228E+02  0.18979672521E+02  0.24089646972E+02  0.10000000000E+01 0.  1.
        -13    1    6    6    0    0 -0.75096823013E+01  0.62006699465E+01  0.90293686802E+01  0.13280969837E+02  0.10500000000E+00 0. -1.
         13    1    6    6    0    0 -0.14244439206E+02  0.11590574747E+02  0.17153120854E+02  0.25129386210E+02  0.10500000000E+00 0.  1.
</event>
<event>
11    0  0.3467594E-009  0.9118800E+02  0.7816531E-02  0.1126479E+00
         25   -1    0    0    0    0  0.00000000000E+00  0.00000000000E+00  0.99999998245E-14  0.12500000000E+03  0.12500000000E+03 0.  0.
    3000001    1    3    3    0    0 -0.12201764469E+01  0.36898251673E+00  0.10832749763E+01  0.19489646825E+01  0.10000000000E+01 0.  1.
    1000022    2    1    0    0    0 -0.61591452721E+02  0.14348647014E+00 -0.35668517106E+01  0.62500001015E+02  0.10000002956E+02 0.  0.
    3000022    2    3    3    0    0 -0.60371276274E+02 -0.22549604660E+00 -0.46501266868E+01  0.60551036333E+02  0.24995067124E+00 0.  0.
    1000022    2    1    0    0    0  0.61591452721E+02 -0.14348647014E+00  0.35668517106E+01  0.62499998985E+02  0.99999902690E+01 0.  0.
    3000022    2    5    5    0    0  0.35050025892E+02  0.39160250048E+01  0.48487584946E+01  0.35600737721E+02  0.25000101121E+00 0.  0.
        -13    1    4    4    0    0 -0.15831227545E+02 -0.35867086789E-01 -0.11965355903E+01  0.15876768389E+02  0.10500000000E+00 0.  1.
         13    1    4    4    0    0 -0.44540048728E+02 -0.18962895981E+00 -0.34535910965E+01  0.44674267944E+02  0.10500000000E+00 0. -1.
    3000001    1    5    5    0    0  0.26541426829E+02 -0.40595114749E+01 -0.12819067840E+01  0.26899261264E+02  0.10000000000E+01 0. -1.
        -13    1    6    6    0    0  0.80600015147E+01  0.90608008708E+00  0.11187474246E+01  0.81882370716E+01  0.10500000000E+00 0. -1.
         13    1    6    6    0    0  0.26990024377E+02  0.30099449177E+01  0.37300110699E+01  0.27412500650E+02  0.10500000000E+00 0.  1.
</event>
<event>
11    0  0.3467594E-009  0.9118800E+02  0.7816531E-02  0.1126479E+00
         25   -1    0    0    0    0  0.00000000000E+00  0.00000000000E+00  0.99999998245E-14  0.12500000000E+03  0.12500000000E+03 0.  0.
    3000001    1    3    3    0    0  0.51588446849E+02 -0.22320364667E+02  0.79094407730E+01  0.56772579478E+02  0.10000000000E+01 0.  1.
    1000022    2    1    0    0    0  0.54780306146E+02 -0.26487689924E+02  0.10186781641E+02  0.62500000071E+02  0.99999914857E+01 0.  0.
    3000022    2    3    3    0    0  0.31918592970E+01 -0.41673252562E+01  0.22773408680E+01  0.57274205934E+01  0.24999932365E+00 0.  0.
    1000022    2    1    0    0    0 -0.54780306146E+02  0.26487689924E+02 -0.10186781641E+02  0.62499999929E+02  0.99999905954E+01 0.  0.
    3000022    2    5    5    0    0 -0.13793699656E+02  0.61597621394E+01 -0.69313534329E+01  0.16622724809E+02  0.24999969800E+00 0.  0.
        -13    1    4    4    0    0  0.11377332284E+01 -0.15203412217E+01  0.76522244796E+00  0.20499913961E+01  0.10500000000E+00 0. -1.
         13    1    4    4    0    0  0.20541260686E+01 -0.26469840345E+01  0.15121184201E+01  0.36774291973E+01  0.10500000000E+00 0.  1.
    3000001    1    5    5    0    0 -0.40986606490E+02  0.20327927784E+02 -0.32554282081E+01  0.45877275119E+02  0.10000000000E+01 0.  1.
        -13    1    6    6    0    0 -0.10319879615E+02  0.46009988350E+01 -0.51545328092E+01  0.12419715738E+02  0.10500000000E+00 0. -1.
         13    1    6    6    0    0 -0.34738200418E+01  0.15587633044E+01 -0.17768206237E+01  0.42030090710E+01  0.10500000000E+00 0.  1.
</event>
<event>
11    0  0.3467594E-009  0.9118800E+02  0.7816531E-02  0.1126479E+00
         25   -1    0    0    0    0  0.00000000000E+00  0.00000000000E+00  0.99999998245E-14  0.12500000000E+03  0.12500000000E+03 0.  0.
    3000001    1    3    3    0    0  0.19704112844E+02  0.30113816697E+01  0.73730284601E+01  0.21276325604E+02  0.10000000000E+01 0. -1.
    1000022    2    1    0    0    0  0.57270756826E+02 -0.48256348535E+01  0.22428180802E+02  0.62500004225E+02  0.10000044747E+02 0.  0.
    3000022    2    3    3    0    0  0.37566643982E+02 -0.78370165232E+01  0.15055152342E+02  0.41223678622E+02  0.24999802608E+00 0.  0.
    1000022    2    1    0    0    0 -0.57270756826E+02  0.48256348535E+01 -0.22428180802E+02  0.62499995775E+02  0.99999919297E+01 0.  0.
    3000022    2    5    5    0    0 -0.29245380008E+02  0.61487238490E+01 -0.80149439776E+01  0.30941895293E+02  0.25000109708E+00 0.  0.
        -13    1    4    4    0    0  0.25224672568E+02 -0.52281496373E+01  0.10062524450E+02  0.27656519631E+02  0.10500000000E+00 0. -1.
         13    1    4    4    0    0  0.12341971413E+02 -0.26088668859E+01  0.49926278920E+01  0.13567158990E+02  0.10500000000E+00 0.  1.
    3000001    1    5    5    0    0 -0.28025376817E+02 -0.13230889955E+01 -0.14413236825E+02  0.31558100482E+02  0.10000000000E+01 0.  1.
        -13    1    6    6    0    0 -0.90429357376E+01  0.18586008656E+01 -0.24511780355E+01  0.95524019332E+01  0.10500000000E+00 0.  1.
         13    1    6    6    0    0 -0.20202444271E+02  0.42901229834E+01 -0.55637659421E+01  0.21389493360E+02  0.10500000000E+00 0. -1.
</event>
<event>
11    0  0.3467594E-009  0.9118800E+02  0.7816531E-02  0.1126479E+00
         25   -1    0    0    0    0  0.00000000000E+00  0.00000000000E+00  0.99999998245E-14  0.12500000000E+03  0.12500000000E+03 0.  0.
    3000001    1    3    3    0    0  0.16719716070E+00  0.32550047374E+01 -0.22337263677E+01  0.40758488953E+01  0.10000000000E+01 0.  1.
    1000022    2    1    0    0    0  0.41011912468E+00  0.23625884674E+02 -0.56990344657E+02  0.62500000633E+02  0.10000003534E+02 0.  0.
    3000022    2    3    3    0    0  0.24292196398E+00  0.20370879937E+02 -0.54756618289E+02  0.58424151738E+02  0.24999867486E+00 0.  0.
    1000022    2    1    0    0    0 -0.41011912468E+00 -0.23625884674E+02  0.56990344657E+02  0.62499999367E+02  0.99999956233E+01 0.  0.
    3000022    2    5    5    0    0 -0.22814957539E+01 -0.23045379732E+02  0.48756088588E+02  0.53976971180E+02  0.24998695822E+00 0.  0.
        -13    1    4    4    0    0  0.13869877764E+00  0.14784908564E+02 -0.39740326526E+02  0.42401855337E+02  0.10500000000E+00 0.  1.
         13    1    4    4    0    0  0.10422318634E+00  0.55859713734E+01 -0.15016291763E+02  0.16022296401E+02  0.10500000000E+00 0. -1.
    3000001    1    5    5    0    0  0.18713766292E+01 -0.58050494220E+00  0.82342560690E+01  0.85230281875E+01  0.10000000000E+01 0.  1.
        -13    1    6    6    0    0 -0.64844730716E+00 -0.63634254358E+01  0.13389535851E+02  0.14839284433E+02  0.10500000000E+00 0.  1.
         13    1    6    6    0    0 -0.16330484467E+01 -0.16681954296E+02  0.35366552737E+02  0.39137686747E+02  0.10500000000E+00 0. -1.
</event>
<event>
11    0  0.3467594E-009  0.9118800E+02  0.7816531E-02  0.1126479E+00
         25   -1    0    0    0    0  0.00000000000E+00  0.00000000000E+00  0.99999998245E-14  0.12500000000E+03  0.12500000000E+03 0.  0.
    3000001    1    3    3    0    0  0.53648591333E+01  0.37569811247E+01  0.64237487361E+00  0.66565205753E+01  0.10000000000E+01 0.  1.
    1000022    2    1    0    0    0  0.60112044231E+02  0.12498495128E+02 -0.60481441449E+01  0.62499997249E+02  0.99999683186E+01 0.  0.
    3000022    2    3    3    0    0  0.54747185098E+02  0.87415140033E+01 -0.66905190185E+01  0.55843476673E+02  0.24999803642E+00 0.  0.
    1000022    2    1    0    0    0 -0.60112044231E+02 -0.12498495128E+02  0.60481441449E+01  0.62500002751E+02  0.10000002708E+02 0.  0.
    3000022    2    5    5    0    0 -0.19093527523E+02 -0.38197737890E+01 -0.26971932772E+01  0.19659369660E+02  0.24999756275E+00 0.  0.
        -13    1    4    4    0    0  0.32177645381E+02  0.51777578079E+01 -0.38821142999E+01  0.32822124773E+02  0.10500000000E+00 0.  1.
         13    1    4    4    0    0  0.22569539717E+02  0.35637561954E+01 -0.28084047185E+01  0.23021351900E+02  0.10500000000E+00 0. -1.
    3000001    1    5    5    0    0 -0.41018516708E+02 -0.86787213390E+01  0.87453374221E+01  0.42840633091E+02  0.10000000000E+01 0. -1.
        -13    1    6    6    0    0 -0.13084546873E+02 -0.25777424519E+01 -0.18163483563E+01  0.13459579094E+02  0.10500000000E+00 0.  1.
         13    1    6    6    0    0 -0.60089806498E+01 -0.12420313371E+01 -0.88084492096E+00  0.61997905664E+01  0.10500000000E+00 0. -1.
</event>
<event>
11    0  0.3467594E-009  0.9118800E+02  0.7816531E-02  0.1126479E+00
         25   -1    0    0    0    0  0.00000000000E+00  0.00000000000E+00  0.99999998245E-14  0.12500000000E+03  0.12500000000E+03 0.  0.
    3000001    1    3    3    0    0 -0.13174883980E+02 -0.10087314283E+02 -0.66003487985E+01  0.17885638977E+02  0.10000000000E+01 0.  1.
    1000022    2    1    0    0    0 -0.49373908883E+02 -0.21747131699E+02 -0.29925397289E+02  0.62499999231E+02  0.99999942740E+01 0.  0.
    3000022    2    3    3    0    0 -0.36199024904E+02 -0.11659817416E+02 -0.23325048490E+02  0.44614360255E+02  0.25001551101E+00 0.  0.
    1000022    2    1    0    0    0  0.49373908883E+02  0.21747131699E+02  0.29925397289E+02  0.62500000769E+02  0.10000003881E+02 0.  0.
    3000022    2    5    5    0    0  0.45465789991E+02  0.22553497933E+02  0.27500596778E+02  0.57724723049E+02  0.24999884105E+00 0.  0.
        -13    1    4    4    0    0 -0.90651578426E+01 -0.29409654522E+01 -0.58661332499E+01  0.11191465892E+02  0.10500000000E+00 0. -1.
         13    1    4    4    0    0 -0.27133867061E+02 -0.87188519634E+01 -0.17458915240E+02  0.33422894363E+02  0.10500000000E+00 0.  1.
    3000001    1    5    5    0    0  0.39081188928E+01 -0.80636623415E+00  0.24248005103E+01  0.47752777196E+01  0.10000000000E+01 0.  1.
        -13    1    6    6    0    0  0.24775872306E+02  0.12228861668E+02  0.15014679266E+02  0.31445834774E+02  0.10500000000E+00 0. -1.
         13    1    6    6    0    0  0.20689917685E+02  0.10324636265E+02  0.12485917513E+02  0.26278888275E+02  0.10500000000E+00 0.  1.
</event>
<event>
11    0  0.3467594E-009  0.9118800E+02  0.7816531E-02  0.1126479E+00
         25   -1    0    0    0    0  0.00000000000E+00  0.00000000000E+00  0.99999998245E-14  0.12500000000E+03  0.12500000000E+03 0.  0.
    3000001    1    3    3    0    0 -0.98731380094E+01 -0.32674837464E+01 -0.99325441640E+01  0.14415642121E+02  0.10000000000E+01 0.  1.
    1000022    2    1    0    0    0 -0.47147035268E+02  0.28221475214E+01 -0.39691843807E+02  0.62499999638E+02  0.10000001938E+02 0.  0.
    3000022    2    3    3    0    0 -0.37273897259E+02  0.60896312678E+01 -0.29759299643E+02  0.48084357517E+02  0.24999356788E+00 0.  0.
    1000022    2    1    0    0    0  0.47147035268E+02 -0.28221475214E+01  0.39691843807E+02  0.62500000362E+02  0.10000006462E+02 0.  0.
    3000022    2    5    5    0    0  0.30041947813E+02 -0.32961617625E+01  0.30948441627E+02  0.43257968556E+02  0.24998734299E+00 0.  0.
        -13    1    4    4    0    0 -0.20376654786E+02  0.32772651212E+01 -0.16207175898E+02  0.26241800673E+02  0.10500000000E+00 0.  1.
         13    1    4    4    0    0 -0.16897242472E+02  0.28123661466E+01 -0.13552123745E+02  0.21842556845E+02  0.10500000000E+00 0. -1.
    3000001    1    5    5    0    0  0.17105087455E+02  0.47401424116E+00  0.87434021797E+01  0.19242031806E+02  0.10000000000E+01 0.  1.
        -13    1    6    6    0    0  0.10228497688E+02 -0.10671204892E+01  0.10530506437E+02  0.14719493943E+02  0.10500000000E+00 0.  1.
         13    1    6    6    0    0  0.19813450125E+02 -0.22290412733E+01  0.20417935190E+02  0.28538474614E+02  0.10500000000E+00 0. -1.
</event>
<event>
11    0  0.3467594E-009  0.9118800E+02  0.7816531E-02  0.1126479E+00
         25   -1    0    0    0    0  0.00000000000E+00  0.00000000000E+00  0.99999998245E-14  0.12500000000E+03  0.12500000000E+03 0.  0.
    3000001    1    3    3    0    0 -0.35777428834E+01 -0.53867067219E+01 -0.14039901149E+02  0.15489857253E+02  0.10000000000E+01 0. -1.
    1000022    2    1    0    0    0 -0.12634279670E+02 -0.51406861064E+01 -0.60168085501E+02  0.62499997411E+02  0.99999743584E+01 0.  0.
    3000022    2    3    3    0    0 -0.90565367868E+01  0.24602061550E+00 -0.46128184351E+02  0.47010140158E+02  0.25000280495E+00 0.  0.
    1000022    2    1    0    0    0  0.12634279670E+02  0.51406861064E+01  0.60168085501E+02  0.62500002589E+02  0.10000006718E+02 0.  0.
    3000022    2    5    5    0    0  0.75638198426E+01  0.79814400317E+01  0.40472750966E+02  0.41940682362E+02  0.25002140334E+00 0.  0.
        -13    1    4    4    0    0 -0.50125963233E+01  0.18408180202E+00 -0.25296495579E+02  0.25789217157E+02  0.10500000000E+00 0.  1.
         13    1    4    4    0    0 -0.40439404635E+01  0.61938813472E-01 -0.20831688772E+02  0.21220923001E+02  0.10500000000E+00 0. -1.
    3000001    1    5    5    0    0  0.50704598276E+01 -0.28407539253E+01  0.19695334535E+02  0.20559320226E+02  0.10000000000E+01 0.  1.
        -13    1    6    6    0    0  0.49243196015E+01  0.51166385158E+01  0.26197334937E+02  0.27142960341E+02  0.10500000000E+00 0.  1.
         13    1    6    6    0    0  0.26395002411E+01  0.28648015159E+01  0.14275416028E+02  0.14797722022E+02  0.10500000000E+00 0. -1.
</event>
<event>
11    0  0.3467594E-009  0.9118800E+02  0.7816531E-02  0.1126479E+00
         25   -1    0    0    0    0  0.00000000000E+00  0.00000000000E+00  0.99999998245E-14  0.12500000000E+03  0.12500000000E+03 0.  0.
    3000001    1    3    3    0    0 -0.68009270432E+01  0.28684576118E+02  0.99290097567E+01  0.31123026049E+02  0.10000000000E+01 0. -1.
    1000022    2    1    0    0    0 -0.10670697768E+02  0.53642981271E+02  0.28544993468E+02  0.62499999471E+02  0.10000002568E+02 0.  0.
    3000022    2    3    3    0    0 -0.38697707244E+01  0.24958405153E+02  0.18615983712E+02  0.31376973422E+02  0.24999670585E+00 0.  0.
    1000022    2    1    0    0    0  0.10670697768E+02 -0.53642981271E+02 -0.28544993468E+02  0.62500000529E+02  0.10000009175E+02 0.  0.
    3000022    2    5    5    0    0  0.30007032354E+01 -0.31403457700E+01 -0.10317383506E+01  0.44713505717E+01  0.25000089694E+00 0.  0.
        -13    1    4    4    0    0 -0.24434905595E+01  0.15378805149E+02  0.11454003842E+02  0.19330895554E+02  0.10500000000E+00 0.  1.
         13    1    4    4    0    0 -0.14262801648E+01  0.95796000041E+01  0.71619798702E+01  0.12046077868E+02  0.10500000000E+00 0. -1.
    3000001    1    5    5    0    0  0.76699945322E+01 -0.50502635501E+02 -0.27513255118E+02  0.58028649957E+02  0.10000000000E+01 0. -1.
        -13    1    6    6    0    0  0.99079966826E+00 -0.10866881852E+01 -0.30626050113E+00  0.15057873984E+01  0.10500000000E+00 0. -1.
         13    1    6    6    0    0  0.20099035672E+01 -0.20536575848E+01 -0.72547784944E+00  0.29655631733E+01  0.10500000000E+00 0.  1.
</event>
<event>
11    0  0.3467594E-009  0.9118800E+02  0.7816531E-02  0.1126479E+00
         25   -1    0    0    0    0  0.00000000000E+00  0.00000000000E+00  0.99999998245E-14  0.12500000000E+03  0.12500000000E+03 0.  0.
    3000001    1    3    3    0    0  0.28930296224E+02 -0.32432669950E+02  0.40058212072E+02  0.59114300081E+02  0.10000000000E+01 0.  1.
    1000022    2    1    0    0    0  0.30585040694E+02 -0.32005673593E+02  0.42970248188E+02  0.62499998997E+02  0.99999894467E+01 0.  0.
    3000022    2    3    3    0    0  0.16547444703E+01  0.42699635757E+00  0.29120361164E+01  0.33856989161E+01  0.24999531281E+00 0.  0.
    1000022    2    1    0    0    0 -0.30585040694E+02  0.32005673593E+02 -0.42970248188E+02  0.62500001003E+02  0.10000001980E+02 0.  0.
    3000022    2    5    5    0    0 -0.98371984797E+01  0.15318552481E+02 -0.12842945931E+02  0.22280760473E+02  0.25000598736E+00 0.  0.
        -13    1    4    4    0    0  0.60903833730E+00  0.21952166482E+00  0.10951102504E+01  0.12764830269E+01  0.10500000000E+00 0. -1.
         13    1    4    4    0    0  0.10457061330E+01  0.20747469276E+00  0.18169258660E+01  0.21092158892E+01  0.10500000000E+00 0.  1.
    3000001    1    5    5    0    0 -0.20747842215E+02  0.16687121112E+02 -0.30127302257E+02  0.40219240530E+02  0.10000000000E+01 0. -1.
        -13    1    6    6    0    0 -0.22872759208E+01  0.35432172579E+01 -0.29765990386E+01  0.51630598013E+01  0.10500000000E+00 0.  1.
         13    1    6    6    0    0 -0.75499225589E+01  0.11775335223E+02 -0.98663468925E+01  0.17117700671E+02  0.10500000000E+00 0. -1.
</event>
<event>
11    0  0.3467594E-009  0.9118800E+02  0.7816531E-02  0.1126479E+00
         25   -1    0    0    0    0  0.00000000000E+00  0.00000000000E+00  0.99999998245E-14  0.12500000000E+03  0.12500000000E+03 0.  0.
    3000001    1    3    3    0    0  0.17189046877E+00 -0.90950884574E+01  0.71017571163E+00  0.91790266327E+01  0.10000000000E+01 0. -1.
    1000022    2    1    0    0    0  0.16294902551E+02 -0.55555529941E+02  0.21314531733E+02  0.62499999305E+02  0.99999946932E+01 0.  0.
    3000022    2    3    3    0    0  0.16123012082E+02 -0.46460441484E+02  0.20604356022E+02  0.53320972672E+02  0.24999627668E+00 0.  0.
    1000022    2    1    0    0    0 -0.16294902551E+02  0.55555529941E+02 -0.21314531733E+02  0.62500000695E+02  0.10000003384E+02 0.  0.
    3000022    2    5    5    0    0 -0.86628864124E+01  0.43409531143E+02 -0.14442227394E+02  0.46562575430E+02  0.25000706297E+00 0.  0.
        -13    1    4    4    0    0  0.41514763441E+01 -0.11876560184E+02  0.52621790349E+01  0.13637778075E+02  0.10500000000E+00 0.  1.
         13    1    4    4    0    0  0.11971535738E+02 -0.34583881300E+02  0.15342176987E+02  0.39683194597E+02  0.10500000000E+00 0. -1.
    3000001    1    5    5    0    0 -0.76320161384E+01  0.12145998798E+02 -0.68723043396E+01  0.15937425265E+02  0.10000000000E+01 0. -1.
        -13    1    6    6    0    0 -0.29042501050E+01  0.14628447123E+02 -0.48110847159E+01  0.15671110204E+02  0.10500000000E+00 0. -1.
         13    1    6    6    0    0 -0.57586363074E+01  0.28781084020E+02 -0.96311426779E+01  0.30891465226E+02  0.10500000000E+00 0.  1.
</event>
<event>
11    0  0.3467594E-009  0.9118800E+02  0.7816531E-02  0.1126479E+00
         25   -1    0    0    0    0  0.00000000000E+00  0.00000000000E+00  0.99999998245E-14  0.12500000000E+03  0.12500000000E+03 0.  0.
    3000001    1    3    3    0    0  0.18073895706E+02  0.23762581241E+01  0.10661223384E+02  0.21141759451E+02  0.10000000000E+01 0. -1.
    1000022    2    1    0    0    0  0.52008501715E+02  0.19817484842E+02  0.26620165389E+02  0.62500001550E+02  0.10000001619E+02 0.  0.
    3000022    2    3    3    0    0  0.33934606009E+02  0.17441226718E+02  0.15958942005E+02  0.41358242099E+02  0.24997037667E+00 0.  0.
    1000022    2    1    0    0    0 -0.52008501715E+02 -0.19817484842E+02 -0.26620165389E+02  0.62499998450E+02  0.99999822395E+01 0.  0.
    3000022    2    5    5    0    0 -0.10650519218E+02 -0.53207232378E+01 -0.10231975789E+02  0.15700302173E+02  0.25000879005E+00 0.  0.
        -13    1    4    4    0    0  0.17963500142E+02  0.93081824672E+01  0.84571901148E+01  0.21928627130E+02  0.10500000000E+00 0. -1.
         13    1    4    4    0    0  0.15971105867E+02  0.81330442511E+01  0.75017518901E+01  0.19429614969E+02  0.10500000000E+00 0.  1.
    3000001    1    5    5    0    0 -0.41357982497E+02 -0.14496761605E+02 -0.16388189600E+02  0.46799696277E+02  0.10000000000E+01 0. -1.
        -13    1    6    6    0    0 -0.75232629811E+01 -0.38025293371E+01 -0.72679532577E+01  0.11130718072E+02  0.10500000000E+00 0.  1.
         13    1    6    6    0    0 -0.31272562367E+01 -0.15181939007E+01 -0.29640225310E+01  0.45695841008E+01  0.10500000000E+00 0. -1.
</event>
<event>
11    0  0.3467594E-009  0.9118800E+02  0.7816531E-02  0.1126479E+00
         25   -1    0    0    0    0  0.00000000000E+00  0.00000000000E+00  0.99999998245E-14  0.12500000000E+03  0.12500000000E+03 0.  0.
    3000001    1    3    3    0    0 -0.25336844095E+02 -0.12019946739E+02 -0.11904943367E+02  0.30482166342E+02  0.10000000000E+01 0.  1.
    1000022    2    1    0    0    0 -0.54072795191E+02 -0.14823268681E+02 -0.25742057873E+02  0.62500001024E+02  0.10000005518E+02 0.  0.
    3000022    2    3    3    0    0 -0.28735951096E+02 -0.28033219416E+01 -0.13837114506E+02  0.32017834682E+02  0.25000124182E+00 0.  0.
    1000022    2    1    0    0    0  0.54072795191E+02  0.14823268681E+02  0.25742057873E+02  0.62499998976E+02  0.99999927178E+01 0.  0.
    3000022    2    5    5    0    0  0.39755928203E+02  0.15283308742E+02  0.19342272800E+02  0.46779262155E+02  0.24999473672E+00 0.  0.
        -13    1    4    4    0    0 -0.13447232224E+02 -0.12443206070E+01 -0.64769732906E+01  0.14977936983E+02  0.10500000000E+00 0.  1.
         13    1    4    4    0    0 -0.15288718871E+02 -0.15590013346E+01 -0.73601412152E+01  0.17039897699E+02  0.10500000000E+00 0. -1.
    3000001    1    5    5    0    0  0.14316866988E+02 -0.46004006098E+00  0.63997850731E+01  0.15720736821E+02  0.10000000000E+01 0.  1.
        -13    1    6    6    0    0  0.23858556667E+02  0.91435111579E+01  0.11665938023E+02  0.28088069665E+02  0.10500000000E+00 0. -1.
         13    1    6    6    0    0  0.15897371536E+02  0.61397975837E+01  0.76763347767E+01  0.18691192490E+02  0.10500000000E+00 0.  1.
</event>
<event>
11    0  0.3467594E-009  0.9118800E+02  0.7816531E-02  0.1126479E+00
         25   -1    0    0    0    0  0.00000000000E+00  0.00000000000E+00  0.99999998245E-14  0.12500000000E+03  0.12500000000E+03 0.  0.
    3000001    1    3    3    0    0  0.43765175142E+02 -0.34100827976E+02  0.12331647271E+02  0.56844758318E+02  0.10000000000E+01 0. -1.
    1000022    2    1    0    0    0  0.46716737313E+02 -0.38748096228E+02  0.11062615352E+02  0.62500000162E+02  0.10000002765E+02 0.  0.
    3000022    2    3    3    0    0  0.29515621714E+01 -0.46472682521E+01 -0.12690319185E+01  0.56552418436E+01  0.24999368263E+00 0.  0.
    1000022    2    1    0    0    0 -0.46716737313E+02  0.38748096228E+02 -0.11062615352E+02  0.62499999838E+02  0.10000000739E+02 0.  0.
    3000022    2    5    5    0    0 -0.35445094326E+02  0.27796594837E+02 -0.12328018887E+02  0.46701690926E+02  0.24997874689E+00 0.  0.
        -13    1    4    4    0    0  0.15252914428E+01 -0.23092215202E+01 -0.59028048243E+00  0.28316910253E+01  0.10500000000E+00 0. -1.
         13    1    4    4    0    0  0.14262707286E+01 -0.23380467319E+01 -0.67875143611E+00  0.28235508184E+01  0.10500000000E+00 0.  1.
    3000001    1    5    5    0    0 -0.11271642987E+02  0.10951501392E+02  0.12654035351E+01  0.15798308912E+02  0.10000000000E+01 0. -1.
        -13    1    6    6    0    0 -0.24223073138E+02  0.19054435193E+02 -0.84147442939E+01  0.31947577675E+02  0.10500000000E+00 0. -1.
         13    1    6    6    0    0 -0.11222021188E+02  0.87421596434E+01 -0.39132745936E+01  0.14754113251E+02  0.10500000000E+00 0.  1.
</event>
<event>
11    0  0.3467594E-009  0.9118800E+02  0.7816531E-02  0.1126479E+00
         25   -1    0    0    0    0  0.00000000000E+00  0.00000000000E+00  0.99999998245E-14  0.12500000000E+03  0.12500000000E+03 0.  0.
    3000001    1    3    3    0    0  0.16679557883E+02 -0.10459950952E+02  0.11972261935E+02  0.23064112403E+02  0.10000000000E+01 0.  1.
    1000022    2    1    0    0    0  0.50891688789E+02 -0.16946234741E+02  0.30481318738E+02  0.62500002367E+02  0.10000032205E+02 0.  0.
    3000022    2    3    3    0    0  0.34212130906E+02 -0.64862837896E+01  0.18509056803E+02  0.39435889964E+02  0.24990993637E+00 0.  0.
    1000022    2    1    0    0    0 -0.50891688789E+02  0.16946234741E+02 -0.30481318738E+02  0.62499997633E+02  0.10000002621E+02 0.  0.
    3000022    2    5    5    0    0 -0.39057054306E+02  0.12713551101E+02 -0.27831815688E+02  0.49616129791E+02  0.24999666321E+00 0.  0.
        -13    1    4    4    0    0  0.13515569195E+02 -0.25146967724E+01  0.73540960968E+01  0.15591281696E+02  0.10500000000E+00 0. -1.
         13    1    4    4    0    0  0.20696561711E+02 -0.39715870172E+01  0.11154960707E+02  0.23844608268E+02  0.10500000000E+00 0.  1.
    3000001    1    5    5    0    0 -0.11834634483E+02  0.42326836405E+01 -0.26495030498E+01  0.12883867842E+02  0.10000000000E+01 0.  1.
        -13    1    6    6    0    0 -0.18818443203E+02  0.61440162752E+01 -0.13492747938E+02  0.23957212119E+02  0.10500000000E+00 0.  1.
         13    1    6    6    0    0 -0.20238611103E+02  0.65695348254E+01 -0.14339067750E+02  0.25658917673E+02  0.10500000000E+00 0. -1.
</event>
<event>
11    0  0.3467594E-009  0.9118800E+02  0.7816531E-02  0.1126479E+00
         25   -1    0    0    0    0  0.00000000000E+00  0.00000000000E+00  0.99999998245E-14  0.12500000000E+03  0.12500000000E+03 0.  0.
    3000001    1    3    3    0    0 -0.16896850390E+02 -0.58042580533E+01  0.19835571582E+01  0.18003540309E+02  0.10000000000E+01 0.  1.
    1000022    2    1    0    0    0 -0.57319611305E+02 -0.11583565810E+02  0.19660454082E+02  0.62500002835E+02  0.10000003130E+02 0.  0.
    3000022    2    3    3    0    0 -0.40422760915E+02 -0.57793077568E+01  0.17676896923E+02  0.44496462526E+02  0.24998866448E+00 0.  0.
    1000022    2    1    0    0    0  0.57319611305E+02  0.11583565810E+02 -0.19660454082E+02  0.62499997165E+02  0.99999676964E+01 0.  0.
    3000022    2    5    5    0    0  0.28225200575E+02  0.70484878477E+01 -0.47467967892E+01  0.29477749488E+02  0.25001331016E+00 0.  0.
        -13    1    4    4    0    0 -0.13587022879E+02 -0.19433293026E+01  0.60006495820E+01  0.14980071425E+02  0.10500000000E+00 0. -1.
         13    1    4    4    0    0 -0.26835738036E+02 -0.38359784542E+01  0.11676247341E+02  0.29516391100E+02  0.10500000000E+00 0.  1.
    3000001    1    5    5    0    0  0.29094410730E+02  0.45350779624E+01 -0.14913657292E+02  0.33022247677E+02  0.10000000000E+01 0.  1.
        -13    1    6    6    0    0  0.14385857237E+02  0.36568604778E+01 -0.23952046117E+01  0.15035742321E+02  0.10500000000E+00 0. -1.
         13    1    6    6    0    0  0.13839343338E+02  0.33916273698E+01 -0.23515921775E+01  0.14442007167E+02  0.10500000000E+00 0.  1.
</event>
<event>
11    0  0.3467594E-009  0.9118800E+02  0.7816531E-02  0.1126479E+00
         25   -1    0    0    0    0  0.00000000000E+00  0.00000000000E+00  0.99999998245E-14  0.12500000000E+03  0.12500000000E+03 0.  0.
    3000001    1    3    3    0    0  0.17404852440E+02 -0.21577775878E+02  0.52720941472E+00  0.27745400521E+02  0.10000000000E+01 0.  1.
    1000022    2    1    0    0    0  0.29702980468E+02 -0.53995994116E+02  0.29009804877E+01  0.62499998995E+02  0.99999878622E+01 0.  0.
    3000022    2    3    3    0    0  0.12298128029E+02 -0.32418218238E+02  0.23737710730E+01  0.34754598474E+02  0.24999844960E+00 0.  0.
    1000022    2    1    0    0    0 -0.29702980468E+02  0.53995994116E+02 -0.29009804877E+01  0.62500001005E+02  0.10000000429E+02 0.  0.
    3000022    2    5    5    0    0 -0.22465310483E+02  0.42834210108E+02  0.16719160429E+01  0.48397495138E+02  0.25000337983E+00 0.  0.
        -13    1    4    4    0    0  0.74448965376E+01 -0.19788139382E+02  0.14697802913E+01  0.21193589213E+02  0.10500000000E+00 0.  1.
         13    1    4    4    0    0  0.48532314910E+01 -0.12630078857E+02  0.90399078163E+00  0.13561009261E+02  0.10500000000E+00 0. -1.
    3000001    1    5    5    0    0 -0.72376699855E+01  0.11161784008E+02 -0.45728965306E+01  0.14102505868E+02  0.10000000000E+01 0. -1.
        -13    1    6    6    0    0 -0.13036941864E+02  0.24729404045E+02  0.99262668572E+00  0.27973230244E+02  0.10500000000E+00 0.  1.
         13    1    6    6    0    0 -0.94283686193E+01  0.18104806063E+02  0.67928935715E+00  0.20424264894E+02  0.10500000000E+00 0. -1.
</event>
<event>
11    0  0.3467594E-009  0.9118800E+02  0.7816531E-02  0.1126479E+00
         25   -1    0    0    0    0  0.00000000000E+00  0.00000000000E+00  0.99999998245E-14  0.12500000000E+03  0.12500000000E+03 0.  0.
    3000001    1    3    3    0    0  0.32247937443E+01 -0.19136184949E+01  0.69505123746E+00  0.39426294094E+01  0.10000000000E+01 0. -1.
    1000022    2    1    0    0    0  0.34519244594E+02 -0.28903348045E+02  0.42181373555E+02  0.62499999459E+02  0.99999940887E+01 0.  0.
    3000022    2    3    3    0    0  0.31294450850E+02 -0.26989729550E+02  0.41486322317E+02  0.58557370049E+02  0.24998491779E+00 0.  0.
    1000022    2    1    0    0    0 -0.34519244594E+02  0.28903348045E+02 -0.42181373555E+02  0.62500000541E+02  0.10000000856E+02 0.  0.
    3000022    2    5    5    0    0 -0.27262322079E+02  0.23099783546E+02 -0.38297360616E+02  0.52379237636E+02  0.25000020792E+00 0.  0.
        -13    1    4    4    0    0  0.15967168436E+02 -0.13785903214E+02  0.21082556496E+02  0.29824265434E+02  0.10500000000E+00 0.  1.
         13    1    4    4    0    0  0.15327282414E+02 -0.13203826336E+02  0.20403765822E+02  0.28733104615E+02  0.10500000000E+00 0. -1.
    3000001    1    5    5    0    0 -0.72569225150E+01  0.58035644992E+01 -0.38840129386E+01  0.10120762906E+02  0.10000000000E+01 0.  1.
        -13    1    6    6    0    0 -0.66889488128E+01  0.56983842840E+01 -0.94239496065E+01  0.12885475189E+02  0.10500000000E+00 0. -1.
         13    1    6    6    0    0 -0.20573373267E+02  0.17401399262E+02 -0.28873411010E+02  0.39493762446E+02  0.10500000000E+00 0.  1.
</event>
<event>
11    0  0.3467594E-009  0.9118800E+02  0.7816531E-02  0.1126479E+00
         25   -1    0    0    0    0  0.00000000000E+00  0.00000000000E+00  0.99999998245E-14  0.12500000000E+03  0.12500000000E+03 0.  0.
    3000001    1    3    3    0    0 -0.72557839797E+01 -0.13353716437E+02  0.10792058790E+02  0.18666458603E+02  0.10000000000E+01 0.  1.
    1000022    2    1    0    0    0 -0.15208573841E+02 -0.38046722964E+02  0.46123706460E+02  0.62499999034E+02  0.99999867522E+01 0.  0.
    3000022    2    3    3    0    0 -0.79527898616E+01 -0.24693006527E+02  0.35331647670E+02  0.43833540431E+02  0.25000347700E+00 0.  0.
    1000022    2    1    0    0    0  0.15208573841E+02  0.38046722964E+02 -0.46123706460E+02  0.62500000966E+02  0.99999988308E+01 0.  0.
    3000022    2    5    5    0    0  0.11865822555E+02  0.36296650476E+02 -0.42927091833E+02  0.57454697710E+02  0.24999002685E+00 0.  0.
        -13    1    4    4    0    0 -0.41256345274E+01 -0.12909974458E+02  0.18356764473E+02  0.22818197292E+02  0.10500000000E+00 0.  1.
         13    1    4    4    0    0 -0.38271553342E+01 -0.11783032069E+02  0.16974883197E+02  0.21015343139E+02  0.10500000000E+00 0. -1.
    3000001    1    5    5    0    0  0.33427512866E+01  0.17500724877E+01 -0.31966146271E+01  0.50453032565E+01  0.10000000000E+01 0.  1.
        -13    1    6    6    0    0  0.36696137554E+01  0.11363660521E+02 -0.13388668274E+02  0.17940632896E+02  0.10500000000E+00 0. -1.
         13    1    6    6    0    0  0.81962087993E+01  0.24932989956E+02 -0.29538423559E+02  0.39514064814E+02  0.10500000000E+00 0.  1.
</event>
<event>
11    0  0.3467594E-009  0.9118800E+02  0.7816531E-02  0.1126479E+00
         25   -1    0    0    0    0  0.00000000000E+00  0.00000000000E+00  0.99999998245E-14  0.12500000000E+03  0.12500000000E+03 0.  0.
    3000001    1    3    3    0    0  0.39395122290E+02 -0.17792380523E+02  0.39446914772E+02  0.58528655801E+02  0.10000000000E+01 0. -1.
    1000022    2    1    0    0    0  0.40243927024E+02 -0.20804714631E+02  0.41878876035E+02  0.62499999012E+02  0.99999902690E+01 0.  0.
    3000022    2    3    3    0    0  0.84880473470E+00 -0.30123341079E+01  0.24319612632E+01  0.39713432111E+01  0.25001011836E+00 0.  0.
    1000022    2    1    0    0    0 -0.40243927024E+02  0.20804714631E+02 -0.41878876035E+02  0.62500000988E+02  0.10000002614E+02 0.  0.
    3000022    2    5    5    0    0 -0.10249725007E+02  0.10602299073E+01 -0.11601652888E+02  0.15519078549E+02  0.24999822428E+00 0.  0.
        -13    1    4    4    0    0  0.40407582122E+00 -0.16475482339E+01  0.13595014342E+01  0.21764562026E+01  0.10500000000E+00 0.  1.
         13    1    4    4    0    0  0.44472891347E+00 -0.13647858740E+01  0.10724598289E+01  0.17948870085E+01  0.10500000000E+00 0. -1.
    3000001    1    5    5    0    0 -0.29994202017E+02  0.19744484723E+02 -0.30277223147E+02  0.46980922438E+02  0.10000000000E+01 0. -1.
        -13    1    6    6    0    0 -0.43474285797E+01  0.50636983379E+00 -0.49771326496E+01  0.66286816242E+01  0.10500000000E+00 0.  1.
         13    1    6    6    0    0 -0.59022964276E+01  0.55386007352E+00 -0.66245202383E+01  0.88903969252E+01  0.10500000000E+00 0. -1.
</event>
<event>
11    0  0.3467594E-009  0.9118800E+02  0.7816531E-02  0.1126479E+00
         25   -1    0    0    0    0  0.00000000000E+00  0.00000000000E+00  0.99999998245E-14  0.12500000000E+03  0.12500000000E+03 0.  0.
    3000001    1    3    3    0    0 -0.18899679665E+02 -0.27530785302E+02  0.17229038766E+02  0.37589650273E+02  0.10000000000E+01 0.  1.
    1000022    2    1    0    0    0 -0.29766639864E+02 -0.41141104756E+02  0.35037231356E+02  0.62500006820E+02  0.99999961039E+01 0.  0.
    3000022    2    3    3    0    0 -0.10866960199E+02 -0.13610319454E+02  0.17808192589E+02  0.24910356547E+02  0.25004084054E+00 0.  0.
    1000022    2    1    0    0    0  0.29766639864E+02  0.41141104756E+02 -0.35037231356E+02  0.62499993180E+02  0.99999108540E+01 0.  0.
    3000022    2    5    5    0    0  0.13454355418E+02  0.10803838701E+02 -0.10551825058E+02  0.20227360696E+02  0.24999658285E+00 0.  0.
        -13    1    4    4    0    0 -0.40180935228E+01 -0.49630812814E+01  0.64721363778E+01  0.90926797841E+01  0.10500000000E+00 0. -1.
         13    1    4    4    0    0 -0.68488666762E+01 -0.86472381726E+01  0.11336056211E+02  0.15817676763E+02  0.10500000000E+00 0.  1.
    3000001    1    5    5    0    0  0.16312284446E+02  0.30337266056E+02 -0.24485406298E+02  0.42272632484E+02  0.10000000000E+01 0.  1.
        -13    1    6    6    0    0  0.77150475834E+01  0.62422141450E+01 -0.61316507775E+01  0.11665991724E+02  0.10500000000E+00 0. -1.
         13    1    6    6    0    0  0.57393078344E+01  0.45616245558E+01 -0.44201742804E+01  0.85613689720E+01  0.10500000000E+00 0.  1.
</event>
<event>
11    0  0.3467594E-009  0.9118800E+02  0.7816531E-02  0.1126479E+00
         25   -1    0    0    0    0  0.00000000000E+00  0.00000000000E+00  0.99999998245E-14  0.12500000000E+03  0.12500000000E+03 0.  0.
    3000001    1    3    3    0    0 -0.14434515873E+02  0.15995528694E+02  0.11165192015E+02  0.24287315607E+02  0.10000000000E+01 0. -1.
    1000022    2    1    0    0    0 -0.31887914120E+02  0.35979930288E+02  0.38663361896E+02  0.62500000210E+02  0.10000001133E+02 0.  0.
    3000022    2    3    3    0    0 -0.17453398247E+02  0.19984401594E+02  0.27498169881E+02  0.38212684602E+02  0.25000053599E+00 0.  0.
    1000022    2    1    0    0    0  0.31887914120E+02 -0.35979930288E+02 -0.38663361896E+02  0.62499999790E+02  0.99999985135E+01 0.  0.
    3000022    2    5    5    0    0  0.12758472645E+02 -0.20639747423E+02 -0.22667339691E+02  0.33206152863E+02  0.25000265451E+00 0.  0.
        -13    1    4    4    0    0 -0.84341398671E+01  0.95950024089E+01  0.13317238520E+02  0.18454231312E+02  0.10500000000E+00 0. -1.
         13    1    4    4    0    0 -0.90192583803E+01  0.10389399185E+02  0.14180931361E+02  0.19758453290E+02  0.10500000000E+00 0.  1.
    3000001    1    5    5    0    0  0.19129441475E+02 -0.15340182865E+02 -0.15996022204E+02  0.29293846928E+02  0.10000000000E+01 0.  1.
        -13    1    6    6    0    0  0.70614605203E+01 -0.11464642924E+02 -0.12492337916E+02  0.18367683405E+02  0.10500000000E+00 0.  1.
         13    1    6    6    0    0  0.56970121250E+01 -0.91751044984E+01 -0.10175001775E+02  0.14838469457E+02  0.10500000000E+00 0. -1.
</event>
<event>
11    0  0.3467594E-009  0.9118800E+02  0.7816531E-02  0.1126479E+00
         25   -1    0    0    0    0  0.00000000000E+00  0.00000000000E+00  0.99999998245E-14  0.12500000000E+03  0.12500000000E+03 0.  0.
    3000001    1    3    3    0    0  0.49662717410E+02 -0.20988925545E+02  0.28684490129E+02  0.61079624017E+02  0.10000000000E+01 0.  1.
    1000022    2    1    0    0    0  0.49583718570E+02 -0.22300997819E+02  0.29161116889E+02  0.62499997827E+02  0.99999669624E+01 0.  0.
    3000022    2    3    3    0    0 -0.78998840404E-01 -0.13120722736E+01  0.47662675973E+00  0.14203738099E+01  0.25002844575E+00 0.  0.
    1000022    2    1    0    0    0 -0.49583718570E+02  0.22300997819E+02 -0.29161116889E+02  0.62500002173E+02  0.99999941270E+01 0.  0.
    3000022    2    5    5    0    0 -0.21785505505E+01  0.86268345767E+00 -0.41316133462E+01  0.47563676741E+01  0.24999872000E+00 0.  0.
        -13    1    4    4    0    0 -0.16191787611E-01 -0.79182261423E+00  0.22723137544E+00  0.83060479433E+00  0.10500000000E+00 0.  1.
         13    1    4    4    0    0 -0.62807052793E-01 -0.52024965941E+00  0.24939538429E+00  0.58976901555E+00  0.10500000000E+00 0. -1.
    3000001    1    5    5    0    0 -0.47405168019E+02  0.21438314361E+02 -0.25029503542E+02  0.57743634499E+02  0.10000000000E+01 0.  1.
        -13    1    6    6    0    0 -0.13421108188E+01  0.54649002634E+00 -0.24294967666E+01  0.28307935880E+01  0.10500000000E+00 0.  1.
         13    1    6    6    0    0 -0.83643973165E+00  0.31619343133E+00 -0.17021165796E+01  0.19255740861E+01  0.10500000000E+00 0. -1.
</event>
<event>
11    0  0.3467594E-009  0.9118800E+02  0.7816531E-02  0.1126479E+00
         25   -1    0    0    0    0  0.00000000000E+00  0.00000000000E+00  0.99999998245E-14  0.12500000000E+03  0.12500000000E+03 0.  0.
    3000001    1    3    3    0    0 -0.24069439635E+02  0.49058508482E+01 -0.69811742389E+01  0.25556644745E+02  0.10000000000E+01 0.  1.
    1000022    2    1    0    0    0 -0.54391690306E+02  0.22960175740E+02 -0.17905982770E+02  0.62499999612E+02  0.10000004409E+02 0.  0.
    3000022    2    3    3    0    0 -0.30322250672E+02  0.18054324892E+02 -0.10924808531E+02  0.36943354867E+02  0.24998861872E+00 0.  0.
    1000022    2    1    0    0    0  0.54391690306E+02 -0.22960175740E+02  0.17905982770E+02  0.62500000388E+02  0.10000009254E+02 0.  0.
    3000022    2    5    5    0    0  0.14229739871E+02 -0.49668296338E+01  0.26253192532E+00  0.15076017799E+02  0.24999249467E+00 0.  0.
        -13    1    4    4    0    0 -0.12352234988E+02  0.74164830506E+01 -0.44973101784E+01  0.15093666018E+02  0.10500000000E+00 0.  1.
         13    1    4    4    0    0 -0.17970015684E+02  0.10637841842E+02 -0.64274983523E+01  0.21849688849E+02  0.10500000000E+00 0. -1.
    3000001    1    5    5    0    0  0.40161950435E+02 -0.17993346107E+02  0.17643450844E+02  0.47423982589E+02  0.10000000000E+01 0. -1.
        -13    1    6    6    0    0  0.66991183405E+01 -0.22670240433E+01  0.12658596311E+00  0.70742231771E+01  0.10500000000E+00 0.  1.
         13    1    6    6    0    0  0.75306215306E+01 -0.26998055905E+01  0.13594596221E+00  0.80017946217E+01  0.10500000000E+00 0. -1.
</event>
<event>
11    0  0.3467594E-009  0.9118800E+02  0.7816531E-02  0.1126479E+00
         25   -1    0    0    0    0  0.00000000000E+00  0.00000000000E+00  0.99999998245E-14  0.12500000000E+03  0.12500000000E+03 0.  0.
    3000001    1    3    3    0    0 -0.12778446860E+02 -0.46435425772E+02 -0.91918581486E+01  0.49041082033E+02  0.10000000000E+01 0. -1.
    1000022    2    1    0    0    0 -0.20544891187E+02 -0.56639622388E+02 -0.13270663844E+02  0.62499998922E+02  0.99999984111E+01 0.  0.
    3000022    2    3    3    0    0 -0.77664443274E+01 -0.10204196616E+02 -0.40788056952E+01  0.13458916889E+02  0.25000368770E+00 0.  0.
    1000022    2    1    0    0    0  0.20544891187E+02  0.56639622388E+02  0.13270663844E+02  0.62500001078E+02  0.10000011890E+02 0.  0.
    3000022    2    5    5    0    0  0.16558106509E+02  0.43311972575E+02  0.14273470983E+02  0.48516928320E+02  0.25000036615E+00 0.  0.
        -13    1    4    4    0    0 -0.35970400910E+01 -0.46493743205E+01 -0.19204445094E+01  0.61850231287E+01  0.10500000000E+00 0. -1.
         13    1    4    4    0    0 -0.41694042364E+01 -0.55548222957E+01 -0.21583611858E+01  0.72738937600E+01  0.10500000000E+00 0.  1.
    3000001    1    5    5    0    0  0.39867846775E+01  0.13327649813E+02 -0.10028071398E+01  0.13983072758E+02  0.10000000000E+01 0.  1.
        -13    1    6    6    0    0  0.76528199953E+01  0.19891477732E+02  0.66124637008E+01  0.22315291651E+02  0.10500000000E+00 0. -1.
         13    1    6    6    0    0  0.89052865141E+01  0.23420494843E+02  0.76610072827E+01  0.26201636670E+02  0.10500000000E+00 0.  1.
</event>
<event>
11    0  0.3467594E-009  0.9118800E+02  0.7816531E-02  0.1126479E+00
         25   -1    0    0    0    0  0.00000000000E+00  0.00000000000E+00  0.99999998245E-14  0.12500000000E+03  0.12500000000E+03 0.  0.
    3000001    1    3    3    0    0  0.24398812366E+02 -0.22647240210E+02  0.30759952437E+02  0.45336235044E+02  0.10000000000E+01 0.  1.
    1000022    2    1    0    0    0  0.30214974515E+02 -0.27749546306E+02  0.46078930859E+02  0.62500000583E+02  0.10000009930E+02 0.  0.
    3000022    2    3    3    0    0  0.58161621485E+01 -0.51023060963E+01  0.15318978422E+02  0.17163765539E+02  0.24995588733E+00 0.  0.
    1000022    2    1    0    0    0 -0.30214974515E+02  0.27749546306E+02 -0.46078930859E+02  0.62499999417E+02  0.10000002645E+02 0.  0.
    3000022    2    5    5    0    0 -0.26095916703E+02  0.18429521013E+02 -0.33733798984E+02  0.46461552181E+02  0.25004771676E+00 0.  0.
        -13    1    4    4    0    0  0.40964766917E+01 -0.36504390564E+01  0.10845610402E+02  0.12155044903E+02  0.10500000000E+00 0. -1.
         13    1    4    4    0    0  0.17196854569E+01 -0.14518670399E+01  0.44733680201E+01  0.50087206366E+01  0.10500000000E+00 0.  1.
    3000001    1    5    5    0    0 -0.41190578118E+01  0.93200252934E+01 -0.12345131875E+02  0.16038447236E+02  0.10000000000E+01 0. -1.
        -13    1    6    6    0    0 -0.13416127005E+02  0.95446494651E+01 -0.17438454972E+02  0.23983401219E+02  0.10500000000E+00 0. -1.
         13    1    6    6    0    0 -0.12679789698E+02  0.88848715479E+01 -0.16295344012E+02  0.22478150962E+02  0.10500000000E+00 0.  1.
</event>
<event>
11    0  0.3467594E-009  0.9118800E+02  0.7816531E-02  0.1126479E+00
         25   -1    0    0    0    0  0.00000000000E+00  0.00000000000E+00  0.99999998245E-14  0.12500000000E+03  0.12500000000E+03 0.  0.
    3000001    1    3    3    0    0 -0.34659608306E+02 -0.47894060945E+01 -0.21410092917E+01  0.35068658079E+02  0.10000000000E+01 0. -1.
    1000022    2    1    0    0    0 -0.60033792249E+02 -0.71542325827E+01 -0.12288642118E+02  0.62500000932E+02  0.10000006788E+02 0.  0.
    3000022    2    3    3    0    0 -0.25374183943E+02 -0.23648264882E+01 -0.10147632826E+02  0.27431342853E+02  0.25000731729E+00 0.  0.
    1000022    2    1    0    0    0  0.60033792249E+02  0.71542325827E+01  0.12288642118E+02  0.62499999068E+02  0.99999951376E+01 0.  0.
    3000022    2    5    5    0    0  0.13333936460E+02 -0.20296550803E+01  0.47515026980E+01  0.14302190051E+02  0.25000225106E+00 0.  0.
        -13    1    4    4    0    0 -0.82839546420E+01 -0.78277835355E+00 -0.33684252770E+01  0.89774138987E+01  0.10500000000E+00 0.  1.
         13    1    4    4    0    0 -0.17090229301E+02 -0.15820481347E+01 -0.67792075492E+01  0.18453928955E+02  0.10500000000E+00 0. -1.
    3000001    1    5    5    0    0  0.46699855789E+02  0.91838876630E+01  0.75371394199E+01  0.48197809017E+02  0.10000000000E+01 0.  1.
        -13    1    6    6    0    0  0.30671058579E+01 -0.46233411169E+00  0.10984000339E+01  0.32921723541E+01  0.10500000000E+00 0. -1.
         13    1    6    6    0    0  0.10266830602E+02 -0.15673209686E+01  0.36531026641E+01  0.11010017697E+02  0.10500000000E+00 0.  1.
</event>
<event>
11    0  0.3467594E-009  0.9118800E+02  0.7816531E-02  0.1126479E+00
         25   -1    0    0    0    0  0.00000000000E+00  0.00000000000E+00  0.99999998245E-14  0.12500000000E+03  0.12500000000E+03 0.  0.
    3000001    1    3    3    0    0 -0.41408805576E+01  0.47006484354E+02  0.19037682893E+01  0.47237493549E+02  0.10000000000E+01 0. -1.
    1000022    2    1    0    0    0 -0.48644632367E+01  0.60981315557E+02  0.79916398636E+01  0.62500001852E+02  0.10000003701E+02 0.  0.
    3000022    2    3    3    0    0 -0.72358267914E+00  0.13974831204E+02  0.60878715743E+01  0.15262508303E+02  0.25000062589E+00 0.  0.
    1000022    2    1    0    0    0  0.48644632367E+01 -0.60981315557E+02 -0.79916398636E+01  0.62499998148E+02  0.99999805574E+01 0.  0.
    3000022    2    5    5    0    0  0.34231081859E+01 -0.58358227453E+01 -0.14852761678E+00  0.67719325836E+01  0.25002739426E+00 0.  0.
        -13    1    4    4    0    0 -0.55701226655E+00  0.99879992734E+01  0.43390693772E+01  0.10904537597E+02  0.10500000000E+00 0.  1.
         13    1    4    4    0    0 -0.16657041258E+00  0.39868319304E+01  0.17488021971E+01  0.43579707053E+01  0.10500000000E+00 0. -1.
    3000001    1    5    5    0    0  0.14413550509E+01 -0.55145492812E+02 -0.78431122468E+01  0.55728065565E+02  0.10000000000E+01 0.  1.
        -13    1    6    6    0    0  0.13277810468E+01 -0.22362458690E+01 -0.11693863751E+00  0.26054745709E+01  0.10500000000E+00 0.  1.
         13    1    6    6    0    0  0.20953271391E+01 -0.35995768763E+01 -0.31588979268E-01  0.41664580127E+01  0.10500000000E+00 0. -1.
</event>
<event>
11    0  0.3467594E-009  0.9118800E+02  0.7816531E-02  0.1126479E+00
         25   -1    0    0    0    0  0.00000000000E+00  0.00000000000E+00  0.99999998245E-14  0.12500000000E+03  0.12500000000E+03 0.  0.
    3000001    1    3    3    0    0  0.35530423287E+01 -0.16080152587E+01 -0.35221376930E+01  0.53493248911E+01  0.10000000000E+01 0.  1.
    1000022    2    1    0    0    0  0.23625173375E+02 -0.43388840213E+02 -0.36952801985E+02  0.62499999311E+02  0.10000003368E+02 0.  0.
    3000022    2    3    3    0    0  0.20072131046E+02 -0.41780824954E+02 -0.33430664292E+02  0.57150674420E+02  0.24998620686E+00 0.  0.
    1000022    2    1    0    0    0 -0.23625173375E+02  0.43388840213E+02  0.36952801985E+02  0.62500000689E+02  0.10000011975E+02 0.  0.
    3000022    2    5    5    0    0 -0.22565030069E+02  0.36449100093E+02  0.34394697979E+02  0.54961579577E+02  0.25000168445E+00 0.  0.
        -13    1    4    4    0    0  0.74499955784E+01 -0.15623452252E+02 -0.12524094357E+02  0.21364893139E+02  0.10500000000E+00 0. -1.
         13    1    4    4    0    0  0.12622135468E+02 -0.26157372702E+02 -0.20906569935E+02  0.35785781281E+02  0.10500000000E+00 0.  1.
    3000001    1    5    5    0    0 -0.10601433056E+01  0.69397401195E+01  0.25581040062E+01  0.75384211120E+01  0.10000000000E+01 0.  1.
        -13    1    6    6    0    0 -0.96596945733E+01  0.15546572658E+02  0.14610698263E+02  0.23419845204E+02  0.10500000000E+00 0.  1.
         13    1    6    6    0    0 -0.12905335496E+02  0.20902527435E+02  0.19783999716E+02  0.31541734372E+02  0.10500000000E+00 0. -1.
</event>
<event>
11    0  0.3467594E-009  0.9118800E+02  0.7816531E-02  0.1126479E+00
         25   -1    0    0    0    0  0.00000000000E+00  0.00000000000E+00  0.99999998245E-14  0.12500000000E+03  0.12500000000E+03 0.  0.
    3000001    1    3    3    0    0  0.51756416756E+02 -0.19490077341E+02 -0.23293512930E+02  0.60018143380E+02  0.10000000000E+01 0.  1.
    1000022    2    1    0    0    0  0.52911263879E+02 -0.18989082473E+02 -0.25417764742E+02  0.62500000897E+02  0.10000012460E+02 0.  0.
    3000022    2    3    3    0    0  0.11548471231E+01  0.50099486790E+00 -0.21242518121E+01  0.24818575169E+01  0.25000647582E+00 0.  0.
    1000022    2    1    0    0    0 -0.52911263879E+02  0.18989082473E+02  0.25417764742E+02  0.62499999103E+02  0.10000001250E+02 0.  0.
    3000022    2    5    5    0    0 -0.29677695587E+02  0.84516221949E+01  0.89945224028E+01  0.32142798086E+02  0.25000489475E+00 0.  0.
        -13    1    4    4    0    0  0.64470821317E+00  0.22092670045E+00 -0.10658724751E+01  0.12694748600E+01  0.10500000000E+00 0. -1.
         13    1    4    4    0    0  0.51013890992E+00  0.28006816745E+00 -0.10583793369E+01  0.12123826569E+01  0.10500000000E+00 0.  1.
    3000001    1    5    5    0    0 -0.23233568292E+02  0.10537460278E+02  0.16423242339E+02  0.30357201018E+02  0.10000000000E+01 0.  1.
        -13    1    6    6    0    0 -0.14763250858E+02  0.41351815248E+01  0.44829344921E+01  0.15973760634E+02  0.10500000000E+00 0.  1.
         13    1    6    6    0    0 -0.14914444729E+02  0.43164406701E+01  0.45115879106E+01  0.16169037452E+02  0.10500000000E+00 0. -1.
</event>
<event>
11    0  0.3467594E-009  0.9118800E+02  0.7816531E-02  0.1126479E+00
         25   -1    0    0    0    0  0.00000000000E+00  0.00000000000E+00  0.99999998245E-14  0.12500000000E+03  0.12500000000E+03 0.  0.
    3000001    1    3    3    0    0  0.12322386948E+00 -0.16134847899E+02 -0.46074990455E+01  0.16810043078E+02  0.10000000000E+01 0.  1.
    1000022    2    1    0    0    0 -0.15302742799E+02 -0.56753346214E+02 -0.18738565340E+02  0.62500002401E+02  0.10000011275E+02 0.  0.
    3000022    2    3    3    0    0 -0.15425966668E+02 -0.40618498315E+02 -0.14131066294E+02  0.45689959323E+02  0.24999055813E+00 0.  0.
    1000022    2    1    0    0    0  0.15302742799E+02  0.56753346214E+02  0.18738565340E+02  0.62499997599E+02  0.99999812610E+01 0.  0.
    3000022    2    5    5    0    0 -0.53064868750E+00 -0.53085898259E-01  0.47536464665E+00  0.75688855152E+00  0.25000517993E+00 0.  0.
        -13    1    4    4    0    0 -0.47056523567E+01 -0.12314784331E+02 -0.43278728329E+01  0.13875827380E+02  0.10500000000E+00 0.  1.
         13    1    4    4    0    0 -0.10720314311E+02 -0.28303713984E+02 -0.98031934614E+01  0.31814131942E+02  0.10500000000E+00 0. -1.
    3000001    1    5    5    0    0  0.15833391486E+02  0.56806432112E+02  0.18263200693E+02  0.61743109047E+02  0.10000000000E+01 0. -1.
        -13    1    6    6    0    0 -0.27575312088E+00 -0.79165992170E-01  0.19274663183E+00  0.36122472517E+00  0.10500000000E+00 0.  1.
         13    1    6    6    0    0 -0.25489556662E+00  0.26080093911E-01  0.28261801482E+00  0.39566382635E+00  0.10500000000E+00 0. -1.
</event>
<event>
11    0  0.3467594E-009  0.9118800E+02  0.7816531E-02  0.1126479E+00
         25   -1    0    0    0    0  0.00000000000E+00  0.00000000000E+00  0.99999998245E-14  0.12500000000E+03  0.12500000000E+03 0.  0.
    3000001    1    3    3    0    0 -0.21878541987E+02  0.38223577660E+02 -0.74905638274E+01  0.44685803507E+02  0.10000000000E+01 0. -1.
    1000022    2    1    0    0    0 -0.24779991490E+02  0.55653203426E+02 -0.97428542556E+01  0.62499999447E+02  0.99999846006E+01 0.  0.
    3000022    2    3    3    0    0 -0.29014495034E+01  0.17429625766E+02 -0.22522904282E+01  0.17814195940E+02  0.25000252459E+00 0.  0.
    1000022    2    1    0    0    0  0.24779991490E+02 -0.55653203426E+02  0.97428542556E+01  0.62500000553E+02  0.99999915128E+01 0.  0.
    3000022    2    5    5    0    0  0.24828327902E+02 -0.49676988503E+02  0.75092790344E+01  0.56041955997E+02  0.25001446775E+00 0.  0.
        -13    1    4    4    0    0 -0.21789760490E+01  0.13116403918E+02 -0.17193526389E+01  0.13407281113E+02  0.10500000000E+00 0. -1.
         13    1    4    4    0    0 -0.72247345439E+00  0.43132218482E+01 -0.53293778933E+00  0.44069148269E+01  0.10500000000E+00 0.  1.
    3000001    1    5    5    0    0 -0.48336412243E-01 -0.59762149230E+01  0.22335752212E+01  0.64580445557E+01  0.10000000000E+01 0. -1.
        -13    1    6    6    0    0  0.14778656395E+02 -0.29698084135E+02  0.44586055520E+01  0.33470510522E+02  0.10500000000E+00 0. -1.
         13    1    6    6    0    0  0.10049671508E+02 -0.19978904368E+02  0.30506734824E+01  0.22571445476E+02  0.10500000000E+00 0.  1.
</event>
<event>
11    0  0.3467594E-009  0.9118800E+02  0.7816531E-02  0.1126479E+00
         25   -1    0    0    0    0  0.00000000000E+00  0.00000000000E+00  0.99999998245E-14  0.12500000000E+03  0.12500000000E+03 0.  0.
    3000001    1    3    3    0    0 -0.21158389558E+02  0.44643429911E+02  0.65421431958E+00  0.49418025854E+02  0.10000000000E+01 0.  1.
    1000022    2    1    0    0    0 -0.29123896152E+02  0.54181434652E+02  0.47350038212E+01  0.62500004832E+02  0.10000057737E+02 0.  0.
    3000022    2    3    3    0    0 -0.79655065940E+01  0.95380047415E+01  0.40807895016E+01  0.13081978978E+02  0.25000257204E+00 0.  0.
    1000022    2    1    0    0    0  0.29123896152E+02 -0.54181434652E+02 -0.47350038212E+01  0.62499995168E+02  0.99999973381E+01 0.  0.
    3000022    2    5    5    0    0  0.17986396377E+02 -0.25249183351E+02  0.69982961381E+00  0.31009417513E+02  0.24999694078E+00 0.  0.
        -13    1    4    4    0    0 -0.32184023613E+01  0.39322966217E+01  0.16273562205E+01  0.53367015795E+01  0.10500000000E+00 0. -1.
         13    1    4    4    0    0 -0.47471042327E+01  0.56057081198E+01  0.24534332811E+01  0.77452773989E+01  0.10500000000E+00 0.  1.
    3000001    1    5    5    0    0  0.11137499775E+02 -0.28932251301E+02 -0.54348334350E+01  0.31490577655E+02  0.10000000000E+01 0.  1.
        -13    1    6    6    0    0  0.85394360819E+01 -0.11915304481E+02  0.27805936193E+00  0.14662359683E+02  0.10500000000E+00 0. -1.
         13    1    6    6    0    0  0.94469602950E+01 -0.13333878870E+02  0.42177025189E+00  0.16347057830E+02  0.10500000000E+00 0.  1.
</event>
<event>
11    0  0.3467594E-009  0.9118800E+02  0.7816531E-02  0.1126479E+00
         25   -1    0    0    0    0  0.00000000000E+00  0.00000000000E+00  0.99999998245E-14  0.12500000000E+03  0.12500000000E+03 0.  0.
    3000001    1    3    3    0    0 -0.88155946174E+01 -0.17478493852E+02  0.21546598818E+02  0.29128480503E+02  0.10000000000E+01 0.  1.
    1000022    2    1    0    0    0 -0.28243830943E+02 -0.33236876744E+02  0.43633083772E+02  0.62499999994E+02  0.10000001892E+02 0.  0.
    3000022    2    3    3    0    0 -0.19428236325E+02 -0.15758382892E+02  0.22086484954E+02  0.33371519491E+02  0.24999492563E+00 0.  0.
    1000022    2    1    0    0    0  0.28243830943E+02  0.33236876744E+02 -0.43633083772E+02  0.62500000006E+02  0.10000001964E+02 0.  0.
    3000022    2    5    5    0    0  0.18950684185E+02  0.27233287037E+02 -0.28576053750E+02  0.43788511045E+02  0.24999552345E+00 0.  0.
        -13    1    4    4    0    0 -0.50963621272E+01 -0.41737576448E+01  0.58317320853E+01  0.87984819102E+01  0.10500000000E+00 0. -1.
         13    1    4    4    0    0 -0.14331874198E+02 -0.11584625247E+02  0.16254752869E+02  0.24573037581E+02  0.10500000000E+00 0.  1.
    3000001    1    5    5    0    0  0.92931467581E+01  0.60035897071E+01 -0.15057030022E+02  0.18711488960E+02  0.10000000000E+01 0.  1.
        -13    1    6    6    0    0  0.12334597518E+02  0.17703319070E+02 -0.18656168189E+02  0.28523909945E+02  0.10500000000E+00 0. -1.
         13    1    6    6    0    0  0.66160866664E+01  0.95299679664E+01 -0.99198855612E+01  0.15264601101E+02  0.10500000000E+00 0.  1.
</event>
<event>
11    0  0.3467594E-009  0.9118800E+02  0.7816531E-02  0.1126479E+00
         25   -1    0    0    0    0  0.00000000000E+00  0.00000000000E+00  0.99999998245E-14  0.12500000000E+03  0.12500000000E+03 0.  0.
    3000001    1    3    3    0    0 -0.30615981621E+02 -0.89678014199E+01  0.27600055831E+02  0.42196242425E+02  0.10000000000E+01 0. -1.
    1000022    2    1    0    0    0 -0.40766344122E+02 -0.18110038325E+02  0.42619032446E+02  0.62499998604E+02  0.99999798829E+01 0.  0.
    3000022    2    3    3    0    0 -0.10150362501E+02 -0.91422369049E+01  0.15018976615E+02  0.20303756179E+02  0.25000376457E+00 0.  0.
    1000022    2    1    0    0    0  0.40766344122E+02  0.18110038325E+02 -0.42619032446E+02  0.62500001396E+02  0.99999973314E+01 0.  0.
    3000022    2    5    5    0    0  0.25854930440E+02  0.81574393723E+01 -0.30650318876E+02  0.40920970175E+02  0.25001537475E+00 0.  0.
        -13    1    4    4    0    0 -0.32685761026E+01 -0.29034151019E+01  0.48681569455E+01  0.65439579796E+01  0.10500000000E+00 0.  1.
         13    1    4    4    0    0 -0.68817863989E+01 -0.62388218030E+01  0.10150819670E+02  0.13759798200E+02  0.10500000000E+00 0. -1.
    3000001    1    5    5    0    0  0.14911413682E+02  0.99525989526E+01 -0.11968713570E+02  0.21579031221E+02  0.10000000000E+01 0.  1.
        -13    1    6    6    0    0  0.12156089345E+02  0.38086896451E+01 -0.14307481390E+02  0.19157026745E+02  0.10500000000E+00 0. -1.
         13    1    6    6    0    0  0.13698841095E+02  0.43487497272E+01 -0.16342837486E+02  0.21763943430E+02  0.10500000000E+00 0.  1.
</event>
<event>
11    0  0.3467594E-009  0.9118800E+02  0.7816531E-02  0.1126479E+00
         25   -1    0    0    0    0  0.00000000000E+00  0.00000000000E+00  0.99999998245E-14  0.12500000000E+03  0.12500000000E+03 0.  0.
    3000001    1    3    3    0    0 -0.40989879040E+02 -0.24832943316E+02 -0.38843707390E+02  0.61698288965E+02  0.10000000000E+01 0. -1.
    1000022    2    1    0    0    0 -0.40607234648E+02 -0.25491367769E+02 -0.38826445338E+02  0.62500000779E+02  0.99999951661E+01 0.  0.
    3000022    2    3    3    0    0  0.38264439236E+00 -0.65842445301E+00  0.17262051142E-01  0.80171181416E+00  0.25000872631E+00 0.  0.
    1000022    2    1    0    0    0  0.40607234648E+02  0.25491367769E+02  0.38826445338E+02  0.62499999221E+02  0.99999854235E+01 0.  0.
    3000022    2    5    5    0    0  0.51482863595E-01  0.19055807995E+01  0.72951002225E+00  0.20563491798E+01  0.24999681660E+00 0.  0.
        -13    1    4    4    0    0  0.29804535465E+00 -0.41780862871E+00  0.37195866034E-01  0.52517008302E+00  0.10500000000E+00 0.  1.
         13    1    4    4    0    0  0.84599037707E-01 -0.24061582430E+00 -0.19933814893E-01  0.27654173114E+00  0.10500000000E+00 0. -1.
    3000001    1    5    5    0    0  0.40555751784E+02  0.23585786969E+02  0.38096935316E+02  0.60443650041E+02  0.10000000000E+01 0. -1.
        -13    1    6    6    0    0  0.28516767172E-01  0.14241630767E+01  0.51285990363E+00  0.15175980877E+01  0.10500000000E+00 0. -1.
         13    1    6    6    0    0  0.22966096423E-01  0.48141772280E+00  0.21665011862E+00  0.53875109216E+00  0.10500000000E+00 0.  1.
</event>
<event>
11    0  0.3467594E-009  0.9118800E+02  0.7816531E-02  0.1126479E+00
         25   -1    0    0    0    0  0.00000000000E+00  0.00000000000E+00  0.99999998245E-14  0.12500000000E+03  0.12500000000E+03 0.  0.
    3000001    1    3    3    0    0  0.43971517827E+02  0.85756347157E+01 -0.47272058053E+01  0.45059764374E+02  0.10000000000E+01 0.  1.
    1000022    2    1    0    0    0  0.58731677186E+02  0.17633350868E+02 -0.67753122996E+01  0.62499998506E+02  0.99999994272E+01 0.  0.
    3000022    2    3    3    0    0  0.14760159360E+02  0.90577161527E+01 -0.20481064943E+01  0.17440234132E+02  0.25000026021E+00 0.  0.
    1000022    2    1    0    0    0 -0.58731677186E+02 -0.17633350868E+02  0.67753122996E+01  0.62500001494E+02  0.10000018101E+02 0.  0.
    3000022    2    5    5    0    0 -0.57722807873E+02 -0.17479941301E+02  0.54610481505E+01  0.60558702434E+02  0.24999394522E+00 0.  0.
        -13    1    4    4    0    0  0.53857336871E+01  0.32373690123E+01 -0.73307526243E+00  0.63273303858E+01  0.10500000000E+00 0. -1.
         13    1    4    4    0    0  0.93744256725E+01  0.58203471404E+01 -0.13150312319E+01  0.11112903746E+02  0.10500000000E+00 0.  1.
    3000001    1    5    5    0    0 -0.10088693135E+01 -0.15340956770E+00  0.13142641491E+01  0.19412990601E+01  0.10000000000E+01 0.  1.
        -13    1    6    6    0    0 -0.27292725488E+02 -0.82094374863E+01  0.26224353391E+01  0.28621249458E+02  0.10500000000E+00 0. -1.
         13    1    6    6    0    0 -0.30430082385E+02 -0.92705038144E+01  0.28386128113E+01  0.31937452976E+02  0.10500000000E+00 0.  1.
</event>
<event>
11    0  0.3467594E-009  0.9118800E+02  0.7816531E-02  0.1126479E+00
         25   -1    0    0    0    0  0.00000000000E+00  0.00000000000E+00  0.99999998245E-14  0.12500000000E+03  0.12500000000E+03 0.  0.
    3000001    1    3    3    0    0  0.79518916638E+01 -0.34737865725E+01 -0.52899679968E+01  0.10211931041E+02  0.10000000000E+01 0. -1.
    1000022    2    1    0    0    0  0.45345722869E+02 -0.37657336757E+02 -0.18219231310E+02  0.62499999155E+02  0.99999955377E+01 0.  0.
    3000022    2    3    3    0    0  0.37393831205E+02 -0.34183550184E+02 -0.12929263313E+02  0.52288068114E+02  0.25000373700E+00 0.  0.
    1000022    2    1    0    0    0 -0.45345722869E+02  0.37657336757E+02  0.18219231310E+02  0.62500000845E+02  0.10000006097E+02 0.  0.
    3000022    2    5    5    0    0 -0.14914541495E+02  0.90725013330E+01  0.93521476052E+01  0.19806034181E+02  0.24999343773E+00 0.  0.
        -13    1    4    4    0    0  0.21698162818E+02 -0.19791994356E+02 -0.74366584682E+01  0.30296010041E+02  0.10500000000E+00 0. -1.
         13    1    4    4    0    0  0.15695668388E+02 -0.14391555828E+02 -0.54926048448E+01  0.21992058073E+02  0.10500000000E+00 0.  1.
    3000001    1    5    5    0    0 -0.30431181374E+02  0.28584835424E+02  0.88670837046E+01  0.42693966663E+02  0.10000000000E+01 0.  1.
        -13    1    6    6    0    0 -0.10570283419E+02  0.63791725471E+01  0.66206069438E+01  0.14009575128E+02  0.10500000000E+00 0. -1.
         13    1    6    6    0    0 -0.43442580756E+01  0.26933287860E+01  0.27315406614E+01  0.57964590538E+01  0.10500000000E+00 0.  1.
</event>
<event>
11    0  0.3467594E-009  0.9118800E+02  0.7816531E-02  0.1126479E+00
         25   -1    0    0    0    0  0.00000000000E+00  0.00000000000E+00  0.99999998245E-14  0.12500000000E+03  0.12500000000E+03 0.  0.
    3000001    1    3    3    0    0 -0.98047152772E+01  0.18032256270E+02  0.17222332187E+02  0.26812374640E+02  0.10000000000E+01 0.  1.
    1000022    2    1    0    0    0 -0.26660855939E+02  0.32524325837E+02  0.45139970482E+02  0.62499999734E+02  0.10000001054E+02 0.  0.
    3000022    2    3    3    0    0 -0.16856140662E+02  0.14492069567E+02  0.27917638295E+02  0.35687625095E+02  0.24999711465E+00 0.  0.
    1000022    2    1    0    0    0  0.26660855939E+02 -0.32524325837E+02 -0.45139970482E+02  0.62500000266E+02  0.10000004376E+02 0.  0.
    3000022    2    5    5    0    0  0.18996568912E+02 -0.16410025326E+02 -0.29641884080E+02  0.38844077990E+02  0.25008284393E+00 0.  0.
        -13    1    4    4    0    0 -0.73738092603E+01  0.64057272461E+01  0.12336251848E+02  0.15735327745E+02  0.10500000000E+00 0.  1.
         13    1    4    4    0    0 -0.94823314018E+01  0.80863423206E+01  0.15581386447E+02  0.19952297350E+02  0.10500000000E+00 0. -1.
    3000001    1    5    5    0    0  0.76642870268E+01 -0.16114300511E+02 -0.15498086402E+02  0.23655922276E+02  0.10000000000E+01 0. -1.
        -13    1    6    6    0    0  0.96570979143E+01 -0.83572931399E+01 -0.14976864519E+02  0.19683022750E+02  0.10500000000E+00 0. -1.
         13    1    6    6    0    0  0.93394709982E+01 -0.80527321858E+01 -0.14665019560E+02  0.19161055240E+02  0.10500000000E+00 0.  1.
</event>
<event>
11    0  0.3467594E-009  0.9118800E+02  0.7816531E-02  0.1126479E+00
         25   -1    0    0    0    0  0.00000000000E+00  0.00000000000E+00  0.99999998245E-14  0.12500000000E+03  0.12500000000E+03 0.  0.
    3000001    1    3    3    0    0 -0.12619446375E+02 -0.17551351540E+02  0.13959868443E+02  0.25752248341E+02  0.10000000000E+01 0.  1.
    1000022    2    1    0    0    0 -0.32138284508E+02 -0.33216247781E+02  0.40866386317E+02  0.62499999568E+02  0.99999983800E+01 0.  0.
    3000022    2    3    3    0    0 -0.19518838133E+02 -0.15664896241E+02  0.26906517874E+02  0.36747751226E+02  0.24999958528E+00 0.  0.
    1000022    2    1    0    0    0  0.32138284508E+02  0.33216247781E+02 -0.40866386317E+02  0.62500000432E+02  0.10000003784E+02 0.  0.
    3000022    2    5    5    0    0  0.23997939492E+02  0.27345918405E+02 -0.36412003019E+02  0.51474234494E+02  0.24999920918E+00 0.  0.
        -13    1    4    4    0    0 -0.10370467553E+02 -0.83036321005E+01  0.14186113825E+02  0.19435888294E+02  0.10500000000E+00 0.  1.
         13    1    4    4    0    0 -0.91483705805E+01 -0.73612641405E+01  0.12720404049E+02  0.17311862933E+02  0.10500000000E+00 0. -1.
    3000001    1    5    5    0    0  0.81403450167E+01  0.58703293753E+01 -0.44543832982E+01  0.11025765939E+02  0.10000000000E+01 0. -1.
        -13    1    6    6    0    0  0.13877916418E+02  0.15772185994E+02 -0.20942049281E+02  0.29663763555E+02  0.10500000000E+00 0.  1.
         13    1    6    6    0    0  0.10120023073E+02  0.11573732411E+02 -0.15469953738E+02  0.21810470939E+02  0.10500000000E+00 0. -1.
</event>
<event>
11    0  0.3467594E-009  0.9118800E+02  0.7816531E-02  0.1126479E+00
         25   -1    0    0    0    0  0.00000000000E+00  0.00000000000E+00  0.99999998245E-14  0.12500000000E+03  0.12500000000E+03 0.  0.
    3000001    1    3    3    0    0 -0.38286194814E+02 -0.13808666510E+02 -0.28210337647E+02  0.49531153169E+02  0.10000000000E+01 0. -1.
    1000022    2    1    0    0    0 -0.49113183532E+02 -0.20184627736E+02 -0.31412194062E+02  0.62499998563E+02  0.99999945544E+01 0.  0.
    3000022    2    3    3    0    0 -0.10826988718E+02 -0.63759612265E+01 -0.32018564149E+01  0.12968845394E+02  0.25000016562E+00 0.  0.
    1000022    2    1    0    0    0  0.49113183532E+02  0.20184627736E+02  0.31412194062E+02  0.62500001437E+02  0.10000012513E+02 0.  0.
    3000022    2    5    5    0    0  0.15145398568E+02  0.16936630142E+01  0.10643450939E+02  0.18590243038E+02  0.24999225067E+00 0.  0.
        -13    1    4    4    0    0 -0.75163669900E+01 -0.44476042923E+01 -0.21804825115E+01  0.90023600046E+01  0.10500000000E+00 0. -1.
         13    1    4    4    0    0 -0.33106217282E+01 -0.19283569342E+01 -0.10213739034E+01  0.39664853892E+01  0.10500000000E+00 0.  1.
    3000001    1    5    5    0    0  0.33967784964E+02  0.18490964722E+02  0.20768743123E+02  0.43909758399E+02  0.10000000000E+01 0. -1.
        -13    1    6    6    0    0  0.10359448760E+02  0.12053367126E+01  0.73045655570E+01  0.12733370260E+02  0.10500000000E+00 0.  1.
         13    1    6    6    0    0  0.47859498078E+01  0.48832630163E+00  0.33388853824E+01  0.58568727779E+01  0.10500000000E+00 0. -1.
</event>
<event>
11    0  0.3467594E-009  0.9118800E+02  0.7816531E-02  0.1126479E+00
         25   -1    0    0    0    0  0.00000000000E+00  0.00000000000E+00  0.99999998245E-14  0.12500000000E+03  0.12500000000E+03 0.  0.
    3000001    1    3    3    0    0  0.11617943755E+02 -0.11166056398E+01  0.23599337858E+01  0.11949590484E+02  0.10000000000E+01 0. -1.
    1000022    2    1    0    0    0  0.55704431582E+02 -0.24923736120E+02  0.90594568510E+01  0.62500000782E+02  0.10000000963E+02 0.  0.
    3000022    2    3    3    0    0  0.44086487827E+02 -0.23807130480E+02  0.66995230652E+01  0.50550410299E+02  0.25000284850E+00 0.  0.
    1000022    2    1    0    0    0 -0.55704431582E+02  0.24923736120E+02 -0.90594568510E+01  0.62499999218E+02  0.99999911820E+01 0.  0.
    3000022    2    5    5    0    0 -0.24701717668E+02  0.13464889301E+02  0.29054739247E+00  0.28135831545E+02  0.24999857719E+00 0.  0.
        -13    1    4    4    0    0  0.18756364278E+02 -0.10058366587E+02  0.28666410779E+01  0.21475581375E+02  0.10500000000E+00 0. -1.
         13    1    4    4    0    0  0.25330123549E+02 -0.13748763894E+02  0.38328819873E+01  0.29074828924E+02  0.10500000000E+00 0.  1.
    3000001    1    5    5    0    0 -0.31002713914E+02  0.11458846819E+02 -0.93500042434E+01  0.34364167672E+02  0.10000000000E+01 0.  1.
        -13    1    6    6    0    0 -0.12636400395E+02  0.69642869535E+01  0.15967967318E+00  0.14429706522E+02  0.10500000000E+00 0. -1.
         13    1    6    6    0    0 -0.12065317273E+02  0.65006023479E+01  0.13086771929E+00  0.13706125023E+02  0.10500000000E+00 0.  1.
</event>
<event>
11    0  0.3467594E-009  0.9118800E+02  0.7816531E-02  0.1126479E+00
         25   -1    0    0    0    0  0.00000000000E+00  0.00000000000E+00  0.99999998245E-14  0.12500000000E+03  0.12500000000E+03 0.  0.
    3000001    1    3    3    0    0  0.12304425354E+02 -0.41028628869E+02 -0.66344727371E+01  0.43356239443E+02  0.10000000000E+01 0. -1.
    1000022    2    1    0    0    0  0.23632331597E+02 -0.56313261934E+02 -0.87509825471E+01  0.62500000441E+02  0.99999896614E+01 0.  0.
    3000022    2    3    3    0    0  0.11327906243E+02 -0.15284633065E+02 -0.21165098100E+01  0.19143760998E+02  0.25000717033E+00 0.  0.
    1000022    2    1    0    0    0 -0.23632331597E+02  0.56313261934E+02  0.87509825471E+01  0.62499999559E+02  0.99999841523E+01 0.  0.
    3000022    2    5    5    0    0 -0.23757276947E+01  0.11645104625E+02  0.49469061437E+01  0.12875827183E+02  0.25000285596E+00 0.  0.
        -13    1    4    4    0    0  0.52854785250E+01 -0.70189079367E+01 -0.97550409928E+00  0.88410398206E+01  0.10500000000E+00 0. -1.
         13    1    4    4    0    0  0.60424277178E+01 -0.82657251283E+01 -0.11410057107E+01  0.10302721177E+02  0.10500000000E+00 0.  1.
    3000001    1    5    5    0    0 -0.21256603902E+02  0.44668157308E+02  0.38040764034E+01  0.49624172377E+02  0.10000000000E+01 0. -1.
        -13    1    6    6    0    0 -0.95498003422E+00  0.47453430977E+01  0.19473360941E+01  0.52185640596E+01  0.10500000000E+00 0. -1.
         13    1    6    6    0    0 -0.14207476605E+01  0.68997615275E+01  0.29995700496E+01  0.76572631229E+01  0.10500000000E+00 0.  1.
</event>
<event>
11    0  0.3467594E-009  0.9118800E+02  0.7816531E-02  0.1126479E+00
         25   -1    0    0    0    0  0.00000000000E+00  0.00000000000E+00  0.99999998245E-14  0.12500000000E+03  0.12500000000E+03 0.  0.
    3000001    1    3    3    0    0  0.18722636182E+01  0.26014975918E+01 -0.11498170527E+01  0.35489773218E+01  0.10000000000E+01 0.  1.
    1000022    2    1    0    0    0  0.56616696192E+02  0.24467120749E+02 -0.14696379809E+01  0.62500000719E+02  0.99999984327E+01 0.  0.
    3000022    2    3    3    0    0  0.54744432574E+02  0.21865623157E+02 -0.31982092817E+00  0.58951023398E+02  0.25000056087E+00 0.  0.
    1000022    2    1    0    0    0 -0.56616696192E+02 -0.24467120749E+02  0.14696379809E+01  0.62499999281E+02  0.99999894412E+01 0.  0.
    3000022    2    5    5    0    0 -0.54847499841E+02 -0.21924968926E+02  0.23948716067E+01  0.59116414070E+02  0.25000239008E+00 0.  0.
        -13    1    4    4    0    0  0.25108963594E+02  0.10093961044E+02 -0.11787073009E+00  0.27062391263E+02  0.10500000000E+00 0. -1.
         13    1    4    4    0    0  0.29635468980E+02  0.11771662113E+02 -0.20195019808E+00  0.31888632135E+02  0.10500000000E+00 0.  1.
    3000001    1    5    5    0    0 -0.17691963510E+01 -0.25421518225E+01 -0.92523362586E+00  0.33835852109E+01  0.10000000000E+01 0. -1.
        -13    1    6    6    0    0 -0.42172254212E+02 -0.16856157297E+02  0.18325259643E+01  0.45453253355E+02  0.10500000000E+00 0.  1.
         13    1    6    6    0    0 -0.12675245629E+02 -0.50688116292E+01  0.56234564247E+00  0.13663160714E+02  0.10500000000E+00 0. -1.
</event>
<event>
11    0  0.3467594E-009  0.9118800E+02  0.7816531E-02  0.1126479E+00
         25   -1    0    0    0    0  0.00000000000E+00  0.00000000000E+00  0.99999998245E-14  0.12500000000E+03  0.12500000000E+03 0.  0.
    3000001    1    3    3    0    0 -0.57856896077E+01  0.24729056630E+01 -0.71231385562E+01  0.95565982204E+01  0.10000000000E+01 0. -1.
    1000022    2    1    0    0    0 -0.35676514817E+02  0.35830919722E+02 -0.35349418123E+02  0.62500000939E+02  0.10000011908E+02 0.  0.
    3000022    2    3    3    0    0 -0.29890825209E+02  0.33358014059E+02 -0.28226279567E+02  0.52943402719E+02  0.24999924485E+00 0.  0.
    1000022    2    1    0    0    0  0.35676514817E+02 -0.35830919722E+02  0.35349418123E+02  0.62499999061E+02  0.10000000166E+02 0.  0.
    3000022    2    5    5    0    0  0.80826822787E+01 -0.48418182666E+01  0.10561367917E+02  0.14155491242E+02  0.24996616949E+00 0.  0.
        -13    1    4    4    0    0 -0.15347691710E+02  0.17216951273E+02 -0.14573224744E+02  0.27283052549E+02  0.10500000000E+00 0. -1.
         13    1    4    4    0    0 -0.14543133499E+02  0.16141062787E+02 -0.13653054823E+02  0.25660350170E+02  0.10500000000E+00 0.  1.
    3000001    1    5    5    0    0  0.27593832538E+02 -0.30989101456E+02  0.24788050206E+02  0.48344507818E+02  0.10000000000E+01 0. -1.
        -13    1    6    6    0    0  0.19161069469E+01 -0.11442835621E+01  0.24792531251E+01  0.33374498889E+01  0.10500000000E+00 0. -1.
         13    1    6    6    0    0  0.61665753317E+01 -0.36975347045E+01  0.80821147920E+01  0.10818041353E+02  0.10500000000E+00 0.  1.
</event>
<event>
11    0  0.3467594E-009  0.9118800E+02  0.7816531E-02  0.1126479E+00
         25   -1    0    0    0    0  0.00000000000E+00  0.00000000000E+00  0.99999998245E-14  0.12500000000E+03  0.12500000000E+03 0.  0.
    3000001    1    3    3    0    0  0.32260119393E+02  0.31762847169E+02  0.38684979988E+02  0.59557715203E+02  0.10000000000E+01 0. -1.
    1000022    2    1    0    0    0  0.35113268978E+02  0.32199228814E+02  0.39198443455E+02  0.62499999439E+02  0.99999983013E+01 0.  0.
    3000022    2    3    3    0    0  0.28531495848E+01  0.43638164532E+00  0.51346346645E+00  0.29422842356E+01  0.25000059566E+00 0.  0.
    1000022    2    1    0    0    0 -0.35113268978E+02 -0.32199228814E+02 -0.39198443455E+02  0.62500000561E+02  0.10000005320E+02 0.  0.
    3000022    2    5    5    0    0 -0.10532421607E+02 -0.40933596817E+01 -0.82637929264E+01  0.14001438310E+02  0.25000566050E+00 0.  0.
        -13    1    4    4    0    0  0.93346531625E+00  0.19624857544E+00  0.16653316389E+00  0.97397602367E+00  0.10500000000E+00 0.  1.
         13    1    4    4    0    0  0.19196842686E+01  0.24013306988E+00  0.34693030256E+00  0.19683082119E+01  0.10500000000E+00 0. -1.
    3000001    1    5    5    0    0 -0.24580847371E+02 -0.28105869132E+02 -0.30934650528E+02  0.48498562252E+02  0.10000000000E+01 0. -1.
        -13    1    6    6    0    0 -0.26923354043E+01 -0.10369840944E+01 -0.20762329720E+01  0.35560897479E+01  0.10500000000E+00 0. -1.
         13    1    6    6    0    0 -0.78400862025E+01 -0.30563755873E+01 -0.61875599544E+01  0.10445348562E+02  0.10500000000E+00 0.  1.
</event>
<event>
11    0  0.3467594E-009  0.9118800E+02  0.7816531E-02  0.1126479E+00
         25   -1    0    0    0    0  0.00000000000E+00  0.00000000000E+00  0.99999998245E-14  0.12500000000E+03  0.12500000000E+03 0.  0.
    3000001    1    3    3    0    0 -0.13060196215E+01 -0.69271670932E+01  0.94629695413E+00  0.71823957782E+01  0.10000000000E+01 0. -1.
    1000022    2    1    0    0    0 -0.21303894592E+02 -0.49367952507E+02  0.30252263452E+02  0.62500000928E+02  0.10000000628E+02 0.  0.
    3000022    2    3    3    0    0 -0.19997874971E+02 -0.42440785413E+02  0.29305966498E+02  0.55317605150E+02  0.24999461924E+00 0.  0.
    1000022    2    1    0    0    0  0.21303894592E+02  0.49367952507E+02 -0.30252263452E+02  0.62499999072E+02  0.99999890235E+01 0.  0.
    3000022    2    5    5    0    0  0.15821596425E+02  0.28753842619E+02 -0.14079429168E+02  0.35712731790E+02  0.25001474077E+00 0.  0.
        -13    1    4    4    0    0 -0.66823626318E+01 -0.14057436663E+02  0.97169486887E+01  0.18349267361E+02  0.10500000000E+00 0. -1.
         13    1    4    4    0    0 -0.13315512339E+02 -0.28383348750E+02  0.19589017810E+02  0.36968337789E+02  0.10500000000E+00 0.  1.
    3000001    1    5    5    0    0  0.54822981668E+01  0.20614109887E+02 -0.16172834285E+02  0.26787267282E+02  0.10000000000E+01 0. -1.
        -13    1    6    6    0    0  0.10740094850E+02  0.19515171252E+02 -0.95004413431E+01  0.24216955983E+02  0.10500000000E+00 0. -1.
         13    1    6    6    0    0  0.50815015754E+01  0.92386713677E+01 -0.45789878247E+01  0.11495775807E+02  0.10500000000E+00 0.  1.
</event>
<event>
11    0  0.3467594E-009  0.9118800E+02  0.7816531E-02  0.1126479E+00
         25   -1    0    0    0    0  0.00000000000E+00  0.00000000000E+00  0.99999998245E-14  0.12500000000E+03  0.12500000000E+03 0.  0.
    3000001    1    3    3    0    0 -0.56281719813E+01  0.11722317802E+02  0.11086168635E+02  0.17117014621E+02  0.10000000000E+01 0.  1.
    1000022    2    1    0    0    0 -0.79342464885E+01  0.50546504592E+02  0.34472432353E+02  0.62499999198E+02  0.99999956823E+01 0.  0.
    3000022    2    3    3    0    0 -0.23060745073E+01  0.38824186789E+02  0.23386263718E+02  0.45382984578E+02  0.24999800607E+00 0.  0.
    1000022    2    1    0    0    0  0.79342464885E+01 -0.50546504592E+02 -0.34472432353E+02  0.62500000802E+02  0.10000005702E+02 0.  0.
    3000022    2    5    5    0    0  0.92996262867E+00 -0.13992976014E+02 -0.45860899864E+01  0.14756792866E+02  0.25001223106E+00 0.  0.
        -13    1    4    4    0    0 -0.13265363487E+01  0.21697677151E+02  0.13007651781E+02  0.25332961182E+02  0.10500000000E+00 0.  1.
         13    1    4    4    0    0 -0.97953815858E+00  0.17126509639E+02  0.10378611937E+02  0.20050023395E+02  0.10500000000E+00 0. -1.
    3000001    1    5    5    0    0  0.70042838599E+01 -0.36553528578E+02 -0.29886342367E+02  0.47743207935E+02  0.10000000000E+01 0. -1.
        -13    1    6    6    0    0  0.59993024650E+00 -0.93581477111E+01 -0.30154255091E+01  0.98508203153E+01  0.10500000000E+00 0.  1.
         13    1    6    6    0    0  0.33003238217E+00 -0.46348283029E+01 -0.15706644773E+01  0.49059725510E+01  0.10500000000E+00 0. -1.
</event>
<event>
11    0  0.3467594E-009  0.9118800E+02  0.7816531E-02  0.1126479E+00
         25   -1    0    0    0    0  0.00000000000E+00  0.00000000000E+00  0.99999998245E-14  0.12500000000E+03  0.12500000000E+03 0.  0.
    3000001    1    3    3    0    0  0.20191529713E+02  0.36672665773E+02 -0.13059617633E+02  0.43864973495E+02  0.10000000000E+01 0.  1.
    1000022    2    1    0    0    0  0.32822741917E+02  0.50342515597E+02 -0.13948075492E+02  0.62499998853E+02  0.99999891577E+01 0.  0.
    3000022    2    3    3    0    0  0.12631212204E+02  0.13669849824E+02 -0.88845785878E+00  0.18635025358E+02  0.24999352024E+00 0.  0.
    1000022    2    1    0    0    0 -0.32822741917E+02 -0.50342515597E+02  0.13948075492E+02  0.62500001147E+02  0.10000003492E+02 0.  0.
    3000022    2    5    5    0    0 -0.18196246469E+02 -0.35436346222E+02  0.68514782580E+01  0.40420826642E+02  0.24990591067E+00 0.  0.
        -13    1    4    4    0    0  0.43012163809E+01  0.46066097835E+01 -0.34448809034E+00  0.63127658833E+01  0.10500000000E+00 0.  1.
         13    1    4    4    0    0  0.83299958232E+01  0.90632400407E+01 -0.54396976844E+00  0.12322259475E+02  0.10500000000E+00 0. -1.
    3000001    1    5    5    0    0 -0.14626495447E+02 -0.14906169375E+02  0.70965972341E+01  0.22079174505E+02  0.10000000000E+01 0.  1.
        -13    1    6    6    0    0 -0.51107738043E+01 -0.99459135772E+01  0.18830830525E+01  0.11340116073E+02  0.10500000000E+00 0.  1.
         13    1    6    6    0    0 -0.13085472665E+02 -0.25490432644E+02  0.49683952055E+01  0.29080710569E+02  0.10500000000E+00 0. -1.
</event>
<event>
11    0  0.3467594E-009  0.9118800E+02  0.7816531E-02  0.1126479E+00
         25   -1    0    0    0    0  0.00000000000E+00  0.00000000000E+00  0.99999998245E-14  0.12500000000E+03  0.12500000000E+03 0.  0.
    3000001    1    3    3    0    0  0.21912266640E+02  0.77654769160E+00  0.64190929269E+01  0.22868213958E+02  0.10000000000E+01 0. -1.
    1000022    2    1    0    0    0  0.54888142301E+02 -0.38905001689E+01  0.27899927401E+02  0.62500000052E+02  0.99999950369E+01 0.  0.
    3000022    2    3    3    0    0  0.32975875661E+02 -0.46670478605E+01  0.21480834474E+02  0.39631786094E+02  0.25001597250E+00 0.  0.
    1000022    2    1    0    0    0 -0.54888142301E+02  0.38905001689E+01 -0.27899927401E+02  0.62499999948E+02  0.99999943878E+01 0.  0.
    3000022    2    5    5    0    0 -0.52370939074E+02  0.56403003810E+01 -0.26741073912E+02  0.59073477764E+02  0.24998667833E+00 0.  0.
        -13    1    4    4    0    0  0.18107682200E+02 -0.25794656839E+01  0.11720076703E+02  0.21723559119E+02  0.10500000000E+00 0.  1.
         13    1    4    4    0    0  0.14868193460E+02 -0.20875821766E+01  0.97607577709E+01  0.17908226975E+02  0.10500000000E+00 0. -1.
    3000001    1    5    5    0    0 -0.25172032266E+01 -0.17498002121E+01 -0.11588534893E+01  0.34265221838E+01  0.10000000000E+01 0.  1.
        -13    1    6    6    0    0 -0.31472253219E+02  0.33789385362E+01 -0.16138973605E+02  0.35530232793E+02  0.10500000000E+00 0. -1.
         13    1    6    6    0    0 -0.20898685855E+02  0.22613618448E+01 -0.10602100307E+02  0.23543244971E+02  0.10500000000E+00 0.  1.
</event>
<event>
11    0  0.3467594E-009  0.9118800E+02  0.7816531E-02  0.1126479E+00
         25   -1    0    0    0    0  0.00000000000E+00  0.00000000000E+00  0.99999998245E-14  0.12500000000E+03  0.12500000000E+03 0.  0.
    3000001    1    3    3    0    0 -0.93029614471E+00  0.80950901919E+00  0.78510062672E+01  0.80099347798E+01  0.10000000000E+01 0.  1.
    1000022    2    1    0    0    0  0.17209312894E+02  0.10687103469E+02  0.58274139427E+02  0.62499999415E+02  0.99999985021E+01 0.  0.
    3000022    2    3    3    0    0  0.18139609038E+02  0.98775944497E+01  0.50423133160E+02  0.54490064635E+02  0.24999615190E+00 0.  0.
    1000022    2    1    0    0    0 -0.17209312894E+02 -0.10687103469E+02 -0.58274139427E+02  0.62500000585E+02  0.10000005815E+02 0.  0.
    3000022    2    5    5    0    0 -0.74150905773E+01 -0.32130346451E+01 -0.11094334402E+02  0.13727851793E+02  0.24999825548E+00 0.  0.
        -13    1    4    4    0    0  0.48077694363E+01  0.26346427195E+01  0.13466643267E+02  0.14540202718E+02  0.10500000000E+00 0. -1.
         13    1    4    4    0    0  0.13331839602E+02  0.72429517302E+01  0.36956489893E+02  0.39949861917E+02  0.10500000000E+00 0.  1.
    3000001    1    5    5    0    0 -0.97942223164E+01 -0.74740688238E+01 -0.47179805025E+02  0.48772148792E+02  0.10000000000E+01 0. -1.
        -13    1    6    6    0    0 -0.48013768278E+01 -0.21373989671E+01 -0.72497019548E+01  0.89549370305E+01  0.10500000000E+00 0. -1.
         13    1    6    6    0    0 -0.26137137496E+01 -0.10756356779E+01 -0.38446324473E+01  0.47729147626E+01  0.10500000000E+00 0.  1.
</event>
<event>
11    0  0.3467594E-009  0.9118800E+02  0.7816531E-02  0.1126479E+00
         25   -1    0    0    0    0  0.00000000000E+00  0.00000000000E+00  0.99999998245E-14  0.12500000000E+03  0.12500000000E+03 0.  0.
    3000001    1    3    3    0    0 -0.44428488063E+01 -0.48648409611E+02  0.23812027793E+02  0.54354570469E+02  0.10000000000E+01 0.  1.
    1000022    2    1    0    0    0 -0.34563082008E+01 -0.53757554935E+02  0.30073728141E+02  0.62499999186E+02  0.99999997524E+01 0.  0.
    3000022    2    3    3    0    0  0.98654060548E+00 -0.51091453233E+01  0.62617003478E+01  0.81454287173E+01  0.24997888522E+00 0.  0.
    1000022    2    1    0    0    0  0.34563082008E+01  0.53757554935E+02 -0.30073728141E+02  0.62500000814E+02  0.10000009927E+02 0.  0.
    3000022    2    5    5    0    0  0.83442710091E+00  0.14640575526E+01 -0.32309765427E+01  0.36525926952E+01  0.24998174731E+00 0.  0.
        -13    1    4    4    0    0  0.35864441133E+00 -0.21898581958E+01  0.26438917262E+01  0.34533017811E+01  0.10500000000E+00 0. -1.
         13    1    4    4    0    0  0.62789619415E+00 -0.29192871275E+01  0.36178086216E+01  0.46921269362E+01  0.10500000000E+00 0.  1.
    3000001    1    5    5    0    0  0.26218810999E+01  0.52293497382E+02 -0.26842751598E+02  0.58847408119E+02  0.10000000000E+01 0.  1.
        -13    1    6    6    0    0  0.42313541859E+00  0.83822899155E+00 -0.18935439281E+01  0.21161769851E+01  0.10500000000E+00 0.  1.
         13    1    6    6    0    0  0.41129168231E+00  0.62582856105E+00 -0.13374326146E+01  0.15364157101E+01  0.10500000000E+00 0. -1.
</event>
<event>
11    0  0.3467594E-009  0.9118800E+02  0.7816531E-02  0.1126479E+00
         25   -1    0    0    0    0  0.00000000000E+00  0.00000000000E+00  0.99999998245E-14  0.12500000000E+03  0.12500000000E+03 0.  0.
    3000001    1    3    3    0    0  0.43486944989E+01 -0.32127638521E+01  0.26686109000E+02  0.27246677026E+02  0.10000000000E+01 0. -1.
    1000022    2    1    0    0    0  0.18430348778E+02 -0.34664336421E+00  0.58876583044E+02  0.62499999633E+02  0.10000000271E+02 0.  0.
    3000022    2    3    3    0    0  0.14081654279E+02  0.28661204879E+01  0.32190474044E+02  0.35253322606E+02  0.25000342005E+00 0.  0.
    1000022    2    1    0    0    0 -0.18430348778E+02  0.34664336421E+00 -0.58876583044E+02  0.62500000367E+02  0.10000004864E+02 0.  0.
    3000022    2    5    5    0    0 -0.90988531998E+01 -0.29414651072E+01 -0.17484791227E+02  0.19930423240E+02  0.24999942665E+00 0.  0.
        -13    1    4    4    0    0  0.45115997055E+01  0.93262486678E+00  0.10201669618E+02  0.11194168528E+02  0.10500000000E+00 0. -1.
         13    1    4    4    0    0  0.95700545735E+01  0.19334956211E+01  0.21988804426E+02  0.24059154078E+02  0.10500000000E+00 0.  1.
    3000001    1    5    5    0    0 -0.93314955781E+01  0.32881084714E+01 -0.41391791817E+02  0.42569577128E+02  0.10000000000E+01 0.  1.
        -13    1    6    6    0    0 -0.44603890469E+01 -0.13928362184E+01 -0.84415671334E+01  0.96491524938E+01  0.10500000000E+00 0.  1.
         13    1    6    6    0    0 -0.46384641529E+01 -0.15486288888E+01 -0.90432240939E+01  0.10281270746E+02  0.10500000000E+00 0. -1.
</event>
<event>
11    0  0.3467594E-009  0.9118800E+02  0.7816531E-02  0.1126479E+00
         25   -1    0    0    0    0  0.00000000000E+00  0.00000000000E+00  0.99999998245E-14  0.12500000000E+03  0.12500000000E+03 0.  0.
    3000001    1    3    3    0    0 -0.32287201775E+02  0.91135568213E+01  0.17545664071E+02  0.37873086012E+02  0.10000000000E+01 0. -1.
    1000022    2    1    0    0    0 -0.50197130688E+02  0.10092136949E+02  0.34418698553E+02  0.62500001705E+02  0.10000012276E+02 0.  0.
    3000022    2    3    3    0    0 -0.17909928913E+02  0.97858012813E+00  0.16873034482E+02  0.24626915693E+02  0.25002235323E+00 0.  0.
    1000022    2    1    0    0    0  0.50197130688E+02 -0.10092136949E+02 -0.34418698553E+02  0.62499998295E+02  0.99999909602E+01 0.  0.
    3000022    2    5    5    0    0  0.18143982574E+02  0.93896182955E-01 -0.15705940732E+02  0.23998999863E+02  0.24999997197E+00 0.  0.
        -13    1    4    4    0    0 -0.68080904122E+01  0.31357839615E+00  0.64351371958E+01  0.93739235222E+01  0.10500000000E+00 0. -1.
         13    1    4    4    0    0 -0.11101838501E+02  0.66500173198E+00  0.10437897286E+02  0.15252992171E+02  0.10500000000E+00 0.  1.
    3000001    1    5    5    0    0  0.32053148114E+02 -0.10186033132E+02 -0.18712757822E+02  0.38500998432E+02  0.10000000000E+01 0. -1.
        -13    1    6    6    0    0  0.98032997954E+01  0.15454700084E-01 -0.84102894561E+01  0.12917001179E+02  0.10500000000E+00 0. -1.
         13    1    6    6    0    0  0.83406827789E+01  0.78441482871E-01 -0.72956512756E+01  0.11081998683E+02  0.10500000000E+00 0.  1.
</event>
<event>
11    0  0.3467594E-009  0.9118800E+02  0.7816531E-02  0.1126479E+00
         25   -1    0    0    0    0  0.00000000000E+00  0.00000000000E+00  0.99999998245E-14  0.12500000000E+03  0.12500000000E+03 0.  0.
    3000001    1    3    3    0    0 -0.25710413137E+02  0.47067677701E+01 -0.35756580353E+01  0.26400082138E+02  0.10000000000E+01 0.  1.
    1000022    2    1    0    0    0 -0.60687807972E+02 -0.98854925167E-01 -0.11100909407E+02  0.62499999949E+02  0.99999997593E+01 0.  0.
    3000022    2    3    3    0    0 -0.34977394835E+02 -0.48056226953E+01 -0.75252513716E+01  0.36099917811E+02  0.24999757849E+00 0.  0.
    1000022    2    1    0    0    0  0.60687807972E+02  0.98854925167E-01  0.11100909407E+02  0.62500000051E+02  0.10000000397E+02 0.  0.
    3000022    2    5    5    0    0  0.36936032863E+02 -0.26434661483E+01  0.10775796226E+02  0.38567326897E+02  0.24996549954E+00 0.  0.
        -13    1    4    4    0    0 -0.13361643779E+02 -0.18947489977E+01 -0.28947735284E+01  0.13802693108E+02  0.10500000000E+00 0. -1.
         13    1    4    4    0    0 -0.21615751056E+02 -0.29108736975E+01 -0.46304778432E+01  0.22297224703E+02  0.10500000000E+00 0.  1.
    3000001    1    5    5    0    0  0.23751775109E+02  0.27423210735E+01  0.32511318091E+00  0.23932673154E+02  0.10000000000E+01 0. -1.
        -13    1    6    6    0    0  0.16288084298E+02 -0.11868817934E+01  0.46870760720E+01  0.16990882426E+02  0.10500000000E+00 0.  1.
         13    1    6    6    0    0  0.20647948565E+02 -0.14565843550E+01  0.60887201540E+01  0.21576444472E+02  0.10500000000E+00 0. -1.
</event>
<event>
11    0  0.3467594E-009  0.9118800E+02  0.7816531E-02  0.1126479E+00
         25   -1    0    0    0    0  0.00000000000E+00  0.00000000000E+00  0.99999998245E-14  0.12500000000E+03  0.12500000000E+03 0.  0.
    3000001    1    3    3    0    0 -0.97014644999E+00  0.42109440402E+02  0.15691549379E+02  0.44959658328E+02  0.10000000000E+01 0.  1.
    1000022    2    1    0    0    0 -0.45842365949E+01  0.59248686474E+02  0.16577935105E+02  0.62499999380E+02  0.99999958108E+01 0.  0.
    3000022    2    3    3    0    0 -0.36140901449E+01  0.17139246072E+02  0.88638572605E+00  0.17540341052E+02  0.24996217055E+00 0.  0.
    1000022    2    1    0    0    0  0.45842365949E+01 -0.59248686474E+02 -0.16577935105E+02  0.62500000620E+02  0.10000003555E+02 0.  0.
    3000022    2    5    5    0    0  0.64723799686E+01 -0.49196419045E+02 -0.16263988491E+02  0.52218379719E+02  0.25001919528E+00 0.  0.
        -13    1    4    4    0    0 -0.14699312899E+01  0.70452200133E+01  0.30196762414E+00  0.72040289060E+01  0.10500000000E+00 0.  1.
         13    1    4    4    0    0 -0.21441588550E+01  0.10094026059E+02  0.58441810191E+00  0.10336312146E+02  0.10500000000E+00 0. -1.
    3000001    1    5    5    0    0 -0.18881433737E+01 -0.10052267429E+02 -0.31394661439E+00  0.10281620900E+02  0.10000000000E+01 0. -1.
        -13    1    6    6    0    0  0.23255454356E+01 -0.17555695044E+02 -0.58628750601E+01  0.18654621921E+02  0.10500000000E+00 0. -1.
         13    1    6    6    0    0  0.41468345329E+01 -0.31640724000E+02 -0.10401113431E+02  0.33563757798E+02  0.10500000000E+00 0.  1.
</event>
<event>
11    0  0.3467594E-009  0.9118800E+02  0.7816531E-02  0.1126479E+00
         25   -1    0    0    0    0  0.00000000000E+00  0.00000000000E+00  0.99999998245E-14  0.12500000000E+03  0.12500000000E+03 0.  0.
    3000001    1    3    3    0    0 -0.33547076074E+01  0.50227450680E+02  0.32783875261E+02  0.60081888636E+02  0.10000000000E+01 0.  1.
    1000022    2    1    0    0    0 -0.41747332494E+01  0.50627842198E+02  0.35009186503E+02  0.62500000319E+02  0.10000004853E+02 0.  0.
    3000022    2    3    3    0    0 -0.82002564201E+00  0.40039151725E+00  0.22253112416E+01  0.24181116830E+01  0.24999713781E+00 0.  0.
    1000022    2    1    0    0    0  0.41747332494E+01 -0.50627842198E+02 -0.35009186503E+02  0.62499999681E+02  0.10000000860E+02 0.  0.
    3000022    2    5    5    0    0  0.22693168706E+01 -0.40521470449E+02 -0.22971539142E+02  0.46635753229E+02  0.25000452009E+00 0.  0.
        -13    1    4    4    0    0 -0.25481214013E+00  0.87328316295E-01  0.76461493880E+00  0.81744508453E+00  0.10500000000E+00 0.  1.
         13    1    4    4    0    0 -0.56521350189E+00  0.31306320095E+00  0.14606963028E+01  0.16006665984E+01  0.10500000000E+00 0. -1.
    3000001    1    5    5    0    0  0.19054163788E+01 -0.10106371748E+02 -0.12037647361E+02  0.15864246452E+02  0.10000000000E+01 0.  1.
        -13    1    6    6    0    0  0.15832056652E+01 -0.28537629045E+02 -0.16225610546E+02  0.32866156975E+02  0.10500000000E+00 0. -1.
         13    1    6    6    0    0  0.68611120546E+00 -0.11983841404E+02 -0.67459285956E+01  0.13769596254E+02  0.10500000000E+00 0.  1.
</event>
<event>
11    0  0.3467594E-009  0.9118800E+02  0.7816531E-02  0.1126479E+00
         25   -1    0    0    0    0  0.00000000000E+00  0.00000000000E+00  0.99999998245E-14  0.12500000000E+03  0.12500000000E+03 0.  0.
    3000001    1    3    3    0    0 -0.19433224001E+02  0.51339476868E+01 -0.65759761465E+00  0.20135541923E+02  0.10000000000E+01 0. -1.
    1000022    2    1    0    0    0 -0.56156874362E+02  0.23889329198E+02  0.90529151088E+01  0.62500000848E+02  0.10000012318E+02 0.  0.
    3000022    2    3    3    0    0 -0.36723650362E+02  0.18755381511E+02  0.97105127234E+01  0.42364458925E+02  0.24998228895E+00 0.  0.
    1000022    2    1    0    0    0  0.56156874362E+02 -0.23889329198E+02 -0.90529151088E+01  0.62499999152E+02  0.10000001715E+02 0.  0.
    3000022    2    5    5    0    0  0.85755628963E+01 -0.12742577713E+01  0.13881955910E+01  0.87837125235E+01  0.25001368125E+00 0.  0.
        -13    1    4    4    0    0 -0.26643691498E+02  0.13606723569E+02  0.70837145179E+01  0.30744418343E+02  0.10500000000E+00 0.  1.
         13    1    4    4    0    0 -0.10079958864E+02  0.51486579428E+01  0.26267982055E+01  0.11620040582E+02  0.10500000000E+00 0. -1.
    3000001    1    5    5    0    0  0.47581311466E+02 -0.22615071427E+02 -0.10441110700E+02  0.53716286628E+02  0.10000000000E+01 0. -1.
        -13    1    6    6    0    0  0.50568079827E+01 -0.75972769489E+00  0.75438831080E+00  0.51699729078E+01  0.10500000000E+00 0.  1.
         13    1    6    6    0    0  0.35187549136E+01 -0.51453007636E+00  0.63380728021E+00  0.36137396157E+01  0.10500000000E+00 0. -1.
</event>
<event>
11    0  0.3467594E-009  0.9118800E+02  0.7816531E-02  0.1126479E+00
         25   -1    0    0    0    0  0.00000000000E+00  0.00000000000E+00  0.99999998245E-14  0.12500000000E+03  0.12500000000E+03 0.  0.
    3000001    1    3    3    0    0 -0.30155861782E+02 -0.17698100886E+02  0.34174851827E+01  0.35146521588E+02  0.10000000000E+01 0. -1.
    1000022    2    1    0    0    0 -0.53279672106E+02 -0.27781932754E+02  0.13988951810E+02  0.62499998145E+02  0.99999874090E+01 0.  0.
    3000022    2    3    3    0    0 -0.23123810324E+02 -0.10083831868E+02  0.10571466627E+02  0.27353476557E+02  0.25000814922E+00 0.  0.
    1000022    2    1    0    0    0  0.53279672106E+02  0.27781932754E+02 -0.13988951810E+02  0.62500001855E+02  0.10000010593E+02 0.  0.
    3000022    2    5    5    0    0  0.26468806680E+02  0.16729972393E+02 -0.11569136956E+02  0.33382587192E+02  0.24998882429E+00 0.  0.
        -13    1    4    4    0    0 -0.82598989150E+01 -0.36650044810E+01  0.37896617929E+01  0.97995280211E+01  0.10500000000E+00 0. -1.
         13    1    4    4    0    0 -0.14863911409E+02 -0.64188273874E+01  0.67818048343E+01  0.17553948536E+02  0.10500000000E+00 0.  1.
    3000001    1    5    5    0    0  0.26810865426E+02  0.11051960361E+02 -0.24198148542E+01  0.29117414663E+02  0.10000000000E+01 0. -1.
        -13    1    6    6    0    0  0.18821625072E+02  0.11881504914E+02 -0.81801069315E+01  0.23713896849E+02  0.10500000000E+00 0. -1.
         13    1    6    6    0    0  0.76471816081E+01  0.48484674795E+01 -0.33890300242E+01  0.96686903432E+01  0.10500000000E+00 0.  1.
</event>
<event>
11    0  0.3467594E-009  0.9118800E+02  0.7816531E-02  0.1126479E+00
         25   -1    0    0    0    0  0.00000000000E+00  0.00000000000E+00  0.99999998245E-14  0.12500000000E+03  0.12500000000E+03 0.  0.
    3000001    1    3    3    0    0 -0.36481965886E+01 -0.39868624551E+02 -0.27757828681E+02  0.48726929054E+02  0.10000000000E+01 0.  1.
    1000022    2    1    0    0    0 -0.62261894232E+01 -0.53019909444E+02 -0.30925311915E+02  0.62500011295E+02  0.10000013134E+02 0.  0.
    3000022    2    3    3    0    0 -0.25779928346E+01 -0.13151284893E+02 -0.31674832347E+01  0.13773082242E+02  0.25000600568E+00 0.  0.
    1000022    2    1    0    0    0  0.62261894232E+01  0.53019909444E+02  0.30925311915E+02  0.62499988705E+02  0.99998719419E+01 0.  0.
    3000022    2    5    5    0    0  0.61704334717E+01  0.28201298516E+02  0.21233627853E+02  0.35837368859E+02  0.25013528149E+00 0.  0.
        -13    1    4    4    0    0 -0.17371609473E+01 -0.90564339193E+01 -0.21469692561E+01  0.94687499427E+01  0.10500000000E+00 0.  1.
         13    1    4    4    0    0 -0.84083188723E+00 -0.40948509737E+01 -0.10205139786E+01  0.43043322990E+01  0.10500000000E+00 0. -1.
    3000001    1    5    5    0    0  0.55755951495E-01  0.24818610928E+02  0.96916840621E+01  0.26662619846E+02  0.10000000000E+01 0.  1.
        -13    1    6    6    0    0  0.38208300783E+01  0.17182534108E+02  0.12926034104E+02  0.21838763782E+02  0.10500000000E+00 0. -1.
         13    1    6    6    0    0  0.23496033934E+01  0.11018764408E+02  0.83075937496E+01  0.13998605077E+02  0.10500000000E+00 0.  1.
</event>
<event>
11    0  0.3467594E-009  0.9118800E+02  0.7816531E-02  0.1126479E+00
         25   -1    0    0    0    0  0.00000000000E+00  0.00000000000E+00  0.99999998245E-14  0.12500000000E+03  0.12500000000E+03 0.  0.
    3000001    1    3    3    0    0 -0.47591147445E+02 -0.17922827370E+02  0.39475303891E+01  0.51016938875E+02  0.10000000000E+01 0.  1.
    1000022    2    1    0    0    0 -0.57824077489E+02 -0.19591384606E+02  0.88771426278E+01  0.62499992820E+02  0.99999576533E+01 0.  0.
    3000022    2    3    3    0    0 -0.10232930044E+02 -0.16685572367E+01  0.49296122387E+01  0.11483053945E+02  0.25002107953E+00 0.  0.
    1000022    2    1    0    0    0  0.57824077489E+02  0.19591384606E+02 -0.88771426278E+01  0.62500007180E+02  0.10000047400E+02 0.  0.
    3000022    2    5    5    0    0  0.13716617305E+01  0.20568773298E+00  0.13291466767E+01  0.19372394954E+01  0.25000525616E+00 0.  0.
        -13    1    4    4    0    0 -0.31563290225E+01 -0.49254837096E+00  0.14720783732E+01  0.35189567393E+01  0.10500000000E+00 0. -1.
         13    1    4    4    0    0 -0.70766010217E+01 -0.11760088658E+01  0.34575338655E+01  0.79640972058E+01  0.10500000000E+00 0.  1.
    3000001    1    5    5    0    0  0.56452415758E+02  0.19385696873E+02 -0.10206289305E+02  0.60562767684E+02  0.10000000000E+01 0.  1.
        -13    1    6    6    0    0  0.46512759845E+00  0.61196536345E-01  0.53084574595E+00  0.71617798408E+00  0.10500000000E+00 0.  1.
         13    1    6    6    0    0  0.90653413204E+00  0.14449119664E+00  0.79830093076E+00  0.12210615113E+01  0.10500000000E+00 0. -1.
</event>
<event>
11    0  0.3467594E-009  0.9118800E+02  0.7816531E-02  0.1126479E+00
         25   -1    0    0    0    0  0.00000000000E+00  0.00000000000E+00  0.99999998245E-14  0.12500000000E+03  0.12500000000E+03 0.  0.
    3000001    1    3    3    0    0  0.60769978991E+01  0.23585632946E+02 -0.14756331022E+02  0.28494934465E+02  0.10000000000E+01 0. -1.
    1000022    2    1    0    0    0  0.15816319511E+02  0.55240756432E+02 -0.22462241499E+02  0.62500004472E+02  0.10000056585E+02 0.  0.
    3000022    2    3    3    0    0  0.97393216122E+01  0.31655123486E+02 -0.77059104773E+01  0.34005070007E+02  0.25000298594E+00 0.  0.
    1000022    2    1    0    0    0 -0.15816319511E+02 -0.55240756432E+02  0.22462241499E+02  0.62499995528E+02  0.10000000687E+02 0.  0.
    3000022    2    5    5    0    0 -0.14672520250E+02 -0.41116032464E+02  0.20244023025E+02  0.48121657754E+02  0.25000148091E+00 0.  0.
        -13    1    4    4    0    0  0.50146947433E+01  0.16487868661E+02 -0.40493206846E+01  0.17703248271E+02  0.10500000000E+00 0. -1.
         13    1    4    4    0    0  0.47246268688E+01  0.15167254825E+02 -0.36565897926E+01  0.16301821736E+02  0.10500000000E+00 0.  1.
    3000001    1    5    5    0    0 -0.11437992616E+01 -0.14124723969E+02  0.22182184745E+01  0.14378337774E+02  0.10000000000E+01 0. -1.
        -13    1    6    6    0    0 -0.72953391331E+01 -0.20349709115E+02  0.10090873242E+02  0.23857271049E+02  0.10500000000E+00 0. -1.
         13    1    6    6    0    0 -0.73771811166E+01 -0.20766323349E+02  0.10153149783E+02  0.24264386705E+02  0.10500000000E+00 0.  1.
</event>
<event>
11    0  0.3467594E-009  0.9118800E+02  0.7816531E-02  0.1126479E+00
         25   -1    0    0    0    0  0.00000000000E+00  0.00000000000E+00  0.99999998245E-14  0.12500000000E+03  0.12500000000E+03 0.  0.
    3000001    1    3    3    0    0 -0.12656836631E+02 -0.15468079867E+02 -0.86790864153E+01  0.21812463164E+02  0.10000000000E+01 0. -1.
    1000022    2    1    0    0    0 -0.44236433184E+02 -0.40389394365E+02 -0.14767668292E+02  0.62500006273E+02  0.10000077962E+02 0.  0.
    3000022    2    3    3    0    0 -0.31579596553E+02 -0.24921314498E+02 -0.60885818766E+01  0.40687543109E+02  0.25000034089E+00 0.  0.
    1000022    2    1    0    0    0  0.44236433184E+02  0.40389394365E+02  0.14767668292E+02  0.62499993727E+02  0.99999995546E+01 0.  0.
    3000022    2    5    5    0    0  0.50972802143E+01  0.66579305073E+01  0.54070080043E+01  0.99804077597E+01  0.24999853624E+00 0.  0.
        -13    1    4    4    0    0 -0.21181536695E+02 -0.16780111879E+02 -0.41038438595E+01  0.27332804665E+02  0.10500000000E+00 0.  1.
         13    1    4    4    0    0 -0.10398059858E+02 -0.81412026199E+01 -0.19847380171E+01  0.13354738444E+02  0.10500000000E+00 0. -1.
    3000001    1    5    5    0    0  0.39139152970E+02  0.33731463858E+02  0.93606602877E+01  0.52519585968E+02  0.10000000000E+01 0. -1.
        -13    1    6    6    0    0  0.34241209505E+01  0.44500392078E+01  0.36807291309E+01  0.67146291908E+01  0.10500000000E+00 0. -1.
         13    1    6    6    0    0  0.16731592638E+01  0.22078912995E+01  0.17262788733E+01  0.32657785689E+01  0.10500000000E+00 0.  1.
</event>
<event>
11    0  0.3467594E-009  0.9118800E+02  0.7816531E-02  0.1126479E+00
         25   -1    0    0    0    0  0.00000000000E+00  0.00000000000E+00  0.99999998245E-14  0.12500000000E+03  0.12500000000E+03 0.  0.
    3000001    1    3    3    0    0  0.41333284916E+02  0.15797362164E+02 -0.27552027233E+02  0.52135508993E+02  0.10000000000E+01 0.  1.
    1000022    2    1    0    0    0  0.47333809159E+02  0.22713989205E+02 -0.32401162504E+02  0.62499996888E+02  0.99999742170E+01 0.  0.
    3000022    2    3    3    0    0  0.60005242427E+01  0.69166270408E+01 -0.48491352710E+01  0.10364487895E+02  0.24995129203E+00 0.  0.
    1000022    2    1    0    0    0 -0.47333809159E+02 -0.22713989205E+02  0.32401162504E+02  0.62500003112E+02  0.10000013111E+02 0.  0.
    3000022    2    5    5    0    0 -0.35586781651E+02 -0.20801692057E+02  0.22353314085E+02  0.46892030998E+02  0.24999958658E+00 0.  0.
        -13    1    4    4    0    0  0.40195875105E+01  0.45582347778E+01 -0.31922969493E+01  0.68655934089E+01  0.10500000000E+00 0. -1.
         13    1    4    4    0    0  0.19809367322E+01  0.23583922630E+01 -0.16568383217E+01  0.34988944864E+01  0.10500000000E+00 0.  1.
    3000001    1    5    5    0    0 -0.11747027508E+02 -0.19122971477E+01  0.10047848419E+02  0.15607972114E+02  0.10000000000E+01 0. -1.
        -13    1    6    6    0    0 -0.15815154287E+02 -0.91799139906E+01  0.99573231631E+01  0.20821845153E+02  0.10500000000E+00 0. -1.
         13    1    6    6    0    0 -0.19771627364E+02 -0.11621778066E+02  0.12395990922E+02  0.26070185845E+02  0.10500000000E+00 0.  1.
</event>
<event>
11    0  0.3467594E-009  0.9118800E+02  0.7816531E-02  0.1126479E+00
         25   -1    0    0    0    0  0.00000000000E+00  0.00000000000E+00  0.99999998245E-14  0.12500000000E+03  0.12500000000E+03 0.  0.
    3000001    1    3    3    0    0  0.10726221874E+02  0.12497733081E+02  0.30459814587E+02  0.34641672485E+02  0.10000000000E+01 0. -1.
    1000022    2    1    0    0    0  0.11254700345E+02  0.26185536074E+02  0.54716537780E+02  0.62499999053E+02  0.99999897808E+01 0.  0.
    3000022    2    3    3    0    0  0.52847847169E+00  0.13687802993E+02  0.24256723193E+02  0.27858326568E+02  0.24999770114E+00 0.  0.
    1000022    2    1    0    0    0 -0.11254700345E+02 -0.26185536074E+02 -0.54716537780E+02  0.62500000947E+02  0.10000001622E+02 0.  0.
    3000022    2    5    5    0    0 -0.11500752065E+02 -0.14672427168E+02 -0.33446736807E+02  0.38292220141E+02  0.25000649998E+00 0.  0.
        -13    1    4    4    0    0  0.30679555101E+00  0.91511805317E+01  0.16265112980E+02  0.18665560636E+02  0.10500000000E+00 0. -1.
         13    1    4    4    0    0  0.22168292068E+00  0.45366224615E+01  0.79916102131E+01  0.91927659316E+01  0.10500000000E+00 0.  1.
    3000001    1    5    5    0    0  0.24605171915E+00 -0.11513108906E+02 -0.21269800973E+02  0.24207780807E+02  0.10000000000E+01 0. -1.
        -13    1    6    6    0    0 -0.67499587600E+01 -0.87122913865E+01 -0.19802119063E+02  0.22662764811E+02  0.10500000000E+00 0.  1.
         13    1    6    6    0    0 -0.47507933045E+01 -0.59601357811E+01 -0.13644617743E+02  0.15629455330E+02  0.10500000000E+00 0. -1.
</event>
<event>
11    0  0.3467594E-009  0.9118800E+02  0.7816531E-02  0.1126479E+00
         25   -1    0    0    0    0  0.00000000000E+00  0.00000000000E+00  0.99999998245E-14  0.12500000000E+03  0.12500000000E+03 0.  0.
    3000001    1    3    3    0    0 -0.39168925855E+02 -0.22047646371E+02 -0.36633776691E+02  0.57994284700E+02  0.10000000000E+01 0. -1.
    1000022    2    1    0    0    0 -0.41141819806E+02 -0.21495808152E+02 -0.40639037280E+02  0.62499997797E+02  0.99999634267E+01 0.  0.
    3000022    2    3    3    0    0 -0.19728939507E+01  0.55183821839E+00 -0.40052605883E+01  0.45057130974E+01  0.25000435179E+00 0.  0.
    1000022    2    1    0    0    0  0.41141819806E+02  0.21495808152E+02  0.40639037280E+02  0.62500002203E+02  0.99999909649E+01 0.  0.
    3000022    2    5    5    0    0  0.68963311607E+01  0.81757882164E+01  0.10049857577E+02  0.14678727246E+02  0.24999960870E+00 0.  0.
        -13    1    4    4    0    0 -0.65748098961E+00  0.22521985354E+00 -0.12839000929E+01  0.14637040967E+01  0.10500000000E+00 0. -1.
         13    1    4    4    0    0 -0.13154129611E+01  0.32661836485E+00 -0.27213604954E+01  0.30420090007E+01  0.10500000000E+00 0.  1.
    3000001    1    5    5    0    0  0.34245488645E+02  0.13320019936E+02  0.30589179703E+02  0.47821274957E+02  0.10000000000E+01 0. -1.
        -13    1    6    6    0    0  0.16400532101E+01  0.19629232161E+01  0.24244733329E+01  0.35258953510E+01  0.10500000000E+00 0.  1.
         13    1    6    6    0    0  0.52562779506E+01  0.62128650003E+01  0.76253842437E+01  0.11152831895E+02  0.10500000000E+00 0. -1.
</event>
<event>
11    0  0.3467594E-009  0.9118800E+02  0.7816531E-02  0.1126479E+00
         25   -1    0    0    0    0  0.00000000000E+00  0.00000000000E+00  0.99999998245E-14  0.12500000000E+03  0.12500000000E+03 0.  0.
    3000001    1    3    3    0    0 -0.18670833972E+00  0.30233049959E+00 -0.11218072643E+01  0.15442523347E+01  0.10000000000E+01 0.  1.
    1000022    2    1    0    0    0  0.40526248645E+02  0.17674598656E+02 -0.43028847658E+02  0.62499999416E+02  0.99999964657E+01 0.  0.
    3000022    2    3    3    0    0  0.40712956984E+02  0.17372268157E+02 -0.41907040394E+02  0.60955747081E+02  0.25000063386E+00 0.  0.
    1000022    2    1    0    0    0 -0.40526248645E+02 -0.17674598656E+02  0.43028847658E+02  0.62500000584E+02  0.10000003766E+02 0.  0.
    3000022    2    5    5    0    0 -0.40264163463E+02 -0.17898209837E+02  0.40886903781E+02  0.60111148521E+02  0.25000202321E+00 0.  0.
        -13    1    4    4    0    0  0.21379701795E+02  0.90541471686E+01 -0.22014444528E+02  0.31995562546E+02  0.10500000000E+00 0.  1.
         13    1    4    4    0    0  0.19333255190E+02  0.83181209880E+01 -0.19892595867E+02  0.28960184535E+02  0.10500000000E+00 0. -1.
    3000001    1    5    5    0    0 -0.26208518117E+00  0.22361118031E+00  0.21419438779E+01  0.23888520629E+01  0.10000000000E+01 0. -1.
        -13    1    6    6    0    0 -0.25613239623E+02 -0.11323517154E+02  0.26006712543E+02  0.38218061267E+02  0.10500000000E+00 0.  1.
         13    1    6    6    0    0 -0.14650923841E+02 -0.65746926828E+01  0.14880191238E+02  0.21893087254E+02  0.10500000000E+00 0. -1.
</event>
<event>
11    0  0.3467594E-009  0.9118800E+02  0.7816531E-02  0.1126479E+00
         25   -1    0    0    0    0  0.00000000000E+00  0.00000000000E+00  0.99999998245E-14  0.12500000000E+03  0.12500000000E+03 0.  0.
    3000001    1    3    3    0    0 -0.29890222163E+02  0.41075694640E+01  0.64320880422E+01  0.30865340828E+02  0.10000000000E+01 0.  1.
    1000022    2    1    0    0    0 -0.61082645580E+02 -0.67065299871E+00  0.86435375750E+01  0.62500000705E+02  0.99999989915E+01 0.  0.
    3000022    2    3    3    0    0 -0.31192423417E+02 -0.47782224627E+01  0.22114495328E+01  0.31634659877E+02  0.25001592860E+00 0.  0.
    1000022    2    1    0    0    0  0.61082645580E+02  0.67065299871E+00 -0.86435375750E+01  0.62499999295E+02  0.99999901752E+01 0.  0.
    3000022    2    5    5    0    0  0.11159025547E+02  0.29170704110E+01  0.10507022767E+01  0.11584456337E+02  0.25000479995E+00 0.  0.
        -13    1    4    4    0    0 -0.18454674085E+02 -0.27901305532E+01  0.13605651066E+01  0.18714218832E+02  0.10500000000E+00 0. -1.
         13    1    4    4    0    0 -0.12737749333E+02 -0.19880919096E+01  0.85088442616E+00  0.12920441045E+02  0.10500000000E+00 0.  1.
    3000001    1    5    5    0    0  0.49923620033E+02 -0.22464174123E+01 -0.96942398517E+01  0.50915542958E+02  0.10000000000E+01 0.  1.
        -13    1    6    6    0    0  0.57005839281E+01  0.14562676332E+01  0.47641082455E+00  0.59038432240E+01  0.10500000000E+00 0. -1.
         13    1    6    6    0    0  0.54584416194E+01  0.14608027779E+01  0.57429145216E+00  0.56806131130E+01  0.10500000000E+00 0.  1.
</event>
<event>
11    0  0.3467594E-009  0.9118800E+02  0.7816531E-02  0.1126479E+00
         25   -1    0    0    0    0  0.00000000000E+00  0.00000000000E+00  0.99999998245E-14  0.12500000000E+03  0.12500000000E+03 0.  0.
    3000001    1    3    3    0    0 -0.12428156875E+02  0.34016833222E+02 -0.40828934579E+02  0.54585766685E+02  0.10000000000E+01 0. -1.
    1000022    2    1    0    0    0 -0.10932098485E+02  0.37440165014E+02 -0.47801394406E+02  0.62499999788E+02  0.99999966417E+01 0.  0.
    3000022    2    3    3    0    0  0.14960583906E+01  0.34233317921E+01 -0.69724598269E+01  0.79142331030E+01  0.24999660803E+00 0.  0.
    1000022    2    1    0    0    0  0.10932098485E+02 -0.37440165014E+02  0.47801394406E+02  0.62500000212E+02  0.99999992874E+01 0.  0.
    3000022    2    5    5    0    0  0.59780103701E+01 -0.23080396805E+02  0.21472728585E+02  0.32087098739E+02  0.25001589634E+00 0.  0.
        -13    1    4    4    0    0  0.52781596542E+00  0.11858663593E+01 -0.23100073459E+01  0.26517970612E+01  0.10500000000E+00 0.  1.
         13    1    4    4    0    0  0.96824242519E+00  0.22374654329E+01 -0.46624524810E+01  0.52624360419E+01  0.10500000000E+00 0. -1.
    3000001    1    5    5    0    0  0.49540881145E+01 -0.14359768209E+02  0.26328665821E+02  0.30412901472E+02  0.10000000000E+01 0. -1.
        -13    1    6    6    0    0  0.28581723988E+01 -0.11262484713E+02  0.10513996464E+02  0.15670604903E+02  0.10500000000E+00 0.  1.
         13    1    6    6    0    0  0.31198379713E+01 -0.11817912092E+02  0.10958732121E+02  0.16416493836E+02  0.10500000000E+00 0. -1.
</event>
<event>
11    0  0.3467594E-009  0.9118800E+02  0.7816531E-02  0.1126479E+00
         25   -1    0    0    0    0  0.00000000000E+00  0.00000000000E+00  0.99999998245E-14  0.12500000000E+03  0.12500000000E+03 0.  0.
    3000001    1    3    3    0    0 -0.26713043930E+02  0.17655054215E+01  0.40279863625E+02  0.48375315389E+02  0.10000000000E+01 0.  1.
    1000022    2    1    0    0    0 -0.29586454657E+02  0.29111610584E+01  0.54059383361E+02  0.62499999099E+02  0.99999900037E+01 0.  0.
    3000022    2    3    3    0    0 -0.28734107270E+01  0.11456556369E+01  0.13779519737E+02  0.14124683709E+02  0.25001935299E+00 0.  0.
    1000022    2    1    0    0    0  0.29586454657E+02 -0.29111610584E+01 -0.54059383361E+02  0.62500000901E+02  0.10000001268E+02 0.  0.
    3000022    2    5    5    0    0  0.13327054968E+01 -0.27350350131E+01 -0.62802902438E+01  0.69829125308E+01  0.25000280564E+00 0.  0.
        -13    1    4    4    0    0 -0.16807855736E+01  0.72239870143E+00  0.83276009153E+01  0.85268318872E+01  0.10500000000E+00 0. -1.
         13    1    4    4    0    0 -0.11926251534E+01  0.42325693549E+00  0.54519188212E+01  0.55978518222E+01  0.10500000000E+00 0.  1.
    3000001    1    5    5    0    0  0.28253749160E+02 -0.17612604530E+00 -0.47779093118E+02  0.55517088370E+02  0.10000000000E+01 0.  1.
        -13    1    6    6    0    0  0.71326964716E+00 -0.13100142329E+01 -0.30933844092E+01  0.34358322111E+01  0.10500000000E+00 0.  1.
         13    1    6    6    0    0  0.61943584964E+00 -0.14250207802E+01 -0.31869058346E+01  0.35470803197E+01  0.10500000000E+00 0. -1.
</event>
<event>
11    0  0.3467594E-009  0.9118800E+02  0.7816531E-02  0.1126479E+00
         25   -1    0    0    0    0  0.00000000000E+00  0.00000000000E+00  0.99999998245E-14  0.12500000000E+03  0.12500000000E+03 0.  0.
    3000001    1    3    3    0    0  0.12223085544E+02 -0.16795280824E+02 -0.32872954783E+02  0.38898797338E+02  0.10000000000E+01 0.  1.
    1000022    2    1    0    0    0  0.13301049524E+02 -0.31201836575E+02 -0.51534235614E+02  0.62499999838E+02  0.10000000763E+02 0.  0.
    3000022    2    3    3    0    0  0.10779639801E+01 -0.14406555752E+02 -0.18661280831E+02  0.23601202500E+02  0.25000442364E+00 0.  0.
    1000022    2    1    0    0    0 -0.13301049524E+02  0.31201836575E+02  0.51534235614E+02  0.62500000162E+02  0.10000002790E+02 0.  0.
    3000022    2    5    5    0    0 -0.49238980316E+01  0.21977690717E+02  0.37132628401E+02  0.43429923490E+02  0.25000266965E+00 0.  0.
        -13    1    4    4    0    0  0.75114197644E+00 -0.10441072331E+02 -0.13482284172E+02  0.17069364874E+02  0.10500000000E+00 0. -1.
         13    1    4    4    0    0  0.32682200365E+00 -0.39654834208E+01 -0.51789966590E+01  0.65318376263E+01  0.10500000000E+00 0.  1.
    3000001    1    5    5    0    0 -0.83771514925E+01  0.92241458585E+01  0.14401607214E+02  0.19070076672E+02  0.10000000000E+01 0. -1.
        -13    1    6    6    0    0 -0.26499030806E+01  0.11540279161E+02  0.19473525802E+02  0.22790990799E+02  0.10500000000E+00 0. -1.
         13    1    6    6    0    0 -0.22739949510E+01  0.10437411556E+02  0.17659102599E+02  0.20638932691E+02  0.10500000000E+00 0.  1.
</event>
<event>
11    0  0.3467594E-009  0.9118800E+02  0.7816531E-02  0.1126479E+00
         25   -1    0    0    0    0  0.00000000000E+00  0.00000000000E+00  0.99999998245E-14  0.12500000000E+03  0.12500000000E+03 0.  0.
    3000001    1    3    3    0    0  0.29196691297E+02 -0.68134601846E+01 -0.24057258152E+02  0.38452850248E+02  0.10000000000E+01 0.  1.
    1000022    2    1    0    0    0  0.49379450438E+02 -0.16020663661E+02 -0.33335540363E+02  0.62499999344E+02  0.99999938541E+01 0.  0.
    3000022    2    3    3    0    0  0.20182759141E+02 -0.92072034764E+01 -0.92782822110E+01  0.24047149097E+02  0.24999300419E+00 0.  0.
    1000022    2    1    0    0    0 -0.49379450438E+02  0.16020663661E+02  0.33335540363E+02  0.62500000656E+02  0.10000002050E+02 0.  0.
    3000022    2    5    5    0    0 -0.11748918717E+02  0.71206635684E+01  0.53012811680E+01  0.14727763866E+02  0.25001162187E+00 0.  0.
        -13    1    4    4    0    0  0.12683536420E+02 -0.57214487165E+01 -0.58315607527E+01  0.15087252809E+02  0.10500000000E+00 0. -1.
         13    1    4    4    0    0  0.74992227214E+01 -0.34857547599E+01 -0.34467214583E+01  0.89598962875E+01  0.10500000000E+00 0.  1.
    3000001    1    5    5    0    0 -0.37630531721E+02  0.89000000926E+01  0.28034259195E+02  0.47772236789E+02  0.10000000000E+01 0. -1.
        -13    1    6    6    0    0 -0.70105482606E+01  0.42128750821E+01  0.30963550612E+01  0.87461158828E+01  0.10500000000E+00 0. -1.
         13    1    6    6    0    0 -0.47383704562E+01  0.29077884863E+01  0.22049261068E+01  0.59816479834E+01  0.10500000000E+00 0.  1.
</event>
<event>
11    0  0.3467594E-009  0.9118800E+02  0.7816531E-02  0.1126479E+00
         25   -1    0    0    0    0  0.00000000000E+00  0.00000000000E+00  0.99999998245E-14  0.12500000000E+03  0.12500000000E+03 0.  0.
    3000001    1    3    3    0    0  0.13376622955E+02  0.13181656222E+02  0.91920943566E+00  0.18829101105E+02  0.10000000000E+01 0. -1.
    1000022    2    1    0    0    0  0.36097527360E+02  0.49378847311E+02 -0.80590275035E+01  0.62499999598E+02  0.99999991143E+01 0.  0.
    3000022    2    3    3    0    0  0.22720904404E+02  0.36197191089E+02 -0.89782369392E+01  0.43670898493E+02  0.24999399626E+00 0.  0.
    1000022    2    1    0    0    0 -0.36097527360E+02 -0.49378847311E+02  0.80590275035E+01  0.62500000402E+02  0.10000004134E+02 0.  0.
    3000022    2    5    5    0    0 -0.33510958682E+02 -0.43795898983E+02  0.45191164909E+01  0.55331275303E+02  0.24998671007E+00 0.  0.
        -13    1    4    4    0    0  0.96266471062E+01  0.15231899491E+02 -0.38197269653E+01  0.18419675233E+02  0.10500000000E+00 0.  1.
         13    1    4    4    0    0  0.13094257298E+02  0.20965291598E+02 -0.51585099739E+01  0.25251223260E+02  0.10500000000E+00 0. -1.
    3000001    1    5    5    0    0 -0.25865686779E+01 -0.55829483277E+01  0.35399110126E+01  0.71687250981E+01  0.10000000000E+01 0. -1.
        -13    1    6    6    0    0 -0.82383430834E+01 -0.10801492080E+02  0.11248265836E+01  0.13631536515E+02  0.10500000000E+00 0. -1.
         13    1    6    6    0    0 -0.25272615598E+02 -0.32994406903E+02  0.33942899074E+01  0.41699738789E+02  0.10500000000E+00 0.  1.
</event>
<event>
11    0  0.3467594E-009  0.9118800E+02  0.7816531E-02  0.1126479E+00
         25   -1    0    0    0    0  0.00000000000E+00  0.00000000000E+00  0.99999998245E-14  0.12500000000E+03  0.12500000000E+03 0.  0.
    3000001    1    3    3    0    0  0.53287208608E+02  0.18050295757E+02 -0.61914590730E+01  0.56609839636E+02  0.10000000000E+01 0. -1.
    1000022    2    1    0    0    0  0.57900123860E+02  0.18949708539E+02 -0.97331416459E+01  0.62499998633E+02  0.99999993048E+01 0.  0.
    3000022    2    3    3    0    0  0.46129152520E+01  0.89941278182E+00 -0.35416825729E+01  0.58901589970E+01  0.25005416933E+00 0.  0.
    1000022    2    1    0    0    0 -0.57900123860E+02 -0.18949708539E+02  0.97331416459E+01  0.62500001367E+02  0.10000016390E+02 0.  0.
    3000022    2    5    5    0    0 -0.36120278042E+02 -0.12037008893E+02  0.10882663931E+02  0.39598724072E+02  0.25000992889E+00 0.  0.
        -13    1    4    4    0    0  0.18612034939E+01  0.42600605671E+00 -0.14575437913E+01  0.24043748688E+01  0.10500000000E+00 0.  1.
         13    1    4    4    0    0  0.27517117581E+01  0.47340672511E+00 -0.20841387816E+01  0.34857841282E+01  0.10500000000E+00 0. -1.
    3000001    1    5    5    0    0 -0.21779845818E+02 -0.69126996455E+01 -0.11495222846E+01  0.22901277295E+02  0.10000000000E+01 0.  1.
        -13    1    6    6    0    0 -0.11318002089E+02 -0.37819501059E+01  0.34612242549E+01  0.12425434247E+02  0.10500000000E+00 0. -1.
         13    1    6    6    0    0 -0.24802275954E+02 -0.82550587875E+01  0.74214396756E+01  0.27173289825E+02  0.10500000000E+00 0.  1.
</event>
<event>
11    0  0.3467594E-009  0.9118800E+02  0.7816531E-02  0.1126479E+00
         25   -1    0    0    0    0  0.00000000000E+00  0.00000000000E+00  0.99999998245E-14  0.12500000000E+03  0.12500000000E+03 0.  0.
    3000001    1    3    3    0    0  0.50920732620E+01 -0.17465244876E+02 -0.12527582128E+01  0.18262896589E+02  0.10000000000E+01 0. -1.
    1000022    2    1    0    0    0  0.24101436547E+02 -0.56080723737E+02  0.89623156594E+01  0.62499999832E+02  0.10000002922E+02 0.  0.
    3000022    2    3    3    0    0  0.19009363285E+02 -0.38615478862E+02  0.10215073872E+02  0.44237103243E+02  0.24993776199E+00 0.  0.
    1000022    2    1    0    0    0 -0.24101436547E+02  0.56080723737E+02 -0.89623156594E+01  0.62500000168E+02  0.10000005025E+02 0.  0.
    3000022    2    5    5    0    0 -0.16844634363E+02  0.29214846866E+02 -0.19306816939E+01  0.33779269080E+02  0.25000711126E+00 0.  0.
        -13    1    4    4    0    0  0.14352880664E+02 -0.29110984752E+02  0.77159857261E+01  0.33361685768E+02  0.10500000000E+00 0.  1.
         13    1    4    4    0    0  0.46564826214E+01 -0.95044941097E+01  0.24990881461E+01  0.10875417475E+02  0.10500000000E+00 0. -1.
    3000001    1    5    5    0    0 -0.72568021840E+01  0.26865876872E+02 -0.70316339655E+01  0.28720731088E+02  0.10000000000E+01 0.  1.
        -13    1    6    6    0    0 -0.49238658960E+01  0.84538636598E+01 -0.55803789262E+00  0.97997294570E+01  0.10500000000E+00 0.  1.
         13    1    6    6    0    0 -0.11920768467E+02  0.20760983206E+02 -0.13726438013E+01  0.23979539623E+02  0.10500000000E+00 0. -1.
</event>
<event>
11    0  0.3467594E-009  0.9118800E+02  0.7816531E-02  0.1126479E+00
         25   -1    0    0    0    0  0.00000000000E+00  0.00000000000E+00  0.99999998245E-14  0.12500000000E+03  0.12500000000E+03 0.  0.
    3000001    1    3    3    0    0  0.16219613017E+01 -0.15478087327E+02 -0.51261220109E+02  0.53580916685E+02  0.10000000000E+01 0. -1.
    1000022    2    1    0    0    0 -0.14252724452E+01 -0.19893349554E+02 -0.58382130899E+02  0.62499999817E+02  0.10000000540E+02 0.  0.
    3000022    2    3    3    0    0 -0.30472337469E+01 -0.44152622261E+01 -0.71209107903E+01  0.89190831318E+01  0.24999878821E+00 0.  0.
    1000022    2    1    0    0    0  0.14252724452E+01  0.19893349554E+02  0.58382130899E+02  0.62500000183E+02  0.10000002827E+02 0.  0.
    3000022    2    5    5    0    0 -0.30817129744E+01  0.13632581638E+02  0.30457904986E+02  0.33512545563E+02  0.24999406628E+00 0.  0.
        -13    1    4    4    0    0 -0.23321559786E+01 -0.33456379129E+01 -0.54157467829E+01  0.67803821993E+01  0.10500000000E+00 0. -1.
         13    1    4    4    0    0 -0.71507776835E+00 -0.10696243132E+01 -0.17051640075E+01  0.21387009324E+01  0.10500000000E+00 0.  1.
    3000001    1    5    5    0    0  0.45069854196E+01  0.62607679156E+01  0.27924225913E+02  0.28987454620E+02  0.10000000000E+01 0. -1.
        -13    1    6    6    0    0 -0.77737952882E+00  0.34476458179E+01  0.76372406258E+01  0.84159996432E+01  0.10500000000E+00 0.  1.
         13    1    6    6    0    0 -0.23043334456E+01  0.10184935820E+02  0.22820664360E+02  0.25096545920E+02  0.10500000000E+00 0. -1.
</event>
<event>
11    0  0.3467594E-009  0.9118800E+02  0.7816531E-02  0.1126479E+00
         25   -1    0    0    0    0  0.00000000000E+00  0.00000000000E+00  0.99999998245E-14  0.12500000000E+03  0.12500000000E+03 0.  0.
    3000001    1    3    3    0    0  0.20880119058E+02 -0.93022973198E+01 -0.26088106066E+01  0.23028634352E+02  0.10000000000E+01 0.  1.
    1000022    2    1    0    0    0  0.55006523325E+02 -0.27383405144E+02  0.55390926187E+01  0.62500000626E+02  0.10000002282E+02 0.  0.
    3000022    2    3    3    0    0  0.34126404267E+02 -0.18081107824E+02  0.81479032253E+01  0.39471366274E+02  0.25000058128E+00 0.  0.
    1000022    2    1    0    0    0 -0.55006523325E+02  0.27383405144E+02 -0.55390926187E+01  0.62499999374E+02  0.99999944579E+01 0.  0.
    3000022    2    5    5    0    0 -0.44528067153E+02  0.17836683494E+02 -0.55603010870E+01  0.48289496645E+02  0.24999127551E+00 0.  0.
        -13    1    4    4    0    0  0.21909090335E+02 -0.11673292585E+02  0.52383968778E+01  0.25371752519E+02  0.10500000000E+00 0.  1.
         13    1    4    4    0    0  0.12217313932E+02 -0.64078152390E+01  0.29095063475E+01  0.14099613755E+02  0.10500000000E+00 0. -1.
    3000001    1    5    5    0    0 -0.10478456172E+02  0.95467216498E+01  0.21208468215E-01  0.14210502729E+02  0.10000000000E+01 0.  1.
        -13    1    6    6    0    0 -0.17864061938E+02  0.72142762084E+01 -0.22658947460E+01  0.19398860640E+02  0.10500000000E+00 0.  1.
         13    1    6    6    0    0 -0.26664005215E+02  0.10622407285E+02 -0.32944063409E+01  0.28890636005E+02  0.10500000000E+00 0. -1.
</event>
<event>
11    0  0.3467594E-009  0.9118800E+02  0.7816531E-02  0.1126479E+00
         25   -1    0    0    0    0  0.00000000000E+00  0.00000000000E+00  0.99999998245E-14  0.12500000000E+03  0.12500000000E+03 0.  0.
    3000001    1    3    3    0    0  0.29210091916E+00  0.85619822171E+00 -0.66131755146E+01  0.67492583836E+01  0.10000000000E+01 0.  1.
    1000022    2    1    0    0    0  0.44839203706E+01 -0.19237380138E+02 -0.58447136145E+02  0.62500000260E+02  0.99999986256E+01 0.  0.
    3000022    2    3    3    0    0  0.41918194515E+01 -0.20093578359E+02 -0.51833960630E+02  0.55750741876E+02  0.25000709946E+00 0.  0.
    1000022    2    1    0    0    0 -0.44839203706E+01  0.19237380138E+02  0.58447136145E+02  0.62499999740E+02  0.99999953755E+01 0.  0.
    3000022    2    5    5    0    0 -0.25214061481E+01  0.37856956153E+01  0.47534310025E+01  0.65838125616E+01  0.25000259085E+00 0.  0.
        -13    1    4    4    0    0  0.22560285749E+01 -0.10604550064E+02 -0.27236608485E+02  0.29315354573E+02  0.10500000000E+00 0.  1.
         13    1    4    4    0    0  0.19357908765E+01 -0.94890282948E+01 -0.24597352146E+02  0.26435387303E+02  0.10500000000E+00 0. -1.
    3000001    1    5    5    0    0 -0.19625142225E+01  0.15451684522E+02  0.53693705142E+02  0.55916187178E+02  0.10000000000E+01 0. -1.
        -13    1    6    6    0    0 -0.90296618354E+00  0.12770442797E+01  0.16856503205E+01  0.23018757621E+01  0.10500000000E+00 0.  1.
         13    1    6    6    0    0 -0.16184399646E+01  0.25086513356E+01  0.30677806820E+01  0.42819367995E+01  0.10500000000E+00 0. -1.
</event>
<event>
11    0  0.3467594E-009  0.9118800E+02  0.7816531E-02  0.1126479E+00
         25   -1    0    0    0    0  0.00000000000E+00  0.00000000000E+00  0.99999998245E-14  0.12500000000E+03  0.12500000000E+03 0.  0.
    3000001    1    3    3    0    0 -0.28075488283E+02 -0.10691544265E+02  0.21072155331E+02  0.36709370621E+02  0.10000000000E+01 0.  1.
    1000022    2    1    0    0    0 -0.51783952372E+02 -0.17467362675E+02  0.28628021923E+02  0.62500000740E+02  0.99999985579E+01 0.  0.
    3000022    2    3    3    0    0 -0.23708464089E+02 -0.67758184104E+01  0.75558665923E+01  0.25790630119E+02  0.24999475635E+00 0.  0.
    1000022    2    1    0    0    0  0.51783952372E+02  0.17467362675E+02 -0.28628021923E+02  0.62499999260E+02  0.99999893054E+01 0.  0.
    3000022    2    5    5    0    0  0.51575345656E+02  0.17126489429E+02 -0.27383870709E+02  0.60854513442E+02  0.25002309878E+00 0.  0.
        -13    1    4    4    0    0 -0.59906257713E+01 -0.17114443969E+01  0.18802031335E+01  0.65086732810E+01  0.10500000000E+00 0.  1.
         13    1    4    4    0    0 -0.17717838318E+02 -0.50643740135E+01  0.56756634588E+01  0.19281956838E+02  0.10500000000E+00 0. -1.
    3000001    1    5    5    0    0  0.20860671618E+00  0.34087324636E+00 -0.12441512147E+01  0.16454858180E+01  0.10000000000E+01 0. -1.
        -13    1    6    6    0    0  0.14437115875E+02  0.48205679331E+01 -0.77041841857E+01  0.17059708935E+02  0.10500000000E+00 0. -1.
         13    1    6    6    0    0  0.37138229782E+02  0.12305921496E+02 -0.19679686523E+02  0.43794804507E+02  0.10500000000E+00 0.  1.
</event>
<event>
11    0  0.3467594E-009  0.9118800E+02  0.7816531E-02  0.1126479E+00
         25   -1    0    0    0    0  0.00000000000E+00  0.00000000000E+00  0.99999998245E-14  0.12500000000E+03  0.12500000000E+03 0.  0.
    3000001    1    3    3    0    0  0.36748970189E+02  0.64212204028E+01 -0.25264303919E+02  0.45066661002E+02  0.10000000000E+01 0. -1.
    1000022    2    1    0    0    0  0.52236779570E+02  0.33588479141E+01 -0.32654051916E+02  0.62499998049E+02  0.99999825204E+01 0.  0.
    3000022    2    3    3    0    0  0.15487809382E+02 -0.30623724888E+01 -0.73897479968E+01  0.17433337047E+02  0.25000084036E+00 0.  0.
    1000022    2    1    0    0    0 -0.52236779570E+02 -0.33588479141E+01  0.32654051916E+02  0.62500001951E+02  0.10000006908E+02 0.  0.
    3000022    2    5    5    0    0 -0.13090616316E+02  0.24977133121E+01  0.11524316282E+02  0.17620305708E+02  0.25000028533E+00 0.  0.
        -13    1    4    4    0    0  0.76451478112E+01 -0.15804904554E+01 -0.36471433367E+01  0.86173612349E+01  0.10500000000E+00 0. -1.
         13    1    4    4    0    0  0.78426615706E+01 -0.14818820334E+01 -0.37426046602E+01  0.88159758118E+01  0.10500000000E+00 0.  1.
    3000001    1    5    5    0    0 -0.39146163254E+02 -0.58565612262E+01  0.21129735634E+02  0.44879696243E+02  0.10000000000E+01 0.  1.
        -13    1    6    6    0    0 -0.65909401006E+01  0.12902106144E+01  0.58865979690E+01  0.89313042434E+01  0.10500000000E+00 0. -1.
         13    1    6    6    0    0 -0.64996762155E+01  0.12075026978E+01  0.56377183129E+01  0.86890014643E+01  0.10500000000E+00 0.  1.
</event>
<event>
11    0  0.3467594E-009  0.9118800E+02  0.7816531E-02  0.1126479E+00
         25   -1    0    0    0    0  0.00000000000E+00  0.00000000000E+00  0.99999998245E-14  0.12500000000E+03  0.12500000000E+03 0.  0.
    3000001    1    3    3    0    0  0.14812977869E+02  0.34728154497E+02  0.33408109758E+02  0.50423911250E+02  0.10000000000E+01 0. -1.
    1000022    2    1    0    0    0  0.22559985936E+02  0.40845267713E+02  0.40360390410E+02  0.62499999842E+02  0.10000000312E+02 0.  0.
    3000022    2    3    3    0    0  0.77470080670E+01  0.61171132158E+01  0.69522806521E+01  0.12076088592E+02  0.25000267761E+00 0.  0.
    1000022    2    1    0    0    0 -0.22559985936E+02 -0.40845267713E+02 -0.40360390410E+02  0.62500000158E+02  0.10000002282E+02 0.  0.
    3000022    2    5    5    0    0 -0.22666933880E+02 -0.34669538109E+02 -0.34159411585E+02  0.53690731607E+02  0.24999288768E+00 0.  0.
        -13    1    4    4    0    0  0.56651461896E+01  0.44566455458E+01  0.51166355424E+01  0.88400540239E+01  0.10500000000E+00 0.  1.
         13    1    4    4    0    0  0.20818618773E+01  0.16604676700E+01  0.18356451097E+01  0.32360345684E+01  0.10500000000E+00 0. -1.
    3000001    1    5    5    0    0  0.10694794411E+00 -0.61757296037E+01 -0.62009788252E+01  0.88092685503E+01  0.10000000000E+01 0.  1.
        -13    1    6    6    0    0 -0.88012759072E+01 -0.13352917265E+02 -0.13208875920E+02  0.20742427176E+02  0.10500000000E+00 0. -1.
         13    1    6    6    0    0 -0.13865657973E+02 -0.21316620845E+02 -0.20950535665E+02  0.32948304432E+02  0.10500000000E+00 0.  1.
</event>
<event>
11    0  0.3467594E-009  0.9118800E+02  0.7816531E-02  0.1126479E+00
         25   -1    0    0    0    0  0.00000000000E+00  0.00000000000E+00  0.99999998245E-14  0.12500000000E+03  0.12500000000E+03 0.  0.
    3000001    1    3    3    0    0 -0.33465504497E+02 -0.12719593375E+02 -0.26457107049E+02  0.44527593245E+02  0.10000000000E+01 0.  1.
    1000022    2    1    0    0    0 -0.45005410967E+02 -0.12730591827E+02 -0.40233006376E+02  0.62500001653E+02  0.10000020999E+02 0.  0.
    3000022    2    3    3    0    0 -0.11539906470E+02 -0.10998451259E-01 -0.13775899328E+02  0.17972408407E+02  0.24999873512E+00 0.  0.
    1000022    2    1    0    0    0  0.45005410967E+02  0.12730591827E+02  0.40233006376E+02  0.62499998347E+02  0.10000000339E+02 0.  0.
    3000022    2    5    5    0    0  0.39849999469E+02  0.10038853940E+02  0.30733480859E+02  0.51316765111E+02  0.24997924443E+00 0.  0.
        -13    1    4    4    0    0 -0.41938274528E+01 -0.54888712348E-01 -0.49621198542E+01  0.64980658600E+01  0.10500000000E+00 0.  1.
         13    1    4    4    0    0 -0.73460790173E+01  0.43890261089E-01 -0.88137794737E+01  0.11474342547E+02  0.10500000000E+00 0. -1.
    3000001    1    5    5    0    0  0.51554114976E+01  0.26917378866E+01  0.94995255178E+01  0.11183233237E+02  0.10000000000E+01 0.  1.
        -13    1    6    6    0    0  0.20630223164E+02  0.51278896758E+01  0.15908896322E+02  0.26551937170E+02  0.10500000000E+00 0. -1.
         13    1    6    6    0    0  0.19219776305E+02  0.49109642643E+01  0.14824584536E+02  0.24764827940E+02  0.10500000000E+00 0.  1.
</event>
<event>
11    0  0.3467594E-009  0.9118800E+02  0.7816531E-02  0.1126479E+00
         25   -1    0    0    0    0  0.00000000000E+00  0.00000000000E+00  0.99999998245E-14  0.12500000000E+03  0.12500000000E+03 0.  0.
    3000001    1    3    3    0    0 -0.26235527944E+02 -0.60810658672E+01 -0.73087785608E+01  0.27923118247E+02  0.10000000000E+01 0. -1.
    1000022    2    1    0    0    0 -0.54275039320E+02 -0.12818735823E+02 -0.26384636132E+02  0.62500007089E+02  0.10000099050E+02 0.  0.
    3000022    2    3    3    0    0 -0.28039511376E+02 -0.67376699560E+01 -0.19075857571E+02  0.34576888842E+02  0.25001056243E+00 0.  0.
    1000022    2    1    0    0    0  0.54275039320E+02  0.12818735823E+02  0.26384636132E+02  0.62499992911E+02  0.10000010438E+02 0.  0.
    3000022    2    5    5    0    0  0.46155390628E+02  0.13469553823E+02  0.24947890036E+02  0.54168336516E+02  0.24999870487E+00 0.  0.
        -13    1    4    4    0    0 -0.12395040477E+02 -0.30405876645E+01 -0.84749571573E+01  0.15320513229E+02  0.10500000000E+00 0. -1.
         13    1    4    4    0    0 -0.15644470899E+02 -0.36970822916E+01 -0.10600900414E+02  0.19256375614E+02  0.10500000000E+00 0.  1.
    3000001    1    5    5    0    0  0.81196486916E+01 -0.65081800018E+00  0.14367460954E+01  0.83316563952E+01  0.10000000000E+01 0. -1.
        -13    1    6    6    0    0  0.11818834829E+02  0.34184019485E+01  0.63809734880E+01  0.13859948638E+02  0.10500000000E+00 0. -1.
         13    1    6    6    0    0  0.34336555800E+02  0.10051151875E+02  0.18566916549E+02  0.40308387878E+02  0.10500000000E+00 0.  1.
</event>
<event>
11    0  0.3467594E-009  0.9118800E+02  0.7816531E-02  0.1126479E+00
         25   -1    0    0    0    0  0.00000000000E+00  0.00000000000E+00  0.99999998245E-14  0.12500000000E+03  0.12500000000E+03 0.  0.
    3000001    1    3    3    0    0 -0.40812146428E+02  0.70369130369E+01 -0.67358802734E+01  0.41970483964E+02  0.10000000000E+01 0. -1.
    1000022    2    1    0    0    0 -0.59735564104E+02  0.52745569738E+01 -0.14494540173E+02  0.62499998162E+02  0.99999752649E+01 0.  0.
    3000022    2    3    3    0    0 -0.18923417677E+02 -0.17623560631E+01 -0.77586598997E+01  0.20529514198E+02  0.25002861423E+00 0.  0.
    1000022    2    1    0    0    0  0.59735564104E+02 -0.52745569738E+01  0.14494540173E+02  0.62500001838E+02  0.99999982400E+01 0.  0.
    3000022    2    5    5    0    0  0.33344749184E+00  0.86580008094E+00  0.73186453360E+00  0.12078597352E+01  0.25000486881E+00 0.  0.
        -13    1    4    4    0    0 -0.11178517961E+02 -0.11040397114E+01 -0.45988948703E+01  0.12138328819E+02  0.10500000000E+00 0.  1.
         13    1    4    4    0    0 -0.77448997159E+01 -0.65831635172E+00 -0.31597650294E+01  0.83911853793E+01  0.10500000000E+00 0. -1.
    3000001    1    5    5    0    0  0.59402116612E+02 -0.61403570548E+01  0.13762675639E+02  0.61292142103E+02  0.10000000000E+01 0. -1.
        -13    1    6    6    0    0  0.16086053585E+00  0.40564525822E+00  0.43028790348E+00  0.62176914316E+00  0.10500000000E+00 0.  1.
         13    1    6    6    0    0  0.17258695599E+00  0.46015482272E+00  0.30157663012E+00  0.58609059205E+00  0.10500000000E+00 0. -1.
</event>
<event>
11    0  0.3467594E-009  0.9118800E+02  0.7816531E-02  0.1126479E+00
         25   -1    0    0    0    0  0.00000000000E+00  0.00000000000E+00  0.99999998245E-14  0.12500000000E+03  0.12500000000E+03 0.  0.
    3000001    1    3    3    0    0 -0.39163036073E+02 -0.22266144085E+02  0.32955244340E+02  0.55826272457E+02  0.10000000000E+01 0. -1.
    1000022    2    1    0    0    0 -0.41950521683E+02 -0.22967446537E+02  0.38973070050E+02  0.62499999021E+02  0.99999909319E+01 0.  0.
    3000022    2    3    3    0    0 -0.27874856095E+01 -0.70130245172E+00  0.60178257092E+01  0.66737265640E+01  0.24999766487E+00 0.  0.
    1000022    2    1    0    0    0  0.41950521683E+02  0.22967446537E+02 -0.38973070050E+02  0.62500000979E+02  0.10000003173E+02 0.  0.
    3000022    2    5    5    0    0  0.16485096135E+02  0.11174576144E+02 -0.10525768564E+02  0.22527402212E+02  0.24999994529E+00 0.  0.
        -13    1    4    4    0    0 -0.11760953858E+01 -0.27153629456E+00  0.26698363701E+01  0.29318907822E+01  0.10500000000E+00 0. -1.
         13    1    4    4    0    0 -0.16113902238E+01 -0.42976615716E+00  0.33479893391E+01  0.37418357818E+01  0.10500000000E+00 0.  1.
    3000001    1    5    5    0    0  0.25465425548E+02  0.11792870393E+02 -0.28447301485E+02  0.39972598767E+02  0.10000000000E+01 0. -1.
        -13    1    6    6    0    0  0.58174249441E+01  0.39813755786E+01 -0.36719491634E+01  0.79490892646E+01  0.10500000000E+00 0.  1.
         13    1    6    6    0    0  0.10667671191E+02  0.71932005655E+01 -0.68538194010E+01  0.14578312947E+02  0.10500000000E+00 0. -1.
</event>
<event>
11    0  0.3467594E-009  0.9118800E+02  0.7816531E-02  0.1126479E+00
         25   -1    0    0    0    0  0.00000000000E+00  0.00000000000E+00  0.99999998245E-14  0.12500000000E+03  0.12500000000E+03 0.  0.
    3000001    1    3    3    0    0  0.38699953880E+02 -0.14447477314E+02 -0.24476300237E+02  0.48026089830E+02  0.10000000000E+01 0.  1.
    1000022    2    1    0    0    0  0.51758501458E+02 -0.13672540161E+02 -0.30665437629E+02  0.62500001326E+02  0.10000013661E+02 0.  0.
    3000022    2    3    3    0    0  0.13058547578E+02  0.77493715299E+00 -0.61891373922E+01  0.14473911497E+02  0.24999984392E+00 0.  0.
    1000022    2    1    0    0    0 -0.51758501458E+02  0.13672540161E+02  0.30665437629E+02  0.62499998674E+02  0.99999970801E+01 0.  0.
    3000022    2    5    5    0    0 -0.29690051670E+02  0.12780286242E+02  0.19154459729E+02  0.37573803511E+02  0.24999627504E+00 0.  0.
        -13    1    4    4    0    0  0.57247783534E+01  0.37040091306E+00 -0.26495206757E+01  0.63199105091E+01  0.10500000000E+00 0.  1.
         13    1    4    4    0    0  0.73337692245E+01  0.40453623993E+00 -0.35396167166E+01  0.81540009878E+01  0.10500000000E+00 0. -1.
    3000001    1    5    5    0    0 -0.22068449788E+02  0.89225391877E+00  0.11510977900E+02  0.24926195163E+02  0.10000000000E+01 0.  1.
        -13    1    6    6    0    0 -0.14016699404E+02  0.60083511363E+01  0.91105889026E+01  0.17764627795E+02  0.10500000000E+00 0. -1.
         13    1    6    6    0    0 -0.15673352266E+02  0.67719351056E+01  0.10043870827E+02  0.19809175715E+02  0.10500000000E+00 0.  1.
</event>
<event>
11    0  0.3467594E-009  0.9118800E+02  0.7816531E-02  0.1126479E+00
         25   -1    0    0    0    0  0.00000000000E+00  0.00000000000E+00  0.99999998245E-14  0.12500000000E+03  0.12500000000E+03 0.  0.
    3000001    1    3    3    0    0  0.27189989786E+01  0.25795635252E+01 -0.15407686071E+01  0.41738556907E+01  0.10000000000E+01 0.  1.
    1000022    2    1    0    0    0  0.59289910666E+02  0.11596616589E+02 -0.12508980012E+02  0.62500002962E+02  0.10000038310E+02 0.  0.
    3000022    2    3    3    0    0  0.56570911687E+02  0.90170530640E+01 -0.10968211405E+02  0.58326147271E+02  0.24999794749E+00 0.  0.
    1000022    2    1    0    0    0 -0.59289910666E+02 -0.11596616589E+02  0.12508980012E+02  0.62499997038E+02  0.10000001286E+02 0.  0.
    3000022    2    5    5    0    0 -0.32106460242E+02 -0.58434333827E+01  0.17317924267E+01  0.32680760525E+02  0.25000106988E+00 0.  0.
        -13    1    4    4    0    0  0.23751032811E+02  0.38294998825E+01 -0.46554790549E+01  0.24504308584E+02  0.10500000000E+00 0.  1.
         13    1    4    4    0    0  0.32819878876E+02  0.51875531816E+01 -0.63127323497E+01  0.33821838687E+02  0.10500000000E+00 0. -1.
    3000001    1    5    5    0    0 -0.27183450424E+02 -0.57531832066E+01  0.10777187585E+02  0.29819236513E+02  0.10000000000E+01 0.  1.
        -13    1    6    6    0    0 -0.14289819307E+02 -0.25504055275E+01  0.72603816312E+00  0.14534154967E+02  0.10500000000E+00 0. -1.
         13    1    6    6    0    0 -0.17816640935E+02 -0.32930278551E+01  0.10057542636E+01  0.18146605559E+02  0.10500000000E+00 0.  1.
</event>
<event>
11    0  0.3467594E-009  0.9118800E+02  0.7816531E-02  0.1126479E+00
         25   -1    0    0    0    0  0.00000000000E+00  0.00000000000E+00  0.99999998245E-14  0.12500000000E+03  0.12500000000E+03 0.  0.
    3000001    1    3    3    0    0 -0.98930245642E+01 -0.25315914679E+01  0.38260150527E+02  0.39612119468E+02  0.10000000000E+01 0. -1.
    1000022    2    1    0    0    0 -0.21046914615E+02 -0.82831628421E+01  0.57399186049E+02  0.62500000021E+02  0.10000002100E+02 0.  0.
    3000022    2    3    3    0    0 -0.11153890051E+02 -0.57515713742E+01  0.19139035523E+02  0.22887880553E+02  0.25011786650E+00 0.  0.
    1000022    2    1    0    0    0  0.21046914615E+02  0.82831628421E+01 -0.57399186049E+02  0.62499999979E+02  0.10000001839E+02 0.  0.
    3000022    2    5    5    0    0  0.77349081067E+01  0.60165828865E+01 -0.14404836438E+02  0.17423831104E+02  0.25000896079E+00 0.  0.
        -13    1    4    4    0    0 -0.69683453203E+01 -0.36007085383E+01  0.12070590707E+02  0.14395593891E+02  0.10500000000E+00 0.  1.
         13    1    4    4    0    0 -0.41855447305E+01 -0.21508628359E+01  0.70684448160E+01  0.84922866618E+01  0.10500000000E+00 0. -1.
    3000001    1    5    5    0    0  0.13312006508E+02  0.22665799556E+01 -0.42994349611E+02  0.45076168875E+02  0.10000000000E+01 0. -1.
        -13    1    6    6    0    0  0.53469612094E+01  0.41566640378E+01 -0.98681817474E+01  0.11969122194E+02  0.10500000000E+00 0. -1.
         13    1    6    6    0    0  0.23879468973E+01  0.18599188487E+01 -0.45366546911E+01  0.54547089101E+01  0.10500000000E+00 0.  1.
</event>
<event>
11    0  0.3467594E-009  0.9118800E+02  0.7816531E-02  0.1126479E+00
         25   -1    0    0    0    0  0.00000000000E+00  0.00000000000E+00  0.99999998245E-14  0.12500000000E+03  0.12500000000E+03 0.  0.
    3000001    1    3    3    0    0 -0.61166556700E+01 -0.34265488787E+02 -0.48497491907E+00  0.34824881896E+02  0.10000000000E+01 0. -1.
    1000022    2    1    0    0    0 -0.72915091525E+01 -0.60620693845E+02 -0.88439700278E+01  0.62500004597E+02  0.10000007041E+02 0.  0.
    3000022    2    3    3    0    0 -0.11748534825E+01 -0.26355205058E+02 -0.83589951087E+01  0.27675122701E+02  0.25000588223E+00 0.  0.
    1000022    2    1    0    0    0  0.72915091525E+01  0.60620693845E+02  0.88439700278E+01  0.62499995403E+02  0.99999495786E+01 0.  0.
    3000022    2    5    5    0    0  0.56808919119E+01  0.47959875900E+02  0.10961381154E+02  0.49524101260E+02  0.24999914897E+00 0.  0.
        -13    1    4    4    0    0 -0.46224225463E+00 -0.10175554386E+02 -0.31636133604E+01  0.10666538776E+02  0.10500000000E+00 0.  1.
         13    1    4    4    0    0 -0.71261122788E+00 -0.16179650671E+02 -0.51953817483E+01  0.17008583925E+02  0.10500000000E+00 0. -1.
    3000001    1    5    5    0    0  0.16106172406E+01  0.12660817945E+02 -0.21174111261E+01  0.12975894143E+02  0.10000000000E+01 0.  1.
        -13    1    6    6    0    0  0.42503098750E+01  0.36091120639E+02  0.82441930781E+01  0.37264082808E+02  0.10500000000E+00 0.  1.
         13    1    6    6    0    0  0.14305820369E+01  0.11868755260E+02  0.27171880757E+01  0.12260018451E+02  0.10500000000E+00 0. -1.
</event>
<event>
11    0  0.3467594E-009  0.9118800E+02  0.7816531E-02  0.1126479E+00
         25   -1    0    0    0    0  0.00000000000E+00  0.00000000000E+00  0.99999998245E-14  0.12500000000E+03  0.12500000000E+03 0.  0.
    3000001    1    3    3    0    0  0.29284240703E+01  0.62780485177E+01 -0.27529124458E+01  0.75211759493E+01  0.10000000000E+01 0. -1.
    1000022    2    1    0    0    0  0.17634890180E+02  0.59109781321E+02  0.11376566030E+01  0.62500000656E+02  0.10000011000E+02 0.  0.
    3000022    2    3    3    0    0  0.14706466110E+02  0.52831732804E+02  0.38905690488E+01  0.54978824707E+02  0.25000438786E+00 0.  0.
    1000022    2    1    0    0    0 -0.17634890180E+02 -0.59109781321E+02 -0.11376566030E+01  0.62499999344E+02  0.10000002796E+02 0.  0.
    3000022    2    5    5    0    0 -0.16298827550E+02 -0.55634516736E+02 -0.33229023600E+01  0.58068540633E+02  0.24999833349E+00 0.  0.
        -13    1    4    4    0    0  0.55900133353E+01  0.20288906358E+02  0.14671161400E+01  0.21096241966E+02  0.10500000000E+00 0.  1.
         13    1    4    4    0    0  0.91164527743E+01  0.32542826445E+02  0.24234529088E+01  0.33882582741E+02  0.10500000000E+00 0. -1.
    3000001    1    5    5    0    0 -0.13360626297E+01 -0.34752645849E+01  0.21852457570E+01  0.44314587106E+01  0.10000000000E+01 0.  1.
        -13    1    6    6    0    0 -0.12310968687E+02 -0.42082854269E+02 -0.25274967980E+01  0.43919538231E+02  0.10500000000E+00 0. -1.
         13    1    6    6    0    0 -0.39878588636E+01 -0.13551662468E+02 -0.79540556203E+00  0.14149002402E+02  0.10500000000E+00 0.  1.
</event>
<event>
11    0  0.3467594E-009  0.9118800E+02  0.7816531E-02  0.1126479E+00
         25   -1    0    0    0    0  0.00000000000E+00  0.00000000000E+00  0.99999998245E-14  0.12500000000E+03  0.12500000000E+03 0.  0.
    3000001    1    3    3    0    0  0.35425269461E+01 -0.30297543397E+01 -0.22384929932E+01  0.52668547923E+01  0.10000000000E+01 0. -1.
    1000022    2    1    0    0    0  0.15246320427E+02 -0.45617486119E+02 -0.38637341424E+02  0.62499995045E+02  0.99999950943E+01 0.  0.
    3000022    2    3    3    0    0  0.11703793481E+02 -0.42587731780E+02 -0.36398848431E+02  0.57233140253E+02  0.24999221015E+00 0.  0.
    1000022    2    1    0    0    0 -0.15246320427E+02  0.45617486119E+02  0.38637341424E+02  0.62500004955E+02  0.10000057030E+02 0.  0.
    3000022    2    5    5    0    0 -0.52113382970E+01  0.60029174590E+01  0.39108927943E+01  0.88628802096E+01  0.24999659034E+00 0.  0.
        -13    1    4    4    0    0  0.89708425974E+01 -0.32593925386E+02 -0.27866711797E+02  0.43811010492E+02  0.10500000000E+00 0. -1.
         13    1    4    4    0    0  0.27329508838E+01 -0.99938063939E+01 -0.85321366336E+01  0.13422129760E+02  0.10500000000E+00 0.  1.
    3000001    1    5    5    0    0 -0.10034982130E+02  0.39614568660E+02  0.34726448630E+02  0.53637124745E+02  0.10000000000E+01 0. -1.
        -13    1    6    6    0    0 -0.13352176028E+01  0.15777789457E+01  0.10377761691E+01  0.23152098880E+01  0.10500000000E+00 0.  1.
         13    1    6    6    0    0 -0.38761206942E+01  0.44251385133E+01  0.28731166251E+01  0.65476703216E+01  0.10500000000E+00 0. -1.
</event>
<event>
11    0  0.3467594E-009  0.9118800E+02  0.7816531E-02  0.1126479E+00
         25   -1    0    0    0    0  0.00000000000E+00  0.00000000000E+00  0.99999998245E-14  0.12500000000E+03  0.12500000000E+03 0.  0.
    3000001    1    3    3    0    0 -0.69876726670E+01  0.24671828006E+01 -0.25115819116E+02  0.26205322554E+02  0.10000000000E+01 0. -1.
    1000022    2    1    0    0    0 -0.17832473041E+02 -0.56248067829E+01 -0.58792979565E+02  0.62499999957E+02  0.10000000120E+02 0.  0.
    3000022    2    3    3    0    0 -0.10844800374E+02 -0.80919895835E+01 -0.33677160449E+02  0.36294677403E+02  0.24996266603E+00 0.  0.
    1000022    2    1    0    0    0  0.17832473041E+02  0.56248067829E+01  0.58792979565E+02  0.62500000043E+02  0.10000000659E+02 0.  0.
    3000022    2    5    5    0    0  0.14382388036E+02  0.78786615355E+01  0.39946257872E+02  0.43182084360E+02  0.24999689352E+00 0.  0.
        -13    1    4    4    0    0 -0.57662485098E+01 -0.42581556817E+01 -0.17686481869E+02  0.19084134185E+02  0.10500000000E+00 0. -1.
         13    1    4    4    0    0 -0.50785518637E+01 -0.38338339018E+01 -0.15990678579E+02  0.17210543217E+02  0.10500000000E+00 0.  1.
    3000001    1    5    5    0    0  0.34500850041E+01 -0.22538547526E+01  0.18846721693E+02  0.19317915684E+02  0.10000000000E+01 0. -1.
        -13    1    6    6    0    0  0.91282578356E+01  0.49413467592E+01  0.25357647529E+02  0.27400060440E+02  0.10500000000E+00 0. -1.
         13    1    6    6    0    0  0.52541302008E+01  0.29373147763E+01  0.14588610343E+02  0.15782023920E+02  0.10500000000E+00 0.  1.
</event>
<event>
11    0  0.3467594E-009  0.9118800E+02  0.7816531E-02  0.1126479E+00
         25   -1    0    0    0    0  0.00000000000E+00  0.00000000000E+00  0.99999998245E-14  0.12500000000E+03  0.12500000000E+03 0.  0.
    3000001    1    3    3    0    0  0.10002067982E+01  0.56578241820E+01  0.57339728325E+01  0.81786204557E+01  0.10000000000E+01 0.  1.
    1000022    2    1    0    0    0 -0.11399444205E+02  0.52227246403E+02  0.30799629345E+02  0.62499998068E+02  0.99999997845E+01 0.  0.
    3000022    2    3    3    0    0 -0.12399651004E+02  0.46569422221E+02  0.25065656512E+02  0.54321377613E+02  0.24999660153E+00 0.  0.
    1000022    2    1    0    0    0  0.11399444205E+02 -0.52227246403E+02 -0.30799629345E+02  0.62500001932E+02  0.10000023930E+02 0.  0.
    3000022    2    5    5    0    0  0.50992919998E+01 -0.40666083656E+02 -0.25508763124E+02  0.48275176194E+02  0.25000334372E+00 0.  0.
        -13    1    4    4    0    0 -0.57346282239E+01  0.21460546804E+02  0.11626031137E+02  0.25072228760E+02  0.10500000000E+00 0.  1.
         13    1    4    4    0    0 -0.66650227797E+01  0.25108875417E+02  0.13439625375E+02  0.29249148853E+02  0.10500000000E+00 0. -1.
    3000001    1    5    5    0    0  0.63001522056E+01 -0.11561162748E+02 -0.52908662207E+01  0.14224825737E+02  0.10000000000E+01 0.  1.
        -13    1    6    6    0    0  0.14453554746E+01 -0.11258699221E+02 -0.70880919824E+01  0.13382803651E+02  0.10500000000E+00 0. -1.
         13    1    6    6    0    0  0.36539365252E+01 -0.29407384434E+02 -0.18420671142E+02  0.34892372544E+02  0.10500000000E+00 0.  1.
</event>
<event>
11    0  0.3467594E-009  0.9118800E+02  0.7816531E-02  0.1126479E+00
         25   -1    0    0    0    0  0.00000000000E+00  0.00000000000E+00  0.99999998245E-14  0.12500000000E+03  0.12500000000E+03 0.  0.
    3000001    1    3    3    0    0 -0.23306024648E+02 -0.25604510988E+02  0.65509115724E+00  0.34643771622E+02  0.10000000000E+01 0.  1.
    1000022    2    1    0    0    0 -0.37176640186E+02 -0.48543756641E+02  0.82250309334E+01  0.62499999981E+02  0.99999989777E+01 0.  0.
    3000022    2    3    3    0    0 -0.13870615538E+02 -0.22939245653E+02  0.75699397761E+01  0.27856228359E+02  0.25000730745E+00 0.  0.
    1000022    2    1    0    0    0  0.37176640186E+02  0.48543756641E+02 -0.82250309334E+01  0.62500000019E+02  0.99999992092E+01 0.  0.
    3000022    2    5    5    0    0  0.24477938667E+02  0.31876248549E+02 -0.10093782979E+02  0.41439252632E+02  0.25000193878E+00 0.  0.
        -13    1    4    4    0    0 -0.51855626348E+01 -0.85100841540E+01  0.28652708354E+01  0.10369782742E+02  0.10500000000E+00 0. -1.
         13    1    4    4    0    0 -0.86850529032E+01 -0.14429161499E+02  0.47046689407E+01  0.17486445618E+02  0.10500000000E+00 0.  1.
    3000001    1    5    5    0    0  0.12698701519E+02  0.16667508092E+02  0.18687520461E+01  0.21060747386E+02  0.10000000000E+01 0. -1.
        -13    1    6    6    0    0  0.17966790228E+02  0.23447882277E+02 -0.74331990535E+01  0.30460994855E+02  0.10500000000E+00 0. -1.
         13    1    6    6    0    0  0.65111484384E+01  0.84283662719E+01 -0.26605839260E+01  0.10978257777E+02  0.10500000000E+00 0.  1.
</event>
<event>
11    0  0.3467594E-009  0.9118800E+02  0.7816531E-02  0.1126479E+00
         25   -1    0    0    0    0  0.00000000000E+00  0.00000000000E+00  0.99999998245E-14  0.12500000000E+03  0.12500000000E+03 0.  0.
    3000001    1    3    3    0    0 -0.18499470608E+02 -0.29471845509E+01 -0.16941110562E+02  0.25276818166E+02  0.10000000000E+01 0. -1.
    1000022    2    1    0    0    0 -0.44486551981E+02  0.46088789686E+01 -0.42496537809E+02  0.62499994506E+02  0.99999257452E+01 0.  0.
    3000022    2    3    3    0    0 -0.25987081374E+02  0.75560635195E+01 -0.25555427247E+02  0.37223176340E+02  0.25000154302E+00 0.  0.
    1000022    2    1    0    0    0  0.44486551981E+02 -0.46088789686E+01  0.42496537809E+02  0.62500005494E+02  0.99999944252E+01 0.  0.
    3000022    2    5    5    0    0  0.17955061243E+02 -0.61556971352E+01  0.20958909191E+02  0.28277467691E+02  0.24994611201E+00 0.  0.
        -13    1    4    4    0    0 -0.78380859586E+01  0.23061987326E+01 -0.76628226987E+01  0.11201965042E+02  0.10500000000E+00 0.  1.
         13    1    4    4    0    0 -0.18148995415E+02  0.52498647869E+01 -0.17892604549E+02  0.26021211298E+02  0.10500000000E+00 0. -1.
    3000001    1    5    5    0    0  0.26531490738E+02  0.15468181666E+01  0.21537628618E+02  0.34222537804E+02  0.10000000000E+01 0.  1.
        -13    1    6    6    0    0  0.55587268764E+01 -0.18903500852E+01  0.64154396408E+01  0.86972270705E+01  0.10500000000E+00 0.  1.
         13    1    6    6    0    0  0.12396334367E+02 -0.42653470501E+01  0.14543469550E+02  0.19580240620E+02  0.10500000000E+00 0. -1.
</event>
<event>
11    0  0.3467594E-009  0.9118800E+02  0.7816531E-02  0.1126479E+00
         25   -1    0    0    0    0  0.00000000000E+00  0.00000000000E+00  0.99999998245E-14  0.12500000000E+03  0.12500000000E+03 0.  0.
    3000001    1    3    3    0    0  0.18234326971E+02 -0.79303544233E+01  0.28326489177E+02  0.34623275271E+02  0.10000000000E+01 0. -1.
    1000022    2    1    0    0    0  0.35839327843E+02 -0.20738699927E+02  0.45735098769E+02  0.62500002202E+02  0.99999960448E+01 0.  0.
    3000022    2    3    3    0    0  0.17605000872E+02 -0.12808345504E+02  0.17408609592E+02  0.27876726931E+02  0.24989240897E+00 0.  0.
    1000022    2    1    0    0    0 -0.35839327843E+02  0.20738699927E+02 -0.45735098769E+02  0.62499997798E+02  0.99999685240E+01 0.  0.
    3000022    2    5    5    0    0 -0.94451225981E+01  0.10825284354E+02 -0.14613658259E+02  0.20494356055E+02  0.25000033356E+00 0.  0.
        -13    1    4    4    0    0  0.82504619920E+01 -0.60434613301E+01  0.82527783554E+01  0.13142028896E+02  0.10500000000E+00 0.  1.
         13    1    4    4    0    0  0.93545388802E+01 -0.67648841735E+01  0.91558312361E+01  0.14734698034E+02  0.10500000000E+00 0. -1.
    3000001    1    5    5    0    0 -0.26394205245E+02  0.99134155728E+01 -0.31121440510E+02  0.42005641743E+02  0.10000000000E+01 0.  1.
        -13    1    6    6    0    0 -0.46146019524E+01  0.52426672919E+01 -0.70180771272E+01  0.99017444462E+01  0.10500000000E+00 0.  1.
         13    1    6    6    0    0 -0.48305206457E+01  0.55826170622E+01 -0.75955811313E+01  0.10592611609E+02  0.10500000000E+00 0. -1.
</event>
<event>
11    0  0.3467594E-009  0.9118800E+02  0.7816531E-02  0.1126479E+00
         25   -1    0    0    0    0  0.00000000000E+00  0.00000000000E+00  0.99999998245E-14  0.12500000000E+03  0.12500000000E+03 0.  0.
    3000001    1    3    3    0    0 -0.21886373350E+01 -0.81004880206E+00  0.92471740031E+01  0.95893972432E+01  0.10000000000E+01 0.  1.
    1000022    2    1    0    0    0 -0.26012327743E+00  0.12587967320E+02  0.60396402522E+02  0.62500001831E+02  0.10000010298E+02 0.  0.
    3000022    2    3    3    0    0  0.19285140575E+01  0.13398016122E+02  0.51149228519E+02  0.52910604588E+02  0.24999465064E+00 0.  0.
    1000022    2    1    0    0    0  0.26012327743E+00 -0.12587967320E+02 -0.60396402522E+02  0.62499998169E+02  0.99999874044E+01 0.  0.
    3000022    2    5    5    0    0  0.10859341560E+01 -0.10979629567E+02 -0.28893375534E+02  0.30929293024E+02  0.24999753515E+00 0.  0.
        -13    1    4    4    0    0  0.11109786272E+01  0.78318310348E+01  0.29645246037E+02  0.30682625189E+02  0.10500000000E+00 0.  1.
         13    1    4    4    0    0  0.81753543035E+00  0.55661850876E+01  0.21503982482E+02  0.22227979400E+02  0.10500000000E+00 0. -1.
    3000001    1    5    5    0    0 -0.82581087860E+00 -0.16083377529E+01 -0.31503026988E+02  0.31570705145E+02  0.10000000000E+01 0. -1.
        -13    1    6    6    0    0  0.54571097653E+00 -0.61246158184E+01 -0.16020383351E+02  0.17160198923E+02  0.10500000000E+00 0. -1.
         13    1    6    6    0    0  0.54022317949E+00 -0.48550137491E+01 -0.12872992183E+02  0.13769094100E+02  0.10500000000E+00 0.  1.
</event>
<event>
11    0  0.3467594E-009  0.9118800E+02  0.7816531E-02  0.1126479E+00
         25   -1    0    0    0    0  0.00000000000E+00  0.00000000000E+00  0.99999998245E-14  0.12500000000E+03  0.12500000000E+03 0.  0.
    3000001    1    3    3    0    0 -0.15074146895E+02 -0.11722514487E+02 -0.17871396420E+02  0.26173155341E+02  0.10000000000E+01 0. -1.
    1000022    2    1    0    0    0 -0.29302507671E+02 -0.37030810815E+02 -0.39703048036E+02  0.62499999805E+02  0.10000002343E+02 0.  0.
    3000022    2    3    3    0    0 -0.14228360776E+02 -0.25308296328E+02 -0.21831651616E+02  0.36326844464E+02  0.25000604429E+00 0.  0.
    1000022    2    1    0    0    0  0.29302507671E+02  0.37030810815E+02  0.39703048036E+02  0.62500000195E+02  0.10000004783E+02 0.  0.
    3000022    2    5    5    0    0  0.24064520574E+02  0.23178213571E+02  0.26811574521E+02  0.42839861625E+02  0.24996186037E+00 0.  0.
        -13    1    4    4    0    0 -0.45033135120E+01 -0.79173736264E+01 -0.68731787262E+01  0.11411233436E+02  0.10500000000E+00 0.  1.
         13    1    4    4    0    0 -0.97250472639E+01 -0.17390922702E+02 -0.14958472890E+02  0.24915611028E+02  0.10500000000E+00 0. -1.
    3000001    1    5    5    0    0  0.52379870968E+01  0.13852597244E+02  0.12891473515E+02  0.19660138570E+02  0.10000000000E+01 0. -1.
        -13    1    6    6    0    0  0.10485553158E+02  0.10189646379E+02  0.11718603488E+02  0.18737993785E+02  0.10500000000E+00 0. -1.
         13    1    6    6    0    0  0.13578967416E+02  0.12988567192E+02  0.15092971033E+02  0.24101867840E+02  0.10500000000E+00 0.  1.
</event>
<event>
11    0  0.3467594E-009  0.9118800E+02  0.7816531E-02  0.1126479E+00
         25   -1    0    0    0    0  0.00000000000E+00  0.00000000000E+00  0.99999998245E-14  0.12500000000E+03  0.12500000000E+03 0.  0.
    3000001    1    3    3    0    0  0.74993566794E+01  0.60096394998E+01 -0.42169721475E+01  0.10542246991E+02  0.10000000000E+01 0. -1.
    1000022    2    1    0    0    0  0.41039917529E+02  0.45638168005E+02 -0.62556121526E+01  0.62499999530E+02  0.10000002412E+02 0.  0.
    3000022    2    3    3    0    0  0.33540560850E+02  0.39628528505E+02 -0.20386400051E+01  0.51957752539E+02  0.25000457420E+00 0.  0.
    1000022    2    1    0    0    0 -0.41039917529E+02 -0.45638168005E+02  0.62556121526E+01  0.62500000470E+02  0.10000008284E+02 0.  0.
    3000022    2    5    5    0    0 -0.17113203109E+02 -0.12302236343E+02  0.34508001327E+01  0.21358306616E+02  0.25000050792E+00 0.  0.
        -13    1    4    4    0    0  0.10287228099E+02  0.12191294110E+02 -0.66779925183E+00  0.15965954243E+02  0.10500000000E+00 0. -1.
         13    1    4    4    0    0  0.23253332751E+02  0.27437234395E+02 -0.13708407533E+01  0.35991798297E+02  0.10500000000E+00 0.  1.
    3000001    1    5    5    0    0 -0.23926714420E+02 -0.33335931662E+02  0.28048120199E+01  0.41141693853E+02  0.10000000000E+01 0. -1.
        -13    1    6    6    0    0 -0.76108879792E+01 -0.55172150059E+01  0.15948611112E+01  0.95351918815E+01  0.10500000000E+00 0.  1.
         13    1    6    6    0    0 -0.95023151300E+01 -0.67850213376E+01  0.18559390216E+01  0.11823114735E+02  0.10500000000E+00 0. -1.
</event>
<event>
11    0  0.3467594E-009  0.9118800E+02  0.7816531E-02  0.1126479E+00
         25   -1    0    0    0    0  0.00000000000E+00  0.00000000000E+00  0.99999998245E-14  0.12500000000E+03  0.12500000000E+03 0.  0.
    3000001    1    3    3    0    0  0.13927493387E+02 -0.16786584117E+02 -0.16447361474E+02  0.27336425842E+02  0.10000000000E+01 0. -1.
    1000022    2    1    0    0    0  0.27216209936E+02 -0.45999278072E+02 -0.30815491836E+02  0.62500002345E+02  0.10000004477E+02 0.  0.
    3000022    2    3    3    0    0  0.13288716549E+02 -0.29212693955E+02 -0.14368130362E+02  0.35163576503E+02  0.24993341617E+00 0.  0.
    1000022    2    1    0    0    0 -0.27216209936E+02  0.45999278072E+02  0.30815491836E+02  0.62499997655E+02  0.99999751655E+01 0.  0.
    3000022    2    5    5    0    0 -0.17499401332E+02  0.22355892084E+02  0.19985312006E+02  0.34720169261E+02  0.24999936780E+00 0.  0.
        -13    1    4    4    0    0  0.38925829266E+01 -0.86648722153E+01 -0.42533918384E+01  0.10408389860E+02  0.10500000000E+00 0.  1.
         13    1    4    4    0    0  0.93961336227E+01 -0.20547821740E+02 -0.10114738524E+02  0.24755186643E+02  0.10500000000E+00 0. -1.
    3000001    1    5    5    0    0 -0.97168086041E+01  0.23643385989E+02  0.10830179830E+02  0.27779828394E+02  0.10000000000E+01 0. -1.
        -13    1    6    6    0    0 -0.96748185646E+01  0.12345406431E+02  0.10960482139E+02  0.19135160515E+02  0.10500000000E+00 0. -1.
         13    1    6    6    0    0 -0.78245827675E+01  0.10010485652E+02  0.90248298671E+01  0.15585008746E+02  0.10500000000E+00 0.  1.
</event>
<event>
11    0  0.3467594E-009  0.9118800E+02  0.7816531E-02  0.1126479E+00
         25   -1    0    0    0    0  0.00000000000E+00  0.00000000000E+00  0.99999998245E-14  0.12500000000E+03  0.12500000000E+03 0.  0.
    3000001    1    3    3    0    0 -0.83603836592E+01 -0.10388749457E+02 -0.16489089312E+01  0.13473716298E+02  0.10000000000E+01 0. -1.
    1000022    2    1    0    0    0 -0.50188751027E+02 -0.33986699221E+02 -0.11499713213E+02  0.62499999207E+02  0.10000002163E+02 0.  0.
    3000022    2    3    3    0    0 -0.41828367368E+02 -0.23597949764E+02 -0.98508042815E+01  0.49026282909E+02  0.25004225769E+00 0.  0.
    1000022    2    1    0    0    0  0.50188751027E+02  0.33986699221E+02  0.11499713213E+02  0.62500000793E+02  0.10000012076E+02 0.  0.
    3000022    2    5    5    0    0  0.34456340904E+02  0.22892506834E+02  0.12445274780E+02  0.43200158315E+02  0.25003284537E+00 0.  0.
        -13    1    4    4    0    0 -0.31342459075E+02 -0.17686674045E+02 -0.73546392826E+01  0.36732409717E+02  0.10500000000E+00 0.  1.
         13    1    4    4    0    0 -0.10485908293E+02 -0.59112757188E+01 -0.24961649989E+01  0.12293873192E+02  0.10500000000E+00 0. -1.
    3000001    1    5    5    0    0  0.15732410124E+02  0.11094192387E+02 -0.94556156726E+00  0.19299842478E+02  0.10000000000E+01 0. -1.
        -13    1    6    6    0    0  0.18261663291E+02  0.12142646742E+02  0.66674409491E+01  0.22921562116E+02  0.10500000000E+00 0. -1.
         13    1    6    6    0    0  0.16194677613E+02  0.10749860092E+02  0.57778338310E+01  0.20278596198E+02  0.10500000000E+00 0.  1.
</event>
<event>
11    0  0.3467594E-009  0.9118800E+02  0.7816531E-02  0.1126479E+00
         25   -1    0    0    0    0  0.00000000000E+00  0.00000000000E+00  0.99999998245E-14  0.12500000000E+03  0.12500000000E+03 0.  0.
    3000001    1    3    3    0    0  0.23638578444E+02 -0.11679404828E+02  0.10808044059E+02  0.28513237353E+02  0.10000000000E+01 0.  1.
    1000022    2    1    0    0    0  0.46030617091E+02 -0.34582560943E+02  0.22169342685E+02  0.62499992996E+02  0.99999069116E+01 0.  0.
    3000022    2    3    3    0    0  0.22392038647E+02 -0.22903156115E+02  0.11361298627E+02  0.33986755643E+02  0.24999566233E+00 0.  0.
    1000022    2    1    0    0    0 -0.46030617091E+02  0.34582560943E+02 -0.22169342685E+02  0.62500007004E+02  0.99999944619E+01 0.  0.
    3000022    2    5    5    0    0 -0.38992275646E+02  0.32610525462E+02 -0.17458094636E+02  0.53746548693E+02  0.24999406871E+00 0.  0.
        -13    1    4    4    0    0  0.11249301185E+02 -0.11570459674E+02  0.57778280268E+01  0.17141080361E+02  0.10500000000E+00 0.  1.
         13    1    4    4    0    0  0.11142737462E+02 -0.11332696441E+02  0.55834705998E+01  0.16845675282E+02  0.10500000000E+00 0. -1.
    3000001    1    5    5    0    0 -0.70383414447E+01  0.19720354808E+01 -0.47112480489E+01  0.87534583113E+01  0.10000000000E+01 0. -1.
        -13    1    6    6    0    0 -0.21571191370E+02  0.18114545282E+02 -0.96376281676E+01  0.29771596357E+02  0.10500000000E+00 0. -1.
         13    1    6    6    0    0 -0.17421084276E+02  0.14495980180E+02 -0.78204664686E+01  0.23974952336E+02  0.10500000000E+00 0.  1.
</event>
<event>
11    0  0.3467594E-009  0.9118800E+02  0.7816531E-02  0.1126479E+00
         25   -1    0    0    0    0  0.00000000000E+00  0.00000000000E+00  0.99999998245E-14  0.12500000000E+03  0.12500000000E+03 0.  0.
    3000001    1    3    3    0    0 -0.19453331551E+02  0.50408596091E+01 -0.21253697009E+02  0.29267080664E+02  0.10000000000E+01 0. -1.
    1000022    2    1    0    0    0 -0.32766920538E+02  0.10493165540E+02 -0.51210084603E+02  0.62500000593E+02  0.99999852285E+01 0.  0.
    3000022    2    3    3    0    0 -0.13313588987E+02  0.54523059312E+01 -0.29956387593E+02  0.33232919930E+02  0.25003543287E+00 0.  0.
    1000022    2    1    0    0    0  0.32766920538E+02 -0.10493165540E+02  0.51210084603E+02  0.62499999407E+02  0.99999778098E+01 0.  0.
    3000022    2    5    5    0    0  0.20737981176E+02 -0.66394000288E+01  0.40176660983E+02  0.45698709945E+02  0.25001384127E+00 0.  0.
        -13    1    4    4    0    0 -0.54482161662E+01  0.21676731521E+01 -0.12266737110E+02  0.13596533772E+02  0.10500000000E+00 0. -1.
         13    1    4    4    0    0 -0.78653728213E+01  0.32846327791E+01 -0.17689650483E+02  0.19636386157E+02  0.10500000000E+00 0.  1.
    3000001    1    5    5    0    0  0.12028939362E+02 -0.38537655115E+01  0.11033423620E+02  0.16801289461E+02  0.10000000000E+01 0.  1.
        -13    1    6    6    0    0  0.85677169221E+01 -0.27212878310E+01  0.16714510347E+02  0.18978858286E+02  0.10500000000E+00 0.  1.
         13    1    6    6    0    0  0.12170264254E+02 -0.39181121978E+01  0.23462150636E+02  0.26719851659E+02  0.10500000000E+00 0. -1.
</event>
<event>
11    0  0.3467594E-009  0.9118800E+02  0.7816531E-02  0.1126479E+00
         25   -1    0    0    0    0  0.00000000000E+00  0.00000000000E+00  0.99999998245E-14  0.12500000000E+03  0.12500000000E+03 0.  0.
    3000001    1    3    3    0    0  0.29169529377E+02 -0.15890992437E+02  0.67140536172E+01  0.33903740216E+02  0.10000000000E+01 0.  1.
    1000022    2    1    0    0    0  0.50917085377E+02 -0.34413101644E+02  0.54258142030E+01  0.62500012475E+02  0.10000047574E+02 0.  0.
    3000022    2    3    3    0    0  0.21747556001E+02 -0.18522109207E+02 -0.12882394142E+01  0.28596272258E+02  0.25000960060E+00 0.  0.
    1000022    2    1    0    0    0 -0.50917085377E+02  0.34413101644E+02 -0.54258142030E+01  0.62499987525E+02  0.99998916380E+01 0.  0.
    3000022    2    5    5    0    0 -0.45766835687E+02  0.33957566053E+02 -0.46781374387E+01  0.57181002181E+02  0.24999892508E+00 0.  0.
        -13    1    4    4    0    0  0.16599020269E+02 -0.14115546081E+02 -0.98644985917E+00  0.21811928466E+02  0.10500000000E+00 0.  1.
         13    1    4    4    0    0  0.51485357318E+01 -0.44065631258E+01 -0.30178955500E+00  0.67843437928E+01  0.10500000000E+00 0. -1.
    3000001    1    5    5    0    0 -0.51502496906E+01  0.45553559113E+00 -0.74767676436E+00  0.53189853445E+01  0.10000000000E+01 0. -1.
        -13    1    6    6    0    0 -0.20371254196E+02  0.15033546757E+02 -0.20662748138E+01  0.25402284192E+02  0.10500000000E+00 0.  1.
         13    1    6    6    0    0 -0.25395581491E+02  0.18924019296E+02 -0.26118626249E+01  0.31778717988E+02  0.10500000000E+00 0. -1.
</event>
<event>
11    0  0.3467594E-009  0.9118800E+02  0.7816531E-02  0.1126479E+00
         25   -1    0    0    0    0  0.00000000000E+00  0.00000000000E+00  0.99999998245E-14  0.12500000000E+03  0.12500000000E+03 0.  0.
    3000001    1    3    3    0    0  0.11732725667E+01  0.59670910171E+01  0.43849154209E+01  0.75637442428E+01  0.10000000000E+01 0. -1.
    1000022    2    1    0    0    0 -0.54872305041E+01  0.34452742358E+02  0.50883679987E+02  0.62500000413E+02  0.10000000398E+02 0.  0.
    3000022    2    3    3    0    0 -0.66605030708E+01  0.28485651341E+02  0.46498764567E+02  0.54936256170E+02  0.25000459470E+00 0.  0.
    1000022    2    1    0    0    0  0.54872305041E+01 -0.34452742358E+02 -0.50883679987E+02  0.62499999587E+02  0.99999952376E+01 0.  0.
    3000022    2    5    5    0    0 -0.13462454991E+01 -0.17414963325E+02 -0.29651463951E+02  0.34414606471E+02  0.24999916642E+00 0.  0.
        -13    1    4    4    0    0 -0.38594967524E+01  0.16375355431E+02  0.26850095493E+02  0.31685748116E+02  0.10500000000E+00 0. -1.
         13    1    4    4    0    0 -0.28010063184E+01  0.12110295910E+02  0.19648669074E+02  0.23250508054E+02  0.10500000000E+00 0.  1.
    3000001    1    5    5    0    0  0.68334760032E+01 -0.17037779032E+02 -0.21232216037E+02  0.28085393116E+02  0.10000000000E+01 0.  1.
        -13    1    6    6    0    0 -0.67250171078E+00 -0.91035044338E+01 -0.15613966927E+02  0.18086819503E+02  0.10500000000E+00 0. -1.
         13    1    6    6    0    0 -0.67374378834E+00 -0.83114588917E+01 -0.14037497024E+02  0.16327786969E+02  0.10500000000E+00 0.  1.
</event>
<event>
11    0  0.3467594E-009  0.9118800E+02  0.7816531E-02  0.1126479E+00
         25   -1    0    0    0    0  0.00000000000E+00  0.00000000000E+00  0.99999998245E-14  0.12500000000E+03  0.12500000000E+03 0.  0.
    3000001    1    3    3    0    0  0.18473555566E+02  0.13023537116E+01 -0.38997061178E+02  0.43182625684E+02  0.10000000000E+01 0.  1.
    1000022    2    1    0    0    0  0.31257976645E+02  0.52373910386E+01 -0.52931641607E+02  0.62500000575E+02  0.10000000996E+02 0.  0.
    3000022    2    3    3    0    0  0.12784421079E+02  0.39350373270E+01 -0.13934580429E+02  0.19317374891E+02  0.24999976970E+00 0.  0.
    1000022    2    1    0    0    0 -0.31257976645E+02 -0.52373910386E+01  0.52931641607E+02  0.62499999425E+02  0.99999938031E+01 0.  0.
    3000022    2    5    5    0    0 -0.26228878798E+02 -0.13730532264E+01  0.37479228814E+02  0.45766739342E+02  0.24995865110E+00 0.  0.
        -13    1    4    4    0    0  0.60590968204E+01  0.19192300141E+01 -0.66834514773E+01  0.92236460674E+01  0.10500000000E+00 0.  1.
         13    1    4    4    0    0  0.67253242582E+01  0.20158073129E+01 -0.72511289515E+01  0.10093728824E+02  0.10500000000E+00 0. -1.
    3000001    1    5    5    0    0 -0.50290978470E+01 -0.38643378122E+01  0.15452412793E+02  0.16733260083E+02  0.10000000000E+01 0. -1.
        -13    1    6    6    0    0 -0.60675816726E+01 -0.32576533008E+00  0.86638961742E+01  0.10582806448E+02  0.10500000000E+00 0.  1.
         13    1    6    6    0    0 -0.20161297125E+02 -0.10472878963E+01  0.28815332640E+02  0.35183932894E+02  0.10500000000E+00 0. -1.
</event>
<event>
11    0  0.3467594E-009  0.9118800E+02  0.7816531E-02  0.1126479E+00
         25   -1    0    0    0    0  0.00000000000E+00  0.00000000000E+00  0.99999998245E-14  0.12500000000E+03  0.12500000000E+03 0.  0.
    3000001    1    3    3    0    0 -0.39529418179E+02  0.13700363453E+02  0.37116136796E+02  0.55936414535E+02  0.10000000000E+01 0.  1.
    1000022    2    1    0    0    0 -0.41359261337E+02  0.16882041851E+02  0.42551830601E+02  0.62500000498E+02  0.99999969672E+01 0.  0.
    3000022    2    3    3    0    0 -0.18298431582E+01  0.31816783982E+01  0.54356938046E+01  0.65635859634E+01  0.24998029511E+00 0.  0.
    1000022    2    1    0    0    0  0.41359261337E+02 -0.16882041851E+02 -0.42551830601E+02  0.62499999502E+02  0.99999907418E+01 0.  0.
    3000022    2    5    5    0    0  0.36031758036E+02 -0.16394966486E+02 -0.40633531270E+02  0.56729435738E+02  0.25000484495E+00 0.  0.
        -13    1    4    4    0    0 -0.64770399043E+00  0.12434814438E+01  0.21089041271E+01  0.25346140096E+01  0.10500000000E+00 0.  1.
         13    1    4    4    0    0 -0.11821391677E+01  0.19381969543E+01  0.33267896776E+01  0.40289719538E+01  0.10500000000E+00 0. -1.
    3000001    1    5    5    0    0  0.53275033007E+01 -0.48707536559E+00 -0.19182993309E+01  0.57705637639E+01  0.10000000000E+01 0. -1.
        -13    1    6    6    0    0  0.24426138473E+02 -0.11169694093E+02 -0.27580286967E+02  0.38497812418E+02  0.10500000000E+00 0. -1.
         13    1    6    6    0    0  0.11605619563E+02 -0.52252723928E+01 -0.13053244303E+02  0.18231623320E+02  0.10500000000E+00 0.  1.
</event>
<event>
11    0  0.3467594E-009  0.9118800E+02  0.7816531E-02  0.1126479E+00
         25   -1    0    0    0    0  0.00000000000E+00  0.00000000000E+00  0.99999998245E-14  0.12500000000E+03  0.12500000000E+03 0.  0.
    3000001    1    3    3    0    0  0.47163374774E+01  0.47333909191E+01 -0.12594602782E+01  0.68727773852E+01  0.10000000000E+01 0.  1.
    1000022    2    1    0    0    0  0.51291342517E+02  0.21978250840E+02 -0.26313583583E+02  0.62499999838E+02  0.99999985771E+01 0.  0.
    3000022    2    3    3    0    0  0.46575005040E+02  0.17244859921E+02 -0.25054123305E+02  0.55627222453E+02  0.24999014010E+00 0.  0.
    1000022    2    1    0    0    0 -0.51291342517E+02 -0.21978250840E+02  0.26313583583E+02  0.62500000162E+02  0.10000000602E+02 0.  0.
    3000022    2    5    5    0    0 -0.32974525462E+02 -0.15818931517E+02  0.12219630581E+02  0.38560858307E+02  0.24999601798E+00 0.  0.
        -13    1    4    4    0    0  0.24986124179E+02  0.91930726892E+01 -0.13474373074E+02  0.29839382394E+02  0.10500000000E+00 0.  1.
         13    1    4    4    0    0  0.21588880861E+02  0.80517872315E+01 -0.11579750231E+02  0.25787840058E+02  0.10500000000E+00 0. -1.
    3000001    1    5    5    0    0 -0.18316817055E+02 -0.61593193233E+01  0.14093953002E+02  0.23939141855E+02  0.10000000000E+01 0.  1.
        -13    1    6    6    0    0 -0.22554114550E+02 -0.10798006518E+02  0.84030913818E+01  0.26380068190E+02  0.10500000000E+00 0. -1.
         13    1    6    6    0    0 -0.10420410912E+02 -0.50209249980E+01  0.38165391996E+01  0.12180790117E+02  0.10500000000E+00 0.  1.
</event>
<event>
11    0  0.3467594E-009  0.9118800E+02  0.7816531E-02  0.1126479E+00
         25   -1    0    0    0    0  0.00000000000E+00  0.00000000000E+00  0.99999998245E-14  0.12500000000E+03  0.12500000000E+03 0.  0.
    3000001    1    3    3    0    0  0.14814706600E+02  0.29438018262E+02  0.35692582050E+01  0.33163414405E+02  0.10000000000E+01 0.  1.
    1000022    2    1    0    0    0  0.32563206074E+02  0.52396120520E+02 -0.73061284230E+00  0.62499997069E+02  0.10000000159E+02 0.  0.
    3000022    2    3    3    0    0  0.17748499473E+02  0.22958102258E+02 -0.42998710473E+01  0.29336582665E+02  0.24999712228E+00 0.  0.
    1000022    2    1    0    0    0 -0.32563206074E+02 -0.52396120520E+02  0.73061284230E+00  0.62500002931E+02  0.10000036793E+02 0.  0.
    3000022    2    5    5    0    0 -0.16377787496E+01 -0.10393059312E+01  0.16143707743E+01  0.25359679765E+01  0.24992904945E+00 0.  0.
        -13    1    4    4    0    0  0.56212350744E+01  0.72269741791E+01 -0.13988921038E+01  0.92625786725E+01  0.10500000000E+00 0.  1.
         13    1    4    4    0    0  0.12127264399E+02  0.15731128079E+02 -0.29009789434E+01  0.20074003992E+02  0.10500000000E+00 0. -1.
    3000001    1    5    5    0    0 -0.30925427324E+02 -0.51356814589E+02 -0.88375793201E+00  0.59964034954E+02  0.10000000000E+01 0. -1.
        -13    1    6    6    0    0 -0.11677654895E+01 -0.74137035923E+00  0.12006242306E+01  0.18346197948E+01  0.10500000000E+00 0.  1.
         13    1    6    6    0    0 -0.47001326008E+00 -0.29793557195E+00  0.41374654366E+00  0.70134818177E+00  0.10500000000E+00 0. -1.
</event>
<event>
11    0  0.3467594E-009  0.9118800E+02  0.7816531E-02  0.1126479E+00
         25   -1    0    0    0    0  0.00000000000E+00  0.00000000000E+00  0.99999998245E-14  0.12500000000E+03  0.12500000000E+03 0.  0.
    3000001    1    3    3    0    0  0.28937739456E+01 -0.13868012731E+02 -0.23548300746E+01  0.14395865012E+02  0.10000000000E+01 0.  1.
    1000022    2    1    0    0    0 -0.49280371633E+01 -0.59911910258E+02 -0.13875431359E+02  0.62500001859E+02  0.10000004795E+02 0.  0.
    3000022    2    3    3    0    0 -0.78218111089E+01 -0.46043897527E+02 -0.11520601284E+02  0.48104136847E+02  0.24999869408E+00 0.  0.
    1000022    2    1    0    0    0  0.49280371633E+01  0.59911910258E+02  0.13875431359E+02  0.62499998141E+02  0.99999815605E+01 0.  0.
    3000022    2    5    5    0    0  0.27878807011E+01  0.37942889805E+02  0.38628229331E+01  0.38241588118E+02  0.24999049906E+00 0.  0.
        -13    1    4    4    0    0 -0.29882369082E+01 -0.17231669877E+02 -0.43126020419E+01  0.18013038832E+02  0.10500000000E+00 0. -1.
         13    1    4    4    0    0 -0.48335742007E+01 -0.28812227649E+02 -0.72079992422E+01  0.30091098015E+02  0.10500000000E+00 0.  1.
    3000001    1    5    5    0    0  0.21401564623E+01  0.21969020453E+02  0.10012608426E+02  0.24258410023E+02  0.10000000000E+01 0.  1.
        -13    1    6    6    0    0  0.14414790050E+01  0.20369294890E+02  0.21120667942E+01  0.20529439524E+02  0.10500000000E+00 0.  1.
         13    1    6    6    0    0  0.13464016960E+01  0.17573594915E+02  0.17507561389E+01  0.17712148595E+02  0.10500000000E+00 0. -1.
</event>
<event>
11    0  0.3467594E-009  0.9118800E+02  0.7816531E-02  0.1126479E+00
         25   -1    0    0    0    0  0.00000000000E+00  0.00000000000E+00  0.99999998245E-14  0.12500000000E+03  0.12500000000E+03 0.  0.
    3000001    1    3    3    0    0 -0.44680035427E+01  0.10812486810E+02  0.30378461293E+00  0.11745859345E+02  0.10000000000E+01 0.  1.
    1000022    2    1    0    0    0 -0.29386377663E+02  0.51558208827E+02 -0.16865402577E+02  0.62499999375E+02  0.10000001408E+02 0.  0.
    3000022    2    3    3    0    0 -0.24918374120E+02  0.40745722018E+02 -0.17169187190E+02  0.50754140030E+02  0.25001973195E+00 0.  0.
    1000022    2    1    0    0    0  0.29386377663E+02 -0.51558208827E+02  0.16865402577E+02  0.62500000625E+02  0.10000009221E+02 0.  0.
    3000022    2    5    5    0    0  0.10762467473E+02 -0.27516818847E+02  0.10893823697E+02  0.31491965904E+02  0.24999238335E+00 0.  0.
        -13    1    4    4    0    0 -0.92765287795E+01  0.15256089065E+02 -0.64600896279E+01  0.18988049472E+02  0.10500000000E+00 0. -1.
         13    1    4    4    0    0 -0.15641845341E+02  0.25489632953E+02 -0.10709097562E+02  0.31766090558E+02  0.10500000000E+00 0.  1.
    3000001    1    5    5    0    0  0.18623910189E+02 -0.24041389981E+02  0.59715788799E+01  0.31008034721E+02  0.10000000000E+01 0. -1.
        -13    1    6    6    0    0  0.80391628817E+01 -0.20473275675E+02  0.81087293468E+01  0.23442390521E+02  0.10500000000E+00 0. -1.
         13    1    6    6    0    0  0.27233045918E+01 -0.70435431716E+01  0.27850943502E+01  0.80495753832E+01  0.10500000000E+00 0.  1.
</event>
<event>
11    0  0.3467594E-009  0.9118800E+02  0.7816531E-02  0.1126479E+00
         25   -1    0    0    0    0  0.00000000000E+00  0.00000000000E+00  0.99999998245E-14  0.12500000000E+03  0.12500000000E+03 0.  0.
    3000001    1    3    3    0    0 -0.66128752845E+01  0.19303259257E+01  0.18079007518E+02  0.19372836409E+02  0.10000000000E+01 0. -1.
    1000022    2    1    0    0    0 -0.26992533846E+02 -0.69046328857E+01  0.55045246326E+02  0.62500000569E+02  0.10000004467E+02 0.  0.
    3000022    2    3    3    0    0 -0.20379658562E+02 -0.88349588114E+01  0.36966238808E+02  0.43127164160E+02  0.24999314219E+00 0.  0.
    1000022    2    1    0    0    0  0.26992533846E+02  0.69046328857E+01 -0.55045246326E+02  0.62499999431E+02  0.99999973507E+01 0.  0.
    3000022    2    5    5    0    0  0.20156664210E+02  0.76719582090E+01 -0.33337079985E+02  0.39706088232E+02  0.24997185666E+00 0.  0.
        -13    1    4    4    0    0 -0.15079009048E+02 -0.65710895222E+01  0.27378332672E+02  0.31939628306E+02  0.10500000000E+00 0. -1.
         13    1    4    4    0    0 -0.53006495133E+01 -0.22638692892E+01  0.95879061357E+01  0.11187535854E+02  0.10500000000E+00 0.  1.
    3000001    1    5    5    0    0  0.68358696359E+01 -0.76732532329E+00 -0.21708166342E+02  0.22793911199E+02  0.10000000000E+01 0.  1.
        -13    1    6    6    0    0  0.15104972023E+02  0.57204228494E+01 -0.24968016215E+02  0.29737119499E+02  0.10500000000E+00 0.  1.
         13    1    6    6    0    0  0.50516921872E+01  0.19515353595E+01 -0.83690637697E+01  0.99689687328E+01  0.10500000000E+00 0. -1.
</event>
<event>
11    0  0.3467594E-009  0.9118800E+02  0.7816531E-02  0.1126479E+00
         25   -1    0    0    0    0  0.00000000000E+00  0.00000000000E+00  0.99999998245E-14  0.12500000000E+03  0.12500000000E+03 0.  0.
    3000001    1    3    3    0    0  0.82574289553E+01  0.11048090052E+02 -0.86310604293E+00  0.13856059280E+02  0.10000000000E+01 0. -1.
    1000022    2    1    0    0    0  0.49456183652E+02  0.36880981122E+02  0.35953421005E+00  0.62500000247E+02  0.99999948058E+01 0.  0.
    3000022    2    3    3    0    0  0.41198754697E+02  0.25832891070E+02  0.12226402530E+01  0.48643940967E+02  0.24998795786E+00 0.  0.
    1000022    2    1    0    0    0 -0.49456183652E+02 -0.36880981122E+02 -0.35953421005E+00  0.62499999753E+02  0.99999917165E+01 0.  0.
    3000022    2    5    5    0    0 -0.27096563738E+02 -0.18884668475E+02  0.46240392410E+01  0.33351142555E+02  0.25000205061E+00 0.  0.
        -13    1    4    4    0    0  0.15359131686E+02  0.97004572384E+01  0.44665547264E+00  0.18171745180E+02  0.10500000000E+00 0. -1.
         13    1    4    4    0    0  0.25839623011E+02  0.16132433832E+02  0.77598478035E+00  0.30472195787E+02  0.10500000000E+00 0.  1.
    3000001    1    5    5    0    0 -0.22359619914E+02 -0.17996312647E+02 -0.49835734510E+01  0.29148857198E+02  0.10000000000E+01 0. -1.
        -13    1    6    6    0    0 -0.13084111017E+02 -0.91876649916E+01  0.22005997410E+01  0.16138798385E+02  0.10500000000E+00 0.  1.
         13    1    6    6    0    0 -0.14012452721E+02 -0.96970034829E+01  0.24234395000E+01  0.17212344170E+02  0.10500000000E+00 0. -1.
</event>
<event>
11    0  0.3467594E-009  0.9118800E+02  0.7816531E-02  0.1126479E+00
         25   -1    0    0    0    0  0.00000000000E+00  0.00000000000E+00  0.99999998245E-14  0.12500000000E+03  0.12500000000E+03 0.  0.
    3000001    1    3    3    0    0  0.25474632636E+02  0.13146456284E+02 -0.24756688634E+01  0.28790886702E+02  0.10000000000E+01 0. -1.
    1000022    2    1    0    0    0  0.49740178604E+02  0.34305791347E+02 -0.12461032787E+02  0.62499997835E+02  0.99999851881E+01 0.  0.
    3000022    2    3    3    0    0  0.24265545968E+02  0.21159335063E+02 -0.99853639240E+01  0.33709111133E+02  0.24999851690E+00 0.  0.
    1000022    2    1    0    0    0 -0.49740178604E+02 -0.34305791347E+02  0.12461032787E+02  0.62500002165E+02  0.10000012248E+02 0.  0.
    3000022    2    5    5    0    0 -0.13319363566E+02 -0.51494758340E+01  0.33692861004E+00  0.14286306969E+02  0.24999750801E+00 0.  0.
        -13    1    4    4    0    0  0.62235686960E+01  0.54568337396E+01 -0.25462513983E+01  0.86605001564E+01  0.10500000000E+00 0.  1.
         13    1    4    4    0    0  0.18041977272E+02  0.15702501323E+02 -0.74391125257E+01  0.25048610977E+02  0.10500000000E+00 0. -1.
    3000001    1    5    5    0    0 -0.36420815038E+02 -0.29156315513E+02  0.12124104177E+02  0.48213695196E+02  0.10000000000E+01 0. -1.
        -13    1    6    6    0    0 -0.64394200224E+01 -0.25621782497E+01  0.16242352692E+00  0.69331301740E+01  0.10500000000E+00 0.  1.
         13    1    6    6    0    0 -0.68799435438E+01 -0.25872975844E+01  0.17450508312E+00  0.73531767951E+01  0.10500000000E+00 0. -1.
</event>
<event>
11    0  0.3467594E-009  0.9118800E+02  0.7816531E-02  0.1126479E+00
         25   -1    0    0    0    0  0.00000000000E+00  0.00000000000E+00  0.99999998245E-14  0.12500000000E+03  0.12500000000E+03 0.  0.
    3000001    1    3    3    0    0 -0.23080500706E+01 -0.16790931484E+02  0.49559215958E+02  0.52386814768E+02  0.10000000000E+01 0.  1.
    1000022    2    1    0    0    0 -0.47225132345E+01 -0.16150276398E+02  0.59355845283E+02  0.62499999672E+02  0.10000001537E+02 0.  0.
    3000022    2    3    3    0    0 -0.24144631639E+01  0.64065508598E+00  0.97966293250E+01  0.10113184903E+02  0.24998289438E+00 0.  0.
    1000022    2    1    0    0    0  0.47225132345E+01  0.16150276398E+02 -0.59355845283E+02  0.62500000328E+02  0.10000005641E+02 0.  0.
    3000022    2    5    5    0    0  0.57045156538E+01  0.47828311185E+01 -0.31759129264E+02  0.32620879257E+02  0.24999916314E+00 0.  0.
        -13    1    4    4    0    0 -0.11852996636E+01  0.28468825240E+00  0.50274625919E+01  0.51742040747E+01  0.10500000000E+00 0. -1.
         13    1    4    4    0    0 -0.12291635003E+01  0.35596683358E+00  0.47691667331E+01  0.49389808285E+01  0.10500000000E+00 0.  1.
    3000001    1    5    5    0    0 -0.98200241932E+00  0.11367445279E+02 -0.27596716019E+02  0.29879121071E+02  0.10000000000E+01 0. -1.
        -13    1    6    6    0    0  0.18123073882E+01  0.15639795863E+01 -0.10384838953E+02  0.10657691837E+02  0.10500000000E+00 0.  1.
         13    1    6    6    0    0  0.38922082656E+01  0.32188515321E+01 -0.21374290311E+02  0.21963187421E+02  0.10500000000E+00 0. -1.
</event>
<event>
11    0  0.3467594E-009  0.9118800E+02  0.7816531E-02  0.1126479E+00
         25   -1    0    0    0    0  0.00000000000E+00  0.00000000000E+00  0.99999998245E-14  0.12500000000E+03  0.12500000000E+03 0.  0.
    3000001    1    3    3    0    0  0.20179692445E+02  0.17945493981E+02  0.28686843009E+02  0.39410603944E+02  0.10000000000E+01 0. -1.
    1000022    2    1    0    0    0  0.32223192918E+02  0.21334418465E+02  0.48091146021E+02  0.62499999538E+02  0.10000002176E+02 0.  0.
    3000022    2    3    3    0    0  0.12043500473E+02  0.33889244837E+01  0.19404303012E+02  0.23089395594E+02  0.25000139849E+00 0.  0.
    1000022    2    1    0    0    0 -0.32223192918E+02 -0.21334418465E+02 -0.48091146021E+02  0.62500000462E+02  0.10000007951E+02 0.  0.
    3000022    2    5    5    0    0  0.22917899131E+00 -0.18841484531E+01 -0.36878067054E+01  0.41551121812E+01  0.25000107612E+00 0.  0.
        -13    1    4    4    0    0  0.80254587548E+01  0.22781858128E+01  0.12845400717E+02  0.15317097095E+02  0.10500000000E+00 0. -1.
         13    1    4    4    0    0  0.40180417181E+01  0.11107386710E+01  0.65589022953E+01  0.77722984994E+01  0.10500000000E+00 0.  1.
    3000001    1    5    5    0    0 -0.32452371910E+02 -0.19450270012E+02 -0.44403339316E+02  0.58344888281E+02  0.10000000000E+01 0.  1.
        -13    1    6    6    0    0  0.13945083390E+00 -0.91104144935E+00 -0.16573815136E+01  0.18993108063E+01  0.10500000000E+00 0. -1.
         13    1    6    6    0    0  0.89728157414E-01 -0.97310700380E+00 -0.20304251918E+01  0.22558013748E+01  0.10500000000E+00 0.  1.
</event>
<event>
11    0  0.3467594E-009  0.9118800E+02  0.7816531E-02  0.1126479E+00
         25   -1    0    0    0    0  0.00000000000E+00  0.00000000000E+00  0.99999998245E-14  0.12500000000E+03  0.12500000000E+03 0.  0.
    3000001    1    3    3    0    0  0.15225467142E+01  0.28947340788E+01 -0.31545541192E+01  0.46528319951E+01  0.10000000000E+01 0. -1.
    1000022    2    1    0    0    0  0.92849482625E+01  0.13264942739E+02 -0.59532180390E+02  0.62500004275E+02  0.10000053109E+02 0.  0.
    3000022    2    3    3    0    0  0.77624015483E+01  0.10370208660E+02 -0.56377626271E+02  0.57847172280E+02  0.24998259840E+00 0.  0.
    1000022    2    1    0    0    0 -0.92849482625E+01 -0.13264942739E+02  0.59532180390E+02  0.62499995725E+02  0.99999996750E+01 0.  0.
    3000022    2    5    5    0    0 -0.54357869932E+01 -0.30705259182E+01  0.10141904114E+02  0.11912037005E+02  0.24999380822E+00 0.  0.
        -13    1    4    4    0    0  0.44426550407E+01  0.58966751471E+01 -0.31857199517E+02  0.32701684172E+02  0.10500000000E+00 0. -1.
         13    1    4    4    0    0  0.33197465076E+01  0.44735335133E+01 -0.24520426755E+02  0.25145488108E+02  0.10500000000E+00 0.  1.
    3000001    1    5    5    0    0 -0.38491612694E+01 -0.10194416821E+02  0.49390276277E+02  0.50587958721E+02  0.10000000000E+01 0.  1.
        -13    1    6    6    0    0 -0.23545679102E+01 -0.13804060279E+01  0.45282989607E+01  0.52882915316E+01  0.10500000000E+00 0.  1.
         13    1    6    6    0    0 -0.30812190829E+01 -0.16901198903E+01  0.56136051529E+01  0.66237454732E+01  0.10500000000E+00 0. -1.
</event>
<event>
11    0  0.3467594E-009  0.9118800E+02  0.7816531E-02  0.1126479E+00
         25   -1    0    0    0    0  0.00000000000E+00  0.00000000000E+00  0.99999998245E-14  0.12500000000E+03  0.12500000000E+03 0.  0.
    3000001    1    3    3    0    0 -0.19547158675E+02 -0.22697273888E+02 -0.29546536880E+02  0.42086286316E+02  0.10000000000E+01 0.  1.
    1000022    2    1    0    0    0 -0.34449272737E+02 -0.31969962631E+02 -0.39967731782E+02  0.62499996546E+02  0.99999540825E+01 0.  0.
    3000022    2    3    3    0    0 -0.14902114062E+02 -0.92726887429E+01 -0.10421194902E+02  0.20413710230E+02  0.25000426477E+00 0.  0.
    1000022    2    1    0    0    0  0.34449272737E+02  0.31969962631E+02  0.39967731782E+02  0.62500003454E+02  0.99999972615E+01 0.  0.
    3000022    2    5    5    0    0  0.17070129124E+02  0.21062783730E+02  0.26655142519E+02  0.38020905897E+02  0.24999157459E+00 0.  0.
        -13    1    4    4    0    0 -0.11064247044E+02 -0.69030773434E+01 -0.77126391981E+01  0.15151431215E+02  0.10500000000E+00 0. -1.
         13    1    4    4    0    0 -0.38378670183E+01 -0.23696113996E+01 -0.27085557034E+01  0.52622790152E+01  0.10500000000E+00 0.  1.
    3000001    1    5    5    0    0  0.17379143614E+02  0.10907178901E+02  0.13312589263E+02  0.24479097557E+02  0.10000000000E+01 0.  1.
        -13    1    6    6    0    0  0.90473975420E+01  0.11088390742E+02  0.14137513476E+02  0.20116861679E+02  0.10500000000E+00 0. -1.
         13    1    6    6    0    0  0.80227315817E+01  0.99743929879E+01  0.12517629043E+02  0.17904044218E+02  0.10500000000E+00 0.  1.
</event>
<event>
11    0  0.3467594E-009  0.9118800E+02  0.7816531E-02  0.1126479E+00
         25   -1    0    0    0    0  0.00000000000E+00  0.00000000000E+00  0.99999998245E-14  0.12500000000E+03  0.12500000000E+03 0.  0.
    3000001    1    3    3    0    0  0.30680308234E+02  0.99686086748E+01  0.17378175540E+02  0.36655906173E+02  0.10000000000E+01 0.  1.
    1000022    2    1    0    0    0  0.53003762690E+02  0.87377915930E+01  0.30339772225E+02  0.62499996757E+02  0.99999977381E+01 0.  0.
    3000022    2    3    3    0    0  0.22323454456E+02 -0.12308170819E+01  0.12961596685E+02  0.25844090584E+02  0.24999994928E+00 0.  0.
    1000022    2    1    0    0    0 -0.53003762690E+02 -0.87377915930E+01 -0.30339772225E+02  0.62500003243E+02  0.10000038274E+02 0.  0.
    3000022    2    5    5    0    0 -0.69318092245E+01 -0.43995615294E+01 -0.62396611530E+01  0.10315134843E+02  0.25002950927E+00 0.  0.
        -13    1    4    4    0    0  0.82106278599E+01 -0.51193801882E+00  0.47654911687E+01  0.95077558586E+01  0.10500000000E+00 0. -1.
         13    1    4    4    0    0  0.14112826596E+02 -0.71887906304E+00  0.81961055163E+01  0.16336334726E+02  0.10500000000E+00 0.  1.
    3000001    1    5    5    0    0 -0.46071953465E+02 -0.43382300636E+01 -0.24100111072E+02  0.52184868400E+02  0.10000000000E+01 0.  1.
        -13    1    6    6    0    0 -0.22032147748E+01 -0.14488132076E+01 -0.20401238319E+01  0.33356176795E+01  0.10500000000E+00 0.  1.
         13    1    6    6    0    0 -0.47285944497E+01 -0.29507483218E+01 -0.41995373211E+01  0.69795171638E+01  0.10500000000E+00 0. -1.
</event>
<event>
11    0  0.3467594E-009  0.9118800E+02  0.7816531E-02  0.1126479E+00
         25   -1    0    0    0    0  0.00000000000E+00  0.00000000000E+00  0.99999998245E-14  0.12500000000E+03  0.12500000000E+03 0.  0.
    3000001    1    3    3    0    0  0.49361840060E+00  0.93689481614E+01  0.20256705481E+02  0.22346251715E+02  0.10000000000E+01 0. -1.
    1000022    2    1    0    0    0 -0.43661684893E+01  0.36000631261E+02  0.49911333051E+02  0.62500000087E+02  0.99999982754E+01 0.  0.
    3000022    2    3    3    0    0 -0.48597868899E+01  0.26631683100E+02  0.29654627570E+02  0.40153748372E+02  0.24999735259E+00 0.  0.
    1000022    2    1    0    0    0  0.43661684893E+01 -0.36000631261E+02 -0.49911333051E+02  0.62499999913E+02  0.99999971880E+01 0.  0.
    3000022    2    5    5    0    0  0.45823107002E+01 -0.30363725371E+02 -0.35199821191E+02  0.46712346298E+02  0.24999005017E+00 0.  0.
        -13    1    4    4    0    0 -0.15097041041E+01  0.83337606445E+01  0.93490381419E+01  0.12615320533E+02  0.10500000000E+00 0. -1.
         13    1    4    4    0    0 -0.33500827858E+01  0.18297922455E+02  0.20305589428E+02  0.27538427839E+02  0.10500000000E+00 0.  1.
    3000001    1    5    5    0    0 -0.21614221091E+00 -0.56369058900E+01 -0.14711511860E+02  0.15787653615E+02  0.10000000000E+01 0.  1.
        -13    1    6    6    0    0  0.14266020326E+01 -0.95545769096E+01 -0.11145859686E+02  0.14750130386E+02  0.10500000000E+00 0.  1.
         13    1    6    6    0    0  0.31557086676E+01 -0.20809148461E+02 -0.24053961505E+02  0.31962215911E+02  0.10500000000E+00 0. -1.
</event>
<event>
11    0  0.3467594E-009  0.9118800E+02  0.7816531E-02  0.1126479E+00
         25   -1    0    0    0    0  0.00000000000E+00  0.00000000000E+00  0.99999998245E-14  0.12500000000E+03  0.12500000000E+03 0.  0.
    3000001    1    3    3    0    0  0.32514276364E+02  0.26170231759E+02  0.74857033946E+01  0.42415739450E+02  0.10000000000E+01 0.  1.
    1000022    2    1    0    0    0  0.51280338802E+02  0.32651867894E+02  0.10508678371E+02  0.62500000659E+02  0.10000006835E+02 0.  0.
    3000022    2    3    3    0    0  0.18766062438E+02  0.64816361342E+01  0.30229749765E+01  0.20084261209E+02  0.24992836106E+00 0.  0.
    1000022    2    1    0    0    0 -0.51280338802E+02 -0.32651867894E+02 -0.10508678371E+02  0.62499999341E+02  0.99999985929E+01 0.  0.
    3000022    2    5    5    0    0 -0.27158153743E+02 -0.14408721910E+02 -0.96639728835E+01  0.32227805585E+02  0.24999825524E+00 0.  0.
        -13    1    4    4    0    0  0.60995303243E+01  0.20543395545E+01  0.99463953868E+00  0.65134410256E+01  0.10500000000E+00 0.  1.
         13    1    4    4    0    0  0.12666532114E+02  0.44272965796E+01  0.20283354378E+01  0.13570820183E+02  0.10500000000E+00 0. -1.
    3000001    1    5    5    0    0 -0.24122185059E+02 -0.18243145984E+02 -0.84470548755E+00  0.30272193755E+02  0.10000000000E+01 0. -1.
        -13    1    6    6    0    0 -0.13195274038E+02 -0.69281777371E+01 -0.46618378856E+01  0.15615974551E+02  0.10500000000E+00 0. -1.
         13    1    6    6    0    0 -0.13962879706E+02 -0.74805441728E+01 -0.50021349979E+01  0.16611831035E+02  0.10500000000E+00 0.  1.
</event>
<event>
11    0  0.3467594E-009  0.9118800E+02  0.7816531E-02  0.1126479E+00
         25   -1    0    0    0    0  0.00000000000E+00  0.00000000000E+00  0.99999998245E-14  0.12500000000E+03  0.12500000000E+03 0.  0.
    3000001    1    3    3    0    0 -0.20547274415E+02 -0.33462177898E-01 -0.36208182872E+02  0.41644016527E+02  0.10000000000E+01 0. -1.
    1000022    2    1    0    0    0 -0.24250360270E+02  0.33702062335E+00 -0.56727917276E+02  0.62500001330E+02  0.10000000583E+02 0.  0.
    3000022    2    3    3    0    0 -0.37030858554E+01  0.37048280125E+00 -0.20519734404E+02  0.20855984803E+02  0.24999948840E+00 0.  0.
    1000022    2    1    0    0    0  0.24250360270E+02 -0.33702062335E+00  0.56727917276E+02  0.62499998670E+02  0.99999839568E+01 0.  0.
    3000022    2    5    5    0    0  0.21465547440E+02 -0.35480587537E+01  0.49218217223E+02  0.53813138290E+02  0.24999638619E+00 0.  0.
        -13    1    4    4    0    0 -0.25318929858E+01  0.23866184478E+00 -0.13736978091E+02  0.13970792162E+02  0.10500000000E+00 0.  1.
         13    1    4    4    0    0 -0.11711928695E+01  0.13182095648E+00 -0.67827563127E+01  0.68851926407E+01  0.10500000000E+00 0. -1.
    3000001    1    5    5    0    0  0.27848128301E+01  0.32110381304E+01  0.75097000529E+01  0.86868603798E+01  0.10000000000E+01 0.  1.
        -13    1    6    6    0    0  0.10948855167E+02 -0.17577181537E+01  0.24975842080E+02  0.27327105869E+02  0.10500000000E+00 0. -1.
         13    1    6    6    0    0  0.10516692274E+02 -0.17903406000E+01  0.24242375143E+02  0.26486032421E+02  0.10500000000E+00 0.  1.
</event>
<event>
11    0  0.3467594E-009  0.9118800E+02  0.7816531E-02  0.1126479E+00
         25   -1    0    0    0    0  0.00000000000E+00  0.00000000000E+00  0.99999998245E-14  0.12500000000E+03  0.12500000000E+03 0.  0.
    3000001    1    3    3    0    0  0.48479038645E+01  0.25584715138E+01  0.73367687982E+01  0.92128239300E+01  0.10000000000E+01 0. -1.
    1000022    2    1    0    0    0  0.18109747233E+02  0.35096284740E+02  0.47397657129E+02  0.62499999055E+02  0.99999916572E+01 0.  0.
    3000022    2    3    3    0    0  0.13261843368E+02  0.32537813226E+02  0.40060888331E+02  0.53287175125E+02  0.24995972186E+00 0.  0.
    1000022    2    1    0    0    0 -0.18109747233E+02 -0.35096284740E+02 -0.47397657129E+02  0.62500000945E+02  0.10000003474E+02 0.  0.
    3000022    2    5    5    0    0 -0.10199904618E+02 -0.28202886519E+02 -0.32184308019E+02  0.43992420326E+02  0.25000260295E+00 0.  0.
        -13    1    4    4    0    0  0.94244879961E+01  0.23058504891E+02  0.28454921491E+02  0.37818106826E+02  0.10500000000E+00 0.  1.
         13    1    4    4    0    0  0.38373553721E+01  0.94793083349E+01  0.11605966839E+02  0.15469068299E+02  0.10500000000E+00 0. -1.
    3000001    1    5    5    0    0 -0.79098426152E+01 -0.68933982212E+01 -0.15213349110E+02  0.18507580619E+02  0.10000000000E+01 0.  1.
        -13    1    6    6    0    0 -0.49390890325E+01 -0.13735031116E+02 -0.15755051484E+02  0.21477391660E+02  0.10500000000E+00 0.  1.
         13    1    6    6    0    0 -0.52608155851E+01 -0.14467855402E+02 -0.16429256535E+02  0.22515028666E+02  0.10500000000E+00 0. -1.
</event>
<event>
11    0  0.3467594E-009  0.9118800E+02  0.7816531E-02  0.1126479E+00
         25   -1    0    0    0    0  0.00000000000E+00  0.00000000000E+00  0.99999998245E-14  0.12500000000E+03  0.12500000000E+03 0.  0.
    3000001    1    3    3    0    0  0.84864831524E-04  0.10144672647E+01 -0.14401881563E+00  0.14317420360E+01  0.10000000000E+01 0. -1.
    1000022    2    1    0    0    0  0.32393587171E+02  0.42778365821E+02  0.30445320622E+02  0.62500002108E+02  0.99999821768E+01 0.  0.
    3000022    2    3    3    0    0  0.32393502307E+02  0.41763898556E+02  0.30589339438E+02  0.61068260072E+02  0.24997328953E+00 0.  0.
    1000022    2    1    0    0    0 -0.32393587171E+02 -0.42778365821E+02 -0.30445320622E+02  0.62499997892E+02  0.99999558315E+01 0.  0.
    3000022    2    5    5    0    0 -0.26846545763E+02 -0.40142283818E+02 -0.25947866360E+02  0.54822388137E+02  0.25000583848E+00 0.  0.
        -13    1    4    4    0    0  0.12475814631E+02  0.16062976185E+02  0.11840367040E+02  0.23534452857E+02  0.10500000000E+00 0.  1.
         13    1    4    4    0    0  0.19917687676E+02  0.25700922371E+02  0.18748972398E+02  0.37533807215E+02  0.10500000000E+00 0. -1.
    3000001    1    5    5    0    0 -0.55470414085E+01 -0.26360820030E+01 -0.44974542616E+01  0.76776097549E+01  0.10000000000E+01 0. -1.
        -13    1    6    6    0    0 -0.91588923388E+01 -0.13636153237E+02 -0.87762100326E+01  0.18624254925E+02  0.10500000000E+00 0. -1.
         13    1    6    6    0    0 -0.17687653424E+02 -0.26506130581E+02 -0.17171656328E+02  0.36198133212E+02  0.10500000000E+00 0.  1.
</event>
<event>
11    0  0.3467594E-009  0.9118800E+02  0.7816531E-02  0.1126479E+00
         25   -1    0    0    0    0  0.00000000000E+00  0.00000000000E+00  0.99999998245E-14  0.12500000000E+03  0.12500000000E+03 0.  0.
    3000001    1    3    3    0    0  0.46759358181E+02  0.37130102312E+02 -0.13806509968E+02  0.61291939051E+02  0.10000000000E+01 0. -1.
    1000022    2    1    0    0    0  0.47678852098E+02  0.36492488812E+02 -0.14187157344E+02  0.62499999655E+02  0.99999923182E+01 0.  0.
    3000022    2    3    3    0    0  0.91949391699E+00 -0.63761349976E+00 -0.38064737596E+00  0.12080606042E+01  0.24999592004E+00 0.  0.
    1000022    2    1    0    0    0 -0.47678852098E+02 -0.36492488812E+02  0.14187157344E+02  0.62500000345E+02  0.99999966256E+01 0.  0.
    3000022    2    5    5    0    0 -0.43808896053E+02 -0.31027796613E+02  0.10206256927E+02  0.54645893855E+02  0.24999747194E+00 0.  0.
        -13    1    4    4    0    0  0.42056037656E+00 -0.37137995505E+00 -0.17120255864E+00  0.59592735919E+00  0.10500000000E+00 0.  1.
         13    1    4    4    0    0  0.49893354043E+00 -0.26623354471E+00 -0.20944481732E+00  0.61213324497E+00  0.10500000000E+00 0. -1.
    3000001    1    5    5    0    0 -0.38699560446E+01 -0.54646921991E+01  0.39809004163E+01  0.78541064891E+01  0.10000000000E+01 0.  1.
        -13    1    6    6    0    0 -0.14251948879E+02 -0.10114273464E+02  0.32724650699E+01  0.17780231360E+02  0.10500000000E+00 0. -1.
         13    1    6    6    0    0 -0.29556947174E+02 -0.20913523149E+02  0.69337918573E+01  0.36865662496E+02  0.10500000000E+00 0.  1.
</event>
<event>
11    0  0.3467594E-009  0.9118800E+02  0.7816531E-02  0.1126479E+00
         25   -1    0    0    0    0  0.00000000000E+00  0.00000000000E+00  0.99999998245E-14  0.12500000000E+03  0.12500000000E+03 0.  0.
    3000001    1    3    3    0    0  0.17872545125E+01 -0.21978585589E+01 -0.49979719185E+01  0.58313449765E+01  0.10000000000E+01 0. -1.
    1000022    2    1    0    0    0  0.83498561501E+00 -0.44107497905E+02 -0.43128662912E+02  0.62500002892E+02  0.10000011224E+02 0.  0.
    3000022    2    3    3    0    0 -0.95226889746E+00 -0.41909639346E+02 -0.38130690993E+02  0.56668657915E+02  0.25001621710E+00 0.  0.
    1000022    2    1    0    0    0 -0.83498561501E+00  0.44107497905E+02  0.43128662912E+02  0.62499997108E+02  0.99999750785E+01 0.  0.
    3000022    2    5    5    0    0 -0.11706409306E+01  0.32189139564E+02  0.24981154639E+02  0.40763116316E+02  0.24991737222E+00 0.  0.
        -13    1    4    4    0    0 -0.49432759522E+00 -0.20498264932E+02 -0.18733661972E+02  0.27773806741E+02  0.10500000000E+00 0.  1.
         13    1    4    4    0    0 -0.45794130224E+00 -0.21411374414E+02 -0.19397029021E+02  0.28894851174E+02  0.10500000000E+00 0. -1.
    3000001    1    5    5    0    0  0.33565531557E+00  0.11918358341E+02  0.18147508273E+02  0.21736880792E+02  0.10000000000E+01 0.  1.
        -13    1    6    6    0    0 -0.46547510146E+00  0.14562268812E+02  0.11276264454E+02  0.18423938370E+02  0.10500000000E+00 0.  1.
         13    1    6    6    0    0 -0.70516582912E+00  0.17626870752E+02  0.13704890184E+02  0.22339177946E+02  0.10500000000E+00 0. -1.
</event>
<event>
11    0  0.3467594E-009  0.9118800E+02  0.7816531E-02  0.1126479E+00
         25   -1    0    0    0    0  0.00000000000E+00  0.00000000000E+00  0.99999998245E-14  0.12500000000E+03  0.12500000000E+03 0.  0.
    3000001    1    3    3    0    0  0.42875663799E+02  0.69960555617E+01  0.31488646614E+02  0.53663788584E+02  0.10000000000E+01 0. -1.
    1000022    2    1    0    0    0  0.48736026625E+02  0.11912504846E+02  0.35904624053E+02  0.62500002229E+02  0.10000009368E+02 0.  0.
    3000022    2    3    3    0    0  0.58603628255E+01  0.49164492847E+01  0.44159774384E+01  0.88362136444E+01  0.24997763271E+00 0.  0.
    1000022    2    1    0    0    0 -0.48736026625E+02 -0.11912504846E+02 -0.35904624053E+02  0.62499997771E+02  0.99999815076E+01 0.  0.
    3000022    2    5    5    0    0 -0.32547450476E+02 -0.12411307111E+02 -0.26253310895E+02  0.43619673434E+02  0.25000163062E+00 0.  0.
        -13    1    4    4    0    0  0.31282486558E+01  0.25939516613E+01  0.24187479602E+01  0.47303162229E+01  0.10500000000E+00 0.  1.
         13    1    4    4    0    0  0.27321141697E+01  0.23224976234E+01  0.19972294782E+01  0.41058974215E+01  0.10500000000E+00 0. -1.
    3000001    1    5    5    0    0 -0.16188576149E+02  0.49880226470E+00 -0.96513131575E+01  0.18880324337E+02  0.10000000000E+01 0.  1.
        -13    1    6    6    0    0 -0.18523425820E+02 -0.71308840553E+01 -0.14936370804E+02  0.24840954276E+02  0.10500000000E+00 0.  1.
         13    1    6    6    0    0 -0.14024024655E+02 -0.52804230558E+01 -0.11316940091E+02  0.18778719158E+02  0.10500000000E+00 0. -1.
</event>
<event>
11    0  0.3467594E-009  0.9118800E+02  0.7816531E-02  0.1126479E+00
         25   -1    0    0    0    0  0.00000000000E+00  0.00000000000E+00  0.99999998245E-14  0.12500000000E+03  0.12500000000E+03 0.  0.
    3000001    1    3    3    0    0  0.22685829887E+02  0.97622335734E+00  0.17388894893E+01  0.22795254470E+02  0.10000000000E+01 0. -1.
    1000022    2    1    0    0    0  0.61221868351E+02 -0.53968000361E+01 -0.53859406687E+01  0.62500007266E+02  0.99999968177E+01 0.  0.
    3000022    2    3    3    0    0  0.38536038464E+02 -0.63730233934E+01 -0.71248301580E+01  0.39704752796E+02  0.25000425439E+00 0.  0.
    1000022    2    1    0    0    0 -0.61221868351E+02  0.53968000361E+01  0.53859406687E+01  0.62499992734E+02  0.99999059905E+01 0.  0.
    3000022    2    5    5    0    0 -0.32244571819E+02 -0.15074471937E+01  0.41736218941E+00  0.32283455602E+02  0.25001119158E+00 0.  0.
        -13    1    4    4    0    0  0.18751136010E+02 -0.30712249779E+01 -0.35280012230E+01  0.19326027583E+02  0.10500000000E+00 0. -1.
         13    1    4    4    0    0  0.19784902454E+02 -0.33017984156E+01 -0.35968289351E+01  0.20378725213E+02  0.10500000000E+00 0.  1.
    3000001    1    5    5    0    0 -0.28977296532E+02  0.69042472298E+01  0.49685784793E+01  0.30216537131E+02  0.10000000000E+01 0. -1.
        -13    1    6    6    0    0 -0.16214050070E+02 -0.82433992831E+00  0.22444522440E+00  0.16236882603E+02  0.10500000000E+00 0. -1.
         13    1    6    6    0    0 -0.16030521749E+02 -0.68310726537E+00  0.19291696501E+00  0.16046573000E+02  0.10500000000E+00 0.  1.
</event>
<event>
11    0  0.3467594E-009  0.9118800E+02  0.7816531E-02  0.1126479E+00
         25   -1    0    0    0    0  0.00000000000E+00  0.00000000000E+00  0.99999998245E-14  0.12500000000E+03  0.12500000000E+03 0.  0.
    3000001    1    3    3    0    0  0.86127404425E+01  0.98757431377E+01 -0.67372652631E+01  0.14768220735E+02  0.10000000000E+01 0. -1.
    1000022    2    1    0    0    0  0.37886557712E+02  0.47227812264E+02 -0.11848722077E+02  0.62500001880E+02  0.10000025682E+02 0.  0.
    3000022    2    3    3    0    0  0.29273817269E+02  0.37352069126E+02 -0.51114568139E+01  0.47731781145E+02  0.24998996042E+00 0.  0.
    1000022    2    1    0    0    0 -0.37886557712E+02 -0.47227812264E+02  0.11848722077E+02  0.62499998120E+02  0.10000002187E+02 0.  0.
    3000022    2    5    5    0    0 -0.11039700870E+02 -0.74413564465E+01  0.16094111792E+01  0.13412736266E+02  0.25001742698E+00 0.  0.
        -13    1    4    4    0    0  0.11513912057E+02  0.14593791976E+02 -0.19861825908E+01  0.18695049649E+02  0.10500000000E+00 0.  1.
         13    1    4    4    0    0  0.17759905212E+02  0.22758277150E+02 -0.31252742232E+01  0.29036731496E+02  0.10500000000E+00 0. -1.
    3000001    1    5    5    0    0 -0.26846856841E+02 -0.39786455817E+02  0.10239310898E+02  0.49087261855E+02  0.10000000000E+01 0. -1.
        -13    1    6    6    0    0 -0.48134004181E+01 -0.31653183400E+01  0.69939355491E+00  0.58041571415E+01  0.10500000000E+00 0. -1.
         13    1    6    6    0    0 -0.62263004523E+01 -0.42760381065E+01  0.91001762426E+00  0.76085791240E+01  0.10500000000E+00 0.  1.
</event>
<event>
11    0  0.3467594E-009  0.9118800E+02  0.7816531E-02  0.1126479E+00
         25   -1    0    0    0    0  0.00000000000E+00  0.00000000000E+00  0.99999998245E-14  0.12500000000E+03  0.12500000000E+03 0.  0.
    3000001    1    3    3    0    0 -0.59666772295E+01  0.18207174922E+02  0.11069394558E+02  0.22150258502E+02  0.10000000000E+01 0. -1.
    1000022    2    1    0    0    0 -0.28220147863E+02  0.48932693859E+02  0.24808562061E+02  0.62500000643E+02  0.10000002758E+02 0.  0.
    3000022    2    3    3    0    0 -0.22253470633E+02  0.30725518937E+02  0.13739167503E+02  0.40349742142E+02  0.24999608651E+00 0.  0.
    1000022    2    1    0    0    0  0.28220147863E+02 -0.48932693859E+02 -0.24808562061E+02  0.62499999357E+02  0.99999947150E+01 0.  0.
    3000022    2    5    5    0    0  0.13490482983E+02 -0.28670948893E+02 -0.18328270976E+02  0.36606071321E+02  0.24999811804E+00 0.  0.
        -13    1    4    4    0    0 -0.10166351879E+02  0.13922867215E+02  0.62461105336E+01  0.18336462685E+02  0.10500000000E+00 0.  1.
         13    1    4    4    0    0 -0.12087118755E+02  0.16802651723E+02  0.74930569693E+01  0.22013279457E+02  0.10500000000E+00 0. -1.
    3000001    1    5    5    0    0  0.14729664880E+02 -0.20261744967E+02 -0.64802910846E+01  0.25893928036E+02  0.10000000000E+01 0. -1.
        -13    1    6    6    0    0  0.70131120140E+01 -0.15063102687E+02 -0.96059276108E+01  0.19192854737E+02  0.10500000000E+00 0.  1.
         13    1    6    6    0    0  0.64773709693E+01 -0.13607846206E+02 -0.87223433655E+01  0.17413216584E+02  0.10500000000E+00 0. -1.
</event>
<event>
11    0  0.3467594E-009  0.9118800E+02  0.7816531E-02  0.1126479E+00
         25   -1    0    0    0    0  0.00000000000E+00  0.00000000000E+00  0.99999998245E-14  0.12500000000E+03  0.12500000000E+03 0.  0.
    3000001    1    3    3    0    0 -0.36596212488E+02  0.48104532290E+01  0.13113705663E+02  0.39184084842E+02  0.10000000000E+01 0. -1.
    1000022    2    1    0    0    0 -0.59860800028E+02  0.39767086397E+01  0.14391676710E+02  0.62499999268E+02  0.99999979192E+01 0.  0.
    3000022    2    3    3    0    0 -0.23264587540E+02 -0.83374458936E+00  0.12779710466E+01  0.23315914426E+02  0.24998409409E+00 0.  0.
    1000022    2    1    0    0    0  0.59860800028E+02 -0.39767086397E+01 -0.14391676710E+02  0.62500000732E+02  0.10000007065E+02 0.  0.
    3000022    2    5    5    0    0  0.38545549904E+02  0.18371716921E+01 -0.73017198517E+01  0.39274829460E+02  0.24999809626E+00 0.  0.
        -13    1    4    4    0    0 -0.17725229765E+02 -0.64539638688E+00  0.98812142987E+00  0.17764788647E+02  0.10500000000E+00 0. -1.
         13    1    4    4    0    0 -0.55393577756E+01 -0.18834820248E+00  0.28984961678E+00  0.55511257788E+01  0.10500000000E+00 0.  1.
    3000001    1    5    5    0    0  0.21315250124E+02 -0.58138803318E+01 -0.70899568581E+01  0.23225171272E+02  0.10000000000E+01 0.  1.
        -13    1    6    6    0    0  0.12444308845E+02  0.59439703338E+00 -0.24096642068E+01  0.12689824154E+02  0.10500000000E+00 0.  1.
         13    1    6    6    0    0  0.26101241059E+02  0.12427746587E+01 -0.48920556449E+01  0.26585005306E+02  0.10500000000E+00 0. -1.
</event>
<event>
11    0  0.3467594E-009  0.9118800E+02  0.7816531E-02  0.1126479E+00
         25   -1    0    0    0    0  0.00000000000E+00  0.00000000000E+00  0.99999998245E-14  0.12500000000E+03  0.12500000000E+03 0.  0.
    3000001    1    3    3    0    0  0.24707438187E+02  0.73795655113E+01 -0.26741893913E+02  0.37162405452E+02  0.10000000000E+01 0. -1.
    1000022    2    1    0    0    0  0.34680597025E+02  0.14358824110E+02 -0.48962542592E+02  0.62499999542E+02  0.99999862914E+01 0.  0.
    3000022    2    3    3    0    0  0.99731588381E+01  0.69792585987E+01 -0.22220648679E+02  0.25337594090E+02  0.24999754372E+00 0.  0.
    1000022    2    1    0    0    0 -0.34680597025E+02 -0.14358824110E+02  0.48962542592E+02  0.62500000458E+02  0.99999920174E+01 0.  0.
    3000022    2    5    5    0    0 -0.19660952377E+02 -0.95303409885E+01  0.20603209749E+02  0.30032235923E+02  0.24998968093E+00 0.  0.
        -13    1    4    4    0    0  0.28702023795E+01  0.19767559436E+01 -0.62956652963E+01  0.71966695271E+01  0.10500000000E+00 0. -1.
         13    1    4    4    0    0  0.71029564587E+01  0.50025026551E+01 -0.15924983382E+02  0.18140924563E+02  0.10500000000E+00 0.  1.
    3000001    1    5    5    0    0 -0.15019644648E+02 -0.48284831215E+01  0.28359332843E+02  0.32467764535E+02  0.10000000000E+01 0. -1.
        -13    1    6    6    0    0 -0.45598773125E+01 -0.22027252581E+01  0.47863159172E+01  0.69688108546E+01  0.10500000000E+00 0. -1.
         13    1    6    6    0    0 -0.15101075065E+02 -0.73276157304E+01  0.15816893831E+02  0.23063425068E+02  0.10500000000E+00 0.  1.
</event>
<event>
11    0  0.3467594E-009  0.9118800E+02  0.7816531E-02  0.1126479E+00
         25   -1    0    0    0    0  0.00000000000E+00  0.00000000000E+00  0.99999998245E-14  0.12500000000E+03  0.12500000000E+03 0.  0.
    3000001    1    3    3    0    0 -0.52044337646E+02  0.10896893178E+02  0.19357429512E+02  0.56595630920E+02  0.10000000000E+01 0. -1.
    1000022    2    1    0    0    0 -0.57053681972E+02  0.13973069804E+02  0.18864799131E+02  0.62500000403E+02  0.10000004888E+02 0.  0.
    3000022    2    3    3    0    0 -0.50093443263E+01  0.30761766260E+01 -0.49263038132E+00  0.59043694827E+01  0.25000216132E+00 0.  0.
    1000022    2    1    0    0    0  0.57053681972E+02 -0.13973069804E+02 -0.18864799131E+02  0.62499999597E+02  0.99999998490E+01 0.  0.
    3000022    2    5    5    0    0  0.38666566840E+02 -0.50907284166E+01 -0.14392607308E+02  0.41571968368E+02  0.25000369783E+00 0.  0.
        -13    1    4    4    0    0 -0.33485861895E+01  0.20359414860E+01 -0.37909658506E+00  0.39386325575E+01  0.10500000000E+00 0.  1.
         13    1    4    4    0    0 -0.16607581369E+01  0.10402351401E+01 -0.11353379626E+00  0.19657369251E+01  0.10500000000E+00 0. -1.
    3000001    1    5    5    0    0  0.18387115133E+02 -0.88823413877E+01 -0.44721918232E+01  0.20928031229E+02  0.10000000000E+01 0.  1.
        -13    1    6    6    0    0  0.15872499937E+02 -0.20701085162E+01 -0.58422078419E+01  0.17040071038E+02  0.10500000000E+00 0. -1.
         13    1    6    6    0    0  0.22794066903E+02 -0.30206199004E+01 -0.85503994660E+01  0.24531897329E+02  0.10500000000E+00 0.  1.
</event>
<event>
11    0  0.3467594E-009  0.9118800E+02  0.7816531E-02  0.1126479E+00
         25   -1    0    0    0    0  0.00000000000E+00  0.00000000000E+00  0.99999998245E-14  0.12500000000E+03  0.12500000000E+03 0.  0.
    3000001    1    3    3    0    0  0.11152522255E+01  0.39086022484E+02  0.63958923672E+01  0.39634181968E+02  0.10000000000E+01 0. -1.
    1000022    2    1    0    0    0 -0.30034573282E+01  0.59624874325E+02  0.15559678127E+02  0.62500000847E+02  0.10000006418E+02 0.  0.
    3000022    2    3    3    0    0 -0.41187095537E+01  0.20538851841E+02  0.91637857599E+01  0.22865818879E+02  0.25000046430E+00 0.  0.
    1000022    2    1    0    0    0  0.30034573282E+01 -0.59624874325E+02 -0.15559678127E+02  0.62499999153E+02  0.99999958247E+01 0.  0.
    3000022    2    5    5    0    0 -0.22886872752E+01 -0.48540482154E+01 -0.26330559015E+00  0.53788191929E+01  0.24998510877E+00 0.  0.
        -13    1    4    4    0    0 -0.24962377343E+01  0.12748849509E+02  0.56673604160E+01  0.14173720955E+02  0.10500000000E+00 0. -1.
         13    1    4    4    0    0 -0.16224718194E+01  0.77900023320E+01  0.34964253439E+01  0.86920979241E+01  0.10500000000E+00 0.  1.
    3000001    1    5    5    0    0  0.52921446035E+01 -0.54770826109E+02 -0.15296372537E+02  0.57121179960E+02  0.10000000000E+01 0. -1.
        -13    1    6    6    0    0 -0.13299469484E+01 -0.28936997708E+01 -0.10059299109E+00  0.31880089710E+01  0.10500000000E+00 0. -1.
         13    1    6    6    0    0 -0.95874032685E+00 -0.19603484446E+01 -0.16271259906E+00  0.21908102219E+01  0.10500000000E+00 0.  1.
</event>
<event>
11    0  0.3467594E-009  0.9118800E+02  0.7816531E-02  0.1126479E+00
         25   -1    0    0    0    0  0.00000000000E+00  0.00000000000E+00  0.99999998245E-14  0.12500000000E+03  0.12500000000E+03 0.  0.
    3000001    1    3    3    0    0  0.91023829390E+01  0.45769423131E+01 -0.84612021055E+01  0.13281329646E+02  0.10000000000E+01 0.  1.
    1000022    2    1    0    0    0  0.39245921686E+02  0.47171974870E+01 -0.47368306507E+02  0.62500003697E+02  0.99999839784E+01 0.  0.
    3000022    2    3    3    0    0  0.30143538747E+02  0.14025517387E+00 -0.38907104402E+02  0.49218674050E+02  0.25000521498E+00 0.  0.
    1000022    2    1    0    0    0 -0.39245921686E+02 -0.47171974870E+01  0.47368306507E+02  0.62499996303E+02  0.99999377695E+01 0.  0.
    3000022    2    5    5    0    0 -0.56498343673E+01 -0.17571722266E+01  0.26691746757E+01  0.64957891471E+01  0.25000116379E+00 0.  0.
        -13    1    4    4    0    0  0.17340757315E+02  0.11889078852E+00 -0.22468418930E+02  0.28382333827E+02  0.10500000000E+00 0.  1.
         13    1    4    4    0    0  0.12802781433E+02  0.21364385351E-01 -0.16438685472E+02  0.20836340223E+02  0.10500000000E+00 0. -1.
    3000001    1    5    5    0    0 -0.33596087319E+02 -0.29600252604E+01  0.44699131832E+02  0.56004207156E+02  0.10000000000E+01 0.  1.
        -13    1    6    6    0    0 -0.14591849424E+01 -0.47315450840E+00  0.66528753679E+00  0.16753293383E+01  0.10500000000E+00 0.  1.
         13    1    6    6    0    0 -0.41906494249E+01 -0.12840177182E+01  0.20038871389E+01  0.48204598088E+01  0.10500000000E+00 0. -1.
</event>
<event>
11    0  0.3467594E-009  0.9118800E+02  0.7816531E-02  0.1126479E+00
         25   -1    0    0    0    0  0.00000000000E+00  0.00000000000E+00  0.99999998245E-14  0.12500000000E+03  0.12500000000E+03 0.  0.
    3000001    1    3    3    0    0  0.52189842462E+02  0.15676928184E+02 -0.14821755448E+02  0.56482122552E+02  0.10000000000E+01 0. -1.
    1000022    2    1    0    0    0  0.57901235606E+02  0.14151453468E+02 -0.15919592672E+02  0.62499998763E+02  0.99999847256E+01 0.  0.
    3000022    2    3    3    0    0  0.57113931445E+01 -0.15254747158E+01 -0.10978372239E+01  0.60178762103E+01  0.25000550531E+00 0.  0.
    1000022    2    1    0    0    0 -0.57901235606E+02 -0.14151453468E+02  0.15919592672E+02  0.62500001237E+02  0.10000000193E+02 0.  0.
    3000022    2    5    5    0    0 -0.11004139254E+02 -0.11241946555E+01 -0.62635539070E+00  0.11081954642E+02  0.25000651732E+00 0.  0.
        -13    1    4    4    0    0  0.30943588348E+01 -0.89570952595E+00 -0.59951355046E+00  0.32783827797E+01  0.10500000000E+00 0.  1.
         13    1    4    4    0    0  0.26170343097E+01 -0.62976518989E+00 -0.49832367341E+00  0.27394934306E+01  0.10500000000E+00 0. -1.
    3000001    1    5    5    0    0 -0.46897096352E+02 -0.13027258813E+02  0.16545948063E+02  0.51418046595E+02  0.10000000000E+01 0. -1.
        -13    1    6    6    0    0 -0.75973181362E+01 -0.72752435230E+00 -0.43465860623E+00  0.76451610611E+01  0.10500000000E+00 0. -1.
         13    1    6    6    0    0 -0.34068211183E+01 -0.39667030325E+00 -0.19169678447E+00  0.34367935810E+01  0.10500000000E+00 0.  1.
</event>
<event>
11    0  0.3467594E-009  0.9118800E+02  0.7816531E-02  0.1126479E+00
         25   -1    0    0    0    0  0.00000000000E+00  0.00000000000E+00  0.99999998245E-14  0.12500000000E+03  0.12500000000E+03 0.  0.
    3000001    1    3    3    0    0  0.35633578754E+02 -0.54331094990E+01 -0.13438876611E+02  0.38482125957E+02  0.10000000000E+01 0.  1.
    1000022    2    1    0    0    0  0.54178330251E+02 -0.73762609414E+01 -0.28575327426E+02  0.62500000305E+02  0.10000000316E+02 0.  0.
    3000022    2    3    3    0    0  0.18544751498E+02 -0.19431514424E+01 -0.15136450815E+02  0.24017874348E+02  0.24999853794E+00 0.  0.
    1000022    2    1    0    0    0 -0.54178330251E+02  0.73762609414E+01  0.28575327426E+02  0.62499999695E+02  0.99999965036E+01 0.  0.
    3000022    2    5    5    0    0 -0.42552479049E+02  0.98002916430E+01  0.22436575914E+02  0.49094008082E+02  0.25000246772E+00 0.  0.
        -13    1    4    4    0    0  0.94044163340E+01 -0.97087502491E+00 -0.75894352257E+01  0.12124198817E+02  0.10500000000E+00 0.  1.
         13    1    4    4    0    0  0.91403351636E+01 -0.97227641744E+00 -0.75470155896E+01  0.11893675531E+02  0.10500000000E+00 0. -1.
    3000001    1    5    5    0    0 -0.11625851202E+02 -0.24240307016E+01  0.61387515116E+01  0.13405991613E+02  0.10000000000E+01 0.  1.
        -13    1    6    6    0    0 -0.29858405039E+02  0.69019331764E+01  0.15703331773E+02  0.34434963145E+02  0.10500000000E+00 0. -1.
         13    1    6    6    0    0 -0.12694074011E+02  0.28983584666E+01  0.67332441413E+01  0.14659044937E+02  0.10500000000E+00 0.  1.
</event>
<event>
11    0  0.3467594E-009  0.9118800E+02  0.7816531E-02  0.1126479E+00
         25   -1    0    0    0    0  0.00000000000E+00  0.00000000000E+00  0.99999998245E-14  0.12500000000E+03  0.12500000000E+03 0.  0.
    3000001    1    3    3    0    0 -0.21059649099E+01 -0.81868281632E+00 -0.17575378719E+02  0.17748218696E+02  0.10000000000E+01 0.  1.
    1000022    2    1    0    0    0 -0.19065305921E+02  0.68267448575E+01 -0.58276579655E+02  0.62500001692E+02  0.10000007001E+02 0.  0.
    3000022    2    3    3    0    0 -0.16959341011E+02  0.76454276738E+01 -0.40701200936E+02  0.44751782996E+02  0.25002375562E+00 0.  0.
    1000022    2    1    0    0    0  0.19065305921E+02 -0.68267448575E+01  0.58276579655E+02  0.62499998308E+02  0.99999858541E+01 0.  0.
    3000022    2    5    5    0    0  0.18538307793E+02 -0.85742233253E+01  0.54232488011E+02  0.57951802485E+02  0.24998793590E+00 0.  0.
        -13    1    4    4    0    0 -0.59083067684E+01  0.26090512595E+01 -0.14194274335E+02  0.15594989139E+02  0.10500000000E+00 0. -1.
         13    1    4    4    0    0 -0.11051034242E+02  0.50363764143E+01 -0.26506926600E+02  0.29156793857E+02  0.10500000000E+00 0.  1.
    3000001    1    5    5    0    0  0.52699812801E+00  0.17474784678E+01  0.40440916435E+01  0.45481958229E+01  0.10000000000E+01 0. -1.
        -13    1    6    6    0    0  0.61200213372E+01 -0.28449148763E+01  0.18066592059E+02  0.19286289831E+02  0.10500000000E+00 0.  1.
         13    1    6    6    0    0  0.12418286455E+02 -0.57293084490E+01  0.36165895952E+02  0.38665512654E+02  0.10500000000E+00 0. -1.
</event>
<event>
11    0  0.3467594E-009  0.9118800E+02  0.7816531E-02  0.1126479E+00
         25   -1    0    0    0    0  0.00000000000E+00  0.00000000000E+00  0.99999998245E-14  0.12500000000E+03  0.12500000000E+03 0.  0.
    3000001    1    3    3    0    0 -0.46310288598E+02  0.13635589108E+02  0.35380296727E+02  0.59860984931E+02  0.10000000000E+01 0. -1.
    1000022    2    1    0    0    0 -0.47716664107E+02  0.12272741472E+02  0.37131500540E+02  0.62500011984E+02  0.10000147449E+02 0.  0.
    3000022    2    3    3    0    0 -0.14063755082E+01 -0.13628476362E+01  0.17512038130E+01  0.26390270537E+01  0.25000649189E+00 0.  0.
    1000022    2    1    0    0    0  0.47716664107E+02 -0.12272741472E+02 -0.37131500540E+02  0.62499988016E+02  0.99999976448E+01 0.  0.
    3000022    2    5    5    0    0  0.34265492003E+02 -0.78772052866E+01 -0.20737551882E+02  0.40820128193E+02  0.25000464113E+00 0.  0.
        -13    1    4    4    0    0 -0.44034507774E+00 -0.45029775391E+00  0.63285721809E+00  0.89900228763E+00  0.10500000000E+00 0. -1.
         13    1    4    4    0    0 -0.96603043046E+00 -0.91254988228E+00  0.11183465949E+01  0.17400247661E+01  0.10500000000E+00 0.  1.
    3000001    1    5    5    0    0  0.13451172104E+02 -0.43955361852E+01 -0.16393948658E+02  0.21679859822E+02  0.10000000000E+01 0. -1.
        -13    1    6    6    0    0  0.10999099449E+02 -0.25724787154E+01 -0.66304191955E+01  0.13098523548E+02  0.10500000000E+00 0.  1.
         13    1    6    6    0    0  0.23266392554E+02 -0.53047265712E+01 -0.14107132687E+02  0.27721604645E+02  0.10500000000E+00 0. -1.
</event>
<event>
11    0  0.3467594E-009  0.9118800E+02  0.7816531E-02  0.1126479E+00
         25   -1    0    0    0    0  0.00000000000E+00  0.00000000000E+00  0.99999998245E-14  0.12500000000E+03  0.12500000000E+03 0.  0.
    3000001    1    3    3    0    0 -0.38917621365E+01  0.20177605682E+02  0.12055966647E+01  0.20609101070E+02  0.10000000000E+01 0. -1.
    1000022    2    1    0    0    0 -0.22224064534E+02  0.57342593031E+02 -0.49161049320E+01  0.62499999091E+02  0.99999889345E+01 0.  0.
    3000022    2    3    3    0    0 -0.18332302398E+02  0.37164987349E+02 -0.61217015966E+01  0.41890898021E+02  0.25002141420E+00 0.  0.
    1000022    2    1    0    0    0  0.22224064534E+02 -0.57342593031E+02  0.49161049320E+01  0.62500000909E+02  0.10000000298E+02 0.  0.
    3000022    2    5    5    0    0  0.21209306012E+02 -0.43946033758E+02  0.47404097427E+01  0.49026753193E+02  0.24999909335E+00 0.  0.
        -13    1    4    4    0    0 -0.12944974610E+02  0.26271510130E+02 -0.43689945001E+01  0.29611885284E+02  0.10500000000E+00 0.  1.
         13    1    4    4    0    0 -0.53873277878E+01  0.10893477219E+02 -0.17527070966E+01  0.12279012737E+02  0.10500000000E+00 0. -1.
    3000001    1    5    5    0    0  0.10147585221E+01 -0.13396559273E+02  0.17569518927E+00  0.13473247716E+02  0.10000000000E+01 0.  1.
        -13    1    6    6    0    0  0.12902914135E+02 -0.26639900852E+02  0.29224437950E+01  0.29744263537E+02  0.10500000000E+00 0.  1.
         13    1    6    6    0    0  0.83063918768E+01 -0.17306132906E+02  0.18179659477E+01  0.19282489657E+02  0.10500000000E+00 0. -1.
</event>
<event>
11    0  0.3467594E-009  0.9118800E+02  0.7816531E-02  0.1126479E+00
         25   -1    0    0    0    0  0.00000000000E+00  0.00000000000E+00  0.99999998245E-14  0.12500000000E+03  0.12500000000E+03 0.  0.
    3000001    1    3    3    0    0 -0.10361419124E+02 -0.14359226098E+02  0.33146607254E+02  0.37593137045E+02  0.10000000000E+01 0.  1.
    1000022    2    1    0    0    0 -0.24413676415E+02 -0.21304892294E+02  0.52500704408E+02  0.62499999386E+02  0.99999964095E+01 0.  0.
    3000022    2    3    3    0    0 -0.14052257291E+02 -0.69456661955E+01  0.19354097154E+02  0.24906862341E+02  0.25000236463E+00 0.  0.
    1000022    2    1    0    0    0  0.24413676415E+02  0.21304892294E+02 -0.52500704408E+02  0.62500000614E+02  0.10000004079E+02 0.  0.
    3000022    2    5    5    0    0 -0.42229836376E+00  0.24816201510E+01 -0.60252936059E+01  0.65347879665E+01  0.25003249325E+00 0.  0.
        -13    1    4    4    0    0 -0.72164640796E+01 -0.34943605708E+01  0.99296724540E+01  0.12763123820E+02  0.10500000000E+00 0.  1.
         13    1    4    4    0    0 -0.68357932114E+01 -0.34513056248E+01  0.94244246999E+01  0.12143738521E+02  0.10500000000E+00 0. -1.
    3000001    1    5    5    0    0  0.24835974779E+02  0.18823272143E+02 -0.46475410802E+02  0.55965212647E+02  0.10000000000E+01 0.  1.
        -13    1    6    6    0    0 -0.23867976187E+00  0.10288409703E+01 -0.24862716150E+01  0.27033411391E+01  0.10500000000E+00 0.  1.
         13    1    6    6    0    0 -0.18361860188E+00  0.14527791807E+01 -0.35390219909E+01  0.38314468273E+01  0.10500000000E+00 0. -1.
</event>
<event>
11    0  0.3467594E-009  0.9118800E+02  0.7816531E-02  0.1126479E+00
         25   -1    0    0    0    0  0.00000000000E+00  0.00000000000E+00  0.99999998245E-14  0.12500000000E+03  0.12500000000E+03 0.  0.
    3000001    1    3    3    0    0 -0.40747557194E+02  0.32830998936E+02 -0.27704107579E+02  0.59217864578E+02  0.10000000000E+01 0. -1.
    1000022    2    1    0    0    0 -0.40909002264E+02  0.35654874570E+02 -0.29350187779E+02  0.62500000263E+02  0.99999981666E+01 0.  0.
    3000022    2    3    3    0    0 -0.16144506991E+00  0.28238756338E+01 -0.16460802003E+01  0.32821356848E+01  0.24999304294E+00 0.  0.
    1000022    2    1    0    0    0  0.40909002264E+02 -0.35654874570E+02  0.29350187779E+02  0.62499999737E+02  0.99999948798E+01 0.  0.
    3000022    2    5    5    0    0  0.11425288027E+02 -0.16259396565E+02  0.10428480855E+02  0.22443727255E+02  0.24999394942E+00 0.  0.
        -13    1    4    4    0    0 -0.32063421514E-01  0.15252901439E+01 -0.84240495842E+00  0.17459121398E+01  0.10500000000E+00 0. -1.
         13    1    4    4    0    0 -0.12938164840E+00  0.12985854900E+01 -0.80367524189E+00  0.15362235450E+01  0.10500000000E+00 0.  1.
    3000001    1    5    5    0    0  0.29483714237E+02 -0.19395478005E+02  0.18921706924E+02  0.40056272482E+02  0.10000000000E+01 0. -1.
        -13    1    6    6    0    0  0.69695111997E+01 -0.10024062103E+02  0.63960371683E+01  0.13783186274E+02  0.10500000000E+00 0.  1.
         13    1    6    6    0    0  0.44557768275E+01 -0.62353344621E+01  0.40324436868E+01  0.86605409806E+01  0.10500000000E+00 0. -1.
</event>
<event>
11    0  0.3467594E-009  0.9118800E+02  0.7816531E-02  0.1126479E+00
         25   -1    0    0    0    0  0.00000000000E+00  0.00000000000E+00  0.99999998245E-14  0.12500000000E+03  0.12500000000E+03 0.  0.
    3000001    1    3    3    0    0 -0.20226319104E+00  0.12244633356E+01  0.10681811635E+01  0.19186536573E+01  0.10000000000E+01 0.  1.
    1000022    2    1    0    0    0  0.85906687417E+01  0.61005152845E+02 -0.32896290301E+01  0.62499999786E+02  0.10000002549E+02 0.  0.
    3000022    2    3    3    0    0  0.87929319328E+01  0.59780689510E+02 -0.43578101937E+01  0.60581346129E+02  0.24999769677E+00 0.  0.
    1000022    2    1    0    0    0 -0.85906687417E+01 -0.61005152845E+02  0.32896290301E+01  0.62500000214E+02  0.10000005225E+02 0.  0.
    3000022    2    5    5    0    0 -0.62341835491E+01 -0.32404447390E+02  0.64083178141E+01  0.33616101676E+02  0.24999908007E+00 0.  0.
        -13    1    4    4    0    0  0.30491127249E+01  0.20986856420E+02 -0.15722027048E+01  0.21265654873E+02  0.10500000000E+00 0. -1.
         13    1    4    4    0    0  0.57438192079E+01  0.38793833089E+02 -0.27856074888E+01  0.39315691256E+02  0.10500000000E+00 0.  1.
    3000001    1    5    5    0    0 -0.23564851927E+01 -0.28600705455E+02 -0.31186887840E+01  0.28883898538E+02  0.10000000000E+01 0. -1.
        -13    1    6    6    0    0 -0.34701962164E+01 -0.18177633495E+02  0.35321019019E+01  0.18840259821E+02  0.10500000000E+00 0. -1.
         13    1    6    6    0    0 -0.27639873326E+01 -0.14226813894E+02  0.28762159122E+01  0.14775841855E+02  0.10500000000E+00 0.  1.
</event>
<event>
11    0  0.3467594E-009  0.9118800E+02  0.7816531E-02  0.1126479E+00
         25   -1    0    0    0    0  0.00000000000E+00  0.00000000000E+00  0.99999998245E-14  0.12500000000E+03  0.12500000000E+03 0.  0.
    3000001    1    3    3    0    0 -0.41188037311E+01  0.44566351192E+01 -0.71459606499E+01  0.94281967719E+01  0.10000000000E+01 0. -1.
    1000022    2    1    0    0    0 -0.40924473141E+02  0.11298900873E+02 -0.44763512862E+02  0.62500003326E+02  0.10000033458E+02 0.  0.
    3000022    2    3    3    0    0 -0.36805669410E+02  0.68422657536E+01 -0.37617552212E+02  0.53071806554E+02  0.25003018627E+00 0.  0.
    1000022    2    1    0    0    0  0.40924473141E+02 -0.11298900873E+02  0.44763512862E+02  0.62499996674E+02  0.99999918889E+01 0.  0.
    3000022    2    5    5    0    0  0.16478465259E+02 -0.16332861465E+01  0.23090619034E+02  0.28415605287E+02  0.24999100323E+00 0.  0.
        -13    1    4    4    0    0 -0.11663569302E+02  0.22190699238E+01 -0.11924020171E+02  0.16827251773E+02  0.10500000000E+00 0.  1.
         13    1    4    4    0    0 -0.25142100109E+02  0.46231958298E+01 -0.25693532040E+02  0.36244554781E+02  0.10500000000E+00 0. -1.
    3000001    1    5    5    0    0  0.24446007883E+02 -0.96656147262E+01  0.21672893827E+02  0.34084391388E+02  0.10000000000E+01 0. -1.
        -13    1    6    6    0    0  0.69524735814E+01 -0.73437449376E+00  0.96685464625E+01  0.11931806674E+02  0.10500000000E+00 0. -1.
         13    1    6    6    0    0  0.95259916774E+01 -0.89891165279E+00  0.13422072572E+02  0.16483798613E+02  0.10500000000E+00 0.  1.
</event>
<event>
11    0  0.3467594E-009  0.9118800E+02  0.7816531E-02  0.1126479E+00
         25   -1    0    0    0    0  0.00000000000E+00  0.00000000000E+00  0.99999998245E-14  0.12500000000E+03  0.12500000000E+03 0.  0.
    3000001    1    3    3    0    0 -0.53566464649E+01 -0.41436866200E+01 -0.20717298990E+01  0.71523328313E+01  0.10000000000E+01 0.  1.
    1000022    2    1    0    0    0 -0.39733753330E+02 -0.24024631692E+02 -0.40623831751E+02  0.62500002265E+02  0.10000024770E+02 0.  0.
    3000022    2    3    3    0    0 -0.34377106865E+02 -0.19880945072E+02 -0.38552101852E+02  0.55347669434E+02  0.25000241655E+00 0.  0.
    1000022    2    1    0    0    0  0.39733753330E+02  0.24024631692E+02  0.40623831751E+02  0.62499997735E+02  0.99999964565E+01 0.  0.
    3000022    2    5    5    0    0  0.54639746112E+01  0.34936152527E+01  0.16876791725E+01  0.67060523012E+01  0.25002078181E+00 0.  0.
        -13    1    4    4    0    0 -0.19220204726E+02 -0.11126292333E+02 -0.21650945458E+02  0.31015884882E+02  0.10500000000E+00 0. -1.
         13    1    4    4    0    0 -0.15156902139E+02 -0.87546527384E+01 -0.16901156394E+02  0.24331784552E+02  0.10500000000E+00 0.  1.
    3000001    1    5    5    0    0  0.34269778719E+02  0.20531016439E+02  0.38936152578E+02  0.55793945434E+02  0.10000000000E+01 0. -1.
        -13    1    6    6    0    0  0.21488022920E+01  0.14478720978E+01  0.66454704595E+00  0.26770006870E+01  0.10500000000E+00 0. -1.
         13    1    6    6    0    0  0.33151723192E+01  0.20457431549E+01  0.10231321266E+01  0.40290516143E+01  0.10500000000E+00 0.  1.
</event>
<event>
11    0  0.3467594E-009  0.9118800E+02  0.7816531E-02  0.1126479E+00
         25   -1    0    0    0    0  0.00000000000E+00  0.00000000000E+00  0.99999998245E-14  0.12500000000E+03  0.12500000000E+03 0.  0.
    3000001    1    3    3    0    0 -0.12886830072E+01  0.19940737030E+01  0.21624405438E+00  0.25853037185E+01  0.10000000000E+01 0. -1.
    1000022    2    1    0    0    0 -0.11391469934E+02  0.51780788942E+02 -0.31547337037E+02  0.62500000640E+02  0.99999957604E+01 0.  0.
    3000022    2    3    3    0    0 -0.10102786927E+02  0.49786715239E+02 -0.31763581091E+02  0.59914696922E+02  0.25001101911E+00 0.  0.
    1000022    2    1    0    0    0  0.11391469934E+02 -0.51780788942E+02  0.31547337037E+02  0.62499999360E+02  0.99999877592E+01 0.  0.
    3000022    2    5    5    0    0  0.60556386041E+01 -0.27549155859E+02  0.22458965524E+02  0.36056821893E+02  0.25005020612E+00 0.  0.
        -13    1    4    4    0    0 -0.46246232584E+01  0.22942142548E+02 -0.14562441445E+02  0.27564556424E+02  0.10500000000E+00 0.  1.
         13    1    4    4    0    0 -0.54781636685E+01  0.26844572690E+02 -0.17201139646E+02  0.32350140498E+02  0.10500000000E+00 0. -1.
    3000001    1    5    5    0    0  0.53358313299E+01 -0.24231633082E+02  0.90883715128E+01  0.26443177467E+02  0.10000000000E+01 0. -1.
        -13    1    6    6    0    0  0.39548440238E+01 -0.18082197819E+02  0.14671044110E+02  0.23619001450E+02  0.10500000000E+00 0. -1.
         13    1    6    6    0    0  0.21007945804E+01 -0.94669580401E+01  0.77879214142E+01  0.12437820442E+02  0.10500000000E+00 0.  1.
</event>
<event>
11    0  0.3467594E-009  0.9118800E+02  0.7816531E-02  0.1126479E+00
         25   -1    0    0    0    0  0.00000000000E+00  0.00000000000E+00  0.99999998245E-14  0.12500000000E+03  0.12500000000E+03 0.  0.
    3000001    1    3    3    0    0 -0.10861878922E+02  0.61871765237E+00 -0.39400828828E+02  0.40887510777E+02  0.10000000000E+01 0. -1.
    1000022    2    1    0    0    0 -0.20710626915E+02 -0.45174667175E+01 -0.57938868146E+02  0.62499999794E+02  0.99999979729E+01 0.  0.
    3000022    2    3    3    0    0 -0.98487479928E+01 -0.51361843699E+01 -0.18538039318E+02  0.21612489017E+02  0.25010562484E+00 0.  0.
    1000022    2    1    0    0    0  0.20710626915E+02  0.45174667175E+01  0.57938868146E+02  0.62500000206E+02  0.10000000550E+02 0.  0.
    3000022    2    5    5    0    0  0.21496919256E+02  0.35065835190E+01  0.54666654513E+02  0.58846574068E+02  0.24999684139E+00 0.  0.
        -13    1    4    4    0    0 -0.51633985385E+01 -0.26386827160E+01 -0.97699890059E+01  0.11361647817E+02  0.10500000000E+00 0. -1.
         13    1    4    4    0    0 -0.46853494543E+01 -0.24975016539E+01 -0.87680503122E+01  0.10250841200E+02  0.10500000000E+00 0.  1.
    3000001    1    5    5    0    0 -0.78629234145E+00  0.10108831986E+01  0.32722136328E+01  0.36534261380E+01  0.10000000000E+01 0.  1.
        -13    1    6    6    0    0  0.56972240534E+01  0.92975673426E+00  0.14398317142E+02  0.15512748661E+02  0.10500000000E+00 0. -1.
         13    1    6    6    0    0  0.15799695203E+02  0.25768267847E+01  0.40268337371E+02  0.43333825407E+02  0.10500000000E+00 0.  1.
</event>
<event>
11    0  0.3467594E-009  0.9118800E+02  0.7816531E-02  0.1126479E+00
         25   -1    0    0    0    0  0.00000000000E+00  0.00000000000E+00  0.99999998245E-14  0.12500000000E+03  0.12500000000E+03 0.  0.
    3000001    1    3    3    0    0  0.75887767783E+01  0.21297113109E+02  0.16445268008E+02  0.27975049591E+02  0.10000000000E+01 0.  1.
    1000022    2    1    0    0    0  0.11050076740E+02  0.53135697358E+02  0.29338430573E+02  0.62499999750E+02  0.99999965282E+01 0.  0.
    3000022    2    3    3    0    0  0.34612999620E+01  0.31838584249E+02  0.12893162564E+02  0.34524950158E+02  0.24999624821E+00 0.  0.
    1000022    2    1    0    0    0 -0.11050076740E+02 -0.53135697358E+02 -0.29338430573E+02  0.62500000250E+02  0.99999996572E+01 0.  0.
    3000022    2    5    5    0    0  0.18083834779E+01 -0.42746443333E+01 -0.26650744710E+01  0.53579804436E+01  0.24999503821E+00 0.  0.
        -13    1    4    4    0    0  0.18956214801E+01  0.17891870035E+02  0.72906850054E+01  0.19413333227E+02  0.10500000000E+00 0.  1.
         13    1    4    4    0    0  0.15656784818E+01  0.13946714214E+02  0.56024775588E+01  0.15111616931E+02  0.10500000000E+00 0. -1.
    3000001    1    5    5    0    0 -0.12858460218E+02 -0.48861053025E+02 -0.26673356102E+02  0.57142019807E+02  0.10000000000E+01 0.  1.
        -13    1    6    6    0    0  0.13832921809E+01 -0.32921829377E+01 -0.20498527175E+01  0.41188453377E+01  0.10500000000E+00 0.  1.
         13    1    6    6    0    0  0.42509129701E+00 -0.98246139564E+00 -0.61522175348E+00  0.12391351059E+01  0.10500000000E+00 0. -1.
</event>
<event>
11    0  0.3467594E-009  0.9118800E+02  0.7816531E-02  0.1126479E+00
         25   -1    0    0    0    0  0.00000000000E+00  0.00000000000E+00  0.99999998245E-14  0.12500000000E+03  0.12500000000E+03 0.  0.
    3000001    1    3    3    0    0 -0.28853157139E+02 -0.11146900535E+02 -0.36071987748E+01  0.31157181378E+02  0.10000000000E+01 0. -1.
    1000022    2    1    0    0    0 -0.53538327036E+02 -0.30458515714E+02 -0.34895241210E+01  0.62500002604E+02  0.99999952789E+01 0.  0.
    3000022    2    3    3    0    0 -0.24685169897E+02 -0.19311615179E+02  0.11767465383E+00  0.31342821226E+02  0.25000280988E+00 0.  0.
    1000022    2    1    0    0    0  0.53538327036E+02  0.30458515714E+02  0.34895241210E+01  0.62499997396E+02  0.99999627313E+01 0.  0.
    3000022    2    5    5    0    0  0.25038004797E+02  0.95909329439E+01  0.42865073327E+01  0.27153716678E+02  0.25001070279E+00 0.  0.
        -13    1    4    4    0    0 -0.72940615628E+01 -0.56953990623E+01 -0.89287519603E-02  0.92548370749E+01  0.10500000000E+00 0. -1.
         13    1    4    4    0    0 -0.17391108334E+02 -0.13616216117E+02  0.12660340579E+00  0.22087984151E+02  0.10500000000E+00 0.  1.
    3000001    1    5    5    0    0  0.28500322239E+02  0.20867582770E+02 -0.79698321170E+00  0.35346280718E+02  0.10000000000E+01 0. -1.
        -13    1    6    6    0    0  0.15505207108E+02  0.59390221543E+01  0.25927268925E+01  0.16805257789E+02  0.10500000000E+00 0. -1.
         13    1    6    6    0    0  0.95327976889E+01  0.36519107896E+01  0.16937804402E+01  0.10348458889E+02  0.10500000000E+00 0.  1.
</event>
<event>
11    0  0.3467594E-009  0.9118800E+02  0.7816531E-02  0.1126479E+00
         25   -1    0    0    0    0  0.00000000000E+00  0.00000000000E+00  0.99999998245E-14  0.12500000000E+03  0.12500000000E+03 0.  0.
    3000001    1    3    3    0    0  0.85551282944E+01  0.10026156075E+02  0.14613809047E+02  0.19704756802E+02  0.10000000000E+01 0. -1.
    1000022    2    1    0    0    0  0.38960407262E+02  0.26816000477E+02  0.39613618223E+02  0.62499999732E+02  0.10000000112E+02 0.  0.
    3000022    2    3    3    0    0  0.30405278967E+02  0.16789844402E+02  0.24999809176E+02  0.42795242930E+02  0.24998897055E+00 0.  0.
    1000022    2    1    0    0    0 -0.38960407262E+02 -0.26816000477E+02 -0.39613618223E+02  0.62500000268E+02  0.10000003458E+02 0.  0.
    3000022    2    5    5    0    0 -0.27357191391E+02 -0.13079123721E+02 -0.25445754577E+02  0.39585708617E+02  0.25000522887E+00 0.  0.
        -13    1    4    4    0    0  0.21953020701E+02  0.12153549768E+02  0.18094845677E+02  0.30936682998E+02  0.10500000000E+00 0.  1.
         13    1    4    4    0    0  0.84522582666E+01  0.46362946345E+01  0.69049634990E+01  0.11858559932E+02  0.10500000000E+00 0. -1.
    3000001    1    5    5    0    0 -0.11603215871E+02 -0.13736876756E+02 -0.14167863646E+02  0.22914291651E+02  0.10000000000E+01 0.  1.
        -13    1    6    6    0    0 -0.15000846827E+02 -0.71548223895E+01 -0.14031387866E+02  0.21751040421E+02  0.10500000000E+00 0.  1.
         13    1    6    6    0    0 -0.12356344565E+02 -0.59243013315E+01 -0.11414366711E+02  0.17834668196E+02  0.10500000000E+00 0. -1.
</event>
<event>
11    0  0.3467594E-009  0.9118800E+02  0.7816531E-02  0.1126479E+00
         25   -1    0    0    0    0  0.00000000000E+00  0.00000000000E+00  0.99999998245E-14  0.12500000000E+03  0.12500000000E+03 0.  0.
    3000001    1    3    3    0    0 -0.74139748708E+01  0.23609115024E+02 -0.19174368119E+02  0.31321138682E+02  0.10000000000E+01 0. -1.
    1000022    2    1    0    0    0 -0.57457308239E+01  0.45129418357E+02 -0.41672198510E+02  0.62499999433E+02  0.99999988297E+01 0.  0.
    3000022    2    3    3    0    0  0.16682440469E+01  0.21520303333E+02 -0.22497830391E+02  0.31178860751E+02  0.24998337326E+00 0.  0.
    1000022    2    1    0    0    0  0.57457308239E+01 -0.45129418357E+02  0.41672198510E+02  0.62500000567E+02  0.10000005912E+02 0.  0.
    3000022    2    5    5    0    0  0.16173279966E+01 -0.38752232735E+02  0.32979569038E+02  0.50912334128E+02  0.25000122984E+00 0.  0.
        -13    1    4    4    0    0  0.12593187177E+01  0.15823214549E+02 -0.16556170670E+02  0.22936386257E+02  0.10500000000E+00 0. -1.
         13    1    4    4    0    0  0.40892532924E+00  0.56970887841E+01 -0.59416597212E+01  0.82424744938E+01  0.10500000000E+00 0.  1.
    3000001    1    5    5    0    0  0.41284028273E+01 -0.63771856216E+01  0.86926294714E+01  0.11587666438E+02  0.10000000000E+01 0.  1.
        -13    1    6    6    0    0  0.44426458068E+00 -0.11734277770E+02  0.99984076250E+01  0.15423029075E+02  0.10500000000E+00 0. -1.
         13    1    6    6    0    0  0.11730634159E+01 -0.27017954965E+02  0.22981161413E+02  0.35489305054E+02  0.10500000000E+00 0.  1.
</event>
<event>
11    0  0.3467594E-009  0.9118800E+02  0.7816531E-02  0.1126479E+00
         25   -1    0    0    0    0  0.00000000000E+00  0.00000000000E+00  0.99999998245E-14  0.12500000000E+03  0.12500000000E+03 0.  0.
    3000001    1    3    3    0    0  0.36160447919E+01 -0.10582498032E+02 -0.23102856256E+01  0.11463091390E+02  0.10000000000E+01 0. -1.
    1000022    2    1    0    0    0  0.24438508835E+01 -0.56938160875E+02 -0.23628866027E+02  0.62499998494E+02  0.99999965527E+01 0.  0.
    3000022    2    3    3    0    0 -0.11721939084E+01 -0.46355662842E+02 -0.21318580401E+02  0.51036907104E+02  0.25000055436E+00 0.  0.
    1000022    2    1    0    0    0 -0.24438508835E+01  0.56938160875E+02  0.23628866027E+02  0.62500001506E+02  0.10000015383E+02 0.  0.
    3000022    2    5    5    0    0  0.28650609536E+01  0.65285165247E+01  0.35756010913E+01  0.79798197115E+01  0.24999436487E+00 0.  0.
        -13    1    4    4    0    0 -0.81249010997E+00 -0.31008845920E+02 -0.14211567514E+02  0.34120204303E+02  0.10500000000E+00 0. -1.
         13    1    4    4    0    0 -0.35970379842E+00 -0.15346816923E+02 -0.71070128869E+01  0.16916702801E+02  0.10500000000E+00 0.  1.
    3000001    1    5    5    0    0 -0.53089118371E+01  0.50409644350E+02  0.20053264935E+02  0.54520181795E+02  0.10000000000E+01 0.  1.
        -13    1    6    6    0    0  0.18204448630E+01  0.41883633201E+01  0.23520869837E+01  0.51380682148E+01  0.10500000000E+00 0. -1.
         13    1    6    6    0    0  0.10446160906E+01  0.23401532046E+01  0.12235141076E+01  0.28417514967E+01  0.10500000000E+00 0. -1.
</event>
<event>
11    0  0.3467594E-009  0.9118800E+02  0.7816531E-02  0.1126479E+00
         25   -1    0    0    0    0  0.00000000000E+00  0.00000000000E+00  0.99999998245E-14  0.12500000000E+03  0.12500000000E+03 0.  0.
    3000001    1    3    3    0    0 -0.66278301413E+01 -0.40859320081E+02  0.29368941227E+01  0.41509487072E+02  0.10000000000E+01 0.  1.
    1000022    2    1    0    0    0 -0.88674801534E+01 -0.60014495360E+02  0.11219549755E+02  0.62500000590E+02  0.99999959779E+01 0.  0.
    3000022    2    3    3    0    0 -0.22396500121E+01 -0.19155175278E+02  0.82826556323E+01  0.20990513518E+02  0.25000265417E+00 0.  0.
    1000022    2    1    0    0    0  0.88674801534E+01  0.60014495360E+02 -0.11219549755E+02  0.62499999410E+02  0.99999885979E+01 0.  0.
    3000022    2    5    5    0    0  0.64835337667E+01  0.54724162832E+02 -0.77072179459E+01  0.55643812907E+02  0.24999709304E+00 0.  0.
        -13    1    4    4    0    0 -0.10676844070E+01 -0.90644492338E+01  0.38469135339E+01  0.99052490449E+01  0.10500000000E+00 0.  1.
         13    1    4    4    0    0 -0.11719656052E+01 -0.10090726045E+02  0.44357420984E+01  0.11085264474E+02  0.10500000000E+00 0. -1.
    3000001    1    5    5    0    0  0.23839463868E+01  0.52903325275E+01 -0.35123318091E+01  0.68561865030E+01  0.10000000000E+01 0.  1.
        -13    1    6    6    0    0  0.21243894470E+01  0.17555690968E+02 -0.24989321501E+01  0.17859759315E+02  0.10500000000E+00 0. -1.
         13    1    6    6    0    0  0.43591443197E+01  0.37168471864E+02 -0.52082857958E+01  0.37784053592E+02  0.10500000000E+00 0.  1.
</event>
<event>
11    0  0.3467594E-009  0.9118800E+02  0.7816531E-02  0.1126479E+00
         25   -1    0    0    0    0  0.00000000000E+00  0.00000000000E+00  0.99999998245E-14  0.12500000000E+03  0.12500000000E+03 0.  0.
    3000001    1    3    3    0    0  0.42001838605E+02 -0.37644313740E+02 -0.88752850222E+01  0.57105336768E+02  0.10000000000E+01 0.  1.
    1000022    2    1    0    0    0  0.44495250882E+02 -0.42123424941E+02 -0.72138565334E+01  0.62499999837E+02  0.99999986827E+01 0.  0.
    3000022    2    3    3    0    0  0.24934122774E+01 -0.44791112013E+01  0.16614284887E+01  0.53946630689E+01  0.25000613092E+00 0.  0.
    1000022    2    1    0    0    0 -0.44495250882E+02  0.42123424941E+02  0.72138565334E+01  0.62500000163E+02  0.10000000723E+02 0.  0.
    3000022    2    5    5    0    0 -0.10341596349E+02  0.56486950752E+01 -0.10876874014E+01  0.11836466251E+02  0.24999665879E+00 0.  0.
        -13    1    4    4    0    0  0.12635386639E+01 -0.24027823145E+01  0.85945589125E+00  0.28494880655E+01  0.10500000000E+00 0.  1.
         13    1    4    4    0    0  0.12298736135E+01 -0.20763288867E+01  0.80197259750E+00  0.25451750035E+01  0.10500000000E+00 0.  1.
    3000001    1    5    5    0    0 -0.34153654534E+02  0.36474729866E+02  0.83015439349E+01  0.50663533912E+02  0.10000000000E+01 0. -1.
        -13    1    6    6    0    0 -0.27579827636E+01  0.15449717928E+01 -0.30199022156E+00  0.31773620912E+01  0.10500000000E+00 0.  1.
         13    1    6    6    0    0 -0.75836135852E+01  0.41037232824E+01 -0.78569717987E+00  0.86591041596E+01  0.10500000000E+00 0. -1.
</event>
<event>
11    0  0.3467594E-009  0.9118800E+02  0.7816531E-02  0.1126479E+00
         25   -1    0    0    0    0  0.00000000000E+00  0.00000000000E+00  0.99999998245E-14  0.12500000000E+03  0.12500000000E+03 0.  0.
    3000001    1    3    3    0    0 -0.28154064589E+01  0.16037524657E+01  0.39359048711E+01  0.51951787894E+01  0.10000000000E+01 0. -1.
    1000022    2    1    0    0    0 -0.51235550814E+02  0.26060670775E+02  0.22405569150E+02  0.62499997366E+02  0.99999956675E+01 0.  0.
    3000022    2    3    3    0    0 -0.48420144355E+02  0.24456918309E+02  0.18469664279E+02  0.57304818576E+02  0.25000190715E+00 0.  0.
    1000022    2    1    0    0    0  0.51235550814E+02 -0.26060670775E+02 -0.22405569150E+02  0.62500002634E+02  0.10000028597E+02 0.  0.
    3000022    2    5    5    0    0  0.31720362937E+02 -0.20586527642E+02 -0.17236469703E+02  0.41558933178E+02  0.24998764446E+00 0.  0.
        -13    1    4    4    0    0 -0.21230061817E+02  0.10704014183E+02  0.80278201338E+01  0.25094787616E+02  0.10500000000E+00 0. -1.
         13    1    4    4    0    0 -0.27190082537E+02  0.13752904126E+02  0.10441844145E+02  0.32210030960E+02  0.10500000000E+00 0.  1.
    3000001    1    5    5    0    0  0.19515187877E+02 -0.54741431333E+01 -0.51690994464E+01  0.20941069457E+02  0.10000000000E+01 0. -1.
        -13    1    6    6    0    0  0.23246512198E+02 -0.15045331855E+02 -0.12618660103E+02  0.30430312976E+02  0.10500000000E+00 0. -1.
         13    1    6    6    0    0  0.84738507391E+01 -0.55411957866E+01 -0.46178096007E+01  0.11128620202E+02  0.10500000000E+00 0.  1.
</event>
<event>
11    0  0.3467594E-009  0.9118800E+02  0.7816531E-02  0.1126479E+00
         25   -1    0    0    0    0  0.00000000000E+00  0.00000000000E+00  0.99999998245E-14  0.12500000000E+03  0.12500000000E+03 0.  0.
    3000001    1    3    3    0    0 -0.20397647474E+02  0.48457562518E+02 -0.95097964446E+01  0.53438147573E+02  0.10000000000E+01 0.  1.
    1000022    2    1    0    0    0 -0.26986284766E+02  0.54673436976E+02 -0.94236730570E+01  0.62499999144E+02  0.10000000143E+02 0.  0.
    3000022    2    3    3    0    0 -0.65886372922E+01  0.62158744583E+01  0.86123387569E-01  0.90618515709E+01  0.25000001158E+00 0.  0.
    1000022    2    1    0    0    0  0.26986284766E+02 -0.54673436976E+02  0.94236730570E+01  0.62500000856E+02  0.10000010843E+02 0.  0.
    3000022    2    5    5    0    0  0.23583275865E+02 -0.47618784016E+02  0.11426362473E+02  0.54353875221E+02  0.25000090369E+00 0.  0.
        -13    1    4    4    0    0 -0.30889091270E+01  0.28716001853E+01 -0.19636077549E-01  0.42188692555E+01  0.10500000000E+00 0.  1.
         13    1    4    4    0    0 -0.34997281652E+01  0.33442742730E+01  0.10575946512E+00  0.48429823155E+01  0.10500000000E+00 0. -1.
    3000001    1    5    5    0    0  0.34030089015E+01 -0.70546529599E+01 -0.20026894164E+01  0.81461256353E+01  0.10000000000E+01 0. -1.
        -13    1    6    6    0    0  0.88212615215E+01 -0.17678594114E+02  0.42577860139E+01  0.20211064085E+02  0.10500000000E+00 0.  1.
         13    1    6    6    0    0  0.14762014343E+02 -0.29940189902E+02  0.71685764594E+01  0.34142811136E+02  0.10500000000E+00 0. -1.
</event>
<event>
11    0  0.3467594E-009  0.9118800E+02  0.7816531E-02  0.1126479E+00
         25   -1    0    0    0    0  0.00000000000E+00  0.00000000000E+00  0.99999998245E-14  0.12500000000E+03  0.12500000000E+03 0.  0.
    3000001    1    3    3    0    0  0.93274358864E+01 -0.50358795090E+02 -0.15551952757E+02  0.53533844787E+02  0.10000000000E+01 0.  1.
    1000022    2    1    0    0    0  0.13959008225E+02 -0.56729047186E+02 -0.19829553929E+02  0.62500000319E+02  0.10000006280E+02 0.  0.
    3000022    2    3    3    0    0  0.46315723389E+01 -0.63702520962E+01 -0.42776011725E+01  0.89661555323E+01  0.24999828066E+00 0.  0.
    1000022    2    1    0    0    0 -0.13959008225E+02  0.56729047186E+02  0.19829553929E+02  0.62499999681E+02  0.10000002290E+02 0.  0.
    3000022    2    5    5    0    0 -0.98338698441E+01  0.29176115172E+02  0.59556237676E+01  0.31360526863E+02  0.24999606351E+00 0.  0.
        -13    1    4    4    0    0  0.23455799903E+01 -0.31252235526E+01 -0.21594033359E+01  0.44657379583E+01  0.10500000000E+00 0. -1.
         13    1    4    4    0    0  0.22859923485E+01 -0.32450285436E+01 -0.21181978366E+01  0.45004175741E+01  0.10500000000E+00 0.  1.
    3000001    1    5    5    0    0 -0.41251383811E+01  0.27552932014E+02  0.13873930162E+02  0.31139472818E+02  0.10000000000E+01 0. -1.
        -13    1    6    6    0    0 -0.41568085784E+01  0.12484445970E+02  0.25005915403E+01  0.13394193958E+02  0.10500000000E+00 0. -1.
         13    1    6    6    0    0 -0.56770612657E+01  0.16691669201E+02  0.34550322272E+01  0.17966332904E+02  0.10500000000E+00 0.  1.
</event>
<event>
11    0  0.3467594E-009  0.9118800E+02  0.7816531E-02  0.1126479E+00
         25   -1    0    0    0    0  0.00000000000E+00  0.00000000000E+00  0.99999998245E-14  0.12500000000E+03  0.12500000000E+03 0.  0.
    3000001    1    3    3    0    0  0.51420061457E+01  0.77088312857E+01 -0.42928941173E+01  0.10261347226E+02  0.10000000000E+01 0.  1.
    1000022    2    1    0    0    0  0.46443896802E+02  0.38540766197E+02 -0.12799377418E+02  0.62500002851E+02  0.10000004246E+02 0.  0.
    3000022    2    3    3    0    0  0.41301890656E+02  0.30831934911E+02 -0.85064833004E+01  0.52238655624E+02  0.25000242367E+00 0.  0.
    1000022    2    1    0    0    0 -0.46443896802E+02 -0.38540766197E+02  0.12799377418E+02  0.62499997149E+02  0.99999686124E+01 0.  0.
    3000022    2    5    5    0    0 -0.88655800174E+01 -0.86819311285E+01  0.67081659437E+01  0.14108026935E+02  0.24999303758E+00 0.  0.
        -13    1    4    4    0    0  0.14062725612E+02  0.10508269251E+02 -0.29523817961E+01  0.17802009930E+02  0.10500000000E+00 0. -1.
         13    1    4    4    0    0  0.27239165044E+02  0.20323665659E+02 -0.55541015043E+01  0.34436645694E+02  0.10500000000E+00 0.  1.
    3000001    1    5    5    0    0 -0.37578316784E+02 -0.29858835068E+02  0.60912114740E+01  0.48391970214E+02  0.10000000000E+01 0. -1.
        -13    1    6    6    0    0 -0.47695975572E+01 -0.45850369009E+01  0.36080699619E+01  0.75366317470E+01  0.10500000000E+00 0.  1.
         13    1    6    6    0    0 -0.40959824602E+01 -0.40968942276E+01  0.31000959818E+01  0.65713951885E+01  0.10500000000E+00 0. -1.
</event>
<event>
11    0  0.3467594E-009  0.9118800E+02  0.7816531E-02  0.1126479E+00
         25   -1    0    0    0    0  0.00000000000E+00  0.00000000000E+00  0.99999998245E-14  0.12500000000E+03  0.12500000000E+03 0.  0.
    3000001    1    3    3    0    0 -0.27959358082E+02  0.31351321314E+01  0.86413439068E+01  0.29448728026E+02  0.10000000000E+01 0. -1.
    1000022    2    1    0    0    0 -0.59527764706E+02 -0.35122048030E+01  0.15822755868E+02  0.62499999944E+02  0.10000001812E+02 0.  0.
    3000022    2    3    3    0    0 -0.31568406624E+02 -0.66473369344E+01  0.71814119611E+01  0.33051271917E+02  0.25002504116E+00 0.  0.
    1000022    2    1    0    0    0  0.59527764706E+02  0.35122048030E+01 -0.15822755868E+02  0.62500000056E+02  0.10000002518E+02 0.  0.
    3000022    2    5    5    0    0  0.39273015882E+02  0.64081758358E+01 -0.12748703065E+02  0.41785481023E+02  0.25000102211E+00 0.  0.
        -13    1    4    4    0    0 -0.11104802821E+02 -0.23794813866E+01  0.24870075023E+01  0.11626470172E+02  0.10500000000E+00 0. -1.
         13    1    4    4    0    0 -0.20463603803E+02 -0.42678555478E+01  0.46944044588E+01  0.21424801745E+02  0.10500000000E+00 0.  1.
    3000001    1    5    5    0    0  0.20254748824E+02 -0.28959710328E+01 -0.30740528033E+01  0.20714519033E+02  0.10000000000E+01 0.  1.
        -13    1    6    6    0    0  0.19933934307E+02  0.32046278609E+01 -0.65193612059E+01  0.21216608405E+02  0.10500000000E+00 0.  1.
         13    1    6    6    0    0  0.19339081575E+02  0.32035479749E+01 -0.62293418587E+01  0.20568872618E+02  0.10500000000E+00 0. -1.
</event>
<event>
11    0  0.3467594E-009  0.9118800E+02  0.7816531E-02  0.1126479E+00
         25   -1    0    0    0    0  0.00000000000E+00  0.00000000000E+00  0.99999998245E-14  0.12500000000E+03  0.12500000000E+03 0.  0.
    3000001    1    3    3    0    0 -0.82407263380E-01  0.84305519574E+01 -0.27884867071E+01  0.89362551093E+01  0.10000000000E+01 0. -1.
    1000022    2    1    0    0    0  0.52023472826E+01  0.47342615307E+02 -0.39215593791E+02  0.62499992121E+02  0.99999288669E+01 0.  0.
    3000022    2    3    3    0    0  0.52847545460E+01  0.38912063350E+02 -0.36427107084E+02  0.53563737012E+02  0.24997475530E+00 0.  0.
    1000022    2    1    0    0    0 -0.52023472826E+01 -0.47342615307E+02  0.39215593791E+02  0.62500007879E+02  0.10000027355E+02 0.  0.
    3000022    2    5    5    0    0 -0.24703548206E+00 -0.16478931981E+02  0.19484765308E+02  0.25521261873E+02  0.25000549190E+00 0.  0.
        -13    1    4    4    0    0  0.20803003106E+01  0.15378155550E+02 -0.14479779374E+02  0.21224758025E+02  0.10500000000E+00 0.  1.
         13    1    4    4    0    0  0.32044542354E+01  0.23533907800E+02 -0.21947327710E+02  0.32338978987E+02  0.10500000000E+00 0. -1.
    3000001    1    5    5    0    0 -0.49553118006E+01 -0.30863683326E+02  0.19730828483E+02  0.36978746006E+02  0.10000000000E+01 0.  1.
        -13    1    6    6    0    0 -0.11120749738E+00 -0.84824347698E+01  0.10131239985E+02  0.13214276952E+02  0.10500000000E+00 0.  1.
         13    1    6    6    0    0 -0.13582798468E+00 -0.79964972111E+01  0.93535253232E+01  0.12306984922E+02  0.10500000000E+00 0. -1.
</event>
<event>
11    0  0.3467594E-009  0.9118800E+02  0.7816531E-02  0.1126479E+00
         25   -1    0    0    0    0  0.00000000000E+00  0.00000000000E+00  0.99999998245E-14  0.12500000000E+03  0.12500000000E+03 0.  0.
    3000001    1    3    3    0    0 -0.14680945663E+02 -0.99617953259E+01 -0.15998587810E+02  0.23910716083E+02  0.10000000000E+01 0. -1.
    1000022    2    1    0    0    0 -0.41353868942E+02 -0.13997920746E+02 -0.43590893996E+02  0.62500002246E+02  0.99999989869E+01 0.  0.
    3000022    2    3    3    0    0 -0.26672923279E+02 -0.40361254200E+01 -0.27592306186E+02  0.38589286164E+02  0.25000259722E+00 0.  0.
    1000022    2    1    0    0    0  0.41353868942E+02  0.13997920746E+02  0.43590893996E+02  0.62499997754E+02  0.99999709108E+01 0.  0.
    3000022    2    5    5    0    0  0.54925040022E+01  0.56434674885E+01  0.91082173966E+01  0.12043190780E+02  0.24998902083E+00 0.  0.
        -13    1    4    4    0    0 -0.10162489894E+02 -0.15134641588E+01 -0.10429244794E+02  0.14640592425E+02  0.10500000000E+00 0.  1.
         13    1    4    4    0    0 -0.16510433385E+02 -0.25226612613E+01 -0.17163061392E+02  0.23948693738E+02  0.10500000000E+00 0. -1.
    3000001    1    5    5    0    0  0.35861364939E+02  0.83544532575E+01  0.34482676599E+02  0.50456806974E+02  0.10000000000E+01 0. -1.
        -13    1    6    6    0    0  0.19717834904E+01  0.20190334359E+01  0.33534583757E+01  0.43841913994E+01  0.10500000000E+00 0.  1.
         13    1    6    6    0    0  0.35207205117E+01  0.36244340526E+01  0.57547590209E+01  0.76589993806E+01  0.10500000000E+00 0. -1.
</event>
<event>
11    0  0.3467594E-009  0.9118800E+02  0.7816531E-02  0.1126479E+00
         25   -1    0    0    0    0  0.00000000000E+00  0.00000000000E+00  0.99999998245E-14  0.12500000000E+03  0.12500000000E+03 0.  0.
    3000001    1    3    3    0    0 -0.35873050337E+01  0.50893584036E+01  0.24537850418E+01  0.67669333820E+01  0.10000000000E+01 0. -1.
    1000022    2    1    0    0    0 -0.52239670023E+02  0.28594590161E+02  0.16112609252E+02  0.62499998235E+02  0.99999945928E+01 0.  0.
    3000022    2    3    3    0    0 -0.48652364989E+02  0.23505231757E+02  0.13658824210E+02  0.55733064853E+02  0.25000011503E+00 0.  0.
    1000022    2    1    0    0    0  0.52239670023E+02 -0.28594590161E+02 -0.16112609252E+02  0.62500001765E+02  0.10000016658E+02 0.  0.
    3000022    2    5    5    0    0  0.15997025215E+01 -0.31563973444E+01 -0.20704413463E+01  0.41074470873E+01  0.25000370676E+00 0.  0.
        -13    1    4    4    0    0 -0.26476337297E+02  0.12717719847E+02  0.74158073984E+01  0.30294257858E+02  0.10500000000E+00 0.  1.
         13    1    4    4    0    0 -0.22176027693E+02  0.10787511910E+02  0.62430168115E+01  0.25438806995E+02  0.10500000000E+00 0. -1.
    3000001    1    5    5    0    0  0.50639967502E+02 -0.25438192816E+02 -0.14042167905E+02  0.58392554678E+02  0.10000000000E+01 0. -1.
        -13    1    6    6    0    0  0.49673591635E+00 -0.10831105856E+01 -0.73046477559E+00  0.14015986942E+01  0.10500000000E+00 0. -1.
         13    1    6    6    0    0  0.11029666051E+01 -0.20732867588E+01 -0.13399765707E+01  0.27058483931E+01  0.10500000000E+00 0.  1.
</event>
<event>
11    0  0.3467594E-009  0.9118800E+02  0.7816531E-02  0.1126479E+00
         25   -1    0    0    0    0  0.00000000000E+00  0.00000000000E+00  0.99999998245E-14  0.12500000000E+03  0.12500000000E+03 0.  0.
    3000001    1    3    3    0    0 -0.80636273137E+01 -0.28677969859E+01  0.43893643842E+01  0.96702049981E+01  0.10000000000E+01 0.  1.
    1000022    2    1    0    0    0 -0.55010256042E+02 -0.26884634975E+02  0.75721824089E+01  0.62500000460E+02  0.10000012177E+02 0.  0.
    3000022    2    3    3    0    0 -0.46946628728E+02 -0.24016837989E+02  0.31828180247E+01  0.52829795462E+02  0.25000409341E+00 0.  0.
    1000022    2    1    0    0    0  0.55010256042E+02  0.26884634975E+02 -0.75721824089E+01  0.62499999540E+02  0.10000006427E+02 0.  0.
    3000022    2    5    5    0    0  0.26983530950E+01  0.14366687697E+01  0.18175717441E+01  0.35652758454E+01  0.24999645959E+00 0.  0.
        -13    1    4    4    0    0 -0.28642355655E+02 -0.14676980169E+02  0.18843008209E+01  0.32239105119E+02  0.10500000000E+00 0.  1.
         13    1    4    4    0    0 -0.18304273073E+02 -0.93398578204E+01  0.12985172038E+01  0.20590690342E+02  0.10500000000E+00 0. -1.
    3000001    1    5    5    0    0  0.52311902947E+02  0.25447966205E+02 -0.93897541530E+01  0.58934723695E+02  0.10000000000E+01 0.  1.
        -13    1    6    6    0    0  0.20751221244E+01  0.10925477317E+01  0.13994254857E+01  0.27329853764E+01  0.10500000000E+00 0. -1.
         13    1    6    6    0    0  0.62323097055E+00  0.34412103796E+00  0.41814625840E+00  0.83229046903E+00  0.10500000000E+00 0.  1.
</event>
<event>
11    0  0.3467594E-009  0.9118800E+02  0.7816531E-02  0.1126479E+00
         25   -1    0    0    0    0  0.00000000000E+00  0.00000000000E+00  0.99999998245E-14  0.12500000000E+03  0.12500000000E+03 0.  0.
    3000001    1    3    3    0    0  0.12266045986E+01 -0.20187247152E+02 -0.36454143648E+01  0.20574706615E+02  0.10000000000E+01 0. -1.
    1000022    2    1    0    0    0  0.11588794043E+02 -0.60594146386E+02  0.54679804324E+00  0.62499992538E+02  0.99999677802E+01 0.  0.
    3000022    2    3    3    0    0  0.10362189445E+02 -0.40406899234E+02  0.41922124080E+01  0.41925285923E+02  0.24995815902E+00 0.  0.
    1000022    2    1    0    0    0 -0.11588794043E+02  0.60594146386E+02 -0.54679804324E+00  0.62500007462E+02  0.10000061051E+02 0.  0.
    3000022    2    5    5    0    0 -0.10079769124E+02  0.44833426760E+02  0.36259321301E+01  0.46096071458E+02  0.25003875577E+00 0.  0.
        -13    1    4    4    0    0  0.52523597768E+01 -0.20210089137E+02  0.21059455823E+01  0.20987639647E+02  0.10500000000E+00 0.  1.
         13    1    4    4    0    0  0.51098296680E+01 -0.20196810097E+02  0.20862668257E+01  0.20937646277E+02  0.10500000000E+00 0. -1.
    3000001    1    5    5    0    0 -0.15090249195E+01  0.15760719625E+02 -0.41727301733E+01  0.16403936004E+02  0.10000000000E+01 0. -1.
        -13    1    6    6    0    0 -0.76360660047E+01  0.34018670709E+02  0.27677441210E+01  0.34975003836E+02  0.10500000000E+00 0. -1.
         13    1    6    6    0    0 -0.24437031193E+01  0.10814756052E+02  0.85818800912E+00  0.11121067622E+02  0.10500000000E+00 0.  1.
</event>
<event>
11    0  0.3467594E-009  0.9118800E+02  0.7816531E-02  0.1126479E+00
         25   -1    0    0    0    0  0.00000000000E+00  0.00000000000E+00  0.99999998245E-14  0.12500000000E+03  0.12500000000E+03 0.  0.
    3000001    1    3    3    0    0  0.16631178120E+02  0.11677438181E+02 -0.15002356451E+02  0.25279029792E+02  0.10000000000E+01 0. -1.
    1000022    2    1    0    0    0  0.40928458013E+02  0.18157978930E+02 -0.42442891561E+02  0.62500000778E+02  0.10000008954E+02 0.  0.
    3000022    2    3    3    0    0  0.24297279893E+02  0.64805407493E+01 -0.27440535110E+02  0.37220970986E+02  0.24999090960E+00 0.  0.
    1000022    2    1    0    0    0 -0.40928458013E+02 -0.18157978930E+02  0.42442891561E+02  0.62499999222E+02  0.99999992271E+01 0.  0.
    3000022    2    5    5    0    0 -0.29527452398E+02 -0.17628569672E+02  0.30823536454E+02  0.46182137343E+02  0.24999252488E+00 0.  0.
        -13    1    4    4    0    0  0.58845691257E+01  0.15912933696E+01 -0.66479140193E+01  0.90203189629E+01  0.10500000000E+00 0. -1.
         13    1    4    4    0    0  0.18412710767E+02  0.48892473797E+01 -0.20792621091E+02  0.28200652023E+02  0.10500000000E+00 0.  1.
    3000001    1    5    5    0    0 -0.11401005615E+02 -0.52940925864E+00  0.11619355107E+02  0.16317861879E+02  0.10000000000E+01 0. -1.
        -13    1    6    6    0    0 -0.13176312869E+02 -0.78238649243E+01  0.13809554574E+02  0.20628691324E+02  0.10500000000E+00 0.  1.
         13    1    6    6    0    0 -0.16351139529E+02 -0.98047047474E+01  0.17013981879E+02  0.25553446019E+02  0.10500000000E+00 0. -1.
</event>
<event>
11    0  0.3467594E-009  0.9118800E+02  0.7816531E-02  0.1126479E+00
         25   -1    0    0    0    0  0.00000000000E+00  0.00000000000E+00  0.99999998245E-14  0.12500000000E+03  0.12500000000E+03 0.  0.
    3000001    1    3    3    0    0 -0.31627094075E+02 -0.10040126779E+02 -0.20233432408E+02  0.38877615827E+02  0.10000000000E+01 0. -1.
    1000022    2    1    0    0    0 -0.47204327978E+02 -0.11934515810E+02 -0.37888900713E+02  0.62499999048E+02  0.99999918108E+01 0.  0.
    3000022    2    3    3    0    0 -0.15577233903E+02 -0.18943890314E+01 -0.17655468304E+02  0.23622383221E+02  0.25000418550E+00 0.  0.
    1000022    2    1    0    0    0  0.47204327978E+02  0.11934515810E+02  0.37888900713E+02  0.62500000952E+02  0.10000003715E+02 0.  0.
    3000022    2    5    5    0    0  0.21422257243E+02  0.35122139362E+01  0.11173437105E+02  0.24416325499E+02  0.25000401979E+00 0.  0.
        -13    1    4    4    0    0 -0.10344013796E+02 -0.12219864638E+01 -0.11657313410E+02  0.15633165171E+02  0.10500000000E+00 0. -1.
         13    1    4    4    0    0 -0.52332201069E+01 -0.67240256758E+00 -0.59981548944E+01  0.79892180492E+01  0.10500000000E+00 0.  1.
    3000001    1    5    5    0    0  0.25782070735E+02  0.84223018742E+01  0.26715463608E+02  0.38083675454E+02  0.10000000000E+01 0. -1.
        -13    1    6    6    0    0  0.55439103217E+01  0.93409808234E+00  0.28729042593E+01  0.63144346354E+01  0.10500000000E+00 0.  1.
         13    1    6    6    0    0  0.15878346921E+02  0.25781158539E+01  0.83005328453E+01  0.18101890863E+02  0.10500000000E+00 0. -1.
</event>
<event>
11    0  0.3467594E-009  0.9118800E+02  0.7816531E-02  0.1126479E+00
         25   -1    0    0    0    0  0.00000000000E+00  0.00000000000E+00  0.99999998245E-14  0.12500000000E+03  0.12500000000E+03 0.  0.
    3000001    1    3    3    0    0  0.36393840422E+02 -0.32050564468E+02  0.47192809162E+01  0.48734196575E+02  0.10000000000E+01 0.  1.
    1000022    2    1    0    0    0  0.49347516863E+02 -0.36696849800E+02  0.49410175266E+01  0.62500001467E+02  0.10000016169E+02 0.  0.
    3000022    2    3    3    0    0  0.12953676440E+02 -0.46462853317E+01  0.22173661046E+00  0.13765804892E+02  0.25003298544E+00 0.  0.
    1000022    2    1    0    0    0 -0.49347516863E+02  0.36696849800E+02 -0.49410175266E+01  0.62499998533E+02  0.99999978358E+01 0.  0.
    3000022    2    5    5    0    0 -0.42514914472E+01  0.47301205055E+00 -0.15222527317E+01  0.45473809713E+01  0.25000078676E+00 0.  0.
        -13    1    4    4    0    0  0.66829836097E+01 -0.23408736763E+01  0.15642173092E+00  0.70836044676E+01  0.10500000000E+00 0. -1.
         13    1    4    4    0    0  0.62706928305E+01 -0.23054116554E+01  0.65314879536E-01  0.66822004241E+01  0.10500000000E+00 0.  1.
    3000001    1    5    5    0    0 -0.45096025415E+02  0.36223837749E+02 -0.34187647949E+01  0.57952617562E+02  0.10000000000E+01 0. -1.
        -13    1    6    6    0    0 -0.23485841924E+01  0.32262423600E+00 -0.81489742510E+00  0.25089872299E+01  0.10500000000E+00 0.  1.
         13    1    6    6    0    0 -0.19029072548E+01  0.15038781456E+00 -0.70735530660E+00  0.20383937414E+01  0.10500000000E+00 0. -1.
</event>
<event>
11    0  0.3467594E-009  0.9118800E+02  0.7816531E-02  0.1126479E+00
         25   -1    0    0    0    0  0.00000000000E+00  0.00000000000E+00  0.99999998245E-14  0.12500000000E+03  0.12500000000E+03 0.  0.
    3000001    1    3    3    0    0  0.35609853416E+02 -0.75812991888E+01  0.35696096562E+02  0.50997539818E+02  0.10000000000E+01 0.  1.
    1000022    2    1    0    0    0  0.42991532737E+02 -0.13653815275E+02  0.42089801043E+02  0.62500000045E+02  0.10000004759E+02 0.  0.
    3000022    2    3    3    0    0  0.73816793219E+01 -0.60725160857E+01  0.63937044802E+01  0.11502460227E+02  0.24998616171E+00 0.  0.
    1000022    2    1    0    0    0 -0.42991532737E+02  0.13653815275E+02 -0.42089801043E+02  0.62499999955E+02  0.10000004194E+02 0.  0.
    3000022    2    5    5    0    0 -0.41683747259E+02  0.14661766386E+02 -0.41021848315E+02  0.60293919419E+02  0.25000137962E+00 0.  0.
        -13    1    4    4    0    0  0.18045716825E+01 -0.15158233097E+01  0.15756129316E+01  0.28368610071E+01  0.10500000000E+00 0. -1.
         13    1    4    4    0    0  0.55771076394E+01 -0.45566927760E+01  0.48180915486E+01  0.86655992203E+01  0.10500000000E+00 0. -1.
    3000001    1    5    5    0    0 -0.13077854788E+01 -0.10079511112E+01 -0.10679527276E+01  0.22060805356E+01  0.10000000000E+01 0. -1.
        -13    1    6    6    0    0 -0.21003502677E+02  0.74563772482E+01 -0.20718615514E+02  0.30430523167E+02  0.10500000000E+00 0.  1.
         13    1    6    6    0    0 -0.20680244581E+02  0.72053891376E+01 -0.20303232801E+02  0.29863396252E+02  0.10500000000E+00 0. -1.
</event>
<event>
11    0  0.3467594E-009  0.9118800E+02  0.7816531E-02  0.1126479E+00
         25   -1    0    0    0    0  0.00000000000E+00  0.00000000000E+00  0.99999998245E-14  0.12500000000E+03  0.12500000000E+03 0.  0.
    3000001    1    3    3    0    0 -0.11102767125E+02  0.19032212641E+02  0.25210072045E+02  0.33496929537E+02  0.10000000000E+01 0. -1.
    1000022    2    1    0    0    0 -0.16094390757E+02  0.29203696257E+02  0.51907268389E+02  0.62500001481E+02  0.10000019234E+02 0.  0.
    3000022    2    3    3    0    0 -0.49916236313E+01  0.10171483616E+02  0.26697196344E+02  0.29003071945E+02  0.25000838873E+00 0.  0.
    1000022    2    1    0    0    0  0.16094390757E+02 -0.29203696257E+02 -0.51907268389E+02  0.62499998519E+02  0.10000000719E+02 0.  0.
    3000022    2    5    5    0    0  0.17052415734E+02 -0.26571472951E+02 -0.49304809716E+02  0.58547884840E+02  0.25000186609E+00 0.  0.
        -13    1    4    4    0    0 -0.35358451106E+01  0.72956791230E+01  0.19126134399E+02  0.20773761734E+02  0.10500000000E+00 0.  1.
         13    1    4    4    0    0 -0.14557785207E+01  0.28758044925E+01  0.75710619445E+01  0.82293102109E+01  0.10500000000E+00 0. -1.
    3000001    1    5    5    0    0 -0.95802497740E+00 -0.26322233055E+01 -0.26024586730E+01  0.39521136790E+01  0.10000000000E+01 0. -1.
        -13    1    6    6    0    0  0.70527716642E+01 -0.10898903647E+02 -0.20196584241E+02  0.24009180095E+02  0.10500000000E+00 0. -1.
         13    1    6    6    0    0  0.99996440698E+01 -0.15672569305E+02 -0.29108225475E+02  0.34538704744E+02  0.10500000000E+00 0.  1.
</event>
<event>
11    0  0.3467594E-009  0.9118800E+02  0.7816531E-02  0.1126479E+00
         25   -1    0    0    0    0  0.00000000000E+00  0.00000000000E+00  0.99999998245E-14  0.12500000000E+03  0.12500000000E+03 0.  0.
    3000001    1    3    3    0    0 -0.23844611868E+02  0.16005278222E+02 -0.10158289633E+02  0.30478275778E+02  0.10000000000E+01 0.  1.
    1000022    2    1    0    0    0 -0.41631810029E+02  0.39762209449E+02 -0.22181274293E+02  0.62500000617E+02  0.10000012066E+02 0.  0.
    3000022    2    3    3    0    0 -0.17787198160E+02  0.23756931227E+02 -0.12022984660E+02  0.32021724839E+02  0.25000363436E+00 0.  0.
    1000022    2    1    0    0    0  0.41631810029E+02 -0.39762209449E+02  0.22181274293E+02  0.62499999383E+02  0.10000004355E+02 0.  0.
    3000022    2    5    5    0    0  0.29104850328E+01 -0.83418325553E-01  0.17439725760E+01  0.34032077957E+01  0.25000242389E+00 0.  0.
        -13    1    4    4    0    0 -0.85124355002E+01  0.11465694926E+02 -0.57470204955E+01  0.15393602173E+02  0.10500000000E+00 0. -1.
         13    1    4    4    0    0 -0.92747626602E+01  0.12291236301E+02 -0.62759641643E+01  0.16628122666E+02  0.10500000000E+00 0.  1.
    3000001    1    5    5    0    0  0.38721324996E+02 -0.39678791123E+02  0.20437301717E+02  0.59096791587E+02  0.10000000000E+01 0. -1.
        -13    1    6    6    0    0  0.76731607006E+00 -0.46126119858E-01  0.43567019725E+00  0.88979497137E+00  0.10500000000E+00 0.  1.
         13    1    6    6    0    0  0.21431689627E+01 -0.37292205695E-01  0.13083023787E+01  0.25134128244E+01  0.10500000000E+00 0. -1.
</event>
<event>
11    0  0.3467594E-009  0.9118800E+02  0.7816531E-02  0.1126479E+00
         25   -1    0    0    0    0  0.00000000000E+00  0.00000000000E+00  0.99999998245E-14  0.12500000000E+03  0.12500000000E+03 0.  0.
    3000001    1    3    3    0    0 -0.11119668255E+01  0.45962371320E+01 -0.58528475304E+01  0.75906317398E+01  0.10000000000E+01 0. -1.
    1000022    2    1    0    0    0  0.14255174708E+02  0.28232678546E+02 -0.52971271959E+02  0.62500000882E+02  0.10000015674E+02 0.  0.
    3000022    2    3    3    0    0  0.15367141534E+02  0.23636441414E+02 -0.47118424428E+02  0.54909369142E+02  0.24999472368E+00 0.  0.
    1000022    2    1    0    0    0 -0.14255174708E+02 -0.28232678546E+02  0.52971271959E+02  0.62499999118E+02  0.10000004649E+02 0.  0.
    3000022    2    5    5    0    0 -0.36390191069E+01 -0.24693350900E+01  0.13297987055E+02  0.14008534293E+02  0.24999497232E+00 0.  0.
        -13    1    4    4    0    0  0.43422762747E+01  0.66624187889E+01 -0.13368574435E+02  0.15555481182E+02  0.10500000000E+00 0.  1.
         13    1    4    4    0    0  0.11024865259E+02  0.16974022625E+02 -0.33749849993E+02  0.39353887961E+02  0.10500000000E+00 0. -1.
    3000001    1    5    5    0    0 -0.10616155601E+02 -0.25763343456E+02  0.39673284904E+02  0.48491464825E+02  0.10000000000E+01 0.  1.
        -13    1    6    6    0    0 -0.11466497935E+01 -0.83024172887E+00  0.41988406166E+01  0.44323125568E+01  0.10500000000E+00 0. -1.
         13    1    6    6    0    0 -0.24923693135E+01 -0.16390933611E+01  0.90991464380E+01  0.95762217362E+01  0.10500000000E+00 0.  1.
</event>
<event>
11    0  0.3467594E-009  0.9118800E+02  0.7816531E-02  0.1126479E+00
         25   -1    0    0    0    0  0.00000000000E+00  0.00000000000E+00  0.99999998245E-14  0.12500000000E+03  0.12500000000E+03 0.  0.
    3000001    1    3    3    0    0  0.56191772391E+01  0.72382980300E+01  0.66090894033E+01  0.11342317839E+02  0.10000000000E+01 0.  1.
    1000022    2    1    0    0    0  0.37580388335E+02  0.45603807388E+02  0.17727296558E+02  0.62499999122E+02  0.10000000565E+02 0.  0.
    3000022    2    3    3    0    0  0.31961211096E+02  0.38365509358E+02  0.11118207155E+02  0.51157681284E+02  0.25000182799E+00 0.  0.
    1000022    2    1    0    0    0 -0.37580388335E+02 -0.45603807388E+02 -0.17727296558E+02  0.62500000878E+02  0.10000011535E+02 0.  0.
    3000022    2    5    5    0    0 -0.28089065011E+02 -0.27045982471E+02 -0.10091896034E+02  0.40278897726E+02  0.24999089003E+00 0.  0.
        -13    1    4    4    0    0  0.95399388730E+01  0.11504088208E+02  0.33592527409E+01  0.15318292437E+02  0.10500000000E+00 0. -1.
         13    1    4    4    0    0  0.22421272223E+02  0.26861421150E+02  0.77589544138E+01  0.35839388847E+02  0.10500000000E+00 0.  1.
    3000001    1    5    5    0    0 -0.94913233244E+01 -0.18557824917E+02 -0.76354005244E+01  0.22221103152E+02  0.10000000000E+01 0.  1.
        -13    1    6    6    0    0 -0.11372492727E+02 -0.11036607099E+02 -0.41151563633E+01  0.16373326601E+02  0.10500000000E+00 0. -1.
         13    1    6    6    0    0 -0.16716572284E+02 -0.16009375372E+02 -0.59767396703E+01  0.23905571125E+02  0.10500000000E+00 0.  1.
</event>
<event>
11    0  0.3467594E-009  0.9118800E+02  0.7816531E-02  0.1126479E+00
         25   -1    0    0    0    0  0.00000000000E+00  0.00000000000E+00  0.99999998245E-14  0.12500000000E+03  0.12500000000E+03 0.  0.
    3000001    1    3    3    0    0  0.24449491059E+02 -0.19562894704E+02  0.17637677690E+02  0.35952359263E+02  0.10000000000E+01 0. -1.
    1000022    2    1    0    0    0  0.37730924137E+02 -0.40316280249E+02  0.27517720247E+02  0.62500000003E+02  0.99999991694E+01 0.  0.
    3000022    2    3    3    0    0  0.13281433078E+02 -0.20753385545E+02  0.98800425566E+01  0.26547640740E+02  0.25002349826E+00 0.  0.
    1000022    2    1    0    0    0 -0.37730924137E+02  0.40316280249E+02 -0.27517720247E+02  0.62499999997E+02  0.99999991371E+01 0.  0.
    3000022    2    5    5    0    0 -0.14626365710E+02  0.20982016399E+02 -0.16334197276E+02  0.30348708192E+02  0.25000442085E+00 0.  0.
        -13    1    4    4    0    0  0.62014173641E+01 -0.97653142803E+01  0.46967057059E+01  0.12485552042E+02  0.10500000000E+00 0. -1.
         13    1    4    4    0    0  0.70800157140E+01 -0.10988071265E+02  0.51833368508E+01  0.14062088697E+02  0.10500000000E+00 0.  1.
    3000001    1    5    5    0    0 -0.23104558427E+02  0.19334263849E+02 -0.11183522971E+02  0.32151291805E+02  0.10000000000E+01 0.  1.
        -13    1    6    6    0    0 -0.44445242851E+01  0.63256369018E+01 -0.48941761912E+01  0.91504898188E+01  0.10500000000E+00 0. -1.
         13    1    6    6    0    0 -0.10181841425E+02  0.14656379497E+02 -0.11440021085E+02  0.21198218373E+02  0.10500000000E+00 0.  1.
</event>
<event>
11    0  0.3467594E-009  0.9118800E+02  0.7816531E-02  0.1126479E+00
         25   -1    0    0    0    0  0.00000000000E+00  0.00000000000E+00  0.99999998245E-14  0.12500000000E+03  0.12500000000E+03 0.  0.
    3000001    1    3    3    0    0 -0.25945510556E+02  0.32844723098E+02 -0.36109834108E+02  0.55288927216E+02  0.10000000000E+01 0.  1.
    1000022    2    1    0    0    0 -0.28953005401E+02  0.39148362858E+02 -0.37886397511E+02  0.62500000532E+02  0.10000005700E+02 0.  0.
    3000022    2    3    3    0    0 -0.30074948449E+01  0.63036397598E+01 -0.17765634034E+01  0.72110733166E+01  0.25000277670E+00 0.  0.
    1000022    2    1    0    0    0  0.28953005401E+02 -0.39148362858E+02  0.37886397511E+02  0.62499999468E+02  0.99999990446E+01 0.  0.
    3000022    2    5    5    0    0  0.14517092418E+02 -0.20757913210E+02  0.25819388421E+02  0.36170986378E+02  0.25000803374E+00 0.  0.
        -13    1    4    4    0    0 -0.90110912705E+00  0.18476681798E+01 -0.48146413676E+00  0.21139318997E+01  0.10500000000E+00 0.  1.
         13    1    4    4    0    0 -0.21063857178E+01  0.44559715800E+01 -0.12950992667E+01  0.50971414169E+01  0.10500000000E+00 0. -1.
    3000001    1    5    5    0    0  0.14435912983E+02 -0.18390449648E+02  0.12067009090E+02  0.26329013090E+02  0.10000000000E+01 0.  1.
        -13    1    6    6    0    0  0.69189734905E+01 -0.10008951194E+02  0.12382546795E+02  0.17360581451E+02  0.10500000000E+00 0. -1.
         13    1    6    6    0    0  0.75981189271E+01 -0.10748962016E+02  0.13436841625E+02  0.18810404927E+02  0.10500000000E+00 0.  1.
</event>
<event>
11    0  0.3467594E-009  0.9118800E+02  0.7816531E-02  0.1126479E+00
         25   -1    0    0    0    0  0.00000000000E+00  0.00000000000E+00  0.99999998245E-14  0.12500000000E+03  0.12500000000E+03 0.  0.
    3000001    1    3    3    0    0 -0.15969255857E+02  0.71173579580E+01  0.31710451286E+02  0.36224668911E+02  0.10000000000E+01 0.  1.
    1000022    2    1    0    0    0 -0.29048734327E+02  0.19592592454E+02  0.50779439126E+02  0.62500000110E+02  0.99999965342E+01 0.  0.
    3000022    2    3    3    0    0 -0.13079478470E+02  0.12475234496E+02  0.19068987840E+02  0.26275331199E+02  0.24999918965E+00 0.  0.
    1000022    2    1    0    0    0  0.29048734327E+02 -0.19592592454E+02 -0.50779439126E+02  0.62499999890E+02  0.99999951595E+01 0.  0.
    3000022    2    5    5    0    0  0.14653858104E+02 -0.87966599365E+01 -0.16424592293E+02  0.23705411074E+02  0.24999772559E+00 0.  0.
        -13    1    4    4    0    0 -0.53141252933E+01  0.49999938368E+01  0.76407153572E+01  0.10565577228E+02  0.10500000000E+00 0. -1.
         13    1    4    4    0    0 -0.77653531764E+01  0.74752406591E+01  0.11428272483E+02  0.15709753970E+02  0.10500000000E+00 0.  1.
    3000001    1    5    5    0    0  0.14394876224E+02 -0.10795932517E+02 -0.34354846834E+02  0.38794588816E+02  0.10000000000E+01 0. -1.
        -13    1    6    6    0    0  0.85639327040E+01 -0.51164303099E+01 -0.96709886516E+01  0.13894525864E+02  0.10500000000E+00 0. -1.
         13    1    6    6    0    0  0.60899253997E+01 -0.36802296266E+01 -0.67536036410E+01  0.98108852108E+01  0.10500000000E+00 0.  1.
</event>
<event>
11    0  0.3467594E-009  0.9118800E+02  0.7816531E-02  0.1126479E+00
         25   -1    0    0    0    0  0.00000000000E+00  0.00000000000E+00  0.99999998245E-14  0.12500000000E+03  0.12500000000E+03 0.  0.
    3000001    1    3    3    0    0  0.35835231816E+02 -0.42930405938E+02  0.56035576510E+01  0.56210172137E+02  0.10000000000E+01 0.  1.
    1000022    2    1    0    0    0  0.41679973322E+02 -0.45000980308E+02  0.66288273855E+01  0.62500001535E+02  0.10000021730E+02 0.  0.
    3000022    2    3    3    0    0  0.58447415055E+01 -0.20705743701E+01  0.10252697344E+01  0.62898293982E+01  0.24998868396E+00 0.  0.
    1000022    2    1    0    0    0 -0.41679973322E+02  0.45000980308E+02 -0.66288273855E+01  0.62499998465E+02  0.10000002544E+02 0.  0.
    3000022    2    5    5    0    0 -0.38015930498E+02  0.42837919705E+02 -0.81935520902E+01  0.57857541746E+02  0.25000954766E+00 0.  0.
        -13    1    4    4    0    0  0.25282179565E+01 -0.82740901014E+00  0.45205199353E+00  0.27003458502E+01  0.10500000000E+00 0. -1.
         13    1    4    4    0    0  0.33165235490E+01 -0.12431653600E+01  0.57321774091E+00  0.35894835480E+01  0.10500000000E+00 0.  1.
    3000001    1    5    5    0    0 -0.36640428241E+01  0.21630606029E+01  0.15647247047E+01  0.46424567193E+01  0.10000000000E+01 0. -1.
        -13    1    6    6    0    0 -0.13710337861E+02  0.15495860232E+02 -0.29100171361E+01  0.20894359845E+02  0.10500000000E+00 0.  1.
         13    1    6    6    0    0 -0.24305592637E+02  0.27342059472E+02 -0.52835349541E+01  0.36963181901E+02  0.10500000000E+00 0. -1.
</event>
<event>
11    0  0.3467594E-009  0.9118800E+02  0.7816531E-02  0.1126479E+00
         25   -1    0    0    0    0  0.00000000000E+00  0.00000000000E+00  0.99999998245E-14  0.12500000000E+03  0.12500000000E+03 0.  0.
    3000001    1    3    3    0    0 -0.35024722007E+02 -0.87245368405E+01  0.75925948775E+01  0.36898457850E+02  0.10000000000E+01 0. -1.
    1000022    2    1    0    0    0 -0.60339997231E+02 -0.68271426396E+01  0.10896145289E+02  0.62500004526E+02  0.99999720588E+01 0.  0.
    3000022    2    3    3    0    0 -0.25315275224E+02  0.18973942009E+01  0.33035504120E+01  0.25601546676E+02  0.24996493861E+00 0.  0.
    1000022    2    1    0    0    0  0.60339997231E+02  0.68271426396E+01 -0.10896145289E+02  0.62499995474E+02  0.99999154821E+01 0.  0.
    3000022    2    5    5    0    0  0.28477709499E+02 -0.12207676278E+01 -0.73062525649E+01  0.29426417365E+02  0.25000094390E+00 0.  0.
        -13    1    4    4    0    0 -0.12339996472E+02  0.98747777876E+00  0.16374393667E+01  0.12487708276E+02  0.10500000000E+00 0. -1.
         13    1    4    4    0    0 -0.12975278752E+02  0.90991642212E+00  0.16661110454E+01  0.13113838401E+02  0.10500000000E+00 0.  1.
    3000001    1    5    5    0    0  0.31862287732E+02  0.80479102674E+01 -0.35898927246E+01  0.33073578109E+02  0.10000000000E+01 0.  1.
        -13    1    6    6    0    0  0.10294665019E+02 -0.49790039340E+00 -0.26270946418E+01  0.10636760969E+02  0.10500000000E+00 0.  1.
         13    1    6    6    0    0  0.18183044480E+02 -0.72286723443E+00 -0.46791579231E+01  0.18789656395E+02  0.10500000000E+00 0. -1.
</event>
<event>
11    0  0.3467594E-009  0.9118800E+02  0.7816531E-02  0.1126479E+00
         25   -1    0    0    0    0  0.00000000000E+00  0.00000000000E+00  0.99999998245E-14  0.12500000000E+03  0.12500000000E+03 0.  0.
    3000001    1    3    3    0    0  0.41267686195E+02 -0.30037746517E+02 -0.24313507123E+02  0.56545864290E+02  0.10000000000E+01 0.  1.
    1000022    2    1    0    0    0  0.42949128075E+02 -0.34978510258E+02 -0.27168477829E+02  0.62500001285E+02  0.10000009543E+02 0.  0.
    3000022    2    3    3    0    0  0.16814418802E+01 -0.49407637408E+01 -0.28549707060E+01  0.59541369952E+01  0.24999297284E+00 0.  0.
    1000022    2    1    0    0    0 -0.42949128075E+02  0.34978510258E+02  0.27168477829E+02  0.62499998715E+02  0.99999934749E+01 0.  0.
    3000022    2    5    5    0    0 -0.35840730617E+02  0.29010153772E+02  0.18255861288E+02  0.49593204877E+02  0.25001109612E+00 0.  0.
        -13    1    4    4    0    0  0.11024291323E+01 -0.32086258051E+01 -0.19183499940E+01  0.38989384771E+01  0.10500000000E+00 0. -1.
         13    1    4    4    0    0  0.57901274790E+00 -0.17321379358E+01 -0.93662071203E+00  0.20551985181E+01  0.10500000000E+00 0.  1.
    3000001    1    5    5    0    0 -0.71083974576E+01  0.59683564866E+01  0.89126165408E+01  0.12906793838E+02  0.10000000000E+01 0.  1.
        -13    1    6    6    0    0 -0.12107533137E+02  0.97389709770E+01  0.61801310982E+01  0.16722588308E+02  0.10500000000E+00 0.  1.
         13    1    6    6    0    0 -0.23733197481E+02  0.19271182795E+02  0.12075730190E+02  0.32870616568E+02  0.10500000000E+00 0. -1.
</event>
<event>
11    0  0.3467594E-009  0.9118800E+02  0.7816531E-02  0.1126479E+00
         25   -1    0    0    0    0  0.00000000000E+00  0.00000000000E+00  0.99999998245E-14  0.12500000000E+03  0.12500000000E+03 0.  0.
    3000001    1    3    3    0    0  0.15729733722E+02 -0.13386537684E+02 -0.14100292434E+02  0.25028826598E+02  0.10000000000E+01 0.  1.
    1000022    2    1    0    0    0  0.47086224588E+02 -0.29394421553E+02 -0.26927781947E+02  0.62500000229E+02  0.10000001180E+02 0.  0.
    3000022    2    3    3    0    0  0.31356490866E+02 -0.16007883869E+02 -0.12827489512E+02  0.37471173631E+02  0.25000134336E+00 0.  0.
    1000022    2    1    0    0    0 -0.47086224588E+02  0.29394421553E+02  0.26927781947E+02  0.62499999771E+02  0.99999983195E+01 0.  0.
    3000022    2    5    5    0    0 -0.24201524074E+02  0.16254456741E+02  0.19474863669E+02  0.35060718007E+02  0.25000152348E+00 0.  0.
        -13    1    4    4    0    0  0.89586316150E+01 -0.45986767530E+01 -0.36317441781E+01  0.10705395792E+02  0.10500000000E+00 0. -1.
         13    1    4    4    0    0  0.22397859251E+02 -0.11409207116E+02 -0.91957453343E+01  0.26765777838E+02  0.10500000000E+00 0.  1.
    3000001    1    5    5    0    0 -0.22884700514E+02  0.13139964812E+02  0.74529182774E+01  0.27439281764E+02  0.10000000000E+01 0.  1.
        -13    1    6    6    0    0 -0.12918988542E+02  0.86218354266E+01  0.10434910153E+02  0.18711886222E+02  0.10500000000E+00 0. -1.
         13    1    6    6    0    0 -0.11282535532E+02  0.76326213146E+01  0.90399535163E+01  0.16348831785E+02  0.10500000000E+00 0.  1.
</event>
<event>
11    0  0.3467594E-009  0.9118800E+02  0.7816531E-02  0.1126479E+00
         25   -1    0    0    0    0  0.00000000000E+00  0.00000000000E+00  0.99999998245E-14  0.12500000000E+03  0.12500000000E+03 0.  0.
    3000001    1    3    3    0    0  0.35706357961E+01  0.18226955811E+02  0.32117058561E+02  0.37114374692E+02  0.10000000000E+01 0. -1.
    1000022    2    1    0    0    0 -0.21431762576E+01  0.29926616504E+02  0.53907828555E+02  0.62499997760E+02  0.10000008035E+02 0.  0.
    3000022    2    3    3    0    0 -0.57138120538E+01  0.11699660693E+02  0.21790769993E+02  0.25385623069E+02  0.24998631887E+00 0.  0.
    1000022    2    1    0    0    0  0.21431762576E+01 -0.29926616504E+02 -0.53907828555E+02  0.62500002240E+02  0.10000036033E+02 0.  0.
    3000022    2    5    5    0    0 -0.37466379236E+01 -0.99570704024E+01 -0.15514120570E+02  0.18813053441E+02  0.24999193118E+00 0.  0.
        -13    1    4    4    0    0 -0.29380473498E+01  0.59122548472E+01  0.10950875662E+02  0.12787477561E+02  0.10500000000E+00 0.  1.
         13    1    4    4    0    0 -0.27757647040E+01  0.57874058458E+01  0.10839894331E+02  0.12598145508E+02  0.10500000000E+00 0. -1.
    3000001    1    5    5    0    0  0.58898141812E+01 -0.19969546101E+02 -0.38393707984E+02  0.43686948799E+02  0.10000000000E+01 0. -1.
        -13    1    6    6    0    0 -0.10357720254E+01 -0.28688244031E+01 -0.44331823666E+01  0.53821099989E+01  0.10500000000E+00 0. -1.
         13    1    6    6    0    0 -0.27108658982E+01 -0.70882459994E+01 -0.11080938204E+02  0.13430943442E+02  0.10500000000E+00 0.  1.
</event>
<event>
11    0  0.3467594E-009  0.9118800E+02  0.7816531E-02  0.1126479E+00
         25   -1    0    0    0    0  0.00000000000E+00  0.00000000000E+00  0.99999998245E-14  0.12500000000E+03  0.12500000000E+03 0.  0.
    3000001    1    3    3    0    0  0.33794454198E+02 -0.25668592213E+02 -0.59555595270E+01  0.42865025954E+02  0.10000000000E+01 0.  1.
    1000022    2    1    0    0    0  0.47726545880E+02 -0.36072779931E+02 -0.15072540821E+02  0.62499998437E+02  0.99999842143E+01 0.  0.
    3000022    2    3    3    0    0  0.13932091683E+02 -0.10404187718E+02 -0.91169812939E+01  0.19634972484E+02  0.24999162355E+00 0.  0.
    1000022    2    1    0    0    0 -0.47726545880E+02  0.36072779931E+02  0.15072540821E+02  0.62500001563E+02  0.10000003747E+02 0.  0.
    3000022    2    5    5    0    0 -0.35445929694E+02  0.30715460038E+02  0.14331830179E+02  0.49044034017E+02  0.24999827432E+00 0.  0.
        -13    1    4    4    0    0  0.42215245513E+01 -0.31752152315E+01 -0.27212532465E+01  0.59430215830E+01  0.10500000000E+00 0. -1.
         13    1    4    4    0    0  0.97105671312E+01 -0.72289724861E+01 -0.63957280473E+01  0.13691950901E+02  0.10500000000E+00 0.  1.
    3000001    1    5    5    0    0 -0.12280616186E+02  0.53573198926E+01  0.74071064238E+00  0.13455967546E+02  0.10000000000E+01 0. -1.
        -13    1    6    6    0    0 -0.25941391077E+02  0.22432955216E+02  0.10485115806E+02  0.35862820988E+02  0.10500000000E+00 0.  1.
         13    1    6    6    0    0 -0.95045386170E+01  0.82825048225E+01  0.38467143723E+01  0.13181213029E+02  0.10500000000E+00 0. -1.
</event>
<event>
11    0  0.3467594E-009  0.9118800E+02  0.7816531E-02  0.1126479E+00
         25   -1    0    0    0    0  0.00000000000E+00  0.00000000000E+00  0.99999998245E-14  0.12500000000E+03  0.12500000000E+03 0.  0.
    3000001    1    3    3    0    0  0.46670333863E+01  0.17174760197E+02  0.22856962856E+02  0.28986105972E+02  0.10000000000E+01 0.  1.
    1000022    2    1    0    0    0  0.91047193412E+01  0.27736917562E+02  0.54350871321E+02  0.62499999578E+02  0.10000011192E+02 0.  0.
    3000022    2    3    3    0    0  0.44376859550E+01  0.10562157365E+02  0.31493908465E+02  0.33513893606E+02  0.25013875354E+00 0.  0.
    1000022    2    1    0    0    0 -0.91047193412E+01 -0.27736917562E+02 -0.54350871321E+02  0.62500000422E+02  0.10000016465E+02 0.  0.
    3000022    2    5    5    0    0 -0.10246765805E+01 -0.14393754804E+02 -0.33189260354E+02  0.36191430295E+02  0.24996903792E+00 0.  0.
        -13    1    4    4    0    0  0.29469883249E+01  0.69579265559E+01  0.20917396736E+02  0.22240638331E+02  0.10500000000E+00 0.  1.
         13    1    4    4    0    0  0.14906976301E+01  0.36042308094E+01  0.10576511729E+02  0.11273255275E+02  0.10500000000E+00 0. -1.
    3000001    1    5    5    0    0 -0.80800427608E+01 -0.13343162758E+02 -0.21161610966E+02  0.26308570127E+02  0.10000000000E+01 0. -1.
        -13    1    6    6    0    0 -0.47082234906E+00 -0.75196459808E+01 -0.17379948054E+02  0.18943082344E+02  0.10500000000E+00 0.  1.
         13    1    6    6    0    0 -0.55385423140E+00 -0.68741088228E+01 -0.15809312301E+02  0.17248347951E+02  0.10500000000E+00 0. -1.
</event>
<event>
11    0  0.3467594E-009  0.9118800E+02  0.7816531E-02  0.1126479E+00
         25   -1    0    0    0    0  0.00000000000E+00  0.00000000000E+00  0.99999998245E-14  0.12500000000E+03  0.12500000000E+03 0.  0.
    3000001    1    3    3    0    0  0.46196982863E+01 -0.54280476391E+01  0.37929602722E+01  0.81358380671E+01  0.10000000000E+01 0.  1.
    1000022    2    1    0    0    0  0.14528965161E+02 -0.54408542804E+02  0.25196625220E+02  0.62499997657E+02  0.99999712991E+01 0.  0.
    3000022    2    3    3    0    0  0.99092668746E+01 -0.48980495165E+02  0.21403664947E+02  0.54364159590E+02  0.24999629492E+00 0.  0.
    1000022    2    1    0    0    0 -0.14528965161E+02  0.54408542804E+02 -0.25196625220E+02  0.62500002343E+02  0.10000000581E+02 0.  0.
    3000022    2    5    5    0    0 -0.86123054828E+01  0.34497524989E+02 -0.20966976660E+02  0.41278658861E+02  0.25006213384E+00 0.  0.
        -13    1    4    4    0    0  0.75445039072E+01 -0.37322396675E+02  0.16290600653E+02  0.41415884965E+02  0.10500000000E+00 0.  1.
         13    1    4    4    0    0  0.23647629674E+01 -0.11658098490E+02  0.51130642944E+01  0.12948274626E+02  0.10500000000E+00 0. -1.
    3000001    1    5    5    0    0 -0.59166596780E+01  0.19911017816E+02 -0.42296485598E+01  0.21221343481E+02  0.10000000000E+01 0.  1.
        -13    1    6    6    0    0 -0.65944895138E+01  0.26459092105E+02 -0.16086747415E+02  0.31660153416E+02  0.10500000000E+00 0. -1.
         13    1    6    6    0    0 -0.20178159690E+01  0.80384328836E+01 -0.48802292452E+01  0.96185054450E+01  0.10500000000E+00 0.  1.
</event>
<event>
11    0  0.3467594E-009  0.9118800E+02  0.7816531E-02  0.1126479E+00
         25   -1    0    0    0    0  0.00000000000E+00  0.00000000000E+00  0.99999998245E-14  0.12500000000E+03  0.12500000000E+03 0.  0.
    3000001    1    3    3    0    0  0.94032251366E+01 -0.84453218151E+01 -0.37232784293E+02  0.39332230165E+02  0.10000000000E+01 0. -1.
    1000022    2    1    0    0    0  0.12444531492E+02 -0.20250038157E+02 -0.56932587349E+02  0.62500001141E+02  0.10000011545E+02 0.  0.
    3000022    2    3    3    0    0  0.30413063553E+01 -0.11804716342E+02 -0.19699803056E+02  0.23167770976E+02  0.24999855147E+00 0.  0.
    1000022    2    1    0    0    0 -0.12444531492E+02  0.20250038157E+02  0.56932587349E+02  0.62499998859E+02  0.99999972859E+01 0.  0.
    3000022    2    5    5    0    0 -0.81381555427E+01  0.13003462627E+02  0.46966017586E+02  0.49408389196E+02  0.24999823266E+00 0.  0.
        -13    1    4    4    0    0  0.12983627541E+01 -0.52706691981E+01 -0.88348474884E+01  0.10369727806E+02  0.10500000000E+00 0. -1.
         13    1    4    4    0    0  0.17429436012E+01 -0.65340471443E+01 -0.10864955568E+02  0.12798043170E+02  0.10500000000E+00 0.  1.
    3000001    1    5    5    0    0 -0.43063759491E+01  0.72465755309E+01  0.99665697633E+01  0.13091609664E+02  0.10000000000E+01 0.  1.
        -13    1    6    6    0    0 -0.42980604315E+01  0.69783414194E+01  0.25197054607E+02  0.26496663154E+02  0.10500000000E+00 0.  1.
         13    1    6    6    0    0 -0.38400951113E+01  0.60251212072E+01  0.21768962979E+02  0.22911726042E+02  0.10500000000E+00 0. -1.
</event>
<event>
11    0  0.3467594E-009  0.9118800E+02  0.7816531E-02  0.1126479E+00
         25   -1    0    0    0    0  0.00000000000E+00  0.00000000000E+00  0.99999998245E-14  0.12500000000E+03  0.12500000000E+03 0.  0.
    3000001    1    3    3    0    0 -0.33790414565E+01 -0.12685953970E+02  0.13831456758E+02  0.19096087173E+02  0.10000000000E+01 0. -1.
    1000022    2    1    0    0    0  0.33260352429E+01 -0.44197747040E+02  0.42915576176E+02  0.62500000072E+02  0.99999988306E+01 0.  0.
    3000022    2    3    3    0    0  0.67050766994E+01 -0.31511793070E+02  0.29084119418E+02  0.43403912898E+02  0.24999304772E+00 0.  0.
    1000022    2    1    0    0    0 -0.33260352429E+01  0.44197747040E+02 -0.42915576176E+02  0.62499999928E+02  0.99999979349E+01 0.  0.
    3000022    2    5    5    0    0 -0.29052428304E+00  0.33979111533E+02 -0.27415831123E+02  0.43661822334E+02  0.25001670403E+00 0.  0.
        -13    1    4    4    0    0  0.34308609134E+01 -0.16448521097E+02  0.15164446605E+02  0.22633959413E+02  0.10500000000E+00 0. -1.
         13    1    4    4    0    0  0.32742157860E+01 -0.15063271973E+02  0.13919672813E+02  0.20769953485E+02  0.10500000000E+00 0.  1.
    3000001    1    5    5    0    0 -0.30355109599E+01  0.10218635507E+02 -0.15499745052E+02  0.18838177595E+02  0.10000000000E+01 0.  1.
        -13    1    6    6    0    0 -0.97373694448E-01  0.18230049578E+02 -0.14665777098E+02  0.23397440717E+02  0.10500000000E+00 0.  1.
         13    1    6    6    0    0 -0.19315058859E+00  0.15749061955E+02 -0.12750054026E+02  0.20264381616E+02  0.10500000000E+00 0. -1.
</event>
<event>
11    0  0.3467594E-009  0.9118800E+02  0.7816531E-02  0.1126479E+00
         25   -1    0    0    0    0  0.00000000000E+00  0.00000000000E+00  0.99999998245E-14  0.12500000000E+03  0.12500000000E+03 0.  0.
    3000001    1    3    3    0    0  0.43334605198E+01 -0.16794859772E+01  0.20425198684E+02  0.20971130024E+02  0.10000000000E+01 0. -1.
    1000022    2    1    0    0    0  0.12389935678E+02  0.87968942152E+01  0.59794263844E+02  0.62500001086E+02  0.10000014660E+02 0.  0.
    3000022    2    3    3    0    0  0.80564751583E+01  0.10476380192E+02  0.39369065160E+02  0.41528871062E+02  0.25001235554E+00 0.  0.
    1000022    2    1    0    0    0 -0.12389935678E+02 -0.87968942152E+01 -0.59794263844E+02  0.62499998914E+02  0.10000001086E+02 0.  0.
    3000022    2    5    5    0    0 -0.14711132509E+01 -0.58374643362E+01 -0.30331958221E+02  0.30924591379E+02  0.24999672760E+00 0.  0.
        -13    1    4    4    0    0  0.42265026412E+01  0.55572036597E+01  0.20620884165E+02  0.21771029508E+02  0.10500000000E+00 0.  1.
         13    1    4    4    0    0  0.38299725171E+01  0.49191765327E+01  0.18748180995E+02  0.19757841554E+02  0.10500000000E+00 0. -1.
    3000001    1    5    5    0    0 -0.10918822427E+02 -0.29594298789E+01 -0.29462305623E+02  0.31575407535E+02  0.10000000000E+01 0.  1.
        -13    1    6    6    0    0 -0.40922633245E+00 -0.15753886193E+01 -0.80373448392E+01  0.82011738524E+01  0.10500000000E+00 0.  1.
         13    1    6    6    0    0 -0.10618869185E+01 -0.42620757169E+01 -0.22294613382E+02  0.22723417526E+02  0.10500000000E+00 0. -1.
</event>
<event>
11    0  0.3467594E-009  0.9118800E+02  0.7816531E-02  0.1126479E+00
         25   -1    0    0    0    0  0.00000000000E+00  0.00000000000E+00  0.99999998245E-14  0.12500000000E+03  0.12500000000E+03 0.  0.
    3000001    1    3    3    0    0  0.32699098665E+01  0.55806668882E+00 -0.12329675680E+01  0.36774934382E+01  0.10000000000E+01 0.  1.
    1000022    2    1    0    0    0  0.38860940423E+02 -0.98732605957E+01 -0.46889190202E+02  0.62499999437E+02  0.99999903279E+01 0.  0.
    3000022    2    3    3    0    0  0.35591030556E+02 -0.10431327284E+02 -0.45656222634E+02  0.58822505999E+02  0.25000372007E+00 0.  0.
    1000022    2    1    0    0    0 -0.38860940423E+02  0.98732605957E+01  0.46889190202E+02  0.62500000563E+02  0.99999973596E+01 0.  0.
    3000022    2    5    5    0    0 -0.21095397303E+02  0.60162279864E+01  0.18120041220E+02  0.28453632826E+02  0.25008126893E+00 0.  0.
        -13    1    4    4    0    0  0.21031879988E+02 -0.61744578278E+01 -0.27083215902E+02  0.34842151396E+02  0.10500000000E+00 0.  1.
         13    1    4    4    0    0  0.14559150568E+02 -0.42568694567E+01 -0.18573006732E+02  0.23980354603E+02  0.10500000000E+00 0. -1.
    3000001    1    5    5    0    0 -0.17765543120E+02  0.38570326093E+01  0.28769148982E+02  0.34046367737E+02  0.10000000000E+01 0.  1.
        -13    1    6    6    0    0 -0.79187093416E+01  0.22892786582E+01  0.68772734695E+01  0.10735672768E+02  0.10500000000E+00 0.  1.
         13    1    6    6    0    0 -0.13176687961E+02  0.37269493283E+01  0.11242767750E+02  0.17717960058E+02  0.10500000000E+00 0. -1.
</event>
<event>
11    0  0.3467594E-009  0.9118800E+02  0.7816531E-02  0.1126479E+00
         25   -1    0    0    0    0  0.00000000000E+00  0.00000000000E+00  0.99999998245E-14  0.12500000000E+03  0.12500000000E+03 0.  0.
    3000001    1    3    3    0    0 -0.31223232545E+01  0.63261628890E+01 -0.66406527420E+01  0.97399952897E+01  0.10000000000E+01 0.  1.
    1000022    2    1    0    0    0 -0.55420191602E+01  0.28217993860E+02 -0.54582789425E+02  0.62500000627E+02  0.10000001156E+02 0.  0.
    3000022    2    3    3    0    0 -0.24196959056E+01  0.21891830971E+02 -0.47942136683E+02  0.52760005337E+02  0.25000388608E+00 0.  0.
    1000022    2    1    0    0    0  0.55420191602E+01 -0.28217993860E+02  0.54582789425E+02  0.62499999373E+02  0.99999933189E+01 0.  0.
    3000022    2    5    5    0    0 -0.13891948611E+01 -0.86916131567E+01  0.99801980512E+01  0.13309426817E+02  0.24997483865E+00 0.  0.
        -13    1    4    4    0    0 -0.11485168746E+01  0.10814379940E+02 -0.23790056035E+02  0.26158128673E+02  0.10500000000E+00 0.  1.
         13    1    4    4    0    0 -0.12711790310E+01  0.11077451031E+02 -0.24152080647E+02  0.26601876664E+02  0.10500000000E+00 0. -1.
    3000001    1    5    5    0    0  0.69312140212E+01 -0.19526380703E+02  0.44602591374E+02  0.49190572556E+02  0.10000000000E+01 0.  1.
        -13    1    6    6    0    0 -0.10663609858E+01 -0.66914705561E+01  0.76905361315E+01  0.10250281701E+02  0.10500000000E+00 0. -1.
         13    1    6    6    0    0 -0.32283387525E+00 -0.20001426006E+01  0.22896619196E+01  0.30591451159E+01  0.10500000000E+00 0.  1.
</event>
<event>
11    0  0.3467594E-009  0.9118800E+02  0.7816531E-02  0.1126479E+00
         25   -1    0    0    0    0  0.00000000000E+00  0.00000000000E+00  0.99999998245E-14  0.12500000000E+03  0.12500000000E+03 0.  0.
    3000001    1    3    3    0    0 -0.71672205841E+01  0.94561647426E+01 -0.32758994761E+02  0.34855987151E+02  0.10000000000E+01 0.  1.
    1000022    2    1    0    0    0 -0.20081439916E+02  0.12198547295E+02 -0.57045433228E+02  0.62499997595E+02  0.99999731016E+01 0.  0.
    3000022    2    3    3    0    0 -0.12914219332E+02  0.27423825527E+01 -0.24286438467E+02  0.27644010444E+02  0.24999401004E+00 0.  0.
    1000022    2    1    0    0    0  0.20081439916E+02 -0.12198547295E+02  0.57045433228E+02  0.62500002405E+02  0.10000003166E+02 0.  0.
    3000022    2    5    5    0    0  0.14782244259E+02 -0.71546376140E+01  0.27372029826E+02  0.31921687067E+02  0.25000736931E+00 0.  0.
        -13    1    4    4    0    0 -0.87357244257E+01  0.18030963544E+01 -0.16426650963E+02  0.18692509852E+02  0.10500000000E+00 0. -1.
         13    1    4    4    0    0 -0.41784949059E+01  0.93928619823E+00 -0.78597875038E+01  0.89515005919E+01  0.10500000000E+00 0.  1.
    3000001    1    5    5    0    0  0.52991956564E+01 -0.50439096813E+01  0.29673403402E+02  0.30578315338E+02  0.10000000000E+01 0. -1.
        -13    1    6    6    0    0  0.44798614437E+01 -0.21749756654E+01  0.83914196767E+01  0.97584131338E+01  0.10500000000E+00 0.  1.
         13    1    6    6    0    0  0.10302382816E+02 -0.49796619486E+01  0.18980610149E+02  0.22163273933E+02  0.10500000000E+00 0. -1.
</event>
<event>
11    0  0.3467594E-009  0.9118800E+02  0.7816531E-02  0.1126479E+00
         25   -1    0    0    0    0  0.00000000000E+00  0.00000000000E+00  0.99999998245E-14  0.12500000000E+03  0.12500000000E+03 0.  0.
    3000001    1    3    3    0    0 -0.74328243065E+01 -0.42595492649E+02  0.28379991110E+02  0.51730520649E+02  0.10000000000E+01 0.  1.
    1000022    2    1    0    0    0 -0.50082899455E+01 -0.52327144560E+02  0.32296091975E+02  0.62500004278E+02  0.99999976001E+01 0.  0.
    3000022    2    3    3    0    0  0.24245343610E+01 -0.97316519107E+01  0.39161008643E+01  0.10769483629E+02  0.25003176968E+00 0.  0.
    1000022    2    1    0    0    0  0.50082899455E+01  0.52327144560E+02 -0.32296091975E+02  0.62499995722E+02  0.99999441210E+01 0.  0.
    3000022    2    5    5    0    0  0.53149652139E+01  0.13645617572E+02 -0.11116955684E+02  0.18387521365E+02  0.25000826947E+00 0.  0.
        -13    1    4    4    0    0  0.17198124330E+01 -0.69203789826E+01  0.28294985793E+01  0.76724498876E+01  0.10500000000E+00 0. -1.
         13    1    4    4    0    0  0.70472192798E+00 -0.28112729281E+01  0.10866022850E+01  0.30970337418E+01  0.10500000000E+00 0.  1.
    3000001    1    5    5    0    0 -0.30667526837E+00  0.38681526988E+02 -0.21179136291E+02  0.44112474356E+02  0.10000000000E+01 0.  1.
        -13    1    6    6    0    0  0.33346942682E+01  0.84714024587E+01 -0.68467428243E+01  0.11391828553E+02  0.10500000000E+00 0.  1.
         13    1    6    6    0    0  0.19802709457E+01  0.51742151133E+01 -0.42702128597E+01  0.69956928123E+01  0.10500000000E+00 0. -1.
</event>
<event>
11    0  0.3467594E-009  0.9118800E+02  0.7816531E-02  0.1126479E+00
         25   -1    0    0    0    0  0.00000000000E+00  0.00000000000E+00  0.99999998245E-14  0.12500000000E+03  0.12500000000E+03 0.  0.
    3000001    1    3    3    0    0  0.74333833605E+01  0.30028218395E+00  0.71390626150E+01  0.10359129915E+02  0.10000000000E+01 0.  1.
    1000022    2    1    0    0    0  0.30542091284E+02 -0.11699472259E+02  0.52312076423E+02  0.62499998378E+02  0.99999733220E+01 0.  0.
    3000022    2    3    3    0    0  0.23108707923E+02 -0.11999754443E+02  0.45173013808E+02  0.52140868463E+02  0.24999801721E+00 0.  0.
    1000022    2    1    0    0    0 -0.30542091284E+02  0.11699472259E+02 -0.52312076423E+02  0.62500001622E+02  0.99999935968E+01 0.  0.
    3000022    2    5    5    0    0 -0.14809817804E+02  0.56535066426E+00 -0.24838733703E+02  0.28925343727E+02  0.24998604062E+00 0.  0.
        -13    1    4    4    0    0  0.15405737403E+02 -0.80248287702E+01  0.30037222889E+02  0.34698420794E+02  0.10500000000E+00 0. -1.
         13    1    4    4    0    0  0.77029705204E+01 -0.39749256724E+01  0.15135790919E+02  0.17442447669E+02  0.10500000000E+00 0.  1.
    3000001    1    5    5    0    0 -0.15732273479E+02  0.11134121594E+02 -0.27473342721E+02  0.33574657895E+02  0.10000000000E+01 0. -1.
        -13    1    6    6    0    0 -0.60323865432E+01  0.16725611298E+00 -0.10132892726E+02  0.11794244444E+02  0.10500000000E+00 0. -1.
         13    1    6    6    0    0 -0.87774312610E+01  0.39809455128E+00 -0.14705840977E+02  0.17131099283E+02  0.10500000000E+00 0.  1.
</event>
<event>
11    0  0.3467594E-009  0.9118800E+02  0.7816531E-02  0.1126479E+00
         25   -1    0    0    0    0  0.00000000000E+00  0.00000000000E+00  0.99999998245E-14  0.12500000000E+03  0.12500000000E+03 0.  0.
    3000001    1    3    3    0    0 -0.68859532474E+01  0.23356632400E+02 -0.14218836270E+02  0.28215668237E+02  0.10000000000E+01 0.  1.
    1000022    2    1    0    0    0 -0.98993248939E+01  0.56309877897E+02 -0.23182991556E+02  0.62499999811E+02  0.99999948342E+01 0.  0.
    3000022    2    3    3    0    0 -0.30133716466E+01  0.32953245498E+02 -0.89641552863E+01  0.34284331574E+02  0.25002793260E+00 0.  0.
    1000022    2    1    0    0    0  0.98993248939E+01 -0.56309877897E+02  0.23182991556E+02  0.62500000189E+02  0.99999971984E+01 0.  0.
    3000022    2    5    5    0    0  0.30761899042E+00 -0.17099602140E+01  0.30381340214E+01  0.35087540735E+01  0.25000687915E+00 0.  0.
        -13    1    4    4    0    0 -0.10997224531E+01  0.12696697790E+02 -0.34450181476E+01  0.13202071780E+02  0.10500000000E+00 0.  1.
         13    1    4    4    0    0 -0.19136491935E+01  0.20256547708E+02 -0.55191371387E+01  0.21082259794E+02  0.10500000000E+00 0. -1.
    3000001    1    5    5    0    0  0.95917059035E+01 -0.54599917683E+02  0.20144857535E+02  0.58991246116E+02  0.10000000000E+01 0.  1.
        -13    1    6    6    0    0  0.17916627431E+00 -0.71840771426E+00  0.12106441637E+01  0.14229878738E+01  0.10500000000E+00 0.  1.
         13    1    6    6    0    0  0.12845271611E+00 -0.99155249971E+00  0.18274898577E+01  0.20857661997E+01  0.10500000000E+00 0. -1.
</event>
<event>
11    0  0.3467594E-009  0.9118800E+02  0.7816531E-02  0.1126479E+00
         25   -1    0    0    0    0  0.00000000000E+00  0.00000000000E+00  0.99999998245E-14  0.12500000000E+03  0.12500000000E+03 0.  0.
    3000001    1    3    3    0    0  0.18959728465E+02 -0.85592934110E+01  0.10702895082E+02  0.23415481424E+02  0.10000000000E+01 0.  1.
    1000022    2    1    0    0    0  0.45003451701E+02 -0.33800886652E+02  0.25267358777E+02  0.62500000753E+02  0.10000003560E+02 0.  0.
    3000022    2    3    3    0    0  0.26043723235E+02 -0.25241593241E+02  0.14564463694E+02  0.39084519330E+02  0.24999840830E+00 0.  0.
    1000022    2    1    0    0    0 -0.45003451701E+02  0.33800886652E+02 -0.25267358777E+02  0.62499999247E+02  0.99999941416E+01 0.  0.
    3000022    2    5    5    0    0 -0.36171794266E+02  0.23816432567E+02 -0.15722795282E+02  0.46074829880E+02  0.24999267338E+00 0.  0.
        -13    1    4    4    0    0  0.13841138002E+02 -0.13480997508E+02  0.77074535691E+01  0.20802169611E+02  0.10500000000E+00 0.  1.
         13    1    4    4    0    0  0.12202585233E+02 -0.11760595733E+02  0.68570101251E+01  0.18282349718E+02  0.10500000000E+00 0. -1.
    3000001    1    5    5    0    0 -0.88316574344E+01  0.99844540849E+01 -0.95445634947E+01  0.16425169366E+02  0.10000000000E+01 0.  1.
        -13    1    6    6    0    0 -0.21597319906E+02  0.14238780032E+02 -0.94566577323E+01  0.27543174915E+02  0.10500000000E+00 0.  1.
         13    1    6    6    0    0 -0.14574474360E+02  0.95776525357E+01 -0.62661375496E+01  0.18531654965E+02  0.10500000000E+00 0. -1.
</event>
<event>
11    0  0.3467594E-009  0.9118800E+02  0.7816531E-02  0.1126479E+00
         25   -1    0    0    0    0  0.00000000000E+00  0.00000000000E+00  0.99999998245E-14  0.12500000000E+03  0.12500000000E+03 0.  0.
    3000001    1    3    3    0    0 -0.29421703990E+01  0.13789182670E+02 -0.18679004518E+02  0.23424413230E+02  0.10000000000E+01 0.  1.
    1000022    2    1    0    0    0 -0.53050772074E+00  0.44455148314E+02 -0.42775091327E+02  0.62499999863E+02  0.99999947386E+01 0.  0.
    3000022    2    3    3    0    0  0.24116626783E+01  0.30665965644E+02 -0.24096086809E+02  0.39075586633E+02  0.25001096150E+00 0.  0.
    1000022    2    1    0    0    0  0.53050772074E+00 -0.44455148314E+02  0.42775091327E+02  0.62500000137E+02  0.99999964534E+01 0.  0.
    3000022    2    5    5    0    0  0.35843224040E+01 -0.32265975677E+02  0.34753749717E+02  0.47558660340E+02  0.25000105364E+00 0.  0.
        -13    1    4    4    0    0  0.15586025155E+01  0.19467066233E+02 -0.15231867487E+02  0.24767250991E+02  0.10500000000E+00 0. -1.
         13    1    4    4    0    0  0.85306016283E+00  0.11198899411E+02 -0.88642193212E+01  0.14308335642E+02  0.10500000000E+00 0.  1.
    3000001    1    5    5    0    0 -0.30538146832E+01 -0.12189172637E+02  0.80213416102E+01  0.14941339797E+02  0.10000000000E+01 0.  1.
        -13    1    6    6    0    0  0.17033567337E+01 -0.15811884207E+02  0.17086989276E+02  0.23342950411E+02  0.10500000000E+00 0.  1.
         13    1    6    6    0    0  0.18809656703E+01 -0.16454091470E+02  0.17666760440E+02  0.24215709930E+02  0.10500000000E+00 0. -1.
</event>
<event>
11    0  0.3467594E-009  0.9118800E+02  0.7816531E-02  0.1126479E+00
         25   -1    0    0    0    0  0.00000000000E+00  0.00000000000E+00  0.99999998245E-14  0.12500000000E+03  0.12500000000E+03 0.  0.
    3000001    1    3    3    0    0  0.30482244592E+02  0.20166864833E+02 -0.15601168509E+02  0.39752561319E+02  0.10000000000E+01 0. -1.
    1000022    2    1    0    0    0  0.50249447185E+02  0.24710441464E+02 -0.25896659372E+02  0.62500001069E+02  0.10000015362E+02 0.  0.
    3000022    2    3    3    0    0  0.19767202593E+02  0.45435766312E+01 -0.10295490863E+02  0.22747439751E+02  0.24999223384E+00 0.  0.
    1000022    2    1    0    0    0 -0.50249447185E+02 -0.24710441464E+02  0.25896659372E+02  0.62499998931E+02  0.10000001996E+02 0.  0.
    3000022    2    5    5    0    0 -0.14720627867E+02 -0.33965648493E+01  0.99647092340E+01  0.18099487969E+02  0.24999406308E+00 0.  0.
        -13    1    4    4    0    0  0.10615514366E+02  0.24637972621E+01 -0.54608921188E+01  0.12189824032E+02  0.10500000000E+00 0. -1.
         13    1    4    4    0    0  0.91516882276E+01  0.20797793690E+01 -0.48345987447E+01  0.10557615719E+02  0.10500000000E+00 0.  1.
    3000001    1    5    5    0    0 -0.35528819318E+02 -0.21313876615E+02  0.15931950138E+02  0.44400510962E+02  0.10000000000E+01 0. -1.
        -13    1    6    6    0    0 -0.11244587526E+02 -0.25819917301E+01  0.76214694655E+01  0.13827698714E+02  0.10500000000E+00 0.  1.
         13    1    6    6    0    0 -0.34760403417E+01 -0.81457311922E+00  0.23432397685E+01  0.42717892547E+01  0.10500000000E+00 0. -1.
</event>
<event>
11    0  0.3467594E-009  0.9118800E+02  0.7816531E-02  0.1126479E+00
         25   -1    0    0    0    0  0.00000000000E+00  0.00000000000E+00  0.99999998245E-14  0.12500000000E+03  0.12500000000E+03 0.  0.
    3000001    1    3    3    0    0 -0.22361749737E+02  0.12176321498E+02  0.38442482380E+02  0.46120874971E+02  0.10000000000E+01 0.  1.
    1000022    2    1    0    0    0 -0.31139929911E+02  0.21336246076E+02  0.48798765340E+02  0.62500000708E+02  0.99999979162E+01 0.  0.
    3000022    2    3    3    0    0 -0.87781801739E+01  0.91599245784E+01  0.10356282960E+02  0.16379125737E+02  0.24999545715E+00 0.  0.
    1000022    2    1    0    0    0  0.31139929911E+02 -0.21336246076E+02 -0.48798765340E+02  0.62499999292E+02  0.99999890636E+01 0.  0.
    3000022    2    5    5    0    0  0.11142785100E+02 -0.86584766929E+01 -0.26169312737E+02  0.29732580074E+02  0.25002052595E+00 0.  0.
        -13    1    4    4    0    0 -0.35466344106E+01  0.36161395560E+01  0.41050469275E+01  0.65205456986E+01  0.10500000000E+00 0. -1.
         13    1    4    4    0    0 -0.52315457633E+01  0.55437850224E+01  0.62512360325E+01  0.98585800389E+01  0.10500000000E+00 0.  1.
    3000001    1    5    5    0    0  0.19997144811E+02 -0.12677769383E+02 -0.22629452603E+02  0.32767419218E+02  0.10000000000E+01 0. -1.
        -13    1    6    6    0    0  0.52925713488E+01 -0.41282157360E+01 -0.12307874691E+02  0.14019567791E+02  0.10500000000E+00 0.  1.
         13    1    6    6    0    0  0.58502137512E+01 -0.45302609569E+01 -0.13861438046E+02  0.15713012282E+02  0.10500000000E+00 0. -1.
</event>
<event>
11    0  0.3467594E-009  0.9118800E+02  0.7816531E-02  0.1126479E+00
         25   -1    0    0    0    0  0.00000000000E+00  0.00000000000E+00  0.99999998245E-14  0.12500000000E+03  0.12500000000E+03 0.  0.
    3000001    1    3    3    0    0  0.17070732550E+02 -0.43248847021E+02  0.13573671788E+01  0.46526499160E+02  0.10000000000E+01 0.  1.
    1000022    2    1    0    0    0  0.27223567300E+02 -0.55184712891E+02  0.44469087842E+01  0.62499999573E+02  0.99999897751E+01 0.  0.
    3000022    2    3    3    0    0  0.10152834750E+02 -0.11935865870E+02  0.30895416055E+01  0.15973500413E+02  0.25000116259E+00 0.  0.
    1000022    2    1    0    0    0 -0.27223567300E+02  0.55184712891E+02 -0.44469087842E+01  0.62500000427E+02  0.99999951157E+01 0.  0.
    3000022    2    5    5    0    0 -0.15343639321E+01  0.75713981297E+01  0.20609640747E+01  0.79994011521E+01  0.25000712117E+00 0.  0.
        -13    1    4    4    0    0  0.48942700308E+01 -0.56521308241E+01  0.14586901060E+01  0.76183504654E+01  0.10500000000E+00 0. -1.
         13    1    4    4    0    0  0.52585647194E+01 -0.62837350457E+01  0.16308514995E+01  0.83551499475E+01  0.10500000000E+00 0.  1.
    3000001    1    5    5    0    0 -0.25689203368E+02  0.47613314761E+02 -0.65078728590E+01  0.54500599275E+02  0.10000000000E+01 0.  1.
        -13    1    6    6    0    0 -0.35227615339E+00  0.18317304328E+01  0.48875511510E+00  0.19311243951E+01  0.10500000000E+00 0. -1.
         13    1    6    6    0    0 -0.11820877787E+01  0.57396676969E+01  0.15722089596E+01  0.60682767570E+01  0.10500000000E+00 0.  1.
</event>
<event>
11    0  0.3467594E-009  0.9118800E+02  0.7816531E-02  0.1126479E+00
         25   -1    0    0    0    0  0.00000000000E+00  0.00000000000E+00  0.99999998245E-14  0.12500000000E+03  0.12500000000E+03 0.  0.
    3000001    1    3    3    0    0  0.14305388129E+02 -0.15453748579E+02  0.10459487390E+02  0.23534301585E+02  0.10000000000E+01 0. -1.
    1000022    2    1    0    0    0  0.46693697332E+02 -0.33402517799E+02  0.22588058236E+02  0.62499999648E+02  0.10000000766E+02 0.  0.
    3000022    2    3    3    0    0  0.32388309203E+02 -0.17948769220E+02  0.12128570846E+02  0.38965698063E+02  0.25001037659E+00 0.  0.
    1000022    2    1    0    0    0 -0.46693697332E+02  0.33402517799E+02 -0.22588058236E+02  0.62500000352E+02  0.10000005162E+02 0.  0.
    3000022    2    5    5    0    0 -0.33726248919E+02  0.27275382987E+02 -0.20485809558E+02  0.47970170730E+02  0.25000668272E+00 0.  0.
        -13    1    4    4    0    0  0.18227590798E+02 -0.10073016958E+02  0.68856512847E+01  0.21934765911E+02  0.10500000000E+00 0.  1.
         13    1    4    4    0    0  0.14160718405E+02 -0.78757522621E+01  0.52429195617E+01  0.17030932152E+02  0.10500000000E+00 0. -1.
    3000001    1    5    5    0    0 -0.12967448413E+02  0.61271348125E+01 -0.21022486780E+01  0.14529829622E+02  0.10000000000E+01 0. -1.
        -13    1    6    6    0    0 -0.21383202212E+02  0.17303047988E+02 -0.13055945193E+02  0.30448407781E+02  0.10500000000E+00 0.  1.
         13    1    6    6    0    0 -0.12343046707E+02  0.99723349985E+01 -0.74298643650E+01  0.17521762948E+02  0.10500000000E+00 0. -1.
</event>
<event>
11    0  0.3467594E-009  0.9118800E+02  0.7816531E-02  0.1126479E+00
         25   -1    0    0    0    0  0.00000000000E+00  0.00000000000E+00  0.99999998245E-14  0.12500000000E+03  0.12500000000E+03 0.  0.
    3000001    1    3    3    0    0  0.19150748461E+02  0.20541151376E-01 -0.35497984136E+01  0.19502632062E+02  0.10000000000E+01 0. -1.
    1000022    2    1    0    0    0  0.60164592002E+02  0.12891739248E+02 -0.45027702555E+01  0.62500001230E+02  0.10000007110E+02 0.  0.
    3000022    2    3    3    0    0  0.41013843541E+02  0.12871198097E+02 -0.95297184185E+00  0.42997369169E+02  0.24999528282E+00 0.  0.
    1000022    2    1    0    0    0 -0.60164592002E+02 -0.12891739248E+02  0.45027702555E+01  0.62499998770E+02  0.99999917317E+01 0.  0.
    3000022    2    5    5    0    0 -0.29171865308E+02 -0.11279712100E+02  0.17227750883E+01  0.31325071142E+02  0.24999490145E+00 0.  0.
        -13    1    4    4    0    0  0.22770113550E+02  0.70945164565E+01 -0.48385206570E+00  0.23854881527E+02  0.10500000000E+00 0. -1.
         13    1    4    4    0    0  0.18243729990E+02  0.57766816405E+01 -0.46911977615E+00  0.19142487641E+02  0.10500000000E+00 0.  1.
    3000001    1    5    5    0    0 -0.30992726694E+02 -0.16120271484E+01  0.27799951671E+01  0.31174927628E+02  0.10000000000E+01 0.  1.
        -13    1    6    6    0    0 -0.15103060914E+02 -0.58509465073E+01  0.82517520526E+00  0.16218136857E+02  0.10500000000E+00 0. -1.
         13    1    6    6    0    0 -0.14068804394E+02 -0.54287655927E+01  0.89759988308E+00  0.15106934285E+02  0.10500000000E+00 0.  1.
</event>
<event>
11    0  0.3467594E-009  0.9118800E+02  0.7816531E-02  0.1126479E+00
         25   -1    0    0    0    0  0.00000000000E+00  0.00000000000E+00  0.99999998245E-14  0.12500000000E+03  0.12500000000E+03 0.  0.
    3000001    1    3    3    0    0  0.28947581840E+01 -0.36004038045E+02  0.79101345490E+00  0.36142718253E+02  0.10000000000E+01 0.  1.
    1000022    2    1    0    0    0  0.11865287076E+02 -0.60255515507E+02  0.58938812302E+01  0.62500000087E+02  0.99999994258E+01 0.  0.
    3000022    2    3    3    0    0  0.89705288916E+01 -0.24251477463E+02  0.51028677753E+01  0.26357281834E+02  0.24999683523E+00 0.  0.
    1000022    2    1    0    0    0 -0.11865287076E+02  0.60255515507E+02 -0.58938812302E+01  0.62499999913E+02  0.99999983353E+01 0.  0.
    3000022    2    5    5    0    0  0.94207244691E+00  0.10617395876E+02  0.12348484524E+01  0.10733310186E+02  0.25000229453E+00 0.  0.
        -13    1    4    4    0    0  0.68668005257E+01 -0.18594020653E+02  0.39042626873E+01  0.20202595023E+02  0.10500000000E+00 0.  1.
         13    1    4    4    0    0  0.21037283659E+01 -0.56574568094E+01  0.11986050880E+01  0.61546868112E+01  0.10500000000E+00 0. -1.
    3000001    1    5    5    0    0 -0.12807359523E+02  0.49638119631E+02 -0.71287296825E+01  0.51766689727E+02  0.10000000000E+01 0.  1.
        -13    1    6    6    0    0  0.25620086669E+00  0.29253227438E+01  0.37855404362E+00  0.29626812524E+01  0.10500000000E+00 0. -1.
         13    1    6    6    0    0  0.68587158021E+00  0.76920731326E+01  0.85629440875E+00  0.77706289331E+01  0.10500000000E+00 0.  1.
</event>
<event>
11    0  0.3467594E-009  0.9118800E+02  0.7816531E-02  0.1126479E+00
         25   -1    0    0    0    0  0.00000000000E+00  0.00000000000E+00  0.99999998245E-14  0.12500000000E+03  0.12500000000E+03 0.  0.
    3000001    1    3    3    0    0 -0.15830870836E+02  0.47529356794E+02 -0.45353440273E+01  0.50311286747E+02  0.10000000000E+01 0.  1.
    1000022    2    1    0    0    0 -0.21984425002E+02  0.56881779771E+02 -0.93486647253E+01  0.62499994539E+02  0.99999986295E+01 0.  0.
    3000022    2    3    3    0    0 -0.61535541662E+01  0.93524229775E+01 -0.48133206981E+01  0.12188707792E+02  0.24999415249E+00 0.  0.
    1000022    2    1    0    0    0  0.21984425002E+02 -0.56881779771E+02  0.93486647253E+01  0.62500005461E+02  0.10000066891E+02 0.  0.
    3000022    2    5    5    0    0  0.21662158967E+02 -0.51359335209E+02  0.62758404495E+01  0.56093485472E+02  0.24998957557E+00 0.  0.
        -13    1    4    4    0    0 -0.29475805333E+01  0.43691112222E+01 -0.22974559679E+01  0.57503645795E+01  0.10500000000E+00 0. -1.
         13    1    4    4    0    0 -0.32059736329E+01  0.49833117553E+01 -0.25158647301E+01  0.64383432129E+01  0.10500000000E+00 0.  1.
    3000001    1    5    5    0    0  0.32226603535E+00 -0.55224445622E+01  0.30728242758E+01  0.64065199890E+01  0.10000000000E+01 0. -1.
        -13    1    6    6    0    0  0.52055569273E+01 -0.12393037207E+02  0.15092160472E+01  0.13526786470E+02  0.10500000000E+00 0. -1.
         13    1    6    6    0    0  0.16456602040E+02 -0.38966298002E+02  0.47666244022E+01  0.42566699002E+02  0.10500000000E+00 0.  1.
</event>
<event>
11    0  0.3467594E-009  0.9118800E+02  0.7816531E-02  0.1126479E+00
         25   -1    0    0    0    0  0.00000000000E+00  0.00000000000E+00  0.99999998245E-14  0.12500000000E+03  0.12500000000E+03 0.  0.
    3000001    1    3    3    0    0  0.54876909337E+01  0.25068393277E+01  0.59933114673E+00  0.61447695662E+01  0.10000000000E+01 0.  1.
    1000022    2    1    0    0    0  0.46051436584E+02  0.24355442980E+02  0.33050378790E+02  0.62499999439E+02  0.99999988771E+01 0.  0.
    3000022    2    3    3    0    0  0.40563745650E+02  0.21848603652E+02  0.32451047643E+02  0.56355229873E+02  0.24999631228E+00 0.  0.
    1000022    2    1    0    0    0 -0.46051436584E+02 -0.24355442980E+02 -0.33050378790E+02  0.62500000561E+02  0.10000005889E+02 0.  0.
    3000022    2    5    5    0    0 -0.41949511488E+02 -0.22576464892E+02 -0.26522762492E+02  0.54525019240E+02  0.25002363676E+00 0.  0.
        -13    1    4    4    0    0  0.26493999319E+02  0.14300434309E+02  0.21144929669E+02  0.36790671332E+02  0.10500000000E+00 0.  1.
         13    1    4    4    0    0  0.14069746330E+02  0.75481693437E+01  0.11306117975E+02  0.19564558541E+02  0.10500000000E+00 0. -1.
    3000001    1    5    5    0    0 -0.41019250953E+01 -0.17789780878E+01 -0.65276162986E+01  0.79749813207E+01  0.10000000000E+01 0.  1.
        -13    1    6    6    0    0 -0.21088401217E+02 -0.11322028353E+02 -0.13253427470E+02  0.27360068651E+02  0.10500000000E+00 0. -1.
         13    1    6    6    0    0 -0.20861110271E+02 -0.11254436539E+02 -0.13269335022E+02  0.27164950589E+02  0.10500000000E+00 0.  1.
</event>
<event>
11    0  0.3467594E-009  0.9118800E+02  0.7816531E-02  0.1126479E+00
         25   -1    0    0    0    0  0.00000000000E+00  0.00000000000E+00  0.99999998245E-14  0.12500000000E+03  0.12500000000E+03 0.  0.
    3000001    1    3    3    0    0 -0.62593242859E+01 -0.45573492809E+01 -0.53786455580E+01  0.94804219854E+01  0.10000000000E+01 0.  1.
    1000022    2    1    0    0    0 -0.48310828591E+02 -0.84018605947E+01 -0.37439584499E+02  0.62499999375E+02  0.10000000690E+02 0.  0.
    3000022    2    3    3    0    0 -0.42051504305E+02 -0.38445113138E+01 -0.32060938941E+02  0.53019577389E+02  0.24999840733E+00 0.  0.
    1000022    2    1    0    0    0  0.48310828591E+02  0.84018605947E+01  0.37439584499E+02  0.62500000625E+02  0.10000008507E+02 0.  0.
    3000022    2    5    5    0    0  0.24615909551E+02  0.64157951025E+01  0.24908977507E+02  0.35603722890E+02  0.24998670067E+00 0.  0.
        -13    1    4    4    0    0 -0.27174079744E+02 -0.25288864257E+01 -0.20766192852E+02  0.34293901311E+02  0.10500000000E+00 0.  1.
         13    1    4    4    0    0 -0.14877424560E+02 -0.13156248881E+01 -0.11294746089E+02  0.18725676079E+02  0.10500000000E+00 0. -1.
    3000001    1    5    5    0    0  0.23694919039E+02  0.19860654922E+01  0.12530606992E+02  0.26896277735E+02  0.10000000000E+01 0. -1.
        -13    1    6    6    0    0  0.13139671328E+02  0.34413725377E+01  0.13391551725E+02  0.19074556093E+02  0.10500000000E+00 0. -1.
         13    1    6    6    0    0  0.11476238223E+02  0.29744225648E+01  0.11517425783E+02  0.16529166797E+02  0.10500000000E+00 0.  1.
</event>
<event>
11    0  0.3467594E-009  0.9118800E+02  0.7816531E-02  0.1126479E+00
         25   -1    0    0    0    0  0.00000000000E+00  0.00000000000E+00  0.99999998245E-14  0.12500000000E+03  0.12500000000E+03 0.  0.
    3000001    1    3    3    0    0  0.88991718837E+01  0.32074628542E+02 -0.17798205146E+02  0.37759146742E+02  0.10000000000E+01 0.  1.
    1000022    2    1    0    0    0  0.78008887996E+01  0.51444414076E+02 -0.33149182975E+02  0.62500000332E+02  0.10000005196E+02 0.  0.
    3000022    2    3    3    0    0 -0.10982830842E+01  0.19369785534E+02 -0.15350977830E+02  0.24740853589E+02  0.24999729984E+00 0.  0.
    1000022    2    1    0    0    0 -0.78008887996E+01 -0.51444414076E+02  0.33149182975E+02  0.62499999668E+02  0.10000001047E+02 0.  0.
    3000022    2    5    5    0    0 -0.35917244520E+01 -0.51590802441E+01  0.58451497314E+01  0.85874832756E+01  0.25000024226E+00 0.  0.
        -13    1    4    4    0    0 -0.58262465513E+00  0.11405831811E+02 -0.90316067342E+01  0.14560679791E+02  0.10500000000E+00 0.  1.
         13    1    4    4    0    0 -0.51565842905E+00  0.79639537228E+01 -0.63193710957E+01  0.10180173798E+02  0.10500000000E+00 0. -1.
    3000001    1    5    5    0    0 -0.42091643475E+01 -0.46285333831E+02  0.27304033244E+02  0.53912516393E+02  0.10000000000E+01 0.  1.
        -13    1    6    6    0    0 -0.24772085042E+01 -0.36374999685E+01  0.40803599384E+01  0.60023603875E+01  0.10500000000E+00 0.  1.
         13    1    6    6    0    0 -0.11145159478E+01 -0.15215802756E+01  0.17647897930E+01  0.25851228881E+01  0.10500000000E+00 0. -1.
</event>
<event>
11    0  0.3467594E-009  0.9118800E+02  0.7816531E-02  0.1126479E+00
         25   -1    0    0    0    0  0.00000000000E+00  0.00000000000E+00  0.99999998245E-14  0.12500000000E+03  0.12500000000E+03 0.  0.
    3000001    1    3    3    0    0  0.65410986383E+01  0.14346972899E+01 -0.17058824971E+00  0.67729925484E+01  0.10000000000E+01 0.  1.
    1000022    2    1    0    0    0  0.48643746235E+02  0.37917154798E+02 -0.15249010534E+01  0.62499999477E+02  0.99999967792E+01 0.  0.
    3000022    2    3    3    0    0  0.42102647597E+02  0.36482457508E+02 -0.13543128037E+01  0.55727006928E+02  0.24999502550E+00 0.  0.
    1000022    2    1    0    0    0 -0.48643746235E+02 -0.37917154798E+02  0.15249010534E+01  0.62500000523E+02  0.10000003323E+02 0.  0.
    3000022    2    5    5    0    0 -0.32969633430E+02 -0.27757933084E+02  0.52795674300E+01  0.43421606523E+02  0.25000627121E+00 0.  0.
        -13    1    4    4    0    0  0.21550050484E+02  0.18588294886E+02 -0.67045948360E+00  0.28467348376E+02  0.10500000000E+00 0. -1.
         13    1    4    4    0    0  0.20552597113E+02  0.17894162622E+02 -0.68385332012E+00  0.27259658552E+02  0.10500000000E+00 0.  1.
    3000001    1    5    5    0    0 -0.15674112805E+02 -0.10159221714E+02 -0.37546663765E+01  0.19078394001E+02  0.10000000000E+01 0. -1.
        -13    1    6    6    0    0 -0.18150911199E+02 -0.15218146531E+02  0.29475533968E+01  0.23869366502E+02  0.10500000000E+00 0.  1.
         13    1    6    6    0    0 -0.14818722231E+02 -0.12539786553E+02  0.23320140332E+01  0.19552240021E+02  0.10500000000E+00 0. -1.
</event>
<event>
11    0  0.3467594E-009  0.9118800E+02  0.7816531E-02  0.1126479E+00
         25   -1    0    0    0    0  0.00000000000E+00  0.00000000000E+00  0.99999998245E-14  0.12500000000E+03  0.12500000000E+03 0.  0.
    3000001    1    3    3    0    0  0.28645185090E+02  0.43915685848E+02  0.12096092846E+02  0.53818672917E+02  0.10000000000E+01 0.  1.
    1000022    2    1    0    0    0  0.29801582658E+02  0.51622543148E+02  0.15913163804E+02  0.62499999619E+02  0.99999940050E+01 0.  0.
    3000022    2    3    3    0    0  0.11563975683E+01  0.77068573000E+01  0.38170709588E+01  0.86813267027E+01  0.24999567253E+00 0.  0.
    1000022    2    1    0    0    0 -0.29801582658E+02 -0.51622543148E+02 -0.15913163804E+02  0.62500000381E+02  0.99999987624E+01 0.  0.
    3000022    2    5    5    0    0 -0.18146707148E+02 -0.24420074148E+02 -0.11669179896E+02  0.32586427504E+02  0.24999251701E+00 0.  0.
        -13    1    4    4    0    0  0.79387233377E+00  0.55569154210E+01  0.27448273291E+01  0.62493715160E+01  0.10500000000E+00 0.  1.
         13    1    4    4    0    0  0.36252523456E+00  0.21499418790E+01  0.10722436297E+01  0.24319551867E+01  0.10500000000E+00 0. -1.
    3000001    1    5    5    0    0 -0.11654875510E+02 -0.27202469000E+02 -0.42439839084E+01  0.29913572877E+02  0.10000000000E+01 0.  1.
        -13    1    6    6    0    0 -0.83181590487E+01 -0.11107258739E+02 -0.52767238204E+01  0.14846474528E+02  0.10500000000E+00 0.  1.
         13    1    6    6    0    0 -0.98285480996E+01 -0.13312815410E+02 -0.63924560758E+01  0.17739952975E+02  0.10500000000E+00 0. -1.
</event>
<event>
11    0  0.3467594E-009  0.9118800E+02  0.7816531E-02  0.1126479E+00
         25   -1    0    0    0    0  0.00000000000E+00  0.00000000000E+00  0.99999998245E-14  0.12500000000E+03  0.12500000000E+03 0.  0.
    3000001    1    3    3    0    0  0.18265363656E+02 -0.12528965590E+02 -0.25641847594E+02  0.33898419377E+02  0.10000000000E+01 0. -1.
    1000022    2    1    0    0    0  0.31882329299E+02 -0.14861635545E+02 -0.50684306706E+02  0.62499998454E+02  0.99999863946E+01 0.  0.
    3000022    2    3    3    0    0  0.13616965642E+02 -0.23326699554E+01 -0.25042459112E+02  0.28601579077E+02  0.24992973943E+00 0.  0.
    1000022    2    1    0    0    0 -0.31882329299E+02  0.14861635545E+02  0.50684306706E+02  0.62500001546E+02  0.10000005721E+02 0.  0.
    3000022    2    5    5    0    0 -0.21229479778E+02  0.12264785969E+02  0.27558855416E+02  0.36887244412E+02  0.25000396218E+00 0.  0.
        -13    1    4    4    0    0  0.49928600919E+01 -0.79989224321E+00 -0.91206690495E+01  0.10429099118E+02  0.10500000000E+00 0.  1.
         13    1    4    4    0    0  0.86241055504E+01 -0.15327777122E+01 -0.15921790063E+02  0.18172479959E+02  0.10500000000E+00 0. -1.
    3000001    1    5    5    0    0 -0.10652849521E+02  0.25968495758E+01  0.23125451290E+02  0.25612757134E+02  0.10000000000E+01 0. -1.
        -13    1    6    6    0    0 -0.12253356471E+02  0.71277516168E+01  0.16008066874E+02  0.21382675650E+02  0.10500000000E+00 0. -1.
         13    1    6    6    0    0 -0.89761233069E+01  0.51370343525E+01  0.11550788542E+02  0.15504568762E+02  0.10500000000E+00 0.  1.
</event>
<event>
11    0  0.3467594E-009  0.9118800E+02  0.7816531E-02  0.1126479E+00
         25   -1    0    0    0    0  0.00000000000E+00  0.00000000000E+00  0.99999998245E-14  0.12500000000E+03  0.12500000000E+03 0.  0.
    3000001    1    3    3    0    0  0.81657986398E+01  0.18079241164E+01 -0.15659399614E+02  0.17781047587E+02  0.10000000000E+01 0.  1.
    1000022    2    1    0    0    0  0.24335440814E+02 -0.85570823265E+01 -0.56042954470E+02  0.62499999852E+02  0.99999949135E+01 0.  0.
    3000022    2    3    3    0    0  0.16169642174E+02 -0.10365006443E+02 -0.40383554856E+02  0.44718952264E+02  0.25000452486E+00 0.  0.
    1000022    2    1    0    0    0 -0.24335440814E+02  0.85570823265E+01  0.56042954470E+02  0.62500000148E+02  0.99999967644E+01 0.  0.
    3000022    2    5    5    0    0 -0.14564145185E+01 -0.18840373598E+01  0.65733759413E+01  0.69958919732E+01  0.24998642445E+00 0.  0.
        -13    1    4    4    0    0  0.58940319805E+01 -0.37689223208E+01 -0.14846252071E+02  0.16412392087E+02  0.10500000000E+00 0. -1.
         13    1    4    4    0    0  0.10275610193E+02 -0.65960841221E+01 -0.25537302784E+02  0.28306560177E+02  0.10500000000E+00 0.  1.
    3000001    1    5    5    0    0 -0.22879026295E+02  0.10441119686E+02  0.49469578528E+02  0.55504108175E+02  0.10000000000E+01 0. -1.
        -13    1    6    6    0    0 -0.55082397168E+00 -0.76158068271E+00  0.24403908645E+01  0.26172399117E+01  0.10500000000E+00 0.  1.
         13    1    6    6    0    0 -0.90559054686E+00 -0.11224566771E+01  0.41329850768E+01  0.43786520615E+01  0.10500000000E+00 0. -1.
</event>
<event>
11    0  0.3467594E-009  0.9118800E+02  0.7816531E-02  0.1126479E+00
         25   -1    0    0    0    0  0.00000000000E+00  0.00000000000E+00  0.99999998245E-14  0.12500000000E+03  0.12500000000E+03 0.  0.
    3000001    1    3    3    0    0  0.33302411447E+02  0.24432377098E+02  0.39197846900E+02  0.56951407888E+02  0.10000000000E+01 0. -1.
    1000022    2    1    0    0    0  0.33648029654E+02  0.27058422593E+02  0.44067015404E+02  0.62499999393E+02  0.99999972366E+01 0.  0.
    3000022    2    3    3    0    0  0.34561820707E+00  0.26260454942E+01  0.48691685038E+01  0.55485915047E+01  0.24999777107E+00 0.  0.
    1000022    2    1    0    0    0 -0.33648029654E+02 -0.27058422593E+02 -0.44067015404E+02  0.62500000607E+02  0.10000004823E+02 0.  0.
    3000022    2    5    5    0    0 -0.27370339679E+01 -0.54285014654E+01 -0.97349881539E+01  0.11480090401E+02  0.24999633542E+00 0.  0.
        -13    1    4    4    0    0  0.28561048038E+00  0.19536198257E+01  0.36008370788E+01  0.41079503938E+01  0.10500000000E+00 0.  1.
         13    1    4    4    0    0  0.60007726690E-01  0.67242566856E+00  0.12683314249E+01  0.14406411109E+01  0.10500000000E+00 0. -1.
    3000001    1    5    5    0    0 -0.30910995686E+02 -0.21629921127E+02 -0.34332027250E+02  0.51019910205E+02  0.10000000000E+01 0. -1.
        -13    1    6    6    0    0 -0.10186137028E+01 -0.21490476840E+01 -0.37667903500E+01  0.44559751306E+01  0.10500000000E+00 0.  1.
         13    1    6    6    0    0 -0.17184202651E+01 -0.32794537814E+01 -0.59681978039E+01  0.70241152709E+01  0.10500000000E+00 0. -1.
</event>
<event>
11    0  0.3467594E-009  0.9118800E+02  0.7816531E-02  0.1126479E+00
         25   -1    0    0    0    0  0.00000000000E+00  0.00000000000E+00  0.99999998245E-14  0.12500000000E+03  0.12500000000E+03 0.  0.
    3000001    1    3    3    0    0  0.18335823994E+02 -0.20188608099E+02  0.36845535983E+01  0.27538305571E+02  0.10000000000E+01 0. -1.
    1000022    2    1    0    0    0  0.38253433588E+02 -0.44561115332E+02  0.18900575975E+02  0.62500000577E+02  0.10000005952E+02 0.  0.
    3000022    2    3    3    0    0  0.19917609594E+02 -0.24372507233E+02  0.15216022377E+02  0.34961695006E+02  0.24999989150E+00 0.  0.
    1000022    2    1    0    0    0 -0.38253433588E+02  0.44561115332E+02 -0.18900575975E+02  0.62499999423E+02  0.99999987393E+01 0.  0.
    3000022    2    5    5    0    0 -0.16245251749E+02  0.14488036181E+02 -0.11010753841E+02  0.24394888863E+02  0.25001143705E+00 0.  0.
        -13    1    4    4    0    0  0.11818073890E+02 -0.14536962630E+02  0.90101881161E+01  0.20789051635E+02  0.10500000000E+00 0.  1.
         13    1    4    4    0    0  0.80995357039E+01 -0.98355446024E+01  0.62058342607E+01  0.14172643371E+02  0.10500000000E+00 0. -1.
    3000001    1    5    5    0    0 -0.22008181839E+02  0.30073079151E+02 -0.78898221340E+01  0.38105110560E+02  0.10000000000E+01 0.  1.
        -13    1    6    6    0    0 -0.93305399283E+01  0.83151050461E+01 -0.62489550378E+01  0.13973561155E+02  0.10500000000E+00 0.  1.
         13    1    6    6    0    0 -0.69147118205E+01  0.61729311346E+01 -0.47617988034E+01  0.10421327708E+02  0.10500000000E+00 0. -1.
</event>
<event>
11    0  0.3467594E-009  0.9118800E+02  0.7816531E-02  0.1126479E+00
         25   -1    0    0    0    0  0.00000000000E+00  0.00000000000E+00  0.99999998245E-14  0.12500000000E+03  0.12500000000E+03 0.  0.
    3000001    1    3    3    0    0  0.31435302627E+02 -0.27799715508E+02 -0.31994459267E+00  0.41977432010E+02  0.10000000000E+01 0. -1.
    1000022    2    1    0    0    0  0.44446765550E+02 -0.42368525915E+02  0.59701326321E+01  0.62500004070E+02  0.10000053458E+02 0.  0.
    3000022    2    3    3    0    0  0.13011462923E+02 -0.14568810406E+02  0.62900772248E+01  0.20522572061E+02  0.24997690150E+00 0.  0.
    1000022    2    1    0    0    0 -0.44446765550E+02  0.42368525915E+02 -0.59701326321E+01  0.62499995930E+02  0.10000002578E+02 0.  0.
    3000022    2    5    5    0    0 -0.41770254225E+02  0.39563904470E+02 -0.31828275095E+01  0.57621606425E+02  0.24992203264E+00 0.  0.
        -13    1    4    4    0    0  0.54878406439E+01 -0.60596723646E+01  0.25998138827E+01  0.85793986574E+01  0.10500000000E+00 0. -1.
         13    1    4    4    0    0  0.75236222788E+01 -0.85091380419E+01  0.36902633421E+01  0.11943173403E+02  0.10500000000E+00 0.  1.
    3000001    1    5    5    0    0 -0.26765113241E+01  0.28046214443E+01 -0.27873051226E+01  0.48783895048E+01  0.10000000000E+01 0. -1.
        -13    1    6    6    0    0 -0.26462789000E+02  0.24990277447E+02 -0.19901136664E+01  0.36452225528E+02  0.10500000000E+00 0. -1.
         13    1    6    6    0    0 -0.15307465226E+02  0.14573627023E+02 -0.11927138431E+01  0.21169380897E+02  0.10500000000E+00 0.  1.
</event>
<event>
11    0  0.3467594E-009  0.9118800E+02  0.7816531E-02  0.1126479E+00
         25   -1    0    0    0    0  0.00000000000E+00  0.00000000000E+00  0.99999998245E-14  0.12500000000E+03  0.12500000000E+03 0.  0.
    3000001    1    3    3    0    0 -0.18780129429E+02 -0.25864910511E+02 -0.10942634600E+00  0.31979662775E+02  0.10000000000E+01 0.  1.
    1000022    2    1    0    0    0 -0.28534654134E+02 -0.54591319107E+02 -0.34367665764E+01  0.62499999990E+02  0.10000001292E+02 0.  0.
    3000022    2    3    3    0    0 -0.97545247050E+01 -0.28726408596E+02 -0.33273402304E+01  0.30520337215E+02  0.24997522003E+00 0.  0.
    1000022    2    1    0    0    0  0.28534654134E+02  0.54591319107E+02  0.34367665764E+01  0.62500000010E+02  0.10000001418E+02 0.  0.
    3000022    2    5    5    0    0  0.19361528879E+02  0.45361761670E+02  0.35402506668E+01  0.49448499468E+02  0.25000514600E+00 0.  0.
        -13    1    4    4    0    0 -0.48939870792E+01 -0.14203442864E+02 -0.16387342457E+01  0.15112424480E+02  0.10500000000E+00 0. -1.
         13    1    4    4    0    0 -0.48605376258E+01 -0.14522965732E+02 -0.16886059847E+01  0.15407912735E+02  0.10500000000E+00 0.  1.
    3000001    1    5    5    0    0  0.91731252553E+01  0.92295574373E+01 -0.10348409036E+00  0.13051500542E+02  0.10000000000E+01 0. -1.
        -13    1    6    6    0    0  0.11636423679E+02  0.27411343617E+02  0.21145399195E+01  0.29854152458E+02  0.10500000000E+00 0.  1.
         13    1    6    6    0    0  0.77251051997E+01  0.17950418053E+02  0.14257107473E+01  0.19594347010E+02  0.10500000000E+00 0. -1.
</event>
<event>
11    0  0.3467594E-009  0.9118800E+02  0.7816531E-02  0.1126479E+00
         25   -1    0    0    0    0  0.00000000000E+00  0.00000000000E+00  0.99999998245E-14  0.12500000000E+03  0.12500000000E+03 0.  0.
    3000001    1    3    3    0    0  0.27359293061E+02 -0.16971225210E+02 -0.42088614376E+02  0.53000045868E+02  0.10000000000E+01 0.  1.
    1000022    2    1    0    0    0  0.35249853483E+02 -0.18356682100E+02 -0.47188240575E+02  0.62499999785E+02  0.99999988148E+01 0.  0.
    3000022    2    3    3    0    0  0.78905604212E+01 -0.13854568895E+01 -0.50996261996E+01  0.94999539170E+01  0.25000499371E+00 0.  0.
    1000022    2    1    0    0    0 -0.35249853483E+02  0.18356682100E+02  0.47188240575E+02  0.62500000215E+02  0.10000001501E+02 0.  0.
    3000022    2    5    5    0    0 -0.77235116841E+01  0.64584313667E+00  0.55932857104E+01  0.95612282251E+01  0.24998808421E+00 0.  0.
        -13    1    4    4    0    0  0.31420555035E+01 -0.49566802223E+00 -0.20604550827E+01  0.37913981225E+01  0.10500000000E+00 0.  1.
         13    1    4    4    0    0  0.47485049177E+01 -0.88978886727E+00 -0.30391711170E+01  0.57085557945E+01  0.10500000000E+00 0. -1.
    3000001    1    5    5    0    0 -0.27526341798E+02  0.17710838963E+02  0.41594954865E+02  0.52938771990E+02  0.10000000000E+01 0.  1.
        -13    1    6    6    0    0 -0.31704856040E+01  0.32856330161E+00  0.23132108906E+01  0.39397845668E+01  0.10500000000E+00 0.  1.
         13    1    6    6    0    0 -0.45530260801E+01  0.31727983506E+00  0.32800748199E+01  0.56214436583E+01  0.10500000000E+00 0. -1.
</event>
<event>
11    0  0.3467594E-009  0.9118800E+02  0.7816531E-02  0.1126479E+00
         25   -1    0    0    0    0  0.00000000000E+00  0.00000000000E+00  0.99999998245E-14  0.12500000000E+03  0.12500000000E+03 0.  0.
    3000001    1    3    3    0    0  0.88103687153E+01 -0.46070504288E+01 -0.27950699702E+02  0.29683145460E+02  0.10000000000E+01 0. -1.
    1000022    2    1    0    0    0  0.24659890428E+02 -0.16146371696E+01 -0.56529042245E+02  0.62500001484E+02  0.10000015964E+02 0.  0.
    3000022    2    3    3    0    0  0.15849521712E+02  0.29924132592E+01 -0.28578342543E+02  0.32816856024E+02  0.25000238666E+00 0.  0.
    1000022    2    1    0    0    0 -0.24659890428E+02  0.16146371696E+01  0.56529042245E+02  0.62499998516E+02  0.99999974138E+01 0.  0.
    3000022    2    5    5    0    0 -0.15758660939E+02 -0.37300203089E+01  0.35879652889E+02  0.39365726737E+02  0.25000800016E+00 0.  0.
        -13    1    4    4    0    0  0.57550737789E+01  0.11462517543E+01 -0.10399893929E+02  0.11941674339E+02  0.10500000000E+00 0.  1.
         13    1    4    4    0    0  0.10094447933E+02  0.18461615049E+01 -0.18178448614E+02  0.20875181685E+02  0.10500000000E+00 0. -1.
    3000001    1    5    5    0    0 -0.89012294883E+01  0.53446574785E+01  0.20649389356E+02  0.23134271779E+02  0.10000000000E+01 0.  1.
        -13    1    6    6    0    0 -0.48820797302E+01 -0.11179463354E+01  0.11174419956E+02  0.12245945976E+02  0.10500000000E+00 0.  1.
         13    1    6    6    0    0 -0.10876581209E+02 -0.26120739735E+01  0.24705232933E+02  0.27119780761E+02  0.10500000000E+00 0. -1.
</event>
