<event>
 6    1  0.8861680E-004  0.4290345E+03  0.7818608E-02  0.1034165E+00
          1   -1    0    0  502    0  0.00000000000E+00  0.00000000000E+00  0.44259145280E+03  0.44259145280E+03  0.00000000000E+00 0.  1.
         -1   -1    0    0    0  501 -0.00000000000E+00 -0.00000000000E+00 -0.41992989925E+03  0.41992989925E+03  0.00000000000E+00 0. -1.
    9000007    2    1    2  502    0  0.28356544695E+02  0.15231583160E+03  0.53617770748E+02  0.43244869125E+03  0.40016596438E+03 0.  0.
    9000005    1    3    3    0    0 -0.12014587371E+03 -0.81997395849E+02  0.53644715260E+02  0.15503986379E+03  0.99999687468E+00 0.  0.
          4    1    3    3  502    0  0.14850241840E+03  0.23431322745E+03 -0.26944512084E-01  0.27740882746E+03  0.00000000000E+00 0.  1.
   -9000007    1    1    2    0  501 -0.28356544695E+02 -0.15231583160E+03 -0.30956217200E+02  0.43007266080E+03  0.40000000000E+03 0. -1.
<mgrwt>
<rscale>  2 0.42903449E+03</rscale>
<asrwt>0</asrwt>
<pdfrwt beam="1">  1        1 0.68090993E-01 0.42903449E+03</pdfrwt>
<pdfrwt beam="2">  1       -1 0.64604600E-01 0.42903449E+03</pdfrwt>
<totfact> 0.13244729E+02</totfact>
</mgrwt>
</event>
<event>
 6    1  0.8861680E-004  0.4974511E+03  0.7818608E-02  0.1014446E+00
         -2   -1    0    0    0  501 -0.00000000000E+00  0.00000000000E+00  0.17794023036E+03  0.17794023036E+03  0.00000000000E+00 0.  1.
          2   -1    0    0  502    0  0.00000000000E+00 -0.00000000000E+00 -0.14002283655E+04  0.14002283655E+04  0.00000000000E+00 0. -1.
    9000007    2    1    2  502    0  0.92722424622E+02  0.28074954131E+03 -0.54602534375E+03  0.73867522721E+03  0.40009956549E+03 0.  0.
    9000005    1    3    3    0    0 -0.77985728039E+02 -0.69249531626E+02 -0.15498610137E+03  0.18681264148E+03  0.99999687468E+00 0.  0.
          4    1    3    3  502    0  0.17070815266E+03  0.34999907294E+03 -0.39103924238E+03  0.55186258573E+03  0.00000000000E+00 0.  1.
   -9000007    1    1    2    0  501 -0.92722424622E+02 -0.28074954131E+03 -0.67626279141E+03  0.83949336866E+03  0.40000000000E+03 0. -1.
<mgrwt>
<rscale>  2 0.49745108E+03</rscale>
<asrwt>0</asrwt>
<pdfrwt beam="1">  1        2 0.21541975E+00 0.49745108E+03</pdfrwt>
<pdfrwt beam="2">  1       -2 0.27375419E-01 0.49745108E+03</pdfrwt>
<totfact> 0.18228896E+02</totfact>
</mgrwt>
</event>
<event>
 6    1  0.8861680E-004  0.4099370E+03  0.7818608E-02  0.1040392E+00
          2   -1    0    0  502    0  0.00000000000E+00  0.00000000000E+00  0.42444223469E+04  0.42444223469E+04  0.00000000000E+00 0. -1.
         -2   -1    0    0    0  501 -0.00000000000E+00 -0.00000000000E+00 -0.39603182258E+02  0.39603182258E+02  0.00000000000E+00 0.  1.
    9000007    2    1    2  502    0  0.53671078505E+02  0.72904976053E+02  0.21362356230E+04  0.21751790225E+04  0.39963160840E+03 0.  0.
    9000005    1    3    3    0    0 -0.11638072490E+03  0.45065462533E+02  0.17222098421E+04  0.17267261245E+04  0.99999687468E+00 0.  0.
          4    1    3    3  502    0  0.17005180341E+03  0.27839513520E+02  0.41402578099E+03  0.44845289795E+03  0.00000000000E+00 0.  1.
   -9000007    1    1    2    0  501 -0.53671078505E+02 -0.72904976053E+02  0.20685835416E+04  0.21088465067E+04  0.40000000000E+03 0.  1.
<mgrwt>
<rscale>  2 0.40993703E+03</rscale>
<asrwt>0</asrwt>
<pdfrwt beam="1">  1        2 0.65298770E+00 0.40993703E+03</pdfrwt>
<pdfrwt beam="2">  1       -2 0.60928006E-02 0.40993703E+03</pdfrwt>
<totfact> 0.38978204E+01</totfact>
</mgrwt>
</event>
<event>
 6    1  0.8861680E-004  0.4691829E+03  0.7818608E-02  0.1022151E+00
          1   -1    0    0  502    0  0.00000000000E+00  0.00000000000E+00  0.24093489823E+03  0.24093489823E+03  0.00000000000E+00 0. -1.
         -1   -1    0    0    0  501 -0.00000000000E+00 -0.00000000000E+00 -0.15060681503E+04  0.15060681503E+04  0.00000000000E+00 0.  1.
    9000007    2    1    2  502    0  0.22455081749E+03  0.98025241937E+02 -0.84816648162E+02  0.47689309141E+03  0.40025134495E+03 0.  0.
    9000005    1    3    3    0    0 -0.66075026808E+02  0.31472674271E+02  0.10163212471E+03  0.12524586684E+03  0.99999687468E+00 0.  0.
          4    1    3    3  502    0  0.29062584430E+03  0.66552567666E+02 -0.18644877288E+03  0.35164722457E+03  0.00000000000E+00 0.  1.
   -9000007    1    1    2    0  501 -0.22455081749E+03 -0.98025241937E+02 -0.11803166039E+04  0.12701099571E+04  0.40000000000E+03 0. -1.
<mgrwt>
<rscale>  2 0.46918287E+03</rscale>
<asrwt>0</asrwt>
<pdfrwt beam="1">  1        1 0.37066908E-01 0.46918287E+03</pdfrwt>
<pdfrwt beam="2">  1       -1 0.23170279E+00 0.46918287E+03</pdfrwt>
<totfact> 0.11545311E+01</totfact>
</mgrwt>
</event>
<event>
 6    1  0.8861680E-004  0.4429902E+03  0.7818608E-02  0.1029833E+00
          2   -1    0    0  502    0  0.00000000000E+00  0.00000000000E+00  0.43524682819E+03  0.43524682819E+03  0.00000000000E+00 0.  1.
         -2   -1    0    0    0  501 -0.00000000000E+00 -0.00000000000E+00 -0.50104477851E+03  0.50104477851E+03  0.00000000000E+00 0. -1.
    9000007    2    1    2  502    0  0.19903871934E+03 -0.16103844678E+02  0.11545371833E+03  0.45387279177E+03  0.39089027159E+03 0.  0.
    9000005    1    3    3    0    0  0.15669481412E+03 -0.13137402428E+03 -0.82845967421E+02  0.22062831491E+03  0.99999687468E+00 0.  0.
          4    1    3    3  502    0  0.42343905224E+02  0.11527017960E+03  0.19829968575E+03  0.23324447686E+03  0.00000000000E+00 0.  1.
   -9000007    1    1    2    0  501 -0.19903871934E+03  0.16103844678E+02 -0.18125166865E+03  0.48241881493E+03  0.40000000000E+03 0. -1.
<mgrwt>
<rscale>  2 0.44299016E+03</rscale>
<asrwt>0</asrwt>
<pdfrwt beam="1">  1        2 0.66961051E-01 0.44299016E+03</pdfrwt>
<pdfrwt beam="2">  1       -2 0.77083812E-01 0.44299016E+03</pdfrwt>
<totfact> 0.11175959E+02</totfact>
</mgrwt>
</event>
<event>
 6    1  0.8861680E-004  0.4389075E+03  0.7818608E-02  0.1031083E+00
          1   -1    0    0  502    0  0.00000000000E+00  0.00000000000E+00  0.24381075363E+04  0.24381075363E+04  0.00000000000E+00 0. -1.
         -1   -1    0    0    0  501 -0.00000000000E+00 -0.00000000000E+00 -0.10183921342E+03  0.10183921342E+03  0.00000000000E+00 0.  1.
    9000007    2    1    2  502    0 -0.12206322256E+03 -0.13291116171E+03  0.17695721609E+04  0.18232115496E+04  0.40018734916E+03 0.  0.
    9000005    1    3    3    0    0 -0.58982469066E+02 -0.25216950772E+03  0.14952123716E+04  0.15174746879E+04  0.99999687468E+00 0.  0.
          4    1    3    3  502    0 -0.63080753494E+02  0.11925834601E+03  0.27435978931E+03  0.30573686160E+03  0.00000000000E+00 0.  1.
   -9000007    1    1    2    0  501  0.12206322256E+03  0.13291116171E+03  0.56669616193E+03  0.71673520016E+03  0.40000000000E+03 0.  1.
<mgrwt>
<rscale>  2 0.43890745E+03</rscale>
<asrwt>0</asrwt>
<pdfrwt beam="1">  1        1 0.37509342E+00 0.43890745E+03</pdfrwt>
<pdfrwt beam="2">  1       -1 0.15667573E-01 0.43890745E+03</pdfrwt>
<totfact> 0.50179307E+01</totfact>
</mgrwt>
</event>
<event>
 6    1  0.8861680E-004  0.4016093E+03  0.7818608E-02  0.1043224E+00
          2   -1    0    0  502    0  0.00000000000E+00  0.00000000000E+00  0.88257469914E+03  0.88257469914E+03  0.00000000000E+00 0. -1.
         -2   -1    0    0    0  501 -0.00000000000E+00 -0.00000000000E+00 -0.18862349827E+03  0.18862349827E+03  0.00000000000E+00 0.  1.
    9000007    2    1    2  502    0 -0.13387983679E+02  0.21246209691E+02  0.25315339900E+03  0.47543537408E+03  0.40164849304E+03 0.  0.
    9000005    1    3    3    0    0  0.19057613493E+03  0.35762246276E+02  0.89664956916E+02  0.21363287658E+03  0.99999687468E+00 0.  0.
          4    1    3    3  502    0 -0.20396411861E+03 -0.14516036585E+02  0.16348844208E+03  0.26180249749E+03  0.00000000000E+00 0.  1.
   -9000007    1    1    2    0  501  0.13387983679E+02 -0.21246209691E+02  0.44079780187E+03  0.59576282333E+03  0.40000000000E+03 0. -1.
<mgrwt>
<rscale>  2 0.40160932E+03</rscale>
<asrwt>0</asrwt>
<pdfrwt beam="1">  1        2 0.13578072E+00 0.40160932E+03</pdfrwt>
<pdfrwt beam="2">  1       -2 0.29019000E-01 0.40160932E+03</pdfrwt>
<totfact> 0.33755989E+02</totfact>
</mgrwt>
</event>
<event>
 6    1  0.8861680E-004  0.4735553E+03  0.7818608E-02  0.1020922E+00
          2   -1    0    0  502    0  0.00000000000E+00  0.00000000000E+00  0.61704850505E+03  0.61704850505E+03  0.00000000000E+00 0. -1.
         -2   -1    0    0    0  501 -0.00000000000E+00 -0.00000000000E+00 -0.55939268824E+03  0.55939268824E+03  0.00000000000E+00 0.  1.
    9000007    2    1    2  502    0 -0.14448830325E+03  0.21019525341E+03 -0.31935495806E+03  0.57047416555E+03  0.39798777618E+03 0.  0.
    9000005    1    3    3    0    0 -0.18554834396E+03  0.69990595059E+02 -0.36670947679E+03  0.41689772332E+03  0.99999687468E+00 0.  0.
          4    1    3    3  502    0  0.41060040708E+02  0.14020465835E+03  0.47354518730E+02  0.15357644224E+03  0.00000000000E+00 0.  1.
   -9000007    1    1    2    0  501  0.14448830325E+03 -0.21019525341E+03  0.37701077487E+03  0.60596702773E+03  0.40000000000E+03 0. -1.
<mgrwt>
<rscale>  2 0.47355529E+03</rscale>
<asrwt>0</asrwt>
<pdfrwt beam="1">  1        2 0.94930539E-01 0.47355529E+03</pdfrwt>
<pdfrwt beam="2">  1       -2 0.86060413E-01 0.47355529E+03</pdfrwt>
<totfact> 0.58193860E+01</totfact>
</mgrwt>
</event>
<event>
 6    1  0.8861680E-004  0.4038745E+03  0.7818608E-02  0.1042446E+00
          4   -1    0    0  502    0  0.00000000000E+00  0.00000000000E+00  0.11503558601E+04  0.11503558601E+04  0.00000000000E+00 0. -1.
         -4   -1    0    0    0  501 -0.00000000000E+00 -0.00000000000E+00 -0.14900580580E+03  0.14900580580E+03  0.00000000000E+00 0.  1.
    9000007    2    1    2  502    0 -0.53397404119E+02  0.25090534864E+02  0.35722307357E+03  0.53884842800E+03  0.39908456042E+03 0.  0.
    9000005    1    3    3    0    0 -0.20392678903E+03 -0.68711228332E+02  0.25674179207E+03  0.33499957608E+03  0.99999687468E+00 0.  0.
          4    1    3    3  502    0  0.15052938491E+03  0.93801763195E+02  0.10048128149E+03  0.20384885192E+03  0.00000000000E+00 0.  1.
   -9000007    1    1    2    0  501  0.53397404119E+02 -0.25090534864E+02  0.64412698073E+03  0.76051323789E+03  0.40000000000E+03 0. -1.
<mgrwt>
<rscale>  2 0.40387455E+03</rscale>
<asrwt>0</asrwt>
<pdfrwt beam="1">  1        4 0.17697782E+00 0.40387455E+03</pdfrwt>
<pdfrwt beam="2">  1       -4 0.22923971E-01 0.40387455E+03</pdfrwt>
<totfact> 0.66305748E+00</totfact>
</mgrwt>
</event>
<event>
 6    1  0.8861680E-004  0.5066217E+03  0.7818608E-02  0.1012065E+00
         -2   -1    0    0    0  501 -0.00000000000E+00  0.00000000000E+00  0.17120701451E+03  0.17120701451E+03  0.00000000000E+00 0. -1.
          2   -1    0    0  502    0  0.00000000000E+00 -0.00000000000E+00 -0.30048977950E+04  0.30048977950E+04  0.00000000000E+00 0.  1.
    9000007    2    1    2  502    0 -0.30758798787E+03 -0.57938331776E+02 -0.29090927664E+03  0.58309401182E+03  0.39674071989E+03 0.  0.
    9000005    1    3    3    0    0 -0.19799098805E+02 -0.96488578928E+02  0.69292352387E+02  0.12043454766E+03  0.99999687468E+00 0.  0.
          4    1    3    3  502    0 -0.28778888907E+03  0.38550247152E+02 -0.36020162903E+03  0.46265946416E+03  0.00000000000E+00 0.  1.
   -9000007    1    1    2    0  501  0.30758798787E+03  0.57938331776E+02 -0.25427815038E+04  0.25930107977E+04  0.40000000000E+03 0.  1.
<mgrwt>
<rscale>  2 0.50662169E+03</rscale>
<asrwt>0</asrwt>
<pdfrwt beam="1">  1        2 0.46229197E+00 0.50662169E+03</pdfrwt>
<pdfrwt beam="2">  1       -2 0.26339541E-01 0.50662169E+03</pdfrwt>
<totfact> 0.25026054E+01</totfact>
</mgrwt>
</event>
<event>
 6    1  0.8861680E-004  0.6691667E+03  0.7818608E-02  0.9771464E-01
         -1   -1    0    0    0  501 -0.00000000000E+00  0.00000000000E+00  0.75463655925E+03  0.75463655925E+03  0.00000000000E+00 0. -1.
          1   -1    0    0  502    0  0.00000000000E+00 -0.00000000000E+00 -0.59408372131E+03  0.59408372131E+03  0.00000000000E+00 0.  1.
    9000007    2    1    2  502    0  0.50191402807E+03 -0.18966649362E+03  0.57009651980E+02  0.67151110923E+03  0.39973240929E+03 0.  0.
    9000005    1    3    3    0    0 -0.34228126061E+01 -0.15960857702E+03  0.41902079414E+02  0.16505574137E+03  0.99999687468E+00 0.  0.
          4    1    3    3  502    0  0.50533684067E+03 -0.30057916595E+02  0.15107572566E+02  0.50645536787E+03  0.00000000000E+00 0.  1.
   -9000007    1    1    2    0  501 -0.50191402807E+03  0.18966649362E+03  0.10354318596E+03  0.67720917133E+03  0.40000000000E+03 0. -1.
<mgrwt>
<rscale>  2 0.66916669E+03</rscale>
<asrwt>0</asrwt>
<pdfrwt beam="1">  1        1 0.91397495E-01 0.66916669E+03</pdfrwt>
<pdfrwt beam="2">  1       -1 0.11609793E+00 0.66916669E+03</pdfrwt>
<totfact> 0.24118024E+01</totfact>
</mgrwt>
</event>
<event>
 6    1  0.8861680E-004  0.5135679E+03  0.7818608E-02  0.1010297E+00
         -1   -1    0    0    0  501 -0.00000000000E+00  0.00000000000E+00  0.44169557614E+03  0.44169557614E+03  0.00000000000E+00 0. -1.
          1   -1    0    0  502    0  0.00000000000E+00 -0.00000000000E+00 -0.59772621883E+03  0.59772621883E+03  0.00000000000E+00 0.  1.
    9000007    2    1    2  502    0 -0.26064373879E+03 -0.18726717011E+03 -0.94449792466E+02  0.52289846280E+03  0.40186799765E+03 0.  0.
    9000005    1    3    3    0    0 -0.33446270845E+03 -0.24556783195E+03 -0.47129180348E+02  0.41760151230E+03  0.99999687468E+00 0.  0.
          4    1    3    3  502    0  0.73818969669E+02  0.58300661847E+02 -0.47320612118E+02  0.10529695051E+03  0.00000000000E+00 0.  1.
   -9000007    1    1    2    0  501  0.26064373879E+03  0.18726717011E+03 -0.61580850223E+02  0.51652333218E+03  0.40000000000E+03 0. -1.
<mgrwt>
<rscale>  2 0.51356794E+03</rscale>
<asrwt>0</asrwt>
<pdfrwt beam="1">  1        1 0.91957879E-01 0.51356794E+03</pdfrwt>
<pdfrwt beam="2">  1       -1 0.67953166E-01 0.51356794E+03</pdfrwt>
<totfact> 0.78663764E+01</totfact>
</mgrwt>
</event>
<event>
 6    1  0.8861680E-004  0.4008681E+03  0.7818608E-02  0.1043480E+00
          2   -1    0    0  502    0  0.00000000000E+00  0.00000000000E+00  0.83646201974E+03  0.83646201974E+03  0.00000000000E+00 0.  1.
         -2   -1    0    0    0  501 -0.00000000000E+00 -0.00000000000E+00 -0.26545056500E+03  0.26545056500E+03  0.00000000000E+00 0. -1.
    9000007    2    1    2  502    0  0.16506421788E+02 -0.36433991888E+01  0.57536189225E+03  0.70153193757E+03  0.40102371010E+03 0.  0.
    9000005    1    3    3    0    0  0.54959761153E+02 -0.78749771279E+02 -0.21765433081E+02  0.98472513390E+02  0.99999687468E+00 0.  0.
          4    1    3    3  502    0 -0.38453339365E+02  0.75106372090E+02  0.59712732533E+03  0.60305942418E+03  0.00000000000E+00 0.  1.
   -9000007    1    1    2    0  501 -0.16506421788E+02  0.36433991888E+01 -0.43504375031E+01  0.40038064717E+03  0.40000000000E+03 0. -1.
<mgrwt>
<rscale>  2 0.40086808E+03</rscale>
<asrwt>0</asrwt>
<pdfrwt beam="1">  1        2 0.12868646E+00 0.40086808E+03</pdfrwt>
<pdfrwt beam="2">  1       -2 0.40838549E-01 0.40086808E+03</pdfrwt>
<totfact> 0.19076471E+02</totfact>
</mgrwt>
</event>
<event>
 6    1  0.8861680E-004  0.5028381E+03  0.7818608E-02  0.1013041E+00
         -2   -1    0    0    0  501 -0.00000000000E+00  0.00000000000E+00  0.20634246413E+03  0.20634246413E+03  0.00000000000E+00 0. -1.
          2   -1    0    0  502    0  0.00000000000E+00 -0.00000000000E+00 -0.19700083645E+04  0.19700083645E+04  0.00000000000E+00 0.  1.
    9000007    2    1    2  502    0 -0.28757912956E+03 -0.10107774351E+03 -0.15507714929E+04  0.16302350032E+04  0.39981930503E+03 0.  0.
    9000005    1    3    3    0    0 -0.24461169978E+03 -0.67653662601E+02 -0.37271000654E+03  0.45091645646E+03  0.99999687468E+00 0.  0.
          4    1    3    3  502    0 -0.42967429779E+02 -0.33424080906E+02 -0.11780614863E+04  0.11793185468E+04  0.00000000000E+00 0.  1.
   -9000007    1    1    2    0  501  0.28757912956E+03  0.10107774351E+03 -0.21289440746E+03  0.54611582537E+03  0.40000000000E+03 0. -1.
<mgrwt>
<rscale>  2 0.50283814E+03</rscale>
<asrwt>0</asrwt>
<pdfrwt beam="1">  1        2 0.30307820E+00 0.50283814E+03</pdfrwt>
<pdfrwt beam="2">  1       -2 0.31744996E-01 0.50283814E+03</pdfrwt>
<totfact> 0.68077709E+01</totfact>
</mgrwt>
</event>
<event>
 6    1  0.8861680E-004  0.4007620E+03  0.7818608E-02  0.1043516E+00
          2   -1    0    0  502    0  0.00000000000E+00  0.00000000000E+00  0.24976536350E+03  0.24976536350E+03  0.00000000000E+00 0.  1.
         -2   -1    0    0    0  501 -0.00000000000E+00 -0.00000000000E+00 -0.65672962470E+03  0.65672962470E+03  0.00000000000E+00 0. -1.
    9000007    2    1    2  502    0 -0.32639269095E+01  0.25014150238E+02 -0.13803695569E+03  0.42383749413E+03  0.39993456885E+03 0.  0.
    9000005    1    3    3    0    0 -0.72666083396E+02 -0.17389598390E+03 -0.46387949529E+02  0.19409537539E+03  0.99999687468E+00 0.  0.
          4    1    3    3  502    0  0.69402156486E+02  0.19891013414E+03 -0.91649006160E+02  0.22974211873E+03  0.00000000000E+00 0.  1.
   -9000007    1    1    2    0  501  0.32639269095E+01 -0.25014150238E+02 -0.26892730551E+03  0.48265749407E+03  0.40000000000E+03 0. -1.
<mgrwt>
<rscale>  2 0.40076201E+03</rscale>
<asrwt>0</asrwt>
<pdfrwt beam="1">  1        2 0.38425441E-01 0.40076201E+03</pdfrwt>
<pdfrwt beam="2">  1       -2 0.10103533E+00 0.40076201E+03</pdfrwt>
<totfact> 0.11154532E+02</totfact>
</mgrwt>
</event>
<event>
 6    1  0.8861680E-004  0.4948944E+03  0.7818608E-02  0.1015120E+00
         -2   -1    0    0    0  501 -0.00000000000E+00  0.00000000000E+00  0.56729572151E+03  0.56729572151E+03  0.00000000000E+00 0. -1.
          2   -1    0    0  502    0  0.00000000000E+00 -0.00000000000E+00 -0.45386454726E+03  0.45386454726E+03  0.00000000000E+00 0.  1.
    9000007    2    1    2  502    0 -0.19607487601E+03  0.21579899105E+03  0.16945182527E+03  0.52301081842E+03  0.39976472275E+03 0.  0.
    9000005    1    3    3    0    0 -0.14193937409E+03 -0.30883892540E+02  0.22175568864E+03  0.26509844619E+03  0.99999687468E+00 0.  0.
          4    1    3    3  502    0 -0.54135501923E+02  0.24668288359E+03 -0.52303863367E+02  0.25791237223E+03  0.00000000000E+00 0.  1.
   -9000007    1    1    2    0  501  0.19607487601E+03 -0.21579899105E+03 -0.56020651022E+02  0.49814945035E+03  0.40000000000E+03 0. -1.
<mgrwt>
<rscale>  2 0.49489439E+03</rscale>
<asrwt>0</asrwt>
<pdfrwt beam="1">  1        2 0.69825315E-01 0.49489439E+03</pdfrwt>
<pdfrwt beam="2">  1       -2 0.87276265E-01 0.49489439E+03</pdfrwt>
<totfact> 0.80344882E+01</totfact>
</mgrwt>
</event>
<event>
 6    1  0.8861680E-004  0.4211361E+03  0.7818608E-02  0.1036697E+00
          1   -1    0    0  502    0  0.00000000000E+00  0.00000000000E+00  0.20880168469E+03  0.20880168469E+03  0.00000000000E+00 0. -1.
         -1   -1    0    0    0  501 -0.00000000000E+00 -0.00000000000E+00 -0.10917772631E+04  0.10917772631E+04  0.00000000000E+00 0.  1.
    9000007    2    1    2  502    0 -0.12444308789E+03 -0.34340206703E+02 -0.74855446958E+03  0.85929177779E+03  0.40172532100E+03 0.  0.
    9000005    1    3    3    0    0  0.29275899097E+02 -0.25382883364E+02  0.40085499064E+02  0.55760346705E+02  0.99999687468E+00 0.  0.
          4    1    3    3  502    0 -0.15371898699E+03 -0.89573233390E+01 -0.78863996864E+03  0.80353143108E+03  0.00000000000E+00 0.  1.
   -9000007    1    1    2    0  501  0.12444308789E+03  0.34340206703E+02 -0.13442110887E+03  0.44128717003E+03  0.40000000000E+03 0. -1.
<mgrwt>
<rscale>  2 0.42113608E+03</rscale>
<asrwt>0</asrwt>
<pdfrwt beam="1">  1        1 0.32123337E-01 0.42113608E+03</pdfrwt>
<pdfrwt beam="2">  1       -1 0.16796573E+00 0.42113608E+03</pdfrwt>
<totfact> 0.37940338E+01</totfact>
</mgrwt>
</event>
<event>
 6    1  0.8861680E-004  0.6609729E+03  0.7818608E-02  0.9786404E-01
         -2   -1    0    0    0  501 -0.00000000000E+00  0.00000000000E+00  0.24968305986E+03  0.24968305986E+03  0.00000000000E+00 0. -1.
          2   -1    0    0  502    0  0.00000000000E+00 -0.00000000000E+00 -0.18045348023E+04  0.18045348023E+04  0.00000000000E+00 0.  1.
    9000007    2    1    2  502    0 -0.39440134967E+03  0.34822807666E+03 -0.95643499951E+03  0.11626362247E+04  0.40017479278E+03 0.  0.
    9000005    1    3    3    0    0  0.49953785801E+02 -0.31505379161E+02 -0.18863604107E+03  0.19766771515E+03  0.99999687468E+00 0.  0.
          4    1    3    3  502    0 -0.44435513547E+03  0.37973345582E+03 -0.76779895845E+03  0.96496850958E+03  0.00000000000E+00 0.  1.
   -9000007    1    1    2    0  501  0.39440134967E+03 -0.34822807666E+03 -0.59841674292E+03  0.89158163743E+03  0.40000000000E+03 0. -1.
<mgrwt>
<rscale>  2 0.66097288E+03</rscale>
<asrwt>0</asrwt>
<pdfrwt beam="1">  1        2 0.27762074E+00 0.66097288E+03</pdfrwt>
<pdfrwt beam="2">  1       -2 0.38412779E-01 0.66097288E+03</pdfrwt>
<totfact> 0.56932735E+01</totfact>
</mgrwt>
</event>
<event>
 6    1  0.8861680E-004  0.5930994E+03  0.7818608E-02  0.9919827E-01
         -2   -1    0    0    0  501 -0.00000000000E+00  0.00000000000E+00  0.30041414309E+03  0.30041414309E+03  0.00000000000E+00 0. -1.
          2   -1    0    0  502    0  0.00000000000E+00 -0.00000000000E+00 -0.12848200739E+04  0.12848200739E+04  0.00000000000E+00 0.  1.
    9000007    2    1    2  502    0 -0.42883369641E+03 -0.88374251247E+02 -0.72821539276E+03  0.93921414049E+03  0.40014646815E+03 0.  0.
    9000005    1    3    3    0    0 -0.17684870860E+03 -0.19669344645E+03 -0.16229410427E+03  0.31032910576E+03  0.99999687468E+00 0.  0.
          4    1    3    3  502    0 -0.25198498782E+03  0.10831919520E+03 -0.56592128849E+03  0.62888503472E+03  0.00000000000E+00 0.  1.
   -9000007    1    1    2    0  501  0.42883369641E+03  0.88374251247E+02 -0.25619053805E+03  0.64602007650E+03  0.40000000000E+03 0. -1.
<mgrwt>
<rscale>  2 0.59309944E+03</rscale>
<asrwt>0</asrwt>
<pdfrwt beam="1">  1        2 0.19766462E+00 0.59309944E+03</pdfrwt>
<pdfrwt beam="2">  1       -2 0.46217561E-01 0.59309944E+03</pdfrwt>
<totfact> 0.77385381E+01</totfact>
</mgrwt>
</event>
<event>
 6    1  0.8861680E-004  0.6034305E+03  0.7818608E-02  0.9898314E-01
          1   -1    0    0  502    0  0.00000000000E+00  0.00000000000E+00  0.86791657788E+03  0.86791657788E+03  0.00000000000E+00 0. -1.
         -1   -1    0    0    0  501 -0.00000000000E+00 -0.00000000000E+00 -0.41958027328E+03  0.41958027328E+03  0.00000000000E+00 0.  1.
    9000007    2    1    2  502    0  0.41060510389E+03  0.18876549273E+03  0.21807883828E+03  0.64154990025E+03  0.39974858628E+03 0.  0.
    9000005    1    3    3    0    0  0.48282799867E+03  0.20793493453E+03  0.21109843687E+03  0.56650098265E+03  0.99999687468E+00 0.  0.
          4    1    3    3  502    0 -0.72222894785E+02 -0.19169441800E+02  0.69804014066E+01  0.75048917606E+02  0.00000000000E+00 0.  1.
   -9000007    1    1    2    0  501 -0.41060510389E+03 -0.18876549273E+03  0.23025746632E+03  0.64594695090E+03  0.40000000000E+03 0. -1.
<mgrwt>
<rscale>  2 0.60343054E+03</rscale>
<asrwt>0</asrwt>
<pdfrwt beam="1">  1        1 0.13352563E+00 0.60343054E+03</pdfrwt>
<pdfrwt beam="2">  1       -1 0.64550811E-01 0.60343054E+03</pdfrwt>
<totfact> 0.48937826E+01</totfact>
</mgrwt>
</event>
<event>
 6    1  0.8861680E-004  0.4090150E+03  0.7818608E-02  0.1040702E+00
         -2   -1    0    0    0  501 -0.00000000000E+00  0.00000000000E+00  0.17460579512E+03  0.17460579512E+03  0.00000000000E+00 0.  1.
          2   -1    0    0  502    0  0.00000000000E+00 -0.00000000000E+00 -0.95936227048E+03  0.95936227048E+03  0.00000000000E+00 0. -1.
    9000007    2    1    2  502    0  0.13481805790E+01 -0.85783216180E+02 -0.37189652614E+03  0.55275045107E+03  0.39983178617E+03 0.  0.
    9000005    1    3    3    0    0 -0.22202057391E+02  0.13537547634E+03 -0.23160206694E+02  0.13912888310E+03  0.99999687468E+00 0.  0.
          4    1    3    3  502    0  0.23550237970E+02 -0.22115869252E+03 -0.34873631945E+03  0.41362156797E+03  0.00000000000E+00 0.  1.
   -9000007    1    1    2    0  501 -0.13481805790E+01  0.85783216180E+02 -0.41285994922E+03  0.58121761453E+03  0.40000000000E+03 0. -1.
<mgrwt>
<rscale>  2 0.40901503E+03</rscale>
<asrwt>0</asrwt>
<pdfrwt beam="1">  1        2 0.14759420E+00 0.40901503E+03</pdfrwt>
<pdfrwt beam="2">  1       -2 0.26862430E-01 0.40901503E+03</pdfrwt>
<totfact> 0.34595892E+02</totfact>
</mgrwt>
</event>
<event>
 6    1  0.8861680E-004  0.4578792E+03  0.7818608E-02  0.1025398E+00
         -2   -1    0    0    0  501 -0.00000000000E+00  0.00000000000E+00  0.16200557081E+03  0.16200557081E+03  0.00000000000E+00 0. -1.
          2   -1    0    0  502    0  0.00000000000E+00 -0.00000000000E+00 -0.14901744690E+04  0.14901744690E+04  0.00000000000E+00 0.  1.
    9000007    2    1    2  502    0 -0.10933139778E+03  0.19773946793E+03 -0.96179582687E+03  0.10645717697E+04  0.39649412166E+03 0.  0.
    9000005    1    3    3    0    0  0.13756676956E+03  0.13538278965E+03 -0.31473176576E+03  0.36920211293E+03  0.99999687468E+00 0.  0.
          4    1    3    3  502    0 -0.24689816734E+03  0.62356678285E+02 -0.64706406110E+03  0.69536965675E+03  0.00000000000E+00 0.  1.
   -9000007    1    1    2    0  501  0.10933139778E+03 -0.19773946793E+03 -0.36637307132E+03  0.58760827012E+03  0.40000000000E+03 0.  1.
<mgrwt>
<rscale>  2 0.45787924E+03</rscale>
<asrwt>0</asrwt>
<pdfrwt beam="1">  1        2 0.22925761E+00 0.45787924E+03</pdfrwt>
<pdfrwt beam="2">  1       -2 0.24923934E-01 0.45787924E+03</pdfrwt>
<totfact> 0.19342721E+02</totfact>
</mgrwt>
</event>
<event>
 6    1  0.8861680E-004  0.4802015E+03  0.7818608E-02  0.1019080E+00
         -1   -1    0    0    0  501 -0.00000000000E+00  0.00000000000E+00  0.56083089539E+03  0.56083089539E+03  0.00000000000E+00 0. -1.
          1   -1    0    0  502    0  0.00000000000E+00 -0.00000000000E+00 -0.42670679221E+03  0.42670679221E+03  0.00000000000E+00 0.  1.
    9000007    2    1    2  502    0 -0.25688211617E+03 -0.67364499046E+02 -0.27166142997E+02  0.48103897994E+03  0.40016759434E+03 0.  0.
    9000005    1    3    3    0    0 -0.66125443939E+02  0.15909763108E+03  0.41199107987E+02  0.17715246836E+03  0.99999687468E+00 0.  0.
          4    1    3    3  502    0 -0.19075667223E+03 -0.22646213013E+03 -0.68365250984E+02  0.30388651159E+03  0.00000000000E+00 0.  1.
   -9000007    1    1    2    0  501  0.25688211617E+03  0.67364499046E+02  0.16129024618E+03  0.50649870765E+03  0.40000000000E+03 0. -1.
<mgrwt>
<rscale>  2 0.48020146E+03</rscale>
<asrwt>0</asrwt>
<pdfrwt beam="1">  1        1 0.65647199E-01 0.48020146E+03</pdfrwt>
<pdfrwt beam="2">  1       -1 0.86281676E-01 0.48020146E+03</pdfrwt>
<totfact> 0.76096703E+01</totfact>
</mgrwt>
</event>
<event>
 6    1  0.8861680E-004  0.4671629E+03  0.7818608E-02  0.1022724E+00
          2   -1    0    0  502    0  0.00000000000E+00  0.00000000000E+00  0.16907435844E+04  0.16907435844E+04  0.00000000000E+00 0. -1.
         -2   -1    0    0    0  501 -0.00000000000E+00 -0.00000000000E+00 -0.22387862550E+03  0.22387862550E+03  0.00000000000E+00 0.  1.
    9000007    2    1    2  502    0 -0.17999540353E+03  0.16073461814E+03  0.11049709165E+03  0.48006034158E+03  0.40001795151E+03 0.  0.
    9000005    1    3    3    0    0  0.93351784382E+02 -0.15560482553E+02  0.12222085469E+03  0.15458208687E+03  0.99999687468E+00 0.  0.
          4    1    3    3  502    0 -0.27334718791E+03  0.17629510070E+03 -0.11723763040E+02  0.32547825471E+03  0.00000000000E+00 0.  1.
   -9000007    1    1    2    0  501  0.17999540353E+03 -0.16073461814E+03  0.13563678672E+04  0.14345618683E+04  0.40000000000E+03 0. -1.
<mgrwt>
<rscale>  2 0.46716287E+03</rscale>
<asrwt>0</asrwt>
<pdfrwt beam="1">  1        2 0.26011439E+00 0.46716287E+03</pdfrwt>
<pdfrwt beam="2">  1       -2 0.34442867E-01 0.46716287E+03</pdfrwt>
<totfact> 0.83051496E+01</totfact>
</mgrwt>
</event>
<event>
 6    1  0.8861680E-004  0.4618674E+03  0.7818608E-02  0.1024241E+00
          2   -1    0    0  502    0  0.00000000000E+00  0.00000000000E+00  0.62984333029E+03  0.62984333029E+03  0.00000000000E+00 0.  1.
         -2   -1    0    0    0  501 -0.00000000000E+00 -0.00000000000E+00 -0.37488872665E+03  0.37488872665E+03  0.00000000000E+00 0. -1.
    9000007    2    1    2  502    0 -0.19785073122E+03  0.11966930721E+03 -0.28666615304E+02  0.46260047627E+03  0.39963955120E+03 0.  0.
    9000005    1    3    3    0    0 -0.17384693913E+03  0.19362650630E+03  0.12627663358E+03  0.28924171616E+03  0.99999687468E+00 0.  0.
          4    1    3    3  502    0 -0.24003792091E+02 -0.73957199098E+02 -0.15494324888E+03  0.17335876011E+03  0.00000000000E+00 0.  1.
   -9000007    1    1    2    0  501  0.19785073122E+03 -0.11966930721E+03  0.28362121894E+03  0.54213158067E+03  0.40000000000E+03 0.  1.
<mgrwt>
<rscale>  2 0.46186740E+03</rscale>
<asrwt>0</asrwt>
<pdfrwt beam="1">  1        2 0.96898974E-01 0.46186740E+03</pdfrwt>
<pdfrwt beam="2">  1       -2 0.57675189E-01 0.46186740E+03</pdfrwt>
<totfact> 0.13557204E+02</totfact>
</mgrwt>
</event>
<event>
 6    1  0.8861680E-004  0.4707500E+03  0.7818608E-02  0.1021709E+00
         -2   -1    0    0    0  501 -0.00000000000E+00  0.00000000000E+00  0.26249728115E+03  0.26249728115E+03  0.00000000000E+00 0.  1.
          2   -1    0    0  502    0  0.00000000000E+00 -0.00000000000E+00 -0.21602351438E+04  0.21602351438E+04  0.00000000000E+00 0. -1.
    9000007    2    1    2  502    0 -0.24377291601E+03 -0.50686980022E+02 -0.18940299976E+04  0.19515550137E+04  0.39902748706E+03 0.  0.
    9000005    1    3    3    0    0 -0.21730467832E+03 -0.56651209333E+02 -0.19079085359E+04  0.19210795570E+04  0.99999687468E+00 0.  0.
          4    1    3    3  502    0 -0.26468237695E+02  0.59642293110E+01  0.13878538363E+02  0.30475456765E+02  0.00000000000E+00 0.  1.
   -9000007    1    1    2    0  501  0.24377291601E+03  0.50686980022E+02 -0.37078650285E+01  0.47117741116E+03  0.40000000000E+03 0.  1.
<mgrwt>
<rscale>  2 0.47074997E+03</rscale>
<asrwt>0</asrwt>
<pdfrwt beam="1">  1        2 0.33234386E+00 0.47074997E+03</pdfrwt>
<pdfrwt beam="2">  1       -2 0.40384198E-01 0.47074997E+03</pdfrwt>
<totfact> 0.34242934E+01</totfact>
</mgrwt>
</event>
<event>
 6    1  0.8861680E-004  0.5055790E+03  0.7818608E-02  0.1012333E+00
         -2   -1    0    0    0  501 -0.00000000000E+00  0.00000000000E+00  0.24463775844E+04  0.24463775844E+04  0.00000000000E+00 0.  1.
          2   -1    0    0  502    0  0.00000000000E+00 -0.00000000000E+00 -0.12644870634E+03  0.12644870634E+03  0.00000000000E+00 0. -1.
    9000007    2    1    2  502    0  0.30235487671E+03 -0.68024145461E+02  0.62301376517E+03  0.80207315827E+03  0.39891032049E+03 0.  0.
    9000005    1    3    3    0    0  0.19522368780E+03  0.14740697149E+03  0.42540833142E+03  0.49072838919E+03  0.99999687468E+00 0.  0.
          4    1    3    3  502    0  0.10713118890E+03 -0.21543111695E+03  0.19760543376E+03  0.31134476908E+03  0.00000000000E+00 0.  1.
   -9000007    1    1    2    0  501 -0.30235487671E+03  0.68024145461E+02  0.16969151129E+04  0.17707531325E+04  0.40000000000E+03 0.  1.
<mgrwt>
<rscale>  2 0.50557898E+03</rscale>
<asrwt>0</asrwt>
<pdfrwt beam="1">  1        2 0.19453649E-01 0.50557898E+03</pdfrwt>
<pdfrwt beam="2">  1       -2 0.37636575E+00 0.50557898E+03</pdfrwt>
<totfact> 0.34178215E+00</totfact>
</mgrwt>
</event>
<event>
 6    1  0.8861680E-004  0.4407411E+03  0.7818608E-02  0.1030520E+00
         -1   -1    0    0    0  501 -0.00000000000E+00  0.00000000000E+00  0.20008977337E+04  0.20008977337E+04  0.00000000000E+00 0.  1.
          1   -1    0    0  502    0  0.00000000000E+00 -0.00000000000E+00 -0.11245441552E+03  0.11245441552E+03  0.00000000000E+00 0. -1.
    9000007    2    1    2  502    0 -0.18251429839E+03  0.30365467980E+02  0.55358884118E+03  0.70762457763E+03  0.40004800591E+03 0.  0.
    9000005    1    3    3    0    0 -0.16847610811E+03  0.14775325019E+03  0.11206954082E+03  0.25055100064E+03  0.99999687468E+00 0.  0.
          4    1    3    3  502    0 -0.14038190278E+02 -0.11738778221E+03  0.44151930036E+03  0.45707357699E+03  0.00000000000E+00 0.  1.
   -9000007    1    1    2    0  501  0.18251429839E+03 -0.30365467980E+02  0.13348544770E+04  0.14057275715E+04  0.40000000000E+03 0.  1.
<mgrwt>
<rscale>  2 0.44074112E+03</rscale>
<asrwt>0</asrwt>
<pdfrwt beam="1">  1        1 0.17300681E-01 0.44074112E+03</pdfrwt>
<pdfrwt beam="2">  1       -1 0.30783039E+00 0.44074112E+03</pdfrwt>
<totfact> 0.10237252E+01</totfact>
</mgrwt>
</event>
<event>
 6    1  0.8861680E-004  0.5241636E+03  0.7818608E-02  0.1007657E+00
         -2   -1    0    0    0  501 -0.00000000000E+00  0.00000000000E+00  0.33104489751E+03  0.33104489751E+03  0.00000000000E+00 0.  1.
          2   -1    0    0  502    0  0.00000000000E+00 -0.00000000000E+00 -0.84581510838E+03  0.84581510838E+03  0.00000000000E+00 0. -1.
    9000007    2    1    2  502    0 -0.20512078559E+02  0.33848294106E+03 -0.33788658693E+03  0.62343497649E+03  0.39939000680E+03 0.  0.
    9000005    1    3    3    0    0 -0.55935605805E+02  0.18948357758E+03 -0.40927139351E+03  0.45446330073E+03  0.99999687468E+00 0.  0.
          4    1    3    3  502    0  0.35423527246E+02  0.14899936347E+03  0.71384806583E+02  0.16897167576E+03  0.00000000000E+00 0.  1.
   -9000007    1    1    2    0  501  0.20512078559E+02 -0.33848294106E+03 -0.17688362395E+03  0.55342502941E+03  0.40000000000E+03 0.  1.
<mgrwt>
<rscale>  2 0.52416365E+03</rscale>
<asrwt>0</asrwt>
<pdfrwt beam="1">  1        2 0.13012540E+00 0.52416365E+03</pdfrwt>
<pdfrwt beam="2">  1       -2 0.50929984E-01 0.52416365E+03</pdfrwt>
<totfact> 0.11988086E+02</totfact>
</mgrwt>
</event>
<event>
 6    1  0.8861680E-004  0.4577885E+03  0.7818608E-02  0.1025425E+00
         -2   -1    0    0    0  501 -0.00000000000E+00  0.00000000000E+00  0.58166963306E+03  0.58166963306E+03  0.00000000000E+00 0.  1.
          2   -1    0    0  502    0  0.00000000000E+00 -0.00000000000E+00 -0.85860205875E+03  0.85860205875E+03  0.00000000000E+00 0. -1.
    9000007    2    1    2  502    0  0.20514390123E+03  0.85479791813E+02 -0.68710738139E+03  0.82575211580E+03  0.40044873350E+03 0.  0.
    9000005    1    3    3    0    0  0.77839203202E+02 -0.13815592295E+03 -0.44508075210E+03  0.47248690615E+03  0.99999687468E+00 0.  0.
          4    1    3    3  502    0  0.12730469803E+03  0.22363571476E+03 -0.24202662929E+03  0.35326520964E+03  0.00000000000E+00 0.  1.
   -9000007    1    1    2    0  501 -0.20514390123E+03 -0.85479791813E+02  0.41017495571E+03  0.61451957602E+03  0.40000000000E+03 0.  1.
<mgrwt>
<rscale>  2 0.45778852E+03</rscale>
<asrwt>0</asrwt>
<pdfrwt beam="1">  1        2 0.13209262E+00 0.45778852E+03</pdfrwt>
<pdfrwt beam="2">  1       -2 0.89487636E-01 0.45778852E+03</pdfrwt>
<totfact> 0.35145823E+01</totfact>
</mgrwt>
</event>
<event>
 6    1  0.8861680E-004  0.4355080E+03  0.7818608E-02  0.1032134E+00
          2   -1    0    0  502    0  0.00000000000E+00  0.00000000000E+00  0.92206063251E+03  0.92206063251E+03  0.00000000000E+00 0. -1.
         -2   -1    0    0    0  501 -0.00000000000E+00 -0.00000000000E+00 -0.31738930655E+03  0.31738930655E+03  0.00000000000E+00 0.  1.
    9000007    2    1    2  502    0  0.34384245225E+02  0.16884040846E+03 -0.65305094226E+02  0.44035184529E+03  0.39994453675E+03 0.  0.
    9000005    1    3    3    0    0  0.15711357498E+03  0.24473033766E+03 -0.52070066167E+02  0.29544865104E+03  0.99999687468E+00 0.  0.
          4    1    3    3  502    0 -0.12272932975E+03 -0.75889929209E+02 -0.13235028059E+02  0.14490319425E+03  0.00000000000E+00 0.  1.
   -9000007    1    1    2    0  501 -0.34384245225E+02 -0.16884040846E+03  0.66997642019E+03  0.79909809376E+03  0.40000000000E+03 0. -1.
<mgrwt>
<rscale>  2 0.43550795E+03</rscale>
<asrwt>0</asrwt>
<pdfrwt beam="1">  1        2 0.14185548E+00 0.43550795E+03</pdfrwt>
<pdfrwt beam="2">  1       -2 0.48829124E-01 0.43550795E+03</pdfrwt>
<totfact> 0.11710797E+02</totfact>
</mgrwt>
</event>
<event>
 6    1  0.8861680E-004  0.5367334E+03  0.7818608E-02  0.1004612E+00
         -2   -1    0    0    0  501 -0.00000000000E+00  0.00000000000E+00  0.41289367575E+03  0.41289367575E+03  0.00000000000E+00 0.  1.
          2   -1    0    0  502    0  0.00000000000E+00 -0.00000000000E+00 -0.72959386860E+03  0.72959386860E+03  0.00000000000E+00 0. -1.
    9000007    2    1    2  502    0 -0.19801214699E+03  0.29857662205E+03 -0.27768254848E+03  0.60408324815E+03  0.39931461702E+03 0.  0.
    9000005    1    3    3    0    0 -0.35891762069E+01  0.20963615250E+03 -0.32342776749E+03  0.38544353594E+03  0.99999687468E+00 0.  0.
          4    1    3    3  502    0 -0.19442297079E+03  0.88940469545E+02  0.45745219004E+02  0.21863971221E+03  0.00000000000E+00 0.  1.
   -9000007    1    1    2    0  501  0.19801214699E+03 -0.29857662205E+03 -0.39017644369E+02  0.53840429620E+03  0.40000000000E+03 0.  1.
<mgrwt>
<rscale>  2 0.53673342E+03</rscale>
<asrwt>0</asrwt>
<pdfrwt beam="1">  1        2 0.11224521E+00 0.53673342E+03</pdfrwt>
<pdfrwt beam="2">  1       -2 0.63522105E-01 0.53673342E+03</pdfrwt>
<totfact> 0.91698845E+01</totfact>
</mgrwt>
</event>
<event>
 6    1  0.8861680E-004  0.4868530E+03  0.7818608E-02  0.1017269E+00
         -2   -1    0    0    0  501 -0.00000000000E+00  0.00000000000E+00  0.39598262167E+03  0.39598262167E+03  0.00000000000E+00 0. -1.
          2   -1    0    0  502    0  0.00000000000E+00 -0.00000000000E+00 -0.97215893197E+03  0.97215893197E+03  0.00000000000E+00 0.  1.
    9000007    2    1    2  502    0  0.10541857294E+03 -0.25719524628E+03 -0.71205794202E+03  0.86244768570E+03  0.39940834686E+03 0.  0.
    9000005    1    3    3    0    0 -0.63451970841E+02 -0.15494854823E+03 -0.54795200998E+02  0.17617808958E+03  0.99999687468E+00 0.  0.
          4    1    3    3  502    0  0.16887054379E+03 -0.10224669805E+03 -0.65726274102E+03  0.68626959612E+03  0.00000000000E+00 0.  1.
   -9000007    1    1    2    0  501 -0.10541857294E+03  0.25719524628E+03  0.13588163171E+03  0.50569386794E+03  0.40000000000E+03 0. -1.
<mgrwt>
<rscale>  2 0.48685302E+03</rscale>
<asrwt>0</asrwt>
<pdfrwt beam="1">  1        2 0.14956291E+00 0.48685302E+03</pdfrwt>
<pdfrwt beam="2">  1       -2 0.60920404E-01 0.48685302E+03</pdfrwt>
<totfact> 0.68558883E+01</totfact>
</mgrwt>
</event>
<event>
 6    1  0.8861680E-004  0.3995806E+03  0.7818608E-02  0.1043925E+00
          2   -1    0    0  502    0  0.00000000000E+00  0.00000000000E+00  0.21453044268E+03  0.21453044268E+03  0.00000000000E+00 0.  1.
         -2   -1    0    0    0  501 -0.00000000000E+00 -0.00000000000E+00 -0.77967586361E+03  0.77967586361E+03  0.00000000000E+00 0. -1.
    9000007    2    1    2  502    0  0.55053689055E+02 -0.17667804834E+00 -0.38559121645E+03  0.55231191592E+03  0.39158259202E+03 0.  0.
    9000005    1    3    3    0    0 -0.13300134773E+03 -0.20451066663E+02 -0.13927360762E+02  0.13528701341E+03  0.99999687468E+00 0.  0.
          4    1    3    3  502    0  0.18805503678E+03  0.20274388615E+02 -0.37166385568E+03  0.41702490251E+03  0.00000000000E+00 0.  1.
   -9000007    1    1    2    0  501 -0.55053689055E+02  0.17667804834E+00 -0.17955420448E+03  0.44189439037E+03  0.40000000000E+03 0.  1.
<mgrwt>
<rscale>  2 0.39958059E+03</rscale>
<asrwt>0</asrwt>
<pdfrwt beam="1">  1        2 0.33004683E-01 0.39958059E+03</pdfrwt>
<pdfrwt beam="2">  1       -2 0.11995014E+00 0.39958059E+03</pdfrwt>
<totfact> 0.87410738E+01</totfact>
</mgrwt>
</event>
<event>
 6    1  0.8861680E-004  0.5989629E+03  0.7818608E-02  0.9907560E-01
         -1   -1    0    0    0  501 -0.00000000000E+00  0.00000000000E+00  0.23727130680E+03  0.23727130680E+03  0.00000000000E+00 0. -1.
          1   -1    0    0  502    0  0.00000000000E+00 -0.00000000000E+00 -0.18430831486E+04  0.18430831486E+04  0.00000000000E+00 0.  1.
    9000007    2    1    2  502    0  0.33091044652E+03 -0.29848770985E+03 -0.36219655244E+03  0.70007346064E+03  0.40039963930E+03 0.  0.
    9000005    1    3    3    0    0  0.30766737344E+03 -0.25979026425E+03 -0.44845748038E+03  0.60271494571E+03  0.99999687468E+00 0.  0.
          4    1    3    3  502    0  0.23243073083E+02 -0.38697445597E+02  0.86260927936E+02  0.97358514936E+02  0.00000000000E+00 0.  1.
   -9000007    1    1    2    0  501 -0.33091044652E+03  0.29848770985E+03 -0.12436152894E+04  0.13802809948E+04  0.40000000000E+03 0.  1.
<mgrwt>
<rscale>  2 0.59896288E+03</rscale>
<asrwt>0</asrwt>
<pdfrwt beam="1">  1        1 0.28355126E+00 0.59896288E+03</pdfrwt>
<pdfrwt beam="2">  1       -1 0.36503277E-01 0.59896288E+03</pdfrwt>
<totfact> 0.29012549E+01</totfact>
</mgrwt>
</event>
<event>
 6    1  0.8861680E-004  0.4084578E+03  0.7818608E-02  0.1040890E+00
          2   -1    0    0  502    0  0.00000000000E+00  0.00000000000E+00  0.86560799914E+03  0.86560799914E+03  0.00000000000E+00 0. -1.
         -2   -1    0    0    0  501 -0.00000000000E+00 -0.00000000000E+00 -0.19476544806E+03  0.19476544806E+03  0.00000000000E+00 0.  1.
    9000007    2    1    2  502    0  0.77665489264E+02 -0.28908299285E+02  0.28133232687E+03  0.49593936535E+03  0.39992544052E+03 0.  0.
    9000005    1    3    3    0    0  0.21908852427E+03 -0.10849270874E+03  0.19074903483E+03  0.31009134718E+03  0.99999687468E+00 0.  0.
          4    1    3    3  502    0 -0.14142303501E+03  0.79584409453E+02  0.90583292042E+02  0.18584801817E+03  0.00000000000E+00 0.  1.
   -9000007    1    1    2    0  501 -0.77665489264E+02  0.28908299285E+02  0.38951022421E+03  0.56443408185E+03  0.40000000000E+03 0. -1.
<mgrwt>
<rscale>  2 0.40845782E+03</rscale>
<asrwt>0</asrwt>
<pdfrwt beam="1">  1        2 0.13317046E+00 0.40845782E+03</pdfrwt>
<pdfrwt beam="2">  1       -2 0.29963915E-01 0.40845782E+03</pdfrwt>
<totfact> 0.32658239E+02</totfact>
</mgrwt>
</event>
<event>
 6    1  0.8861680E-004  0.4431902E+03  0.7818608E-02  0.1029772E+00
          2   -1    0    0  502    0  0.00000000000E+00  0.00000000000E+00  0.10283939972E+03  0.10283939972E+03  0.00000000000E+00 0.  1.
         -2   -1    0    0    0  501 -0.00000000000E+00 -0.00000000000E+00 -0.19100171945E+04  0.19100171945E+04  0.00000000000E+00 0. -1.
    9000007    2    1    2  502    0 -0.11816442932E+03 -0.14924647910E+03 -0.91019333887E+03  0.10124474489E+04  0.40045046982E+03 0.  0.
    9000005    1    3    3    0    0  0.11186088663E+03 -0.13500237602E+03 -0.60572895797E+03  0.63059263396E+03  0.99999687468E+00 0.  0.
          4    1    3    3  502    0 -0.23002531596E+03 -0.14244103083E+02 -0.30446438090E+03  0.38185481493E+03  0.00000000000E+00 0.  1.
   -9000007    1    1    2    0  501  0.11816442932E+03  0.14924647910E+03 -0.89698445588E+03  0.10004091453E+04  0.40000000000E+03 0.  1.
<mgrwt>
<rscale>  2 0.44319020E+03</rscale>
<asrwt>0</asrwt>
<pdfrwt beam="1">  1        2 0.15821446E-01 0.44319020E+03</pdfrwt>
<pdfrwt beam="2">  1       -2 0.29384879E+00 0.44319020E+03</pdfrwt>
<totfact> 0.14050862E+01</totfact>
</mgrwt>
</event>
<event>
 6    1  0.8861680E-004  0.4211851E+03  0.7818608E-02  0.1036681E+00
          2   -1    0    0  502    0  0.00000000000E+00  0.00000000000E+00  0.49913717422E+03  0.49913717422E+03  0.00000000000E+00 0.  1.
         -2   -1    0    0    0  501 -0.00000000000E+00 -0.00000000000E+00 -0.39660454841E+03  0.39660454841E+03  0.00000000000E+00 0. -1.
    9000007    2    1    2  502    0 -0.64951475442E+02  0.11575396899E+03  0.19558508279E+03  0.46414418412E+03  0.39944789841E+03 0.  0.
    9000005    1    3    3    0    0  0.62848066992E+02 -0.14553667789E+02 -0.98663075791E+02  0.11788592490E+03  0.99999687468E+00 0.  0.
          4    1    3    3  502    0 -0.12779954243E+03  0.13030763678E+03  0.29424815858E+03  0.34625825922E+03  0.00000000000E+00 0.  1.
   -9000007    1    1    2    0  501  0.64951475442E+02 -0.11575396899E+03 -0.93052456984E+02  0.43159753851E+03  0.40000000000E+03 0. -1.
<mgrwt>
<rscale>  2 0.42118505E+03</rscale>
<asrwt>0</asrwt>
<pdfrwt beam="1">  1        2 0.76790334E-01 0.42118505E+03</pdfrwt>
<pdfrwt beam="2">  1       -2 0.61016085E-01 0.42118505E+03</pdfrwt>
<totfact> 0.15872777E+02</totfact>
</mgrwt>
</event>
<event>
 6    1  0.8861680E-004  0.5019857E+03  0.7818608E-02  0.1013262E+00
         -2   -1    0    0    0  501 -0.00000000000E+00  0.00000000000E+00  0.97059154180E+02  0.97059154180E+02  0.00000000000E+00 0. -1.
          2   -1    0    0  502    0  0.00000000000E+00 -0.00000000000E+00 -0.26721482076E+04  0.26721482076E+04  0.00000000000E+00 0.  1.
    9000007    2    1    2  502    0 -0.80073970900E+02 -0.29284874335E+03 -0.10537369415E+04  0.11671198249E+04  0.39954338507E+03 0.  0.
    9000005    1    3    3    0    0  0.97346688116E+02  0.10525174893E+02 -0.64359854471E+02  0.11717656700E+03  0.99999687468E+00 0.  0.
          4    1    3    3  502    0 -0.17742065902E+03 -0.30337391824E+03 -0.98937708702E+03  0.10499432579E+04  0.00000000000E+00 0.  1.
   -9000007    1    1    2    0  501  0.80073970900E+02  0.29284874335E+03 -0.15213521119E+04  0.16020875369E+04  0.40000000000E+03 0.  1.
<mgrwt>
<rscale>  2 0.50198568E+03</rscale>
<asrwt>0</asrwt>
<pdfrwt beam="1">  1        2 0.41109974E+00 0.50198568E+03</pdfrwt>
<pdfrwt beam="2">  1       -2 0.14932177E-01 0.50198568E+03</pdfrwt>
<totfact> 0.10541940E+02</totfact>
</mgrwt>
</event>
<event>
 6    1  0.8861680E-004  0.4026916E+03  0.7818608E-02  0.1042852E+00
          2   -1    0    0  502    0  0.00000000000E+00  0.00000000000E+00  0.95175817956E+03  0.95175817956E+03  0.00000000000E+00 0.  1.
         -2   -1    0    0    0  501 -0.00000000000E+00 -0.00000000000E+00 -0.18269225135E+03  0.18269225135E+03  0.00000000000E+00 0. -1.
    9000007    2    1    2  502    0  0.46865011834E+02  0.22072758418E+02  0.23670521792E+03  0.46654964348E+03  0.39869245496E+03 0.  0.
    9000005    1    3    3    0    0 -0.10974249832E+03 -0.38376124063E+02 -0.56058818211E+02  0.12907259170E+03  0.99999687468E+00 0.  0.
          4    1    3    3  502    0  0.15660751015E+03  0.60448882480E+02  0.29276403613E+03  0.33747705179E+03  0.00000000000E+00 0.  1.
   -9000007    1    1    2    0  501 -0.46865011834E+02 -0.22072758418E+02  0.53236071029E+03  0.66790078743E+03  0.40000000000E+03 0.  1.
<mgrwt>
<rscale>  2 0.40269161E+03</rscale>
<asrwt>0</asrwt>
<pdfrwt beam="1">  1        2 0.14642433E+00 0.40269161E+03</pdfrwt>
<pdfrwt beam="2">  1       -2 0.28106501E-01 0.40269161E+03</pdfrwt>
<totfact> 0.32246644E+02</totfact>
</mgrwt>
</event>
<event>
 6    1  0.8861680E-004  0.5085166E+03  0.7818608E-02  0.1011580E+00
          2   -1    0    0  502    0  0.00000000000E+00  0.00000000000E+00  0.26557159568E+04  0.26557159568E+04  0.00000000000E+00 0.  1.
         -2   -1    0    0    0  501 -0.00000000000E+00 -0.00000000000E+00 -0.12592011923E+03  0.12592011923E+03  0.00000000000E+00 0. -1.
    9000007    2    1    2  502    0 -0.19454816532E+03 -0.24675561385E+03  0.60236934509E+03  0.78821935955E+03  0.39962933986E+03 0.  0.
    9000005    1    3    3    0    0 -0.69305198319E+02 -0.32944038286E+03  0.30118660316E+03  0.45171733007E+03  0.99999687468E+00 0.  0.
          4    1    3    3  502    0 -0.12524296701E+03  0.82684769006E+02  0.30118274193E+03  0.33650202948E+03  0.00000000000E+00 0.  1.
   -9000007    1    1    2    0  501  0.19454816532E+03  0.24675561385E+03  0.19274264925E+04  0.19934167165E+04  0.40000000000E+03 0.  1.
<mgrwt>
<rscale>  2 0.50851655E+03</rscale>
<asrwt>0</asrwt>
<pdfrwt beam="1">  1        2 0.40857164E+00 0.50851655E+03</pdfrwt>
<pdfrwt beam="2">  1       -2 0.19372328E-01 0.50851655E+03</pdfrwt>
<totfact> 0.69050692E+01</totfact>
</mgrwt>
</event>
<event>
 6    1  0.8861680E-004  0.4185374E+03  0.7818608E-02  0.1037543E+00
          1   -1    0    0  502    0  0.00000000000E+00  0.00000000000E+00  0.92210856804E+03  0.92210856804E+03  0.00000000000E+00 0. -1.
         -1   -1    0    0    0  501 -0.00000000000E+00 -0.00000000000E+00 -0.20167799061E+03  0.20167799061E+03  0.00000000000E+00 0.  1.
    9000007    2    1    2  502    0 -0.12223058788E+03  0.11352739705E+02  0.49569600805E+03  0.64883937423E+03  0.40026091471E+03 0.  0.
    9000005    1    3    3    0    0  0.46892321757E+02  0.99150970855E+02  0.43535414938E+03  0.44895884025E+03  0.99999687468E+00 0.  0.
          4    1    3    3  502    0 -0.16912290964E+03 -0.87798231149E+02  0.60341858669E+02  0.19988053398E+03  0.00000000000E+00 0.  1.
   -9000007    1    1    2    0  501  0.12223058788E+03 -0.11352739705E+02  0.22473456939E+03  0.47494718442E+03  0.40000000000E+03 0. -1.
<mgrwt>
<rscale>  2 0.41853742E+03</rscale>
<asrwt>0</asrwt>
<pdfrwt beam="1">  1        1 0.14186285E+00 0.41853742E+03</pdfrwt>
<pdfrwt beam="2">  1       -1 0.31027384E-01 0.41853742E+03</pdfrwt>
<totfact> 0.17517508E+02</totfact>
</mgrwt>
</event>
<event>
 6    1  0.8861680E-004  0.5019321E+03  0.7818608E-02  0.1013276E+00
          2   -1    0    0  502    0  0.00000000000E+00  0.00000000000E+00  0.55476414329E+03  0.55476414329E+03  0.00000000000E+00 0. -1.
         -2   -1    0    0    0  501 -0.00000000000E+00 -0.00000000000E+00 -0.50926375350E+03  0.50926375350E+03  0.00000000000E+00 0.  1.
    9000007    2    1    2  502    0 -0.86498340715E+02 -0.29077489290E+03 -0.15230057699E+03  0.52443803055E+03  0.39975965386E+03 0.  0.
    9000005    1    3    3    0    0  0.94480466029E+02 -0.15458307215E+03  0.81727324893E+02  0.19875321453E+03  0.99999687468E+00 0.  0.
          4    1    3    3  502    0 -0.18097880674E+03 -0.13619182075E+03 -0.23402790189E+03  0.32568481603E+03  0.00000000000E+00 0.  1.
   -9000007    1    1    2    0  501  0.86498340715E+02  0.29077489290E+03  0.19780096678E+03  0.53958986624E+03  0.40000000000E+03 0.  1.
<mgrwt>
<rscale>  2 0.50193214E+03</rscale>
<asrwt>0</asrwt>
<pdfrwt beam="1">  1        2 0.85348330E-01 0.50193214E+03</pdfrwt>
<pdfrwt beam="2">  1       -2 0.78348270E-01 0.50193214E+03</pdfrwt>
<totfact> 0.81285546E+01</totfact>
</mgrwt>
</event>
<event>
 6    1  0.8861680E-004  0.7960802E+03  0.7818608E-02  0.9565708E-01
         -2   -1    0    0    0  501 -0.00000000000E+00  0.00000000000E+00  0.41377323009E+03  0.41377323009E+03  0.00000000000E+00 0.  1.
          2   -1    0    0  502    0  0.00000000000E+00 -0.00000000000E+00 -0.24546872404E+04  0.24546872404E+04  0.00000000000E+00 0. -1.
    9000007    2    1    2  502    0 -0.17187663241E+03 -0.66646714580E+03 -0.14096589470E+03  0.80847919018E+03  0.40005897601E+03 0.  0.
    9000005    1    3    3    0    0 -0.57875202262E+02 -0.56065372174E+01  0.83089535530E+02  0.10141914614E+03  0.99999687468E+00 0.  0.
          4    1    3    3  502    0 -0.11400143015E+03 -0.66086060858E+03 -0.22405543023E+03  0.70706004403E+03  0.00000000000E+00 0.  1.
   -9000007    1    1    2    0  501  0.17187663241E+03  0.66646714580E+03 -0.18999481156E+04  0.20599812803E+04  0.40000000000E+03 0. -1.
<mgrwt>
<rscale>  2 0.79608016E+03</rscale>
<asrwt>0</asrwt>
<pdfrwt beam="1">  1        2 0.37764419E+00 0.79608016E+03</pdfrwt>
<pdfrwt beam="2">  1       -2 0.63657420E-01 0.79608016E+03</pdfrwt>
<totfact> 0.87787970E+00</totfact>
</mgrwt>
</event>
<event>
 6    1  0.8861680E-004  0.4081836E+03  0.7818608E-02  0.1040982E+00
         -2   -1    0    0    0  501 -0.00000000000E+00  0.00000000000E+00  0.18853066704E+03  0.18853066704E+03  0.00000000000E+00 0. -1.
          2   -1    0    0  502    0  0.00000000000E+00 -0.00000000000E+00 -0.92773979375E+03  0.92773979375E+03  0.00000000000E+00 0.  1.
    9000007    2    1    2  502    0 -0.70056742004E+02 -0.41097123535E+02 -0.49115840900E+03  0.63864500164E+03  0.40004241617E+03 0.  0.
    9000005    1    3    3    0    0  0.92577796323E+02 -0.14828623267E+03 -0.99307918895E+02  0.20105352004E+03  0.99999687468E+00 0.  0.
          4    1    3    3  502    0 -0.16263453833E+03  0.10718910914E+03 -0.39185049010E+03  0.43759148160E+03  0.00000000000E+00 0.  1.
   -9000007    1    1    2    0  501  0.70056742004E+02  0.41097123535E+02 -0.24805071771E+03  0.47762545914E+03  0.40000000000E+03 0.  1.
<mgrwt>
<rscale>  2 0.40818364E+03</rscale>
<asrwt>0</asrwt>
<pdfrwt beam="1">  1        2 0.14272920E+00 0.40818364E+03</pdfrwt>
<pdfrwt beam="2">  1       -2 0.29004718E-01 0.40818364E+03</pdfrwt>
<totfact> 0.31539843E+02</totfact>
</mgrwt>
</event>
<event>
 6    1  0.8861680E-004  0.4569444E+03  0.7818608E-02  0.1025671E+00
          2   -1    0    0  502    0  0.00000000000E+00  0.00000000000E+00  0.18097945998E+04  0.18097945998E+04  0.00000000000E+00 0. -1.
         -2   -1    0    0    0  501 -0.00000000000E+00 -0.00000000000E+00 -0.12968580010E+03  0.12968580010E+03  0.00000000000E+00 0.  1.
    9000007    2    1    2  502    0  0.19160014441E+03  0.11087388679E+03  0.11618667135E+04  0.12484098579E+04  0.39948626918E+03 0.  0.
    9000005    1    3    3    0    0  0.22297395479E+03 -0.96177356999E+02  0.70991712085E+03  0.75030046447E+03  0.99999687468E+00 0.  0.
          4    1    3    3  502    0 -0.31373810374E+02  0.20705124379E+03  0.45194959269E+03  0.49810939347E+03  0.00000000000E+00 0.  1.
   -9000007    1    1    2    0  501 -0.19160014441E+03 -0.11087388679E+03  0.51824208617E+03  0.69107054198E+03  0.40000000000E+03 0.  1.
<mgrwt>
<rscale>  2 0.45694439E+03</rscale>
<asrwt>0</asrwt>
<pdfrwt beam="1">  1        2 0.27842992E+00 0.45694439E+03</pdfrwt>
<pdfrwt beam="2">  1       -2 0.19951663E-01 0.45694439E+03</pdfrwt>
<totfact> 0.19231161E+02</totfact>
</mgrwt>
</event>
<event>
 6    1  0.8861680E-004  0.4308167E+03  0.7818608E-02  0.1033602E+00
          1   -1    0    0  502    0  0.00000000000E+00  0.00000000000E+00  0.87864327704E+03  0.87864327704E+03  0.00000000000E+00 0.  1.
         -1   -1    0    0    0  501 -0.00000000000E+00 -0.00000000000E+00 -0.21233516693E+03  0.21233516693E+03  0.00000000000E+00 0. -1.
    9000007    2    1    2  502    0  0.18127819333E+02 -0.16164354513E+03  0.37158042545E+03  0.56817670180E+03  0.39786366807E+03 0.  0.
    9000005    1    3    3    0    0 -0.13624363416E+03  0.50280622296E+02  0.50751160400E+02  0.15384131144E+03  0.99999687468E+00 0.  0.
          4    1    3    3  502    0  0.15437145350E+03 -0.21192416743E+03  0.32082926505E+03  0.41433539037E+03  0.00000000000E+00 0.  1.
   -9000007    1    1    2    0  501 -0.18127819333E+02  0.16164354513E+03  0.29472768465E+03  0.52280174217E+03  0.40000000000E+03 0. -1.
<mgrwt>
<rscale>  2 0.43081672E+03</rscale>
<asrwt>0</asrwt>
<pdfrwt beam="1">  1        1 0.13517589E+00 0.43081672E+03</pdfrwt>
<pdfrwt beam="2">  1       -1 0.32666949E-01 0.43081672E+03</pdfrwt>
<totfact> 0.17329313E+02</totfact>
</mgrwt>
</event>
<event>
 6    1  0.8861680E-004  0.4557888E+03  0.7818608E-02  0.1026010E+00
         -2   -1    0    0    0  501 -0.00000000000E+00  0.00000000000E+00  0.43852183038E+03  0.43852183038E+03  0.00000000000E+00 0.  1.
          2   -1    0    0  502    0  0.00000000000E+00 -0.00000000000E+00 -0.48584638395E+03  0.48584638395E+03  0.00000000000E+00 0. -1.
    9000007    2    1    2  502    0 -0.20296046743E+03  0.82234036038E+02 -0.96621342784E+02  0.46569015572E+03  0.39946996036E+03 0.  0.
    9000005    1    3    3    0    0 -0.17025269366E+02  0.16252500814E+03 -0.18314377489E+03  0.24545239934E+03  0.99999687468E+00 0.  0.
          4    1    3    3  502    0 -0.18593519806E+03 -0.80290972098E+02  0.86522432108E+02  0.22023775638E+03  0.00000000000E+00 0.  1.
   -9000007    1    1    2    0  501  0.20296046743E+03 -0.82234036038E+02  0.49296789220E+02  0.45867805861E+03  0.40000000000E+03 0.  1.
<mgrwt>
<rscale>  2 0.45578877E+03</rscale>
<asrwt>0</asrwt>
<pdfrwt beam="1">  1        2 0.74745597E-01 0.45578877E+03</pdfrwt>
<pdfrwt beam="2">  1       -2 0.67464897E-01 0.45578877E+03</pdfrwt>
<totfact> 0.13187869E+02</totfact>
</mgrwt>
</event>
<event>
 6    1  0.8861680E-004  0.4865959E+03  0.7818608E-02  0.1017338E+00
         -2   -1    0    0    0  501 -0.00000000000E+00  0.00000000000E+00  0.11516920205E+04  0.11516920205E+04  0.00000000000E+00 0. -1.
          2   -1    0    0  502    0  0.00000000000E+00 -0.00000000000E+00 -0.45128663650E+03  0.45128663650E+03  0.00000000000E+00 0.  1.
    9000007    2    1    2  502    0  0.23263826563E+02 -0.27517296812E+03 -0.24101038432E+03  0.54348584587E+03  0.40128480074E+03 0.  0.
    9000005    1    3    3    0    0  0.19113762211E+03 -0.98929303579E+02 -0.20537678632E+03  0.29749154954E+03  0.99999687468E+00 0.  0.
          4    1    3    3  502    0 -0.16787379555E+03 -0.17624366454E+03 -0.35633598000E+02  0.24599429633E+03  0.00000000000E+00 0.  1.
   -9000007    1    1    2    0  501 -0.23263826563E+02  0.27517296812E+03  0.94141576833E+03  0.10594928111E+04  0.40000000000E+03 0. -1.
<mgrwt>
<rscale>  2 0.48659588E+03</rscale>
<asrwt>0</asrwt>
<pdfrwt beam="1">  1        2 0.69428714E-01 0.48659588E+03</pdfrwt>
<pdfrwt beam="2">  1       -2 0.17718339E+00 0.48659588E+03</pdfrwt>
<totfact> 0.13779939E+01</totfact>
</mgrwt>
</event>
<event>
 6    1  0.8861680E-004  0.4171994E+03  0.7818608E-02  0.1037982E+00
         -2   -1    0    0    0  501 -0.00000000000E+00  0.00000000000E+00  0.16150778669E+03  0.16150778669E+03  0.00000000000E+00 0.  1.
          2   -1    0    0  502    0  0.00000000000E+00 -0.00000000000E+00 -0.10782192918E+04  0.10782192918E+04  0.00000000000E+00 0. -1.
    9000007    2    1    2  502    0  0.32502289333E+02  0.11301855142E+03 -0.47237853735E+03  0.63041486130E+03  0.40056438063E+03 0.  0.
    9000005    1    3    3    0    0  0.94272778809E+02  0.16861455089E+02 -0.50304735947E+03  0.51208330509E+03  0.99999687468E+00 0.  0.
          4    1    3    3  502    0 -0.61770489475E+02  0.96157096333E+02  0.30668822121E+02  0.11833155621E+03  0.00000000000E+00 0.  1.
   -9000007    1    1    2    0  501 -0.32502289333E+02 -0.11301855142E+03 -0.44433296779E+03  0.60931221721E+03  0.40000000000E+03 0.  1.
<mgrwt>
<rscale>  2 0.41719942E+03</rscale>
<asrwt>0</asrwt>
<pdfrwt beam="1">  1        2 0.16587989E+00 0.41719942E+03</pdfrwt>
<pdfrwt beam="2">  1       -2 0.24847353E-01 0.41719942E+03</pdfrwt>
<totfact> 0.33559381E+02</totfact>
</mgrwt>
</event>
<event>
 6    1  0.8861680E-004  0.4335254E+03  0.7818608E-02  0.1032752E+00
         -2   -1    0    0    0  501 -0.00000000000E+00  0.00000000000E+00  0.54656095585E+03  0.54656095585E+03  0.00000000000E+00 0.  1.
          2   -1    0    0  502    0  0.00000000000E+00 -0.00000000000E+00 -0.34452227510E+03  0.34452227510E+03  0.00000000000E+00 0. -1.
    9000007    2    1    2  502    0  0.74615324827E+02  0.15125912666E+03  0.81462800818E+02  0.44054431708E+03  0.39874344797E+03 0.  0.
    9000005    1    3    3    0    0 -0.89819426191E+02  0.16401232756E+02 -0.11784751421E+03  0.14908241465E+03  0.99999687468E+00 0.  0.
          4    1    3    3  502    0  0.16443475102E+03  0.13485789390E+03  0.19931031503E+03  0.29146190243E+03  0.00000000000E+00 0.  1.
   -9000007    1    1    2    0  501 -0.74615324827E+02 -0.15125912666E+03  0.12057587993E+03  0.45053891388E+03  0.40000000000E+03 0.  1.
<mgrwt>
<rscale>  2 0.43352540E+03</rscale>
<asrwt>0</asrwt>
<pdfrwt beam="1">  1        2 0.53003427E-01 0.43352540E+03</pdfrwt>
<pdfrwt beam="2">  1       -2 0.84086301E-01 0.43352540E+03</pdfrwt>
<totfact> 0.11933177E+02</totfact>
</mgrwt>
</event>
<event>
 6    1  0.8861680E-004  0.4757298E+03  0.7818608E-02  0.1020315E+00
         -1   -1    0    0    0  501 -0.00000000000E+00  0.00000000000E+00  0.18055182562E+03  0.18055182562E+03  0.00000000000E+00 0. -1.
          1   -1    0    0  502    0  0.00000000000E+00 -0.00000000000E+00 -0.18299430170E+04  0.18299430170E+04  0.00000000000E+00 0.  1.
    9000007    2    1    2  502    0 -0.21890625378E+03  0.12682876597E+03 -0.26341203930E+03  0.54593221377E+03  0.40577160541E+03 0.  0.
    9000005    1    3    3    0    0  0.93001506123E+01 -0.13222533028E+03 -0.63312789684E+02  0.14689976209E+03  0.99999687468E+00 0.  0.
          4    1    3    3  502    0 -0.22820640440E+03  0.25905409626E+03 -0.20009924962E+03  0.39903245168E+03  0.00000000000E+00 0.  1.
   -9000007    1    1    2    0  501  0.21890625378E+03 -0.12682876597E+03 -0.13859791521E+04  0.14645626289E+04  0.40000000000E+03 0.  1.
<mgrwt>
<rscale>  2 0.47572979E+03</rscale>
<asrwt>0</asrwt>
<pdfrwt beam="1">  1        1 0.28152969E+00 0.47572979E+03</pdfrwt>
<pdfrwt beam="2">  1       -1 0.27777204E-01 0.47572979E+03</pdfrwt>
<totfact> 0.48738525E+01</totfact>
</mgrwt>
</event>
<event>
 6    1  0.8861680E-004  0.4745540E+03  0.7818608E-02  0.1020643E+00
          2   -1    0    0  502    0  0.00000000000E+00  0.00000000000E+00  0.88847281996E+03  0.88847281996E+03  0.00000000000E+00 0. -1.
         -2   -1    0    0    0  501 -0.00000000000E+00 -0.00000000000E+00 -0.43123698958E+03  0.43123698958E+03  0.00000000000E+00 0.  1.
    9000007    2    1    2  502    0 -0.19819451581E+03  0.15989135443E+03  0.65238186802E+03  0.80694447595E+03  0.40088773269E+03 0.  0.
    9000005    1    3    3    0    0 -0.19567675030E+03  0.28719964333E+03  0.47126570401E+03  0.58554708565E+03  0.99999687468E+00 0.  0.
          4    1    3    3  502    0 -0.25177655140E+01 -0.12730828890E+03  0.18111616401E+03  0.22139739030E+03  0.00000000000E+00 0.  1.
   -9000007    1    1    2    0  501  0.19819451581E+03 -0.15989135443E+03 -0.19514603765E+03  0.51276533359E+03  0.40000000000E+03 0.  1.
<mgrwt>
<rscale>  2 0.47455402E+03</rscale>
<asrwt>0</asrwt>
<pdfrwt beam="1">  1        2 0.13668813E+00 0.47455402E+03</pdfrwt>
<pdfrwt beam="2">  1       -2 0.66344153E-01 0.47455402E+03</pdfrwt>
<totfact> 0.64949462E+01</totfact>
</mgrwt>
</event>
<event>
 6    1  0.8861680E-004  0.4048206E+03  0.7818608E-02  0.1042123E+00
          2   -1    0    0  502    0  0.00000000000E+00  0.00000000000E+00  0.10753404063E+04  0.10753404063E+04  0.00000000000E+00 0. -1.
         -2   -1    0    0    0  501 -0.00000000000E+00 -0.00000000000E+00 -0.15276751947E+03  0.15276751947E+03  0.00000000000E+00 0.  1.
    9000007    2    1    2  502    0  0.50543033120E+02 -0.31436106841E+02  0.49195269833E+03  0.63736553374E+03  0.40084228718E+03 0.  0.
    9000005    1    3    3    0    0  0.21967099831E+02 -0.11945267242E+03  0.52517968418E+03  0.53904192331E+03  0.99999687468E+00 0.  0.
          4    1    3    3  502    0  0.28575933289E+02  0.88016565576E+02 -0.33226985843E+02  0.98323610427E+02  0.00000000000E+00 0.  1.
   -9000007    1    1    2    0  501 -0.50543033120E+02  0.31436106841E+02  0.43062018850E+03  0.59074239204E+03  0.40000000000E+03 0.  1.
<mgrwt>
<rscale>  2 0.40482064E+03</rscale>
<asrwt>0</asrwt>
<pdfrwt beam="1">  1        2 0.16543698E+00 0.40482064E+03</pdfrwt>
<pdfrwt beam="2">  1       -2 0.23502696E-01 0.40482064E+03</pdfrwt>
<totfact> 0.37234094E+02</totfact>
</mgrwt>
</event>
<event>
 6    1  0.8861680E-004  0.6430637E+03  0.7818608E-02  0.9819882E-01
          1   -1    0    0  502    0  0.00000000000E+00  0.00000000000E+00  0.40297640492E+03  0.40297640492E+03  0.00000000000E+00 0.  1.
         -1   -1    0    0    0  501 -0.00000000000E+00 -0.00000000000E+00 -0.10991632505E+04  0.10991632505E+04  0.00000000000E+00 0. -1.
    9000007    2    1    2  502    0  0.33320244302E+03  0.37742990811E+03 -0.15459396012E+03  0.66142563916E+03  0.40013420256E+03 0.  0.
    9000005    1    3    3    0    0 -0.54554900022E+02 -0.40308112376E+02 -0.43920041725E+02  0.80814300087E+02  0.99999687468E+00 0.  0.
          4    1    3    3  502    0  0.38775734305E+03  0.41773802048E+03 -0.11067391840E+03  0.58061133907E+03  0.00000000000E+00 0.  1.
   -9000007    1    1    2    0  501 -0.33320244302E+03 -0.37742990811E+03 -0.54159288548E+03  0.84071401628E+03  0.40000000000E+03 0.  1.
<mgrwt>
<rscale>  2 0.64306368E+03</rscale>
<asrwt>0</asrwt>
<pdfrwt beam="1">  1        1 0.61996371E-01 0.64306368E+03</pdfrwt>
<pdfrwt beam="2">  1       -1 0.16910204E+00 0.64306368E+03</pdfrwt>
<totfact> 0.15450833E+01</totfact>
</mgrwt>
</event>
<event>
 6    1  0.8861680E-004  0.4101179E+03  0.7818608E-02  0.1040331E+00
          2   -1    0    0  502    0  0.00000000000E+00  0.00000000000E+00  0.47131339595E+03  0.47131339595E+03  0.00000000000E+00 0. -1.
         -2   -1    0    0    0  501 -0.00000000000E+00 -0.00000000000E+00 -0.39812513957E+03  0.39812513957E+03  0.00000000000E+00 0.  1.
    9000007    2    1    2  502    0 -0.72022130807E+02  0.54357922692E+02 -0.10334273783E+03  0.42300246731E+03  0.40013672014E+03 0.  0.
    9000005    1    3    3    0    0 -0.19086663071E+03 -0.67872569192E+02 -0.14300365195E+03  0.24796733823E+03  0.99999687468E+00 0.  0.
          4    1    3    3  502    0  0.11884449990E+03  0.12223049188E+03  0.39660914118E+02  0.17503512908E+03  0.00000000000E+00 0.  1.
   -9000007    1    1    2    0  501  0.72022130807E+02 -0.54357922692E+02  0.17653099421E+03  0.44643606821E+03  0.40000000000E+03 0. -1.
<mgrwt>
<rscale>  2 0.41011786E+03</rscale>
<asrwt>0</asrwt>
<pdfrwt beam="1">  1        2 0.72509753E-01 0.41011786E+03</pdfrwt>
<pdfrwt beam="2">  1       -2 0.61250022E-01 0.41011786E+03</pdfrwt>
<totfact> 0.16818853E+02</totfact>
</mgrwt>
</event>
<event>
 6    1  0.8861680E-004  0.7498051E+03  0.7818608E-02  0.9635656E-01
          1   -1    0    0  502    0  0.00000000000E+00  0.00000000000E+00  0.31659820247E+04  0.31659820247E+04  0.00000000000E+00 0.  1.
         -1   -1    0    0    0  501 -0.00000000000E+00 -0.00000000000E+00 -0.23955918206E+03  0.23955918206E+03  0.00000000000E+00 0. -1.
    9000007    2    1    2  502    0 -0.51949638209E+03 -0.36394928778E+03  0.59696243971E+03  0.95835479296E+03  0.39968009667E+03 0.  0.
    9000005    1    3    3    0    0  0.11665154401E+02 -0.60177320206E+02 -0.41492831500E+02  0.74027297358E+02  0.99999687468E+00 0.  0.
          4    1    3    3  502    0 -0.53116153649E+03 -0.30377196758E+03  0.63845527121E+03  0.88432749560E+03  0.00000000000E+00 0.  1.
   -9000007    1    1    2    0  501  0.51949638209E+03  0.36394928778E+03  0.23294604030E+04  0.24471864138E+04  0.40000000000E+03 0. -1.
<mgrwt>
<rscale>  2 0.74980507E+03</rscale>
<asrwt>0</asrwt>
<pdfrwt beam="1">  1        1 0.48707413E+00 0.74980507E+03</pdfrwt>
<pdfrwt beam="2">  1       -1 0.36855261E-01 0.74980507E+03</pdfrwt>
<totfact> 0.34232393E+00</totfact>
</mgrwt>
</event>
<event>
 6    1  0.8861680E-004  0.4272144E+03  0.7818608E-02  0.1034744E+00
         -2   -1    0    0    0  501 -0.00000000000E+00  0.00000000000E+00  0.12167278694E+03  0.12167278694E+03  0.00000000000E+00 0. -1.
          2   -1    0    0  502    0  0.00000000000E+00 -0.00000000000E+00 -0.15224262215E+04  0.15224262215E+04  0.00000000000E+00 0.  1.
    9000007    2    1    2  502    0  0.13175456425E+03  0.68521226131E+02 -0.60153078980E+03  0.73811266223E+03  0.40114409809E+03 0.  0.
    9000005    1    3    3    0    0 -0.11238793922E+03 -0.44123045903E+02 -0.62999215562E+02  0.13619028312E+03  0.99999687468E+00 0.  0.
          4    1    3    3  502    0  0.24414250347E+03  0.11264427203E+03 -0.53853157424E+03  0.60192237911E+03  0.00000000000E+00 0.  1.
   -9000007    1    1    2    0  501 -0.13175456425E+03 -0.68521226131E+02 -0.79922264475E+03  0.90598634621E+03  0.40000000000E+03 0.  1.
<mgrwt>
<rscale>  2 0.42721440E+03</rscale>
<asrwt>0</asrwt>
<pdfrwt beam="1">  1        2 0.23421944E+00 0.42721440E+03</pdfrwt>
<pdfrwt beam="2">  1       -2 0.18718889E-01 0.42721440E+03</pdfrwt>
<totfact> 0.30784936E+02</totfact>
</mgrwt>
</event>
<event>
 6    1  0.8861680E-004  0.4755953E+03  0.7818608E-02  0.1020353E+00
          2   -1    0    0  502    0  0.00000000000E+00  0.00000000000E+00  0.20956096600E+03  0.20956096600E+03  0.00000000000E+00 0. -1.
         -2   -1    0    0    0  501 -0.00000000000E+00 -0.00000000000E+00 -0.17515199264E+04  0.17515199264E+04  0.00000000000E+00 0.  1.
    9000007    2    1    2  502    0  0.25527865312E+03 -0.31001274869E+02 -0.16361617807E+03  0.50301467464E+03  0.40015651862E+03 0.  0.
    9000005    1    3    3    0    0  0.26613686610E+03 -0.57725027481E+02 -0.27555570275E+03  0.38741832120E+03  0.99999687468E+00 0.  0.
          4    1    3    3  502    0 -0.10858212973E+02  0.26723752612E+02  0.11193952468E+03  0.11559635344E+03  0.00000000000E+00 0.  1.
   -9000007    1    1    2    0  501 -0.25527865312E+03  0.31001274869E+02 -0.13783427824E+04  0.14580662178E+04  0.40000000000E+03 0.  1.
<mgrwt>
<rscale>  2 0.47559529E+03</rscale>
<asrwt>0</asrwt>
<pdfrwt beam="1">  1        2 0.32240148E-01 0.47559529E+03</pdfrwt>
<pdfrwt beam="2">  1       -2 0.26946461E+00 0.47559529E+03</pdfrwt>
<totfact> 0.85760575E+00</totfact>
</mgrwt>
</event>
<event>
 6    1  0.8861680E-004  0.4330375E+03  0.7818608E-02  0.1032905E+00
          1   -1    0    0  502    0  0.00000000000E+00  0.00000000000E+00  0.27797204515E+04  0.27797204515E+04  0.00000000000E+00 0.  1.
         -1   -1    0    0    0  501 -0.00000000000E+00 -0.00000000000E+00 -0.85830785735E+02  0.85830785735E+02  0.00000000000E+00 0. -1.
    9000007    2    1    2  502    0  0.15156719082E+02 -0.16611913568E+03  0.68324058689E+03  0.80872479542E+03  0.39924028076E+03 0.  0.
    9000005    1    3    3    0    0  0.18928328248E+03 -0.17195277743E+03  0.36098634276E+03  0.44238903507E+03  0.99999687468E+00 0.  0.
          4    1    3    3  502    0 -0.17412656339E+03  0.58336417483E+01  0.32225424413E+03  0.36633576035E+03  0.00000000000E+00 0.  1.
   -9000007    1    1    2    0  501 -0.15156719082E+02  0.16611913568E+03  0.20106490789E+04  0.20568264418E+04  0.40000000000E+03 0.  1.
<mgrwt>
<rscale>  2 0.43303747E+03</rscale>
<asrwt>0</asrwt>
<pdfrwt beam="1">  1        1 0.42764923E+00 0.43303747E+03</pdfrwt>
<pdfrwt beam="2">  1       -1 0.13204738E-01 0.43303747E+03</pdfrwt>
<totfact> 0.38723801E+01</totfact>
</mgrwt>
</event>
<event>
 6    1  0.8861680E-004  0.5856928E+03  0.7818608E-02  0.9935542E-01
          2   -1    0    0  502    0  0.00000000000E+00  0.00000000000E+00  0.93262475829E+03  0.93262475829E+03  0.00000000000E+00 0.  1.
         -2   -1    0    0    0  501 -0.00000000000E+00 -0.00000000000E+00 -0.36856159769E+03  0.36856159769E+03  0.00000000000E+00 0. -1.
    9000007    2    1    2  502    0  0.30972844576E+03  0.29514957983E+03  0.25280341812E+03  0.63791596475E+03  0.39997778098E+03 0.  0.
    9000005    1    3    3    0    0 -0.34693602199E+02  0.10342673962E+03  0.21603318318E+03  0.24201667862E+03  0.99999687468E+00 0.  0.
          4    1    3    3  502    0  0.34442204796E+03  0.19172284021E+03  0.36770234945E+02  0.39589928613E+03  0.00000000000E+00 0.  1.
   -9000007    1    1    2    0  501 -0.30972844576E+03 -0.29514957983E+03  0.31125974249E+03  0.66327039123E+03  0.40000000000E+03 0. -1.
<mgrwt>
<rscale>  2 0.58569284E+03</rscale>
<asrwt>0</asrwt>
<pdfrwt beam="1">  1        2 0.14348073E+00 0.58569284E+03</pdfrwt>
<pdfrwt beam="2">  1       -2 0.56701784E-01 0.58569284E+03</pdfrwt>
<totfact> 0.83594154E+01</totfact>
</mgrwt>
</event>
<event>
 6    1  0.8861680E-004  0.4202209E+03  0.7818608E-02  0.1036994E+00
          2   -1    0    0  502    0  0.00000000000E+00  0.00000000000E+00  0.11737595093E+04  0.11737595093E+04  0.00000000000E+00 0.  1.
         -2   -1    0    0    0  501 -0.00000000000E+00 -0.00000000000E+00 -0.17221813867E+03  0.17221813867E+03  0.00000000000E+00 0. -1.
    9000007    2    1    2  502    0 -0.11734467090E+03  0.47445269715E+02  0.74076442441E+03  0.85198833527E+03  0.40141171576E+03 0.  0.
    9000005    1    3    3    0    0 -0.10735417112E+03 -0.11149790918E+03  0.83830854739E+02  0.17602645826E+03  0.99999687468E+00 0.  0.
          4    1    3    3  502    0 -0.99904997738E+01  0.15894317889E+03  0.65693356967E+03  0.67596187701E+03  0.00000000000E+00 0.  1.
   -9000007    1    1    2    0  501  0.11734467090E+03 -0.47445269715E+02  0.26077694625E+03  0.49398931274E+03  0.40000000000E+03 0. -1.
<mgrwt>
<rscale>  2 0.42022090E+03</rscale>
<asrwt>0</asrwt>
<pdfrwt beam="1">  1        2 0.18057838E+00 0.42022090E+03</pdfrwt>
<pdfrwt beam="2">  1       -2 0.26495099E-01 0.42022090E+03</pdfrwt>
<totfact> 0.26239076E+02</totfact>
</mgrwt>
</event>
<event>
 6    1  0.8861680E-004  0.4004064E+03  0.7818608E-02  0.1043639E+00
          2   -1    0    0  502    0  0.00000000000E+00  0.00000000000E+00  0.25993052965E+04  0.25993052965E+04  0.00000000000E+00 0.  1.
         -2   -1    0    0    0  501 -0.00000000000E+00 -0.00000000000E+00 -0.61880833676E+02  0.61880833676E+02  0.00000000000E+00 0. -1.
    9000007    2    1    2  502    0  0.22808001632E+02  0.62602916213E+01  0.11920046952E+04  0.12573650065E+04  0.39941478438E+03 0.  0.
    9000005    1    3    3    0    0  0.16900364414E+03  0.19789335129E+02  0.10065318847E+04  0.10208140303E+04  0.99999687468E+00 0.  0.
          4    1    3    3  502    0 -0.14619564250E+03 -0.13529043508E+02  0.18547281045E+03  0.23655097616E+03  0.00000000000E+00 0.  1.
   -9000007    1    1    2    0  501 -0.22808001632E+02 -0.62602916213E+01  0.13454197677E+04  0.14038211237E+04  0.40000000000E+03 0.  1.
<mgrwt>
<rscale>  2 0.40040643E+03</rscale>
<asrwt>0</asrwt>
<pdfrwt beam="1">  1        2 0.39989304E+00 0.40040643E+03</pdfrwt>
<pdfrwt beam="2">  1       -2 0.95201303E-02 0.40040643E+03</pdfrwt>
<totfact> 0.24703347E+02</totfact>
</mgrwt>
</event>
<event>
 6    1  0.8861680E-004  0.8090251E+03  0.7818608E-02  0.9547045E-01
         -2   -1    0    0    0  501 -0.00000000000E+00  0.00000000000E+00  0.30402845196E+03  0.30402845196E+03  0.00000000000E+00 0. -1.
          2   -1    0    0  502    0  0.00000000000E+00 -0.00000000000E+00 -0.21642119218E+04  0.21642119218E+04  0.00000000000E+00 0.  1.
    9000007    2    1    2  502    0  0.23297140181E+03 -0.66353395941E+03 -0.10195674000E+04  0.13015405982E+04  0.39992156276E+03 0.  0.
    9000005    1    3    3    0    0  0.10516809795E+03 -0.34277156603E+03 -0.83788009448E+03  0.91137079612E+03  0.99999687468E+00 0.  0.
          4    1    3    3  502    0  0.12780330386E+03 -0.32076239338E+03 -0.18168730548E+03  0.39016980208E+03  0.00000000000E+00 0.  1.
   -9000007    1    1    2    0  501 -0.23297140181E+03  0.66353395941E+03 -0.84061606989E+03  0.11666997756E+04  0.40000000000E+03 0. -1.
<mgrwt>
<rscale>  2 0.80902510E+03</rscale>
<asrwt>0</asrwt>
<pdfrwt beam="1">  1        2 0.33295569E+00 0.80902510E+03</pdfrwt>
<pdfrwt beam="2">  1       -2 0.46773607E-01 0.80902510E+03</pdfrwt>
<totfact> 0.24110570E+01</totfact>
</mgrwt>
</event>
<event>
 6    1  0.8861680E-004  0.5137747E+03  0.7818608E-02  0.1010245E+00
          2   -1    0    0  502    0  0.00000000000E+00  0.00000000000E+00  0.57350027881E+03  0.57350027881E+03  0.00000000000E+00 0.  1.
         -2   -1    0    0    0  501 -0.00000000000E+00 -0.00000000000E+00 -0.46054727563E+03  0.46054727563E+03  0.00000000000E+00 0. -1.
    9000007    2    1    2  502    0 -0.92326857872E+02 -0.30929589920E+03  0.69156867731E+02  0.51819262966E+03  0.39944051764E+03 0.  0.
    9000005    1    3    3    0    0 -0.21003309070E+03 -0.18408963446E+03 -0.80127632142E+02  0.29055865179E+03  0.99999687468E+00 0.  0.
          4    1    3    3  502    0  0.11770623283E+03 -0.12520626474E+03  0.14928449987E+03  0.22763397787E+03  0.00000000000E+00 0.  1.
   -9000007    1    1    2    0  501  0.92326857872E+02  0.30929589920E+03  0.43796135448E+02  0.51585492479E+03  0.40000000000E+03 0.  1.
<mgrwt>
<rscale>  2 0.51377473E+03</rscale>
<asrwt>0</asrwt>
<pdfrwt beam="1">  1        2 0.88230812E-01 0.51377473E+03</pdfrwt>
<pdfrwt beam="2">  1       -2 0.70853427E-01 0.51377473E+03</pdfrwt>
<totfact> 0.97436914E+01</totfact>
</mgrwt>
</event>
<event>
 6    1  0.8861680E-004  0.4295372E+03  0.7818608E-02  0.1034006E+00
         -2   -1    0    0    0  501 -0.00000000000E+00  0.00000000000E+00  0.92782031880E+02  0.92782031880E+02  0.00000000000E+00 0. -1.
          2   -1    0    0  502    0  0.00000000000E+00 -0.00000000000E+00 -0.22410637183E+04  0.22410637183E+04  0.00000000000E+00 0.  1.
    9000007    2    1    2  502    0 -0.10574840609E+03  0.11193345620E+03 -0.14678780710E+04  0.15296934612E+04  0.40197540957E+03 0.  0.
    9000005    1    3    3    0    0  0.80060181649E+01 -0.36269354150E+02  0.11243353742E+02  0.38819780711E+02  0.99999687468E+00 0.  0.
          4    1    3    3  502    0 -0.11375442425E+03  0.14820281035E+03 -0.14791214247E+04  0.14908736805E+04  0.00000000000E+00 0.  1.
   -9000007    1    1    2    0  501  0.10574840609E+03 -0.11193345620E+03 -0.68040361545E+03  0.80415228901E+03  0.40000000000E+03 0. -1.
<mgrwt>
<rscale>  2 0.42953724E+03</rscale>
<asrwt>0</asrwt>
<pdfrwt beam="1">  1        2 0.34477901E+00 0.42953724E+03</pdfrwt>
<pdfrwt beam="2">  1       -2 0.14274160E-01 0.42953724E+03</pdfrwt>
<totfact> 0.19998918E+02</totfact>
</mgrwt>
</event>
<event>
 6    1  0.8861680E-004  0.4048773E+03  0.7818608E-02  0.1042104E+00
          1   -1    0    0  502    0  0.00000000000E+00  0.00000000000E+00  0.72601490065E+03  0.72601490065E+03  0.00000000000E+00 0.  1.
         -1   -1    0    0    0  501 -0.00000000000E+00 -0.00000000000E+00 -0.24152795893E+03  0.24152795893E+03  0.00000000000E+00 0. -1.
    9000007    2    1    2  502    0  0.39661586749E+02  0.48337629162E+02  0.36575113814E+03  0.54563320230E+03  0.40004015867E+03 0.  0.
    9000005    1    3    3    0    0  0.96951587927E+02  0.10317733210E+03 -0.27700123228E+02  0.14426873910E+03  0.99999687468E+00 0.  0.
          4    1    3    3  502    0 -0.57290001178E+02 -0.54839702936E+02  0.39345126137E+03  0.40136446321E+03  0.00000000000E+00 0.  1.
   -9000007    1    1    2    0  501 -0.39661586749E+02 -0.48337629162E+02  0.11873580358E+03  0.42190965728E+03  0.40000000000E+03 0. -1.
<mgrwt>
<rscale>  2 0.40487730E+03</rscale>
<asrwt>0</asrwt>
<pdfrwt beam="1">  1        1 0.11169460E+00 0.40487730E+03</pdfrwt>
<pdfrwt beam="2">  1       -1 0.37158148E-01 0.40487730E+03</pdfrwt>
<totfact> 0.18683637E+02</totfact>
</mgrwt>
</event>
<event>
 6    1  0.8861680E-004  0.4166356E+03  0.7818608E-02  0.1038167E+00
          2   -1    0    0  502    0  0.00000000000E+00  0.00000000000E+00  0.20173083509E+04  0.20173083509E+04  0.00000000000E+00 0. -1.
         -2   -1    0    0    0  501 -0.00000000000E+00 -0.00000000000E+00 -0.86059467553E+02  0.86059467553E+02  0.00000000000E+00 0.  1.
    9000007    2    1    2  502    0 -0.81214916249E+02  0.78948436044E+02  0.95577987538E+03  0.10430053787E+04  0.40189094491E+03 0.  0.
    9000005    1    3    3    0    0 -0.17110582069E+02 -0.14325121469E+03  0.61132375536E+03  0.62811735877E+03  0.99999687468E+00 0.  0.
          4    1    3    3  502    0 -0.64104334180E+02  0.22219965073E+03  0.34445612002E+03  0.41488801991E+03  0.00000000000E+00 0.  1.
   -9000007    1    1    2    0  501  0.81214916249E+02 -0.78948436044E+02  0.97546900795E+03  0.10603624398E+04  0.40000000000E+03 0.  1.
<mgrwt>
<rscale>  2 0.41663561E+03</rscale>
<asrwt>0</asrwt>
<pdfrwt beam="1">  1        2 0.31035509E+00 0.41663561E+03</pdfrwt>
<pdfrwt beam="2">  1       -2 0.13239920E-01 0.41663561E+03</pdfrwt>
<totfact> 0.29961856E+02</totfact>
</mgrwt>
</event>
<event>
 6    1  0.8861680E-004  0.6515011E+03  0.7818608E-02  0.9803967E-01
         -1   -1    0    0    0  501 -0.00000000000E+00  0.00000000000E+00  0.39387639293E+03  0.39387639293E+03  0.00000000000E+00 0. -1.
          1   -1    0    0  502    0  0.00000000000E+00 -0.00000000000E+00 -0.10839079373E+04  0.10839079373E+04  0.00000000000E+00 0.  1.
    9000007    2    1    2  502    0 -0.43688152554E+02  0.51248855793E+03 -0.40120135502E+03  0.76505994105E+03  0.39975118442E+03 0.  0.
    9000005    1    3    3    0    0 -0.15272822119E+03  0.44791414675E+02 -0.39906777823E+02  0.16409061913E+03  0.99999687468E+00 0.  0.
          4    1    3    3  502    0  0.10904006863E+03  0.46769714326E+03 -0.36129457720E+03  0.60096932192E+03  0.00000000000E+00 0.  1.
   -9000007    1    1    2    0  501  0.43688152554E+02 -0.51248855793E+03 -0.28883018938E+03  0.71272438921E+03  0.40000000000E+03 0. -1.
<mgrwt>
<rscale>  2 0.65150109E+03</rscale>
<asrwt>0</asrwt>
<pdfrwt beam="1">  1        1 0.16675507E+00 0.65150109E+03</pdfrwt>
<pdfrwt beam="2">  1       -1 0.60596367E-01 0.65150109E+03</pdfrwt>
<totfact> 0.37390808E+01</totfact>
</mgrwt>
</event>
<event>
 6    1  0.8861680E-004  0.6347489E+03  0.7818608E-02  0.9835825E-01
          1   -1    0    0  502    0  0.00000000000E+00  0.00000000000E+00  0.17187465231E+04  0.17187465231E+04  0.00000000000E+00 0.  1.
         -1   -1    0    0    0  501 -0.00000000000E+00 -0.00000000000E+00 -0.25047150674E+03  0.25047150674E+03  0.00000000000E+00 0. -1.
    9000007    2    1    2  502    0  0.34309896492E+03 -0.35388312345E+03  0.48483485619E+03  0.79870330825E+03  0.39988994992E+03 0.  0.
    9000005    1    3    3    0    0  0.10968731863E+03  0.72361660454E+02  0.33812958964E+02  0.13569021321E+03  0.99999687468E+00 0.  0.
          4    1    3    3  502    0  0.23341164629E+03 -0.42624478390E+03  0.45102189722E+03  0.66301309505E+03  0.00000000000E+00 0.  1.
   -9000007    1    1    2    0  501 -0.34309896492E+03  0.35388312345E+03  0.98344016018E+03  0.11705147216E+04  0.40000000000E+03 0. -1.
<mgrwt>
<rscale>  2 0.63474889E+03</rscale>
<asrwt>0</asrwt>
<pdfrwt beam="1">  1        1 0.26442253E+00 0.63474889E+03</pdfrwt>
<pdfrwt beam="2">  1       -1 0.38534079E-01 0.63474889E+03</pdfrwt>
<totfact> 0.31693413E+01</totfact>
</mgrwt>
</event>
<event>
 6    1  0.8861680E-004  0.5648855E+03  0.7818608E-02  0.9981061E-01
          2   -1    0    0  502    0  0.00000000000E+00  0.00000000000E+00  0.76900506197E+03  0.76900506197E+03  0.00000000000E+00 0.  1.
         -2   -1    0    0    0  501 -0.00000000000E+00 -0.00000000000E+00 -0.43536346313E+03  0.43536346313E+03  0.00000000000E+00 0. -1.
    9000007    2    1    2  502    0  0.37932714489E+03 -0.12699014276E+03  0.29699680687E+03  0.63748368672E+03  0.39769682968E+03 0.  0.
    9000005    1    3    3    0    0  0.40562300726E+03 -0.16109771815E+03  0.35684045789E+03  0.56375403431E+03  0.99999687468E+00 0.  0.
          4    1    3    3  502    0 -0.26295862375E+02  0.34107575391E+02 -0.59843651025E+02  0.73729652414E+02  0.00000000000E+00 0.  1.
   -9000007    1    1    2    0  501 -0.37932714489E+03  0.12699014276E+03  0.36644791963E+02  0.56688483838E+03  0.40000000000E+03 0. -1.
<mgrwt>
<rscale>  2 0.56488551E+03</rscale>
<asrwt>0</asrwt>
<pdfrwt beam="1">  1        2 0.11830847E+00 0.56488551E+03</pdfrwt>
<pdfrwt beam="2">  1       -2 0.66978994E-01 0.56488551E+03</pdfrwt>
<totfact> 0.76343347E+01</totfact>
</mgrwt>
</event>
<event>
 6    1  0.8861680E-004  0.4290959E+03  0.7818608E-02  0.1034146E+00
          1   -1    0    0  502    0  0.00000000000E+00  0.00000000000E+00  0.26276282966E+03  0.26276282966E+03  0.00000000000E+00 0.  1.
         -1   -1    0    0    0  501 -0.00000000000E+00 -0.00000000000E+00 -0.73303952773E+03  0.73303952773E+03  0.00000000000E+00 0. -1.
    9000007    2    1    2  502    0  0.14766008043E+03 -0.47282628859E+02 -0.33973593188E+03  0.54738286854E+03  0.40021038844E+03 0.  0.
    9000005    1    3    3    0    0  0.27012584963E+03 -0.86290826547E+02 -0.30008982653E+03  0.41287889915E+03  0.99999687468E+00 0.  0.
          4    1    3    3  502    0 -0.12246576920E+03  0.39008197689E+02 -0.39646105356E+02  0.13450396939E+03  0.00000000000E+00 0.  1.
   -9000007    1    1    2    0  501 -0.14766008043E+03  0.47282628859E+02 -0.13054076619E+03  0.44841948885E+03  0.40000000000E+03 0.  1.
<mgrwt>
<rscale>  2 0.42909592E+03</rscale>
<asrwt>0</asrwt>
<pdfrwt beam="1">  1        1 0.40425052E-01 0.42909592E+03</pdfrwt>
<pdfrwt beam="2">  1       -1 0.11277531E+00 0.42909592E+03</pdfrwt>
<totfact> 0.78407312E+01</totfact>
</mgrwt>
</event>
<event>
 6    1  0.8861680E-004  0.4628992E+03  0.7818608E-02  0.1023944E+00
         -1   -1    0    0    0  501 -0.00000000000E+00  0.00000000000E+00  0.20535955758E+03  0.20535955758E+03  0.00000000000E+00 0.  1.
          1   -1    0    0  502    0  0.00000000000E+00 -0.00000000000E+00 -0.10461119501E+04  0.10461119501E+04  0.00000000000E+00 0. -1.
    9000007    2    1    2  502    0  0.79222906758E+02 -0.22040312609E+03 -0.45155820127E+03  0.64622286005E+03  0.39855409767E+03 0.  0.
    9000005    1    3    3    0    0  0.10489794403E+03  0.68606707023E+02 -0.28576671671E+03  0.31204819385E+03  0.99999687468E+00 0.  0.
          4    1    3    3  502    0 -0.25675037276E+02 -0.28900983312E+03 -0.16579148456E+03  0.33417466620E+03  0.00000000000E+00 0.  1.
   -9000007    1    1    2    0  501 -0.79222906758E+02  0.22040312609E+03 -0.38919419125E+03  0.60524864762E+03  0.40000000000E+03 0.  1.
<mgrwt>
<rscale>  2 0.46289925E+03</rscale>
<asrwt>0</asrwt>
<pdfrwt beam="1">  1        1 0.16094030E+00 0.46289925E+03</pdfrwt>
<pdfrwt beam="2">  1       -1 0.31593778E-01 0.46289925E+03</pdfrwt>
<totfact> 0.13559635E+02</totfact>
</mgrwt>
</event>
<event>
 6    1  0.8861680E-004  0.5264776E+03  0.7818608E-02  0.1007090E+00
         -2   -1    0    0    0  501 -0.00000000000E+00  0.00000000000E+00  0.17188514420E+04  0.17188514420E+04  0.00000000000E+00 0.  1.
          2   -1    0    0  502    0  0.00000000000E+00 -0.00000000000E+00 -0.21363771981E+03  0.21363771981E+03  0.00000000000E+00 0. -1.
    9000007    2    1    2  502    0 -0.62754112422E+02 -0.33797711255E+03  0.12300354119E+04  0.13376028621E+04  0.39752697356E+03 0.  0.
    9000005    1    3    3    0    0  0.63796723938E+01 -0.11831929815E+03  0.39356962209E+02  0.12486043009E+03  0.99999687468E+00 0.  0.
          4    1    3    3  502    0 -0.69133784816E+02 -0.21965781440E+03  0.11906784497E+04  0.12127424320E+04  0.00000000000E+00 0.  1.
   -9000007    1    1    2    0  501  0.62754112422E+02  0.33797711255E+03  0.27517831029E+03  0.59488629980E+03  0.40000000000E+03 0. -1.
<mgrwt>
<rscale>  2 0.52647764E+03</rscale>
<asrwt>0</asrwt>
<pdfrwt beam="1">  1        2 0.32867343E-01 0.52647764E+03</pdfrwt>
<pdfrwt beam="2">  1       -2 0.26443867E+00 0.52647764E+03</pdfrwt>
<totfact> 0.89170949E+00</totfact>
</mgrwt>
</event>
<event>
 6    1  0.8861680E-004  0.4508960E+03  0.7818608E-02  0.1027455E+00
         -1   -1    0    0    0  501 -0.00000000000E+00  0.00000000000E+00  0.39622455946E+03  0.39622455946E+03  0.00000000000E+00 0.  1.
          1   -1    0    0  502    0  0.00000000000E+00 -0.00000000000E+00 -0.54646724022E+03  0.54646724022E+03  0.00000000000E+00 0. -1.
    9000007    2    1    2  502    0  0.16989937606E+03  0.12023123183E+03 -0.19157041817E+03  0.48989015550E+03  0.39996473876E+03 0.  0.
    9000005    1    3    3    0    0  0.24575157366E+03  0.10879977576E+03 -0.26945276020E+03  0.38057458814E+03  0.99999687468E+00 0.  0.
          4    1    3    3  502    0 -0.75852197603E+02  0.11431456070E+02  0.77882342027E+02  0.10931556737E+03  0.00000000000E+00 0.  1.
   -9000007    1    1    2    0  501 -0.16989937606E+03 -0.12023123183E+03  0.41327737409E+02  0.45280164418E+03  0.40000000000E+03 0.  1.
<mgrwt>
<rscale>  2 0.45089604E+03</rscale>
<asrwt>0</asrwt>
<pdfrwt beam="1">  1        1 0.84071883E-01 0.45089604E+03</pdfrwt>
<pdfrwt beam="2">  1       -1 0.60957624E-01 0.45089604E+03</pdfrwt>
<totfact> 0.11145188E+02</totfact>
</mgrwt>
</event>
<event>
 6    1  0.8861680E-004  0.4482372E+03  0.7818608E-02  0.1028249E+00
          2   -1    0    0  502    0  0.00000000000E+00  0.00000000000E+00  0.12656037611E+04  0.12656037611E+04  0.00000000000E+00 0.  1.
         -2   -1    0    0    0  501 -0.00000000000E+00 -0.00000000000E+00 -0.20074247327E+03  0.20074247327E+03  0.00000000000E+00 0. -1.
    9000007    2    1    2  502    0  0.20076982508E+03 -0.18444202321E+02  0.86803497668E+03  0.97707196772E+03  0.40066968703E+03 0.  0.
    9000005    1    3    3    0    0  0.24983947262E+03 -0.39332822991E+02  0.24622634892E+03  0.35298052062E+03  0.99999687468E+00 0.  0.
          4    1    3    3  502    0 -0.49069647544E+02  0.20888620670E+02  0.62180862776E+03  0.62409144710E+03  0.00000000000E+00 0.  1.
   -9000007    1    1    2    0  501 -0.20076982508E+03  0.18444202321E+02  0.19682631118E+03  0.48927426668E+03  0.40000000000E+03 0. -1.
<mgrwt>
<rscale>  2 0.44823725E+03</rscale>
<asrwt>0</asrwt>
<pdfrwt beam="1">  1        2 0.19470826E+00 0.44823725E+03</pdfrwt>
<pdfrwt beam="2">  1       -2 0.30883458E-01 0.44823725E+03</pdfrwt>
<totfact> 0.17502307E+02</totfact>
</mgrwt>
</event>
<event>
 6    1  0.8861680E-004  0.4082503E+03  0.7818608E-02  0.1040960E+00
         -1   -1    0    0    0  501 -0.00000000000E+00  0.00000000000E+00  0.36987105210E+03  0.36987105210E+03  0.00000000000E+00 0. -1.
          1   -1    0    0  502    0  0.00000000000E+00 -0.00000000000E+00 -0.56691254751E+03  0.56691254751E+03  0.00000000000E+00 0.  1.
    9000007    2    1    2  502    0  0.22570191045E+01  0.78061188698E+02 -0.31080301386E+03  0.51365202858E+03  0.40142402734E+03 0.  0.
    9000005    1    3    3    0    0 -0.10051378042E+03  0.20166637577E+03 -0.94946653222E+02  0.24451628600E+03  0.99999687468E+00 0.  0.
          4    1    3    3  502    0  0.10277079953E+03 -0.12360518707E+03 -0.21585636064E+03  0.26913574258E+03  0.00000000000E+00 0.  1.
   -9000007    1    1    2    0  501 -0.22570191045E+01 -0.78061188698E+02  0.11376151846E+03  0.42313157103E+03  0.40000000000E+03 0. -1.
<mgrwt>
<rscale>  2 0.40825028E+03</rscale>
<asrwt>0</asrwt>
<pdfrwt beam="1">  1        1 0.87217315E-01 0.40825028E+03</pdfrwt>
<pdfrwt beam="2">  1       -1 0.56903239E-01 0.40825028E+03</pdfrwt>
<totfact> 0.12163317E+02</totfact>
</mgrwt>
</event>
<event>
 6    1  0.8861680E-004  0.4097233E+03  0.7818608E-02  0.1040464E+00
         -2   -1    0    0    0  501 -0.00000000000E+00  0.00000000000E+00  0.51228766363E+03  0.51228766363E+03  0.00000000000E+00 0.  1.
          2   -1    0    0  502    0  0.00000000000E+00 -0.00000000000E+00 -0.41012451994E+03  0.41012451994E+03  0.00000000000E+00 0. -1.
    9000007    2    1    2  502    0 -0.41849987848E+02  0.74697165489E+02  0.25791432975E+03  0.48470278228E+03  0.40135507676E+03 0.  0.
    9000005    1    3    3    0    0  0.14243550562E+03 -0.70991148304E+02  0.17259518893E+03  0.23477162442E+03  0.99999687468E+00 0.  0.
          4    1    3    3  502    0 -0.18428549346E+03  0.14568831379E+03  0.85319140821E+02  0.24993115786E+03  0.00000000000E+00 0.  1.
   -9000007    1    1    2    0  501  0.41849987848E+02 -0.74697165489E+02 -0.15575118606E+03  0.43770940129E+03  0.40000000000E+03 0. -1.
<mgrwt>
<rscale>  2 0.40972327E+03</rscale>
<asrwt>0</asrwt>
<pdfrwt beam="1">  1        2 0.63096080E-01 0.40972327E+03</pdfrwt>
<pdfrwt beam="2">  1       -2 0.78813487E-01 0.40972327E+03</pdfrwt>
<totfact> 0.11398835E+02</totfact>
</mgrwt>
</event>
<event>
 6    1  0.8861680E-004  0.4535104E+03  0.7818608E-02  0.1026680E+00
          2   -1    0    0  502    0  0.00000000000E+00  0.00000000000E+00  0.81025640034E+03  0.81025640034E+03  0.00000000000E+00 0. -1.
         -2   -1    0    0    0  501 -0.00000000000E+00 -0.00000000000E+00 -0.30626544651E+03  0.30626544651E+03  0.00000000000E+00 0.  1.
    9000007    2    1    2  502    0 -0.18433110102E+03  0.10897461801E+03  0.48288536606E+03  0.66232049501E+03  0.39954566595E+03 0.  0.
    9000005    1    3    3    0    0 -0.10334591348E+03  0.16219989909E+03  0.52314657563E+03  0.55738005408E+03  0.99999687468E+00 0.  0.
          4    1    3    3  502    0 -0.80985187538E+02 -0.53225281084E+02 -0.40261209565E+02  0.10494044093E+03  0.00000000000E+00 0.  1.
   -9000007    1    1    2    0  501  0.18433110102E+03 -0.10897461801E+03  0.21105587764E+02  0.45420135183E+03  0.40000000000E+03 0.  1.
<mgrwt>
<rscale>  2 0.45351043E+03</rscale>
<asrwt>0</asrwt>
<pdfrwt beam="1">  1        2 0.12465483E+00 0.45351043E+03</pdfrwt>
<pdfrwt beam="2">  1       -2 0.47117761E-01 0.45351043E+03</pdfrwt>
<totfact> 0.14939445E+02</totfact>
</mgrwt>
</event>
<event>
 6    1  0.8861680E-004  0.5931427E+03  0.7818608E-02  0.9919736E-01
         -2   -1    0    0    0  501 -0.00000000000E+00  0.00000000000E+00  0.73589708195E+03  0.73589708195E+03  0.00000000000E+00 0. -1.
          2   -1    0    0  502    0  0.00000000000E+00 -0.00000000000E+00 -0.51345833103E+03  0.51345833103E+03  0.00000000000E+00 0.  1.
    9000007    2    1    2  502    0  0.10436349001E+03 -0.42508423695E+03  0.27522403103E+03  0.65406167679E+03  0.40057466625E+03 0.  0.
    9000005    1    3    3    0    0  0.21691440522E+03 -0.36494103060E+03  0.30534345059E+03  0.52294305409E+03  0.99999687468E+00 0.  0.
          4    1    3    3  502    0 -0.11255091521E+03 -0.60143206349E+02 -0.30119419561E+02  0.13111862270E+03  0.00000000000E+00 0.  1.
   -9000007    1    1    2    0  501 -0.10436349001E+03  0.42508423695E+03 -0.52785280106E+02  0.59529373619E+03  0.40000000000E+03 0. -1.
<mgrwt>
<rscale>  2 0.59314273E+03</rscale>
<asrwt>0</asrwt>
<pdfrwt beam="1">  1        2 0.78993590E-01 0.59314273E+03</pdfrwt>
<pdfrwt beam="2">  1       -2 0.11321494E+00 0.59314273E+03</pdfrwt>
<totfact> 0.37494046E+01</totfact>
</mgrwt>
</event>
<event>
 6    1  0.8861680E-004  0.4061843E+03  0.7818608E-02  0.1041659E+00
          2   -1    0    0  502    0  0.00000000000E+00  0.00000000000E+00  0.11494446143E+04  0.11494446143E+04  0.00000000000E+00 0.  1.
         -2   -1    0    0    0  501 -0.00000000000E+00 -0.00000000000E+00 -0.14365680663E+03  0.14365680663E+03  0.00000000000E+00 0. -1.
    9000007    2    1    2  502    0  0.62116532346E+02  0.32152823423E+02  0.52185371598E+03  0.66137009138E+03  0.40023346843E+03 0.  0.
    9000005    1    3    3    0    0  0.18773093119E+03 -0.10849809160E+03  0.25720665572E+03  0.33640898048E+03  0.99999687468E+00 0.  0.
          4    1    3    3  502    0 -0.12561439885E+03  0.14065091502E+03  0.26464706026E+03  0.32496111090E+03  0.00000000000E+00 0.  1.
   -9000007    1    1    2    0  501 -0.62116532346E+02 -0.32152823423E+02  0.48393409172E+03  0.63173132958E+03  0.40000000000E+03 0.  1.
<mgrwt>
<rscale>  2 0.40618426E+03</rscale>
<asrwt>0</asrwt>
<pdfrwt beam="1">  1        2 0.17683763E+00 0.40618426E+03</pdfrwt>
<pdfrwt beam="2">  1       -2 0.22101048E-01 0.40618426E+03</pdfrwt>
<totfact> 0.37477221E+02</totfact>
</mgrwt>
</event>
<event>
 6    1  0.8861680E-004  0.5210686E+03  0.7818608E-02  0.1008421E+00
         -2   -1    0    0    0  501 -0.00000000000E+00  0.00000000000E+00  0.23353367234E+03  0.23353367234E+03  0.00000000000E+00 0. -1.
          2   -1    0    0  502    0  0.00000000000E+00 -0.00000000000E+00 -0.11906215476E+04  0.11906215476E+04  0.00000000000E+00 0.  1.
    9000007    2    1    2  502    0 -0.30600315128E+03  0.13392551129E+03 -0.58768038427E+03  0.78537836880E+03  0.39984619162E+03 0.  0.
    9000005    1    3    3    0    0  0.49506383982E+02  0.47147032084E+02  0.24105790460E+02  0.72496991777E+02  0.99999687468E+00 0.  0.
          4    1    3    3  502    0 -0.35550953527E+03  0.86778479206E+02 -0.61178617473E+03  0.71288137702E+03  0.00000000000E+00 0.  1.
   -9000007    1    1    2    0  501  0.30600315128E+03 -0.13392551129E+03 -0.36940749102E+03  0.63877685117E+03  0.40000000000E+03 0. -1.
<mgrwt>
<rscale>  2 0.52106857E+03</rscale>
<asrwt>0</asrwt>
<pdfrwt beam="1">  1        2 0.18317255E+00 0.52106857E+03</pdfrwt>
<pdfrwt beam="2">  1       -2 0.35928257E-01 0.52106857E+03</pdfrwt>
<totfact> 0.14446289E+02</totfact>
</mgrwt>
</event>
<event>
 6    1  0.8861680E-004  0.4323787E+03  0.7818608E-02  0.1033111E+00
          2   -1    0    0  502    0  0.00000000000E+00  0.00000000000E+00  0.40005265635E+03  0.40005265635E+03  0.00000000000E+00 0.  1.
         -2   -1    0    0    0  501 -0.00000000000E+00 -0.00000000000E+00 -0.72462804209E+03  0.72462804209E+03  0.00000000000E+00 0. -1.
    9000007    2    1    2  502    0 -0.49186548106E+02 -0.15604136546E+03  0.17275825153E+03  0.46581123412E+03  0.40045782314E+03 0.  0.
    9000005    1    3    3    0    0 -0.11177992326E+03  0.10565541073E+03  0.11114672774E+03  0.18976936566E+03  0.99999687468E+00 0.  0.
          4    1    3    3  502    0  0.62593375155E+02 -0.26169677619E+03  0.61611523784E+02  0.27604186846E+03  0.00000000000E+00 0.  1.
   -9000007    1    1    2    0  501  0.49186548106E+02  0.15604136546E+03 -0.49733363727E+03  0.65886946432E+03  0.40000000000E+03 0. -1.
<mgrwt>
<rscale>  2 0.43237873E+03</rscale>
<asrwt>0</asrwt>
<pdfrwt beam="1">  1        2 0.61546563E-01 0.43237873E+03</pdfrwt>
<pdfrwt beam="2">  1       -2 0.11148124E+00 0.43237873E+03</pdfrwt>
<totfact> 0.52441489E+01</totfact>
</mgrwt>
</event>
<event>
 6    1  0.8861680E-004  0.4371408E+03  0.7818608E-02  0.1031628E+00
         -2   -1    0    0    0  501 -0.00000000000E+00  0.00000000000E+00  0.20208884170E+03  0.20208884170E+03  0.00000000000E+00 0.  1.
          2   -1    0    0  502    0  0.00000000000E+00 -0.00000000000E+00 -0.96763684102E+03  0.96763684102E+03  0.00000000000E+00 0. -1.
    9000007    2    1    2  502    0 -0.17660316146E+03  0.71982587749E+01 -0.29433649481E+03  0.52685650975E+03  0.39962897558E+03 0.  0.
    9000005    1    3    3    0    0  0.89651672515E+02  0.57998771055E+02 -0.22194826800E+03  0.24629923567E+03  0.99999687468E+00 0.  0.
          4    1    3    3  502    0 -0.26625483397E+03 -0.50800512280E+02 -0.72388226808E+02  0.28055727408E+03  0.00000000000E+00 0.  1.
   -9000007    1    1    2    0  501  0.17660316146E+03 -0.71982587749E+01 -0.47121150452E+03  0.64286917297E+03  0.40000000000E+03 0.  1.
<mgrwt>
<rscale>  2 0.43714082E+03</rscale>
<asrwt>0</asrwt>
<pdfrwt beam="1">  1        2 0.14886721E+00 0.43714082E+03</pdfrwt>
<pdfrwt beam="2">  1       -2 0.31090591E-01 0.43714082E+03</pdfrwt>
<totfact> 0.26105524E+02</totfact>
</mgrwt>
</event>
<event>
 6    1  0.8861680E-004  0.9358429E+03  0.7818608E-02  0.9381853E-01
          1   -1    0    0  502    0  0.00000000000E+00  0.00000000000E+00  0.10368038557E+04  0.10368038557E+04  0.00000000000E+00 0. -1.
         -1   -1    0    0    0  501 -0.00000000000E+00 -0.00000000000E+00 -0.85926086533E+03  0.85926086533E+03  0.00000000000E+00 0.  1.
    9000007    2    1    2  502    0 -0.58750945486E+03  0.60653165241E+03 -0.34437035423E+02  0.93795014736E+03  0.40683727043E+03 0.  0.
    9000005    1    3    3    0    0 -0.19896431471E+03  0.25834509973E+03  0.18162410804E+03  0.37325233515E+03  0.99999687468E+00 0.  0.
          4    1    3    3  502    0 -0.38854514015E+03  0.34818655268E+03 -0.21606114346E+03  0.56469781221E+03  0.00000000000E+00 0.  1.
   -9000007    1    1    2    0  501  0.58750945486E+03 -0.60653165241E+03  0.21198002577E+03  0.95811457365E+03  0.40000000000E+03 0.  1.
<mgrwt>
<rscale>  2 0.93584291E+03</rscale>
<asrwt>0</asrwt>
<pdfrwt beam="1">  1        1 0.15950829E+00 0.93584291E+03</pdfrwt>
<pdfrwt beam="2">  1       -1 0.13219398E+00 0.93584291E+03</pdfrwt>
<totfact> 0.69537964E+00</totfact>
</mgrwt>
</event>
<event>
 6    1  0.8861680E-004  0.4981904E+03  0.7818608E-02  0.1014252E+00
          2   -1    0    0  502    0  0.00000000000E+00  0.00000000000E+00  0.32659013494E+03  0.32659013494E+03  0.00000000000E+00 0.  1.
         -2   -1    0    0    0  501 -0.00000000000E+00 -0.00000000000E+00 -0.76617748205E+03  0.76617748205E+03  0.00000000000E+00 0. -1.
    9000007    2    1    2  502    0  0.27735668827E+03 -0.10616240084E+03 -0.26903290304E+03  0.56618808238E+03  0.39999131720E+03 0.  0.
    9000005    1    3    3    0    0  0.44099109883E+02  0.38568118601E+02 -0.28524345725E+03  0.29119934953E+03  0.99999687468E+00 0.  0.
          4    1    3    3  502    0  0.23325757839E+03 -0.14473051944E+03  0.16210554210E+02  0.27498873286E+03  0.00000000000E+00 0.  1.
   -9000007    1    1    2    0  501 -0.27735668827E+03  0.10616240084E+03 -0.17055444407E+03  0.52657953461E+03  0.40000000000E+03 0. -1.
<mgrwt>
<rscale>  2 0.49819044E+03</rscale>
<asrwt>0</asrwt>
<pdfrwt beam="1">  1        2 0.50244637E-01 0.49819044E+03</pdfrwt>
<pdfrwt beam="2">  1       -2 0.11787346E+00 0.49819044E+03</pdfrwt>
<totfact> 0.56985551E+01</totfact>
</mgrwt>
</event>
<event>
 6    1  0.8861680E-004  0.6620848E+03  0.7818608E-02  0.9784363E-01
          2   -1    0    0  502    0  0.00000000000E+00  0.00000000000E+00  0.88855938887E+03  0.88855938887E+03  0.00000000000E+00 0. -1.
         -2   -1    0    0    0  501 -0.00000000000E+00 -0.00000000000E+00 -0.50011583960E+03  0.50011583960E+03  0.00000000000E+00 0.  1.
    9000007    2    1    2  502    0 -0.40907821340E+03 -0.33323087193E+03  0.11335781654E+03  0.67169548047E+03  0.39992127379E+03 0.  0.
    9000005    1    3    3    0    0 -0.39813844701E+03 -0.77293439648E+02  0.79584503793E+02  0.41330762398E+03  0.99999687468E+00 0.  0.
          4    1    3    3  502    0 -0.10939766393E+02 -0.25593743228E+03  0.33773312750E+02  0.25838785650E+03  0.00000000000E+00 0.  1.
   -9000007    1    1    2    0  501  0.40907821340E+03  0.33323087193E+03  0.27508573272E+03  0.71697974799E+03  0.40000000000E+03 0.  1.
<mgrwt>
<rscale>  2 0.66208482E+03</rscale>
<asrwt>0</asrwt>
<pdfrwt beam="1">  1        2 0.13670144E+00 0.66208482E+03</pdfrwt>
<pdfrwt beam="2">  1       -2 0.76940898E-01 0.66208482E+03</pdfrwt>
<totfact> 0.46047984E+01</totfact>
</mgrwt>
</event>
<event>
 6    1  0.8861680E-004  0.5241784E+03  0.7818608E-02  0.1007654E+00
          2   -1    0    0  502    0  0.00000000000E+00  0.00000000000E+00  0.41570322105E+03  0.41570322105E+03  0.00000000000E+00 0. -1.
         -2   -1    0    0    0  501 -0.00000000000E+00 -0.00000000000E+00 -0.71500698661E+03  0.71500698661E+03  0.00000000000E+00 0.  1.
    9000007    2    1    2  502    0  0.22226243894E+03  0.25593579435E+03 -0.30505327258E+03  0.60636606549E+03  0.39964807479E+03 0.  0.
    9000005    1    3    3    0    0  0.88923074923E+01  0.30037822990E+03 -0.21988850498E+03  0.37236824347E+03  0.99999687468E+00 0.  0.
          4    1    3    3  502    0  0.21337013145E+03 -0.44442435549E+02 -0.85164767594E+02  0.23399782202E+03  0.00000000000E+00 0.  1.
   -9000007    1    1    2    0  501 -0.22226243894E+03 -0.25593579435E+03  0.57495070115E+01  0.52434414217E+03  0.40000000000E+03 0.  1.
<mgrwt>
<rscale>  2 0.52417838E+03</rscale>
<asrwt>0</asrwt>
<pdfrwt beam="1">  1        2 0.63954342E-01 0.52417838E+03</pdfrwt>
<pdfrwt beam="2">  1       -2 0.11000107E+00 0.52417838E+03</pdfrwt>
<totfact> 0.51434479E+01</totfact>
</mgrwt>
</event>
<event>
 6    1  0.8861680E-004  0.4305341E+03  0.7818608E-02  0.1033691E+00
          3   -1    0    0  502    0  0.00000000000E+00  0.00000000000E+00  0.16422975729E+03  0.16422975729E+03  0.00000000000E+00 0.  1.
         -3   -1    0    0    0  501 -0.00000000000E+00 -0.00000000000E+00 -0.12919396662E+04  0.12919396662E+04  0.00000000000E+00 0. -1.
    9000007    2    1    2  502    0  0.12110765349E+02  0.16098237086E+03 -0.82175688802E+03  0.92733178738E+03  0.39824347642E+03 0.  0.
    9000005    1    3    3    0    0 -0.17372902302E+02  0.15219758657E+03 -0.86265696349E+03  0.87615293171E+03  0.99999687468E+00 0.  0.
          4    1    3    3  502    0  0.29483667652E+02  0.87847842846E+01  0.40900075475E+02  0.51178855663E+02  0.00000000000E+00 0.  1.
   -9000007    1    1    2    0  501 -0.12110765349E+02 -0.16098237086E+03 -0.30595302088E+03  0.52883763609E+03  0.40000000000E+03 0.  1.
<mgrwt>
<rscale>  2 0.43053409E+03</rscale>
<asrwt>0</asrwt>
<pdfrwt beam="1">  1        3 0.25266116E-01 0.43053409E+03</pdfrwt>
<pdfrwt beam="2">  1       -3 0.19875995E+00 0.43053409E+03</pdfrwt>
<totfact> 0.59099506E+00</totfact>
</mgrwt>
</event>
<event>
 6    1  0.8861680E-004  0.5083101E+03  0.7818608E-02  0.1011632E+00
          1   -1    0    0  502    0  0.00000000000E+00  0.00000000000E+00  0.61451555080E+03  0.61451555080E+03  0.00000000000E+00 0. -1.
         -1   -1    0    0    0  501 -0.00000000000E+00 -0.00000000000E+00 -0.45924294964E+03  0.45924294964E+03  0.00000000000E+00 0.  1.
    9000007    2    1    2  502    0  0.24879351963E+03  0.19125533241E+03  0.23364148358E+03  0.55934767307E+03  0.39975574910E+03 0.  0.
    9000005    1    3    3    0    0  0.28407075359E+03  0.84698119876E+02  0.30581324992E+03  0.42590222866E+03  0.99999687468E+00 0.  0.
          4    1    3    3  502    0 -0.35277233964E+02  0.10655721254E+03 -0.72171766334E+02  0.13344544442E+03  0.00000000000E+00 0.  1.
   -9000007    1    1    2    0  501 -0.24879351963E+03 -0.19125533241E+03 -0.78368882420E+02  0.51441082737E+03  0.40000000000E+03 0.  1.
<mgrwt>
<rscale>  2 0.50831007E+03</rscale>
<asrwt>0</asrwt>
<pdfrwt beam="1">  1        1 0.94540854E-01 0.50831007E+03</pdfrwt>
<pdfrwt beam="2">  1       -1 0.70652762E-01 0.50831007E+03</pdfrwt>
<totfact> 0.69917968E+01</totfact>
</mgrwt>
</event>
<event>
 6    1  0.8861680E-004  0.4160686E+03  0.7818608E-02  0.1038353E+00
         -2   -1    0    0    0  501 -0.00000000000E+00  0.00000000000E+00  0.27243741074E+03  0.27243741074E+03  0.00000000000E+00 0. -1.
          2   -1    0    0  502    0  0.00000000000E+00 -0.00000000000E+00 -0.90813749587E+03  0.90813749587E+03  0.00000000000E+00 0.  1.
    9000007    2    1    2  502    0  0.10470337229E+03 -0.45261384218E+02 -0.64139094431E+03  0.76458960045E+03  0.40025432490E+03 0.  0.
    9000005    1    3    3    0    0  0.24472613730E+02 -0.16894509426E+03 -0.88316578720E+02  0.19220346450E+03  0.99999687468E+00 0.  0.
          4    1    3    3  502    0  0.80230758556E+02  0.12368371004E+03 -0.55307436559E+03  0.57238613594E+03  0.00000000000E+00 0.  1.
   -9000007    1    1    2    0  501 -0.10470337229E+03  0.45261384218E+02  0.56908591771E+01  0.41598530617E+03  0.40000000000E+03 0. -1.
<mgrwt>
<rscale>  2 0.41606865E+03</rscale>
<asrwt>0</asrwt>
<pdfrwt beam="1">  1        2 0.13971346E+00 0.41606865E+03</pdfrwt>
<pdfrwt beam="2">  1       -2 0.41913448E-01 0.41606865E+03</pdfrwt>
<totfact> 0.16212264E+02</totfact>
</mgrwt>
</event>
<event>
 6    1  0.8861680E-004  0.5259458E+03  0.7818608E-02  0.1007220E+00
          2   -1    0    0  502    0  0.00000000000E+00  0.00000000000E+00  0.16293944503E+04  0.16293944503E+04  0.00000000000E+00 0. -1.
         -2   -1    0    0    0  501 -0.00000000000E+00 -0.00000000000E+00 -0.17303668656E+03  0.17303668656E+03  0.00000000000E+00 0.  1.
    9000007    2    1    2  502    0 -0.29419397511E+03 -0.17047214380E+03  0.60562939683E+03  0.80275638923E+03  0.40251708950E+03 0.  0.
    9000005    1    3    3    0    0 -0.37640605817E+03 -0.14373819802E+03  0.35277133772E+03  0.53552853043E+03  0.99999687468E+00 0.  0.
          4    1    3    3  502    0  0.82212083066E+02 -0.26733945783E+02  0.25285805911E+03  0.26722785879E+03  0.00000000000E+00 0.  1.
   -9000007    1    1    2    0  501  0.29419397511E+03  0.17047214380E+03  0.85072836693E+03  0.99967474766E+03  0.40000000000E+03 0. -1.
<mgrwt>
<rscale>  2 0.52594582E+03</rscale>
<asrwt>0</asrwt>
<pdfrwt beam="1">  1        2 0.25067606E+00 0.52594582E+03</pdfrwt>
<pdfrwt beam="2">  1       -2 0.26621030E-01 0.52594582E+03</pdfrwt>
<totfact> 0.14305014E+02</totfact>
</mgrwt>
</event>
<event>
 6    1  0.8861680E-004  0.4550359E+03  0.7818608E-02  0.1026231E+00
         -2   -1    0    0    0  501 -0.00000000000E+00  0.00000000000E+00  0.36276202257E+03  0.36276202257E+03  0.00000000000E+00 0.  1.
          2   -1    0    0  502    0  0.00000000000E+00 -0.00000000000E+00 -0.12320505186E+04  0.12320505186E+04  0.00000000000E+00 0. -1.
    9000007    2    1    2  502    0  0.13155881534E+03 -0.17286865945E+03 -0.10187699546E+04  0.11157133847E+04  0.39966591180E+03 0.  0.
    9000005    1    3    3    0    0  0.20438009688E+03 -0.20175975877E+03 -0.99229288895E+03  0.10330171352E+04  0.99999687468E+00 0.  0.
          4    1    3    3  502    0 -0.72821281540E+02  0.28891099317E+02 -0.26477065642E+02  0.82696249431E+02  0.00000000000E+00 0.  1.
   -9000007    1    1    2    0  501 -0.13155881534E+03  0.17286865945E+03  0.14948145855E+03  0.47909915651E+03  0.40000000000E+03 0.  1.
<mgrwt>
<rscale>  2 0.45503590E+03</rscale>
<asrwt>0</asrwt>
<pdfrwt beam="1">  1        2 0.18954624E+00 0.45503590E+03</pdfrwt>
<pdfrwt beam="2">  1       -2 0.55809540E-01 0.45503590E+03</pdfrwt>
<totfact> 0.57616919E+01</totfact>
</mgrwt>
</event>
<event>
 6    1  0.8861680E-004  0.4853494E+03  0.7818608E-02  0.1017675E+00
          2   -1    0    0  502    0  0.00000000000E+00  0.00000000000E+00  0.22368301945E+04  0.22368301945E+04  0.00000000000E+00 0. -1.
         -2   -1    0    0    0  501 -0.00000000000E+00 -0.00000000000E+00 -0.12419394468E+03  0.12419394468E+03  0.00000000000E+00 0.  1.
    9000007    2    1    2  502    0  0.23455876419E+03  0.14301791886E+03  0.15168016646E+04  0.15925901524E+04  0.40023014012E+03 0.  0.
    9000005    1    3    3    0    0  0.92598663494E+02 -0.10228790497E+03  0.93830797645E+03  0.94839874876E+03  0.99999687468E+00 0.  0.
          4    1    3    3  502    0  0.14196010070E+03  0.24530582383E+03  0.57849368812E+03  0.64419140369E+03  0.00000000000E+00 0.  1.
   -9000007    1    1    2    0  501 -0.23455876419E+03 -0.14301791886E+03  0.59583458521E+03  0.76843398669E+03  0.40000000000E+03 0.  1.
<mgrwt>
<rscale>  2 0.48534936E+03</rscale>
<asrwt>0</asrwt>
<pdfrwt beam="1">  1        2 0.34412769E+00 0.48534936E+03</pdfrwt>
<pdfrwt beam="2">  1       -2 0.19106762E-01 0.48534936E+03</pdfrwt>
<totfact> 0.12151009E+02</totfact>
</mgrwt>
</event>
<event>
 6    1  0.8861680E-004  0.7269320E+03  0.7818608E-02  0.9672252E-01
         -2   -1    0    0    0  501 -0.00000000000E+00  0.00000000000E+00  0.32778831634E+03  0.32778831634E+03  0.00000000000E+00 0.  1.
          2   -1    0    0  502    0  0.00000000000E+00 -0.00000000000E+00 -0.19329440522E+04  0.19329440522E+04  0.00000000000E+00 0. -1.
    9000007    2    1    2  502    0 -0.20597935732E+03  0.57560867975E+03 -0.12597125868E+04  0.14525963546E+04  0.38653268964E+03 0.  0.
    9000005    1    3    3    0    0  0.87474698530E+02  0.48204494985E+02 -0.32464138320E+03  0.33965942339E+03  0.99999687468E+00 0.  0.
          4    1    3    3  502    0 -0.29345405585E+03  0.52740418477E+03 -0.93507120357E+03  0.11129369312E+04  0.00000000000E+00 0.  1.
   -9000007    1    1    2    0  501  0.20597935732E+03 -0.57560867975E+03 -0.34544314910E+03  0.80813601399E+03  0.40000000000E+03 0.  1.
<mgrwt>
<rscale>  2 0.72693196E+03</rscale>
<asrwt>0</asrwt>
<pdfrwt beam="1">  1        2 0.29737601E+00 0.72693196E+03</pdfrwt>
<pdfrwt beam="2">  1       -2 0.50428971E-01 0.72693196E+03</pdfrwt>
<totfact> 0.28009625E+01</totfact>
</mgrwt>
</event>
<event>
 6    1  0.8861680E-004  0.5794536E+03  0.7818608E-02  0.9948975E-01
         -2   -1    0    0    0  501 -0.00000000000E+00  0.00000000000E+00  0.17292966102E+03  0.17292966102E+03  0.00000000000E+00 0.  1.
          2   -1    0    0  502    0  0.00000000000E+00 -0.00000000000E+00 -0.27247570908E+04  0.27247570908E+04  0.00000000000E+00 0. -1.
    9000007    2    1    2  502    0  0.15451327883E+02  0.41901735511E+03 -0.20525823103E+04  0.21327946178E+04  0.39988054901E+03 0.  0.
    9000005    1    3    3    0    0  0.14918299475E+02  0.15756473616E+02 -0.10761186247E+04  0.10763378264E+04  0.99999687468E+00 0.  0.
          4    1    3    3  502    0  0.53302840863E+00  0.40326088149E+03 -0.97646368559E+03  0.10564567913E+04  0.00000000000E+00 0.  1.
   -9000007    1    1    2    0  501 -0.15451327883E+02 -0.41901735511E+03 -0.49924511941E+03  0.76489213401E+03  0.40000000000E+03 0.  1.
<mgrwt>
<rscale>  2 0.57945363E+03</rscale>
<asrwt>0</asrwt>
<pdfrwt beam="1">  1        2 0.41919343E+00 0.57945363E+03</pdfrwt>
<pdfrwt beam="2">  1       -2 0.26604561E-01 0.57945363E+03</pdfrwt>
<totfact> 0.35440611E+01</totfact>
</mgrwt>
</event>
<event>
 6    1  0.8861680E-004  0.6449369E+03  0.7818608E-02  0.9816326E-01
          2   -1    0    0  502    0  0.00000000000E+00  0.00000000000E+00  0.93390234337E+03  0.93390234337E+03  0.00000000000E+00 0.  1.
         -2   -1    0    0    0  501 -0.00000000000E+00 -0.00000000000E+00 -0.44734300861E+03  0.44734300861E+03  0.00000000000E+00 0. -1.
    9000007    2    1    2  502    0  0.20944286290E+03 -0.46055731426E+03  0.19754704601E+03  0.67448693811E+03  0.39991054218E+03 0.  0.
    9000005    1    3    3    0    0  0.17524993228E+03 -0.10319391125E+02 -0.13481181852E+02  0.17607319744E+03  0.99999687468E+00 0.  0.
          4    1    3    3  502    0  0.34192930623E+02 -0.45023792314E+03  0.21102822786E+03  0.49841374067E+03  0.00000000000E+00 0.  1.
   -9000007    1    1    2    0  501 -0.20944286290E+03  0.46055731426E+03  0.28901228875E+03  0.70675841388E+03  0.40000000000E+03 0.  1.
<mgrwt>
<rscale>  2 0.64493687E+03</rscale>
<asrwt>0</asrwt>
<pdfrwt beam="1">  1        2 0.14367728E+00 0.64493687E+03</pdfrwt>
<pdfrwt beam="2">  1       -2 0.68822001E-01 0.64493687E+03</pdfrwt>
<totfact> 0.54975893E+01</totfact>
</mgrwt>
</event>
<event>
 6    1  0.8861680E-004  0.4017314E+03  0.7818608E-02  0.1043182E+00
         -4   -1    0    0    0  501 -0.00000000000E+00  0.00000000000E+00  0.61779281162E+03  0.61779281162E+03  0.00000000000E+00 0. -1.
          4   -1    0    0  502    0  0.00000000000E+00 -0.00000000000E+00 -0.29333666097E+03  0.29333666097E+03  0.00000000000E+00 0.  1.
    9000007    2    1    2  502    0  0.15646734925E+02 -0.10601750196E+02  0.31339389699E+03  0.51053043256E+03  0.40257716090E+03 0.  0.
    9000005    1    3    3    0    0 -0.15886494059E+03 -0.20705038102E+01  0.29471618792E+03  0.33481485593E+03  0.99999687468E+00 0.  0.
          4    1    3    3  502    0  0.17451167551E+03 -0.85312463859E+01  0.18677709067E+02  0.17571557663E+03  0.00000000000E+00 0.  1.
   -9000007    1    1    2    0  501 -0.15646734925E+02  0.10601750196E+02  0.11062253662E+02  0.40059904004E+03  0.40000000000E+03 0.  1.
<mgrwt>
<rscale>  2 0.40173136E+03</rscale>
<asrwt>0</asrwt>
<pdfrwt beam="1">  1        4 0.45128717E-01 0.40173136E+03</pdfrwt>
<pdfrwt beam="2">  1       -4 0.95045048E-01 0.40173136E+03</pdfrwt>
<totfact> 0.85544554E+00</totfact>
</mgrwt>
</event>
<event>
 6    1  0.8861680E-004  0.4212034E+03  0.7818608E-02  0.1036675E+00
          2   -1    0    0  502    0  0.00000000000E+00  0.00000000000E+00  0.87044560558E+03  0.87044560558E+03  0.00000000000E+00 0. -1.
         -2   -1    0    0    0  501 -0.00000000000E+00 -0.00000000000E+00 -0.20450993188E+03  0.20450993188E+03  0.00000000000E+00 0.  1.
    9000007    2    1    2  502    0 -0.10328485639E+03  0.79545663171E+02  0.30209768480E+03  0.51874212855E+03  0.40104252977E+03 0.  0.
    9000005    1    3    3    0    0 -0.24111894769E+03 -0.32547248407E+02  0.15943625506E+03  0.29089274610E+03  0.99999687468E+00 0.  0.
          4    1    3    3  502    0  0.13783409129E+03  0.11209291158E+03  0.14266142974E+03  0.22784938245E+03  0.00000000000E+00 0.  1.
   -9000007    1    1    2    0  501  0.10328485639E+03 -0.79545663171E+02  0.36383798890E+03  0.55621340891E+03  0.40000000000E+03 0.  1.
<mgrwt>
<rscale>  2 0.42120344E+03</rscale>
<asrwt>0</asrwt>
<pdfrwt beam="1">  1        2 0.13391471E+00 0.42120344E+03</pdfrwt>
<pdfrwt beam="2">  1       -2 0.31463067E-01 0.42120344E+03</pdfrwt>
<totfact> 0.29594063E+02</totfact>
</mgrwt>
</event>
<event>
 6    1  0.8861680E-004  0.4380959E+03  0.7818608E-02  0.1031333E+00
          2   -1    0    0  502    0  0.00000000000E+00  0.00000000000E+00  0.13696079858E+04  0.13696079858E+04  0.00000000000E+00 0. -1.
         -2   -1    0    0    0  501 -0.00000000000E+00 -0.00000000000E+00 -0.14018018151E+03  0.14018018151E+03  0.00000000000E+00 0.  1.
    9000007    2    1    2  502    0 -0.11309046102E+03  0.13466544298E+03  0.62995367482E+03  0.76797049036E+03  0.40250814618E+03 0.  0.
    9000005    1    3    3    0    0 -0.18276226166E+03 -0.18366959380E+00  0.83696604497E+02  0.20101790871E+03  0.99999687468E+00 0.  0.
          4    1    3    3  502    0  0.69671800644E+02  0.13484911257E+03  0.54625707032E+03  0.56695258166E+03  0.00000000000E+00 0.  1.
   -9000007    1    1    2    0  501  0.11309046102E+03 -0.13466544298E+03  0.59947412942E+03  0.74181767690E+03  0.40000000000E+03 0. -1.
<mgrwt>
<rscale>  2 0.43809588E+03</rscale>
<asrwt>0</asrwt>
<pdfrwt beam="1">  1        2 0.21070891E+00 0.43809588E+03</pdfrwt>
<pdfrwt beam="2">  1       -2 0.21566183E-01 0.43809588E+03</pdfrwt>
<totfact> 0.29193959E+02</totfact>
</mgrwt>
</event>
<event>
 6    1  0.8861680E-004  0.1191027E+04  0.7818608E-02  0.9120747E-01
         -1   -1    0    0    0  501 -0.00000000000E+00  0.00000000000E+00  0.11594520504E+04  0.11594520504E+04  0.00000000000E+00 0.  1.
          1   -1    0    0  502    0  0.00000000000E+00 -0.00000000000E+00 -0.16592052962E+04  0.16592052962E+04  0.00000000000E+00 0. -1.
    9000007    2    1    2  502    0  0.92112163413E+03 -0.64061855348E+03  0.47237728195E+03  0.12811610186E+04  0.39921931695E+03 0.  0.
    9000005    1    3    3    0    0  0.30021943574E+03 -0.21425268577E+03 -0.38821037903E+02  0.37086924371E+03  0.99999687468E+00 0.  0.
          4    1    3    3  502    0  0.62090219839E+03 -0.42636586772E+03  0.51119831985E+03  0.91029177484E+03  0.00000000000E+00 0.  1.
   -9000007    1    1    2    0  501 -0.92112163413E+03  0.64061855348E+03 -0.97213052772E+03  0.15374963281E+04  0.40000000000E+03 0. -1.
<mgrwt>
<rscale>  2 0.11910269E+04</rscale>
<asrwt>0</asrwt>
<pdfrwt beam="1">  1        1 0.25526235E+00 0.11910269E+04</pdfrwt>
<pdfrwt beam="2">  1       -1 0.17837724E+00 0.11910269E+04</pdfrwt>
<totfact> 0.10664000E+00</totfact>
</mgrwt>
</event>
<event>
 6    1  0.8861680E-004  0.4423665E+03  0.7818608E-02  0.1030023E+00
         -1   -1    0    0    0  501 -0.00000000000E+00  0.00000000000E+00  0.12786113919E+03  0.12786113919E+03  0.00000000000E+00 0. -1.
          1   -1    0    0  502    0  0.00000000000E+00 -0.00000000000E+00 -0.16017427130E+04  0.16017427130E+04  0.00000000000E+00 0.  1.
    9000007    2    1    2  502    0  0.39219192534E+02 -0.17684876737E+03 -0.92445836305E+03  0.10262692973E+04  0.40717536027E+03 0.  0.
    9000005    1    3    3    0    0 -0.51054975785E+02 -0.21532444259E+03 -0.20991475832E+03  0.30501874021E+03  0.99999687468E+00 0.  0.
          4    1    3    3  502    0  0.90274168319E+02  0.38475675218E+02 -0.71454360473E+03  0.72125055710E+03  0.00000000000E+00 0.  1.
   -9000007    1    1    2    0  501 -0.39219192534E+02  0.17684876737E+03 -0.54942321081E+03  0.70333455493E+03  0.40000000000E+03 0. -1.
<mgrwt>
<rscale>  2 0.44236647E+03</rscale>
<asrwt>0</asrwt>
<pdfrwt beam="1">  1        1 0.24642193E+00 0.44236647E+03</pdfrwt>
<pdfrwt beam="2">  1       -1 0.19670947E-01 0.44236647E+03</pdfrwt>
<totfact> 0.12392651E+02</totfact>
</mgrwt>
</event>
<event>
 6    1  0.8861680E-004  0.4352100E+03  0.7818608E-02  0.1032227E+00
         -1   -1    0    0    0  501 -0.00000000000E+00  0.00000000000E+00  0.15899493054E+03  0.15899493054E+03  0.00000000000E+00 0.  1.
          1   -1    0    0  502    0  0.00000000000E+00 -0.00000000000E+00 -0.18307100802E+04  0.18307100802E+04  0.00000000000E+00 0. -1.
    9000007    2    1    2  502    0 -0.15571899423E+03  0.70095496004E+02 -0.24825503053E+03  0.50128286146E+03  0.40061473174E+03 0.  0.
    9000005    1    3    3    0    0  0.93309155502E+02  0.90881490116E+02  0.23211721895E+02  0.13230959063E+03  0.99999687468E+00 0.  0.
          4    1    3    3  502    0 -0.24902814973E+03 -0.20785994112E+02 -0.27146675243E+03  0.36897327083E+03  0.00000000000E+00 0.  1.
   -9000007    1    1    2    0  501  0.15571899423E+03 -0.70095496004E+02 -0.14234601191E+04  0.14884221493E+04  0.40000000000E+03 0. -1.
<mgrwt>
<rscale>  2 0.43520996E+03</rscale>
<asrwt>0</asrwt>
<pdfrwt beam="1">  1        1 0.28164770E+00 0.43520996E+03</pdfrwt>
<pdfrwt beam="2">  1       -1 0.24460759E-01 0.43520996E+03</pdfrwt>
<totfact> 0.60870393E+01</totfact>
</mgrwt>
</event>
<event>
 6    1  0.8861680E-004  0.4557258E+03  0.7818608E-02  0.1026028E+00
          2   -1    0    0  502    0  0.00000000000E+00  0.00000000000E+00  0.34598581990E+03  0.34598581990E+03  0.00000000000E+00 0. -1.
         -2   -1    0    0    0  501 -0.00000000000E+00 -0.00000000000E+00 -0.60765809864E+03  0.60765809864E+03  0.00000000000E+00 0.  1.
    9000007    2    1    2  502    0  0.82116354350E+01  0.21896218447E+03 -0.78170318285E+02  0.46202939610E+03  0.39918503857E+03 0.  0.
    9000005    1    3    3    0    0  0.46731042520E+02  0.29718258609E+03  0.52059095231E+02  0.30530710637E+03  0.99999687468E+00 0.  0.
          4    1    3    3  502    0 -0.38519407085E+02 -0.78220401622E+02 -0.13022941352E+03  0.15672228973E+03  0.00000000000E+00 0.  1.
   -9000007    1    1    2    0  501 -0.82116354350E+01 -0.21896218447E+03 -0.18350196045E+03  0.49161452244E+03  0.40000000000E+03 0.  1.
<mgrwt>
<rscale>  2 0.45572575E+03</rscale>
<asrwt>0</asrwt>
<pdfrwt beam="1">  1        2 0.53228588E-01 0.45572575E+03</pdfrwt>
<pdfrwt beam="2">  1       -2 0.93485860E-01 0.45572575E+03</pdfrwt>
<totfact> 0.93119160E+01</totfact>
</mgrwt>
</event>
<event>
 6    1  0.8861680E-004  0.5026002E+03  0.7818608E-02  0.1013102E+00
          2   -1    0    0  502    0  0.00000000000E+00  0.00000000000E+00  0.36807474254E+04  0.36807474254E+04  0.00000000000E+00 0.  1.
         -2   -1    0    0    0  501 -0.00000000000E+00 -0.00000000000E+00 -0.68695040249E+02  0.68695040249E+02  0.00000000000E+00 0. -1.
    9000007    2    1    2  502    0  0.18389272850E+03  0.24212094509E+03  0.18646406046E+04  0.19312326267E+04  0.40041951309E+03 0.  0.
    9000005    1    3    3    0    0  0.30360973572E+03  0.14267035368E+03  0.10648939795E+04  0.11164828207E+04  0.99999687468E+00 0.  0.
          4    1    3    3  502    0 -0.11971700722E+03  0.99450591415E+02  0.79974662507E+03  0.81474980593E+03  0.00000000000E+00 0.  1.
   -9000007    1    1    2    0  501 -0.18389272850E+03 -0.24212094509E+03  0.17474117806E+04  0.18182098390E+04  0.40000000000E+03 0. -1.
<mgrwt>
<rscale>  2 0.50260016E+03</rscale>
<asrwt>0</asrwt>
<pdfrwt beam="1">  1        2 0.56626868E+00 0.50260016E+03</pdfrwt>
<pdfrwt beam="2">  1       -2 0.10568471E-01 0.50260016E+03</pdfrwt>
<totfact> 0.43085116E+01</totfact>
</mgrwt>
</event>
<event>
 6    1  0.8861680E-004  0.4026578E+03  0.7818608E-02  0.1042863E+00
          2   -1    0    0  502    0  0.00000000000E+00  0.00000000000E+00  0.25679136826E+04  0.25679136826E+04  0.00000000000E+00 0.  1.
         -2   -1    0    0    0  501 -0.00000000000E+00 -0.00000000000E+00 -0.65452475723E+02  0.65452475723E+02  0.00000000000E+00 0. -1.
    9000007    2    1    2  502    0  0.34157007688E+02 -0.31056924168E+02  0.14988274641E+04  0.15519726484E+04  0.40000512555E+03 0.  0.
    9000005    1    3    3    0    0  0.49113980611E+02 -0.18361755031E+03  0.40417004047E+03  0.44663408902E+03  0.99999687468E+00 0.  0.
          4    1    3    3  502    0 -0.14956972923E+02  0.15256062614E+03  0.10946574236E+04  0.11053385594E+04  0.00000000000E+00 0.  1.
   -9000007    1    1    2    0  501 -0.34157007688E+02  0.31056924168E+02  0.10036337428E+04  0.10813935100E+04  0.40000000000E+03 0.  1.
<mgrwt>
<rscale>  2 0.40265778E+03</rscale>
<asrwt>0</asrwt>
<pdfrwt beam="1">  1        2 0.39506357E+00 0.40265778E+03</pdfrwt>
<pdfrwt beam="2">  1       -2 0.10069614E-01 0.40265778E+03</pdfrwt>
<totfact> 0.23498789E+02</totfact>
</mgrwt>
</event>
<event>
 6    1  0.8861680E-004  0.5530642E+03  0.7818608E-02  0.1000787E+00
         -1   -1    0    0    0  501 -0.00000000000E+00  0.00000000000E+00  0.37698405288E+03  0.37698405288E+03  0.00000000000E+00 0.  1.
          1   -1    0    0  502    0  0.00000000000E+00 -0.00000000000E+00 -0.10969331256E+04  0.10969331256E+04  0.00000000000E+00 0. -1.
    9000007    2    1    2  502    0 -0.24574334632E+03 -0.29237505591E+03  0.16025231302E+02  0.55330263278E+03  0.40001753688E+03 0.  0.
    9000005    1    3    3    0    0 -0.52464265771E+02 -0.22480459428E+03 -0.16196909208E+03  0.28200104889E+03  0.99999687468E+00 0.  0.
          4    1    3    3  502    0 -0.19327908055E+03 -0.67570461629E+02  0.17799432338E+03  0.27130158389E+03  0.00000000000E+00 0.  1.
   -9000007    1    1    2    0  501  0.24574334632E+03  0.29237505591E+03 -0.73597430397E+03  0.92061454567E+03  0.40000000000E+03 0. -1.
<mgrwt>
<rscale>  2 0.55306417E+03</rscale>
<asrwt>0</asrwt>
<pdfrwt beam="1">  1        1 0.16875894E+00 0.55306417E+03</pdfrwt>
<pdfrwt beam="2">  1       -1 0.57997547E-01 0.55306417E+03</pdfrwt>
<totfact> 0.40371708E+01</totfact>
</mgrwt>
</event>
<event>
 6    1  0.8861680E-004  0.4111169E+03  0.7818608E-02  0.1039997E+00
         -1   -1    0    0    0  501 -0.00000000000E+00  0.00000000000E+00  0.10964357613E+04  0.10964357613E+04  0.00000000000E+00 0.  1.
          1   -1    0    0  502    0  0.00000000000E+00 -0.00000000000E+00 -0.18591143588E+03  0.18591143588E+03  0.00000000000E+00 0. -1.
    9000007    2    1    2  502    0 -0.34375553277E+02  0.89895305575E+02  0.71999794917E+03  0.82895647755E+03  0.39938571612E+03 0.  0.
    9000005    1    3    3    0    0  0.61082583067E+02  0.12774514404E+03  0.48537141481E+02  0.14968887025E+03  0.99999687468E+00 0.  0.
          4    1    3    3  502    0 -0.95458136344E+02 -0.37849838466E+02  0.67146080769E+03  0.67926760730E+03  0.00000000000E+00 0.  1.
   -9000007    1    1    2    0  501  0.34375553277E+02 -0.89895305575E+02  0.19052637630E+03  0.45339071968E+03  0.40000000000E+03 0. -1.
<mgrwt>
<rscale>  2 0.41111694E+03</rscale>
<asrwt>0</asrwt>
<pdfrwt beam="1">  1        1 0.28601760E-01 0.41111694E+03</pdfrwt>
<pdfrwt beam="2">  1       -1 0.16868242E+00 0.41111694E+03</pdfrwt>
<totfact> 0.43568471E+01</totfact>
</mgrwt>
</event>
<event>
 6    1  0.8861680E-004  0.4211150E+03  0.7818608E-02  0.1036704E+00
         -2   -1    0    0    0  501 -0.00000000000E+00  0.00000000000E+00  0.59550629342E+03  0.59550629342E+03  0.00000000000E+00 0.  1.
          2   -1    0    0  502    0  0.00000000000E+00 -0.00000000000E+00 -0.29842561769E+03  0.29842561769E+03  0.00000000000E+00 0. -1.
    9000007    2    1    2  502    0  0.12969852691E+03  0.26902205251E+02  0.12788165670E+03  0.43986832022E+03  0.39948089376E+03 0.  0.
    9000005    1    3    3    0    0  0.16368510453E+03 -0.84139109419E+02 -0.80839013023E+02  0.20101778329E+03  0.99999687468E+00 0.  0.
          4    1    3    3  502    0 -0.33986577615E+02  0.11104131467E+03  0.20872066972E+03  0.23885053693E+03  0.00000000000E+00 0.  1.
   -9000007    1    1    2    0  501 -0.12969852691E+03 -0.26902205251E+02  0.16919901903E+03  0.45406359089E+03  0.40000000000E+03 0. -1.
<mgrwt>
<rscale>  2 0.42111496E+03</rscale>
<asrwt>0</asrwt>
<pdfrwt beam="1">  1        2 0.45911633E-01 0.42111496E+03</pdfrwt>
<pdfrwt beam="2">  1       -2 0.91616353E-01 0.42111496E+03</pdfrwt>
<totfact> 0.11504490E+02</totfact>
</mgrwt>
</event>
<event>
 6    1  0.8861680E-004  0.4621533E+03  0.7818608E-02  0.1024159E+00
          1   -1    0    0  502    0  0.00000000000E+00  0.00000000000E+00  0.19010860090E+04  0.19010860090E+04  0.00000000000E+00 0. -1.
         -1   -1    0    0    0  501 -0.00000000000E+00 -0.00000000000E+00 -0.12755096987E+03  0.12755096987E+03  0.00000000000E+00 0.  1.
    9000007    2    1    2  502    0 -0.21522224982E+03  0.85624009038E+02  0.53647674200E+03  0.70804418841E+03  0.39983395340E+03 0.  0.
    9000005    1    3    3    0    0 -0.31988959439E+03  0.90956281905E+01  0.45000809511E+03  0.55219595137E+03  0.99999687468E+00 0.  0.
          4    1    3    3  502    0  0.10466734457E+03  0.76528380847E+02  0.86468646883E+02  0.15584823704E+03  0.00000000000E+00 0.  1.
   -9000007    1    1    2    0  501  0.21522224982E+03 -0.85624009038E+02  0.12370582971E+04  0.13205927905E+04  0.40000000000E+03 0. -1.
<mgrwt>
<rscale>  2 0.46215330E+03</rscale>
<asrwt>0</asrwt>
<pdfrwt beam="1">  1        1 0.29247475E+00 0.46215330E+03</pdfrwt>
<pdfrwt beam="2">  1       -1 0.19623227E-01 0.46215330E+03</pdfrwt>
<totfact> 0.78557536E+01</totfact>
</mgrwt>
</event>
<event>
 6    1  0.8861680E-004  0.4674263E+03  0.7818608E-02  0.1022649E+00
         -2   -1    0    0    0  501 -0.00000000000E+00  0.00000000000E+00  0.40295714666E+03  0.40295714666E+03  0.00000000000E+00 0.  1.
          2   -1    0    0  502    0  0.00000000000E+00 -0.00000000000E+00 -0.56094763732E+03  0.56094763732E+03  0.00000000000E+00 0. -1.
    9000007    2    1    2  502    0  0.21114365057E+03 -0.11843682616E+03  0.91108427632E+01  0.46738511810E+03  0.39969603226E+03 0.  0.
    9000005    1    3    3    0    0  0.26477432905E+03 -0.15147060680E+03  0.12959606581E+03  0.33142862024E+03  0.99999687468E+00 0.  0.
          4    1    3    3  502    0 -0.53630678480E+02  0.33033780640E+02 -0.12048522305E+03  0.13595649786E+03  0.00000000000E+00 0.  1.
   -9000007    1    1    2    0  501 -0.21114365057E+03  0.11843682616E+03 -0.16710133342E+03  0.49651966587E+03  0.40000000000E+03 0. -1.
<mgrwt>
<rscale>  2 0.46742630E+03</rscale>
<asrwt>0</asrwt>
<pdfrwt beam="1">  1        2 0.86299636E-01 0.46742630E+03</pdfrwt>
<pdfrwt beam="2">  1       -2 0.61993408E-01 0.46742630E+03</pdfrwt>
<totfact> 0.13365951E+02</totfact>
</mgrwt>
</event>
<event>
 6    1  0.8861680E-004  0.4832187E+03  0.7818608E-02  0.1018254E+00
         -2   -1    0    0    0  501 -0.00000000000E+00  0.00000000000E+00  0.14023751057E+03  0.14023751057E+03  0.00000000000E+00 0.  1.
          2   -1    0    0  502    0  0.00000000000E+00 -0.00000000000E+00 -0.24333879807E+04  0.24333879807E+04  0.00000000000E+00 0. -1.
    9000007    2    1    2  502    0  0.45351091837E+02  0.26739997690E+03 -0.42338952367E+03  0.64241719952E+03  0.39985209804E+03 0.  0.
    9000005    1    3    3    0    0 -0.93601155572E+02  0.15864661807E+03 -0.42794692047E+03  0.46590717153E+03  0.99999687468E+00 0.  0.
          4    1    3    3  502    0  0.13895224741E+03  0.10875335883E+03  0.45573967966E+01  0.17651002799E+03  0.00000000000E+00 0.  1.
   -9000007    1    1    2    0  501 -0.45351091837E+02 -0.26739997690E+03 -0.18697609465E+04  0.19312082917E+04  0.40000000000E+03 0. -1.
<mgrwt>
<rscale>  2 0.48321870E+03</rscale>
<asrwt>0</asrwt>
<pdfrwt beam="1">  1        2 0.37436737E+00 0.48321870E+03</pdfrwt>
<pdfrwt beam="2">  1       -2 0.21575002E-01 0.48321870E+03</pdfrwt>
<totfact> 0.76723965E+01</totfact>
</mgrwt>
</event>
<event>
 6    1  0.8861680E-004  0.4309356E+03  0.7818608E-02  0.1033565E+00
          1   -1    0    0  502    0  0.00000000000E+00  0.00000000000E+00  0.25155400704E+03  0.25155400704E+03  0.00000000000E+00 0. -1.
         -1   -1    0    0    0  501 -0.00000000000E+00 -0.00000000000E+00 -0.76255547343E+03  0.76255547343E+03  0.00000000000E+00 0.  1.
    9000007    2    1    2  502    0  0.13357213072E+03  0.90857248340E+02 -0.16468505507E+03  0.46090824183E+03  0.39902216272E+03 0.  0.
    9000005    1    3    3    0    0  0.10268038608E+03 -0.15301445742E+03 -0.80237367844E+02  0.20098686788E+03  0.99999687468E+00 0.  0.
          4    1    3    3  502    0  0.30891744640E+02  0.24387170576E+03 -0.84447687230E+02  0.25992137395E+03  0.00000000000E+00 0.  1.
   -9000007    1    1    2    0  501 -0.13357213072E+03 -0.90857248340E+02 -0.34631641131E+03  0.55320123863E+03  0.40000000000E+03 0.  1.
<mgrwt>
<rscale>  2 0.43093559E+03</rscale>
<asrwt>0</asrwt>
<pdfrwt beam="1">  1        1 0.38700617E-01 0.43093559E+03</pdfrwt>
<pdfrwt beam="2">  1       -1 0.11731623E+00 0.43093559E+03</pdfrwt>
<totfact> 0.75485936E+01</totfact>
</mgrwt>
</event>
<event>
 6    1  0.8861680E-004  0.4241817E+03  0.7818608E-02  0.1035714E+00
          2   -1    0    0  502    0  0.00000000000E+00  0.00000000000E+00  0.18109986464E+04  0.18109986464E+04  0.00000000000E+00 0. -1.
         -2   -1    0    0    0  501 -0.00000000000E+00 -0.00000000000E+00 -0.10176307310E+03  0.10176307310E+03  0.00000000000E+00 0.  1.
    9000007    2    1    2  502    0 -0.97123127321E+02 -0.10183526002E+03  0.70776506101E+03  0.82522022189E+03  0.40031701312E+03 0.  0.
    9000005    1    3    3    0    0  0.17034739600E+01  0.76353626064E+02  0.57936704294E+03  0.58437996926E+03  0.99999687468E+00 0.  0.
          4    1    3    3  502    0 -0.98826601281E+02 -0.17818888608E+03  0.12839801807E+03  0.24084025263E+03  0.00000000000E+00 0.  1.
   -9000007    1    1    2    0  501  0.97123127321E+02  0.10183526002E+03  0.10014705122E+04  0.10875414976E+04  0.40000000000E+03 0.  1.
<mgrwt>
<rscale>  2 0.42418172E+03</rscale>
<asrwt>0</asrwt>
<pdfrwt beam="1">  1        2 0.27861515E+00 0.42418172E+03</pdfrwt>
<pdfrwt beam="2">  1       -2 0.15655859E-01 0.42418172E+03</pdfrwt>
<totfact> 0.29178113E+02</totfact>
</mgrwt>
</event>
<event>
 6    1  0.8861680E-004  0.4058339E+03  0.7818608E-02  0.1041778E+00
          1   -1    0    0  502    0  0.00000000000E+00  0.00000000000E+00  0.15664436378E+04  0.15664436378E+04  0.00000000000E+00 0.  1.
         -1   -1    0    0    0  501 -0.00000000000E+00 -0.00000000000E+00 -0.14768790877E+03  0.14768790877E+03  0.00000000000E+00 0. -1.
    9000007    2    1    2  502    0 -0.65017211434E+02  0.15511044243E+02  0.11697416735E+04  0.12382367786E+04  0.40058320860E+03 0.  0.
    9000005    1    3    3    0    0  0.14837791664E+03  0.56728581868E+02  0.73768005319E+03  0.75459061683E+03  0.99999687468E+00 0.  0.
          4    1    3    3  502    0 -0.21339512808E+03 -0.41217537626E+02  0.43206162030E+03  0.48364616180E+03  0.00000000000E+00 0.  1.
   -9000007    1    1    2    0  501  0.65017211434E+02 -0.15511044243E+02  0.24901405554E+03  0.47589476792E+03  0.40000000000E+03 0. -1.
<mgrwt>
<rscale>  2 0.40583386E+03</rscale>
<asrwt>0</asrwt>
<pdfrwt beam="1">  1        1 0.24099132E+00 0.40583386E+03</pdfrwt>
<pdfrwt beam="2">  1       -1 0.22721218E-01 0.40583386E+03</pdfrwt>
<totfact> 0.10364209E+02</totfact>
</mgrwt>
</event>
<event>
 6    1  0.8861680E-004  0.4198813E+03  0.7818608E-02  0.1037105E+00
          2   -1    0    0  502    0  0.00000000000E+00  0.00000000000E+00  0.30159495320E+03  0.30159495320E+03  0.00000000000E+00 0.  1.
         -2   -1    0    0    0  501 -0.00000000000E+00 -0.00000000000E+00 -0.11160367375E+04  0.11160367375E+04  0.00000000000E+00 0. -1.
    9000007    2    1    2  502    0 -0.12430545297E+03 -0.24088740821E+02 -0.89652661349E+03  0.99011557139E+03  0.40067039190E+03 0.  0.
    9000005    1    3    3    0    0 -0.23165049983E+02 -0.38816932135E+01 -0.88614316758E+03  0.88645496249E+03  0.99999687468E+00 0.  0.
          4    1    3    3  502    0 -0.10114040298E+03 -0.20207047608E+02 -0.10383445911E+02  0.10366060890E+03  0.00000000000E+00 0.  1.
   -9000007    1    1    2    0  501  0.12430545297E+03  0.24088740821E+02  0.82084829212E+02  0.42751611930E+03  0.40000000000E+03 0.  1.
<mgrwt>
<rscale>  2 0.41988128E+03</rscale>
<asrwt>0</asrwt>
<pdfrwt beam="1">  1        2 0.46399224E-01 0.41988128E+03</pdfrwt>
<pdfrwt beam="2">  1       -2 0.17169796E+00 0.41988128E+03</pdfrwt>
<totfact> 0.23718353E+01</totfact>
</mgrwt>
</event>
<event>
 6    1  0.8861680E-004  0.5445668E+03  0.7818608E-02  0.1002759E+00
         -2   -1    0    0    0  501 -0.00000000000E+00  0.00000000000E+00  0.21628550710E+03  0.21628550710E+03  0.00000000000E+00 0. -1.
          2   -1    0    0  502    0  0.00000000000E+00 -0.00000000000E+00 -0.20073126451E+04  0.20073126451E+04  0.00000000000E+00 0.  1.
    9000007    2    1    2  502    0 -0.35479913731E+03  0.10175512185E+03 -0.26992767201E+03  0.60805486336E+03  0.40079076347E+03 0.  0.
    9000005    1    3    3    0    0 -0.23355574838E+03  0.25428848795E+03 -0.13345116576E+03  0.37016366156E+03  0.99999687468E+00 0.  0.
          4    1    3    3  502    0 -0.12124338893E+03 -0.15253336610E+03 -0.13647650625E+03  0.23789120180E+03  0.00000000000E+00 0.  1.
   -9000007    1    1    2    0  501  0.35479913731E+03 -0.10175512185E+03 -0.15210994660E+04  0.16155432888E+04  0.40000000000E+03 0.  1.
<mgrwt>
<rscale>  2 0.54456678E+03</rscale>
<asrwt>0</asrwt>
<pdfrwt beam="1">  1        2 0.30881732E+00 0.54456678E+03</pdfrwt>
<pdfrwt beam="2">  1       -2 0.33274694E-01 0.54456678E+03</pdfrwt>
<totfact> 0.59112661E+01</totfact>
</mgrwt>
</event>
<event>
 6    1  0.8861680E-004  0.5645963E+03  0.7818608E-02  0.9981708E-01
         -2   -1    0    0    0  501 -0.00000000000E+00  0.00000000000E+00  0.10469886409E+04  0.10469886409E+04  0.00000000000E+00 0.  1.
          2   -1    0    0  502    0  0.00000000000E+00 -0.00000000000E+00 -0.30804978289E+03  0.30804978289E+03  0.00000000000E+00 0. -1.
    9000007    2    1    2  502    0 -0.34974143359E+03 -0.19031135548E+03  0.29649113975E+03  0.63789306488E+03  0.40057843661E+03 0.  0.
    9000005    1    3    3    0    0 -0.33966188553E+03  0.32836232587E+02  0.18703481170E+03  0.38914192197E+03  0.99999687468E+00 0.  0.
          4    1    3    3  502    0 -0.10079548061E+02 -0.22314758807E+03  0.10945632804E+03  0.24875114291E+03  0.00000000000E+00 0.  1.
   -9000007    1    1    2    0  501  0.34974143359E+03  0.19031135548E+03  0.44244771826E+03  0.71714535890E+03  0.40000000000E+03 0.  1.
<mgrwt>
<rscale>  2 0.56459626E+03</rscale>
<asrwt>0</asrwt>
<pdfrwt beam="1">  1        2 0.47392275E-01 0.56459626E+03</pdfrwt>
<pdfrwt beam="2">  1       -2 0.16107517E+00 0.56459626E+03</pdfrwt>
<totfact> 0.27122218E+01</totfact>
</mgrwt>
</event>
<event>
 6    1  0.8861680E-004  0.4304403E+03  0.7818608E-02  0.1033721E+00
         -2   -1    0    0    0  501 -0.00000000000E+00  0.00000000000E+00  0.76672970828E+02  0.76672970828E+02  0.00000000000E+00 0.  1.
          2   -1    0    0  502    0  0.00000000000E+00 -0.00000000000E+00 -0.25132239736E+04  0.25132239736E+04  0.00000000000E+00 0. -1.
    9000007    2    1    2  502    0  0.15238641492E+03 -0.49639968296E+02 -0.96293060838E+03  0.10545654451E+04  0.39898267587E+03 0.  0.
    9000005    1    3    3    0    0 -0.11238972769E+03 -0.12245236632E+02 -0.55779865718E+03  0.56914122909E+03  0.99999687468E+00 0.  0.
          4    1    3    3  502    0  0.26477614261E+03 -0.37394731664E+02 -0.40513195120E+03  0.48542421606E+03  0.00000000000E+00 0.  1.
   -9000007    1    1    2    0  501 -0.15238641492E+03  0.49639968296E+02 -0.14736203944E+04  0.15353314993E+04  0.40000000000E+03 0. -1.
<mgrwt>
<rscale>  2 0.43044034E+03</rscale>
<asrwt>0</asrwt>
<pdfrwt beam="1">  1        2 0.38664981E+00 0.43044034E+03</pdfrwt>
<pdfrwt beam="2">  1       -2 0.11795843E-01 0.43044034E+03</pdfrwt>
<totfact> 0.19407090E+02</totfact>
</mgrwt>
</event>
<event>
 6    1  0.8861680E-004  0.4572614E+03  0.7818608E-02  0.1025578E+00
          2   -1    0    0  502    0  0.00000000000E+00  0.00000000000E+00  0.14157725774E+04  0.14157725774E+04  0.00000000000E+00 0.  1.
         -2   -1    0    0    0  501 -0.00000000000E+00 -0.00000000000E+00 -0.15509887955E+03  0.15509887955E+03  0.00000000000E+00 0. -1.
    9000007    2    1    2  502    0  0.18900804220E+03 -0.11591657728E+03  0.80195875926E+03  0.92312143742E+03  0.39981826344E+03 0.  0.
    9000005    1    3    3    0    0  0.20126327330E+03  0.76837060576E+02  0.21159863910E+03  0.30196990432E+03  0.99999687468E+00 0.  0.
          4    1    3    3  502    0 -0.12255231100E+02 -0.19275363786E+03  0.59036012016E+03  0.62115153310E+03  0.00000000000E+00 0.  1.
   -9000007    1    1    2    0  501 -0.18900804220E+03  0.11591657728E+03  0.45871493855E+03  0.64775001949E+03  0.40000000000E+03 0. -1.
<mgrwt>
<rscale>  2 0.45726142E+03</rscale>
<asrwt>0</asrwt>
<pdfrwt beam="1">  1        2 0.21781116E+00 0.45726142E+03</pdfrwt>
<pdfrwt beam="2">  1       -2 0.23861367E-01 0.45726142E+03</pdfrwt>
<totfact> 0.22975356E+02</totfact>
</mgrwt>
</event>
<event>
 6    1  0.8861680E-004  0.4644829E+03  0.7818608E-02  0.1023489E+00
          1   -1    0    0  502    0  0.00000000000E+00  0.00000000000E+00  0.35110259732E+04  0.35110259732E+04  0.00000000000E+00 0. -1.
         -1   -1    0    0    0  501 -0.00000000000E+00 -0.00000000000E+00 -0.65278019147E+02  0.65278019147E+02  0.00000000000E+00 0.  1.
    9000007    2    1    2  502    0  0.22196363129E+03  0.82124508733E+02  0.12887165856E+04  0.13697690135E+04  0.39932996844E+03 0.  0.
    9000005    1    3    3    0    0  0.30073699374E+03  0.15021229879E+02  0.11872626467E+04  0.12248518151E+04  0.99999687468E+00 0.  0.
          4    1    3    3  502    0 -0.78773362449E+02  0.67103278854E+02  0.10145393898E+03  0.14491719842E+03  0.00000000000E+00 0.  1.
   -9000007    1    1    2    0  501 -0.22196363129E+03 -0.82124508733E+02  0.21570313684E+04  0.22065349788E+04  0.40000000000E+03 0. -1.
<mgrwt>
<rscale>  2 0.46448287E+03</rscale>
<asrwt>0</asrwt>
<pdfrwt beam="1">  1        1 0.54015770E+00 0.46448287E+03</pdfrwt>
<pdfrwt beam="2">  1       -1 0.10042775E-01 0.46448287E+03</pdfrwt>
<totfact> 0.17484268E+01</totfact>
</mgrwt>
</event>
<event>
 6    1  0.8861680E-004  0.4395073E+03  0.7818608E-02  0.1030898E+00
          2   -1    0    0  502    0  0.00000000000E+00  0.00000000000E+00  0.15071582253E+04  0.15071582253E+04  0.00000000000E+00 0.  1.
         -2   -1    0    0    0  501 -0.00000000000E+00 -0.00000000000E+00 -0.12847395547E+03  0.12847395547E+03  0.00000000000E+00 0. -1.
    9000007    2    1    2  502    0 -0.15132852119E+03  0.10078850946E+03  0.72956341844E+03  0.85178492226E+03  0.40027006795E+03 0.  0.
    9000005    1    3    3    0    0 -0.28655174335E+03  0.34318536426E+02  0.46295331273E+03  0.54554232954E+03  0.99999687468E+00 0.  0.
          4    1    3    3  502    0  0.13522322216E+03  0.66469973038E+02  0.26661010571E+03  0.30624259272E+03  0.00000000000E+00 0.  1.
   -9000007    1    1    2    0  501  0.15132852119E+03 -0.10078850946E+03  0.64912085136E+03  0.78384725849E+03  0.40000000000E+03 0.  1.
<mgrwt>
<rscale>  2 0.43950731E+03</rscale>
<asrwt>0</asrwt>
<pdfrwt beam="1">  1        2 0.23187048E+00 0.43950731E+03</pdfrwt>
<pdfrwt beam="2">  1       -2 0.19765225E-01 0.43950731E+03</pdfrwt>
<totfact> 0.28531098E+02</totfact>
</mgrwt>
</event>
<event>
 6    1  0.8861680E-004  0.4939708E+03  0.7818608E-02  0.1015365E+00
         -2   -1    0    0    0  501 -0.00000000000E+00  0.00000000000E+00  0.42372268035E+03  0.42372268035E+03  0.00000000000E+00 0. -1.
          2   -1    0    0  502    0  0.00000000000E+00 -0.00000000000E+00 -0.57904000348E+03  0.57904000348E+03  0.00000000000E+00 0.  1.
    9000007    2    1    2  502    0  0.28313109831E+03 -0.55301080109E+02 -0.40667072581E+02  0.49643659499E+03  0.40196275171E+03 0.  0.
    9000005    1    3    3    0    0  0.86269669886E+02 -0.21548753927E+03 -0.66155689546E+02  0.24136054105E+03  0.99999687468E+00 0.  0.
          4    1    3    3  502    0  0.19686142842E+03  0.16018645916E+03  0.25488616965E+02  0.25507605394E+03  0.00000000000E+00 0.  1.
   -9000007    1    1    2    0  501 -0.28313109831E+03  0.55301080109E+02 -0.11465025055E+03  0.50632608884E+03  0.40000000000E+03 0.  1.
<mgrwt>
<rscale>  2 0.49397084E+03</rscale>
<asrwt>0</asrwt>
<pdfrwt beam="1">  1        2 0.89083077E-01 0.49397084E+03</pdfrwt>
<pdfrwt beam="2">  1       -2 0.65188105E-01 0.49397084E+03</pdfrwt>
<totfact> 0.11548701E+02</totfact>
</mgrwt>
</event>
<event>
 6    1  0.8861680E-004  0.5613372E+03  0.7818608E-02  0.9989033E-01
         -2   -1    0    0    0  501 -0.00000000000E+00  0.00000000000E+00  0.25902594830E+03  0.25902594830E+03  0.00000000000E+00 0.  1.
          2   -1    0    0  502    0  0.00000000000E+00 -0.00000000000E+00 -0.17113184967E+04  0.17113184967E+04  0.00000000000E+00 0. -1.
    9000007    2    1    2  502    0 -0.39730944126E+03 -0.34602105512E+02 -0.12526562314E+04  0.13712561736E+04  0.39005610097E+03 0.  0.
    9000005    1    3    3    0    0 -0.23284649599E+03  0.49397594875E+02 -0.22636095133E+03  0.32847814745E+03  0.99999687468E+00 0.  0.
          4    1    3    3  502    0 -0.16446294527E+03 -0.83999700387E+02 -0.10262952801E+04  0.10427780262E+04  0.00000000000E+00 0.  1.
   -9000007    1    1    2    0  501  0.39730944126E+03  0.34602105512E+02 -0.19963631702E+03  0.59908827137E+03  0.40000000000E+03 0.  1.
<mgrwt>
<rscale>  2 0.56133724E+03</rscale>
<asrwt>0</asrwt>
<pdfrwt beam="1">  1        2 0.26327977E+00 0.56133724E+03</pdfrwt>
<pdfrwt beam="2">  1       -2 0.39850146E-01 0.56133724E+03</pdfrwt>
<totfact> 0.60378452E+01</totfact>
</mgrwt>
</event>
<event>
 6    1  0.8861680E-004  0.7130152E+03  0.7818608E-02  0.9695230E-01
          2   -1    0    0  502    0  0.00000000000E+00  0.00000000000E+00  0.11818358900E+04  0.11818358900E+04  0.00000000000E+00 0. -1.
         -2   -1    0    0    0  501 -0.00000000000E+00 -0.00000000000E+00 -0.45156452054E+03  0.45156452054E+03  0.00000000000E+00 0.  1.
    9000007    2    1    2  502    0  0.55008744781E+03  0.22021718315E+03  0.18645998622E+03  0.73516735139E+03  0.39320719740E+03 0.  0.
    9000005    1    3    3    0    0  0.27675063411E+03  0.13458132145E+03 -0.10630599564E+03  0.32558410629E+03  0.99999687468E+00 0.  0.
          4    1    3    3  502    0  0.27333681370E+03  0.85635861709E+02  0.29276598186E+03  0.40958324510E+03  0.00000000000E+00 0.  1.
   -9000007    1    1    2    0  501 -0.55008744781E+03 -0.22021718315E+03  0.54381138320E+03  0.89823305912E+03  0.40000000000E+03 0. -1.
<mgrwt>
<rscale>  2 0.71301516E+03</rscale>
<asrwt>0</asrwt>
<pdfrwt beam="1">  1        2 0.18182090E+00 0.71301516E+03</pdfrwt>
<pdfrwt beam="2">  1       -2 0.69471465E-01 0.71301516E+03</pdfrwt>
<totfact> 0.37512138E+01</totfact>
</mgrwt>
</event>
<event>
 6    1  0.8861680E-004  0.4178947E+03  0.7818608E-02  0.1037754E+00
         -3   -1    0    0    0  501 -0.00000000000E+00  0.00000000000E+00  0.30258431443E+03  0.30258431443E+03  0.00000000000E+00 0.  1.
          3   -1    0    0  502    0  0.00000000000E+00 -0.00000000000E+00 -0.67350859077E+03  0.67350859077E+03  0.00000000000E+00 0. -1.
    9000007    2    1    2  502    0  0.11751067958E+03 -0.68604410811E+00 -0.12396564959E+01  0.41888921836E+03  0.40206642491E+03 0.  0.
    9000005    1    3    3    0    0  0.17603221481E+02  0.88182944431E+02 -0.17671131509E+03  0.19827756800E+03  0.99999687468E+00 0.  0.
          4    1    3    3  502    0  0.99907458095E+02 -0.88868988539E+02  0.17547165860E+03  0.22061165037E+03  0.00000000000E+00 0.  1.
   -9000007    1    1    2    0  501 -0.11751067958E+03  0.68604410811E+00 -0.36968461985E+03  0.55720368684E+03  0.40000000000E+03 0. -1.
<mgrwt>
<rscale>  2 0.41789469E+03</rscale>
<asrwt>0</asrwt>
<pdfrwt beam="1">  1        3 0.10361670E+00 0.41789469E+03</pdfrwt>
<pdfrwt beam="2">  1       -3 0.46551434E-01 0.41789469E+03</pdfrwt>
<totfact> 0.96172903E+00</totfact>
</mgrwt>
</event>
<event>
 6    1  0.8861680E-004  0.4102043E+03  0.7818608E-02  0.1040302E+00
          2   -1    0    0  502    0  0.00000000000E+00  0.00000000000E+00  0.45348718407E+03  0.45348718407E+03  0.00000000000E+00 0. -1.
         -2   -1    0    0    0  501 -0.00000000000E+00 -0.00000000000E+00 -0.38883515701E+03  0.38883515701E+03  0.00000000000E+00 0.  1.
    9000007    2    1    2  502    0  0.90938000834E+02  0.35453402041E+01  0.12239129439E+03  0.42805659011E+03  0.39996315576E+03 0.  0.
    9000005    1    3    3    0    0 -0.17673619650E+02  0.17825219686E+03 -0.16432597013E+02  0.17988116287E+03  0.99999687468E+00 0.  0.
          4    1    3    3  502    0  0.10861162048E+03 -0.17470685665E+03  0.13882389140E+03  0.24817542725E+03  0.00000000000E+00 0.  1.
   -9000007    1    1    2    0  501 -0.90938000834E+02 -0.35453402041E+01 -0.57739267330E+02  0.41426575097E+03  0.40000000000E+03 0.  1.
<mgrwt>
<rscale>  2 0.41020428E+03</rscale>
<asrwt>0</asrwt>
<pdfrwt beam="1">  1        2 0.69767259E-01 0.41020428E+03</pdfrwt>
<pdfrwt beam="2">  1       -2 0.59820794E-01 0.41020428E+03</pdfrwt>
<totfact> 0.18456884E+02</totfact>
</mgrwt>
</event>
<event>
 6    1  0.8861680E-004  0.4110461E+03  0.7818608E-02  0.1040021E+00
          2   -1    0    0  502    0  0.00000000000E+00  0.00000000000E+00  0.26661418765E+03  0.26661418765E+03  0.00000000000E+00 0.  1.
         -2   -1    0    0    0  501 -0.00000000000E+00 -0.00000000000E+00 -0.69113280713E+03  0.69113280713E+03  0.00000000000E+00 0. -1.
    9000007    2    1    2  502    0 -0.93470653328E+02  0.10508694406E+02 -0.35034356718E+03  0.54019563976E+03  0.40027930056E+03 0.  0.
    9000005    1    3    3    0    0 -0.24397157416E+03  0.52645533574E+02 -0.25652492410E+03  0.35791020925E+03  0.99999687468E+00 0.  0.
          4    1    3    3  502    0  0.15050092084E+03 -0.42136839168E+02 -0.93818643080E+02  0.18228543051E+03  0.00000000000E+00 0.  1.
   -9000007    1    1    2    0  501  0.93470653328E+02 -0.10508694406E+02 -0.74175052300E+02  0.41755135502E+03  0.40000000000E+03 0.  1.
<mgrwt>
<rscale>  2 0.41104613E+03</rscale>
<asrwt>0</asrwt>
<pdfrwt beam="1">  1        2 0.41017568E-01 0.41104613E+03</pdfrwt>
<pdfrwt beam="2">  1       -2 0.10632812E+00 0.41104613E+03</pdfrwt>
<totfact> 0.91929401E+01</totfact>
</mgrwt>
</event>
<event>
 6    1  0.8861680E-004  0.5147462E+03  0.7818608E-02  0.1010000E+00
          2   -1    0    0  502    0  0.00000000000E+00  0.00000000000E+00  0.17366082946E+04  0.17366082946E+04  0.00000000000E+00 0.  1.
         -2   -1    0    0    0  501 -0.00000000000E+00 -0.00000000000E+00 -0.15261743141E+03  0.15261743141E+03  0.00000000000E+00 0. -1.
    9000007    2    1    2  502    0 -0.66868868595E+02  0.31658649321E+03  0.80806941301E+03  0.95823026409E+03  0.40066271288E+03 0.  0.
    9000005    1    3    3    0    0 -0.10267788561E+02  0.50009363502E+02 -0.41640439710E+02  0.65888467373E+02  0.99999687468E+00 0.  0.
          4    1    3    3  502    0 -0.56601080034E+02  0.26657712971E+03  0.84970985272E+03  0.89234179671E+03  0.00000000000E+00 0.  1.
   -9000007    1    1    2    0  501  0.66868868595E+02 -0.31658649321E+03  0.77592145015E+03  0.93099546190E+03  0.40000000000E+03 0.  1.
<mgrwt>
<rscale>  2 0.51474618E+03</rscale>
<asrwt>0</asrwt>
<pdfrwt beam="1">  1        2 0.26717049E+00 0.51474618E+03</pdfrwt>
<pdfrwt beam="2">  1       -2 0.23479606E-01 0.51474618E+03</pdfrwt>
<totfact> 0.15699249E+02</totfact>
</mgrwt>
</event>
<event>
 6    1  0.8861680E-004  0.4174475E+03  0.7818608E-02  0.1037900E+00
          1   -1    0    0  502    0  0.00000000000E+00  0.00000000000E+00  0.17369776355E+04  0.17369776355E+04  0.00000000000E+00 0.  1.
         -1   -1    0    0    0  501 -0.00000000000E+00 -0.00000000000E+00 -0.10698031495E+03  0.10698031495E+03  0.00000000000E+00 0. -1.
    9000007    2    1    2  502    0  0.36780731835E+02 -0.11285164453E+03  0.10453394459E+04  0.11256870083E+04  0.40043522281E+03 0.  0.
    9000005    1    3    3    0    0  0.72616811682E+02 -0.25282509637E+03  0.54936612453E+03  0.60909594439E+03  0.99999687468E+00 0.  0.
          4    1    3    3  502    0 -0.35836079846E+02  0.13997345184E+03  0.49597332138E+03  0.51659106395E+03  0.00000000000E+00 0.  1.
   -9000007    1    1    2    0  501 -0.36780731835E+02  0.11285164453E+03  0.58465787463E+03  0.71827094210E+03  0.40000000000E+03 0. -1.
<mgrwt>
<rscale>  2 0.41744750E+03</rscale>
<asrwt>0</asrwt>
<pdfrwt beam="1">  1        1 0.26722731E+00 0.41744750E+03</pdfrwt>
<pdfrwt beam="2">  1       -1 0.16458511E-01 0.41744750E+03</pdfrwt>
<totfact> 0.13536180E+02</totfact>
</mgrwt>
</event>
<event>
 6    1  0.8861680E-004  0.4258258E+03  0.7818608E-02  0.1035187E+00
          2   -1    0    0  502    0  0.00000000000E+00  0.00000000000E+00  0.77389788931E+03  0.77389788931E+03  0.00000000000E+00 0.  1.
         -2   -1    0    0    0  501 -0.00000000000E+00 -0.00000000000E+00 -0.24408226708E+03  0.24408226708E+03  0.00000000000E+00 0. -1.
    9000007    2    1    2  502    0 -0.22921021160E+02  0.14357745073E+03  0.36691342925E+03  0.56226425581E+03  0.40046943856E+03 0.  0.
    9000005    1    3    3    0    0  0.15540221931E+02  0.22186910226E+03  0.42642335446E+02  0.22646581597E+03  0.99999687468E+00 0.  0.
          4    1    3    3  502    0 -0.38461243091E+02 -0.78291651531E+02  0.32427109380E+03  0.33579843984E+03  0.00000000000E+00 0.  1.
   -9000007    1    1    2    0  501  0.22921021160E+02 -0.14357745073E+03  0.16290219297E+03  0.45571590058E+03  0.40000000000E+03 0. -1.
<mgrwt>
<rscale>  2 0.42582584E+03</rscale>
<asrwt>0</asrwt>
<pdfrwt beam="1">  1        2 0.11906121E+00 0.42582584E+03</pdfrwt>
<pdfrwt beam="2">  1       -2 0.37551118E-01 0.42582584E+03</pdfrwt>
<totfact> 0.24753874E+02</totfact>
</mgrwt>
</event>
<event>
 6    1  0.8861680E-004  0.4392659E+03  0.7818608E-02  0.1030972E+00
          2   -1    0    0  502    0  0.00000000000E+00  0.00000000000E+00  0.28766005950E+03  0.28766005950E+03  0.00000000000E+00 0. -1.
         -2   -1    0    0    0  501 -0.00000000000E+00 -0.00000000000E+00 -0.69932832755E+03  0.69932832755E+03  0.00000000000E+00 0.  1.
    9000007    2    1    2  502    0 -0.16102318143E+03  0.82676343251E+02 -0.10621123182E+03  0.45213528229E+03  0.40047677215E+03 0.  0.
    9000005    1    3    3    0    0 -0.24635882801E+03 -0.77271235230E+02 -0.62133995446E+02  0.26556571562E+03  0.99999687468E+00 0.  0.
          4    1    3    3  502    0  0.85335646575E+02  0.15994757848E+03 -0.44077236371E+02  0.18656956666E+03  0.00000000000E+00 0.  1.
   -9000007    1    1    2    0  501  0.16102318143E+03 -0.82676343251E+02 -0.30545703623E+03  0.53485310476E+03  0.40000000000E+03 0.  1.
<mgrwt>
<rscale>  2 0.43926595E+03</rscale>
<asrwt>0</asrwt>
<pdfrwt beam="1">  1        2 0.44255395E-01 0.43926595E+03</pdfrwt>
<pdfrwt beam="2">  1       -2 0.10758897E+00 0.43926595E+03</pdfrwt>
<totfact> 0.82057942E+01</totfact>
</mgrwt>
</event>
<event>
 6    1  0.8861680E-004  0.4364093E+03  0.7818608E-02  0.1031854E+00
         -2   -1    0    0    0  501 -0.00000000000E+00  0.00000000000E+00  0.89832164174E+02  0.89832164174E+02  0.00000000000E+00 0. -1.
          2   -1    0    0  502    0  0.00000000000E+00 -0.00000000000E+00 -0.21927048530E+04  0.21927048530E+04  0.00000000000E+00 0.  1.
    9000007    2    1    2  502    0  0.14827010796E+03  0.92759823958E+02 -0.12587497809E+04  0.13322044998E+04  0.39966161757E+03 0.  0.
    9000005    1    3    3    0    0  0.45571583683E+02 -0.10625539480E+02  0.15763187011E+02  0.49387745313E+02  0.99999687468E+00 0.  0.
          4    1    3    3  502    0  0.10269852428E+03  0.10338536344E+03 -0.12745129679E+04  0.12828167545E+04  0.00000000000E+00 0.  1.
   -9000007    1    1    2    0  501 -0.14827010796E+03 -0.92759823958E+02 -0.84412290791E+03  0.95033251734E+03  0.40000000000E+03 0.  1.
<mgrwt>
<rscale>  2 0.43640929E+03</rscale>
<asrwt>0</asrwt>
<pdfrwt beam="1">  1        2 0.33733918E+00 0.43640929E+03</pdfrwt>
<pdfrwt beam="2">  1       -2 0.13820334E-01 0.43640929E+03</pdfrwt>
<totfact> 0.22390831E+02</totfact>
</mgrwt>
</event>
<event>
 6    1  0.8861680E-004  0.4110163E+03  0.7818608E-02  0.1040031E+00
         -2   -1    0    0    0  501 -0.00000000000E+00  0.00000000000E+00  0.13520482590E+03  0.13520482590E+03  0.00000000000E+00 0. -1.
          2   -1    0    0  502    0  0.00000000000E+00 -0.00000000000E+00 -0.13735897299E+04  0.13735897299E+04  0.00000000000E+00 0.  1.
    9000007    2    1    2  502    0 -0.63812633807E+02 -0.70507191238E+02 -0.84578413428E+03  0.94030649028E+03  0.39972762928E+03 0.  0.
    9000005    1    3    3    0    0 -0.14084303385E+03  0.52805141099E+02 -0.10034009916E+03  0.18081559282E+03  0.99999687468E+00 0.  0.
          4    1    3    3  502    0  0.77030400048E+02 -0.12331233234E+03 -0.74544403511E+03  0.75949089746E+03  0.00000000000E+00 0.  1.
   -9000007    1    1    2    0  501  0.63812633807E+02  0.70507191238E+02 -0.39260076969E+03  0.56848806550E+03  0.40000000000E+03 0. -1.
<mgrwt>
<rscale>  2 0.41101626E+03</rscale>
<asrwt>0</asrwt>
<pdfrwt beam="1">  1        2 0.21132150E+00 0.41101626E+03</pdfrwt>
<pdfrwt beam="2">  1       -2 0.20800742E-01 0.41101626E+03</pdfrwt>
<totfact> 0.31026265E+02</totfact>
</mgrwt>
</event>
<event>
 6    1  0.8861680E-004  0.4828459E+03  0.7818608E-02  0.1018356E+00
          1   -1    0    0  502    0  0.00000000000E+00  0.00000000000E+00  0.89814912281E+03  0.89814912281E+03  0.00000000000E+00 0.  1.
         -1   -1    0    0    0  501 -0.00000000000E+00 -0.00000000000E+00 -0.25959165625E+03  0.25959165625E+03  0.00000000000E+00 0. -1.
    9000007    2    1    2  502    0 -0.27392146680E+03  0.23048769618E+01  0.32137664988E+03  0.57839463650E+03  0.39524564769E+03 0.  0.
    9000005    1    3    3    0    0 -0.10231206580E+03  0.18621053458E+03  0.22380362382E+03  0.30859550228E+03  0.99999687468E+00 0.  0.
          4    1    3    3  502    0 -0.17160940100E+03 -0.18390565762E+03  0.97573026056E+02  0.26979913422E+03  0.00000000000E+00 0.  1.
   -9000007    1    1    2    0  501  0.27392146680E+03 -0.23048769618E+01  0.31718081667E+03  0.57934614256E+03  0.40000000000E+03 0. -1.
<mgrwt>
<rscale>  2 0.48284592E+03</rscale>
<asrwt>0</asrwt>
<pdfrwt beam="1">  1        1 0.13817679E+00 0.48284592E+03</pdfrwt>
<pdfrwt beam="2">  1       -1 0.39937178E-01 0.48284592E+03</pdfrwt>
<totfact> 0.11635980E+02</totfact>
</mgrwt>
</event>
<event>
 6    1  0.8861680E-004  0.4623172E+03  0.7818608E-02  0.1024111E+00
          2   -1    0    0  502    0  0.00000000000E+00  0.00000000000E+00  0.19255757950E+04  0.19255757950E+04  0.00000000000E+00 0.  1.
         -2   -1    0    0    0  501 -0.00000000000E+00 -0.00000000000E+00 -0.11374646566E+03  0.11374646566E+03  0.00000000000E+00 0. -1.
    9000007    2    1    2  502    0  0.19678079837E+03  0.12853036036E+03  0.74438253550E+03  0.87541273076E+03  0.39623143978E+03 0.  0.
    9000005    1    3    3    0    0  0.79064293257E+02  0.16422321282E+03  0.78822652558E+02  0.19858105812E+03  0.99999687468E+00 0.  0.
          4    1    3    3  502    0  0.11771650512E+03 -0.35692852460E+02  0.66555988294E+03  0.67683167263E+03  0.00000000000E+00 0.  1.
   -9000007    1    1    2    0  501 -0.19678079837E+03 -0.12853036036E+03  0.10674467939E+04  0.11639095299E+04  0.40000000000E+03 0. -1.
<mgrwt>
<rscale>  2 0.46231715E+03</rscale>
<asrwt>0</asrwt>
<pdfrwt beam="1">  1        2 0.29624241E+00 0.46231715E+03</pdfrwt>
<pdfrwt beam="2">  1       -2 0.17499458E-01 0.46231715E+03</pdfrwt>
<totfact> 0.20873499E+02</totfact>
</mgrwt>
</event>
<event>
 6    1  0.8861680E-004  0.4490003E+03  0.7818608E-02  0.1028021E+00
         -2   -1    0    0    0  501 -0.00000000000E+00  0.00000000000E+00  0.13661134509E+03  0.13661134509E+03  0.00000000000E+00 0.  1.
          2   -1    0    0  502    0  0.00000000000E+00 -0.00000000000E+00 -0.14758297256E+04  0.14758297256E+04  0.00000000000E+00 0. -1.
    9000007    2    1    2  502    0  0.16409473824E+03 -0.12207213714E+03 -0.66257881193E+03  0.80024048245E+03  0.39943141835E+03 0.  0.
    9000005    1    3    3    0    0  0.27831943061E+03 -0.10324071233E+03 -0.31029722553E+03  0.42942486922E+03  0.99999687468E+00 0.  0.
          4    1    3    3  502    0 -0.11422469237E+03 -0.18831424801E+02 -0.35228158639E+03  0.37081561323E+03  0.00000000000E+00 0.  1.
   -9000007    1    1    2    0  501 -0.16409473824E+03  0.12207213714E+03 -0.67663956862E+03  0.81220058828E+03  0.40000000000E+03 0.  1.
<mgrwt>
<rscale>  2 0.44900032E+03</rscale>
<asrwt>0</asrwt>
<pdfrwt beam="1">  1        2 0.22705073E+00 0.44900032E+03</pdfrwt>
<pdfrwt beam="2">  1       -2 0.21017130E-01 0.44900032E+03</pdfrwt>
<totfact> 0.26646222E+02</totfact>
</mgrwt>
</event>
<event>
 6    1  0.8861680E-004  0.6219361E+03  0.7818608E-02  0.9860912E-01
          1   -1    0    0  502    0  0.00000000000E+00  0.00000000000E+00  0.64518310579E+03  0.64518310579E+03  0.00000000000E+00 0. -1.
         -1   -1    0    0    0  501 -0.00000000000E+00 -0.00000000000E+00 -0.60938945691E+03  0.60938945691E+03  0.00000000000E+00 0.  1.
    9000007    2    1    2  502    0  0.12088817824E+03  0.46115493572E+03  0.97687490750E+02  0.62918574318E+03  0.39881578103E+03 0.  0.
    9000005    1    3    3    0    0  0.15297621370E+03  0.52530815454E+03  0.10489293333E+03  0.55709416317E+03  0.99999687468E+00 0.  0.
          4    1    3    3  502    0 -0.32088035465E+02 -0.64153218821E+02 -0.72054425767E+01  0.72091580007E+02  0.00000000000E+00 0.  1.
   -9000007    1    1    2    0  501 -0.12088817824E+03 -0.46115493572E+03 -0.61893841873E+02  0.62538681953E+03  0.40000000000E+03 0.  1.
<mgrwt>
<rscale>  2 0.62193613E+03</rscale>
<asrwt>0</asrwt>
<pdfrwt beam="1">  1        1 0.99258939E-01 0.62193613E+03</pdfrwt>
<pdfrwt beam="2">  1       -1 0.93752224E-01 0.62193613E+03</pdfrwt>
<totfact> 0.35256291E+01</totfact>
</mgrwt>
</event>
<event>
 6    1  0.8861680E-004  0.4557075E+03  0.7818608E-02  0.1026034E+00
         -2   -1    0    0    0  501 -0.00000000000E+00  0.00000000000E+00  0.18103533105E+03  0.18103533105E+03  0.00000000000E+00 0.  1.
          2   -1    0    0  502    0  0.00000000000E+00 -0.00000000000E+00 -0.21369907161E+04  0.21369907161E+04  0.00000000000E+00 0. -1.
    9000007    2    1    2  502    0  0.12659757516E+03  0.18219420932E+03 -0.17648304106E+04  0.18222938293E+04  0.39611456186E+03 0.  0.
    9000005    1    3    3    0    0 -0.48322992471E+02  0.23062584077E+02 -0.12968962086E+04  0.12980014523E+04  0.99999687468E+00 0.  0.
          4    1    3    3  502    0  0.17492056763E+03  0.15913162524E+03 -0.46793420204E+03  0.52429237699E+03  0.00000000000E+00 0.  1.
   -9000007    1    1    2    0  501 -0.12659757516E+03 -0.18219420932E+03 -0.19112497441E+03  0.49573221782E+03  0.40000000000E+03 0.  1.
<mgrwt>
<rscale>  2 0.45570746E+03</rscale>
<asrwt>0</asrwt>
<pdfrwt beam="1">  1        2 0.32876780E+00 0.45570746E+03</pdfrwt>
<pdfrwt beam="2">  1       -2 0.27851590E-01 0.45570746E+03</pdfrwt>
<totfact> 0.71011329E+01</totfact>
</mgrwt>
</event>
<event>
 6    1  0.8861680E-004  0.5605642E+03  0.7818608E-02  0.9990779E-01
         -2   -1    0    0    0  501 -0.00000000000E+00  0.00000000000E+00  0.15887341842E+03  0.15887341842E+03  0.00000000000E+00 0. -1.
          2   -1    0    0  502    0  0.00000000000E+00 -0.00000000000E+00 -0.26198965831E+04  0.26198965831E+04  0.00000000000E+00 0.  1.
    9000007    2    1    2  502    0  0.46565031841E+02 -0.39004261093E+03 -0.54262133821E+03  0.78012868594E+03  0.39982659918E+03 0.  0.
    9000005    1    3    3    0    0  0.20792022551E+02 -0.47163894958E+03 -0.42909160459E+03  0.63796254755E+03  0.99999687468E+00 0.  0.
          4    1    3    3  502    0  0.25773009290E+02  0.81596338644E+02 -0.11352973362E+03  0.14216613839E+03  0.00000000000E+00 0.  1.
   -9000007    1    1    2    0  501 -0.46565031841E+02  0.39004261093E+03 -0.19184018265E+04  0.19986413156E+04  0.40000000000E+03 0.  1.
<mgrwt>
<rscale>  2 0.56056417E+03</rscale>
<asrwt>0</asrwt>
<pdfrwt beam="1">  1        2 0.40306102E+00 0.56056417E+03</pdfrwt>
<pdfrwt beam="2">  1       -2 0.24442064E-01 0.56056417E+03</pdfrwt>
<totfact> 0.47607748E+01</totfact>
</mgrwt>
</event>
<event>
 6    1  0.8861680E-004  0.4009850E+03  0.7818608E-02  0.1043439E+00
          2   -1    0    0  502    0  0.00000000000E+00  0.00000000000E+00  0.23513516589E+03  0.23513516589E+03  0.00000000000E+00 0.  1.
         -2   -1    0    0    0  501 -0.00000000000E+00 -0.00000000000E+00 -0.77819353293E+03  0.77819353293E+03  0.00000000000E+00 0. -1.
    9000007    2    1    2  502    0  0.27449085793E+02 -0.51703083159E+01 -0.95089315545E+02  0.41211621101E+03  0.40002201071E+03 0.  0.
    9000005    1    3    3    0    0 -0.16290058245E+03  0.74676131071E+02  0.11937470998E+02  0.17960130156E+03  0.99999687468E+00 0.  0.
          4    1    3    3  502    0  0.19034966824E+03 -0.79846439387E+02 -0.10702678654E+03  0.23251490946E+03  0.00000000000E+00 0.  1.
   -9000007    1    1    2    0  501 -0.27449085793E+02  0.51703083159E+01 -0.44796905150E+03  0.60121248781E+03  0.40000000000E+03 0. -1.
<mgrwt>
<rscale>  2 0.40098502E+03</rscale>
<asrwt>0</asrwt>
<pdfrwt beam="1">  1        2 0.36174640E-01 0.40098502E+03</pdfrwt>
<pdfrwt beam="2">  1       -2 0.11972208E+00 0.40098502E+03</pdfrwt>
<totfact> 0.79347583E+01</totfact>
</mgrwt>
</event>
<event>
 6    1  0.8861680E-004  0.4664640E+03  0.7818608E-02  0.1022923E+00
         -1   -1    0    0    0  501 -0.00000000000E+00  0.00000000000E+00  0.12651602131E+03  0.12651602131E+03  0.00000000000E+00 0. -1.
          1   -1    0    0  502    0  0.00000000000E+00 -0.00000000000E+00 -0.21293801063E+04  0.21293801063E+04  0.00000000000E+00 0.  1.
    9000007    2    1    2  502    0  0.23665549317E+03  0.19470949889E+02 -0.14983239623E+04  0.15696413092E+04  0.40300645566E+03 0.  0.
    9000005    1    3    3    0    0  0.59186406212E+02 -0.18149967626E+03 -0.77674052522E+03  0.79985749148E+03  0.99999687468E+00 0.  0.
          4    1    3    3  502    0  0.17746908696E+03  0.20097062615E+03 -0.72158343710E+03  0.76978381777E+03  0.00000000000E+00 0.  1.
   -9000007    1    1    2    0  501 -0.23665549317E+03 -0.19470949889E+02 -0.50454012267E+03  0.68625481836E+03  0.40000000000E+03 0.  1.
<mgrwt>
<rscale>  2 0.46646403E+03</rscale>
<asrwt>0</asrwt>
<pdfrwt beam="1">  1        1 0.32759692E+00 0.46646403E+03</pdfrwt>
<pdfrwt beam="2">  1       -1 0.19464004E-01 0.46646403E+03</pdfrwt>
<totfact> 0.56225766E+01</totfact>
</mgrwt>
</event>
<event>
 6    1  0.8861680E-004  0.4346895E+03  0.7818608E-02  0.1032389E+00
          2   -1    0    0  502    0  0.00000000000E+00  0.00000000000E+00  0.17607993846E+04  0.17607993846E+04  0.00000000000E+00 0.  1.
         -2   -1    0    0    0  501 -0.00000000000E+00 -0.00000000000E+00 -0.10898025976E+03  0.10898025976E+03  0.00000000000E+00 0. -1.
    9000007    2    1    2  502    0  0.88416036481E+02  0.14541938881E+03  0.94155848474E+03  0.10370525756E+04  0.39997683714E+03 0.  0.
    9000005    1    3    3    0    0 -0.19159025408E+02 -0.51366778355E+02  0.71902309005E+03  0.72111082241E+03  0.99999687468E+00 0.  0.
          4    1    3    3  502    0  0.10757506189E+03  0.19678616717E+03  0.22253539469E+03  0.31594175321E+03  0.00000000000E+00 0.  1.
   -9000007    1    1    2    0  501 -0.88416036481E+02 -0.14541938881E+03  0.71026064008E+03  0.83272706873E+03  0.40000000000E+03 0. -1.
<mgrwt>
<rscale>  2 0.43468946E+03</rscale>
<asrwt>0</asrwt>
<pdfrwt beam="1">  1        2 0.27089219E+00 0.43468946E+03</pdfrwt>
<pdfrwt beam="2">  1       -2 0.16766195E-01 0.43468946E+03</pdfrwt>
<totfact> 0.27610459E+02</totfact>
</mgrwt>
</event>
<event>
 6    1  0.8861680E-004  0.5915816E+03  0.7818608E-02  0.9923027E-01
         -1   -1    0    0    0  501 -0.00000000000E+00  0.00000000000E+00  0.27084932337E+03  0.27084932337E+03  0.00000000000E+00 0. -1.
          1   -1    0    0  502    0  0.00000000000E+00 -0.00000000000E+00 -0.17370269813E+04  0.17370269813E+04  0.00000000000E+00 0.  1.
    9000007    2    1    2  502    0  0.39433252724E+03 -0.18572033386E+03 -0.22498257371E+03  0.63290160616E+03  0.39994637160E+03 0.  0.
    9000005    1    3    3    0    0  0.22250122600E+03 -0.24720335972E+03  0.13183390718E+02  0.33285296816E+03  0.99999687468E+00 0.  0.
          4    1    3    3  502    0  0.17183130124E+03  0.61483025858E+02 -0.23816596443E+03  0.30004863800E+03  0.00000000000E+00 0.  1.
   -9000007    1    1    2    0  501 -0.39433252724E+03  0.18572033386E+03 -0.12411950842E+04  0.13749746985E+04  0.40000000000E+03 0.  1.
<mgrwt>
<rscale>  2 0.59158155E+03</rscale>
<asrwt>0</asrwt>
<pdfrwt beam="1">  1        1 0.26723491E+00 0.59158155E+03</pdfrwt>
<pdfrwt beam="2">  1       -1 0.41669128E-01 0.59158155E+03</pdfrwt>
<totfact> 0.26920823E+01</totfact>
</mgrwt>
</event>
<event>
 6    1  0.8861680E-004  0.4092857E+03  0.7818608E-02  0.1040611E+00
          2   -1    0    0  502    0  0.00000000000E+00  0.00000000000E+00  0.63948124785E+03  0.63948124785E+03  0.00000000000E+00 0.  1.
         -2   -1    0    0    0  501 -0.00000000000E+00 -0.00000000000E+00 -0.27144432995E+03  0.27144432995E+03  0.00000000000E+00 0. -1.
    9000007    2    1    2  502    0 -0.13844969440E+02  0.87936077315E+02  0.26896219956E+03  0.48933307706E+03  0.39897588729E+03 0.  0.
    9000005    1    3    3    0    0  0.11554933040E+03 -0.10819288881E+03  0.44622612510E+02  0.16446740251E+03  0.99999687468E+00 0.  0.
          4    1    3    3  502    0 -0.12939429984E+03  0.19612896613E+03  0.22433958705E+03  0.32486567455E+03  0.00000000000E+00 0.  1.
   -9000007    1    1    2    0  501  0.13844969440E+02 -0.87936077315E+02  0.99074718346E+02  0.42159250075E+03  0.40000000000E+03 0. -1.
<mgrwt>
<rscale>  2 0.40928574E+03</rscale>
<asrwt>0</asrwt>
<pdfrwt beam="1">  1        2 0.98381730E-01 0.40928574E+03</pdfrwt>
<pdfrwt beam="2">  1       -2 0.41760666E-01 0.40928574E+03</pdfrwt>
<totfact> 0.25590158E+02</totfact>
</mgrwt>
</event>
<event>
 6    1  0.8861680E-004  0.4117119E+03  0.7818608E-02  0.1039798E+00
         -1   -1    0    0    0  501 -0.00000000000E+00  0.00000000000E+00  0.25804213476E+03  0.25804213476E+03  0.00000000000E+00 0.  1.
          1   -1    0    0  502    0  0.00000000000E+00 -0.00000000000E+00 -0.19366643122E+04  0.19366643122E+04  0.00000000000E+00 0. -1.
    9000007    2    1    2  502    0  0.91748938909E+02 -0.32490632103E+02  0.52702508515E+02  0.41511135898E+03  0.40008296263E+03 0.  0.
    9000005    1    3    3    0    0  0.22152615167E+03 -0.83804875557E+02 -0.49710873322E+02  0.24201087570E+03  0.99999687468E+00 0.  0.
          4    1    3    3  502    0 -0.12977721276E+03  0.51314243454E+02  0.10241338184E+03  0.17310048328E+03  0.00000000000E+00 0.  1.
   -9000007    1    1    2    0  501 -0.91748938909E+02  0.32490632103E+02 -0.17313246860E+04  0.17795950880E+04  0.40000000000E+03 0. -1.
<mgrwt>
<rscale>  2 0.41171191E+03</rscale>
<asrwt>0</asrwt>
<pdfrwt beam="1">  1        1 0.29794835E+00 0.41171191E+03</pdfrwt>
<pdfrwt beam="2">  1       -1 0.39698791E-01 0.41171191E+03</pdfrwt>
<totfact> 0.22494783E+01</totfact>
</mgrwt>
</event>
<event>
 6    1  0.8861680E-004  0.4123321E+03  0.7818608E-02  0.1039591E+00
         -1   -1    0    0    0  501 -0.00000000000E+00  0.00000000000E+00  0.13042966457E+03  0.13042966457E+03  0.00000000000E+00 0.  1.
          1   -1    0    0  502    0  0.00000000000E+00 -0.00000000000E+00 -0.17487247694E+04  0.17487247694E+04  0.00000000000E+00 0. -1.
    9000007    2    1    2  502    0  0.95337203962E+02 -0.43402068835E+02 -0.12815307987E+04  0.13458785955E+04  0.39761172483E+03 0.  0.
    9000005    1    3    3    0    0  0.18762378257E+03 -0.16148834787E+03 -0.95556134786E+03  0.98710671145E+03  0.99999687468E+00 0.  0.
          4    1    3    3  502    0 -0.92286578609E+02  0.11808627903E+03 -0.32596945084E+03  0.35877188403E+03  0.00000000000E+00 0.  1.
   -9000007    1    1    2    0  501 -0.95337203962E+02  0.43402068835E+02 -0.33676430617E+03  0.53327583852E+03  0.40000000000E+03 0.  1.
<mgrwt>
<rscale>  2 0.41233214E+03</rscale>
<asrwt>0</asrwt>
<pdfrwt beam="1">  1        1 0.26903458E+00 0.41233214E+03</pdfrwt>
<pdfrwt beam="2">  1       -1 0.20066102E-01 0.41233214E+03</pdfrwt>
<totfact> 0.96279226E+01</totfact>
</mgrwt>
</event>
<event>
 6    1  0.8861680E-004  0.4119120E+03  0.7818608E-02  0.1039731E+00
         -2   -1    0    0    0  501 -0.00000000000E+00  0.00000000000E+00  0.10385106197E+03  0.10385106197E+03  0.00000000000E+00 0. -1.
          2   -1    0    0  502    0  0.00000000000E+00 -0.00000000000E+00 -0.16811332693E+04  0.16811332693E+04  0.00000000000E+00 0.  1.
    9000007    2    1    2  502    0  0.98228787355E+02  0.10935988669E+02 -0.63865955805E+03  0.75990825202E+03  0.39975746382E+03 0.  0.
    9000005    1    3    3    0    0 -0.10676071641E+01  0.13752808813E+03 -0.56759960404E+03  0.58402519236E+03  0.99999687468E+00 0.  0.
          4    1    3    3  502    0  0.99296394519E+02 -0.12659209946E+03 -0.71059954012E+02  0.17588305966E+03  0.00000000000E+00 0.  1.
   -9000007    1    1    2    0  501 -0.98228787355E+02 -0.10935988669E+02 -0.93862264924E+03  0.10250760792E+04  0.40000000000E+03 0. -1.
<mgrwt>
<rscale>  2 0.41191198E+03</rscale>
<asrwt>0</asrwt>
<pdfrwt beam="1">  1        2 0.25863588E+00 0.41191198E+03</pdfrwt>
<pdfrwt beam="2">  1       -2 0.15977087E-01 0.41191198E+03</pdfrwt>
<totfact> 0.33143434E+02</totfact>
</mgrwt>
</event>
<event>
 6    1  0.8861680E-004  0.4342007E+03  0.7818608E-02  0.1032541E+00
         -1   -1    0    0    0  501 -0.00000000000E+00  0.00000000000E+00  0.16974296612E+03  0.16974296612E+03  0.00000000000E+00 0.  1.
          1   -1    0    0  502    0  0.00000000000E+00 -0.00000000000E+00 -0.11206426710E+04  0.11206426710E+04  0.00000000000E+00 0. -1.
    9000007    2    1    2  502    0  0.13149115370E+03  0.10524711343E+03 -0.53648415220E+03  0.69029636985E+03  0.40040848428E+03 0.  0.
    9000005    1    3    3    0    0  0.43966905573E+01 -0.14215858014E+03 -0.10441627492E+03  0.17644305387E+03  0.99999687468E+00 0.  0.
          4    1    3    3  502    0  0.12709446314E+03  0.24740569357E+03 -0.43206787728E+03  0.51385331598E+03  0.00000000000E+00 0.  1.
   -9000007    1    1    2    0  501 -0.13149115370E+03 -0.10524711343E+03 -0.41441555270E+03  0.60008926728E+03  0.40000000000E+03 0. -1.
<mgrwt>
<rscale>  2 0.43420074E+03</rscale>
<asrwt>0</asrwt>
<pdfrwt beam="1">  1        1 0.17240657E+00 0.43420074E+03</pdfrwt>
<pdfrwt beam="2">  1       -1 0.26114302E-01 0.43420074E+03</pdfrwt>
<totfact> 0.16622318E+02</totfact>
</mgrwt>
</event>
<event>
 6    1  0.8861680E-004  0.4804538E+03  0.7818608E-02  0.1019011E+00
          1   -1    0    0  502    0  0.00000000000E+00  0.00000000000E+00  0.20275814698E+03  0.20275814698E+03  0.00000000000E+00 0. -1.
         -1   -1    0    0    0  501 -0.00000000000E+00 -0.00000000000E+00 -0.14855094685E+04  0.14855094685E+04  0.00000000000E+00 0.  1.
    9000007    2    1    2  502    0  0.10711132650E+02 -0.26656057628E+03 -0.10490180269E+04  0.11536644709E+04  0.39916615779E+03 0.  0.
    9000005    1    3    3    0    0 -0.11124398490E+03 -0.70875130655E+02 -0.72958405759E+02  0.15073963409E+03  0.99999687468E+00 0.  0.
          4    1    3    3  502    0  0.12195511755E+03 -0.19568544563E+03 -0.97605962112E+03  0.10029248368E+04  0.00000000000E+00 0.  1.
   -9000007    1    1    2    0  501 -0.10711132650E+02  0.26656057628E+03 -0.23373329469E+03  0.53460314462E+03  0.40000000000E+03 0. -1.
<mgrwt>
<rscale>  2 0.48045378E+03</rscale>
<asrwt>0</asrwt>
<pdfrwt beam="1">  1        1 0.31193561E-01 0.48045378E+03</pdfrwt>
<pdfrwt beam="2">  1       -1 0.22853992E+00 0.48045378E+03</pdfrwt>
<totfact> 0.15070899E+01</totfact>
</mgrwt>
</event>
<event>
 6    1  0.8861680E-004  0.4336397E+03  0.7818608E-02  0.1032716E+00
          1   -1    0    0  502    0  0.00000000000E+00  0.00000000000E+00  0.93081392350E+03  0.93081392350E+03  0.00000000000E+00 0.  1.
         -1   -1    0    0    0  501 -0.00000000000E+00 -0.00000000000E+00 -0.23303275642E+03  0.23303275642E+03  0.00000000000E+00 0. -1.
    9000007    2    1    2  502    0 -0.10172856635E+02 -0.16384877989E+03  0.13749167546E+03  0.45612199891E+03  0.40273242653E+03 0.  0.
    9000005    1    3    3    0    0 -0.18207771660E+03 -0.17549234015E+03  0.34077218621E+02  0.25517075294E+03  0.99999687468E+00 0.  0.
          4    1    3    3  502    0  0.17190485996E+03  0.11643560254E+02  0.10341445684E+03  0.20095124597E+03  0.00000000000E+00 0.  1.
   -9000007    1    1    2    0  501  0.10172856635E+02  0.16384877989E+03  0.56028949163E+03  0.70772468101E+03  0.40000000000E+03 0.  1.
<mgrwt>
<rscale>  2 0.43363973E+03</rscale>
<asrwt>0</asrwt>
<pdfrwt beam="1">  1        1 0.14320214E+00 0.43363973E+03</pdfrwt>
<pdfrwt beam="2">  1       -1 0.35851194E-01 0.43363973E+03</pdfrwt>
<totfact> 0.13367013E+02</totfact>
</mgrwt>
</event>
<event>
 6    1  0.8861680E-004  0.4298254E+03  0.7818608E-02  0.1033915E+00
          2   -1    0    0  502    0  0.00000000000E+00  0.00000000000E+00  0.21067482971E+04  0.21067482971E+04  0.00000000000E+00 0.  1.
         -2   -1    0    0    0  501 -0.00000000000E+00 -0.00000000000E+00 -0.10459165887E+03  0.10459165887E+03  0.00000000000E+00 0. -1.
    9000007    2    1    2  502    0  0.22335392357E+02  0.15104488419E+03  0.55996233368E+03  0.70693381437E+03  0.40358911775E+03 0.  0.
    9000005    1    3    3    0    0  0.85268677022E+02  0.27383466929E+03  0.31670408830E+03  0.42726882981E+03  0.99999687468E+00 0.  0.
          4    1    3    3  502    0 -0.62933284666E+02 -0.12278978510E+03  0.24325824539E+03  0.27966498456E+03  0.00000000000E+00 0.  1.
   -9000007    1    1    2    0  501 -0.22335392357E+02 -0.15104488419E+03  0.14421943046E+04  0.15044061416E+04  0.40000000000E+03 0.  1.
<mgrwt>
<rscale>  2 0.42982541E+03</rscale>
<asrwt>0</asrwt>
<pdfrwt beam="1">  1        2 0.32411509E+00 0.42982541E+03</pdfrwt>
<pdfrwt beam="2">  1       -2 0.16091026E-01 0.42982541E+03</pdfrwt>
<totfact> 0.19333630E+02</totfact>
</mgrwt>
</event>
<event>
 6    1  0.8861680E-004  0.4103351E+03  0.7818608E-02  0.1040259E+00
          2   -1    0    0  502    0  0.00000000000E+00  0.00000000000E+00  0.20069753611E+04  0.20069753611E+04  0.00000000000E+00 0. -1.
         -2   -1    0    0    0  501 -0.00000000000E+00 -0.00000000000E+00 -0.86535855328E+02  0.86535855328E+02  0.00000000000E+00 0.  1.
    9000007    2    1    2  502    0 -0.55237644246E-01 -0.91843753035E+02  0.11429180423E+04  0.12143213028E+04  0.39984909284E+03 0.  0.
    9000005    1    3    3    0    0 -0.18399031651E+03 -0.21573252376E+02  0.33557044739E+03  0.38330975326E+03  0.99999687468E+00 0.  0.
          4    1    3    3  502    0  0.18393507887E+03 -0.70270500659E+02  0.80734759492E+03  0.83101154958E+03  0.00000000000E+00 0.  1.
   -9000007    1    1    2    0  501  0.55237644246E-01  0.91843753035E+02  0.77752146343E+03  0.87918991357E+03  0.40000000000E+03 0.  1.
<mgrwt>
<rscale>  2 0.41033513E+03</rscale>
<asrwt>0</asrwt>
<pdfrwt beam="1">  1        2 0.30876541E+00 0.41033513E+03</pdfrwt>
<pdfrwt beam="2">  1       -2 0.13313210E-01 0.41033513E+03</pdfrwt>
<totfact> 0.30097123E+02</totfact>
</mgrwt>
</event>
<event>
 6    1  0.8861680E-004  0.5300770E+03  0.7818608E-02  0.1006213E+00
          1   -1    0    0  502    0  0.00000000000E+00  0.00000000000E+00  0.24920372302E+03  0.24920372302E+03  0.00000000000E+00 0.  1.
         -1   -1    0    0    0  501 -0.00000000000E+00 -0.00000000000E+00 -0.11374510950E+04  0.11374510950E+04  0.00000000000E+00 0. -1.
    9000007    2    1    2  502    0  0.23826732254E+03  0.25320586930E+03 -0.50899118381E+03  0.73494952766E+03  0.40024274355E+03 0.  0.
    9000005    1    3    3    0    0  0.34804553232E+03  0.21988069392E+03 -0.35984706134E+03  0.54678525920E+03  0.99999687468E+00 0.  0.
          4    1    3    3  502    0 -0.10977820978E+03  0.33325175376E+02 -0.14914412247E+03  0.18816426845E+03  0.00000000000E+00 0.  1.
   -9000007    1    1    2    0  501 -0.23826732254E+03 -0.25320586930E+03 -0.37925618818E+03  0.65170529038E+03  0.40000000000E+03 0. -1.
<mgrwt>
<rscale>  2 0.53007701E+03</rscale>
<asrwt>0</asrwt>
<pdfrwt beam="1">  1        1 0.38339035E-01 0.53007701E+03</pdfrwt>
<pdfrwt beam="2">  1       -1 0.17499247E+00 0.53007701E+03</pdfrwt>
<totfact> 0.26505887E+01</totfact>
</mgrwt>
</event>
<event>
 6    1  0.8861680E-004  0.5168221E+03  0.7818608E-02  0.1009479E+00
         -1   -1    0    0    0  501 -0.00000000000E+00  0.00000000000E+00  0.50733508512E+02  0.50733508512E+02  0.00000000000E+00 0. -1.
          1   -1    0    0  502    0  0.00000000000E+00 -0.00000000000E+00 -0.52680219821E+04  0.52680219821E+04  0.00000000000E+00 0.  1.
    9000007    2    1    2  502    0 -0.31710793657E+03  0.77077275153E+02 -0.26766341299E+04  0.27261847888E+04  0.40151573764E+03 0.  0.
    9000005    1    3    3    0    0 -0.36552164651E+03 -0.54424683887E+02 -0.17125140230E+04  0.17519341880E+04  0.99999687468E+00 0.  0.
          4    1    3    3  502    0  0.48413709945E+02  0.13150195904E+03 -0.96412010689E+03  0.97425060074E+03  0.00000000000E+00 0.  1.
   -9000007    1    1    2    0  501  0.31710793657E+03 -0.77077275153E+02 -0.25406543437E+04  0.25925707018E+04  0.40000000000E+03 0.  1.
<mgrwt>
<rscale>  2 0.51682212E+03</rscale>
<asrwt>0</asrwt>
<pdfrwt beam="1">  1        1 0.81046462E+00 0.51682212E+03</pdfrwt>
<pdfrwt beam="2">  1       -1 0.78051580E-02 0.51682212E+03</pdfrwt>
<totfact> 0.43574425E-01</totfact>
</mgrwt>
</event>
<event>
 6    1  0.8861680E-004  0.4108790E+03  0.7818608E-02  0.1040076E+00
         -1   -1    0    0    0  501 -0.00000000000E+00  0.00000000000E+00  0.35058364774E+03  0.35058364774E+03  0.00000000000E+00 0. -1.
          1   -1    0    0  502    0  0.00000000000E+00 -0.00000000000E+00 -0.84851714058E+03  0.84851714058E+03  0.00000000000E+00 0.  1.
    9000007    2    1    2  502    0  0.29130262933E+02  0.91063582209E+02  0.14545342468E+03  0.43549888035E+03  0.39920098674E+03 0.  0.
    9000005    1    3    3    0    0  0.56493054847E+02  0.52942408804E+02  0.28130739315E+03  0.29176910963E+03  0.99999687468E+00 0.  0.
          4    1    3    3  502    0 -0.27362791914E+02  0.38121173404E+02 -0.13585396847E+03  0.14372977072E+03  0.00000000000E+00 0.  1.
   -9000007    1    1    2    0  501 -0.29130262933E+02 -0.91063582209E+02 -0.64338691752E+03  0.76360190797E+03  0.40000000000E+03 0.  1.
<mgrwt>
<rscale>  2 0.41087901E+03</rscale>
<asrwt>0</asrwt>
<pdfrwt beam="1">  1        1 0.13054110E+00 0.41087901E+03</pdfrwt>
<pdfrwt beam="2">  1       -1 0.53935946E-01 0.41087901E+03</pdfrwt>
<totfact> 0.73952542E+01</totfact>
</mgrwt>
</event>
<event>
 6    1  0.8861680E-004  0.4184690E+03  0.7818608E-02  0.1037566E+00
          1   -1    0    0  502    0  0.00000000000E+00  0.00000000000E+00  0.17819281531E+04  0.17819281531E+04  0.00000000000E+00 0.  1.
         -1   -1    0    0    0  501 -0.00000000000E+00 -0.00000000000E+00 -0.10332605846E+03  0.10332605846E+03  0.00000000000E+00 0. -1.
    9000007    2    1    2  502    0  0.36507351260E+02 -0.11907491016E+03  0.10468428836E+04  0.11272098054E+04  0.39901165596E+03 0.  0.
    9000005    1    3    3    0    0 -0.97280542745E+02  0.10983778660E+03  0.46953333314E+03  0.49192519175E+03  0.99999687468E+00 0.  0.
          4    1    3    3  502    0  0.13378789400E+03 -0.22891269676E+03  0.57730955041E+03  0.63528461363E+03  0.00000000000E+00 0.  1.
   -9000007    1    1    2    0  501 -0.36507351260E+02  0.11907491016E+03  0.63175921109E+03  0.75804440617E+03  0.40000000000E+03 0.  1.
<mgrwt>
<rscale>  2 0.41846903E+03</rscale>
<asrwt>0</asrwt>
<pdfrwt beam="1">  1        1 0.27414277E+00 0.41846903E+03</pdfrwt>
<pdfrwt beam="2">  1       -1 0.15896318E-01 0.41846903E+03</pdfrwt>
<totfact> 0.13370977E+02</totfact>
</mgrwt>
</event>
<event>
 6    1  0.8861680E-004  0.4145686E+03  0.7818608E-02  0.1038849E+00
         -1   -1    0    0    0  501 -0.00000000000E+00  0.00000000000E+00  0.67181654145E+03  0.67181654145E+03  0.00000000000E+00 0. -1.
          1   -1    0    0  502    0  0.00000000000E+00 -0.00000000000E+00 -0.36079821523E+03  0.36079821523E+03  0.00000000000E+00 0.  1.
    9000007    2    1    2  502    0  0.97227678428E+02  0.49112071606E+02  0.43400413287E+03  0.60019051399E+03  0.40000481085E+03 0.  0.
    9000005    1    3    3    0    0  0.47118986496E+02  0.30455063239E+02  0.50678374433E+03  0.50988084223E+03  0.99999687468E+00 0.  0.
          4    1    3    3  502    0  0.50108691932E+02  0.18657008367E+02 -0.72779611460E+02  0.90309671755E+02  0.00000000000E+00 0.  1.
   -9000007    1    1    2    0  501 -0.97227678428E+02 -0.49112071606E+02 -0.12298580664E+03  0.43242424269E+03  0.40000000000E+03 0.  1.
<mgrwt>
<rscale>  2 0.41456862E+03</rscale>
<asrwt>0</asrwt>
<pdfrwt beam="1">  1        1 0.55507418E-01 0.41456862E+03</pdfrwt>
<pdfrwt beam="2">  1       -1 0.10335639E+00 0.41456862E+03</pdfrwt>
<totfact> 0.64025310E+01</totfact>
</mgrwt>
</event>
<event>
 6    1  0.8861680E-004  0.5041927E+03  0.7818608E-02  0.1012690E+00
          2   -1    0    0  502    0  0.00000000000E+00  0.00000000000E+00  0.30638506015E+04  0.30638506015E+04  0.00000000000E+00 0.  1.
         -2   -1    0    0    0  501 -0.00000000000E+00 -0.00000000000E+00 -0.15272786410E+03  0.15272786410E+03  0.00000000000E+00 0. -1.
    9000007    2    1    2  502    0  0.23864055487E+03 -0.18799526752E+03  0.25454669011E+04  0.25952929228E+04  0.40478645700E+03 0.  0.
    9000005    1    3    3    0    0  0.10065809016E+03 -0.30748051352E+03  0.16114167841E+04  0.16435757876E+04  0.99999687468E+00 0.  0.
          4    1    3    3  502    0  0.13798246471E+03  0.11948524601E+03  0.93405011691E+03  0.95171713523E+03  0.00000000000E+00 0.  1.
   -9000007    1    1    2    0  501 -0.23864055487E+03  0.18799526752E+03  0.36565583637E+03  0.62128554281E+03  0.40000000000E+03 0. -1.
<mgrwt>
<rscale>  2 0.50419270E+03</rscale>
<asrwt>0</asrwt>
<pdfrwt beam="1">  1        2 0.47136159E+00 0.50419270E+03</pdfrwt>
<pdfrwt beam="2">  1       -2 0.23496597E-01 0.50419270E+03</pdfrwt>
<totfact> 0.28287817E+01</totfact>
</mgrwt>
</event>
<event>
 6    1  0.8861680E-004  0.6337710E+03  0.7818608E-02  0.9837718E-01
          1   -1    0    0  502    0  0.00000000000E+00  0.00000000000E+00  0.14944664966E+04  0.14944664966E+04  0.00000000000E+00 0.  1.
         -1   -1    0    0    0  501 -0.00000000000E+00 -0.00000000000E+00 -0.28727293591E+03  0.28727293591E+03  0.00000000000E+00 0. -1.
    9000007    2    1    2  502    0 -0.44250689358E+03 -0.21286761774E+03  0.83007796751E+03  0.10446226547E+04  0.40135032692E+03 0.  0.
    9000005    1    3    3    0    0 -0.25848865458E+03 -0.27465497413E+03  0.30578335533E+03  0.48554731979E+03  0.99999687468E+00 0.  0.
          4    1    3    3  502    0 -0.18401823900E+03  0.61787356389E+02  0.52429461218E+03  0.55907533486E+03  0.00000000000E+00 0.  1.
   -9000007    1    1    2    0  501  0.44250689358E+03  0.21286761774E+03  0.37711559313E+03  0.73711677781E+03  0.40000000000E+03 0. -1.
<mgrwt>
<rscale>  2 0.63377098E+03</rscale>
<asrwt>0</asrwt>
<pdfrwt beam="1">  1        1 0.22991792E+00 0.63377098E+03</pdfrwt>
<pdfrwt beam="2">  1       -1 0.44195837E-01 0.63377098E+03</pdfrwt>
<totfact> 0.34979127E+01</totfact>
</mgrwt>
</event>
<event>
 6    1  0.8861680E-004  0.4837443E+03  0.7818608E-02  0.1018111E+00
         -2   -1    0    0    0  501 -0.00000000000E+00  0.00000000000E+00  0.14758965082E+03  0.14758965082E+03  0.00000000000E+00 0. -1.
          2   -1    0    0  502    0  0.00000000000E+00 -0.00000000000E+00 -0.16974548899E+04  0.16974548899E+04  0.00000000000E+00 0.  1.
    9000007    2    1    2  502    0  0.25323718214E+03 -0.98978397384E+02 -0.53817864005E+03  0.72369019520E+03  0.40020676712E+03 0.  0.
    9000005    1    3    3    0    0  0.32834790546E+03 -0.17150182067E+03 -0.35634019829E+03  0.51400832525E+03  0.99999687468E+00 0.  0.
          4    1    3    3  502    0 -0.75110723320E+02  0.72523423289E+02 -0.18183844176E+03  0.20968186995E+03  0.00000000000E+00 0.  1.
   -9000007    1    1    2    0  501 -0.25323718214E+03  0.98978397384E+02 -0.10116865990E+04  0.11213543455E+04  0.40000000000E+03 0.  1.
<mgrwt>
<rscale>  2 0.48374426E+03</rscale>
<asrwt>0</asrwt>
<pdfrwt beam="1">  1        2 0.26114690E+00 0.48374426E+03</pdfrwt>
<pdfrwt beam="2">  1       -2 0.22706101E-01 0.48374426E+03</pdfrwt>
<totfact> 0.17559035E+02</totfact>
</mgrwt>
</event>
<event>
 6    1  0.8861680E-004  0.5362480E+03  0.7818608E-02  0.1004728E+00
          1   -1    0    0  502    0  0.00000000000E+00  0.00000000000E+00  0.20086199852E+04  0.20086199852E+04  0.00000000000E+00 0.  1.
         -1   -1    0    0    0  501 -0.00000000000E+00 -0.00000000000E+00 -0.14321042859E+03  0.14321042859E+03  0.00000000000E+00 0. -1.
    9000007    2    1    2  502    0 -0.48300039299E+02  0.35395248772E+03  0.91323543048E+03  0.10590125773E+04  0.39986676527E+03 0.  0.
    9000005    1    3    3    0    0  0.48055546216E+02  0.31659542613E+03  0.30557651296E+03  0.44262851765E+03  0.99999687468E+00 0.  0.
          4    1    3    3  502    0 -0.96355585515E+02  0.37357061590E+02  0.60765891752E+03  0.61638405962E+03  0.00000000000E+00 0.  1.
   -9000007    1    1    2    0  501  0.48300039299E+02 -0.35395248772E+03  0.95217412612E+03  0.10928178365E+04  0.40000000000E+03 0.  1.
<mgrwt>
<rscale>  2 0.53624805E+03</rscale>
<asrwt>0</asrwt>
<pdfrwt beam="1">  1        1 0.30901844E+00 0.53624805E+03</pdfrwt>
<pdfrwt beam="2">  1       -1 0.22032375E-01 0.53624805E+03</pdfrwt>
<totfact> 0.54351274E+01</totfact>
</mgrwt>
</event>
<event>
 6    1  0.8861680E-004  0.4025011E+03  0.7818608E-02  0.1042917E+00
         -2   -1    0    0    0  501 -0.00000000000E+00  0.00000000000E+00  0.25970047549E+03  0.25970047549E+03  0.00000000000E+00 0.  1.
          2   -1    0    0  502    0  0.00000000000E+00 -0.00000000000E+00 -0.79277858944E+03  0.79277858944E+03  0.00000000000E+00 0. -1.
    9000007    2    1    2  502    0 -0.72050288162E+02  0.14273806883E+02 -0.21489692632E+02  0.39893664213E+03  0.39152733232E+03 0.  0.
    9000005    1    3    3    0    0 -0.54165492866E+02  0.90187293002E+02 -0.18779194234E+03  0.21525441235E+03  0.99999687468E+00 0.  0.
          4    1    3    3  502    0 -0.17884795296E+02 -0.75913486119E+02  0.16630224971E+03  0.18368222977E+03  0.00000000000E+00 0.  1.
   -9000007    1    1    2    0  501  0.72050288162E+02 -0.14273806883E+02 -0.51158842131E+03  0.65354242280E+03  0.40000000000E+03 0. -1.
<mgrwt>
<rscale>  2 0.40250107E+03</rscale>
<asrwt>0</asrwt>
<pdfrwt beam="1">  1        2 0.12196593E+00 0.40250107E+03</pdfrwt>
<pdfrwt beam="2">  1       -2 0.39953920E-01 0.40250107E+03</pdfrwt>
<totfact> 0.21343834E+02</totfact>
</mgrwt>
</event>
<event>
 6    1  0.8861680E-004  0.4892781E+03  0.7818608E-02  0.1016616E+00
         -2   -1    0    0    0  501 -0.00000000000E+00  0.00000000000E+00  0.14085172920E+03  0.14085172920E+03  0.00000000000E+00 0. -1.
          2   -1    0    0  502    0  0.00000000000E+00 -0.00000000000E+00 -0.34848068184E+04  0.34848068184E+04  0.00000000000E+00 0.  1.
    9000007    2    1    2  502    0 -0.28001184862E+03  0.39619578096E+02 -0.37347734140E+03  0.61505820937E+03  0.39854100171E+03 0.  0.
    9000005    1    3    3    0    0 -0.20996556956E+02  0.18651909154E+03 -0.11066191433E+03  0.21789283189E+03  0.99999687468E+00 0.  0.
          4    1    3    3  502    0 -0.25901529166E+03 -0.14689951344E+03 -0.26281542707E+03  0.39716537748E+03  0.00000000000E+00 0.  1.
   -9000007    1    1    2    0  501  0.28001184862E+03 -0.39619578096E+02 -0.29704777478E+04  0.30106003382E+04  0.40000000000E+03 0.  1.
<mgrwt>
<rscale>  2 0.48927814E+03</rscale>
<asrwt>0</asrwt>
<pdfrwt beam="1">  1        2 0.53612409E+00 0.48927814E+03</pdfrwt>
<pdfrwt beam="2">  1       -2 0.21669498E-01 0.48927814E+03</pdfrwt>
<totfact> 0.17615645E+01</totfact>
</mgrwt>
</event>
<event>
 6    1  0.8861680E-004  0.4064775E+03  0.7818608E-02  0.1041560E+00
          2   -1    0    0  502    0  0.00000000000E+00  0.00000000000E+00  0.13369573759E+04  0.13369573759E+04  0.00000000000E+00 0.  1.
         -2   -1    0    0    0  501 -0.00000000000E+00 -0.00000000000E+00 -0.13202127510E+03  0.13202127510E+03  0.00000000000E+00 0. -1.
    9000007    2    1    2  502    0 -0.49240292104E+02  0.49741117156E+02  0.78872302504E+03  0.88748737031E+03  0.40081297026E+03 0.  0.
    9000005    1    3    3    0    0  0.14045609989E+03  0.32847262871E+02  0.10683598875E+03  0.17950428173E+03  0.99999687468E+00 0.  0.
          4    1    3    3  502    0 -0.18969639200E+03  0.16893854285E+02  0.68188703629E+03  0.70798308858E+03  0.00000000000E+00 0.  1.
   -9000007    1    1    2    0  501  0.49240292104E+02 -0.49741117156E+02  0.41621307580E+03  0.58149128074E+03  0.40000000000E+03 0. -1.
<mgrwt>
<rscale>  2 0.40647753E+03</rscale>
<asrwt>0</asrwt>
<pdfrwt beam="1">  1        2 0.20568574E+00 0.40647753E+03</pdfrwt>
<pdfrwt beam="2">  1       -2 0.20310966E-01 0.40647753E+03</pdfrwt>
<totfact> 0.33911863E+02</totfact>
</mgrwt>
</event>
<event>
 6    1  0.8861680E-004  0.5312581E+03  0.7818608E-02  0.1005927E+00
          2   -1    0    0  502    0  0.00000000000E+00  0.00000000000E+00  0.16925329551E+04  0.16925329551E+04  0.00000000000E+00 0. -1.
         -2   -1    0    0    0  501 -0.00000000000E+00 -0.00000000000E+00 -0.16701805639E+03  0.16701805639E+03  0.00000000000E+00 0.  1.
    9000007    2    1    2  502    0 -0.34911892146E+03 -0.20920152831E+02  0.79966951528E+03  0.96001046501E+03  0.39978379800E+03 0.  0.
    9000005    1    3    3    0    0  0.71754413133E+02  0.60848244228E+02  0.21771180811E+03  0.23717216534E+03  0.99999687468E+00 0.  0.
          4    1    3    3  502    0 -0.42087333459E+03 -0.81768397059E+02  0.58195770717E+03  0.72283829967E+03  0.00000000000E+00 0.  1.
   -9000007    1    1    2    0  501  0.34911892146E+03  0.20920152831E+02  0.72584538342E+03  0.89954054648E+03  0.40000000000E+03 0.  1.
<mgrwt>
<rscale>  2 0.53125813E+03</rscale>
<asrwt>0</asrwt>
<pdfrwt beam="1">  1        2 0.26038967E+00 0.53125813E+03</pdfrwt>
<pdfrwt beam="2">  1       -2 0.25695087E-01 0.53125813E+03</pdfrwt>
<totfact> 0.14084427E+02</totfact>
</mgrwt>
</event>
<event>
 6    1  0.8861680E-004  0.4784323E+03  0.7818608E-02  0.1019567E+00
          1   -1    0    0  502    0  0.00000000000E+00  0.00000000000E+00  0.48683364676E+03  0.48683364676E+03  0.00000000000E+00 0.  1.
         -1   -1    0    0    0  501 -0.00000000000E+00 -0.00000000000E+00 -0.47262636333E+03  0.47262636333E+03  0.00000000000E+00 0. -1.
    9000007    2    1    2  502    0  0.25102654179E+03 -0.79934385290E+02 -0.27442697921E+02  0.47869130106E+03  0.39873353182E+03 0.  0.
    9000005    1    3    3    0    0  0.29701581537E+03  0.78758060929E+02 -0.52011052713E+02  0.31165265335E+03  0.99999687468E+00 0.  0.
          4    1    3    3  502    0 -0.45989273576E+02 -0.15869244622E+03  0.24568354791E+02  0.16703864771E+03  0.00000000000E+00 0.  1.
   -9000007    1    1    2    0  501 -0.25102654179E+03  0.79934385290E+02  0.41649981353E+02  0.48076870903E+03  0.40000000000E+03 0. -1.
<mgrwt>
<rscale>  2 0.47843232E+03</rscale>
<asrwt>0</asrwt>
<pdfrwt beam="1">  1        1 0.74897485E-01 0.47843232E+03</pdfrwt>
<pdfrwt beam="2">  1       -1 0.72711748E-01 0.47843232E+03</pdfrwt>
<totfact> 0.91411098E+01</totfact>
</mgrwt>
</event>
<event>
 6    1  0.8861680E-004  0.5198970E+03  0.7818608E-02  0.1008712E+00
          1   -1    0    0  502    0  0.00000000000E+00  0.00000000000E+00  0.29238455651E+03  0.29238455651E+03  0.00000000000E+00 0. -1.
         -1   -1    0    0    0  501 -0.00000000000E+00 -0.00000000000E+00 -0.11803598194E+04  0.11803598194E+04  0.00000000000E+00 0.  1.
    9000007    2    1    2  502    0  0.12880628772E+03 -0.30569321097E+03 -0.78702841577E+03  0.94337714520E+03  0.40063363796E+03 0.  0.
    9000005    1    3    3    0    0 -0.14274575901E+03 -0.10247951558E+03 -0.33454275931E+03  0.37788657111E+03  0.99999687468E+00 0.  0.
          4    1    3    3  502    0  0.27155204673E+03 -0.20321369539E+03 -0.45248565646E+03  0.56549057409E+03  0.00000000000E+00 0.  1.
   -9000007    1    1    2    0  501 -0.12880628772E+03  0.30569321097E+03 -0.10094684711E+03  0.52936723069E+03  0.40000000000E+03 0.  1.
<mgrwt>
<rscale>  2 0.51989704E+03</rscale>
<asrwt>0</asrwt>
<pdfrwt beam="1">  1        1 0.44982240E-01 0.51989704E+03</pdfrwt>
<pdfrwt beam="2">  1       -1 0.18159382E+00 0.51989704E+03</pdfrwt>
<totfact> 0.19405660E+01</totfact>
</mgrwt>
</event>
<event>
 6    1  0.8861680E-004  0.5806666E+03  0.7818608E-02  0.9946349E-01
          1   -1    0    0  502    0  0.00000000000E+00  0.00000000000E+00  0.22894324901E+04  0.22894324901E+04  0.00000000000E+00 0. -1.
         -1   -1    0    0    0  501 -0.00000000000E+00 -0.00000000000E+00 -0.15733185804E+03  0.15733185804E+03  0.00000000000E+00 0.  1.
    9000007    2    1    2  502    0 -0.30899309309E+03 -0.28538166422E+03  0.75710664958E+03  0.95427385312E+03  0.40063534799E+03 0.  0.
    9000005    1    3    3    0    0  0.18772356942E+02  0.80473726995E+02  0.16818150004E+03  0.18738847102E+03  0.99999687468E+00 0.  0.
          4    1    3    3  502    0 -0.32776545003E+03 -0.36585539122E+03  0.58892514954E+03  0.76688538210E+03  0.00000000000E+00 0.  1.
   -9000007    1    1    2    0  501  0.30899309309E+03  0.28538166422E+03  0.13749939824E+04  0.14924904950E+04  0.40000000000E+03 0. -1.
<mgrwt>
<rscale>  2 0.58066657E+03</rscale>
<asrwt>0</asrwt>
<pdfrwt beam="1">  1        1 0.35222036E+00 0.58066657E+03</pdfrwt>
<pdfrwt beam="2">  1       -1 0.24204903E-01 0.58066657E+03</pdfrwt>
<totfact> 0.29947901E+01</totfact>
</mgrwt>
</event>
<event>
 6    1  0.8861680E-004  0.5202205E+03  0.7818608E-02  0.1008632E+00
          2   -1    0    0  502    0  0.00000000000E+00  0.00000000000E+00  0.12413128977E+04  0.12413128977E+04  0.00000000000E+00 0. -1.
         -2   -1    0    0    0  501 -0.00000000000E+00 -0.00000000000E+00 -0.22575404100E+03  0.22575404100E+03  0.00000000000E+00 0.  1.
    9000007    2    1    2  502    0  0.23209281413E+03 -0.23756270089E+03  0.37229330943E+03  0.63996738271E+03  0.40081520862E+03 0.  0.
    9000005    1    3    3    0    0  0.11630160822E+03 -0.34286883064E+03  0.28486751440E+03  0.46069035138E+03  0.99999687468E+00 0.  0.
          4    1    3    3  502    0  0.11579120590E+03  0.10530612975E+03  0.87425795030E+02  0.17927703133E+03  0.00000000000E+00 0.  1.
   -9000007    1    1    2    0  501 -0.23209281413E+03  0.23756270089E+03  0.64326554728E+03  0.82709955600E+03  0.40000000000E+03 0. -1.
<mgrwt>
<rscale>  2 0.52022046E+03</rscale>
<asrwt>0</asrwt>
<pdfrwt beam="1">  1        2 0.19097121E+00 0.52022046E+03</pdfrwt>
<pdfrwt beam="2">  1       -2 0.34731392E-01 0.52022046E+03</pdfrwt>
<totfact> 0.14394854E+02</totfact>
</mgrwt>
</event>
<event>
 6    1  0.8861680E-004  0.7901936E+03  0.7818608E-02  0.9574321E-01
          2   -1    0    0  502    0  0.00000000000E+00  0.00000000000E+00  0.11356880205E+04  0.11356880205E+04  0.00000000000E+00 0.  1.
         -2   -1    0    0    0  501 -0.00000000000E+00 -0.00000000000E+00 -0.56117051029E+03  0.56117051029E+03  0.00000000000E+00 0. -1.
    9000007    2    1    2  502    0 -0.68171156652E+03 -0.91506912016E+01  0.40791414041E+03  0.88903981481E+03  0.39897800855E+03 0.  0.
    9000005    1    3    3    0    0 -0.38947074913E+03  0.20244945066E+02  0.44934545473E+01  0.39002373435E+03  0.99999687468E+00 0.  0.
          4    1    3    3  502    0 -0.29224081738E+03 -0.29395636267E+02  0.40342068587E+03  0.49901608046E+03  0.00000000000E+00 0.  1.
   -9000007    1    1    2    0  501  0.68171156652E+03  0.91506912016E+01  0.16660336982E+03  0.80781871599E+03  0.40000000000E+03 0. -1.
<mgrwt>
<rscale>  2 0.79019364E+03</rscale>
<asrwt>0</asrwt>
<pdfrwt beam="1">  1        2 0.17472123E+00 0.79019364E+03</pdfrwt>
<pdfrwt beam="2">  1       -2 0.86333925E-01 0.79019364E+03</pdfrwt>
<totfact> 0.24419652E+01</totfact>
</mgrwt>
</event>
<event>
 6    1  0.8861680E-004  0.6400504E+03  0.7818608E-02  0.9825630E-01
          2   -1    0    0  502    0  0.00000000000E+00  0.00000000000E+00  0.21536453323E+04  0.21536453323E+04  0.00000000000E+00 0. -1.
         -2   -1    0    0    0  501 -0.00000000000E+00 -0.00000000000E+00 -0.19237217340E+03  0.19237217340E+03  0.00000000000E+00 0.  1.
    9000007    2    1    2  502    0 -0.48913861394E+03  0.10031571941E+03  0.11051392532E+04  0.12772401240E+04  0.40086124548E+03 0.  0.
    9000005    1    3    3    0    0 -0.19392723307E+03  0.14631965158E+03  0.85100812322E+03  0.88500454120E+03  0.99999687468E+00 0.  0.
          4    1    3    3  502    0 -0.29521138087E+03 -0.46003932171E+02  0.25413112996E+03  0.39223558276E+03  0.00000000000E+00 0.  1.
   -9000007    1    1    2    0  501  0.48913861394E+03 -0.10031571941E+03  0.85613390572E+03  0.10687773817E+04  0.40000000000E+03 0.  1.
<mgrwt>
<rscale>  2 0.64005043E+03</rscale>
<asrwt>0</asrwt>
<pdfrwt beam="1">  1        2 0.33133003E+00 0.64005043E+03</pdfrwt>
<pdfrwt beam="2">  1       -2 0.29595720E-01 0.64005043E+03</pdfrwt>
<totfact> 0.60349601E+01</totfact>
</mgrwt>
</event>
<event>
 6    1  0.8861680E-004  0.4928103E+03  0.7818608E-02  0.1015673E+00
         -2   -1    0    0    0  501 -0.00000000000E+00  0.00000000000E+00  0.96066754248E+02  0.96066754248E+02  0.00000000000E+00 0. -1.
          2   -1    0    0  502    0  0.00000000000E+00 -0.00000000000E+00 -0.27015304549E+04  0.27015304549E+04  0.00000000000E+00 0.  1.
    9000007    2    1    2  502    0 -0.95648226089E+02  0.27340823927E+03 -0.94568140186E+03  0.10658992194E+04  0.39740053291E+03 0.  0.
    9000005    1    3    3    0    0 -0.20926389922E+03  0.30331842514E+03 -0.64136812716E+03  0.73969420781E+03  0.99999687468E+00 0.  0.
          4    1    3    3  502    0  0.11361567313E+03 -0.29910185871E+02 -0.30431327470E+03  0.32620501155E+03  0.00000000000E+00 0.  1.
   -9000007    1    1    2    0  501  0.95648226089E+02 -0.27340823927E+03 -0.16597822988E+04  0.17316979898E+04  0.40000000000E+03 0. -1.
<mgrwt>
<rscale>  2 0.49281034E+03</rscale>
<asrwt>0</asrwt>
<pdfrwt beam="1">  1        2 0.41562009E+00 0.49281034E+03</pdfrwt>
<pdfrwt beam="2">  1       -2 0.14779500E-01 0.49281034E+03</pdfrwt>
<totfact> 0.10334256E+02</totfact>
</mgrwt>
</event>
<event>
 6    1  0.8861680E-004  0.4886658E+03  0.7818608E-02  0.1016780E+00
         -2   -1    0    0    0  501 -0.00000000000E+00  0.00000000000E+00  0.13797519128E+03  0.13797519128E+03  0.00000000000E+00 0.  1.
          2   -1    0    0  502    0  0.00000000000E+00 -0.00000000000E+00 -0.17474304048E+04  0.17474304048E+04  0.00000000000E+00 0. -1.
    9000007    2    1    2  502    0 -0.33632994471E+02 -0.27873649773E+03 -0.89690584847E+03  0.10213732986E+04  0.39992261820E+03 0.  0.
    9000005    1    3    3    0    0  0.16561778213E+03 -0.38298961137E+02 -0.39824162741E+03  0.43300514313E+03  0.99999687468E+00 0.  0.
          4    1    3    3  502    0 -0.19925077660E+03 -0.24043753660E+03 -0.49866422107E+03  0.58836815545E+03  0.00000000000E+00 0.  1.
   -9000007    1    1    2    0  501  0.33632994471E+02  0.27873649773E+03 -0.71254936508E+03  0.86403229752E+03  0.40000000000E+03 0.  1.
<mgrwt>
<rscale>  2 0.48866580E+03</rscale>
<asrwt>0</asrwt>
<pdfrwt beam="1">  1        2 0.26883545E+00 0.48866580E+03</pdfrwt>
<pdfrwt beam="2">  1       -2 0.21226953E-01 0.48866580E+03</pdfrwt>
<totfact> 0.18567307E+02</totfact>
</mgrwt>
</event>
<event>
 6    1  0.8861680E-004  0.6761396E+03  0.7818608E-02  0.9758930E-01
         -2   -1    0    0    0  501 -0.00000000000E+00  0.00000000000E+00  0.72976258974E+03  0.72976258974E+03  0.00000000000E+00 0.  1.
          2   -1    0    0  502    0  0.00000000000E+00 -0.00000000000E+00 -0.72923737003E+03  0.72923737003E+03  0.00000000000E+00 0. -1.
    9000007    2    1    2  502    0 -0.86510767875E+02  0.53836728949E+03  0.27413379159E+03  0.72948978030E+03  0.39960299364E+03 0.  0.
    9000005    1    3    3    0    0 -0.54744985043E+02 -0.45862451447E+02 -0.20627204338E+02  0.74342850313E+02  0.99999687468E+00 0.  0.
          4    1    3    3  502    0 -0.31765782832E+02  0.58422974094E+03  0.29476099593E+03  0.65514692999E+03  0.00000000000E+00 0.  1.
   -9000007    1    1    2    0  501  0.86510767875E+02 -0.53836728949E+03 -0.27360857188E+03  0.72951017948E+03  0.40000000000E+03 0. -1.
<mgrwt>
<rscale>  2 0.67613956E+03</rscale>
<asrwt>0</asrwt>
<pdfrwt beam="1">  1        2 0.11219036E+00 0.67613956E+03</pdfrwt>
<pdfrwt beam="2">  1       -2 0.11227117E+00 0.67613956E+03</pdfrwt>
<totfact> 0.24821899E+01</totfact>
</mgrwt>
</event>
<event>
 6    1  0.8861680E-004  0.6702608E+03  0.7818608E-02  0.9769487E-01
          2   -1    0    0  502    0  0.00000000000E+00  0.00000000000E+00  0.94924293230E+03  0.94924293230E+03  0.00000000000E+00 0.  1.
         -2   -1    0    0    0  501 -0.00000000000E+00 -0.00000000000E+00 -0.50111131478E+03  0.50111131478E+03  0.00000000000E+00 0. -1.
    9000007    2    1    2  502    0  0.40771188096E+03 -0.35173132596E+03  0.39482849492E+03  0.77746114530E+03  0.39826170858E+03 0.  0.
    9000005    1    3    3    0    0 -0.85124678558E+01  0.58413142347E+02 -0.18316436002E+02  0.61814635236E+02  0.99999687468E+00 0.  0.
          4    1    3    3  502    0  0.41622434881E+03 -0.41014446831E+03  0.41314493092E+03  0.71564651007E+03  0.00000000000E+00 0.  1.
   -9000007    1    1    2    0  501 -0.40771188096E+03  0.35173132596E+03  0.53303122612E+02  0.67289310178E+03  0.40000000000E+03 0. -1.
<mgrwt>
<rscale>  2 0.67026082E+03</rscale>
<asrwt>0</asrwt>
<pdfrwt beam="1">  1        2 0.14603737E+00 0.67026082E+03</pdfrwt>
<pdfrwt beam="2">  1       -2 0.77094048E-01 0.67026082E+03</pdfrwt>
<totfact> 0.41754742E+01</totfact>
</mgrwt>
</event>
<event>
 6    1  0.8861680E-004  0.4420471E+03  0.7818608E-02  0.1030121E+00
         -1   -1    0    0    0  501 -0.00000000000E+00  0.00000000000E+00  0.12151056493E+03  0.12151056493E+03  0.00000000000E+00 0. -1.
          1   -1    0    0  502    0  0.00000000000E+00 -0.00000000000E+00 -0.30165909737E+04  0.30165909737E+04  0.00000000000E+00 0.  1.
    9000007    2    1    2  502    0 -0.18543072294E+03  0.27681263463E+02 -0.37590734521E+03  0.58048864191E+03  0.40063690025E+03 0.  0.
    9000005    1    3    3    0    0 -0.20174416855E+03 -0.99135956439E+02 -0.49838860103E+02  0.23024673586E+03  0.99999687468E+00 0.  0.
          4    1    3    3  502    0  0.16313445608E+02  0.12681721990E+03 -0.32606848511E+03  0.35024190605E+03  0.00000000000E+00 0.  1.
   -9000007    1    1    2    0  501  0.18543072294E+03 -0.27681263463E+02 -0.25191730636E+04  0.25576128967E+04  0.40000000000E+03 0.  1.
<mgrwt>
<rscale>  2 0.44204706E+03</rscale>
<asrwt>0</asrwt>
<pdfrwt beam="1">  1        1 0.46409087E+00 0.44204706E+03</pdfrwt>
<pdfrwt beam="2">  1       -1 0.18693935E-01 0.44204706E+03</pdfrwt>
<totfact> 0.15039082E+01</totfact>
</mgrwt>
</event>
<event>
 6    1  0.8861680E-004  0.5028074E+03  0.7818608E-02  0.1013049E+00
          2   -1    0    0  502    0  0.00000000000E+00  0.00000000000E+00  0.14614480469E+03  0.14614480469E+03  0.00000000000E+00 0.  1.
         -2   -1    0    0    0  501 -0.00000000000E+00 -0.00000000000E+00 -0.17907937662E+04  0.17907937662E+04  0.00000000000E+00 0. -1.
    9000007    2    1    2  502    0  0.65607840547E+01  0.30596126980E+03 -0.99959237944E+03  0.11185539812E+04  0.39789790325E+03 0.  0.
    9000005    1    3    3    0    0  0.12684719246E+03 -0.18008726121E+02 -0.12869886038E+03  0.18160099424E+03  0.99999687468E+00 0.  0.
          4    1    3    3  502    0 -0.12028640841E+03  0.32396999592E+03 -0.87089351906E+03  0.93695298700E+03  0.00000000000E+00 0.  1.
   -9000007    1    1    2    0  501 -0.65607840547E+01 -0.30596126980E+03 -0.64505658212E+03  0.81838458969E+03  0.40000000000E+03 0.  1.
<mgrwt>
<rscale>  2 0.50280744E+03</rscale>
<asrwt>0</asrwt>
<pdfrwt beam="1">  1        2 0.22483816E-01 0.50280744E+03</pdfrwt>
<pdfrwt beam="2">  1       -2 0.27550674E+00 0.50280744E+03</pdfrwt>
<totfact> 0.11826443E+01</totfact>
</mgrwt>
</event>
<event>
 6    1  0.8861680E-004  0.4230129E+03  0.7818608E-02  0.1036090E+00
         -1   -1    0    0    0  501 -0.00000000000E+00  0.00000000000E+00  0.16358915191E+03  0.16358915191E+03  0.00000000000E+00 0.  1.
          1   -1    0    0  502    0  0.00000000000E+00 -0.00000000000E+00 -0.11220520108E+04  0.11220520108E+04  0.00000000000E+00 0. -1.
    9000007    2    1    2  502    0 -0.42699665857E+02  0.13087159479E+03 -0.58115180777E+03  0.71879527088E+03  0.39997322659E+03 0.  0.
    9000005    1    3    3    0    0  0.17913751964E+03  0.54710482616E+02 -0.28447217656E+03  0.34060080312E+03  0.99999687468E+00 0.  0.
          4    1    3    3  502    0 -0.22183718550E+03  0.76161112174E+02 -0.29667963121E+03  0.37819446777E+03  0.00000000000E+00 0.  1.
   -9000007    1    1    2    0  501  0.42699665857E+02 -0.13087159479E+03 -0.37731105112E+03  0.56684589183E+03  0.40000000000E+03 0.  1.
<mgrwt>
<rscale>  2 0.42301292E+03</rscale>
<asrwt>0</asrwt>
<pdfrwt beam="1">  1        1 0.17262339E+00 0.42301292E+03</pdfrwt>
<pdfrwt beam="2">  1       -1 0.25167562E-01 0.42301292E+03</pdfrwt>
<totfact> 0.17675710E+02</totfact>
</mgrwt>
</event>
<event>
 6    1  0.8861680E-004  0.4221392E+03  0.7818608E-02  0.1036372E+00
          1   -1    0    0  502    0  0.00000000000E+00  0.00000000000E+00  0.12528561304E+04  0.12528561304E+04  0.00000000000E+00 0.  1.
         -1   -1    0    0    0  501 -0.00000000000E+00 -0.00000000000E+00 -0.14411464402E+03  0.14411464402E+03  0.00000000000E+00 0. -1.
    9000007    2    1    2  502    0 -0.13173222003E+03 -0.28288382814E+02  0.63418928690E+03  0.76186967976E+03  0.40011966575E+03 0.  0.
    9000005    1    3    3    0    0 -0.12115990756E+03 -0.39778227011E+02  0.38389272592E-01  0.12752659335E+03  0.99999687468E+00 0.  0.
          4    1    3    3  502    0 -0.10572312475E+02  0.11489844196E+02  0.63415089763E+03  0.63434308641E+03  0.00000000000E+00 0.  1.
   -9000007    1    1    2    0  501  0.13173222003E+03  0.28288382814E+02  0.47455219944E+03  0.63510109462E+03  0.40000000000E+03 0. -1.
<mgrwt>
<rscale>  2 0.42213917E+03</rscale>
<asrwt>0</asrwt>
<pdfrwt beam="1">  1        1 0.19274709E+00 0.42213917E+03</pdfrwt>
<pdfrwt beam="2">  1       -1 0.22171485E-01 0.42213917E+03</pdfrwt>
<totfact> 0.17628773E+02</totfact>
</mgrwt>
</event>
<event>
 6    1  0.8861680E-004  0.4600691E+03  0.7818608E-02  0.1024761E+00
          1   -1    0    0  502    0  0.00000000000E+00  0.00000000000E+00  0.32120804790E+04  0.32120804790E+04  0.00000000000E+00 0. -1.
         -1   -1    0    0    0  501 -0.00000000000E+00 -0.00000000000E+00 -0.10039123332E+03  0.10039123332E+03  0.00000000000E+00 0.  1.
    9000007    2    1    2  502    0  0.22170040605E+03  0.50222277295E+02  0.25266735068E+04  0.25682158680E+04  0.39997548304E+03 0.  0.
    9000005    1    3    3    0    0  0.29408035294E+03  0.15521843275E+03  0.18245637700E+04  0.18546185502E+04  0.99999687468E+00 0.  0.
          4    1    3    3  502    0 -0.72379946889E+02 -0.10499615546E+03  0.70210973680E+03  0.71359731774E+03  0.00000000000E+00 0.  1.
   -9000007    1    1    2    0  501 -0.22170040605E+03 -0.50222277295E+02  0.58501573886E+03  0.74425584438E+03  0.40000000000E+03 0.  1.
<mgrwt>
<rscale>  2 0.46006906E+03</rscale>
<asrwt>0</asrwt>
<pdfrwt beam="1">  1        1 0.49416615E+00 0.46006906E+03</pdfrwt>
<pdfrwt beam="2">  1       -1 0.15444808E-01 0.46006906E+03</pdfrwt>
<totfact> 0.14765626E+01</totfact>
</mgrwt>
</event>
<event>
 6    1  0.8861680E-004  0.4872712E+03  0.7818608E-02  0.1017156E+00
         -2   -1    0    0    0  501 -0.00000000000E+00  0.00000000000E+00  0.28503797943E+03  0.28503797943E+03  0.00000000000E+00 0.  1.
          2   -1    0    0  502    0  0.00000000000E+00 -0.00000000000E+00 -0.13601500133E+04  0.13601500133E+04  0.00000000000E+00 0. -1.
    9000007    2    1    2  502    0 -0.69757727685E+02  0.26988428532E+03 -0.10494795560E+04  0.11569660228E+04  0.39932364246E+03 0.  0.
    9000005    1    3    3    0    0 -0.20865897176E+03  0.27579440432E+03 -0.69765425455E+03  0.77866782317E+03  0.99999687468E+00 0.  0.
          4    1    3    3  502    0  0.13890124407E+03 -0.59101190008E+01 -0.35182530141E+03  0.37829819960E+03  0.00000000000E+00 0.  1.
   -9000007    1    1    2    0  501  0.69757727685E+02 -0.26988428532E+03 -0.25632477913E+02  0.48822196997E+03  0.40000000000E+03 0.  1.
<mgrwt>
<rscale>  2 0.48727118E+03</rscale>
<asrwt>0</asrwt>
<pdfrwt beam="1">  1        2 0.20925385E+00 0.48727118E+03</pdfrwt>
<pdfrwt beam="2">  1       -2 0.43851996E-01 0.48727118E+03</pdfrwt>
<totfact> 0.78879268E+01</totfact>
</mgrwt>
</event>
<event>
 6    1  0.8861680E-004  0.4098742E+03  0.7818608E-02  0.1040413E+00
          2   -1    0    0  502    0  0.00000000000E+00  0.00000000000E+00  0.89963560864E+03  0.89963560864E+03  0.00000000000E+00 0. -1.
         -2   -1    0    0    0  501 -0.00000000000E+00 -0.00000000000E+00 -0.19121663128E+03  0.19121663128E+03  0.00000000000E+00 0.  1.
    9000007    2    1    2  502    0 -0.41696903355E+02 -0.75407016932E+02  0.43825993150E+03  0.60053524040E+03  0.40142989108E+03 0.  0.
    9000005    1    3    3    0    0  0.63913545164E+02 -0.13732948436E+02  0.46972449585E+03  0.47425271441E+03  0.99999687468E+00 0.  0.
          4    1    3    3  502    0 -0.10561044852E+03 -0.61674068496E+02 -0.31464564348E+02  0.12628252599E+03  0.00000000000E+00 0.  1.
   -9000007    1    1    2    0  501  0.41696903355E+02  0.75407016932E+02  0.27015904586E+03  0.49031699951E+03  0.40000000000E+03 0.  1.
<mgrwt>
<rscale>  2 0.40987419E+03</rscale>
<asrwt>0</asrwt>
<pdfrwt beam="1">  1        2 0.13840548E+00 0.40987419E+03</pdfrwt>
<pdfrwt beam="2">  1       -2 0.29417944E-01 0.40987419E+03</pdfrwt>
<totfact> 0.32057740E+02</totfact>
</mgrwt>
</event>
<event>
 6    1  0.8861680E-004  0.6561248E+03  0.7818608E-02  0.9795354E-01
         -1   -1    0    0    0  501 -0.00000000000E+00  0.00000000000E+00  0.49942144398E+03  0.49942144398E+03  0.00000000000E+00 0.  1.
          1   -1    0    0  502    0  0.00000000000E+00 -0.00000000000E+00 -0.93037632224E+03  0.93037632224E+03  0.00000000000E+00 0. -1.
    9000007    2    1    2  502    0  0.11912940691E+02  0.51942404738E+03 -0.40941684336E+03  0.77374354124E+03  0.40138965711E+03 0.  0.
    9000005    1    3    3    0    0 -0.52139479794E+02  0.29141991299E+03 -0.44476939553E+03  0.53428915976E+03  0.99999687468E+00 0.  0.
          4    1    3    3  502    0  0.64052420485E+02  0.22800413439E+03  0.35352552168E+02  0.23945438149E+03  0.00000000000E+00 0.  1.
   -9000007    1    1    2    0  501 -0.11912940691E+02 -0.51942404738E+03 -0.21538034898E+02  0.65605422497E+03  0.40000000000E+03 0.  1.
<mgrwt>
<rscale>  2 0.65612478E+03</rscale>
<asrwt>0</asrwt>
<pdfrwt beam="1">  1        1 0.14313482E+00 0.65612478E+03</pdfrwt>
<pdfrwt beam="2">  1       -1 0.76834068E-01 0.65612478E+03</pdfrwt>
<totfact> 0.30313447E+01</totfact>
</mgrwt>
</event>
<event>
 6    1  0.8861680E-004  0.5445395E+03  0.7818608E-02  0.1002766E+00
         -2   -1    0    0    0  501 -0.00000000000E+00  0.00000000000E+00  0.12651910788E+03  0.12651910788E+03  0.00000000000E+00 0.  1.
          2   -1    0    0  502    0  0.00000000000E+00 -0.00000000000E+00 -0.27899857862E+04  0.27899857862E+04  0.00000000000E+00 0. -1.
    9000007    2    1    2  502    0  0.21662883483E+03 -0.29986712868E+03 -0.19143454946E+04  0.19902053233E+04  0.39918693516E+03 0.  0.
    9000005    1    3    3    0    0  0.17024933092E+03  0.39236822936E+02 -0.38135562591E+03  0.41947285533E+03  0.99999687468E+00 0.  0.
          4    1    3    3  502    0  0.46379503907E+02 -0.33910395161E+03 -0.15329898687E+04  0.15707324679E+04  0.00000000000E+00 0.  1.
   -9000007    1    1    2    0  501 -0.21662883483E+03  0.29986712868E+03 -0.74912118372E+03  0.92629957079E+03  0.40000000000E+03 0.  1.
<mgrwt>
<rscale>  2 0.54453951E+03</rscale>
<asrwt>0</asrwt>
<pdfrwt beam="1">  1        2 0.42922856E+00 0.54453951E+03</pdfrwt>
<pdfrwt beam="2">  1       -2 0.19464479E-01 0.54453951E+03</pdfrwt>
<totfact> 0.56885353E+01</totfact>
</mgrwt>
</event>
<event>
 6    1  0.8861680E-004  0.4642014E+03  0.7818608E-02  0.1023570E+00
         -2   -1    0    0    0  501 -0.00000000000E+00  0.00000000000E+00  0.38765441088E+03  0.38765441088E+03  0.00000000000E+00 0. -1.
          2   -1    0    0  502    0  0.00000000000E+00 -0.00000000000E+00 -0.55926364156E+03  0.55926364156E+03  0.00000000000E+00 0.  1.
    9000007    2    1    2  502    0 -0.20458214020E+03  0.11801691070E+03 -0.12266080901E+03  0.47982299650E+03  0.39925253987E+03 0.  0.
    9000005    1    3    3    0    0  0.11783746910E+03  0.67581601182E+02 -0.54913962563E+02  0.14652469150E+03  0.99999687468E+00 0.  0.
          4    1    3    3  502    0 -0.32241960930E+03  0.50435309516E+02 -0.67746846451E+02  0.33329830499E+03  0.00000000000E+00 0.  1.
   -9000007    1    1    2    0  501  0.20458214020E+03 -0.11801691070E+03 -0.48948421672E+02  0.46709505594E+03  0.40000000000E+03 0.  1.
<mgrwt>
<rscale>  2 0.46420139E+03</rscale>
<asrwt>0</asrwt>
<pdfrwt beam="1">  1        2 0.86040560E-01 0.46420139E+03</pdfrwt>
<pdfrwt beam="2">  1       -2 0.59639140E-01 0.46420139E+03</pdfrwt>
<totfact> 0.14554271E+02</totfact>
</mgrwt>
</event>
<event>
 6    1  0.8861680E-004  0.4163120E+03  0.7818608E-02  0.1038273E+00
          2   -1    0    0  502    0  0.00000000000E+00  0.00000000000E+00  0.98928634338E+03  0.98928634338E+03  0.00000000000E+00 0. -1.
         -2   -1    0    0    0  501 -0.00000000000E+00 -0.00000000000E+00 -0.17727312038E+03  0.17727312038E+03  0.00000000000E+00 0.  1.
    9000007    2    1    2  502    0 -0.11500906709E+03 -0.14112923374E+01  0.34291873456E+03  0.53944008409E+03  0.40021652709E+03 0.  0.
    9000005    1    3    3    0    0 -0.32863974929E+02  0.14884797246E+03  0.33495186833E+03  0.36800749156E+03  0.99999687468E+00 0.  0.
          4    1    3    3  502    0 -0.82145092157E+02 -0.15025926480E+03  0.79668662280E+01  0.17143259253E+03  0.00000000000E+00 0.  1.
   -9000007    1    1    2    0  501  0.11500906709E+03  0.14112923374E+01  0.46909448844E+03  0.62711937966E+03  0.40000000000E+03 0. -1.
<mgrwt>
<rscale>  2 0.41631201E+03</rscale>
<asrwt>0</asrwt>
<pdfrwt beam="1">  1        2 0.15219790E+00 0.41631201E+03</pdfrwt>
<pdfrwt beam="2">  1       -2 0.27272788E-01 0.41631201E+03</pdfrwt>
<totfact> 0.32205759E+02</totfact>
</mgrwt>
</event>
<event>
 6    1  0.8861680E-004  0.4516415E+03  0.7818608E-02  0.1027234E+00
          2   -1    0    0  502    0  0.00000000000E+00  0.00000000000E+00  0.75911861015E+03  0.75911861015E+03  0.00000000000E+00 0. -1.
         -2   -1    0    0    0  501 -0.00000000000E+00 -0.00000000000E+00 -0.35273988917E+03  0.35273988917E+03  0.00000000000E+00 0.  1.
    9000007    2    1    2  502    0  0.11219054995E+03 -0.17740630802E+03  0.47450202871E+03  0.65502099793E+03  0.39980071894E+03 0.  0.
    9000005    1    3    3    0    0 -0.77986923498E+02  0.55219873231E+02  0.28303355979E+03  0.29873096692E+03  0.99999687468E+00 0.  0.
          4    1    3    3  502    0  0.19017747344E+03 -0.23262618125E+03  0.19146846892E+03  0.35629003101E+03  0.00000000000E+00 0.  1.
   -9000007    1    1    2    0  501 -0.11219054995E+03  0.17740630802E+03 -0.68123307727E+02  0.45683750139E+03  0.40000000000E+03 0.  1.
<mgrwt>
<rscale>  2 0.45164146E+03</rscale>
<asrwt>0</asrwt>
<pdfrwt beam="1">  1        2 0.11678748E+00 0.45164146E+03</pdfrwt>
<pdfrwt beam="2">  1       -2 0.54267675E-01 0.45164146E+03</pdfrwt>
<totfact> 0.12212630E+02</totfact>
</mgrwt>
</event>
<event>
 6    1  0.8861680E-004  0.4527534E+03  0.7818608E-02  0.1026904E+00
          1   -1    0    0  502    0  0.00000000000E+00  0.00000000000E+00  0.11486279825E+04  0.11486279825E+04  0.00000000000E+00 0.  1.
         -1   -1    0    0    0  501 -0.00000000000E+00 -0.00000000000E+00 -0.17917065404E+03  0.17917065404E+03  0.00000000000E+00 0. -1.
    9000007    2    1    2  502    0 -0.21203660580E+03 -0.12543886173E+02  0.52634715216E+03  0.69418716281E+03  0.39967189187E+03 0.  0.
    9000005    1    3    3    0    0 -0.26968810142E+02  0.32288106523E+02 -0.62483148597E+02  0.75332479023E+02  0.99999687468E+00 0.  0.
          4    1    3    3  502    0 -0.18506779566E+03 -0.44831992696E+02  0.58883030075E+03  0.61885468379E+03  0.00000000000E+00 0.  1.
   -9000007    1    1    2    0  501  0.21203660580E+03  0.12543886173E+02  0.44311017629E+03  0.63361147370E+03  0.40000000000E+03 0. -1.
<mgrwt>
<rscale>  2 0.45275340E+03</rscale>
<asrwt>0</asrwt>
<pdfrwt beam="1">  1        1 0.17671199E+00 0.45275340E+03</pdfrwt>
<pdfrwt beam="2">  1       -1 0.27564717E-01 0.45275340E+03</pdfrwt>
<totfact> 0.14435622E+02</totfact>
</mgrwt>
</event>
<event>
 6    1  0.8861680E-004  0.4835167E+03  0.7818608E-02  0.1018173E+00
         -2   -1    0    0    0  501 -0.00000000000E+00  0.00000000000E+00  0.10577759973E+04  0.10577759973E+04  0.00000000000E+00 0.  1.
          2   -1    0    0  502    0  0.00000000000E+00 -0.00000000000E+00 -0.69180384781E+03  0.69180384781E+03  0.00000000000E+00 0. -1.
    9000007    2    1    2  502    0 -0.26375193217E+03 -0.64395253812E+02  0.90464064288E+03  0.10257873498E+04  0.40019140897E+03 0.  0.
    9000005    1    3    3    0    0 -0.99468689340E+02  0.57589344592E+02  0.77517390734E+03  0.78364924512E+03  0.99999687468E+00 0.  0.
          4    1    3    3  502    0 -0.16428324283E+03 -0.12198459840E+03  0.12946673554E+03  0.24213810467E+03  0.00000000000E+00 0.  1.
   -9000007    1    1    2    0  501  0.26375193217E+03  0.64395253812E+02 -0.53866849342E+03  0.72379249529E+03  0.40000000000E+03 0. -1.
<mgrwt>
<rscale>  2 0.48351670E+03</rscale>
<asrwt>0</asrwt>
<pdfrwt beam="1">  1        2 0.10643136E+00 0.48351670E+03</pdfrwt>
<pdfrwt beam="2">  1       -2 0.16273477E+00 0.48351670E+03</pdfrwt>
<totfact> 0.10538775E+01</totfact>
</mgrwt>
</event>
<event>
 6    1  0.8861680E-004  0.4506150E+03  0.7818608E-02  0.1027539E+00
         -2   -1    0    0    0  501 -0.00000000000E+00  0.00000000000E+00  0.16882629370E+03  0.16882629370E+03  0.00000000000E+00 0.  1.
          2   -1    0    0  502    0  0.00000000000E+00 -0.00000000000E+00 -0.12189479861E+04  0.12189479861E+04  0.00000000000E+00 0. -1.
    9000007    2    1    2  502    0  0.36706053019E+02 -0.20396999586E+03 -0.60520810777E+03  0.75460827368E+03  0.40025704173E+03 0.  0.
    9000005    1    3    3    0    0 -0.90526256972E+01 -0.17406681228E+03 -0.65674420713E+03  0.67948153674E+03  0.99999687468E+00 0.  0.
          4    1    3    3  502    0  0.45758678716E+02 -0.29903183580E+02  0.51536099364E+02  0.75126736944E+02  0.00000000000E+00 0.  1.
   -9000007    1    1    2    0  501 -0.36706053019E+02  0.20396999586E+03 -0.44491358467E+03  0.63316600616E+03  0.40000000000E+03 0.  1.
<mgrwt>
<rscale>  2 0.45061504E+03</rscale>
<asrwt>0</asrwt>
<pdfrwt beam="1">  1        2 0.18753046E+00 0.45061504E+03</pdfrwt>
<pdfrwt beam="2">  1       -2 0.25973275E-01 0.45061504E+03</pdfrwt>
<totfact> 0.25521548E+02</totfact>
</mgrwt>
</event>
<event>
 6    1  0.8861680E-004  0.4290435E+03  0.7818608E-02  0.1034163E+00
         -2   -1    0    0    0  501 -0.00000000000E+00  0.00000000000E+00  0.15074863397E+03  0.15074863397E+03  0.00000000000E+00 0.  1.
          2   -1    0    0  502    0  0.00000000000E+00 -0.00000000000E+00 -0.12438795788E+04  0.12438795788E+04  0.00000000000E+00 0. -1.
    9000007    2    1    2  502    0  0.15244517551E+03  0.12368105289E+02 -0.64193471568E+03  0.77255865173E+03  0.40171406447E+03 0.  0.
    9000005    1    3    3    0    0  0.27695507903E+03  0.60192534175E+02 -0.51810275241E+03  0.59055797261E+03  0.99999687468E+00 0.  0.
          4    1    3    3  502    0 -0.12450990351E+03 -0.47824428886E+02 -0.12383196328E+03  0.18200067912E+03  0.00000000000E+00 0.  1.
   -9000007    1    1    2    0  501 -0.15244517551E+03 -0.12368105289E+02 -0.45119622911E+03  0.62206956101E+03  0.40000000000E+03 0.  1.
<mgrwt>
<rscale>  2 0.42904349E+03</rscale>
<asrwt>0</asrwt>
<pdfrwt beam="1">  1        2 0.19136609E+00 0.42904349E+03</pdfrwt>
<pdfrwt beam="2">  1       -2 0.23192097E-01 0.42904349E+03</pdfrwt>
<totfact> 0.30281738E+02</totfact>
</mgrwt>
</event>
<event>
 6    1  0.8861680E-004  0.5103201E+03  0.7818608E-02  0.1011120E+00
          2   -1    0    0  502    0  0.00000000000E+00  0.00000000000E+00  0.15592812241E+04  0.15592812241E+04  0.00000000000E+00 0.  1.
         -2   -1    0    0    0  501 -0.00000000000E+00 -0.00000000000E+00 -0.16701715055E+03  0.16701715055E+03  0.00000000000E+00 0. -1.
    9000007    2    1    2  502    0 -0.15299317700E+03 -0.27740014269E+03  0.69663376969E+03  0.86359374906E+03  0.40017221664E+03 0.  0.
    9000005    1    3    3    0    0 -0.16070016037E+03 -0.33030721270E+03  0.71761124847E+03  0.80616021995E+03  0.99999687468E+00 0.  0.
          4    1    3    3  502    0  0.77069833628E+01  0.52907070015E+02 -0.20977478779E+02  0.57433529110E+02  0.00000000000E+00 0.  1.
   -9000007    1    1    2    0  501  0.15299317700E+03  0.27740014269E+03  0.69563030384E+03  0.86270462557E+03  0.40000000000E+03 0. -1.
<mgrwt>
<rscale>  2 0.51032014E+03</rscale>
<asrwt>0</asrwt>
<pdfrwt beam="1">  1        2 0.23988941E+00 0.51032014E+03</pdfrwt>
<pdfrwt beam="2">  1       -2 0.25694947E-01 0.51032014E+03</pdfrwt>
<totfact> 0.16681340E+02</totfact>
</mgrwt>
</event>
<event>
 6    1  0.8861680E-004  0.5125521E+03  0.7818608E-02  0.1010554E+00
         -1   -1    0    0    0  501 -0.00000000000E+00  0.00000000000E+00  0.18808926644E+03  0.18808926644E+03  0.00000000000E+00 0. -1.
          1   -1    0    0  502    0  0.00000000000E+00 -0.00000000000E+00 -0.16598922711E+04  0.16598922711E+04  0.00000000000E+00 0.  1.
    9000007    2    1    2  502    0  0.31404742183E+03 -0.65302309792E+02 -0.36777969949E+03  0.63070686306E+03  0.39954857643E+03 0.  0.
    9000005    1    3    3    0    0  0.40337635562E+03 -0.10139835438E+03 -0.29361837050E+03  0.50912361764E+03  0.99999687468E+00 0.  0.
          4    1    3    3  502    0 -0.89328933796E+02  0.36096044593E+02 -0.74161328999E+02  0.12158324542E+03  0.00000000000E+00 0.  1.
   -9000007    1    1    2    0  501 -0.31404742183E+03  0.65302309792E+02 -0.11040233052E+04  0.12172746745E+04  0.40000000000E+03 0.  1.
<mgrwt>
<rscale>  2 0.51255209E+03</rscale>
<asrwt>0</asrwt>
<pdfrwt beam="1">  1        1 0.25536804E+00 0.51255209E+03</pdfrwt>
<pdfrwt beam="2">  1       -1 0.28936811E-01 0.51255209E+03</pdfrwt>
<totfact> 0.58548660E+01</totfact>
</mgrwt>
</event>
<event>
 6    1  0.8861680E-004  0.4065946E+03  0.7818608E-02  0.1041520E+00
         -2   -1    0    0    0  501 -0.00000000000E+00  0.00000000000E+00  0.19466825581E+03  0.19466825581E+03  0.00000000000E+00 0.  1.
          2   -1    0    0  502    0  0.00000000000E+00 -0.00000000000E+00 -0.84998737510E+03  0.84998737510E+03  0.00000000000E+00 0. -1.
    9000007    2    1    2  502    0 -0.42889772136E+02  0.59007828135E+02 -0.34319346250E+03  0.53207014345E+03  0.39999428560E+03 0.  0.
    9000005    1    3    3    0    0  0.10489491334E+02  0.45859836433E+02 -0.42823188039E+03  0.43080935157E+03  0.99999687468E+00 0.  0.
          4    1    3    3  502    0 -0.53379263470E+02  0.13147991702E+02  0.85038417888E+02  0.10126079188E+03  0.00000000000E+00 0.  1.
   -9000007    1    1    2    0  501  0.42889772136E+02 -0.59007828135E+02 -0.31212565678E+03  0.51258548746E+03  0.40000000000E+03 0.  1.
<mgrwt>
<rscale>  2 0.40659460E+03</rscale>
<asrwt>0</asrwt>
<pdfrwt beam="1">  1        2 0.13076729E+00 0.40659460E+03</pdfrwt>
<pdfrwt beam="2">  1       -2 0.29948963E-01 0.40659460E+03</pdfrwt>
<totfact> 0.33497892E+02</totfact>
</mgrwt>
</event>
<event>
 6    1  0.8861680E-004  0.4684331E+03  0.7818608E-02  0.1022363E+00
          1   -1    0    0  502    0  0.00000000000E+00  0.00000000000E+00  0.29947430578E+03  0.29947430578E+03  0.00000000000E+00 0. -1.
         -1   -1    0    0    0  501 -0.00000000000E+00 -0.00000000000E+00 -0.97399754172E+03  0.97399754172E+03  0.00000000000E+00 0.  1.
    9000007    2    1    2  502    0 -0.19119196476E+03 -0.14754413068E+03 -0.20991508038E+02  0.47008691033E+03  0.40276224000E+03 0.  0.
    9000005    1    3    3    0    0 -0.27981895372E+03 -0.10207020615E+03  0.99238611322E+02  0.31395266493E+03  0.99999687468E+00 0.  0.
          4    1    3    3  502    0  0.88626988968E+02 -0.45473924531E+02 -0.12023011936E+03  0.15613424540E+03  0.00000000000E+00 0.  1.
   -9000007    1    1    2    0  501  0.19119196476E+03  0.14754413068E+03 -0.65353172790E+03  0.80338493716E+03  0.40000000000E+03 0.  1.
<mgrwt>
<rscale>  2 0.46843308E+03</rscale>
<asrwt>0</asrwt>
<pdfrwt beam="1">  1        1 0.46072970E-01 0.46843308E+03</pdfrwt>
<pdfrwt beam="2">  1       -1 0.14984578E+00 0.46843308E+03</pdfrwt>
<totfact> 0.32456121E+01</totfact>
</mgrwt>
</event>
<event>
 6    1  0.8861680E-004  0.4259832E+03  0.7818608E-02  0.1035136E+00
         -2   -1    0    0    0  501 -0.00000000000E+00  0.00000000000E+00  0.16405446691E+03  0.16405446691E+03  0.00000000000E+00 0. -1.
          2   -1    0    0  502    0  0.00000000000E+00 -0.00000000000E+00 -0.13874138172E+04  0.13874138172E+04  0.00000000000E+00 0.  1.
    9000007    2    1    2  502    0  0.12831094045E+03  0.68616065057E+02 -0.96137052089E+03  0.10516583117E+04  0.40072442439E+03 0.  0.
    9000005    1    3    3    0    0  0.20189974560E+03  0.18551865748E+03 -0.75569133601E+03  0.80389742807E+03  0.99999687468E+00 0.  0.
          4    1    3    3  502    0 -0.73588805158E+02 -0.11690259243E+03 -0.20567918488E+03  0.24776088362E+03  0.00000000000E+00 0.  1.
   -9000007    1    1    2    0  501 -0.12831094045E+03 -0.68616065057E+02 -0.26198882944E+03  0.49980997246E+03  0.40000000000E+03 0. -1.
<mgrwt>
<rscale>  2 0.42598317E+03</rscale>
<asrwt>0</asrwt>
<pdfrwt beam="1">  1        2 0.21344827E+00 0.42598317E+03</pdfrwt>
<pdfrwt beam="2">  1       -2 0.25239149E-01 0.42598317E+03</pdfrwt>
<totfact> 0.21632659E+02</totfact>
</mgrwt>
</event>
<event>
 6    1  0.8861680E-004  0.4755495E+03  0.7818608E-02  0.1020366E+00
          1   -1    0    0  502    0  0.00000000000E+00  0.00000000000E+00  0.77627190202E+03  0.77627190202E+03  0.00000000000E+00 0.  1.
         -1   -1    0    0    0  501 -0.00000000000E+00 -0.00000000000E+00 -0.35441592419E+03  0.35441592419E+03  0.00000000000E+00 0. -1.
    9000007    2    1    2  502    0 -0.11253009530E+03 -0.23047496503E+03  0.44959610369E+03  0.65471382856E+03  0.40091371766E+03 0.  0.
    9000005    1    3    3    0    0  0.14470221332E+03 -0.61993178524E+02  0.89116956145E+02  0.18089974182E+03  0.99999687468E+00 0.  0.
          4    1    3    3  502    0 -0.25723230862E+03 -0.16848178650E+03  0.36047914754E+03  0.47381408674E+03  0.00000000000E+00 0.  1.
   -9000007    1    1    2    0  501  0.11253009530E+03  0.23047496503E+03 -0.27740125860E+02  0.47597399765E+03  0.40000000000E+03 0. -1.
<mgrwt>
<rscale>  2 0.47554951E+03</rscale>
<asrwt>0</asrwt>
<pdfrwt beam="1">  1        1 0.11942645E+00 0.47554951E+03</pdfrwt>
<pdfrwt beam="2">  1       -1 0.54525527E-01 0.47554951E+03</pdfrwt>
<totfact> 0.82625956E+01</totfact>
</mgrwt>
</event>
<event>
 6    1  0.8861680E-004  0.4601659E+03  0.7818608E-02  0.1024733E+00
         -2   -1    0    0    0  501 -0.00000000000E+00  0.00000000000E+00  0.11944850658E+03  0.11944850658E+03  0.00000000000E+00 0. -1.
          2   -1    0    0  502    0  0.00000000000E+00 -0.00000000000E+00 -0.23128427710E+04  0.23128427710E+04  0.00000000000E+00 0.  1.
    9000007    2    1    2  502    0 -0.21586138030E+03  0.71032116635E+02 -0.50923091857E+03  0.68642533982E+03  0.40027730591E+03 0.  0.
    9000005    1    3    3    0    0 -0.14826293913E+03  0.23388359505E+03 -0.25104622575E+03  0.37377619321E+03  0.99999687468E+00 0.  0.
          4    1    3    3  502    0 -0.67598441174E+02 -0.16285147842E+03 -0.25818469282E+03  0.31264914661E+03  0.00000000000E+00 0.  1.
   -9000007    1    1    2    0  501  0.21586138030E+03 -0.71032116635E+02 -0.16841633458E+04  0.17458659377E+04  0.40000000000E+03 0.  1.
<mgrwt>
<rscale>  2 0.46016587E+03</rscale>
<asrwt>0</asrwt>
<pdfrwt beam="1">  1        2 0.35582196E+00 0.46016587E+03</pdfrwt>
<pdfrwt beam="2">  1       -2 0.18376694E-01 0.46016587E+03</pdfrwt>
<totfact> 0.11861552E+02</totfact>
</mgrwt>
</event>
<event>
 6    1  0.8861680E-004  0.7373104E+03  0.7818608E-02  0.9655471E-01
          2   -1    0    0  502    0  0.00000000000E+00  0.00000000000E+00  0.24855983183E+04  0.24855983183E+04  0.00000000000E+00 0.  1.
         -2   -1    0    0    0  501 -0.00000000000E+00 -0.00000000000E+00 -0.29065171357E+03  0.29065171357E+03  0.00000000000E+00 0. -1.
    9000007    2    1    2  502    0  0.37350480202E+03  0.49427772852E+03  0.17879358577E+04  0.19339472014E+04  0.39952576462E+03 0.  0.
    9000005    1    3    3    0    0  0.83497576085E+02 -0.41791362886E+02  0.89015433646E+02  0.12900818054E+03  0.99999687468E+00 0.  0.
          4    1    3    3  502    0  0.29000722593E+03  0.53606909141E+03  0.16989204240E+04  0.18049390209E+04  0.00000000000E+00 0.  1.
   -9000007    1    1    2    0  501 -0.37350480202E+03 -0.49427772852E+03  0.40701074709E+03  0.84230283051E+03  0.40000000000E+03 0. -1.
<mgrwt>
<rscale>  2 0.73731045E+03</rscale>
<asrwt>0</asrwt>
<pdfrwt beam="1">  1        2 0.38239973E+00 0.73731045E+03</pdfrwt>
<pdfrwt beam="2">  1       -2 0.44715650E-01 0.73731045E+03</pdfrwt>
<totfact> 0.17640555E+01</totfact>
</mgrwt>
</event>
<event>
 6    1  0.8861680E-004  0.4119045E+03  0.7818608E-02  0.1039734E+00
         -1   -1    0    0    0  501 -0.00000000000E+00  0.00000000000E+00  0.14061398845E+03  0.14061398845E+03  0.00000000000E+00 0. -1.
          1   -1    0    0  502    0  0.00000000000E+00 -0.00000000000E+00 -0.12507019501E+04  0.12507019501E+04  0.00000000000E+00 0.  1.
    9000007    2    1    2  502    0 -0.98175371328E+02  0.25842721383E+01 -0.42444965513E+03  0.59147534859E+03  0.40005061711E+03 0.  0.
    9000005    1    3    3    0    0 -0.92678828697E+02 -0.12574882164E+03 -0.88360664129E+01  0.15646471646E+03  0.99999687468E+00 0.  0.
          4    1    3    3  502    0 -0.54965426311E+01  0.12833309378E+03 -0.41561358872E+03  0.43501063213E+03  0.00000000000E+00 0.  1.
   -9000007    1    1    2    0  501  0.98175371328E+02 -0.25842721383E+01 -0.68563830652E+03  0.79984058997E+03  0.40000000000E+03 0.  1.
<mgrwt>
<rscale>  2 0.41190451E+03</rscale>
<asrwt>0</asrwt>
<pdfrwt beam="1">  1        1 0.19241570E+00 0.41190451E+03</pdfrwt>
<pdfrwt beam="2">  1       -1 0.21632920E-01 0.41190451E+03</pdfrwt>
<totfact> 0.18452366E+02</totfact>
</mgrwt>
</event>
<event>
 6    1  0.8861680E-004  0.5575848E+03  0.7818608E-02  0.9997534E-01
          1   -1    0    0  502    0  0.00000000000E+00  0.00000000000E+00  0.98263350431E+03  0.98263350431E+03  0.00000000000E+00 0. -1.
         -1   -1    0    0    0  501 -0.00000000000E+00 -0.00000000000E+00 -0.37988919142E+03  0.37988919142E+03  0.00000000000E+00 0.  1.
    9000007    2    1    2  502    0  0.27131892107E+03  0.27803859197E+03  0.57988087261E+03  0.80445267105E+03  0.39995356978E+03 0.  0.
    9000005    1    3    3    0    0  0.13971641294E+03 -0.88740385176E+02  0.13991800789E+03  0.21673389429E+03  0.99999687468E+00 0.  0.
          4    1    3    3  502    0  0.13160250813E+03  0.36677897715E+03  0.43996286472E+03  0.58771877676E+03  0.00000000000E+00 0.  1.
   -9000007    1    1    2    0  501 -0.27131892107E+03 -0.27803859197E+03  0.22863440278E+02  0.55807002469E+03  0.40000000000E+03 0. -1.
<mgrwt>
<rscale>  2 0.55758483E+03</rscale>
<asrwt>0</asrwt>
<pdfrwt beam="1">  1        1 0.15117438E+00 0.55758483E+03</pdfrwt>
<pdfrwt beam="2">  1       -1 0.58444491E-01 0.55758483E+03</pdfrwt>
<totfact> 0.48503416E+01</totfact>
</mgrwt>
</event>
<event>
 6    1  0.8861680E-004  0.4190915E+03  0.7818608E-02  0.1037362E+00
          1   -1    0    0  502    0  0.00000000000E+00  0.00000000000E+00  0.13442972119E+04  0.13442972119E+04  0.00000000000E+00 0.  1.
         -1   -1    0    0    0  501 -0.00000000000E+00 -0.00000000000E+00 -0.14550073189E+03  0.14550073189E+03  0.00000000000E+00 0. -1.
    9000007    2    1    2  502    0 -0.11255563428E+02  0.12167857790E+03  0.83842412791E+03  0.93771045419E+03  0.40176300676E+03 0.  0.
    9000005    1    3    3    0    0  0.11881059695E+03 -0.40009724819E+00  0.49235590100E+02  0.12861283510E+03  0.99999687468E+00 0.  0.
          4    1    3    3  502    0 -0.13006616038E+03  0.12207867515E+03  0.78918853781E+03  0.80909761909E+03  0.00000000000E+00 0.  1.
   -9000007    1    1    2    0  501  0.11255563428E+02 -0.12167857790E+03  0.36037235213E+03  0.55208748963E+03  0.40000000000E+03 0.  1.
<mgrwt>
<rscale>  2 0.41909152E+03</rscale>
<asrwt>0</asrwt>
<pdfrwt beam="1">  1        1 0.20681495E+00 0.41909152E+03</pdfrwt>
<pdfrwt beam="2">  1       -1 0.22384729E-01 0.41909152E+03</pdfrwt>
<totfact> 0.14993143E+02</totfact>
</mgrwt>
</event>
<event>
 6    1  0.8861680E-004  0.5220244E+03  0.7818608E-02  0.1008185E+00
          2   -1    0    0  502    0  0.00000000000E+00  0.00000000000E+00  0.24445400842E+04  0.24445400842E+04  0.00000000000E+00 0. -1.
         -2   -1    0    0    0  501 -0.00000000000E+00 -0.00000000000E+00 -0.11278246581E+03  0.11278246581E+03  0.00000000000E+00 0.  1.
    9000007    2    1    2  502    0  0.15848974895E+03  0.29569038040E+03  0.13033690815E+04  0.14040078556E+04  0.39989410388E+03 0.  0.
    9000005    1    3    3    0    0  0.27263286929E+02  0.35428053692E+03  0.10924323170E+04  0.11487677541E+04  0.99999687468E+00 0.  0.
          4    1    3    3  502    0  0.13122646202E+03 -0.58590156519E+02  0.21093676445E+03  0.25524010142E+03  0.00000000000E+00 0.  1.
   -9000007    1    1    2    0  501 -0.15848974895E+03 -0.29569038040E+03  0.10283885369E+04  0.11533146944E+04  0.40000000000E+03 0.  1.
<mgrwt>
<rscale>  2 0.52202437E+03</rscale>
<asrwt>0</asrwt>
<pdfrwt beam="1">  1        2 0.37608305E+00 0.52202437E+03</pdfrwt>
<pdfrwt beam="2">  1       -2 0.17351150E-01 0.52202437E+03</pdfrwt>
<totfact> 0.10951888E+02</totfact>
</mgrwt>
</event>
<event>
 6    1  0.8861680E-004  0.4153505E+03  0.7818608E-02  0.1038590E+00
         -1   -1    0    0    0  501 -0.00000000000E+00  0.00000000000E+00  0.61956933871E+02  0.61956933871E+02  0.00000000000E+00 0.  1.
          1   -1    0    0  502    0  0.00000000000E+00 -0.00000000000E+00 -0.29086747554E+04  0.29086747554E+04  0.00000000000E+00 0. -1.
    9000007    2    1    2  502    0 -0.11363968008E+03  0.18895671287E+02 -0.17273206869E+04  0.17763448861E+04  0.39811226506E+03 0.  0.
    9000005    1    3    3    0    0  0.91041442013E+02 -0.99903027402E+02 -0.29355756829E+03  0.32318138087E+03  0.99999687468E+00 0.  0.
          4    1    3    3  502    0 -0.20468112209E+03  0.11879869869E+03 -0.14337631186E+04  0.14531635052E+04  0.00000000000E+00 0.  1.
   -9000007    1    1    2    0  501  0.11363968008E+03 -0.18895671287E+02 -0.11193971346E+04  0.11942868032E+04  0.40000000000E+03 0.  1.
<mgrwt>
<rscale>  2 0.41535053E+03</rscale>
<asrwt>0</asrwt>
<pdfrwt beam="1">  1        1 0.44748838E+00 0.41535053E+03</pdfrwt>
<pdfrwt beam="2">  1       -1 0.95318369E-02 0.41535053E+03</pdfrwt>
<totfact> 0.52896771E+01</totfact>
</mgrwt>
</event>
<event>
 6    1  0.8861680E-004  0.4186968E+03  0.7818608E-02  0.1037491E+00
         -2   -1    0    0    0  501 -0.00000000000E+00  0.00000000000E+00  0.18550395917E+03  0.18550395917E+03  0.00000000000E+00 0.  1.
          2   -1    0    0  502    0  0.00000000000E+00 -0.00000000000E+00 -0.97702998327E+03  0.97702998327E+03  0.00000000000E+00 0. -1.
    9000007    2    1    2  502    0 -0.12006565893E+03  0.26578217138E+02 -0.29077191134E+03  0.50994153862E+03  0.40046211345E+03 0.  0.
    9000005    1    3    3    0    0  0.13210178423E+03  0.76557406620E+02 -0.58597151743E+02  0.16354370698E+03  0.99999687468E+00 0.  0.
          4    1    3    3  502    0 -0.25216744316E+03 -0.49979189482E+02 -0.23217475960E+03  0.34639783164E+03  0.00000000000E+00 0.  1.
   -9000007    1    1    2    0  501  0.12006565893E+03 -0.26578217138E+02 -0.50075411275E+03  0.65259240382E+03  0.40000000000E+03 0. -1.
<mgrwt>
<rscale>  2 0.41869681E+03</rscale>
<asrwt>0</asrwt>
<pdfrwt beam="1">  1        2 0.15031230E+00 0.41869681E+03</pdfrwt>
<pdfrwt beam="2">  1       -2 0.28539071E-01 0.41869681E+03</pdfrwt>
<totfact> 0.30182942E+02</totfact>
</mgrwt>
</event>
<event>
 6    1  0.8861680E-004  0.4323304E+03  0.7818608E-02  0.1033126E+00
          2   -1    0    0  502    0  0.00000000000E+00  0.00000000000E+00  0.25753215849E+04  0.25753215849E+04  0.00000000000E+00 0. -1.
         -2   -1    0    0    0  501 -0.00000000000E+00 -0.00000000000E+00 -0.78512789467E+02  0.78512789467E+02  0.00000000000E+00 0.  1.
    9000007    2    1    2  502    0  0.61439525672E+02 -0.15207071262E+03  0.88359035296E+03  0.98369244624E+03  0.40002324933E+03 0.  0.
    9000005    1    3    3    0    0  0.13302729238E+03 -0.24543511425E+03  0.77438660809E+03  0.82317086599E+03  0.99999687468E+00 0.  0.
          4    1    3    3  502    0 -0.71587766704E+02  0.93364401636E+02  0.10920374487E+03  0.16052158026E+03  0.00000000000E+00 0.  1.
   -9000007    1    1    2    0  501 -0.61439525672E+02  0.15207071262E+03  0.16132184425E+04  0.16701419282E+04  0.40000000000E+03 0.  1.
<mgrwt>
<rscale>  2 0.43233045E+03</rscale>
<asrwt>0</asrwt>
<pdfrwt beam="1">  1        2 0.39620326E+00 0.43233045E+03</pdfrwt>
<pdfrwt beam="2">  1       -2 0.12078893E-01 0.43233045E+03</pdfrwt>
<totfact> 0.17225753E+02</totfact>
</mgrwt>
</event>
<event>
 6    1  0.8861680E-004  0.4780714E+03  0.7818608E-02  0.1019667E+00
         -2   -1    0    0    0  501 -0.00000000000E+00  0.00000000000E+00  0.92586947191E+03  0.92586947191E+03  0.00000000000E+00 0.  1.
          2   -1    0    0  502    0  0.00000000000E+00 -0.00000000000E+00 -0.25702465110E+03  0.25702465110E+03  0.00000000000E+00 0. -1.
    9000007    2    1    2  502    0 -0.17973053409E+03 -0.18976817512E+03  0.45225604525E+03  0.65827452476E+03  0.40059305323E+03 0.  0.
    9000005    1    3    3    0    0 -0.24435796192E+03 -0.82677164921E+02  0.87076376632E+02  0.27226755685E+03  0.99999687468E+00 0.  0.
          4    1    3    3  502    0  0.64627427829E+02 -0.10709101020E+03  0.36517966862E+03  0.38600696790E+03  0.00000000000E+00 0.  1.
   -9000007    1    1    2    0  501  0.17973053409E+03  0.18976817512E+03  0.21658877555E+03  0.52461959825E+03  0.40000000000E+03 0. -1.
<mgrwt>
<rscale>  2 0.47807144E+03</rscale>
<asrwt>0</asrwt>
<pdfrwt beam="1">  1        2 0.39542255E-01 0.47807144E+03</pdfrwt>
<pdfrwt beam="2">  1       -2 0.14244146E+00 0.47807144E+03</pdfrwt>
<totfact> 0.46173960E+01</totfact>
</mgrwt>
</event>
<event>
 6    1  0.8861680E-004  0.4523413E+03  0.7818608E-02  0.1027026E+00
          2   -1    0    0  502    0  0.00000000000E+00  0.00000000000E+00  0.16001577857E+04  0.16001577857E+04  0.00000000000E+00 0.  1.
         -2   -1    0    0    0  501 -0.00000000000E+00 -0.00000000000E+00 -0.17508190896E+03  0.17508190896E+03  0.00000000000E+00 0. -1.
    9000007    2    1    2  502    0 -0.16870992880E+03  0.12862503065E+03  0.25111174629E+03  0.51698724853E+03  0.39901286626E+03 0.  0.
    9000005    1    3    3    0    0 -0.23394130866E+03  0.21407909174E+03  0.10190104644E+03  0.33308139647E+03  0.99999687468E+00 0.  0.
          4    1    3    3  502    0  0.65231379860E+02 -0.85454061090E+02  0.14921069984E+03  0.18390585206E+03  0.00000000000E+00 0.  1.
   -9000007    1    1    2    0  501  0.16870992880E+03 -0.12862503065E+03  0.11739641305E+04  0.12582524462E+04  0.40000000000E+03 0.  1.
<mgrwt>
<rscale>  2 0.45234134E+03</rscale>
<asrwt>0</asrwt>
<pdfrwt beam="1">  1        2 0.24617811E+00 0.45234134E+03</pdfrwt>
<pdfrwt beam="2">  1       -2 0.26935679E-01 0.45234134E+03</pdfrwt>
<totfact> 0.14666726E+02</totfact>
</mgrwt>
</event>
<event>
 6    1  0.8861680E-004  0.4102464E+03  0.7818608E-02  0.1040288E+00
         -2   -1    0    0    0  501 -0.00000000000E+00  0.00000000000E+00  0.27768202660E+03  0.27768202660E+03  0.00000000000E+00 0.  1.
          2   -1    0    0  502    0  0.00000000000E+00 -0.00000000000E+00 -0.62408825655E+03  0.62408825655E+03  0.00000000000E+00 0. -1.
    9000007    2    1    2  502    0 -0.39781946486E+02 -0.80522427229E+02 -0.96765811491E+02  0.42178403014E+03  0.40058916766E+03 0.  0.
    9000005    1    3    3    0    0 -0.14957678909E+03 -0.10243049678E+03 -0.19968746718E+03  0.26970596405E+03  0.99999687468E+00 0.  0.
          4    1    3    3  502    0  0.10979484260E+03  0.21908069550E+02  0.10292165569E+03  0.15207806608E+03  0.00000000000E+00 0.  1.
   -9000007    1    1    2    0  501  0.39781946486E+02  0.80522427229E+02 -0.24964041846E+03  0.47998625301E+03  0.40000000000E+03 0.  1.
<mgrwt>
<rscale>  2 0.41024644E+03</rscale>
<asrwt>0</asrwt>
<pdfrwt beam="1">  1        2 0.96013577E-01 0.41024644E+03</pdfrwt>
<pdfrwt beam="2">  1       -2 0.42720312E-01 0.41024644E+03</pdfrwt>
<totfact> 0.25205671E+02</totfact>
</mgrwt>
</event>
<event>
 6    1  0.8861680E-004  0.5031519E+03  0.7818608E-02  0.1012959E+00
          2   -1    0    0  502    0  0.00000000000E+00  0.00000000000E+00  0.16555648642E+04  0.16555648642E+04  0.00000000000E+00 0.  1.
         -2   -1    0    0    0  501 -0.00000000000E+00 -0.00000000000E+00 -0.15674679983E+03  0.15674679983E+03  0.00000000000E+00 0. -1.
    9000007    2    1    2  502    0 -0.30368907777E+03 -0.30039923951E+02  0.89112238393E+03  0.10233734579E+04  0.40008083970E+03 0.  0.
    9000005    1    3    3    0    0  0.30524899098E+02 -0.59844234039E+02 -0.41225578983E+01  0.67313425779E+02  0.99999687468E+00 0.  0.
          4    1    3    3  502    0 -0.33421397687E+03  0.29804310088E+02  0.89524494183E+03  0.95606003217E+03  0.00000000000E+00 0.  1.
   -9000007    1    1    2    0  501  0.30368907777E+03  0.30039923951E+02  0.60769568044E+03  0.78893820608E+03  0.40000000000E+03 0. -1.
<mgrwt>
<rscale>  2 0.50315186E+03</rscale>
<asrwt>0</asrwt>
<pdfrwt beam="1">  1        2 0.25470228E+00 0.50315186E+03</pdfrwt>
<pdfrwt beam="2">  1       -2 0.24114893E-01 0.50315186E+03</pdfrwt>
<totfact> 0.16582872E+02</totfact>
</mgrwt>
</event>
<event>
 6    1  0.8861680E-004  0.5556479E+03  0.7818608E-02  0.1000195E+00
         -2   -1    0    0    0  501 -0.00000000000E+00  0.00000000000E+00  0.87384392474E+02  0.87384392474E+02  0.00000000000E+00 0.  1.
          2   -1    0    0  502    0  0.00000000000E+00 -0.00000000000E+00 -0.36857472455E+04  0.36857472455E+04  0.00000000000E+00 0. -1.
    9000007    2    1    2  502    0  0.33394244376E+03 -0.19240872521E+03 -0.21835894519E+04  0.22532229401E+04  0.40051473152E+03 0.  0.
    9000005    1    3    3    0    0 -0.83908381431E+02 -0.83393893452E+02 -0.61501983868E+03  0.62629510608E+03  0.99999687468E+00 0.  0.
          4    1    3    3  502    0  0.41785082519E+03 -0.10901483176E+03 -0.15685696132E+04  0.16269278340E+04  0.00000000000E+00 0.  1.
   -9000007    1    1    2    0  501 -0.33394244376E+03  0.19240872521E+03 -0.14147734012E+04  0.15199086979E+04  0.40000000000E+03 0. -1.
<mgrwt>
<rscale>  2 0.55564794E+03</rscale>
<asrwt>0</asrwt>
<pdfrwt beam="1">  1        2 0.56703806E+00 0.55564794E+03</pdfrwt>
<pdfrwt beam="2">  1       -2 0.13443752E-01 0.55564794E+03</pdfrwt>
<totfact> 0.28414618E+01</totfact>
</mgrwt>
</event>
<event>
 6    1  0.8861680E-004  0.4478480E+03  0.7818608E-02  0.1028366E+00
          2   -1    0    0  502    0  0.00000000000E+00  0.00000000000E+00  0.19662683703E+04  0.19662683703E+04  0.00000000000E+00 0.  1.
         -2   -1    0    0    0  501 -0.00000000000E+00 -0.00000000000E+00 -0.11960719632E+03  0.11960719632E+03  0.00000000000E+00 0. -1.
    9000007    2    1    2  502    0  0.10454194974E+03 -0.17207549111E+03  0.13234901353E+04  0.13972196804E+04  0.40007212250E+03 0.  0.
    9000005    1    3    3    0    0  0.36314962158E+02 -0.94180002833E+02  0.38457116457E+02  0.10802129054E+03  0.99999687468E+00 0.  0.
          4    1    3    3  502    0  0.68226987582E+02 -0.77895488274E+02  0.12850330189E+04  0.12891983899E+04  0.00000000000E+00 0.  1.
   -9000007    1    1    2    0  501 -0.10454194974E+03  0.17207549111E+03  0.52317103864E+03  0.68865588617E+03  0.40000000000E+03 0. -1.
<mgrwt>
<rscale>  2 0.44784801E+03</rscale>
<asrwt>0</asrwt>
<pdfrwt beam="1">  1        2 0.30250280E+00 0.44784801E+03</pdfrwt>
<pdfrwt beam="2">  1       -2 0.18401109E-01 0.44784801E+03</pdfrwt>
<totfact> 0.18254806E+02</totfact>
</mgrwt>
</event>
<event>
 6    1  0.8861680E-004  0.5261751E+03  0.7818608E-02  0.1007164E+00
         -1   -1    0    0    0  501 -0.00000000000E+00  0.00000000000E+00  0.44726642223E+03  0.44726642223E+03  0.00000000000E+00 0.  1.
          1   -1    0    0  502    0  0.00000000000E+00 -0.00000000000E+00 -0.10916604366E+04  0.10916604366E+04  0.00000000000E+00 0. -1.
    9000007    2    1    2  502    0 -0.20024074917E+03 -0.27520235946E+03  0.18377154709E+03  0.55826846088E+03  0.40256551840E+03 0.  0.
    9000005    1    3    3    0    0  0.11586661475E+03 -0.13882257906E+03  0.86927728743E+02  0.20063452068E+03  0.99999687468E+00 0.  0.
          4    1    3    3  502    0 -0.31610736392E+03 -0.13637978040E+03  0.96843818350E+02  0.35763394020E+03  0.00000000000E+00 0.  1.
   -9000007    1    1    2    0  501  0.20024074917E+03  0.27520235946E+03 -0.82816556145E+03  0.98065839794E+03  0.40000000000E+03 0. -1.
<mgrwt>
<rscale>  2 0.52617514E+03</rscale>
<asrwt>0</asrwt>
<pdfrwt beam="1">  1        1 0.16794776E+00 0.52617514E+03</pdfrwt>
<pdfrwt beam="2">  1       -1 0.68810218E-01 0.52617514E+03</pdfrwt>
<totfact> 0.29145355E+01</totfact>
</mgrwt>
</event>
<event>
 6    1  0.8861680E-004  0.4153367E+03  0.7818608E-02  0.1038595E+00
         -1   -1    0    0    0  501 -0.00000000000E+00  0.00000000000E+00  0.37984317475E+03  0.37984317475E+03  0.00000000000E+00 0. -1.
          1   -1    0    0  502    0  0.00000000000E+00 -0.00000000000E+00 -0.58228065147E+03  0.58228065147E+03  0.00000000000E+00 0.  1.
    9000007    2    1    2  502    0 -0.94735836270E+02  0.57782840612E+02  0.12440370322E+03  0.43378786090E+03  0.40047707992E+03 0.  0.
    9000005    1    3    3    0    0 -0.23120275110E+03  0.92519871650E+02  0.14992242745E+03  0.29067571796E+03  0.99999687468E+00 0.  0.
          4    1    3    3  502    0  0.13646691483E+03 -0.34737031038E+02 -0.25518724227E+02  0.14311214293E+03  0.00000000000E+00 0.  1.
   -9000007    1    1    2    0  501  0.94735836270E+02 -0.57782840612E+02 -0.32684117994E+03  0.52833596532E+03  0.40000000000E+03 0.  1.
<mgrwt>
<rscale>  2 0.41533670E+03</rscale>
<asrwt>0</asrwt>
<pdfrwt beam="1">  1        1 0.89581639E-01 0.41533670E+03</pdfrwt>
<pdfrwt beam="2">  1       -1 0.58437411E-01 0.41533670E+03</pdfrwt>
<totfact> 0.11121491E+02</totfact>
</mgrwt>
</event>
<event>
 6    1  0.8861680E-004  0.4076290E+03  0.7818608E-02  0.1041170E+00
          2   -1    0    0  502    0  0.00000000000E+00  0.00000000000E+00  0.12149637365E+04  0.12149637365E+04  0.00000000000E+00 0. -1.
         -2   -1    0    0    0  501 -0.00000000000E+00 -0.00000000000E+00 -0.14002748687E+03  0.14002748687E+03  0.00000000000E+00 0.  1.
    9000007    2    1    2  502    0 -0.50641616374E+02  0.60056126861E+02  0.64090577676E+03  0.75954705044E+03  0.39997524357E+03 0.  0.
    9000005    1    3    3    0    0 -0.89605409551E+02 -0.12216108915E+03  0.50946907824E+03  0.53151876995E+03  0.99999687468E+00 0.  0.
          4    1    3    3  502    0  0.38963793177E+02  0.18221721601E+03  0.13143669852E+03  0.22802828050E+03  0.00000000000E+00 0.  1.
   -9000007    1    1    2    0  501  0.50641616374E+02 -0.60056126861E+02  0.43403047283E+03  0.59544417289E+03  0.40000000000E+03 0. -1.
<mgrwt>
<rscale>  2 0.40762901E+03</rscale>
<asrwt>0</asrwt>
<pdfrwt beam="1">  1        2 0.18691749E+00 0.40762901E+03</pdfrwt>
<pdfrwt beam="2">  1       -2 0.21542691E-01 0.40762901E+03</pdfrwt>
<totfact> 0.35894089E+02</totfact>
</mgrwt>
</event>
<event>
 6    1  0.8861680E-004  0.5511118E+03  0.7818608E-02  0.1001237E+00
          1   -1    0    0  502    0  0.00000000000E+00  0.00000000000E+00  0.21146062821E+03  0.21146062821E+03  0.00000000000E+00 0. -1.
         -1   -1    0    0    0  501 -0.00000000000E+00 -0.00000000000E+00 -0.14365784022E+04  0.14365784022E+04  0.00000000000E+00 0.  1.
    9000007    2    1    2  502    0 -0.36189932157E+03 -0.11283516484E+03 -0.60143222495E+03  0.81576109759E+03  0.40005318867E+03 0.  0.
    9000005    1    3    3    0    0 -0.15545429715E+03  0.70820947015E+02 -0.19979398386E+02  0.17199366672E+03  0.99999687468E+00 0.  0.
          4    1    3    3  502    0 -0.20644502441E+03 -0.18365611186E+03 -0.58145282656E+03  0.64376743087E+03  0.00000000000E+00 0.  1.
   -9000007    1    1    2    0  501  0.36189932157E+03  0.11283516484E+03 -0.62368554901E+03  0.83227793279E+03  0.40000000000E+03 0.  1.
<mgrwt>
<rscale>  2 0.55111176E+03</rscale>
<asrwt>0</asrwt>
<pdfrwt beam="1">  1        1 0.32532405E-01 0.55111176E+03</pdfrwt>
<pdfrwt beam="2">  1       -1 0.22101206E+00 0.55111176E+03</pdfrwt>
<totfact> 0.15814736E+01</totfact>
</mgrwt>
</event>
<event>
 6    1  0.8861680E-004  0.4332010E+03  0.7818608E-02  0.1032854E+00
         -2   -1    0    0    0  501 -0.00000000000E+00  0.00000000000E+00  0.80563920638E+02  0.80563920638E+02  0.00000000000E+00 0. -1.
          2   -1    0    0  502    0  0.00000000000E+00 -0.00000000000E+00 -0.23377953002E+04  0.23377953002E+04  0.00000000000E+00 0.  1.
    9000007    2    1    2  502    0  0.15740476373E+03  0.65700109845E+02 -0.10518992045E+04  0.11369855766E+04  0.39642338570E+03 0.  0.
    9000005    1    3    3    0    0  0.15311222902E+03  0.22368714969E+03 -0.72120682174E+03  0.77046711502E+03  0.99999687468E+00 0.  0.
          4    1    3    3  502    0  0.42925347095E+01 -0.15798703984E+03 -0.33069238278E+03  0.36651846153E+03  0.00000000000E+00 0.  1.
   -9000007    1    1    2    0  501 -0.15740476373E+03 -0.65700109845E+02 -0.12053321750E+04  0.12813736442E+04  0.40000000000E+03 0.  1.
<mgrwt>
<rscale>  2 0.43320100E+03</rscale>
<asrwt>0</asrwt>
<pdfrwt beam="1">  1        2 0.35966083E+00 0.43320100E+03</pdfrwt>
<pdfrwt beam="2">  1       -2 0.12394449E-01 0.43320100E+03</pdfrwt>
<totfact> 0.22358755E+02</totfact>
</mgrwt>
</event>
<event>
 6    1  0.8861680E-004  0.4288358E+03  0.7818608E-02  0.1034228E+00
          1   -1    0    0  502    0  0.00000000000E+00  0.00000000000E+00  0.19246638369E+04  0.19246638369E+04  0.00000000000E+00 0.  1.
         -1   -1    0    0    0  501 -0.00000000000E+00 -0.00000000000E+00 -0.20494825660E+03  0.20494825660E+03  0.00000000000E+00 0. -1.
    9000007    2    1    2  502    0  0.16111288693E+03  0.22872618420E+02  0.79133875783E+02  0.43314846341E+03  0.39354148708E+03 0.  0.
    9000005    1    3    3    0    0 -0.77498510834E+02 -0.70660802542E+02 -0.79615969110E+02  0.13167638637E+03  0.99999687468E+00 0.  0.
          4    1    3    3  502    0  0.23861139776E+03  0.93533420963E+02  0.15874984489E+03  0.30147207704E+03  0.00000000000E+00 0.  1.
   -9000007    1    1    2    0  501 -0.16111288693E+03 -0.22872618420E+02  0.16405817045E+04  0.16964636301E+04  0.40000000000E+03 0.  1.
<mgrwt>
<rscale>  2 0.42883577E+03</rscale>
<asrwt>0</asrwt>
<pdfrwt beam="1">  1        1 0.29610212E+00 0.42883577E+03</pdfrwt>
<pdfrwt beam="2">  1       -1 0.31530502E-01 0.42883577E+03</pdfrwt>
<totfact> 0.34253414E+01</totfact>
</mgrwt>
</event>
<event>
 6    1  0.8861680E-004  0.5059431E+03  0.7818608E-02  0.1012239E+00
          2   -1    0    0  502    0  0.00000000000E+00  0.00000000000E+00  0.48692665042E+03  0.48692665042E+03  0.00000000000E+00 0. -1.
         -2   -1    0    0    0  501 -0.00000000000E+00 -0.00000000000E+00 -0.53694042979E+03  0.53694042979E+03  0.00000000000E+00 0.  1.
    9000007    2    1    2  502    0 -0.20853793384E+03  0.22749481246E+03  0.49017006517E+02  0.50903792787E+03  0.40183950221E+03 0.  0.
    9000005    1    3    3    0    0  0.49921987677E+02  0.49576060559E+02  0.16113716897E+03  0.17582996858E+03  0.99999687468E+00 0.  0.
          4    1    3    3  502    0 -0.25845992152E+03  0.17791875190E+03 -0.11212016245E+03  0.33320795930E+03  0.00000000000E+00 0.  1.
   -9000007    1    1    2    0  501  0.20853793384E+03 -0.22749481246E+03 -0.99030785889E+02  0.51482915234E+03  0.40000000000E+03 0.  1.
<mgrwt>
<rscale>  2 0.50594307E+03</rscale>
<asrwt>0</asrwt>
<pdfrwt beam="1">  1        2 0.74911793E-01 0.50594307E+03</pdfrwt>
<pdfrwt beam="2">  1       -2 0.82606219E-01 0.50594307E+03</pdfrwt>
<totfact> 0.83930132E+01</totfact>
</mgrwt>
</event>
<event>
 6    1  0.8861680E-004  0.4705820E+03  0.7818608E-02  0.1021756E+00
         -1   -1    0    0    0  501 -0.00000000000E+00  0.00000000000E+00  0.22241098567E+03  0.22241098567E+03  0.00000000000E+00 0.  1.
          1   -1    0    0  502    0  0.00000000000E+00 -0.00000000000E+00 -0.10341708783E+04  0.10341708783E+04  0.00000000000E+00 0. -1.
    9000007    2    1    2  502    0 -0.22952141520E+03  0.93518724718E+02 -0.52713013741E+03  0.70663647624E+03  0.40005386623E+03 0.  0.
    9000005    1    3    3    0    0 -0.25580659337E+03 -0.97735290431E+02 -0.35207410660E+03  0.44603405334E+03  0.99999687468E+00 0.  0.
          4    1    3    3  502    0  0.26285178164E+02  0.19125401515E+03 -0.17505603081E+03  0.26060242290E+03  0.00000000000E+00 0.  1.
   -9000007    1    1    2    0  501  0.22952141520E+03 -0.93518724718E+02 -0.28462975521E+03  0.54994538771E+03  0.40000000000E+03 0.  1.
<mgrwt>
<rscale>  2 0.47058196E+03</rscale>
<asrwt>0</asrwt>
<pdfrwt beam="1">  1        1 0.15910321E+00 0.47058196E+03</pdfrwt>
<pdfrwt beam="2">  1       -1 0.34217075E-01 0.47058196E+03</pdfrwt>
<totfact> 0.12029030E+02</totfact>
</mgrwt>
</event>
<event>
 6    1  0.8861680E-004  0.5168563E+03  0.7818608E-02  0.1009470E+00
         -1   -1    0    0    0  501 -0.00000000000E+00  0.00000000000E+00  0.37007125849E+03  0.37007125849E+03  0.00000000000E+00 0. -1.
          1   -1    0    0  502    0  0.00000000000E+00 -0.00000000000E+00 -0.77250638315E+03  0.77250638315E+03  0.00000000000E+00 0.  1.
    9000007    2    1    2  502    0 -0.22560812919E+03 -0.23739672958E+03 -0.54902066834E+02  0.51965271723E+03  0.39971048824E+03 0.  0.
    9000005    1    3    3    0    0 -0.13847013763E+03 -0.32241372427E+03  0.55563182162E+02  0.35526448713E+03  0.99999687468E+00 0.  0.
          4    1    3    3  502    0 -0.87137991563E+02  0.85016994688E+02 -0.11046524900E+03  0.16438823010E+03  0.00000000000E+00 0.  1.
   -9000007    1    1    2    0  501  0.22560812919E+03  0.23739672958E+03 -0.34753305782E+03  0.62292492441E+03  0.40000000000E+03 0. -1.
<mgrwt>
<rscale>  2 0.51685631E+03</rscale>
<asrwt>0</asrwt>
<pdfrwt beam="1">  1        1 0.11884713E+00 0.51685631E+03</pdfrwt>
<pdfrwt beam="2">  1       -1 0.56934041E-01 0.51685631E+03</pdfrwt>
<totfact> 0.76231492E+01</totfact>
</mgrwt>
</event>
<event>
 6    1  0.8861680E-004  0.4529411E+03  0.7818608E-02  0.1026849E+00
         -2   -1    0    0    0  501 -0.00000000000E+00  0.00000000000E+00  0.13060448248E+03  0.13060448248E+03  0.00000000000E+00 0. -1.
          2   -1    0    0  502    0  0.00000000000E+00 -0.00000000000E+00 -0.16814264770E+04  0.16814264770E+04  0.00000000000E+00 0.  1.
    9000007    2    1    2  502    0 -0.14735676970E+03 -0.15181257092E+03 -0.54373188551E+03  0.70795145060E+03  0.40098605813E+03 0.  0.
    9000005    1    3    3    0    0 -0.10108775496E+03 -0.22389187117E+03 -0.11589080448E+03  0.27162102779E+03  0.99999687468E+00 0.  0.
          4    1    3    3  502    0 -0.46269014738E+02  0.72079300253E+02 -0.42784108103E+03  0.43633042281E+03  0.00000000000E+00 0.  1.
   -9000007    1    1    2    0  501  0.14735676970E+03  0.15181257092E+03 -0.10070901091E+04  0.11040795089E+04  0.40000000000E+03 0.  1.
<mgrwt>
<rscale>  2 0.45294106E+03</rscale>
<asrwt>0</asrwt>
<pdfrwt beam="1">  1        2 0.25868098E+00 0.45294106E+03</pdfrwt>
<pdfrwt beam="2">  1       -2 0.20092998E-01 0.45294106E+03</pdfrwt>
<totfact> 0.22276303E+02</totfact>
</mgrwt>
</event>
<event>
 6    1  0.8861680E-004  0.5010417E+03  0.7818608E-02  0.1013507E+00
         -1   -1    0    0    0  501 -0.00000000000E+00  0.00000000000E+00  0.12168260962E+03  0.12168260962E+03  0.00000000000E+00 0. -1.
          1   -1    0    0  502    0  0.00000000000E+00 -0.00000000000E+00 -0.20726359830E+04  0.20726359830E+04  0.00000000000E+00 0.  1.
    9000007    2    1    2  502    0  0.13188023359E+03 -0.27126828376E+03 -0.90116228935E+03  0.10311160316E+04  0.40015986948E+03 0.  0.
    9000005    1    3    3    0    0 -0.31855190981E+02 -0.29824347606E+03 -0.74555902776E+03  0.80363125131E+03  0.99999687468E+00 0.  0.
          4    1    3    3  502    0  0.16373542457E+03  0.26975192305E+02 -0.15560326159E+03  0.22748478032E+03  0.00000000000E+00 0.  1.
   -9000007    1    1    2    0  501 -0.13188023359E+03  0.27126828376E+03 -0.10497910840E+04  0.11632025610E+04  0.40000000000E+03 0.  1.
<mgrwt>
<rscale>  2 0.50104174E+03</rscale>
<asrwt>0</asrwt>
<pdfrwt beam="1">  1        1 0.31886708E+00 0.50104174E+03</pdfrwt>
<pdfrwt beam="2">  1       -1 0.18720401E-01 0.50104174E+03</pdfrwt>
<totfact> 0.64954421E+01</totfact>
</mgrwt>
</event>
<event>
 6    1  0.8861680E-004  0.4848068E+03  0.7818608E-02  0.1017822E+00
         -1   -1    0    0    0  501 -0.00000000000E+00  0.00000000000E+00  0.16954136720E+03  0.16954136720E+03  0.00000000000E+00 0. -1.
          1   -1    0    0  502    0  0.00000000000E+00 -0.00000000000E+00 -0.14483196150E+04  0.14483196150E+04  0.00000000000E+00 0.  1.
    9000007    2    1    2  502    0  0.26838539646E+03 -0.62781948679E+02 -0.47080634432E+03  0.67510391332E+03  0.39766114446E+03 0.  0.
    9000005    1    3    3    0    0  0.54246249509E+02 -0.58355101835E+02  0.61934011086E+02  0.10091974643E+03  0.99999687468E+00 0.  0.
          4    1    3    3  502    0  0.21413914696E+03 -0.44268468448E+01 -0.53274035540E+03  0.57418416689E+03  0.00000000000E+00 0.  1.
   -9000007    1    1    2    0  501 -0.26838539646E+03  0.62781948679E+02 -0.80797190351E+03  0.94275706890E+03  0.40000000000E+03 0.  1.
<mgrwt>
<rscale>  2 0.48480680E+03</rscale>
<asrwt>0</asrwt>
<pdfrwt beam="1">  1        1 0.22281841E+00 0.48480680E+03</pdfrwt>
<pdfrwt beam="2">  1       -1 0.26083287E-01 0.48480680E+03</pdfrwt>
<totfact> 0.97482895E+01</totfact>
</mgrwt>
</event>
<event>
 6    1  0.8861680E-004  0.4632185E+03  0.7818608E-02  0.1023852E+00
         -1   -1    0    0    0  501 -0.00000000000E+00  0.00000000000E+00  0.37819820322E+03  0.37819820322E+03  0.00000000000E+00 0. -1.
          1   -1    0    0  502    0  0.00000000000E+00 -0.00000000000E+00 -0.65616147951E+03  0.65616147951E+03  0.00000000000E+00 0.  1.
    9000007    2    1    2  502    0  0.18310425646E+03  0.14581019912E+03 -0.32918943140E+03  0.56808519076E+03  0.39945878300E+03 0.  0.
    9000005    1    3    3    0    0  0.10992478392E+03  0.23213817120E+03 -0.43122914272E+02  0.26044610647E+03  0.99999687468E+00 0.  0.
          4    1    3    3  502    0  0.73179472531E+02 -0.86327972078E+02 -0.28606651712E+03  0.30763908429E+03  0.00000000000E+00 0.  1.
   -9000007    1    1    2    0  501 -0.18310425646E+03 -0.14581019912E+03  0.51226155103E+02  0.46627449197E+03  0.40000000000E+03 0. -1.
<mgrwt>
<rscale>  2 0.46321845E+03</rscale>
<asrwt>0</asrwt>
<pdfrwt beam="1">  1        1 0.10094792E+00 0.46321845E+03</pdfrwt>
<pdfrwt beam="2">  1       -1 0.58184339E-01 0.46321845E+03</pdfrwt>
<totfact> 0.94019504E+01</totfact>
</mgrwt>
</event>
<event>
 6    1  0.8861680E-004  0.5339980E+03  0.7818608E-02  0.1005267E+00
         -1   -1    0    0    0  501 -0.00000000000E+00  0.00000000000E+00  0.29753625781E+03  0.29753625781E+03  0.00000000000E+00 0.  1.
          1   -1    0    0  502    0  0.00000000000E+00 -0.00000000000E+00 -0.10517969040E+04  0.10517969040E+04  0.00000000000E+00 0. -1.
    9000007    2    1    2  502    0  0.31951439610E+03  0.15125008303E+03 -0.57830422553E+03  0.78725959110E+03  0.40046953640E+03 0.  0.
    9000005    1    3    3    0    0  0.34295782357E+03  0.25406621775E+03 -0.48901347613E+03  0.64908003480E+03  0.99999687468E+00 0.  0.
          4    1    3    3  502    0 -0.23443427465E+02 -0.10281613473E+03 -0.89290749403E+02  0.13817955630E+03  0.00000000000E+00 0.  1.
   -9000007    1    1    2    0  501 -0.31951439610E+03 -0.15125008303E+03 -0.17595642068E+03  0.56207357073E+03  0.40000000000E+03 0.  1.
<mgrwt>
<rscale>  2 0.53399803E+03</rscale>
<asrwt>0</asrwt>
<pdfrwt beam="1">  1        1 0.16181491E+00 0.53399803E+03</pdfrwt>
<pdfrwt beam="2">  1       -1 0.45774809E-01 0.53399803E+03</pdfrwt>
<totfact> 0.68491608E+01</totfact>
</mgrwt>
</event>
<event>
 6    1  0.8861680E-004  0.4468517E+03  0.7818608E-02  0.1028665E+00
          1   -1    0    0  502    0  0.00000000000E+00  0.00000000000E+00  0.89696480891E+03  0.89696480891E+03  0.00000000000E+00 0. -1.
         -1   -1    0    0    0  501 -0.00000000000E+00 -0.00000000000E+00 -0.22261470722E+03  0.22261470722E+03  0.00000000000E+00 0.  1.
    9000007    2    1    2  502    0  0.12078483816E+01  0.19868270047E+03  0.33866335096E+03  0.56086503718E+03  0.40050025005E+03 0.  0.
    9000005    1    3    3    0    0  0.24269506439E+02  0.54063602498E+02  0.39834083781E+03  0.40272609193E+03  0.99999687468E+00 0.  0.
          4    1    3    3  502    0 -0.23061658058E+02  0.14461909797E+03 -0.59677486848E+02  0.15813894525E+03  0.00000000000E+00 0.  1.
   -9000007    1    1    2    0  501 -0.12078483816E+01 -0.19868270047E+03  0.33568675073E+03  0.55871447894E+03  0.40000000000E+03 0. -1.
<mgrwt>
<rscale>  2 0.44685165E+03</rscale>
<asrwt>0</asrwt>
<pdfrwt beam="1">  1        1 0.13799458E+00 0.44685165E+03</pdfrwt>
<pdfrwt beam="2">  1       -1 0.34248417E-01 0.44685165E+03</pdfrwt>
<totfact> 0.15391811E+02</totfact>
</mgrwt>
</event>
<event>
 6    1  0.8861680E-004  0.4597011E+03  0.7818608E-02  0.1024868E+00
          2   -1    0    0  502    0  0.00000000000E+00  0.00000000000E+00  0.22737975784E+04  0.22737975784E+04  0.00000000000E+00 0. -1.
         -2   -1    0    0    0  501 -0.00000000000E+00 -0.00000000000E+00 -0.93483940184E+02  0.93483940184E+02  0.00000000000E+00 0.  1.
    9000007    2    1    2  502    0  0.22253535554E+03  0.43030178695E+02  0.11803791474E+04  0.12667168605E+04  0.39987884698E+03 0.  0.
    9000005    1    3    3    0    0  0.13196835409E+03  0.18769807509E+03  0.96502999141E+03  0.99193250687E+03  0.99999687468E+00 0.  0.
          4    1    3    3  502    0  0.90567001456E+02 -0.14466789640E+03  0.21534915597E+03  0.27478435359E+03  0.00000000000E+00 0.  1.
   -9000007    1    1    2    0  501 -0.22253535554E+03 -0.43030178695E+02  0.99993449085E+03  0.11005646581E+04  0.40000000000E+03 0.  1.
<mgrwt>
<rscale>  2 0.45970112E+03</rscale>
<asrwt>0</asrwt>
<pdfrwt beam="1">  1        2 0.34981497E+00 0.45970112E+03</pdfrwt>
<pdfrwt beam="2">  1       -2 0.14382146E-01 0.45970112E+03</pdfrwt>
<totfact> 0.18862543E+02</totfact>
</mgrwt>
</event>
<event>
 6    1  0.8861680E-004  0.4360151E+03  0.7818608E-02  0.1031977E+00
         -3   -1    0    0    0  501 -0.00000000000E+00  0.00000000000E+00  0.92964817045E+03  0.92964817045E+03  0.00000000000E+00 0.  1.
          3   -1    0    0  502    0  0.00000000000E+00 -0.00000000000E+00 -0.27104988421E+03  0.27104988421E+03  0.00000000000E+00 0. -1.
    9000007    2    1    2  502    0 -0.99232029539E+02 -0.14179410760E+03  0.31915685329E+02  0.43736087692E+03  0.40039150972E+03 0.  0.
    9000005    1    3    3    0    0  0.13246321567E+03 -0.10072665858E+02 -0.72229198155E+02  0.15121514198E+03  0.99999687468E+00 0.  0.
          4    1    3    3  502    0 -0.23169524521E+03 -0.13172144174E+03  0.10414488348E+03  0.28614573494E+03  0.00000000000E+00 0.  1.
   -9000007    1    1    2    0  501  0.99232029539E+02  0.14179410760E+03  0.62668260092E+03  0.76333717775E+03  0.40000000000E+03 0.  1.
<mgrwt>
<rscale>  2 0.43601512E+03</rscale>
<asrwt>0</asrwt>
<pdfrwt beam="1">  1        3 0.41699983E-01 0.43601512E+03</pdfrwt>
<pdfrwt beam="2">  1       -3 0.14302279E+00 0.43601512E+03</pdfrwt>
<totfact> 0.54666910E+00</totfact>
</mgrwt>
</event>
<event>
 6    1  0.8861680E-004  0.7358857E+03  0.7818608E-02  0.9657757E-01
          2   -1    0    0  502    0  0.00000000000E+00  0.00000000000E+00  0.26111133092E+04  0.26111133092E+04  0.00000000000E+00 0. -1.
         -2   -1    0    0    0  501 -0.00000000000E+00 -0.00000000000E+00 -0.20852384992E+03  0.20852384992E+03  0.00000000000E+00 0.  1.
    9000007    2    1    2  502    0 -0.52716243872E+03 -0.32088828840E+03  0.13058202782E+04  0.14991175012E+04  0.40164306661E+03 0.  0.
    9000005    1    3    3    0    0 -0.36269540330E+03 -0.33837686406E+03  0.12105770215E+04  0.13082601357E+04  0.99999687468E+00 0.  0.
          4    1    3    3  502    0 -0.16446703542E+03  0.17488575662E+02  0.95243256773E+02  0.19085736554E+03  0.00000000000E+00 0.  1.
   -9000007    1    1    2    0  501  0.52716243872E+03  0.32088828840E+03  0.10967691810E+04  0.13205196579E+04  0.40000000000E+03 0.  1.
<mgrwt>
<rscale>  2 0.73588566E+03</rscale>
<asrwt>0</asrwt>
<pdfrwt beam="1">  1        2 0.40170972E+00 0.73588566E+03</pdfrwt>
<pdfrwt beam="2">  1       -2 0.32080594E-01 0.73588566E+03</pdfrwt>
<totfact> 0.28419266E+01</totfact>
</mgrwt>
</event>
<event>
 6    1  0.8861680E-004  0.8065716E+03  0.7818608E-02  0.9550553E-01
         -2   -1    0    0    0  501 -0.00000000000E+00  0.00000000000E+00  0.21514597962E+03  0.21514597962E+03  0.00000000000E+00 0.  1.
          2   -1    0    0  502    0  0.00000000000E+00 -0.00000000000E+00 -0.30533398225E+04  0.30533398225E+04  0.00000000000E+00 0. -1.
    9000007    2    1    2  502    0  0.20231888621E+02  0.69845957235E+03 -0.15823147238E+04  0.17766790233E+04  0.40572572419E+03 0.  0.
    9000005    1    3    3    0    0  0.90519853031E+02  0.14277809307E+03 -0.11069929259E+03  0.20207612681E+03  0.99999687468E+00 0.  0.
          4    1    3    3  502    0 -0.70287964409E+02  0.55568147927E+03 -0.14716154312E+04  0.15746028965E+04  0.00000000000E+00 0.  1.
   -9000007    1    1    2    0  501 -0.20231888621E+02 -0.69845957235E+03 -0.12558791191E+04  0.14918067788E+04  0.40000000000E+03 0. -1.
<mgrwt>
<rscale>  2 0.80657157E+03</rscale>
<asrwt>0</asrwt>
<pdfrwt beam="1">  1        2 0.46974458E+00 0.80657157E+03</pdfrwt>
<pdfrwt beam="2">  1       -2 0.33099382E-01 0.80657157E+03</pdfrwt>
<totfact> 0.14453947E+01</totfact>
</mgrwt>
</event>
<event>
 6    1  0.8861680E-004  0.8041843E+03  0.7818608E-02  0.9553980E-01
          3   -1    0    0  502    0  0.00000000000E+00  0.00000000000E+00  0.12178345930E+04  0.12178345930E+04  0.00000000000E+00 0. -1.
         -3   -1    0    0    0  501 -0.00000000000E+00 -0.00000000000E+00 -0.53219431788E+03  0.53219431788E+03  0.00000000000E+00 0.  1.
    9000007    2    1    2  502    0 -0.76021845704E+02 -0.69365875436E+03  0.38360364940E+03  0.89086192371E+03  0.39942636214E+03 0.  0.
    9000005    1    3    3    0    0 -0.19328447701E+03 -0.20122298602E+03  0.23077992451E+03  0.36209108344E+03  0.99999687468E+00 0.  0.
          4    1    3    3  502    0  0.11726263131E+03 -0.49243576833E+03  0.15282372489E+03  0.52877084027E+03  0.00000000000E+00 0.  1.
   -9000007    1    1    2    0  501  0.76021845704E+02  0.69365875436E+03  0.30203662568E+03  0.85916698713E+03  0.40000000000E+03 0.  1.
<mgrwt>
<rscale>  2 0.80418434E+03</rscale>
<asrwt>0</asrwt>
<pdfrwt beam="1">  1        3 0.18735917E+00 0.80418434E+03</pdfrwt>
<pdfrwt beam="2">  1       -3 0.81876049E-01 0.80418434E+03</pdfrwt>
<totfact> 0.63590940E-01</totfact>
</mgrwt>
</event>
<event>
 6    1  0.8861680E-004  0.7928634E+03  0.7818608E-02  0.9570405E-01
          1   -1    0    0  502    0  0.00000000000E+00  0.00000000000E+00  0.10331208106E+04  0.10331208106E+04  0.00000000000E+00 0.  1.
         -1   -1    0    0    0  501 -0.00000000000E+00 -0.00000000000E+00 -0.63364478892E+03  0.63364478892E+03  0.00000000000E+00 0. -1.
    9000007    2    1    2  502    0  0.67921252554E+03  0.85925044637E+02  0.36580912738E+03  0.87313707944E+03  0.39979904161E+03 0.  0.
    9000005    1    3    3    0    0  0.40694492816E+03 -0.13523374818E+03  0.12162593876E+03  0.44574231365E+03  0.99999687468E+00 0.  0.
          4    1    3    3  502    0  0.27226759737E+03  0.22115879281E+03  0.24418318862E+03  0.42739476579E+03  0.00000000000E+00 0.  1.
   -9000007    1    1    2    0  501 -0.67921252554E+03 -0.85925044637E+02  0.33666894327E+02  0.79362852010E+03  0.40000000000E+03 0. -1.
<mgrwt>
<rscale>  2 0.79286342E+03</rscale>
<asrwt>0</asrwt>
<pdfrwt beam="1">  1        1 0.15894166E+00 0.79286342E+03</pdfrwt>
<pdfrwt beam="2">  1       -1 0.97483814E-01 0.79286342E+03</pdfrwt>
<totfact> 0.14769997E+01</totfact>
</mgrwt>
</event>
<event>
 6    1  0.8861680E-004  0.9470680E+03  0.7818608E-02  0.9368584E-01
          2   -1    0    0  502    0  0.00000000000E+00  0.00000000000E+00  0.76374223969E+03  0.76374223969E+03  0.00000000000E+00 0. -1.
         -2   -1    0    0    0  501 -0.00000000000E+00 -0.00000000000E+00 -0.13277824979E+04  0.13277824979E+04  0.00000000000E+00 0.  1.
    9000007    2    1    2  502    0  0.82619624938E+03  0.23415149427E+03 -0.63738647118E+03  0.11413632609E+04  0.39877489267E+03 0.  0.
    9000005    1    3    3    0    0  0.43430601449E+03  0.41397623151E+02 -0.97656418373E+02  0.44707186611E+03  0.99999687468E+00 0.  0.
          4    1    3    3  502    0  0.39189023489E+03  0.19275387112E+03 -0.53973005280E+03  0.69429139483E+03  0.00000000000E+00 0.  1.
   -9000007    1    1    2    0  501 -0.82619624938E+03 -0.23415149427E+03  0.73346212968E+02  0.95016147666E+03  0.40000000000E+03 0. -1.
<mgrwt>
<rscale>  2 0.94706797E+03</rscale>
<asrwt>0</asrwt>
<pdfrwt beam="1">  1        2 0.11749881E+00 0.94706797E+03</pdfrwt>
<pdfrwt beam="2">  1       -2 0.20427423E+00 0.94706797E+03</pdfrwt>
<totfact> 0.45612962E+00</totfact>
</mgrwt>
</event>
<event>
 6    1  0.8861680E-004  0.4010112E+03  0.7818608E-02  0.1043430E+00
         -1   -1    0    0    0  501 -0.00000000000E+00  0.00000000000E+00  0.20624252037E+03  0.20624252037E+03  0.00000000000E+00 0. -1.
          1   -1    0    0  502    0  0.00000000000E+00 -0.00000000000E+00 -0.12812676552E+04  0.12812676552E+04  0.00000000000E+00 0.  1.
    9000007    2    1    2  502    0 -0.21703115941E+02  0.15691715411E+02 -0.10029455563E+04  0.10801863231E+04  0.40023174365E+03 0.  0.
    9000005    1    3    3    0    0 -0.15645578173E+03 -0.11878942968E+03 -0.36585291404E+03  0.41525738397E+03  0.99999687468E+00 0.  0.
          4    1    3    3  502    0  0.13475266579E+03  0.13448114509E+03 -0.63709264221E+03  0.66492893912E+03  0.00000000000E+00 0.  1.
   -9000007    1    1    2    0  501  0.21703115941E+02 -0.15691715411E+02 -0.72079578620E+02  0.40732385252E+03  0.40000000000E+03 0. -1.
<mgrwt>
<rscale>  2 0.40101116E+03</rscale>
<asrwt>0</asrwt>
<pdfrwt beam="1">  1        1 0.19711810E+00 0.40101116E+03</pdfrwt>
<pdfrwt beam="2">  1       -1 0.31729618E-01 0.40101116E+03</pdfrwt>
<totfact> 0.91919066E+01</totfact>
</mgrwt>
</event>
<event>
 6    1  0.8861680E-004  0.5343591E+03  0.7818608E-02  0.1005180E+00
          2   -1    0    0  502    0  0.00000000000E+00  0.00000000000E+00  0.27750195959E+04  0.27750195959E+04  0.00000000000E+00 0. -1.
         -2   -1    0    0    0  501 -0.00000000000E+00 -0.00000000000E+00 -0.11077470081E+03  0.11077470081E+03  0.00000000000E+00 0.  1.
    9000007    2    1    2  502    0  0.13535277565E+03  0.32757223890E+03  0.94714435923E+03  0.10874455553E+04  0.39978926057E+03 0.  0.
    9000005    1    3    3    0    0  0.25604242446E+03  0.17012525718E+03  0.73654565772E+03  0.79812331889E+03  0.99999687468E+00 0.  0.
          4    1    3    3  502    0 -0.12068964881E+03  0.15744698172E+03  0.21059870151E+03  0.28932223637E+03  0.00000000000E+00 0.  1.
   -9000007    1    1    2    0  501 -0.13535277565E+03 -0.32757223890E+03  0.17171005358E+04  0.17983487414E+04  0.40000000000E+03 0. -1.
<mgrwt>
<rscale>  2 0.53435911E+03</rscale>
<asrwt>0</asrwt>
<pdfrwt beam="1">  1        2 0.42692604E+00 0.53435911E+03</pdfrwt>
<pdfrwt beam="2">  1       -2 0.17042264E-01 0.53435911E+03</pdfrwt>
<totfact> 0.73082284E+01</totfact>
</mgrwt>
</event>
<event>
 6    1  0.8861680E-004  0.4318942E+03  0.7818608E-02  0.1033263E+00
         -2   -1    0    0    0  501 -0.00000000000E+00  0.00000000000E+00  0.28109503914E+03  0.28109503914E+03  0.00000000000E+00 0.  1.
          2   -1    0    0  502    0  0.00000000000E+00 -0.00000000000E+00 -0.90439736701E+03  0.90439736701E+03  0.00000000000E+00 0. -1.
    9000007    2    1    2  502    0 -0.15964567804E+03  0.35333857754E+02 -0.56679405030E+01  0.43169703573E+03  0.39949340556E+03 0.  0.
    9000005    1    3    3    0    0 -0.11924932412E+03  0.15990060097E+02 -0.19938123661E+03  0.23287327204E+03  0.99999687468E+00 0.  0.
          4    1    3    3  502    0 -0.40396353917E+02  0.19343797657E+02  0.19371329611E+03  0.19882376369E+03  0.00000000000E+00 0.  1.
   -9000007    1    1    2    0  501  0.15964567804E+03 -0.35333857754E+02 -0.61763438736E+03  0.75379537042E+03  0.40000000000E+03 0. -1.
<mgrwt>
<rscale>  2 0.43189421E+03</rscale>
<asrwt>0</asrwt>
<pdfrwt beam="1">  1        2 0.13913805E+00 0.43189421E+03</pdfrwt>
<pdfrwt beam="2">  1       -2 0.43245391E-01 0.43189421E+03</pdfrwt>
<totfact> 0.15311478E+02</totfact>
</mgrwt>
</event>
<event>
 6    1  0.8861680E-004  0.4385529E+03  0.7818608E-02  0.1031192E+00
          2   -1    0    0  502    0  0.00000000000E+00  0.00000000000E+00  0.23727841173E+03  0.23727841173E+03  0.00000000000E+00 0.  1.
         -2   -1    0    0    0  501 -0.00000000000E+00 -0.00000000000E+00 -0.86466029421E+03  0.86466029421E+03  0.00000000000E+00 0. -1.
    9000007    2    1    2  502    0 -0.15024061051E+03  0.98102748554E+02 -0.17597578537E+03  0.47268211692E+03  0.40033050883E+03 0.  0.
    9000005    1    3    3    0    0 -0.32840158645E+02  0.17600531233E+03 -0.25466141302E+03  0.31130335890E+03  0.99999687468E+00 0.  0.
          4    1    3    3  502    0 -0.11740045186E+03 -0.77902563777E+02  0.78685627648E+02  0.16137875802E+03  0.00000000000E+00 0.  1.
   -9000007    1    1    2    0  501  0.15024061051E+03 -0.98102748554E+02 -0.45140609710E+03  0.62925658902E+03  0.40000000000E+03 0. -1.
<mgrwt>
<rscale>  2 0.43855285E+03</rscale>
<asrwt>0</asrwt>
<pdfrwt beam="1">  1        2 0.36504371E-01 0.43855285E+03</pdfrwt>
<pdfrwt beam="2">  1       -2 0.13302466E+00 0.43855285E+03</pdfrwt>
<totfact> 0.60258145E+01</totfact>
</mgrwt>
</event>
<event>
 6    1  0.8861680E-004  0.4458642E+03  0.7818608E-02  0.1028963E+00
         -1   -1    0    0    0  501 -0.00000000000E+00  0.00000000000E+00  0.12334040201E+03  0.12334040201E+03  0.00000000000E+00 0.  1.
          1   -1    0    0  502    0  0.00000000000E+00 -0.00000000000E+00 -0.19249770135E+04  0.19249770135E+04  0.00000000000E+00 0. -1.
    9000007    2    1    2  502    0 -0.58231286288E+02  0.19654121730E+03 -0.48170792029E+03  0.65396054489E+03  0.39192160057E+03 0.  0.
    9000005    1    3    3    0    0  0.68259590028E+02  0.61415004538E+02 -0.45828293642E+03  0.46739215250E+03  0.99999687468E+00 0.  0.
          4    1    3    3  502    0 -0.12649087632E+03  0.13512621276E+03 -0.23424983868E+02  0.18656839238E+03  0.00000000000E+00 0.  1.
   -9000007    1    1    2    0  501  0.58231286288E+02 -0.19654121730E+03 -0.13199286912E+04  0.13943568706E+04  0.40000000000E+03 0. -1.
<mgrwt>
<rscale>  2 0.44586418E+03</rscale>
<asrwt>0</asrwt>
<pdfrwt beam="1">  1        1 0.29615033E+00 0.44586418E+03</pdfrwt>
<pdfrwt beam="2">  1       -1 0.18975445E-01 0.44586418E+03</pdfrwt>
<totfact> 0.80289536E+01</totfact>
</mgrwt>
</event>
<event>
 6    1  0.8861680E-004  0.7591568E+03  0.7818608E-02  0.9621093E-01
         -1   -1    0    0    0  501 -0.00000000000E+00  0.00000000000E+00  0.31942122947E+03  0.31942122947E+03  0.00000000000E+00 0.  1.
          1   -1    0    0  502    0  0.00000000000E+00 -0.00000000000E+00 -0.18084639397E+04  0.18084639397E+04  0.00000000000E+00 0. -1.
    9000007    2    1    2  502    0 -0.12723345027E+03  0.63225743394E+03 -0.69347275010E+03  0.10283992097E+04  0.40095219882E+03 0.  0.
    9000005    1    3    3    0    0 -0.12680181911E+03  0.12000572172E+03 -0.10816494415E+02  0.17492304342E+03  0.99999687468E+00 0.  0.
          4    1    3    3  502    0 -0.43163116453E+00  0.51225171222E+03 -0.68265625568E+03  0.85347616628E+03  0.00000000000E+00 0.  1.
   -9000007    1    1    2    0  501  0.12723345027E+03 -0.63225743394E+03 -0.79556996017E+03  0.10994859595E+04  0.40000000000E+03 0. -1.
<mgrwt>
<rscale>  2 0.75915678E+03</rscale>
<asrwt>0</asrwt>
<pdfrwt beam="1">  1        1 0.27822522E+00 0.75915678E+03</pdfrwt>
<pdfrwt beam="2">  1       -1 0.49141728E-01 0.75915678E+03</pdfrwt>
<totfact> 0.17313948E+01</totfact>
</mgrwt>
</event>
<event>
 6    1  0.8861680E-004  0.3996788E+03  0.7818608E-02  0.1043891E+00
         -2   -1    0    0    0  501 -0.00000000000E+00  0.00000000000E+00  0.31272124701E+03  0.31272124701E+03  0.00000000000E+00 0.  1.
          2   -1    0    0  502    0  0.00000000000E+00 -0.00000000000E+00 -0.63086329114E+03  0.63086329114E+03  0.00000000000E+00 0. -1.
    9000007    2    1    2  502    0 -0.24547403705E+01 -0.48472980589E+01 -0.36476156298E+03  0.54084032456E+03  0.39928403022E+03 0.  0.
    9000005    1    3    3    0    0  0.18695379065E+03 -0.39869517249E+02 -0.25644862807E+03  0.31985652576E+03  0.99999687468E+00 0.  0.
          4    1    3    3  502    0 -0.18940853102E+03  0.35022219190E+02 -0.10831293492E+03  0.22098379879E+03  0.00000000000E+00 0.  1.
   -9000007    1    1    2    0  501  0.24547403705E+01  0.48472980589E+01  0.46619518856E+02  0.40274421360E+03  0.40000000000E+03 0.  1.
<mgrwt>
<rscale>  2 0.39967879E+03</rscale>
<asrwt>0</asrwt>
<pdfrwt beam="1">  1        2 0.97055890E-01 0.39967879E+03</pdfrwt>
<pdfrwt beam="2">  1       -2 0.48110961E-01 0.39967879E+03</pdfrwt>
<totfact> 0.19685831E+02</totfact>
</mgrwt>
</event>
<event>
 6    1  0.8861680E-004  0.6544147E+03  0.7818608E-02  0.9798530E-01
          2   -1    0    0  502    0  0.00000000000E+00  0.00000000000E+00  0.21217418053E+04  0.21217418053E+04  0.00000000000E+00 0.  1.
         -2   -1    0    0    0  501 -0.00000000000E+00 -0.00000000000E+00 -0.47095028014E+03  0.47095028014E+03  0.00000000000E+00 0. -1.
    9000007    2    1    2  502    0  0.51087908210E+03  0.79789475530E+02  0.18056976318E+04  0.19208589969E+04  0.40223320557E+03 0.  0.
    9000005    1    3    3    0    0  0.33502996316E+03  0.85769691913E+02  0.52848982076E+03  0.63158847908E+03  0.99999687468E+00 0.  0.
          4    1    3    3  502    0  0.17584911894E+03 -0.59802163835E+01  0.12772078110E+04  0.12892705178E+04  0.00000000000E+00 0.  1.
   -9000007    1    1    2    0  501 -0.51087908210E+03 -0.79789475530E+02 -0.15490610665E+03  0.67183308850E+03  0.40000000000E+03 0. -1.
<mgrwt>
<rscale>  2 0.65441473E+03</rscale>
<asrwt>0</asrwt>
<pdfrwt beam="1">  1        2 0.32642181E+00 0.65441473E+03</pdfrwt>
<pdfrwt beam="2">  1       -2 0.72453891E-01 0.65441473E+03</pdfrwt>
<totfact> 0.10389490E+01</totfact>
</mgrwt>
</event>
<event>
 6    1  0.8861680E-004  0.4175649E+03  0.7818608E-02  0.1037862E+00
         -1   -1    0    0    0  501 -0.00000000000E+00  0.00000000000E+00  0.44126482119E+03  0.44126482119E+03  0.00000000000E+00 0.  1.
          1   -1    0    0  502    0  0.00000000000E+00 -0.00000000000E+00 -0.40210959484E+03  0.40210959484E+03  0.00000000000E+00 0. -1.
    9000007    2    1    2  502    0  0.95073859497E+01 -0.12087059617E+03  0.75082421244E+02  0.42386177648E+03  0.39915077875E+03 0.  0.
    9000005    1    3    3    0    0  0.44518215334E+02 -0.16930264729E+03 -0.12495943886E+03  0.21508398181E+03  0.99999687468E+00 0.  0.
          4    1    3    3  502    0 -0.35010829384E+02  0.48432051126E+02  0.20004186011E+03  0.20877779467E+03  0.00000000000E+00 0.  1.
   -9000007    1    1    2    0  501 -0.95073859497E+01  0.12087059617E+03 -0.35927194893E+02  0.41951263955E+03  0.40000000000E+03 0. -1.
<mgrwt>
<rscale>  2 0.41756489E+03</rscale>
<asrwt>0</asrwt>
<pdfrwt beam="1">  1        1 0.61863015E-01 0.41756489E+03</pdfrwt>
<pdfrwt beam="2">  1       -1 0.67886896E-01 0.41756489E+03</pdfrwt>
<totfact> 0.13625869E+02</totfact>
</mgrwt>
</event>
<event>
 6    1  0.8861680E-004  0.4886905E+03  0.7818608E-02  0.1016774E+00
          2   -1    0    0  502    0  0.00000000000E+00  0.00000000000E+00  0.17932282594E+04  0.17932282594E+04  0.00000000000E+00 0. -1.
         -2   -1    0    0    0  501 -0.00000000000E+00 -0.00000000000E+00 -0.13356600544E+03  0.13356600544E+03  0.00000000000E+00 0.  1.
    9000007    2    1    2  502    0 -0.28055431667E+03 -0.12787187486E+02  0.88166380330E+03  0.10080147342E+04  0.39986048252E+03 0.  0.
    9000005    1    3    3    0    0  0.84062312611E+02 -0.36043049172E+02  0.35795054327E+03  0.36945252092E+03  0.99999687468E+00 0.  0.
          4    1    3    3  502    0 -0.36461662928E+03  0.23255861687E+02  0.52371326003E+03  0.63856221324E+03  0.00000000000E+00 0.  1.
   -9000007    1    1    2    0  501  0.28055431667E+03  0.12787187486E+02  0.77799845067E+03  0.91877953069E+03  0.40000000000E+03 0.  1.
<mgrwt>
<rscale>  2 0.48869053E+03</rscale>
<asrwt>0</asrwt>
<pdfrwt beam="1">  1        2 0.27588125E+00 0.48869053E+03</pdfrwt>
<pdfrwt beam="2">  1       -2 0.20548618E-01 0.48869053E+03</pdfrwt>
<totfact> 0.18567755E+02</totfact>
</mgrwt>
</event>
<event>
 6    1  0.8861680E-004  0.4897227E+03  0.7818608E-02  0.1016497E+00
          1   -1    0    0  502    0  0.00000000000E+00  0.00000000000E+00  0.12271922260E+04  0.12271922260E+04  0.00000000000E+00 0. -1.
         -1   -1    0    0    0  501 -0.00000000000E+00 -0.00000000000E+00 -0.19867493920E+03  0.19867493920E+03  0.00000000000E+00 0.  1.
    9000007    2    1    2  502    0  0.27861863574E+03  0.47812016614E+02  0.60530166912E+03  0.77854514937E+03  0.39978507457E+03 0.  0.
    9000005    1    3    3    0    0  0.18230292294E+02  0.39797782318E+02  0.49286354295E+03  0.49480468773E+03  0.99999687468E+00 0.  0.
          4    1    3    3  502    0  0.26038834345E+03  0.80142342956E+01  0.11243812617E+03  0.28374046164E+03  0.00000000000E+00 0.  1.
   -9000007    1    1    2    0  501 -0.27861863574E+03 -0.47812016614E+02  0.42321561763E+03  0.64732201578E+03  0.40000000000E+03 0.  1.
<mgrwt>
<rscale>  2 0.48972275E+03</rscale>
<asrwt>0</asrwt>
<pdfrwt beam="1">  1        1 0.18879880E+00 0.48972275E+03</pdfrwt>
<pdfrwt beam="2">  1       -1 0.30565376E-01 0.48972275E+03</pdfrwt>
<totfact> 0.10565044E+02</totfact>
</mgrwt>
</event>
<event>
 6    1  0.8861680E-004  0.4642543E+03  0.7818608E-02  0.1023555E+00
         -3   -1    0    0    0  501 -0.00000000000E+00  0.00000000000E+00  0.30848848945E+03  0.30848848945E+03  0.00000000000E+00 0. -1.
          3   -1    0    0  502    0  0.00000000000E+00 -0.00000000000E+00 -0.70026523503E+03  0.70026523503E+03  0.00000000000E+00 0.  1.
    9000007    2    1    2  502    0 -0.51276056347E+02 -0.22981081711E+03 -0.17186603083E+03  0.49513619356E+03  0.40022452699E+03 0.  0.
    9000005    1    3    3    0    0  0.10443175488E+03  0.54749873476E+02  0.17992842575E+02  0.11928236437E+03  0.99999687468E+00 0.  0.
          4    1    3    3  502    0 -0.15570781122E+03 -0.28456069058E+03 -0.18985887341E+03  0.37585382918E+03  0.00000000000E+00 0.  1.
   -9000007    1    1    2    0  501  0.51276056347E+02  0.22981081711E+03 -0.21991071475E+03  0.51361753093E+03  0.40000000000E+03 0.  1.
<mgrwt>
<rscale>  2 0.46425431E+03</rscale>
<asrwt>0</asrwt>
<pdfrwt beam="1">  1        3 0.10773311E+00 0.46425431E+03</pdfrwt>
<pdfrwt beam="2">  1       -3 0.47459768E-01 0.46425431E+03</pdfrwt>
<totfact> 0.84530133E+00</totfact>
</mgrwt>
</event>
<event>
 6    1  0.8861680E-004  0.4076621E+03  0.7818608E-02  0.1041158E+00
          2   -1    0    0  502    0  0.00000000000E+00  0.00000000000E+00  0.60397224161E+03  0.60397224161E+03  0.00000000000E+00 0. -1.
         -2   -1    0    0    0  501 -0.00000000000E+00 -0.00000000000E+00 -0.47705093896E+03  0.47705093896E+03  0.00000000000E+00 0.  1.
    9000007    2    1    2  502    0  0.40748733228E+02 -0.65920507375E+02  0.41510763656E+03  0.58196673526E+03  0.40045593824E+03 0.  0.
    9000005    1    3    3    0    0  0.77237751516E+02 -0.22502051979E+03  0.29673694672E+03  0.38033369576E+03  0.99999687468E+00 0.  0.
          4    1    3    3  502    0 -0.36489018288E+02  0.15910001242E+03  0.11837068984E+03  0.20163303950E+03  0.00000000000E+00 0.  1.
   -9000007    1    1    2    0  501 -0.40748733228E+02  0.65920507375E+02 -0.28818633390E+03  0.49905644531E+03  0.40000000000E+03 0.  1.
<mgrwt>
<rscale>  2 0.40766206E+03</rscale>
<asrwt>0</asrwt>
<pdfrwt beam="1">  1        2 0.92918806E-01 0.40766206E+03</pdfrwt>
<pdfrwt beam="2">  1       -2 0.73392453E-01 0.40766206E+03</pdfrwt>
<totfact> 0.85721474E+01</totfact>
</mgrwt>
</event>
<event>
 6    1  0.8861680E-004  0.4596856E+03  0.7818608E-02  0.1024872E+00
         -2   -1    0    0    0  501 -0.00000000000E+00  0.00000000000E+00  0.28907576380E+03  0.28907576380E+03  0.00000000000E+00 0. -1.
          2   -1    0    0  502    0  0.00000000000E+00 -0.00000000000E+00 -0.77427956420E+03  0.77427956420E+03  0.00000000000E+00 0.  1.
    9000007    2    1    2  502    0  0.17438406050E+03  0.14207358012E+03 -0.36870672564E+03  0.58989332197E+03  0.40178947105E+03 0.  0.
    9000005    1    3    3    0    0 -0.13174259074E+03  0.37665240467E+02 -0.10973401221E+03  0.17554866557E+03  0.99999687468E+00 0.  0.
          4    1    3    3  502    0  0.30612665124E+03  0.10440833965E+03 -0.25897271343E+03  0.41434465640E+03  0.00000000000E+00 0.  1.
   -9000007    1    1    2    0  501 -0.17438406050E+03 -0.14207358012E+03 -0.11649707476E+03  0.47346200603E+03  0.40000000000E+03 0. -1.
<mgrwt>
<rscale>  2 0.45968563E+03</rscale>
<asrwt>0</asrwt>
<pdfrwt beam="1">  1        2 0.11911993E+00 0.45968563E+03</pdfrwt>
<pdfrwt beam="2">  1       -2 0.44473195E-01 0.45968563E+03</pdfrwt>
<totfact> 0.17762554E+02</totfact>
</mgrwt>
</event>
<event>
 6    1  0.8861680E-004  0.4244623E+03  0.7818608E-02  0.1035624E+00
         -1   -1    0    0    0  501 -0.00000000000E+00  0.00000000000E+00  0.78680409118E+02  0.78680409118E+02  0.00000000000E+00 0. -1.
          1   -1    0    0  502    0  0.00000000000E+00 -0.00000000000E+00 -0.23524877895E+04  0.23524877895E+04  0.00000000000E+00 0.  1.
    9000007    2    1    2  502    0 -0.10226927370E+03  0.98119615738E+02 -0.13354698119E+04  0.14013313883E+04  0.40020442048E+03 0.  0.
    9000005    1    3    3    0    0 -0.99015461512E+02  0.24829008093E+03 -0.97104213855E+03  0.10071622812E+04  0.99999687468E+00 0.  0.
          4    1    3    3  502    0 -0.32538121867E+01 -0.15017046519E+03 -0.36442767330E+03  0.39416910708E+03  0.00000000000E+00 0.  1.
   -9000007    1    1    2    0  501  0.10226927370E+03 -0.98119615738E+02 -0.93833756850E+03  0.10298368103E+04  0.40000000000E+03 0.  1.
<mgrwt>
<rscale>  2 0.42446229E+03</rscale>
<asrwt>0</asrwt>
<pdfrwt beam="1">  1        1 0.36192123E+00 0.42446229E+03</pdfrwt>
<pdfrwt beam="2">  1       -1 0.12104677E-01 0.42446229E+03</pdfrwt>
<totfact> 0.86750925E+01</totfact>
</mgrwt>
</event>
<event>
 6    1  0.8861680E-004  0.5277742E+03  0.7818608E-02  0.1006773E+00
          2   -1    0    0  502    0  0.00000000000E+00  0.00000000000E+00  0.14489935569E+04  0.14489935569E+04  0.00000000000E+00 0. -1.
         -2   -1    0    0    0  501 -0.00000000000E+00 -0.00000000000E+00 -0.24134351986E+03  0.24134351986E+03  0.00000000000E+00 0.  1.
    9000007    2    1    2  502    0 -0.57812822640E+02  0.34203275467E+03  0.98353055215E+03  0.11153951047E+04  0.39553149665E+03 0.  0.
    9000005    1    3    3    0    0 -0.13637086587E+03  0.74470975485E+02  0.90450311252E+02  0.17979209673E+03  0.99999687468E+00 0.  0.
          4    1    3    3  502    0  0.78558043226E+02  0.26756177919E+03  0.89308024090E+03  0.93560300797E+03  0.00000000000E+00 0.  1.
   -9000007    1    1    2    0  501  0.57812822640E+02 -0.34203275467E+03  0.22411948488E+03  0.57494197206E+03  0.40000000000E+03 0.  1.
<mgrwt>
<rscale>  2 0.52777423E+03</rscale>
<asrwt>0</asrwt>
<pdfrwt beam="1">  1        2 0.22292208E+00 0.52777423E+03</pdfrwt>
<pdfrwt beam="2">  1       -2 0.37129773E-01 0.52777423E+03</pdfrwt>
<totfact> 0.96697908E+01</totfact>
</mgrwt>
</event>
<event>
 6    1  0.8861680E-004  0.4053366E+03  0.7818608E-02  0.1041947E+00
         -2   -1    0    0    0  501 -0.00000000000E+00  0.00000000000E+00  0.73835703298E+02  0.73835703298E+02  0.00000000000E+00 0.  1.
          2   -1    0    0  502    0  0.00000000000E+00 -0.00000000000E+00 -0.25637158876E+04  0.25637158876E+04  0.00000000000E+00 0. -1.
    9000007    2    1    2  502    0  0.21537225994E+02  0.61339476872E+02 -0.17243980570E+04  0.17714169185E+04  0.40017853091E+03 0.  0.
    9000005    1    3    3    0    0  0.23681138026E+02  0.17439938605E+03 -0.15710824705E+04  0.15809102035E+04  0.99999687468E+00 0.  0.
          4    1    3    3  502    0 -0.21439120319E+01 -0.11305990918E+03 -0.15331558646E+03  0.19050671503E+03  0.00000000000E+00 0.  1.
   -9000007    1    1    2    0  501 -0.21537225994E+02 -0.61339476872E+02 -0.76548212728E+03  0.86613467239E+03  0.40000000000E+03 0.  1.
<mgrwt>
<rscale>  2 0.40533665E+03</rscale>
<asrwt>0</asrwt>
<pdfrwt beam="1">  1        2 0.39441784E+00 0.40533665E+03</pdfrwt>
<pdfrwt beam="2">  1       -2 0.11359339E-01 0.40533665E+03</pdfrwt>
<totfact> 0.19429087E+02</totfact>
</mgrwt>
</event>
<event>
 6    1  0.8861680E-004  0.4444672E+03  0.7818608E-02  0.1029385E+00
         -1   -1    0    0    0  501 -0.00000000000E+00  0.00000000000E+00  0.42282510043E+03  0.42282510043E+03  0.00000000000E+00 0. -1.
          1   -1    0    0  502    0  0.00000000000E+00 -0.00000000000E+00 -0.71970772433E+03  0.71970772433E+03  0.00000000000E+00 0.  1.
    9000007    2    1    2  502    0  0.18278139984E+03 -0.64922483098E+02 -0.48678691340E+03  0.65912036308E+03  0.39981768974E+03 0.  0.
    9000005    1    3    3    0    0 -0.96469275633E+02 -0.10412351668E+03 -0.76434654069E+02  0.16121812616E+03  0.99999687468E+00 0.  0.
          4    1    3    3  502    0  0.27925067547E+03  0.39201033582E+02 -0.41035225933E+03  0.49790223692E+03  0.00000000000E+00 0.  1.
   -9000007    1    1    2    0  501 -0.18278139984E+03  0.64922483098E+02  0.18990428950E+03  0.48341246168E+03  0.40000000000E+03 0. -1.
<mgrwt>
<rscale>  2 0.44446715E+03</rscale>
<asrwt>0</asrwt>
<pdfrwt beam="1">  1        1 0.11072427E+00 0.44446715E+03</pdfrwt>
<pdfrwt beam="2">  1       -1 0.65050015E-01 0.44446715E+03</pdfrwt>
<totfact> 0.66028189E+01</totfact>
</mgrwt>
</event>
<event>
 6    1  0.8861680E-004  0.4768022E+03  0.7818608E-02  0.1020018E+00
         -2   -1    0    0    0  501 -0.00000000000E+00  0.00000000000E+00  0.40309878465E+03  0.40309878465E+03  0.00000000000E+00 0. -1.
          2   -1    0    0  502    0  0.00000000000E+00 -0.00000000000E+00 -0.59994778277E+03  0.59994778277E+03  0.00000000000E+00 0.  1.
    9000007    2    1    2  502    0 -0.17514488290E+03  0.19114026616E+03 -0.22124610530E+03  0.52575677056E+03  0.40032488222E+03 0.  0.
    9000005    1    3    3    0    0 -0.11587367732E+02  0.76444994476E+02  0.11266761587E+03  0.13664953688E+03  0.99999687468E+00 0.  0.
          4    1    3    3  502    0 -0.16355751517E+03  0.11469527168E+03 -0.33391372116E+03  0.38910723367E+03  0.00000000000E+00 0.  1.
   -9000007    1    1    2    0  501  0.17514488290E+03 -0.19114026616E+03  0.24397107185E+02  0.47728979687E+03  0.40000000000E+03 0.  1.
<mgrwt>
<rscale>  2 0.47680216E+03</rscale>
<asrwt>0</asrwt>
<pdfrwt beam="1">  1        2 0.92299659E-01 0.47680216E+03</pdfrwt>
<pdfrwt beam="2">  1       -2 0.62015198E-01 0.47680216E+03</pdfrwt>
<totfact> 0.12328012E+02</totfact>
</mgrwt>
</event>
<event>
 6    1  0.8861680E-004  0.4030646E+03  0.7818608E-02  0.1042724E+00
          2   -1    0    0  502    0  0.00000000000E+00  0.00000000000E+00  0.83653041406E+03  0.83653041406E+03  0.00000000000E+00 0. -1.
         -2   -1    0    0    0  501 -0.00000000000E+00 -0.00000000000E+00 -0.23373323424E+03  0.23373323424E+03  0.00000000000E+00 0.  1.
    9000007    2    1    2  502    0 -0.16195561698E+02  0.47487326156E+02  0.52141284671E+03  0.65899639694E+03  0.39985941541E+03 0.  0.
    9000005    1    3    3    0    0 -0.19370610837E+03  0.80747531254E+02  0.36036143973E+03  0.41701749059E+03  0.99999687468E+00 0.  0.
          4    1    3    3  502    0  0.17751054667E+03 -0.33260205098E+02  0.16105140698E+03  0.24197890634E+03  0.00000000000E+00 0.  1.
   -9000007    1    1    2    0  501  0.16195561698E+02 -0.47487326156E+02  0.81384333106E+02  0.41126725136E+03  0.40000000000E+03 0.  1.
<mgrwt>
<rscale>  2 0.40306465E+03</rscale>
<asrwt>0</asrwt>
<pdfrwt beam="1">  1        2 0.12869699E+00 0.40306465E+03</pdfrwt>
<pdfrwt beam="2">  1       -2 0.35958960E-01 0.40306465E+03</pdfrwt>
<totfact> 0.24334858E+02</totfact>
</mgrwt>
</event>
<event>
 6    1  0.8861680E-004  0.5011151E+03  0.7818608E-02  0.1013488E+00
         -2   -1    0    0    0  501 -0.00000000000E+00  0.00000000000E+00  0.10372976574E+03  0.10372976574E+03  0.00000000000E+00 0.  1.
          2   -1    0    0  502    0  0.00000000000E+00 -0.00000000000E+00 -0.24314242991E+04  0.24314242991E+04  0.00000000000E+00 0. -1.
    9000007    2    1    2  502    0 -0.27694282898E+03 -0.12208044397E+03 -0.10792292590E+04  0.11896926174E+04  0.39878786971E+03 0.  0.
    9000005    1    3    3    0    0  0.38562789716E+02  0.38573629067E+02 -0.55154738577E+03  0.55423869619E+03  0.99999687468E+00 0.  0.
          4    1    3    3  502    0 -0.31550561870E+03 -0.16065407304E+03 -0.52768187324E+03  0.63545392119E+03  0.00000000000E+00 0.  1.
   -9000007    1    1    2    0  501  0.27694282898E+03  0.12208044397E+03 -0.12484652743E+04  0.13454614474E+04  0.40000000000E+03 0.  1.
<mgrwt>
<rscale>  2 0.50111514E+03</rscale>
<asrwt>0</asrwt>
<pdfrwt beam="1">  1        2 0.37406526E+00 0.50111514E+03</pdfrwt>
<pdfrwt beam="2">  1       -2 0.15958426E-01 0.50111514E+03</pdfrwt>
<totfact> 0.12883426E+02</totfact>
</mgrwt>
</event>
<event>
 6    1  0.8861680E-004  0.4558549E+03  0.7818608E-02  0.1025990E+00
         -1   -1    0    0    0  501 -0.00000000000E+00  0.00000000000E+00  0.20946100011E+03  0.20946100011E+03  0.00000000000E+00 0.  1.
          1   -1    0    0  502    0  0.00000000000E+00 -0.00000000000E+00 -0.16211975419E+04  0.16211975419E+04  0.00000000000E+00 0. -1.
    9000007    2    1    2  502    0  0.15534665846E+03 -0.15400202945E+03 -0.13562701781E+03  0.47555532581E+03  0.39988619703E+03 0.  0.
    9000005    1    3    3    0    0  0.24944812543E+02  0.41748796434E+02  0.11921625393E+03  0.12875838175E+03  0.99999687468E+00 0.  0.
          4    1    3    3  502    0  0.13040184592E+03 -0.19575082589E+03 -0.25484327174E+03  0.34679694406E+03  0.00000000000E+00 0.  1.
   -9000007    1    1    2    0  501 -0.15534665846E+03  0.15400202945E+03 -0.12761095239E+04  0.13551032162E+04  0.40000000000E+03 0. -1.
<mgrwt>
<rscale>  2 0.45585490E+03</rscale>
<asrwt>0</asrwt>
<pdfrwt beam="1">  1        1 0.24941500E+00 0.45585490E+03</pdfrwt>
<pdfrwt beam="2">  1       -1 0.32224770E-01 0.45585490E+03</pdfrwt>
<totfact> 0.52071016E+01</totfact>
</mgrwt>
</event>
<event>
 6    1  0.8861680E-004  0.4850140E+03  0.7818608E-02  0.1017766E+00
          2   -1    0    0  502    0  0.00000000000E+00  0.00000000000E+00  0.36830785922E+03  0.36830785922E+03  0.00000000000E+00 0. -1.
         -2   -1    0    0    0  501 -0.00000000000E+00 -0.00000000000E+00 -0.68134280168E+03  0.68134280168E+03  0.00000000000E+00 0.  1.
    9000007    2    1    2  502    0 -0.22628556657E+02  0.27331231512E+03 -0.25230443520E+02  0.48569755754E+03  0.40006733052E+03 0.  0.
    9000005    1    3    3    0    0 -0.18677980706E+02  0.37886799571E+03 -0.16028801226E+02  0.37966794387E+03  0.99999687468E+00 0.  0.
          4    1    3    3  502    0 -0.39505759510E+01 -0.10555568059E+03 -0.92016422935E+01  0.10602961368E+03  0.00000000000E+00 0.  1.
   -9000007    1    1    2    0  501  0.22628556657E+02 -0.27331231512E+03 -0.28780449894E+03  0.56395310335E+03  0.40000000000E+03 0.  1.
<mgrwt>
<rscale>  2 0.48501403E+03</rscale>
<asrwt>0</asrwt>
<pdfrwt beam="1">  1        2 0.56662747E-01 0.48501403E+03</pdfrwt>
<pdfrwt beam="2">  1       -2 0.10482197E+00 0.48501403E+03</pdfrwt>
<totfact> 0.66280688E+01</totfact>
</mgrwt>
</event>
<event>
 6    1  0.8861680E-004  0.4744102E+03  0.7818608E-02  0.1020683E+00
          2   -1    0    0  502    0  0.00000000000E+00  0.00000000000E+00  0.30821708970E+04  0.30821708970E+04  0.00000000000E+00 0. -1.
         -2   -1    0    0    0  501 -0.00000000000E+00 -0.00000000000E+00 -0.73571161899E+02  0.73571161899E+02  0.00000000000E+00 0.  1.
    9000007    2    1    2  502    0  0.24958434186E+03 -0.63214049290E+02  0.16365579921E+04  0.17035757791E+04  0.39693829976E+03 0.  0.
    9000005    1    3    3    0    0 -0.67302492820E+02  0.41760220272E+02  0.78402270642E+03  0.78801405172E+03  0.99999687468E+00 0.  0.
          4    1    3    3  502    0  0.31688683468E+03 -0.10497426956E+03  0.85253528568E+03  0.91556172735E+03  0.00000000000E+00 0.  1.
   -9000007    1    1    2    0  501 -0.24958434186E+03  0.63214049290E+02  0.13720417430E+04  0.14521662799E+04  0.40000000000E+03 0. -1.
<mgrwt>
<rscale>  2 0.47441022E+03</rscale>
<asrwt>0</asrwt>
<pdfrwt beam="1">  1        2 0.47418004E+00 0.47441022E+03</pdfrwt>
<pdfrwt beam="2">  1       -2 0.11318643E-01 0.47441022E+03</pdfrwt>
<totfact> 0.95894147E+01</totfact>
</mgrwt>
</event>
<event>
 6    1  0.8861680E-004  0.4364270E+03  0.7818608E-02  0.1031849E+00
          2   -1    0    0  502    0  0.00000000000E+00  0.00000000000E+00  0.17000837260E+04  0.17000837260E+04  0.00000000000E+00 0.  1.
         -2   -1    0    0    0  501 -0.00000000000E+00 -0.00000000000E+00 -0.12581313851E+03  0.12581313851E+03  0.00000000000E+00 0. -1.
    9000007    2    1    2  502    0 -0.72407663144E+00  0.17373008357E+03  0.10897823305E+04  0.11740444752E+04  0.40071465630E+03 0.  0.
    9000005    1    3    3    0    0  0.88412644196E+02  0.13163031792E+03  0.11896418492E+03  0.19823423906E+03  0.99999687468E+00 0.  0.
          4    1    3    3  502    0 -0.89136720828E+02  0.42099765654E+02  0.97081814555E+03  0.97581023616E+03  0.00000000000E+00 0.  1.
   -9000007    1    1    2    0  501  0.72407663144E+00 -0.17373008357E+03  0.48448825705E+03  0.65185238930E+03  0.40000000000E+03 0. -1.
<mgrwt>
<rscale>  2 0.43642705E+03</rscale>
<asrwt>0</asrwt>
<pdfrwt beam="1">  1        2 0.26155133E+00 0.43642705E+03</pdfrwt>
<pdfrwt beam="2">  1       -2 0.19355869E-01 0.43642705E+03</pdfrwt>
<totfact> 0.23272580E+02</totfact>
</mgrwt>
</event>
<event>
 6    1  0.8861680E-004  0.3996907E+03  0.7818608E-02  0.1043887E+00
          2   -1    0    0  502    0  0.00000000000E+00  0.00000000000E+00  0.67996767633E+03  0.67996767633E+03  0.00000000000E+00 0. -1.
         -2   -1    0    0    0  501 -0.00000000000E+00 -0.00000000000E+00 -0.23622313187E+03  0.23622313187E+03  0.00000000000E+00 0.  1.
    9000007    2    1    2  502    0  0.21430270340E+01  0.15600542686E+02  0.25526470041E+03  0.47372880858E+03  0.39876176761E+03 0.  0.
    9000005    1    3    3    0    0 -0.91169384457E+02  0.55792339149E+01  0.33707178491E+03  0.34922968472E+03  0.99999687468E+00 0.  0.
          4    1    3    3  502    0  0.93312411491E+02  0.10021308771E+02 -0.81807084497E+02  0.12449912386E+03  0.00000000000E+00 0.  1.
   -9000007    1    1    2    0  501 -0.21430270340E+01 -0.15600542686E+02  0.18847984404E+03  0.44246199962E+03  0.40000000000E+03 0.  1.
<mgrwt>
<rscale>  2 0.39969073E+03</rscale>
<asrwt>0</asrwt>
<pdfrwt beam="1">  1        2 0.10461041E+00 0.39969073E+03</pdfrwt>
<pdfrwt beam="2">  1       -2 0.36342020E-01 0.39969073E+03</pdfrwt>
<totfact> 0.31041445E+02</totfact>
</mgrwt>
</event>
<event>
 6    1  0.8861680E-004  0.4487587E+03  0.7818608E-02  0.1028093E+00
         -2   -1    0    0    0  501 -0.00000000000E+00  0.00000000000E+00  0.71558732989E+02  0.71558732989E+02  0.00000000000E+00 0. -1.
          2   -1    0    0  502    0  0.00000000000E+00 -0.00000000000E+00 -0.30132108022E+04  0.30132108022E+04  0.00000000000E+00 0.  1.
    9000007    2    1    2  502    0 -0.96935233846E+02  0.17944973523E+03 -0.18664262184E+04  0.19195617094E+04  0.39946424172E+03 0.  0.
    9000005    1    3    3    0    0 -0.23092655621E+03  0.18310585481E+03 -0.98969997324E+03  0.10326479872E+04  0.99999687468E+00 0.  0.
          4    1    3    3  502    0  0.13399132236E+03 -0.36561195894E+01 -0.87672624518E+03  0.88691372222E+03  0.00000000000E+00 0.  1.
   -9000007    1    1    2    0  501  0.96935233846E+02 -0.17944973523E+03 -0.10752258508E+04  0.11652078258E+04  0.40000000000E+03 0. -1.
<mgrwt>
<rscale>  2 0.44875870E+03</rscale>
<asrwt>0</asrwt>
<pdfrwt beam="1">  1        2 0.46357083E+00 0.44875870E+03</pdfrwt>
<pdfrwt beam="2">  1       -2 0.11009037E-01 0.44875870E+03</pdfrwt>
<totfact> 0.11111269E+02</totfact>
</mgrwt>
</event>
<event>
 6    1  0.8861680E-004  0.5079486E+03  0.7818608E-02  0.1011725E+00
         -2   -1    0    0    0  501 -0.00000000000E+00  0.00000000000E+00  0.21826581266E+03  0.21826581266E+03  0.00000000000E+00 0. -1.
          2   -1    0    0  502    0  0.00000000000E+00 -0.00000000000E+00 -0.13107493200E+04  0.13107493200E+04  0.00000000000E+00 0.  1.
    9000007    2    1    2  502    0 -0.26765152861E+03 -0.16238889402E+03 -0.30673383835E+03  0.59338163817E+03  0.40001078393E+03 0.  0.
    9000005    1    3    3    0    0 -0.31683367264E+03  0.15766765166E+02 -0.14932863975E+03  0.35061689868E+03  0.99999687468E+00 0.  0.
          4    1    3    3  502    0  0.49182144027E+02 -0.17815565919E+03 -0.15740519861E+03  0.24276473949E+03  0.00000000000E+00 0.  1.
   -9000007    1    1    2    0  501  0.26765152861E+03  0.16238889402E+03 -0.78574966894E+03  0.93563349444E+03  0.40000000000E+03 0. -1.
<mgrwt>
<rscale>  2 0.50794863E+03</rscale>
<asrwt>0</asrwt>
<pdfrwt beam="1">  1        2 0.20165374E+00 0.50794863E+03</pdfrwt>
<pdfrwt beam="2">  1       -2 0.33579356E-01 0.50794863E+03</pdfrwt>
<totfact> 0.14017204E+02</totfact>
</mgrwt>
</event>
<event>
 6    1  0.8861680E-004  0.4843441E+03  0.7818608E-02  0.1017948E+00
         -2   -1    0    0    0  501 -0.00000000000E+00  0.00000000000E+00  0.24351294613E+03  0.24351294613E+03  0.00000000000E+00 0. -1.
          2   -1    0    0  502    0  0.00000000000E+00 -0.00000000000E+00 -0.14362567871E+04  0.14362567871E+04  0.00000000000E+00 0.  1.
    9000007    2    1    2  502    0  0.58347581699E+02  0.26660254087E+03 -0.11452773659E+03  0.49780893742E+03  0.40026963492E+03 0.  0.
    9000005    1    3    3    0    0  0.22660297166E+03  0.10610119515E+03 -0.80228032982E+02  0.26276207422E+03  0.99999687468E+00 0.  0.
          4    1    3    3  502    0 -0.16825538996E+03  0.16050134572E+03 -0.34299703609E+02  0.23504686320E+03  0.00000000000E+00 0.  1.
   -9000007    1    1    2    0  501 -0.58347581699E+02 -0.26660254087E+03 -0.10782161043E+04  0.11819607958E+04  0.40000000000E+03 0.  1.
<mgrwt>
<rscale>  2 0.48434411E+03</rscale>
<asrwt>0</asrwt>
<pdfrwt beam="1">  1        2 0.22096258E+00 0.48434411E+03</pdfrwt>
<pdfrwt beam="2">  1       -2 0.37463530E-01 0.48434411E+03</pdfrwt>
<totfact> 0.97170643E+01</totfact>
</mgrwt>
</event>
<event>
 6    1  0.8861680E-004  0.4867072E+03  0.7818608E-02  0.1017308E+00
         -1   -1    0    0    0  501 -0.00000000000E+00  0.00000000000E+00  0.16699811471E+03  0.16699811471E+03  0.00000000000E+00 0. -1.
          1   -1    0    0  502    0  0.00000000000E+00 -0.00000000000E+00 -0.14983880946E+04  0.14983880946E+04  0.00000000000E+00 0.  1.
    9000007    2    1    2  502    0  0.27321975873E+02 -0.27576508618E+03 -0.47352412905E+03  0.67911713287E+03  0.40022756807E+03 0.  0.
    9000005    1    3    3    0    0 -0.11818124585E+03  0.22642536059E+02 -0.25413491147E+03  0.28118507167E+03  0.99999687468E+00 0.  0.
          4    1    3    3  502    0  0.14550322172E+03 -0.29840762224E+03 -0.21938921759E+03  0.39793206120E+03  0.00000000000E+00 0.  1.
   -9000007    1    1    2    0  501 -0.27321975873E+02  0.27576508618E+03 -0.85786585084E+03  0.98626907645E+03  0.40000000000E+03 0. -1.
<mgrwt>
<rscale>  2 0.48670721E+03</rscale>
<asrwt>0</asrwt>
<pdfrwt beam="1">  1        1 0.23052124E+00 0.48670721E+03</pdfrwt>
<pdfrwt beam="2">  1       -1 0.25692018E-01 0.48670721E+03</pdfrwt>
<totfact> 0.92465482E+01</totfact>
</mgrwt>
</event>
<event>
 6    1  0.8861680E-004  0.4118917E+03  0.7818608E-02  0.1039738E+00
          2   -1    0    0  502    0  0.00000000000E+00  0.00000000000E+00  0.10789366294E+04  0.10789366294E+04  0.00000000000E+00 0. -1.
         -2   -1    0    0    0  501 -0.00000000000E+00 -0.00000000000E+00 -0.15969460023E+03  0.15969460023E+03  0.00000000000E+00 0.  1.
    9000007    2    1    2  502    0  0.26310908337E+02 -0.94171913351E+02  0.53648777986E+03  0.67643782116E+03  0.40023539923E+03 0.  0.
    9000005    1    3    3    0    0  0.86272197070E+02 -0.23208747042E+03  0.41437952095E+03  0.48272028473E+03  0.99999687468E+00 0.  0.
          4    1    3    3  502    0 -0.59961288733E+02  0.13791555707E+03  0.12210825891E+03  0.19371753644E+03  0.00000000000E+00 0.  1.
   -9000007    1    1    2    0  501 -0.26310908337E+02  0.94171913351E+02  0.38275424932E+03  0.56219340848E+03  0.40000000000E+03 0.  1.
<mgrwt>
<rscale>  2 0.41189170E+03</rscale>
<asrwt>0</asrwt>
<pdfrwt beam="1">  1        2 0.16599025E+00 0.41189170E+03</pdfrwt>
<pdfrwt beam="2">  1       -2 0.24568401E-01 0.41189170E+03</pdfrwt>
<totfact> 0.34223241E+02</totfact>
</mgrwt>
</event>
<event>
 6    1  0.8861680E-004  0.5135244E+03  0.7818608E-02  0.1010308E+00
          2   -1    0    0  502    0  0.00000000000E+00  0.00000000000E+00  0.81419465988E+03  0.81419465988E+03  0.00000000000E+00 0. -1.
         -2   -1    0    0    0  501 -0.00000000000E+00 -0.00000000000E+00 -0.35865054880E+03  0.35865054880E+03  0.00000000000E+00 0.  1.
    9000007    2    1    2  502    0 -0.22520067928E+03  0.23684874655E+03  0.44027389318E+02  0.51242209659E+03  0.39220571052E+03 0.  0.
    9000005    1    3    3    0    0 -0.21509801259E+03  0.10605472889E+03  0.19738803398E+03  0.31060875148E+03  0.99999687468E+00 0.  0.
          4    1    3    3  502    0 -0.10102666688E+02  0.13079401767E+03 -0.15336064467E+03  0.20181334511E+03  0.00000000000E+00 0.  1.
   -9000007    1    1    2    0  501  0.22520067928E+03 -0.23684874655E+03  0.41151672176E+03  0.66042311209E+03  0.40000000000E+03 0. -1.
<mgrwt>
<rscale>  2 0.51352435E+03</rscale>
<asrwt>0</asrwt>
<pdfrwt beam="1">  1        2 0.12526072E+00 0.51352435E+03</pdfrwt>
<pdfrwt beam="2">  1       -2 0.55177008E-01 0.51352435E+03</pdfrwt>
<totfact> 0.10713161E+02</totfact>
</mgrwt>
</event>
<event>
 6    1  0.8861680E-004  0.4367576E+03  0.7818608E-02  0.1031746E+00
          1   -1    0    0  502    0  0.00000000000E+00  0.00000000000E+00  0.36421342803E+03  0.36421342803E+03  0.00000000000E+00 0.  1.
         -1   -1    0    0    0  501 -0.00000000000E+00 -0.00000000000E+00 -0.53680195140E+03  0.53680195140E+03  0.00000000000E+00 0. -1.
    9000007    2    1    2  502    0  0.13529876136E+03 -0.10944048070E+03 -0.16156829258E+02  0.43759996258E+03  0.40118538169E+03 0.  0.
    9000005    1    3    3    0    0  0.16295322014E+03 -0.65948626373E+02 -0.18847814811E+03  0.25773627138E+03  0.99999687468E+00 0.  0.
          4    1    3    3  502    0 -0.27654458776E+02 -0.43491854327E+02  0.17232131885E+03  0.17986369121E+03  0.00000000000E+00 0.  1.
   -9000007    1    1    2    0  501 -0.13529876136E+03  0.10944048070E+03 -0.15643169411E+03  0.46341541684E+03  0.40000000000E+03 0. -1.
<mgrwt>
<rscale>  2 0.43675764E+03</rscale>
<asrwt>0</asrwt>
<pdfrwt beam="1">  1        1 0.56032835E-01 0.43675764E+03</pdfrwt>
<pdfrwt beam="2">  1       -1 0.82584916E-01 0.43675764E+03</pdfrwt>
<totfact> 0.10326156E+02</totfact>
</mgrwt>
</event>
<event>
 6    1  0.8861680E-004  0.5428462E+03  0.7818608E-02  0.1003163E+00
          2   -1    0    0  502    0  0.00000000000E+00  0.00000000000E+00  0.12894776548E+04  0.12894776548E+04  0.00000000000E+00 0. -1.
         -2   -1    0    0    0  501 -0.00000000000E+00 -0.00000000000E+00 -0.24055427733E+03  0.24055427733E+03  0.00000000000E+00 0.  1.
    9000007    2    1    2  502    0  0.34800358311E+03  0.11502523488E+03  0.69580395339E+03  0.88270618246E+03  0.40086127837E+03 0.  0.
    9000005    1    3    3    0    0  0.33567719269E+03  0.24124825336E+03  0.49133186049E+03  0.64209648384E+03  0.99999687468E+00 0.  0.
          4    1    3    3  502    0  0.12326390424E+02 -0.12622301848E+03  0.20447209290E+03  0.24060969862E+03  0.00000000000E+00 0.  1.
   -9000007    1    1    2    0  501 -0.34800358311E+03 -0.11502523488E+03  0.35311942410E+03  0.64732574968E+03  0.40000000000E+03 0.  1.
<mgrwt>
<rscale>  2 0.54284618E+03</rscale>
<asrwt>0</asrwt>
<pdfrwt beam="1">  1        2 0.19838117E+00 0.54284618E+03</pdfrwt>
<pdfrwt beam="2">  1       -2 0.37008351E-01 0.54284618E+03</pdfrwt>
<totfact> 0.11940560E+02</totfact>
</mgrwt>
</event>
<event>
 6    1  0.8861680E-004  0.4278522E+03  0.7818608E-02  0.1034541E+00
         -1   -1    0    0    0  501 -0.00000000000E+00  0.00000000000E+00  0.17102502540E+03  0.17102502540E+03  0.00000000000E+00 0. -1.
          1   -1    0    0  502    0  0.00000000000E+00 -0.00000000000E+00 -0.10956774382E+04  0.10956774382E+04  0.00000000000E+00 0.  1.
    9000007    2    1    2  502    0 -0.13994133213E+03  0.61834696830E+02 -0.55817775647E+03  0.70304407422E+03  0.39912586526E+03 0.  0.
    9000005    1    3    3    0    0 -0.30080802915E+02 -0.10446496090E+03  0.17212187345E+01  0.10872784992E+03  0.99999687468E+00 0.  0.
          4    1    3    3  502    0 -0.10986052922E+03  0.16629965773E+03 -0.55989897520E+03  0.59431622431E+03  0.00000000000E+00 0.  1.
   -9000007    1    1    2    0  501  0.13994133213E+03 -0.61834696830E+02 -0.36647465632E+03  0.56365838936E+03  0.40000000000E+03 0. -1.
<mgrwt>
<rscale>  2 0.42785220E+03</rscale>
<asrwt>0</asrwt>
<pdfrwt beam="1">  1        1 0.16856576E+00 0.42785220E+03</pdfrwt>
<pdfrwt beam="2">  1       -1 0.26311542E-01 0.42785220E+03</pdfrwt>
<totfact> 0.17129761E+02</totfact>
</mgrwt>
</event>
<event>
 6    1  0.8861680E-004  0.4634788E+03  0.7818608E-02  0.1023777E+00
          2   -1    0    0  502    0  0.00000000000E+00  0.00000000000E+00  0.20875223657E+04  0.20875223657E+04  0.00000000000E+00 0. -1.
         -2   -1    0    0    0  501 -0.00000000000E+00 -0.00000000000E+00 -0.10290646600E+03  0.10290646600E+03  0.00000000000E+00 0.  1.
    9000007    2    1    2  502    0 -0.10912926964E+03  0.20717485745E+03  0.98603930144E+03  0.10895265465E+04  0.39995496295E+03 0.  0.
    9000005    1    3    3    0    0  0.95554529984E+02 -0.68637395658E+02  0.30176165992E+03  0.32388710946E+03  0.99999687468E+00 0.  0.
          4    1    3    3  502    0 -0.20468379963E+03  0.27581225311E+03  0.68427764153E+03  0.76563943700E+03  0.00000000000E+00 0.  1.
   -9000007    1    1    2    0  501  0.10912926964E+03 -0.20717485745E+03  0.99857659823E+03  0.11009022852E+04  0.40000000000E+03 0. -1.
<mgrwt>
<rscale>  2 0.46347881E+03</rscale>
<asrwt>0</asrwt>
<pdfrwt beam="1">  1        2 0.32115726E+00 0.46347881E+03</pdfrwt>
<pdfrwt beam="2">  1       -2 0.15831766E-01 0.46347881E+03</pdfrwt>
<totfact> 0.20244283E+02</totfact>
</mgrwt>
</event>
<event>
 6    1  0.8861680E-004  0.4082896E+03  0.7818608E-02  0.1040946E+00
         -1   -1    0    0    0  501 -0.00000000000E+00  0.00000000000E+00  0.17898580828E+03  0.17898580828E+03  0.00000000000E+00 0.  1.
          1   -1    0    0  502    0  0.00000000000E+00 -0.00000000000E+00 -0.95525088631E+03  0.95525088631E+03  0.00000000000E+00 0. -1.
    9000007    2    1    2  502    0  0.77609273102E+02 -0.25230595009E+02 -0.29849340909E+03  0.50580567225E+03  0.40010158787E+03 0.  0.
    9000005    1    3    3    0    0 -0.15966076363E+03 -0.23120507418E+02 -0.17607281236E+03  0.23880693573E+03  0.99999687468E+00 0.  0.
          4    1    3    3  502    0  0.23727003673E+03 -0.21100875904E+01 -0.12242059673E+03  0.26699873652E+03  0.00000000000E+00 0.  1.
   -9000007    1    1    2    0  501 -0.77609273102E+02  0.25230595009E+02 -0.47777166894E+03  0.62843102234E+03  0.40000000000E+03 0. -1.
<mgrwt>
<rscale>  2 0.40828962E+03</rscale>
<asrwt>0</asrwt>
<pdfrwt beam="1">  1        1 0.14696168E+00 0.40828962E+03</pdfrwt>
<pdfrwt beam="2">  1       -1 0.27536278E-01 0.40828962E+03</pdfrwt>
<totfact> 0.20279516E+02</totfact>
</mgrwt>
</event>
<event>
 6    1  0.8861680E-004  0.5691667E+03  0.7818608E-02  0.9971524E-01
         -2   -1    0    0    0  501 -0.00000000000E+00  0.00000000000E+00  0.14433522538E+03  0.14433522538E+03  0.00000000000E+00 0.  1.
          2   -1    0    0  502    0  0.00000000000E+00 -0.00000000000E+00 -0.22957594615E+04  0.22957594615E+04  0.00000000000E+00 0. -1.
    9000007    2    1    2  502    0  0.73801585318E+02  0.39694444755E+03 -0.12596558182E+04  0.13826153823E+04  0.40234431349E+03 0.  0.
    9000005    1    3    3    0    0  0.17168261238E+03  0.42548731064E+03 -0.11143185430E+04  0.12050814023E+04  0.99999687468E+00 0.  0.
          4    1    3    3  502    0 -0.97881027059E+02 -0.28542863090E+02 -0.14533727526E+03  0.17753398004E+03  0.00000000000E+00 0.  1.
   -9000007    1    1    2    0  501 -0.73801585318E+02 -0.39694444755E+03 -0.89176841791E+03  0.10574793046E+04  0.40000000000E+03 0. -1.
<mgrwt>
<rscale>  2 0.56916665E+03</rscale>
<asrwt>0</asrwt>
<pdfrwt beam="1">  1        2 0.35319375E+00 0.56916665E+03</pdfrwt>
<pdfrwt beam="2">  1       -2 0.22205420E-01 0.56916665E+03</pdfrwt>
<totfact> 0.85610437E+01</totfact>
</mgrwt>
</event>
<event>
 6    1  0.8861680E-004  0.5574552E+03  0.7818608E-02  0.9997829E-01
          2   -1    0    0  502    0  0.00000000000E+00  0.00000000000E+00  0.10670906150E+04  0.10670906150E+04  0.00000000000E+00 0.  1.
         -2   -1    0    0    0  501 -0.00000000000E+00 -0.00000000000E+00 -0.35812458628E+03  0.35812458628E+03  0.00000000000E+00 0. -1.
    9000007    2    1    2  502    0 -0.38531017569E+03 -0.40567659043E+02  0.66279389669E+03  0.86642943535E+03  0.40161492813E+03 0.  0.
    9000005    1    3    3    0    0  0.18997402376E+02  0.12080826854E+03  0.13180628968E+03  0.17980388494E+03  0.99999687468E+00 0.  0.
          4    1    3    3  502    0 -0.40430757807E+03 -0.16137592758E+03  0.53098760701E+03  0.68662555042E+03  0.00000000000E+00 0.  1.
   -9000007    1    1    2    0  501  0.38531017569E+03  0.40567659043E+02  0.46172132053E+02  0.55878576595E+03  0.40000000000E+03 0. -1.
<mgrwt>
<rscale>  2 0.55745517E+03</rscale>
<asrwt>0</asrwt>
<pdfrwt beam="1">  1        2 0.16416779E+00 0.55745517E+03</pdfrwt>
<pdfrwt beam="2">  1       -2 0.55096091E-01 0.55745517E+03</pdfrwt>
<totfact> 0.73148391E+01</totfact>
</mgrwt>
</event>
<event>
 6    1  0.8861680E-004  0.4831357E+03  0.7818608E-02  0.1018277E+00
          2   -1    0    0  502    0  0.00000000000E+00  0.00000000000E+00  0.26111579916E+04  0.26111579916E+04  0.00000000000E+00 0.  1.
         -2   -1    0    0    0  501 -0.00000000000E+00 -0.00000000000E+00 -0.91720194215E+02  0.91720194215E+02  0.00000000000E+00 0. -1.
    9000007    2    1    2  502    0  0.17157066108E+03 -0.20976567019E+03  0.14749247951E+04  0.15520326097E+04  0.39995492525E+03 0.  0.
    9000005    1    3    3    0    0 -0.11236172079E+03 -0.41151772471E+02  0.18360928838E+03  0.21916203013E+03  0.99999687468E+00 0.  0.
          4    1    3    3  502    0  0.28393238188E+03 -0.16861389772E+03  0.12913155067E+04  0.13328705796E+04  0.00000000000E+00 0.  1.
   -9000007    1    1    2    0  501 -0.17157066108E+03  0.20976567019E+03  0.10445130023E+04  0.11508455761E+04  0.40000000000E+03 0. -1.
<mgrwt>
<rscale>  2 0.48313569E+03</rscale>
<asrwt>0</asrwt>
<pdfrwt beam="1">  1        2 0.40171656E+00 0.48313569E+03</pdfrwt>
<pdfrwt beam="2">  1       -2 0.14110801E-01 0.48313569E+03</pdfrwt>
<totfact> 0.12597278E+02</totfact>
</mgrwt>
</event>
<event>
 6    1  0.8861680E-004  0.4174449E+03  0.7818608E-02  0.1037901E+00
          1   -1    0    0  502    0  0.00000000000E+00  0.00000000000E+00  0.14884628872E+04  0.14884628872E+04  0.00000000000E+00 0.  1.
         -1   -1    0    0    0  501 -0.00000000000E+00 -0.00000000000E+00 -0.14875415670E+03  0.14875415670E+03  0.00000000000E+00 0. -1.
    9000007    2    1    2  502    0 -0.88705579541E+02 -0.80284830338E+02  0.29199548338E+03  0.50937956357E+03  0.39986478171E+03 0.  0.
    9000005    1    3    3    0    0 -0.15144144309E+02 -0.16755233762E+03 -0.27171799899E+02  0.17041841935E+03  0.99999687468E+00 0.  0.
          4    1    3    3  502    0 -0.73561435232E+02  0.87267507283E+02  0.31916728328E+03  0.33896114423E+03  0.00000000000E+00 0.  1.
   -9000007    1    1    2    0  501  0.88705579541E+02  0.80284830338E+02  0.10477132471E+04  0.11278374803E+04  0.40000000000E+03 0.  1.
<mgrwt>
<rscale>  2 0.41744490E+03</rscale>
<asrwt>0</asrwt>
<pdfrwt beam="1">  1        1 0.22899428E+00 0.41744490E+03</pdfrwt>
<pdfrwt beam="2">  1       -1 0.22885256E-01 0.41744490E+03</pdfrwt>
<totfact> 0.11529386E+02</totfact>
</mgrwt>
</event>
<event>
 6    1  0.8861680E-004  0.4497229E+03  0.7818608E-02  0.1027805E+00
         -1   -1    0    0    0  501 -0.00000000000E+00  0.00000000000E+00  0.11029687496E+03  0.11029687496E+03  0.00000000000E+00 0.  1.
          1   -1    0    0  502    0  0.00000000000E+00 -0.00000000000E+00 -0.20317795189E+04  0.20317795189E+04  0.00000000000E+00 0. -1.
    9000007    2    1    2  502    0 -0.11205111846E+03  0.17064657665E+03 -0.62755858452E+03  0.77243586481E+03  0.40143701991E+03 0.  0.
    9000005    1    3    3    0    0 -0.18071842040E+03  0.24439282874E+03 -0.59219544531E+03  0.66564513643E+03  0.99999687468E+00 0.  0.
          4    1    3    3  502    0  0.68667301939E+02 -0.73746252083E+02 -0.35363139209E+02  0.10679072837E+03  0.00000000000E+00 0.  1.
   -9000007    1    1    2    0  501  0.11205111846E+03 -0.17064657665E+03 -0.12939240594E+04  0.13696405291E+04  0.40000000000E+03 0. -1.
<mgrwt>
<rscale>  2 0.44972295E+03</rscale>
<asrwt>0</asrwt>
<pdfrwt beam="1">  1        1 0.31258149E+00 0.44972295E+03</pdfrwt>
<pdfrwt beam="2">  1       -1 0.16968749E-01 0.44972295E+03</pdfrwt>
<totfact> 0.81894805E+01</totfact>
</mgrwt>
</event>
<event>
 6    1  0.8861680E-004  0.5123006E+03  0.7818608E-02  0.1010617E+00
         -2   -1    0    0    0  501 -0.00000000000E+00  0.00000000000E+00  0.18418311583E+03  0.18418311583E+03  0.00000000000E+00 0.  1.
          2   -1    0    0  502    0  0.00000000000E+00 -0.00000000000E+00 -0.17213375586E+04  0.17213375586E+04  0.00000000000E+00 0. -1.
    9000007    2    1    2  502    0 -0.31934890806E+03 -0.17141637979E+02 -0.11641369291E+04  0.12719438233E+04  0.40043568637E+03 0.  0.
    9000005    1    3    3    0    0 -0.19459740073E+03 -0.20131504010E+03 -0.77056264264E+03  0.81985588976E+03  0.99999687468E+00 0.  0.
          4    1    3    3  502    0 -0.12475150733E+03  0.18417340212E+03 -0.39357428650E+03  0.45208793351E+03  0.00000000000E+00 0.  1.
   -9000007    1    1    2    0  501  0.31934890806E+03  0.17141637979E+02 -0.37301751359E+03  0.63357685112E+03  0.40000000000E+03 0.  1.
<mgrwt>
<rscale>  2 0.51230057E+03</rscale>
<asrwt>0</asrwt>
<pdfrwt beam="1">  1        2 0.26482116E+00 0.51230057E+03</pdfrwt>
<pdfrwt beam="2">  1       -2 0.28335864E-01 0.51230057E+03</pdfrwt>
<totfact> 0.11407301E+02</totfact>
</mgrwt>
</event>
<event>
 6    1  0.8861680E-004  0.4593251E+03  0.7818608E-02  0.1024977E+00
         -1   -1    0    0    0  501 -0.00000000000E+00  0.00000000000E+00  0.42564005222E+03  0.42564005222E+03  0.00000000000E+00 0. -1.
          1   -1    0    0  502    0  0.00000000000E+00 -0.00000000000E+00 -0.55100018170E+03  0.55100018170E+03  0.00000000000E+00 0.  1.
    9000007    2    1    2  502    0  0.18330837461E+03  0.12926172287E+03  0.91962777155E+02  0.46915644211E+03  0.40167158424E+03 0.  0.
    9000005    1    3    3    0    0 -0.99902680215E+02  0.14379504853E+03  0.17556220171E+02  0.17597381156E+03  0.99999687468E+00 0.  0.
          4    1    3    3  502    0  0.28321105483E+03 -0.14533325656E+02  0.74406556985E+02  0.29318263055E+03  0.00000000000E+00 0.  1.
   -9000007    1    1    2    0  501 -0.18330837461E+03 -0.12926172287E+03 -0.21732290663E+03  0.50748379181E+03  0.40000000000E+03 0. -1.
<mgrwt>
<rscale>  2 0.45932507E+03</rscale>
<asrwt>0</asrwt>
<pdfrwt beam="1">  1        1 0.84769258E-01 0.45932507E+03</pdfrwt>
<pdfrwt beam="2">  1       -1 0.65483085E-01 0.45932507E+03</pdfrwt>
<totfact> 0.95557516E+01</totfact>
</mgrwt>
</event>
<event>
 6    1  0.8861680E-004  0.4647581E+03  0.7818608E-02  0.1023410E+00
         -1   -1    0    0    0  501 -0.00000000000E+00  0.00000000000E+00  0.17184855697E+03  0.17184855697E+03  0.00000000000E+00 0. -1.
          1   -1    0    0  502    0  0.00000000000E+00 -0.00000000000E+00 -0.12746521072E+04  0.12746521072E+04  0.00000000000E+00 0.  1.
    9000007    2    1    2  502    0 -0.12570899274E+03  0.20086635810E+03 -0.46591162160E+03  0.65796951486E+03  0.39962507262E+03 0.  0.
    9000005    1    3    3    0    0  0.45136601056E+02  0.22214375162E+03 -0.88875244807E+02  0.24348504733E+03  0.99999687468E+00 0.  0.
          4    1    3    3  502    0 -0.17084559380E+03 -0.21277393526E+02 -0.37703637680E+03  0.41448446753E+03  0.00000000000E+00 0.  1.
   -9000007    1    1    2    0  501  0.12570899274E+03 -0.20086635810E+03 -0.63689192862E+03  0.78853114930E+03  0.40000000000E+03 0. -1.
<mgrwt>
<rscale>  2 0.46475810E+03</rscale>
<asrwt>0</asrwt>
<pdfrwt beam="1">  1        1 0.19610032E+00 0.46475810E+03</pdfrwt>
<pdfrwt beam="2">  1       -1 0.26438240E-01 0.46475810E+03</pdfrwt>
<totfact> 0.12588373E+02</totfact>
</mgrwt>
</event>
<event>
 6    1  0.8861680E-004  0.4062688E+03  0.7818608E-02  0.1041630E+00
          2   -1    0    0  502    0  0.00000000000E+00  0.00000000000E+00  0.23178956010E+04  0.23178956010E+04  0.00000000000E+00 0.  1.
         -2   -1    0    0    0  501 -0.00000000000E+00 -0.00000000000E+00 -0.72384106837E+02  0.72384106837E+02  0.00000000000E+00 0. -1.
    9000007    2    1    2  502    0 -0.43468920017E+02 -0.56732697649E+02  0.12748733371E+04  0.13380218602E+04  0.39986538573E+03 0.  0.
    9000005    1    3    3    0    0 -0.69206596199E+02 -0.18657587946E+03  0.34104033963E+03  0.39485392869E+03  0.99999687468E+00 0.  0.
          4    1    3    3  502    0  0.25737676182E+02  0.12984318181E+03  0.93383299749E+03  0.94316793152E+03  0.00000000000E+00 0.  1.
   -9000007    1    1    2    0  501  0.43468920017E+02  0.56732697649E+02  0.97063815702E+03  0.10522578476E+04  0.40000000000E+03 0.  1.
<mgrwt>
<rscale>  2 0.40626875E+03</rscale>
<asrwt>0</asrwt>
<pdfrwt beam="1">  1        2 0.35659927E+00 0.40626875E+03</pdfrwt>
<pdfrwt beam="2">  1       -2 0.11136018E-01 0.40626875E+03</pdfrwt>
<totfact> 0.27426885E+02</totfact>
</mgrwt>
</event>
<event>
 6    1  0.8861680E-004  0.4274941E+03  0.7818608E-02  0.1034655E+00
          1   -1    0    0  502    0  0.00000000000E+00  0.00000000000E+00  0.42307280224E+03  0.42307280224E+03  0.00000000000E+00 0.  1.
         -1   -1    0    0    0  501 -0.00000000000E+00 -0.00000000000E+00 -0.43475316739E+03  0.43475316739E+03  0.00000000000E+00 0. -1.
    9000007    2    1    2  502    0 -0.15166331646E+03 -0.98747001983E+01  0.28532553273E+02  0.42803956911E+03  0.39912967174E+03 0.  0.
    9000005    1    3    3    0    0 -0.16363483144E+03  0.10599147872E+03 -0.12777328097E+03  0.23310418903E+03  0.99999687468E+00 0.  0.
          4    1    3    3  502    0  0.11971514987E+02 -0.11586617891E+03  0.15630583424E+03  0.19493538007E+03  0.00000000000E+00 0.  1.
   -9000007    1    1    2    0  501  0.15166331646E+03  0.98747001983E+01 -0.40212918427E+02  0.42978640052E+03  0.40000000000E+03 0. -1.
<mgrwt>
<rscale>  2 0.42749408E+03</rscale>
<asrwt>0</asrwt>
<pdfrwt beam="1">  1        1 0.65088124E-01 0.42749408E+03</pdfrwt>
<pdfrwt beam="2">  1       -1 0.66885102E-01 0.42749408E+03</pdfrwt>
<totfact> 0.13120399E+02</totfact>
</mgrwt>
</event>
<event>
 6    1  0.8861680E-004  0.4030908E+03  0.7818608E-02  0.1042715E+00
         -1   -1    0    0    0  501 -0.00000000000E+00  0.00000000000E+00  0.39963534751E+03  0.39963534751E+03  0.00000000000E+00 0. -1.
          1   -1    0    0  502    0  0.00000000000E+00 -0.00000000000E+00 -0.40991057427E+03  0.40991057427E+03  0.00000000000E+00 0.  1.
    9000007    2    1    2  502    0 -0.17498730764E+02  0.37884117302E+02 -0.41645219576E+02  0.40615344742E+03  0.40185182172E+03 0.  0.
    9000005    1    3    3    0    0 -0.17123727593E+03 -0.98000549673E+02 -0.38067809833E+02  0.20093897218E+03  0.99999687468E+00 0.  0.
          4    1    3    3  502    0  0.15373854516E+03  0.13588466697E+03 -0.35774097424E+01  0.20521447524E+03  0.00000000000E+00 0.  1.
   -9000007    1    1    2    0  501  0.17498730764E+02 -0.37884117302E+02  0.31369992820E+02  0.40339247436E+03  0.40000000000E+03 0. -1.
<mgrwt>
<rscale>  2 0.40309076E+03</rscale>
<asrwt>0</asrwt>
<pdfrwt beam="1">  1        1 0.63063165E-01 0.40309076E+03</pdfrwt>
<pdfrwt beam="2">  1       -1 0.61482361E-01 0.40309076E+03</pdfrwt>
<totfact> 0.16194624E+02</totfact>
</mgrwt>
</event>
<event>
 6    1  0.8861680E-004  0.7266173E+03  0.7818608E-02  0.9672766E-01
          2   -1    0    0  502    0  0.00000000000E+00  0.00000000000E+00  0.20067775936E+04  0.20067775936E+04  0.00000000000E+00 0.  1.
         -2   -1    0    0    0  501 -0.00000000000E+00 -0.00000000000E+00 -0.26338878158E+03  0.26338878158E+03  0.00000000000E+00 0. -1.
    9000007    2    1    2  502    0  0.55371166411E+03  0.24702822887E+03  0.90990917807E+03  0.11645860511E+04  0.40088203403E+03 0.  0.
    9000005    1    3    3    0    0  0.98210239624E+02  0.24986614475E+03  0.38833881819E+03  0.47210844005E+03  0.99999687468E+00 0.  0.
          4    1    3    3  502    0  0.45550142448E+03 -0.28379158779E+01  0.52157035988E+03  0.69247761103E+03  0.00000000000E+00 0.  1.
   -9000007    1    1    2    0  501 -0.55371166411E+03 -0.24702822887E+03  0.83347963396E+03  0.11055803241E+04  0.40000000000E+03 0.  1.
<mgrwt>
<rscale>  2 0.72661726E+03</rscale>
<asrwt>0</asrwt>
<pdfrwt beam="1">  1        2 0.30873500E+00 0.72661726E+03</pdfrwt>
<pdfrwt beam="2">  1       -2 0.40521352E-01 0.72661726E+03</pdfrwt>
<totfact> 0.39502825E+01</totfact>
</mgrwt>
</event>
<event>
 6    1  0.8861680E-004  0.4433045E+03  0.7818608E-02  0.1029738E+00
          2   -1    0    0  502    0  0.00000000000E+00  0.00000000000E+00  0.27797833677E+04  0.27797833677E+04  0.00000000000E+00 0.  1.
         -2   -1    0    0    0  501 -0.00000000000E+00 -0.00000000000E+00 -0.12147004995E+03  0.12147004995E+03  0.00000000000E+00 0. -1.
    9000007    2    1    2  502    0  0.18448682293E+03  0.61598336559E+02  0.38872456333E+03  0.58849254435E+03  0.39672023609E+03 0.  0.
    9000005    1    3    3    0    0  0.27183159264E+03  0.97514405192E+02  0.13701503904E+03  0.31964917471E+03  0.99999687468E+00 0.  0.
          4    1    3    3  502    0 -0.87344769706E+02 -0.35916068633E+02  0.25170952429E+03  0.26884336964E+03  0.00000000000E+00 0.  1.
   -9000007    1    1    2    0  501 -0.18448682293E+03 -0.61598336559E+02  0.22695887544E+04  0.23127608733E+04  0.40000000000E+03 0.  1.
<mgrwt>
<rscale>  2 0.44330449E+03</rscale>
<asrwt>0</asrwt>
<pdfrwt beam="1">  1        2 0.42765893E+00 0.44330449E+03</pdfrwt>
<pdfrwt beam="2">  1       -2 0.18687702E-01 0.44330449E+03</pdfrwt>
<totfact> 0.63207629E+01</totfact>
</mgrwt>
</event>
<event>
 6    1  0.8861680E-004  0.4892327E+03  0.7818608E-02  0.1016628E+00
         -2   -1    0    0    0  501 -0.00000000000E+00  0.00000000000E+00  0.16977353464E+03  0.16977353464E+03  0.00000000000E+00 0. -1.
          2   -1    0    0  502    0  0.00000000000E+00 -0.00000000000E+00 -0.14424226593E+04  0.14424226593E+04  0.00000000000E+00 0.  1.
    9000007    2    1    2  502    0  0.56122068380E+02  0.27559027167E+03 -0.75785415067E+03  0.90218665201E+03  0.40062221228E+03 0.  0.
    9000005    1    3    3    0    0  0.67543026909E+02  0.32932191132E+03 -0.33089061088E+03  0.47170390938E+03  0.99999687468E+00 0.  0.
          4    1    3    3  502    0 -0.11420958529E+02 -0.53731639645E+02 -0.42696353979E+03  0.43048274263E+03  0.00000000000E+00 0.  1.
   -9000007    1    1    2    0  501 -0.56122068380E+02 -0.27559027167E+03 -0.51479497398E+03  0.71000954194E+03  0.40000000000E+03 0.  1.
<mgrwt>
<rscale>  2 0.48923270E+03</rscale>
<asrwt>0</asrwt>
<pdfrwt beam="1">  1        2 0.22191119E+00 0.48923270E+03</pdfrwt>
<pdfrwt beam="2">  1       -2 0.26119004E-01 0.48923270E+03</pdfrwt>
<totfact> 0.18821988E+02</totfact>
</mgrwt>
</event>
<event>
 6    1  0.8861680E-004  0.5130745E+03  0.7818608E-02  0.1010422E+00
         -2   -1    0    0    0  501 -0.00000000000E+00  0.00000000000E+00  0.24729543944E+03  0.24729543944E+03  0.00000000000E+00 0.  1.
          2   -1    0    0  502    0  0.00000000000E+00 -0.00000000000E+00 -0.12608316389E+04  0.12608316389E+04  0.00000000000E+00 0. -1.
    9000007    2    1    2  502    0  0.53365434468E+02  0.31594721496E+03 -0.20967527102E+03  0.55478406321E+03  0.40143632779E+03 0.  0.
    9000005    1    3    3    0    0  0.18107266065E+03  0.11234239291E+02 -0.52213032104E+02  0.18878749239E+03  0.99999687468E+00 0.  0.
          4    1    3    3  502    0 -0.12770722619E+03  0.30471297567E+03 -0.15746223892E+03  0.36599657081E+03  0.00000000000E+00 0.  1.
   -9000007    1    1    2    0  501 -0.53365434468E+02 -0.31594721496E+03 -0.80386092840E+03  0.95334301510E+03  0.40000000000E+03 0. -1.
<mgrwt>
<rscale>  2 0.51307450E+03</rscale>
<asrwt>0</asrwt>
<pdfrwt beam="1">  1        2 0.19397410E+00 0.51307450E+03</pdfrwt>
<pdfrwt beam="2">  1       -2 0.38045451E-01 0.51307450E+03</pdfrwt>
<totfact> 0.11800126E+02</totfact>
</mgrwt>
</event>
<event>
 6    1  0.8861680E-004  0.5196610E+03  0.7818608E-02  0.1008771E+00
         -1   -1    0    0    0  501 -0.00000000000E+00  0.00000000000E+00  0.13369854695E+04  0.13369854695E+04  0.00000000000E+00 0.  1.
          1   -1    0    0  502    0  0.00000000000E+00 -0.00000000000E+00 -0.35900694727E+03  0.35900694727E+03  0.00000000000E+00 0. -1.
    9000007    2    1    2  502    0  0.17193110922E+03  0.28431248135E+03 -0.72010356878E+02  0.52429683360E+03  0.39913379318E+03 0.  0.
    9000005    1    3    3    0    0  0.20555815260E+03  0.37114161806E+03 -0.76358066656E+02  0.43108213729E+03  0.99999687468E+00 0.  0.
          4    1    3    3  502    0 -0.33627043376E+02 -0.86829136711E+02  0.43477097776E+01  0.93214696312E+02  0.00000000000E+00 0.  1.
   -9000007    1    1    2    0  501 -0.17193110922E+03 -0.28431248135E+03  0.10499888792E+04  0.11716955832E+04  0.40000000000E+03 0.  1.
<mgrwt>
<rscale>  2 0.51966101E+03</rscale>
<asrwt>0</asrwt>
<pdfrwt beam="1">  1        1 0.55231839E-01 0.51966101E+03</pdfrwt>
<pdfrwt beam="2">  1       -1 0.20569007E+00 0.51966101E+03</pdfrwt>
<totfact> 0.10165875E+01</totfact>
</mgrwt>
</event>
<event>
 6    1  0.8861680E-004  0.4205256E+03  0.7818608E-02  0.1036895E+00
         -1   -1    0    0    0  501 -0.00000000000E+00  0.00000000000E+00  0.17460070200E+03  0.17460070200E+03  0.00000000000E+00 0. -1.
          1   -1    0    0  502    0  0.00000000000E+00 -0.00000000000E+00 -0.10129876033E+04  0.10129876033E+04  0.00000000000E+00 0.  1.
    9000007    2    1    2  502    0 -0.12644277538E+03  0.35632767794E+02 -0.41145340285E+03  0.58798036530E+03  0.39896057158E+03 0.  0.
    9000005    1    3    3    0    0 -0.99233703851E+02  0.16767915106E+03 -0.48492316810E+02  0.20078877076E+03  0.99999687468E+00 0.  0.
          4    1    3    3  502    0 -0.27209071529E+02 -0.13204638326E+03 -0.36296108604E+03  0.38719159455E+03  0.00000000000E+00 0.  1.
   -9000007    1    1    2    0  501  0.12644277538E+03 -0.35632767794E+02 -0.42693349840E+03  0.59960793995E+03  0.40000000000E+03 0. -1.
<mgrwt>
<rscale>  2 0.42052557E+03</rscale>
<asrwt>0</asrwt>
<pdfrwt beam="1">  1        1 0.15584425E+00 0.42052557E+03</pdfrwt>
<pdfrwt beam="2">  1       -1 0.26861647E-01 0.42052557E+03</pdfrwt>
<totfact> 0.19077704E+02</totfact>
</mgrwt>
</event>
<event>
 6    1  0.8861680E-004  0.4417770E+03  0.7818608E-02  0.1030203E+00
          2   -1    0    0  502    0  0.00000000000E+00  0.00000000000E+00  0.17150523226E+04  0.17150523226E+04  0.00000000000E+00 0. -1.
         -2   -1    0    0    0  501 -0.00000000000E+00 -0.00000000000E+00 -0.17249090439E+03  0.17249090439E+03  0.00000000000E+00 0.  1.
    9000007    2    1    2  502    0 -0.17666191883E+02 -0.18627923771E+03  0.13220141157E+04  0.13939308675E+04  0.40038717843E+03 0.  0.
    9000005    1    3    3    0    0 -0.12756811893E+03 -0.26076842677E+02  0.10588412969E+04  0.10668174721E+04  0.99999687468E+00 0.  0.
          4    1    3    3  502    0  0.10990192704E+03 -0.16020239503E+03  0.26317281875E+03  0.32711339543E+03  0.00000000000E+00 0.  1.
   -9000007    1    1    2    0  501  0.17666191883E+02  0.18627923771E+03  0.22054730248E+03  0.49361235942E+03  0.40000000000E+03 0.  1.
<mgrwt>
<rscale>  2 0.44177702E+03</rscale>
<asrwt>0</asrwt>
<pdfrwt beam="1">  1        2 0.26385419E+00 0.44177702E+03</pdfrwt>
<pdfrwt beam="2">  1       -2 0.26537063E-01 0.44177702E+03</pdfrwt>
<totfact> 0.13085469E+02</totfact>
</mgrwt>
</event>
<event>
 6    1  0.8861680E-004  0.4627547E+03  0.7818608E-02  0.1023985E+00
         -2   -1    0    0    0  501 -0.00000000000E+00  0.00000000000E+00  0.74613289390E+03  0.74613289390E+03  0.00000000000E+00 0.  1.
          2   -1    0    0  502    0  0.00000000000E+00 -0.00000000000E+00 -0.28853683110E+03  0.28853683110E+03  0.00000000000E+00 0. -1.
    9000007    2    1    2  502    0  0.21524871561E+03 -0.84815722989E+02  0.26684462847E+03  0.53475790664E+03  0.40153984427E+03 0.  0.
    9000005    1    3    3    0    0  0.22328887928E+03 -0.22824282897E+03  0.19505682812E+03  0.37416691299E+03  0.99999687468E+00 0.  0.
          4    1    3    3  502    0 -0.80401636726E+01  0.14342710598E+03  0.71787800349E+02  0.16059099365E+03  0.00000000000E+00 0.  1.
   -9000007    1    1    2    0  501 -0.21524871561E+03  0.84815722989E+02  0.19075143434E+03  0.49991181836E+03  0.40000000000E+03 0. -1.
<mgrwt>
<rscale>  2 0.46275474E+03</rscale>
<asrwt>0</asrwt>
<pdfrwt beam="1">  1        2 0.44390282E-01 0.46275474E+03</pdfrwt>
<pdfrwt beam="2">  1       -2 0.11478968E+00 0.46275474E+03</pdfrwt>
<totfact> 0.69850689E+01</totfact>
</mgrwt>
</event>
<event>
 6    1  0.8861680E-004  0.6186890E+03  0.7818608E-02  0.9867373E-01
          2   -1    0    0  502    0  0.00000000000E+00  0.00000000000E+00  0.84258457869E+03  0.84258457869E+03  0.00000000000E+00 0. -1.
         -2   -1    0    0    0  501 -0.00000000000E+00 -0.00000000000E+00 -0.52715143713E+03  0.52715143713E+03  0.00000000000E+00 0.  1.
    9000007    2    1    2  502    0  0.23496311430E+03  0.40867183744E+03  0.41243559779E+03  0.74393268226E+03  0.40138806361E+03 0.  0.
    9000005    1    3    3    0    0  0.61075551494E+02 -0.75091657626E+02  0.24319696737E+02  0.99806952054E+02  0.99999687468E+00 0.  0.
          4    1    3    3  502    0  0.17388756280E+03  0.48376349506E+03  0.38811590106E+03  0.64412573020E+03  0.00000000000E+00 0.  1.
   -9000007    1    1    2    0  501 -0.23496311430E+03 -0.40867183744E+03 -0.97002456235E+02  0.62580333357E+03  0.40000000000E+03 0. -1.
<mgrwt>
<rscale>  2 0.61868903E+03</rscale>
<asrwt>0</asrwt>
<pdfrwt beam="1">  1        2 0.12962840E+00 0.61868903E+03</pdfrwt>
<pdfrwt beam="2">  1       -2 0.81100221E-01 0.61868903E+03</pdfrwt>
<totfact> 0.44192235E+01</totfact>
</mgrwt>
</event>
<event>
 6    1  0.8861680E-004  0.4227745E+03  0.7818608E-02  0.1036167E+00
         -2   -1    0    0    0  501 -0.00000000000E+00  0.00000000000E+00  0.20276764980E+03  0.20276764980E+03  0.00000000000E+00 0.  1.
          2   -1    0    0  502    0  0.00000000000E+00 -0.00000000000E+00 -0.93811738756E+03  0.93811738756E+03  0.00000000000E+00 0. -1.
    9000007    2    1    2  502    0 -0.83535566874E+02  0.10853781504E+03 -0.50780261223E+03  0.66074303486E+03  0.39994901787E+03 0.  0.
    9000005    1    3    3    0    0  0.72383225826E+02  0.69861288391E+02 -0.48872273574E+03  0.49896978207E+03  0.99999687468E+00 0.  0.
          4    1    3    3  502    0 -0.15591879270E+03  0.38676526644E+02 -0.19079876489E+02  0.16177325279E+03  0.00000000000E+00 0.  1.
   -9000007    1    1    2    0  501  0.83535566874E+02 -0.10853781504E+03 -0.22754712553E+03  0.48014200250E+03  0.40000000000E+03 0.  1.
<mgrwt>
<rscale>  2 0.42277447E+03</rscale>
<asrwt>0</asrwt>
<pdfrwt beam="1">  1        2 0.14432575E+00 0.42277447E+03</pdfrwt>
<pdfrwt beam="2">  1       -2 0.31195024E-01 0.42277447E+03</pdfrwt>
<totfact> 0.27132429E+02</totfact>
</mgrwt>
</event>
<event>
 6    1  0.8861680E-004  0.4093356E+03  0.7818608E-02  0.1040594E+00
         -2   -1    0    0    0  501 -0.00000000000E+00  0.00000000000E+00  0.85120393069E+03  0.85120393069E+03  0.00000000000E+00 0. -1.
          2   -1    0    0  502    0  0.00000000000E+00 -0.00000000000E+00 -0.24752220923E+03  0.24752220923E+03  0.00000000000E+00 0.  1.
    9000007    2    1    2  502    0 -0.72396933129E+02 -0.50569777032E+02  0.55024120820E+03  0.68562263383E+03  0.39939252691E+03 0.  0.
    9000005    1    3    3    0    0 -0.18253841218E+03  0.14786593927E+02  0.82860030508E+02  0.20101169103E+03  0.99999687468E+00 0.  0.
          4    1    3    3  502    0  0.11014147905E+03 -0.65356370959E+02  0.46738117769E+03  0.48461094281E+03  0.00000000000E+00 0.  1.
   -9000007    1    1    2    0  501  0.72396933129E+02  0.50569777032E+02  0.53440513263E+02  0.41310350608E+03  0.40000000000E+03 0.  1.
<mgrwt>
<rscale>  2 0.40933561E+03</rscale>
<asrwt>0</asrwt>
<pdfrwt beam="1">  1        2 0.38080340E-01 0.40933561E+03</pdfrwt>
<pdfrwt beam="2">  1       -2 0.13095445E+00 0.40933561E+03</pdfrwt>
<totfact> 0.59980642E+01</totfact>
</mgrwt>
</event>
<event>
 6    1  0.8861680E-004  0.4897014E+03  0.7818608E-02  0.1016503E+00
         -2   -1    0    0    0  501 -0.00000000000E+00  0.00000000000E+00  0.42084753408E+03  0.42084753408E+03  0.00000000000E+00 0.  1.
          2   -1    0    0  502    0  0.00000000000E+00 -0.00000000000E+00 -0.60274481910E+03  0.60274481910E+03  0.00000000000E+00 0. -1.
    9000007    2    1    2  502    0 -0.26938992744E+03  0.86467441159E+02  0.28710535714E+02  0.49029768272E+03  0.39939951356E+03 0.  0.
    9000005    1    3    3    0    0 -0.38253453221E+02  0.14208283302E+03 -0.13656893212E+03  0.20075589987E+03  0.99999687468E+00 0.  0.
          4    1    3    3  502    0 -0.23113647422E+03 -0.55615391856E+02  0.16527946783E+03  0.28954178284E+03  0.00000000000E+00 0.  1.
   -9000007    1    1    2    0  501  0.26938992744E+03 -0.86467441159E+02 -0.21060782073E+03  0.53329467046E+03  0.40000000000E+03 0. -1.
<mgrwt>
<rscale>  2 0.48970135E+03</rscale>
<asrwt>0</asrwt>
<pdfrwt beam="1">  1        2 0.92729972E-01 0.48970135E+03</pdfrwt>
<pdfrwt beam="2">  1       -2 0.64745775E-01 0.48970135E+03</pdfrwt>
<totfact> 0.11176540E+02</totfact>
</mgrwt>
</event>
<event>
 6    1  0.8861680E-004  0.4421889E+03  0.7818608E-02  0.1030077E+00
          3   -1    0    0  502    0  0.00000000000E+00  0.00000000000E+00  0.17072106525E+03  0.17072106525E+03  0.00000000000E+00 0.  1.
         -3   -1    0    0    0  501 -0.00000000000E+00 -0.00000000000E+00 -0.14421901157E+04  0.14421901157E+04  0.00000000000E+00 0. -1.
    9000007    2    1    2  502    0  0.18576714589E+03  0.49668071746E+02 -0.99975273853E+03  0.10925208428E+04  0.39638353147E+03 0.  0.
    9000005    1    3    3    0    0  0.25476834531E+03  0.81994264339E+02 -0.97700405987E+03  0.10129994581E+04  0.99999687468E+00 0.  0.
          4    1    3    3  502    0 -0.69001199419E+02 -0.32326192594E+02 -0.22748678661E+02  0.79521384732E+02  0.00000000000E+00 0.  1.
   -9000007    1    1    2    0  501 -0.18576714589E+03 -0.49668071746E+02 -0.27171631195E+03  0.52039033813E+03  0.40000000000E+03 0.  1.
<mgrwt>
<rscale>  2 0.44218887E+03</rscale>
<asrwt>0</asrwt>
<pdfrwt beam="1">  1        3 0.26264780E-01 0.44218887E+03</pdfrwt>
<pdfrwt beam="2">  1       -3 0.22187540E+00 0.44218887E+03</pdfrwt>
<totfact> 0.39837433E+00</totfact>
</mgrwt>
</event>
<event>
 6    1  0.8861680E-004  0.4937043E+03  0.7818608E-02  0.1015435E+00
         -1   -1    0    0    0  501 -0.00000000000E+00  0.00000000000E+00  0.14240403806E+04  0.14240403806E+04  0.00000000000E+00 0. -1.
          1   -1    0    0  502    0  0.00000000000E+00 -0.00000000000E+00 -0.17451572711E+03  0.17451572711E+03  0.00000000000E+00 0.  1.
    9000007    2    1    2  502    0 -0.27583388702E+03  0.87529716359E+02  0.51398646660E+03  0.71268805384E+03  0.39999548718E+03 0.  0.
    9000005    1    3    3    0    0 -0.34312196673E+03 -0.35362950591E+02  0.42218728663E+03  0.54518467267E+03  0.99999687468E+00 0.  0.
          4    1    3    3  502    0  0.67288079710E+02  0.12289266695E+03  0.91799179965E+02  0.16750338117E+03  0.00000000000E+00 0.  1.
   -9000007    1    1    2    0  501  0.27583388702E+03 -0.87529716359E+02  0.73553818688E+03  0.88586805385E+03  0.40000000000E+03 0. -1.
<mgrwt>
<rscale>  2 0.49370434E+03</rscale>
<asrwt>0</asrwt>
<pdfrwt beam="1">  1        1 0.26848574E-01 0.49370434E+03</pdfrwt>
<pdfrwt beam="2">  1       -1 0.21908313E+00 0.49370434E+03</pdfrwt>
<totfact> 0.21039070E+01</totfact>
</mgrwt>
</event>
<event>
 6    1  0.8861680E-004  0.4166119E+03  0.7818608E-02  0.1038175E+00
          2   -1    0    0  502    0  0.00000000000E+00  0.00000000000E+00  0.15014686345E+04  0.15014686345E+04  0.00000000000E+00 0. -1.
         -2   -1    0    0    0  501 -0.00000000000E+00 -0.00000000000E+00 -0.12002018457E+03  0.12002018457E+03  0.00000000000E+00 0.  1.
    9000007    2    1    2  502    0 -0.10696158800E+03  0.42908167309E+02  0.84690546925E+03  0.94398008088E+03  0.40070890571E+03 0.  0.
    9000005    1    3    3    0    0 -0.24812215104E+03  0.88773889761E+02  0.60899683415E+03  0.66356879774E+03  0.99999687468E+00 0.  0.
          4    1    3    3  502    0  0.14116056304E+03 -0.45865722452E+02  0.23790863510E+03  0.28041128314E+03  0.00000000000E+00 0.  1.
   -9000007    1    1    2    0  501  0.10696158800E+03 -0.42908167309E+02  0.53454298069E+03  0.67750873820E+03  0.40000000000E+03 0. -1.
<mgrwt>
<rscale>  2 0.41661190E+03</rscale>
<asrwt>0</asrwt>
<pdfrwt beam="1">  1        2 0.23099516E+00 0.41661190E+03</pdfrwt>
<pdfrwt beam="2">  1       -2 0.18464645E-01 0.41661190E+03</pdfrwt>
<totfact> 0.32394107E+02</totfact>
</mgrwt>
</event>
<event>
 6    1  0.8861680E-004  0.5518576E+03  0.7818608E-02  0.1001065E+00
         -2   -1    0    0    0  501 -0.00000000000E+00  0.00000000000E+00  0.34446836766E+03  0.34446836766E+03  0.00000000000E+00 0.  1.
          2   -1    0    0  502    0  0.00000000000E+00 -0.00000000000E+00 -0.17180247773E+04  0.17180247773E+04  0.00000000000E+00 0. -1.
    9000007    2    1    2  502    0 -0.29523670435E+03  0.23842117201E+03 -0.14055612542E+04  0.15101946053E+04  0.40134267135E+03 0.  0.
    9000005    1    3    3    0    0 -0.24732373960E+03  0.16972687366E+03 -0.13936896388E+04  0.14256044518E+04  0.99999687468E+00 0.  0.
          4    1    3    3  502    0 -0.47912964756E+02  0.68694298355E+02 -0.11871615398E+02  0.84590153507E+02  0.00000000000E+00 0.  1.
   -9000007    1    1    2    0  501  0.29523670435E+03 -0.23842117201E+03  0.32004844498E+02  0.55229853968E+03  0.40000000000E+03 0.  1.
<mgrwt>
<rscale>  2 0.55185765E+03</rscale>
<asrwt>0</asrwt>
<pdfrwt beam="1">  1        2 0.26431150E+00 0.55185765E+03</pdfrwt>
<pdfrwt beam="2">  1       -2 0.52995135E-01 0.55185765E+03</pdfrwt>
<totfact> 0.33968068E+01</totfact>
</mgrwt>
</event>
<event>
 6    1  0.8861680E-004  0.4237612E+03  0.7818608E-02  0.1035849E+00
         -1   -1    0    0    0  501 -0.00000000000E+00  0.00000000000E+00  0.23909780713E+03  0.23909780713E+03  0.00000000000E+00 0. -1.
          1   -1    0    0  502    0  0.00000000000E+00 -0.00000000000E+00 -0.10641916359E+04  0.10641916359E+04  0.00000000000E+00 0.  1.
    9000007    2    1    2  502    0 -0.13082523135E+03 -0.49056066006E+02 -0.76607626242E+03  0.87549882614E+03  0.40012949898E+03 0.  0.
    9000005    1    3    3    0    0 -0.27988726899E+02  0.17232937735E+03 -0.38794272899E+03  0.42541902179E+03  0.99999687468E+00 0.  0.
          4    1    3    3  502    0 -0.10283650445E+03 -0.22138544335E+03 -0.37813353344E+03  0.45007980435E+03  0.00000000000E+00 0.  1.
   -9000007    1    1    2    0  501  0.13082523135E+03  0.49056066006E+02 -0.59017566345E+02  0.42779061690E+03  0.40000000000E+03 0. -1.
<mgrwt>
<rscale>  2 0.42376118E+03</rscale>
<asrwt>0</asrwt>
<pdfrwt beam="1">  1        1 0.16372179E+00 0.42376118E+03</pdfrwt>
<pdfrwt beam="2">  1       -1 0.36784279E-01 0.42376118E+03</pdfrwt>
<totfact> 0.10115349E+02</totfact>
</mgrwt>
</event>
<event>
 6    1  0.8861680E-004  0.4954014E+03  0.7818608E-02  0.1014986E+00
         -1   -1    0    0    0  501 -0.00000000000E+00  0.00000000000E+00  0.59861646347E+03  0.59861646347E+03  0.00000000000E+00 0. -1.
          1   -1    0    0  502    0  0.00000000000E+00 -0.00000000000E+00 -0.50507687835E+03  0.50507687835E+03  0.00000000000E+00 0.  1.
    9000007    2    1    2  502    0 -0.24878433926E+03 -0.15392804641E+03 -0.19269355097E+03  0.53140242006E+03  0.39958758305E+03 0.  0.
    9000005    1    3    3    0    0 -0.25024911722E+03 -0.22115591456E+03 -0.71460181339E+01  0.33404584234E+03  0.99999687468E+00 0.  0.
          4    1    3    3  502    0  0.14647779643E+01  0.67227868146E+02 -0.18554753283E+03  0.19735657772E+03  0.00000000000E+00 0.  1.
   -9000007    1    1    2    0  501  0.24878433926E+03  0.15392804641E+03  0.28623313609E+03  0.57229092176E+03  0.40000000000E+03 0. -1.
<mgrwt>
<rscale>  2 0.49540141E+03</rscale>
<asrwt>0</asrwt>
<pdfrwt beam="1">  1        1 0.77704136E-01 0.49540141E+03</pdfrwt>
<pdfrwt beam="2">  1       -1 0.92094840E-01 0.49540141E+03</pdfrwt>
<totfact> 0.52581424E+01</totfact>
</mgrwt>
</event>
<event>
 6    1  0.8861680E-004  0.5493462E+03  0.7818608E-02  0.1001645E+00
         -2   -1    0    0    0  501 -0.00000000000E+00  0.00000000000E+00  0.23440293382E+04  0.23440293382E+04  0.00000000000E+00 0.  1.
          2   -1    0    0  502    0  0.00000000000E+00 -0.00000000000E+00 -0.30298971165E+03  0.30298971165E+03  0.00000000000E+00 0. -1.
    9000007    2    1    2  502    0 -0.30053926339E+03  0.22632486797E+03  0.17012811929E+02  0.54982298343E+03  0.40058592416E+03 0.  0.
    9000005    1    3    3    0    0 -0.20497247242E+03  0.19083117788E+03 -0.17654610258E+03  0.33105857371E+03  0.99999687468E+00 0.  0.
          4    1    3    3  502    0 -0.95566790975E+02  0.35493690093E+02  0.19355891450E+03  0.21876440971E+03  0.00000000000E+00 0.  1.
   -9000007    1    1    2    0  501  0.30053926339E+03 -0.22632486797E+03  0.20240268147E+04  0.20971960665E+04  0.40000000000E+03 0.  1.
<mgrwt>
<rscale>  2 0.54934620E+03</rscale>
<asrwt>0</asrwt>
<pdfrwt beam="1">  1        2 0.46613803E-01 0.54934620E+03</pdfrwt>
<pdfrwt beam="2">  1       -2 0.36061989E+00 0.54934620E+03</pdfrwt>
<totfact> 0.15854568E+00</totfact>
</mgrwt>
</event>
<event>
 6    1  0.8861680E-004  0.4817851E+03  0.7818608E-02  0.1018646E+00
          1   -1    0    0  502    0  0.00000000000E+00  0.00000000000E+00  0.20622170068E+04  0.20622170068E+04  0.00000000000E+00 0.  1.
         -1   -1    0    0    0  501 -0.00000000000E+00 -0.00000000000E+00 -0.13097789046E+03  0.13097789046E+03  0.00000000000E+00 0. -1.
    9000007    2    1    2  502    0  0.62990737196E+02  0.26120941294E+03  0.55422579171E+03  0.73430357623E+03  0.39979660265E+03 0.  0.
    9000005    1    3    3    0    0 -0.15100339378E+03  0.53085009432E+02  0.93644739496E+02  0.18544643536E+03  0.99999687468E+00 0.  0.
          4    1    3    3  502    0  0.21399413097E+03  0.20812440351E+03  0.46058105221E+03  0.54885714087E+03  0.00000000000E+00 0.  1.
   -9000007    1    1    2    0  501 -0.62990737196E+02 -0.26120941294E+03  0.13770133246E+04  0.14588913210E+04  0.40000000000E+03 0.  1.
<mgrwt>
<rscale>  2 0.48178505E+03</rscale>
<asrwt>0</asrwt>
<pdfrwt beam="1">  1        1 0.31726413E+00 0.48178505E+03</pdfrwt>
<pdfrwt beam="2">  1       -1 0.20150446E-01 0.48178505E+03</pdfrwt>
<totfact> 0.58649586E+01</totfact>
</mgrwt>
</event>
<event>
 6    1  0.8861680E-004  0.4450561E+03  0.7818608E-02  0.1029207E+00
         -1   -1    0    0    0  501 -0.00000000000E+00  0.00000000000E+00  0.17952682394E+04  0.17952682394E+04  0.00000000000E+00 0. -1.
          1   -1    0    0  502    0  0.00000000000E+00 -0.00000000000E+00 -0.15680908815E+03  0.15680908815E+03  0.00000000000E+00 0.  1.
    9000007    2    1    2  502    0 -0.52036778495E+02 -0.18789081882E+03  0.13506995344E+04  0.14221562172E+04  0.40016032754E+03 0.  0.
    9000005    1    3    3    0    0 -0.36728595542E+02 -0.31289986664E+03  0.87205370369E+03  0.92721840921E+03  0.99999687468E+00 0.  0.
          4    1    3    3  502    0 -0.15308182953E+02  0.12500904782E+03  0.47864583068E+03  0.49493780794E+03  0.00000000000E+00 0.  1.
   -9000007    1    1    2    0  501  0.52036778495E+02  0.18789081882E+03  0.28775961686E+03  0.52992111036E+03  0.40000000000E+03 0.  1.
<mgrwt>
<rscale>  2 0.44505609E+03</rscale>
<asrwt>0</asrwt>
<pdfrwt beam="1">  1        1 0.24124476E-01 0.44505609E+03</pdfrwt>
<pdfrwt beam="2">  1       -1 0.27619510E+00 0.44505609E+03</pdfrwt>
<totfact> 0.10486207E+01</totfact>
</mgrwt>
</event>
<event>
 6    1  0.8861680E-004  0.4462734E+03  0.7818608E-02  0.1028839E+00
          2   -1    0    0  502    0  0.00000000000E+00  0.00000000000E+00  0.17006008052E+04  0.17006008052E+04  0.00000000000E+00 0. -1.
         -2   -1    0    0    0  501 -0.00000000000E+00 -0.00000000000E+00 -0.12774619223E+03  0.12774619223E+03  0.00000000000E+00 0.  1.
    9000007    2    1    2  502    0 -0.19238312512E+03  0.43867346327E+02  0.52306979058E+03  0.68774023600E+03  0.40056087613E+03 0.  0.
    9000005    1    3    3    0    0 -0.14046515749E+03 -0.11044303645E+03  0.49005575991E+03  0.52161649954E+03  0.99999687468E+00 0.  0.
          4    1    3    3  502    0 -0.51917967626E+02  0.15431038278E+03  0.33014030670E+02  0.16612373646E+03  0.00000000000E+00 0.  1.
   -9000007    1    1    2    0  501  0.19238312512E+03 -0.43867346327E+02  0.10497848224E+04  0.11406067614E+04  0.40000000000E+03 0.  1.
<mgrwt>
<rscale>  2 0.44627345E+03</rscale>
<asrwt>0</asrwt>
<pdfrwt beam="1">  1        2 0.26163088E+00 0.44627345E+03</pdfrwt>
<pdfrwt beam="2">  1       -2 0.19653262E-01 0.44627345E+03</pdfrwt>
<totfact> 0.22623497E+02</totfact>
</mgrwt>
</event>
<event>
 6    1  0.8861680E-004  0.5000761E+03  0.7818608E-02  0.1013759E+00
          2   -1    0    0  502    0  0.00000000000E+00  0.00000000000E+00  0.31412252931E+04  0.31412252931E+04  0.00000000000E+00 0. -1.
         -2   -1    0    0    0  501 -0.00000000000E+00 -0.00000000000E+00 -0.79996495745E+02  0.79996495745E+02  0.00000000000E+00 0.  1.
    9000007    2    1    2  502    0  0.29860677551E+03 -0.27023799470E+02  0.14193567591E+04  0.15049350756E+04  0.40044934762E+03 0.  0.
    9000005    1    3    3    0    0  0.37093455537E+03 -0.97396397207E+02  0.12528620374E+04  0.13102453157E+04  0.99999687468E+00 0.  0.
          4    1    3    3  502    0 -0.72327779869E+02  0.70372597736E+02  0.16649472176E+03  0.19468975994E+03  0.00000000000E+00 0.  1.
   -9000007    1    1    2    0  501 -0.29860677551E+03  0.27023799470E+02  0.16418720383E+04  0.17162867133E+04  0.40000000000E+03 0. -1.
<mgrwt>
<rscale>  2 0.50007606E+03</rscale>
<asrwt>0</asrwt>
<pdfrwt beam="1">  1        2 0.48326533E+00 0.50007606E+03</pdfrwt>
<pdfrwt beam="2">  1       -2 0.12307156E-01 0.50007606E+03</pdfrwt>
<totfact> 0.76450677E+01</totfact>
</mgrwt>
</event>
<event>
 6    1  0.8861680E-004  0.5053711E+03  0.7818608E-02  0.1012386E+00
         -1   -1    0    0    0  501 -0.00000000000E+00  0.00000000000E+00  0.13104278258E+04  0.13104278258E+04  0.00000000000E+00 0. -1.
          1   -1    0    0  502    0  0.00000000000E+00 -0.00000000000E+00 -0.25647449677E+03  0.25647449677E+03  0.00000000000E+00 0.  1.
    9000007    2    1    2  502    0 -0.10387357336E+03  0.29117339192E+03  0.91072315698E+03  0.10414629392E+04  0.39957067159E+03 0.  0.
    9000005    1    3    3    0    0 -0.88807153581E+02 -0.50187554249E+02  0.48480852922E+03  0.49542487940E+03  0.99999687468E+00 0.  0.
          4    1    3    3  502    0 -0.15066419777E+02  0.34136094617E+03  0.42591462776E+03  0.54603805977E+03  0.00000000000E+00 0.  1.
   -9000007    1    1    2    0  501  0.10387357336E+03 -0.29117339192E+03  0.14323017200E+03  0.52543938335E+03  0.40000000000E+03 0.  1.
<mgrwt>
<rscale>  2 0.50537112E+03</rscale>
<asrwt>0</asrwt>
<pdfrwt beam="1">  1        1 0.39457616E-01 0.50537112E+03</pdfrwt>
<pdfrwt beam="2">  1       -1 0.20160428E+00 0.50537112E+03</pdfrwt>
<totfact> 0.16742289E+01</totfact>
</mgrwt>
</event>
<event>
 6    1  0.8861680E-004  0.4177740E+03  0.7818608E-02  0.1037793E+00
          2   -1    0    0  502    0  0.00000000000E+00  0.00000000000E+00  0.22683338356E+03  0.22683338356E+03  0.00000000000E+00 0. -1.
         -2   -1    0    0    0  501 -0.00000000000E+00 -0.00000000000E+00 -0.79022290893E+03  0.79022290893E+03  0.00000000000E+00 0.  1.
    9000007    2    1    2  502    0 -0.27530816841E+02 -0.11793240114E+03 -0.36405716020E+03  0.55402347625E+03  0.39967286526E+03 0.  0.
    9000005    1    3    3    0    0 -0.16992022453E+02  0.15806009824E+02  0.83563589625E+02  0.86731956501E+02  0.99999687468E+00 0.  0.
          4    1    3    3  502    0 -0.10538794388E+02 -0.13373841097E+03 -0.44762074983E+03  0.46729151975E+03  0.00000000000E+00 0.  1.
   -9000007    1    1    2    0  501  0.27530816841E+02  0.11793240114E+03 -0.19933236516E+03  0.46303281624E+03  0.40000000000E+03 0. -1.
<mgrwt>
<rscale>  2 0.41777404E+03</rscale>
<asrwt>0</asrwt>
<pdfrwt beam="1">  1        2 0.34897444E-01 0.41777404E+03</pdfrwt>
<pdfrwt beam="2">  1       -2 0.12157275E+00 0.41777404E+03</pdfrwt>
<totfact> 0.79397467E+01</totfact>
</mgrwt>
</event>
<event>
 6    1  0.8861680E-004  0.4875567E+03  0.7818608E-02  0.1017079E+00
         -1   -1    0    0    0  501 -0.00000000000E+00  0.00000000000E+00  0.24924825342E+03  0.24924825342E+03  0.00000000000E+00 0. -1.
          1   -1    0    0  502    0  0.00000000000E+00 -0.00000000000E+00 -0.15650068418E+04  0.15650068418E+04  0.00000000000E+00 0.  1.
    9000007    2    1    2  502    0  0.88957218257E+01  0.27874546483E+03 -0.12247602049E+04  0.13182118775E+04  0.39983349860E+03 0.  0.
    9000005    1    3    3    0    0 -0.19460963197E+02 -0.43142855459E+02  0.41569024614E+01  0.47521730793E+02  0.99999687468E+00 0.  0.
          4    1    3    3  502    0  0.28356685023E+02  0.32188832029E+03 -0.12289171073E+04  0.12706901467E+04  0.00000000000E+00 0.  1.
   -9000007    1    1    2    0  501 -0.88957218257E+01 -0.27874546483E+03 -0.90998383531E+02  0.49604321771E+03  0.40000000000E+03 0. -1.
<mgrwt>
<rscale>  2 0.48755674E+03</rscale>
<asrwt>0</asrwt>
<pdfrwt beam="1">  1        1 0.24077029E+00 0.48755674E+03</pdfrwt>
<pdfrwt beam="2">  1       -1 0.38345884E-01 0.48755674E+03</pdfrwt>
<totfact> 0.41519650E+01</totfact>
</mgrwt>
</event>
<event>
 6    1  0.8861680E-004  0.4987799E+03  0.7818608E-02  0.1014098E+00
          2   -1    0    0  502    0  0.00000000000E+00  0.00000000000E+00  0.48801387007E+03  0.48801387007E+03  0.00000000000E+00 0. -1.
         -2   -1    0    0    0  501 -0.00000000000E+00 -0.00000000000E+00 -0.53926032475E+03  0.53926032475E+03  0.00000000000E+00 0.  1.
    9000007    2    1    2  502    0 -0.27654666172E+02  0.29671727191E+03 -0.14570955840E+03  0.51960383133E+03  0.39993867794E+03 0.  0.
    9000005    1    3    3    0    0 -0.12831783881E+03 -0.28994517701E+02  0.31657249808E+02  0.13531197757E+03  0.99999687468E+00 0.  0.
          4    1    3    3  502    0  0.10066317264E+03  0.32571178961E+03 -0.17736680821E+03  0.38429185376E+03  0.00000000000E+00 0.  1.
   -9000007    1    1    2    0  501  0.27654666172E+02 -0.29671727191E+03  0.94463103719E+02  0.50767036350E+03  0.40000000000E+03 0. -1.
<mgrwt>
<rscale>  2 0.49877990E+03</rscale>
<asrwt>0</asrwt>
<pdfrwt beam="1">  1        2 0.75079057E-01 0.49877990E+03</pdfrwt>
<pdfrwt beam="2">  1       -2 0.82963127E-01 0.49877990E+03</pdfrwt>
<totfact> 0.82956291E+01</totfact>
</mgrwt>
</event>
<event>
 6    1  0.8861680E-004  0.5563402E+03  0.7818608E-02  0.1000037E+00
          1   -1    0    0  502    0  0.00000000000E+00  0.00000000000E+00  0.19960868591E+04  0.19960868591E+04  0.00000000000E+00 0.  1.
         -1   -1    0    0    0  501 -0.00000000000E+00 -0.00000000000E+00 -0.15639943579E+03  0.15639943579E+03  0.00000000000E+00 0. -1.
    9000007    2    1    2  502    0 -0.24785113485E+03 -0.29697020627E+03  0.10192619207E+04  0.11611642010E+04  0.39973234830E+03 0.  0.
    9000005    1    3    3    0    0  0.10899537707E+03 -0.53336764523E+02  0.27471629655E+03  0.30032456819E+03  0.99999687468E+00 0.  0.
          4    1    3    3  502    0 -0.35684651192E+03 -0.24363344175E+03  0.74454562419E+03  0.86083963286E+03  0.00000000000E+00 0.  1.
   -9000007    1    1    2    0  501  0.24785113485E+03  0.29697020627E+03  0.82042550256E+03  0.99132209382E+03  0.40000000000E+03 0. -1.
<mgrwt>
<rscale>  2 0.55634022E+03</rscale>
<asrwt>0</asrwt>
<pdfrwt beam="1">  1        1 0.30709027E+00 0.55634022E+03</pdfrwt>
<pdfrwt beam="2">  1       -1 0.24061453E-01 0.55634022E+03</pdfrwt>
<totfact> 0.47623583E+01</totfact>
</mgrwt>
</event>
<event>
 6    1  0.8861680E-004  0.4189366E+03  0.7818608E-02  0.1037413E+00
         -2   -1    0    0    0  501 -0.00000000000E+00  0.00000000000E+00  0.13366340212E+03  0.13366340212E+03  0.00000000000E+00 0.  1.
          2   -1    0    0  502    0  0.00000000000E+00 -0.00000000000E+00 -0.13140313926E+04  0.13140313926E+04  0.00000000000E+00 0. -1.
    9000007    2    1    2  502    0  0.51968326229E+02 -0.11338678726E+03 -0.57040868715E+03  0.70768964463E+03  0.39987659632E+03 0.  0.
    9000005    1    3    3    0    0 -0.83747488733E+02  0.57144322170E+02 -0.44465387145E+03  0.45606707929E+03  0.99999687468E+00 0.  0.
          4    1    3    3  502    0  0.13571581496E+03 -0.17053110943E+03 -0.12575481570E+03  0.25162256534E+03  0.00000000000E+00 0.  1.
   -9000007    1    1    2    0  501 -0.51968326229E+02  0.11338678726E+03 -0.60995930334E+03  0.74000515011E+03  0.40000000000E+03 0.  1.
<mgrwt>
<rscale>  2 0.41893664E+03</rscale>
<asrwt>0</asrwt>
<pdfrwt beam="1">  1        2 0.20215868E+00 0.41893664E+03</pdfrwt>
<pdfrwt beam="2">  1       -2 0.20563600E-01 0.41893664E+03</pdfrwt>
<totfact> 0.34146713E+02</totfact>
</mgrwt>
</event>
<event>
 6    1  0.8861680E-004  0.4027684E+03  0.7818608E-02  0.1042825E+00
         -1   -1    0    0    0  501 -0.00000000000E+00  0.00000000000E+00  0.47602873285E+03  0.47602873285E+03  0.00000000000E+00 0. -1.
          1   -1    0    0  502    0  0.00000000000E+00 -0.00000000000E+00 -0.38077706682E+03  0.38077706682E+03  0.00000000000E+00 0.  1.
    9000007    2    1    2  502    0 -0.34710377861E+02  0.28247287132E+02 -0.91185360201E+02  0.41322775207E+03  0.40054922994E+03 0.  0.
    9000005    1    3    3    0    0  0.96987009553E+02 -0.15065302157E+03 -0.59703443127E+02  0.18886056774E+03  0.99999687468E+00 0.  0.
          4    1    3    3  502    0 -0.13169738741E+03  0.17890030870E+03 -0.31481917074E+02  0.22436718434E+03  0.00000000000E+00 0.  1.
   -9000007    1    1    2    0  501  0.34710377861E+02 -0.28247287132E+02  0.18643702623E+03  0.44357804760E+03  0.40000000000E+03 0. -1.
<mgrwt>
<rscale>  2 0.40276844E+03</rscale>
<asrwt>0</asrwt>
<pdfrwt beam="1">  1        1 0.58581087E-01 0.40276844E+03</pdfrwt>
<pdfrwt beam="2">  1       -1 0.73235190E-01 0.40276844E+03</pdfrwt>
<totfact> 0.12562893E+02</totfact>
</mgrwt>
</event>
<event>
 6    1  0.8861680E-004  0.4615052E+03  0.7818608E-02  0.1024346E+00
          2   -1    0    0  502    0  0.00000000000E+00  0.00000000000E+00  0.15041770035E+04  0.15041770035E+04  0.00000000000E+00 0. -1.
         -2   -1    0    0    0  501 -0.00000000000E+00 -0.00000000000E+00 -0.15317307672E+03  0.15317307672E+03  0.00000000000E+00 0.  1.
    9000007    2    1    2  502    0  0.10192188290E+03  0.20873692170E+03  0.44627807191E+03  0.64123589119E+03  0.39756782816E+03 0.  0.
    9000005    1    3    3    0    0  0.17882430912E+03  0.89852436939E+02  0.45734339514E+03  0.49921495874E+03  0.99999687468E+00 0.  0.
          4    1    3    3  502    0 -0.76902426225E+02  0.11888448476E+03 -0.11065323229E+02  0.14202093245E+03  0.00000000000E+00 0.  1.
   -9000007    1    1    2    0  501 -0.10192188290E+03 -0.20873692170E+03  0.90472585488E+03  0.10161141890E+04  0.40000000000E+03 0. -1.
<mgrwt>
<rscale>  2 0.46150520E+03</rscale>
<asrwt>0</asrwt>
<pdfrwt beam="1">  1        2 0.23141184E+00 0.46150520E+03</pdfrwt>
<pdfrwt beam="2">  1       -2 0.23565090E-01 0.46150520E+03</pdfrwt>
<totfact> 0.20990556E+02</totfact>
</mgrwt>
</event>
<event>
 6    1  0.8861680E-004  0.4064720E+03  0.7818608E-02  0.1041561E+00
         -2   -1    0    0    0  501 -0.00000000000E+00  0.00000000000E+00  0.63152095184E+02  0.63152095184E+02  0.00000000000E+00 0. -1.
          2   -1    0    0  502    0  0.00000000000E+00 -0.00000000000E+00 -0.26894514447E+04  0.26894514447E+04  0.00000000000E+00 0.  1.
    9000007    2    1    2  502    0 -0.73169680646E+02  0.99395642225E+00 -0.10855127467E+04  0.11590608999E+04  0.39966167724E+03 0.  0.
    9000005    1    3    3    0    0 -0.16895010601E+02 -0.17076738376E+03 -0.24365932759E+03  0.29802316799E+03  0.99999687468E+00 0.  0.
          4    1    3    3  502    0 -0.56274670045E+02  0.17176134018E+03 -0.84185341909E+03  0.86103773187E+03  0.00000000000E+00 0.  1.
   -9000007    1    1    2    0  501  0.73169680646E+02 -0.99395642225E+00 -0.15407866029E+04  0.15935426401E+04  0.40000000000E+03 0.  1.
<mgrwt>
<rscale>  2 0.40647197E+03</rscale>
<asrwt>0</asrwt>
<pdfrwt beam="1">  1        2 0.41376177E+00 0.40647197E+03</pdfrwt>
<pdfrwt beam="2">  1       -2 0.97157068E-02 0.40647197E+03</pdfrwt>
<totfact> 0.21233246E+02</totfact>
</mgrwt>
</event>
<event>
 6    1  0.8861680E-004  0.5194608E+03  0.7818608E-02  0.1008821E+00
         -2   -1    0    0    0  501 -0.00000000000E+00  0.00000000000E+00  0.51886611554E+03  0.51886611554E+03  0.00000000000E+00 0.  1.
          2   -1    0    0  502    0  0.00000000000E+00 -0.00000000000E+00 -0.53991591698E+03  0.53991591698E+03  0.00000000000E+00 0. -1.
    9000007    2    1    2  502    0  0.19734372212E+03  0.26633776324E+03 -0.11205535027E+03  0.53137103652E+03  0.39989802217E+03 0.  0.
    9000005    1    3    3    0    0  0.20366452653E+03  0.25508620506E+03 -0.23850184996E+03  0.40426766357E+03  0.99999687468E+00 0.  0.
          4    1    3    3  502    0 -0.63208044109E+01  0.11251558180E+02  0.12644649969E+03  0.12710337295E+03  0.00000000000E+00 0.  1.
   -9000007    1    1    2    0  501 -0.19734372212E+03 -0.26633776324E+03  0.91005548820E+02  0.52741099600E+03  0.40000000000E+03 0. -1.
<mgrwt>
<rscale>  2 0.51946084E+03</rscale>
<asrwt>0</asrwt>
<pdfrwt beam="1">  1        2 0.83063987E-01 0.51946084E+03</pdfrwt>
<pdfrwt beam="2">  1       -2 0.79825556E-01 0.51946084E+03</pdfrwt>
<totfact> 0.80357847E+01</totfact>
</mgrwt>
</event>
<event>
 6    1  0.8861680E-004  0.4495522E+03  0.7818608E-02  0.1027856E+00
         -2   -1    0    0    0  501 -0.00000000000E+00  0.00000000000E+00  0.22186595155E+03  0.22186595155E+03  0.00000000000E+00 0.  1.
          2   -1    0    0  502    0  0.00000000000E+00 -0.00000000000E+00 -0.11615285275E+04  0.11615285275E+04  0.00000000000E+00 0. -1.
    9000007    2    1    2  502    0 -0.16008447805E+03  0.12854864105E+03 -0.79108723702E+03  0.90986895223E+03  0.39986335219E+03 0.  0.
    9000005    1    3    3    0    0 -0.18205616751E+03  0.19149342289E+03 -0.80009346312E+03  0.84259404749E+03  0.99999687468E+00 0.  0.
          4    1    3    3  502    0  0.21971689464E+02 -0.62944781846E+02  0.90062260970E+01  0.67274904742E+02  0.00000000000E+00 0.  1.
   -9000007    1    1    2    0  501  0.16008447805E+03 -0.12854864105E+03 -0.14857533894E+03  0.47352552684E+03  0.40000000000E+03 0.  1.
<mgrwt>
<rscale>  2 0.44955215E+03</rscale>
<asrwt>0</asrwt>
<pdfrwt beam="1">  1        2 0.17869669E+00 0.44955215E+03</pdfrwt>
<pdfrwt beam="2">  1       -2 0.34133224E-01 0.44955215E+03</pdfrwt>
<totfact> 0.16683530E+02</totfact>
</mgrwt>
</event>
<event>
 6    1  0.8861680E-004  0.4487975E+03  0.7818608E-02  0.1028081E+00
          2   -1    0    0  502    0  0.00000000000E+00  0.00000000000E+00  0.59047750538E+03  0.59047750538E+03  0.00000000000E+00 0. -1.
         -2   -1    0    0    0  501 -0.00000000000E+00 -0.00000000000E+00 -0.37062804078E+03  0.37062804078E+03  0.00000000000E+00 0.  1.
    9000007    2    1    2  502    0  0.20366266724E+03 -0.17607447328E+02 -0.25779357178E+02  0.44912700919E+03  0.39907642239E+03 0.  0.
    9000005    1    3    3    0    0 -0.60776550016E+02 -0.11704033974E+03  0.71890711755E+02  0.15020487539E+03  0.99999687468E+00 0.  0.
          4    1    3    3  502    0  0.26443921725E+03  0.99432892415E+02 -0.97670068932E+02  0.29892213381E+03  0.00000000000E+00 0.  1.
   -9000007    1    1    2    0  501 -0.20366266724E+03  0.17607447328E+02  0.24562882178E+03  0.51197853697E+03  0.40000000000E+03 0. -1.
<mgrwt>
<rscale>  2 0.44879746E+03</rscale>
<asrwt>0</asrwt>
<pdfrwt beam="1">  1        2 0.90842693E-01 0.44879746E+03</pdfrwt>
<pdfrwt beam="2">  1       -2 0.57019698E-01 0.44879746E+03</pdfrwt>
<totfact> 0.15010635E+02</totfact>
</mgrwt>
</event>
<event>
 6    1  0.8861680E-004  0.4045985E+03  0.7818608E-02  0.1042199E+00
         -2   -1    0    0    0  501 -0.00000000000E+00  0.00000000000E+00  0.19821767380E+03  0.19821767380E+03  0.00000000000E+00 0. -1.
          2   -1    0    0  502    0  0.00000000000E+00 -0.00000000000E+00 -0.13145844106E+04  0.13145844106E+04  0.00000000000E+00 0.  1.
    9000007    2    1    2  502    0 -0.58501145299E+02  0.25728971007E+02 -0.96571880019E+02  0.41550271146E+03  0.39903885935E+03 0.  0.
    9000005    1    3    3    0    0  0.29013491010E+01 -0.60030957231E+02  0.14224871014E+03  0.15442742367E+03  0.99999687468E+00 0.  0.
          4    1    3    3  502    0 -0.61402494400E+02  0.85759928238E+02 -0.23882059016E+03  0.26107528779E+03  0.00000000000E+00 0.  1.
   -9000007    1    1    2    0  501  0.58501145299E+02 -0.25728971007E+02 -0.10197948568E+04  0.10972993729E+04  0.40000000000E+03 0.  1.
<mgrwt>
<rscale>  2 0.40459847E+03</rscale>
<asrwt>0</asrwt>
<pdfrwt beam="1">  1        2 0.20224375E+00 0.40459847E+03</pdfrwt>
<pdfrwt beam="2">  1       -2 0.30495027E-01 0.40459847E+03</pdfrwt>
<totfact> 0.16899331E+02</totfact>
</mgrwt>
</event>
<event>
 6    1  0.8861680E-004  0.4048404E+03  0.7818608E-02  0.1042116E+00
          4   -1    0    0  502    0  0.00000000000E+00  0.00000000000E+00  0.23094312656E+03  0.23094312656E+03  0.00000000000E+00 0. -1.
         -4   -1    0    0    0  501 -0.00000000000E+00 -0.00000000000E+00 -0.10319299866E+04  0.10319299866E+04  0.00000000000E+00 0.  1.
    9000007    2    1    2  502    0  0.66075476234E+02 -0.13253076045E+01 -0.47239670751E+02  0.40700948479E+03  0.39882002109E+03 0.  0.
    9000005    1    3    3    0    0  0.91549837411E+02  0.18503151489E+03  0.19656721620E+02  0.20737748415E+03  0.99999687468E+00 0.  0.
          4    1    3    3  502    0 -0.25474361177E+02 -0.18635682250E+03 -0.66896392371E+02  0.19963200064E+03  0.00000000000E+00 0.  1.
   -9000007    1    1    2    0  501 -0.66075476234E+02  0.13253076045E+01 -0.75374718932E+03  0.85586362840E+03  0.40000000000E+03 0.  1.
<mgrwt>
<rscale>  2 0.40484040E+03</rscale>
<asrwt>0</asrwt>
<pdfrwt beam="1">  1        4 0.35529712E-01 0.40484040E+03</pdfrwt>
<pdfrwt beam="2">  1       -4 0.15875846E+00 0.40484040E+03</pdfrwt>
<totfact> 0.38533903E+00</totfact>
</mgrwt>
</event>
<event>
 6    1  0.8861680E-004  0.4591896E+03  0.7818608E-02  0.1025017E+00
         -2   -1    0    0    0  501 -0.00000000000E+00  0.00000000000E+00  0.17932120618E+03  0.17932120618E+03  0.00000000000E+00 0. -1.
          2   -1    0    0  502    0  0.00000000000E+00 -0.00000000000E+00 -0.12619022239E+04  0.12619022239E+04  0.00000000000E+00 0.  1.
    9000007    2    1    2  502    0  0.10966893289E+03  0.19674388445E+03 -0.35325710803E+03  0.57945269714E+03  0.40029915430E+03 0.  0.
    9000005    1    3    3    0    0  0.21462668779E+03  0.21148243829E+03 -0.12202108478E+03  0.32508396137E+03  0.99999687468E+00 0.  0.
          4    1    3    3  502    0 -0.10495775490E+03 -0.14738553840E+02 -0.23123602325E+03  0.25436873576E+03  0.00000000000E+00 0.  1.
   -9000007    1    1    2    0  501 -0.10966893289E+03 -0.19674388445E+03 -0.72932390965E+03  0.86177073291E+03  0.40000000000E+03 0.  1.
<mgrwt>
<rscale>  2 0.45918962E+03</rscale>
<asrwt>0</asrwt>
<pdfrwt beam="1">  1        2 0.19413880E+00 0.45918962E+03</pdfrwt>
<pdfrwt beam="2">  1       -2 0.27587878E-01 0.45918962E+03</pdfrwt>
<totfact> 0.21601815E+02</totfact>
</mgrwt>
</event>
<event>
 6    1  0.8861680E-004  0.4976432E+03  0.7818608E-02  0.1014396E+00
          1   -1    0    0  502    0  0.00000000000E+00  0.00000000000E+00  0.10439261060E+03  0.10439261060E+03  0.00000000000E+00 0. -1.
         -1   -1    0    0    0  501 -0.00000000000E+00 -0.00000000000E+00 -0.26126597705E+04  0.26126597705E+04  0.00000000000E+00 0.  1.
    9000007    2    1    2  502    0  0.23550852392E+02  0.29506473127E+03 -0.16662766837E+04  0.17390105618E+04  0.40007737890E+03 0.  0.
    9000005    1    3    3    0    0 -0.19126465953E+02 -0.74005948206E+02 -0.69348154377E+03  0.69768212935E+03  0.99999687468E+00 0.  0.
          4    1    3    3  502    0  0.42677318344E+02  0.36907067948E+03 -0.97279513990E+03  0.10413284324E+04  0.00000000000E+00 0.  1.
   -9000007    1    1    2    0  501 -0.23550852392E+02 -0.29506473127E+03 -0.84199047622E+03  0.97804181932E+03  0.40000000000E+03 0. -1.
<mgrwt>
<rscale>  2 0.49764324E+03</rscale>
<asrwt>0</asrwt>
<pdfrwt beam="1">  1        1 0.16060402E-01 0.49764324E+03</pdfrwt>
<pdfrwt beam="2">  1       -1 0.40194765E+00 0.49764324E+03</pdfrwt>
<totfact> 0.27150042E+00</totfact>
</mgrwt>
</event>
<event>
 6    1  0.8861680E-004  0.4121297E+03  0.7818608E-02  0.1039659E+00
         -2   -1    0    0    0  501 -0.00000000000E+00  0.00000000000E+00  0.74259447752E+02  0.74259447752E+02  0.00000000000E+00 0. -1.
          2   -1    0    0  502    0  0.00000000000E+00 -0.00000000000E+00 -0.24296718252E+04  0.24296718252E+04  0.00000000000E+00 0.  1.
    9000007    2    1    2  502    0 -0.30420766495E+02  0.93293451998E+02 -0.14815305936E+04  0.15378575370E+04  0.40055438210E+03 0.  0.
    9000005    1    3    3    0    0  0.15597184388E+03  0.20167804767E+02 -0.29263770264E+03  0.33222248785E+03  0.99999687468E+00 0.  0.
          4    1    3    3  502    0 -0.18639261038E+03  0.73125647231E+02 -0.11888928910E+04  0.12056350491E+04  0.00000000000E+00 0.  1.
   -9000007    1    1    2    0  501  0.30420766495E+02 -0.93293451998E+02 -0.87388178387E+03  0.96607373600E+03  0.40000000000E+03 0. -1.
<mgrwt>
<rscale>  2 0.41212966E+03</rscale>
<asrwt>0</asrwt>
<pdfrwt beam="1">  1        2 0.37379563E+00 0.41212966E+03</pdfrwt>
<pdfrwt beam="2">  1       -2 0.11424531E-01 0.41212966E+03</pdfrwt>
<totfact> 0.22823073E+02</totfact>
</mgrwt>
</event>
<event>
 6    1  0.8861680E-004  0.4712318E+03  0.7818608E-02  0.1021573E+00
          2   -1    0    0  502    0  0.00000000000E+00  0.00000000000E+00  0.11468819773E+04  0.11468819773E+04  0.00000000000E+00 0. -1.
         -2   -1    0    0    0  501 -0.00000000000E+00 -0.00000000000E+00 -0.20541656907E+03  0.20541656907E+03  0.00000000000E+00 0.  1.
    9000007    2    1    2  502    0  0.84020741425E+01  0.24933711516E+03  0.63258435550E+03  0.78869665089E+03  0.39954955695E+03 0.  0.
    9000005    1    3    3    0    0  0.16783980056E+03  0.21619405098E+03  0.52924746942E+03  0.59583047104E+03  0.99999687468E+00 0.  0.
          4    1    3    3  502    0 -0.15943772641E+03  0.33143064173E+02  0.10333688608E+03  0.19286617985E+03  0.00000000000E+00 0.  1.
   -9000007    1    1    2    0  501 -0.84020741425E+01 -0.24933711516E+03  0.30888105272E+03  0.56360189547E+03  0.40000000000E+03 0.  1.
<mgrwt>
<rscale>  2 0.47123184E+03</rscale>
<asrwt>0</asrwt>
<pdfrwt beam="1">  1        2 0.17644338E+00 0.47123184E+03</pdfrwt>
<pdfrwt beam="2">  1       -2 0.31602550E-01 0.47123184E+03</pdfrwt>
<totfact> 0.19608601E+02</totfact>
</mgrwt>
</event>
<event>
 6    1  0.8861680E-004  0.6725138E+03  0.7818608E-02  0.9765427E-01
          2   -1    0    0  502    0  0.00000000000E+00  0.00000000000E+00  0.18047843338E+04  0.18047843338E+04  0.00000000000E+00 0.  1.
         -2   -1    0    0    0  501 -0.00000000000E+00 -0.00000000000E+00 -0.51595271046E+03  0.51595271046E+03  0.00000000000E+00 0. -1.
    9000007    2    1    2  502    0 -0.50011337155E+03 -0.20548893976E+03 -0.18776212590E+03  0.69818714085E+03  0.39983944147E+03 0.  0.
    9000005    1    3    3    0    0 -0.47565524078E+03 -0.10949577286E+02 -0.11934331975E+03  0.49052179288E+03  0.99999687468E+00 0.  0.
          4    1    3    3  502    0 -0.24458130771E+02 -0.19453936247E+03 -0.68418806155E+02  0.20766534797E+03  0.00000000000E+00 0.  1.
   -9000007    1    1    2    0  501  0.50011337155E+03  0.20548893976E+03  0.14765937493E+04  0.16225499034E+04  0.40000000000E+03 0.  1.
<mgrwt>
<rscale>  2 0.67251385E+03</rscale>
<asrwt>0</asrwt>
<pdfrwt beam="1">  1        2 0.27765912E+00 0.67251385E+03</pdfrwt>
<pdfrwt beam="2">  1       -2 0.79377341E-01 0.67251385E+03</pdfrwt>
<totfact> 0.12579747E+01</totfact>
</mgrwt>
</event>
<event>
 6    1  0.8861680E-004  0.4101553E+03  0.7818608E-02  0.1040319E+00
         -2   -1    0    0    0  501 -0.00000000000E+00  0.00000000000E+00  0.62168818846E+02  0.62168818846E+02  0.00000000000E+00 0. -1.
          2   -1    0    0  502    0  0.00000000000E+00 -0.00000000000E+00 -0.27564206173E+04  0.27564206173E+04  0.00000000000E+00 0.  1.
    9000007    2    1    2  502    0 -0.76362417007E+02 -0.50895295670E+02 -0.15370104429E+04  0.15907339459E+04  0.39951449947E+03 0.  0.
    9000005    1    3    3    0    0 -0.11812142368E+03  0.12254055889E+03 -0.11738323371E+04  0.11861080115E+04  0.99999687468E+00 0.  0.
          4    1    3    3  502    0  0.41759006671E+02 -0.17343585456E+03 -0.36317810577E+03  0.40462593441E+03  0.00000000000E+00 0.  1.
   -9000007    1    1    2    0  501  0.76362417007E+02  0.50895295670E+02 -0.11572413555E+04  0.12278554902E+04  0.40000000000E+03 0. -1.
<mgrwt>
<rscale>  2 0.41015528E+03</rscale>
<asrwt>0</asrwt>
<pdfrwt beam="1">  1        2 0.42406462E+00 0.41015528E+03</pdfrwt>
<pdfrwt beam="2">  1       -2 0.95644357E-02 0.41015528E+03</pdfrwt>
<totfact> 0.19918443E+02</totfact>
</mgrwt>
</event>
<event>
 6    1  0.8861680E-004  0.4115389E+03  0.7818608E-02  0.1039856E+00
          2   -1    0    0  502    0  0.00000000000E+00  0.00000000000E+00  0.76886030073E+03  0.76886030073E+03  0.00000000000E+00 0. -1.
         -2   -1    0    0    0  501 -0.00000000000E+00 -0.00000000000E+00 -0.24946517826E+03  0.24946517826E+03  0.00000000000E+00 0.  1.
    9000007    2    1    2  502    0 -0.84923748579E+02  0.50310414447E+02  0.85287390330E+02  0.41983345401E+03  0.39905263973E+03 0.  0.
    9000005    1    3    3    0    0  0.35159048467E+02 -0.16270537581E+03  0.30378345278E+02  0.16921300737E+03  0.99999687468E+00 0.  0.
          4    1    3    3  502    0 -0.12008279705E+03  0.21301579026E+03  0.54909045052E+02  0.25062044664E+03  0.00000000000E+00 0.  1.
   -9000007    1    1    2    0  501  0.84923748579E+02 -0.50310414447E+02  0.43410773213E+03  0.59849202499E+03  0.40000000000E+03 0. -1.
<mgrwt>
<rscale>  2 0.41153890E+03</rscale>
<asrwt>0</asrwt>
<pdfrwt beam="1">  1        2 0.11828620E+00 0.41153890E+03</pdfrwt>
<pdfrwt beam="2">  1       -2 0.38379259E-01 0.41153890E+03</pdfrwt>
<totfact> 0.23968565E+02</totfact>
</mgrwt>
</event>
<event>
 6    1  0.8861680E-004  0.5346852E+03  0.7818608E-02  0.1005102E+00
          1   -1    0    0  502    0  0.00000000000E+00  0.00000000000E+00  0.53414438488E+03  0.53414438488E+03  0.00000000000E+00 0.  1.
         -1   -1    0    0    0  501 -0.00000000000E+00 -0.00000000000E+00 -0.53532523174E+03  0.53532523174E+03  0.00000000000E+00 0. -1.
    9000007    2    1    2  502    0 -0.27047594904E+03 -0.22920404501E+03  0.66640829773E+01  0.53491066179E+03  0.40049128935E+03 0.  0.
    9000005    1    3    3    0    0 -0.28432523558E+03 -0.24390481704E+03  0.14010420829E+03  0.39995073263E+03  0.99999687468E+00 0.  0.
          4    1    3    3  502    0  0.13849286540E+02  0.14700772028E+02 -0.13344012531E+03  0.13495992916E+03  0.00000000000E+00 0.  1.
   -9000007    1    1    2    0  501  0.27047594904E+03  0.22920404501E+03 -0.78449298392E+01  0.53455895482E+03  0.40000000000E+03 0. -1.
<mgrwt>
<rscale>  2 0.53468524E+03</rscale>
<asrwt>0</asrwt>
<pdfrwt beam="1">  1        1 0.82176059E-01 0.53468524E+03</pdfrwt>
<pdfrwt beam="2">  1       -1 0.82357728E-01 0.53468524E+03</pdfrwt>
<totfact> 0.61715281E+01</totfact>
</mgrwt>
</event>
<event>
 6    1  0.8861680E-004  0.4376959E+03  0.7818608E-02  0.1031456E+00
          2   -1    0    0  502    0  0.00000000000E+00  0.00000000000E+00  0.35742103251E+04  0.35742103251E+04  0.00000000000E+00 0.  1.
         -2   -1    0    0    0  501 -0.00000000000E+00 -0.00000000000E+00 -0.60094094596E+02  0.60094094596E+02  0.00000000000E+00 0. -1.
    9000007    2    1    2  502    0 -0.11549078815E+03 -0.13602059492E+03  0.11586300024E+04  0.12384423420E+04  0.39934474792E+03 0.  0.
    9000005    1    3    3    0    0 -0.10875094805E+03  0.72273970880E+02  0.11435554387E+03  0.17357559153E+03  0.99999687468E+00 0.  0.
          4    1    3    3  502    0 -0.67398401031E+01 -0.20829456580E+03  0.10442744585E+04  0.10648667505E+04  0.00000000000E+00 0.  1.
   -9000007    1    1    2    0  501  0.11549078815E+03  0.13602059492E+03  0.23554862280E+04  0.23958620776E+04  0.40000000000E+03 0.  1.
<mgrwt>
<rscale>  2 0.43769585E+03</rscale>
<asrwt>0</asrwt>
<pdfrwt beam="1">  1        2 0.54987835E+00 0.43769585E+03</pdfrwt>
<pdfrwt beam="2">  1       -2 0.92452481E-02 0.43769585E+03</pdfrwt>
<totfact> 0.64485325E+01</totfact>
</mgrwt>
</event>
<event>
 6    1  0.8861680E-004  0.5725358E+03  0.7818608E-02  0.9964083E-01
          2   -1    0    0  502    0  0.00000000000E+00  0.00000000000E+00  0.42090780239E+03  0.42090780239E+03  0.00000000000E+00 0. -1.
         -2   -1    0    0    0  501 -0.00000000000E+00 -0.00000000000E+00 -0.11582911104E+04  0.11582911104E+04  0.00000000000E+00 0.  1.
    9000007    2    1    2  502    0 -0.34795953735E+03  0.21713232514E+03 -0.82049761180E+03  0.10002945392E+04  0.39893677186E+03 0.  0.
    9000005    1    3    3    0    0  0.72265016440E+02  0.47860918238E+01 -0.26365243486E+02  0.77079603877E+02  0.99999687468E+00 0.  0.
          4    1    3    3  502    0 -0.42022455379E+03  0.21234623331E+03 -0.79413236831E+03  0.92321493533E+03  0.00000000000E+00 0.  1.
   -9000007    1    1    2    0  501  0.34795953735E+03 -0.21713232514E+03  0.83114303793E+02  0.57890437358E+03  0.40000000000E+03 0. -1.
<mgrwt>
<rscale>  2 0.57253584E+03</rscale>
<asrwt>0</asrwt>
<pdfrwt beam="1">  1        2 0.64755046E-01 0.57253584E+03</pdfrwt>
<pdfrwt beam="2">  1       -2 0.17819863E+00 0.57253584E+03</pdfrwt>
<totfact> 0.14499687E+01</totfact>
</mgrwt>
</event>
<event>
 6    1  0.8861680E-004  0.4389692E+03  0.7818608E-02  0.1031064E+00
         -1   -1    0    0    0  501 -0.00000000000E+00  0.00000000000E+00  0.49763469612E+03  0.49763469612E+03  0.00000000000E+00 0.  1.
          1   -1    0    0  502    0  0.00000000000E+00 -0.00000000000E+00 -0.56032502375E+03  0.56032502375E+03  0.00000000000E+00 0. -1.
    9000007    2    1    2  502    0 -0.11902136096E+03  0.13620341562E+03 -0.32536214809E+03  0.54637987268E+03  0.39994122452E+03 0.  0.
    9000005    1    3    3    0    0 -0.22243210564E+03 -0.20847834151E+02 -0.26982543126E+03  0.35031048679E+03  0.99999687468E+00 0.  0.
          4    1    3    3  502    0  0.10341074468E+03  0.15705124977E+03 -0.55536716834E+02  0.19606938590E+03  0.00000000000E+00 0.  1.
   -9000007    1    1    2    0  501  0.11902136096E+03 -0.13620341562E+03  0.26267182046E+03  0.51157984719E+03  0.40000000000E+03 0.  1.
<mgrwt>
<rscale>  2 0.43896918E+03</rscale>
<asrwt>0</asrwt>
<pdfrwt beam="1">  1        1 0.86203850E-01 0.43896918E+03</pdfrwt>
<pdfrwt beam="2">  1       -1 0.76559184E-01 0.43896918E+03</pdfrwt>
<totfact> 0.68119735E+01</totfact>
</mgrwt>
</event>
<event>
 6    1  0.8861680E-004  0.5244296E+03  0.7818608E-02  0.1007592E+00
         -2   -1    0    0    0  501 -0.00000000000E+00  0.00000000000E+00  0.10401732616E+03  0.10401732616E+03  0.00000000000E+00 0.  1.
          2   -1    0    0  502    0  0.00000000000E+00 -0.00000000000E+00 -0.40345748966E+04  0.40345748966E+04  0.00000000000E+00 0. -1.
    9000007    2    1    2  502    0 -0.15401653328E+03 -0.30202219606E+03 -0.75065883577E+03  0.91575271976E+03  0.40021976036E+03 0.  0.
    9000005    1    3    3    0    0 -0.27976200961E+02 -0.13410960755E+03 -0.68085038974E+03  0.69449716188E+03  0.99999687468E+00 0.  0.
          4    1    3    3  502    0 -0.12604033232E+03 -0.16791258852E+03 -0.69808446031E+02  0.22125555787E+03  0.00000000000E+00 0.  1.
   -9000007    1    1    2    0  501  0.15401653328E+03  0.30202219606E+03 -0.31798987347E+04  0.32228395031E+04  0.40000000000E+03 0. -1.
<mgrwt>
<rscale>  2 0.52442961E+03</rscale>
<asrwt>0</asrwt>
<pdfrwt beam="1">  1        2 0.62070379E+00 0.52442961E+03</pdfrwt>
<pdfrwt beam="2">  1       -2 0.16002667E-01 0.52442961E+03</pdfrwt>
<totfact> 0.11723134E+01</totfact>
</mgrwt>
</event>
<event>
 6    1  0.8861680E-004  0.4838958E+03  0.7818608E-02  0.1018070E+00
         -2   -1    0    0    0  501 -0.00000000000E+00  0.00000000000E+00  0.34881662486E+03  0.34881662486E+03  0.00000000000E+00 0.  1.
          2   -1    0    0  502    0  0.00000000000E+00 -0.00000000000E+00 -0.91836314561E+03  0.91836314561E+03  0.00000000000E+00 0. -1.
    9000007    2    1    2  502    0  0.97141406485E+01 -0.27262149626E+03 -0.61329561802E+03  0.78104107805E+03  0.39934547171E+03 0.  0.
    9000005    1    3    3    0    0  0.18081887349E+03 -0.98238243578E+02 -0.14148636070E+03  0.24973107090E+03  0.99999687468E+00 0.  0.
          4    1    3    3  502    0 -0.17110473284E+03 -0.17438325268E+03 -0.47180925732E+03  0.53131000716E+03  0.00000000000E+00 0.  1.
   -9000007    1    1    2    0  501 -0.97141406485E+01  0.27262149626E+03  0.43749097258E+02  0.48613869241E+03  0.40000000000E+03 0. -1.
<mgrwt>
<rscale>  2 0.48389575E+03</rscale>
<asrwt>0</asrwt>
<pdfrwt beam="1">  1        2 0.14128664E+00 0.48389575E+03</pdfrwt>
<pdfrwt beam="2">  1       -2 0.53664097E-01 0.48389575E+03</pdfrwt>
<totfact> 0.96699354E+01</totfact>
</mgrwt>
</event>
<event>
 6    1  0.8861680E-004  0.4557370E+03  0.7818608E-02  0.1026025E+00
         -1   -1    0    0    0  501 -0.00000000000E+00  0.00000000000E+00  0.52107804105E+02  0.52107804105E+02  0.00000000000E+00 0.  1.
          1   -1    0    0  502    0  0.00000000000E+00 -0.00000000000E+00 -0.42227356543E+04  0.42227356543E+04  0.00000000000E+00 0. -1.
    9000007    2    1    2  502    0  0.88837088522E+02 -0.20173234470E+03 -0.15749179759E+04  0.16392604643E+04  0.39776911881E+03 0.  0.
    9000005    1    3    3    0    0 -0.64626988230E+02  0.60992171475E+02 -0.82789477807E+03  0.83265086089E+03  0.99999687468E+00 0.  0.
          4    1    3    3  502    0  0.15346407675E+03 -0.26272451617E+03 -0.74702319783E+03  0.80660960343E+03  0.00000000000E+00 0.  1.
   -9000007    1    1    2    0  501 -0.88837088522E+02  0.20173234470E+03 -0.25957098743E+04  0.26355829941E+04  0.40000000000E+03 0. -1.
<mgrwt>
<rscale>  2 0.45573698E+03</rscale>
<asrwt>0</asrwt>
<pdfrwt beam="1">  1        1 0.64965165E+00 0.45573698E+03</pdfrwt>
<pdfrwt beam="2">  1       -1 0.80165851E-02 0.45573698E+03</pdfrwt>
<totfact> 0.63990749E+00</totfact>
</mgrwt>
</event>
<event>
 6    1  0.8861680E-004  0.3990257E+03  0.7818608E-02  0.1044118E+00
         -2   -1    0    0    0  501 -0.00000000000E+00  0.00000000000E+00  0.72461388781E+02  0.72461388781E+02  0.00000000000E+00 0.  1.
          2   -1    0    0  502    0  0.00000000000E+00 -0.00000000000E+00 -0.31178580786E+04  0.31178580786E+04  0.00000000000E+00 0. -1.
    9000007    2    1    2  502    0 -0.20138413032E+02  0.14482802580E+02 -0.23847481040E+04  0.24176152153E+04  0.39651545041E+03 0.  0.
    9000005    1    3    3    0    0  0.71913301746E+02  0.18718054500E+03 -0.12954516776E+04  0.13108791433E+04  0.99999687468E+00 0.  0.
          4    1    3    3  502    0 -0.92051714778E+02 -0.17269774242E+03 -0.10892964265E+04  0.11067360721E+04  0.00000000000E+00 0.  1.
   -9000007    1    1    2    0  501  0.20138413032E+02 -0.14482802580E+02 -0.66064858578E+03  0.77270425205E+03  0.40000000000E+03 0.  1.
<mgrwt>
<rscale>  2 0.39902570E+03</rscale>
<asrwt>0</asrwt>
<pdfrwt beam="1">  1        2 0.47967038E+00 0.39902570E+03</pdfrwt>
<pdfrwt beam="2">  1       -2 0.11147908E-01 0.39902570E+03</pdfrwt>
<totfact> 0.95107876E+01</totfact>
</mgrwt>
</event>
<event>
 6    1  0.8861680E-004  0.4813030E+03  0.7818608E-02  0.1018778E+00
          1   -1    0    0  502    0  0.00000000000E+00  0.00000000000E+00  0.65615816513E+03  0.65615816513E+03  0.00000000000E+00 0.  1.
         -1   -1    0    0    0  501 -0.00000000000E+00 -0.00000000000E+00 -0.37127617823E+03  0.37127617823E+03  0.00000000000E+00 0. -1.
    9000007    2    1    2  502    0  0.26693494179E+03 -0.20268246370E+02  0.25627787391E+03  0.54526916394E+03  0.39996880819E+03 0.  0.
    9000005    1    3    3    0    0  0.16554440499E+03 -0.20109979820E+03  0.78169848663E+02  0.27195147379E+03  0.99999687468E+00 0.  0.
          4    1    3    3  502    0  0.10139053680E+03  0.18083155183E+03  0.17810802525E+03  0.27331769015E+03  0.00000000000E+00 0.  1.
   -9000007    1    1    2    0  501 -0.26693494179E+03  0.20268246370E+02  0.28604112984E+02  0.48216517942E+03  0.40000000000E+03 0. -1.
<mgrwt>
<rscale>  2 0.48130301E+03</rscale>
<asrwt>0</asrwt>
<pdfrwt beam="1">  1        1 0.10094741E+00 0.48130301E+03</pdfrwt>
<pdfrwt beam="2">  1       -1 0.57119412E-01 0.48130301E+03</pdfrwt>
<totfact> 0.97240096E+01</totfact>
</mgrwt>
</event>
<event>
 6    1  0.8861680E-004  0.5694468E+03  0.7818608E-02  0.9970903E-01
         -2   -1    0    0    0  501 -0.00000000000E+00  0.00000000000E+00  0.30674679741E+03  0.30674679741E+03  0.00000000000E+00 0. -1.
          2   -1    0    0  502    0  0.00000000000E+00 -0.00000000000E+00 -0.11906800469E+04  0.11906800469E+04  0.00000000000E+00 0.  1.
    9000007    2    1    2  502    0  0.40397143316E+03  0.27345214721E+02 -0.19141186852E+03  0.60103042381E+03  0.40082213930E+03 0.  0.
    9000005    1    3    3    0    0  0.11295760276E+03 -0.16297778333E+03  0.11145208523E+02  0.19861116169E+03  0.99999687468E+00 0.  0.
          4    1    3    3  502    0  0.29101383040E+03  0.19032299805E+03 -0.20255707704E+03  0.40241926213E+03  0.00000000000E+00 0.  1.
   -9000007    1    1    2    0  501 -0.40397143316E+03 -0.27345214721E+02 -0.69252138100E+03  0.89639642052E+03  0.40000000000E+03 0.  1.
<mgrwt>
<rscale>  2 0.56944684E+03</rscale>
<asrwt>0</asrwt>
<pdfrwt beam="1">  1        2 0.18318155E+00 0.56944684E+03</pdfrwt>
<pdfrwt beam="2">  1       -2 0.47191815E-01 0.56944684E+03</pdfrwt>
<totfact> 0.84400247E+01</totfact>
</mgrwt>
</event>
<event>
 6    1  0.8861680E-004  0.4532185E+03  0.7818608E-02  0.1026767E+00
          2   -1    0    0  502    0  0.00000000000E+00  0.00000000000E+00  0.33489108340E+04  0.33489108340E+04  0.00000000000E+00 0. -1.
         -2   -1    0    0    0  501 -0.00000000000E+00 -0.00000000000E+00 -0.64902879741E+02  0.64902879741E+02  0.00000000000E+00 0.  1.
    9000007    2    1    2  502    0  0.20187381458E+03 -0.68654505306E+02  0.12415997378E+04  0.13217100354E+04  0.39985126079E+03 0.  0.
    9000005    1    3    3    0    0 -0.39646192586E+02 -0.12212884265E+03  0.84204072620E+03  0.85177512253E+03  0.99999687468E+00 0.  0.
          4    1    3    3  502    0  0.24152000717E+03  0.53474337340E+02  0.39955901161E+03  0.46993491291E+03  0.00000000000E+00 0.  1.
   -9000007    1    1    2    0  501 -0.20187381458E+03  0.68654505306E+02  0.20424082164E+04  0.20921036783E+04  0.40000000000E+03 0. -1.
<mgrwt>
<rscale>  2 0.45321847E+03</rscale>
<asrwt>0</asrwt>
<pdfrwt beam="1">  1        2 0.51521692E+00 0.45321847E+03</pdfrwt>
<pdfrwt beam="2">  1       -2 0.99850610E-02 0.45321847E+03</pdfrwt>
<totfact> 0.80188677E+01</totfact>
</mgrwt>
</event>
<event>
 6    1  0.8861680E-004  0.4200607E+03  0.7818608E-02  0.1037047E+00
          2   -1    0    0  502    0  0.00000000000E+00  0.00000000000E+00  0.49074912373E+03  0.49074912373E+03  0.00000000000E+00 0.  1.
         -2   -1    0    0    0  501 -0.00000000000E+00 -0.00000000000E+00 -0.37355160960E+03  0.37355160960E+03  0.00000000000E+00 0. -1.
    9000007    2    1    2  502    0 -0.10298236416E+03  0.75539048640E+02 -0.25031618065E+02  0.42097168934E+03  0.40034868069E+03 0.  0.
    9000005    1    3    3    0    0 -0.20603788761E+01  0.20589778884E+03 -0.11219012765E+03  0.23449044617E+03  0.99999687468E+00 0.  0.
          4    1    3    3  502    0 -0.10092198528E+03 -0.13035874020E+03  0.87158509587E+02  0.18648124317E+03  0.00000000000E+00 0.  1.
   -9000007    1    1    2    0  501  0.10298236416E+03 -0.75539048640E+02  0.14222913220E+03  0.44332904399E+03  0.40000000000E+03 0.  1.
<mgrwt>
<rscale>  2 0.42006070E+03</rscale>
<asrwt>0</asrwt>
<pdfrwt beam="1">  1        2 0.75499865E-01 0.42006070E+03</pdfrwt>
<pdfrwt beam="2">  1       -2 0.57469479E-01 0.42006070E+03</pdfrwt>
<totfact> 0.18338799E+02</totfact>
</mgrwt>
</event>
<event>
 6    1  0.8861680E-004  0.4588190E+03  0.7818608E-02  0.1025124E+00
         -2   -1    0    0    0  501 -0.00000000000E+00  0.00000000000E+00  0.80381287364E+02  0.80381287364E+02  0.00000000000E+00 0. -1.
          2   -1    0    0  502    0  0.00000000000E+00 -0.00000000000E+00 -0.26948457741E+04  0.26948457741E+04  0.00000000000E+00 0.  1.
    9000007    2    1    2  502    0 -0.10478186047E+02  0.22560865653E+03 -0.15385995494E+04  0.16054003984E+04  0.39876409995E+03 0.  0.
    9000005    1    3    3    0    0 -0.11335701678E+03 -0.54581948433E+02 -0.21996177761E+03  0.25340320825E+03  0.99999687468E+00 0.  0.
          4    1    3    3  502    0  0.10287883073E+03  0.28019060497E+03 -0.13186377718E+04  0.13519971901E+04  0.00000000000E+00 0.  1.
   -9000007    1    1    2    0  501  0.10478186047E+02 -0.22560865653E+03 -0.10758649374E+04  0.11698266631E+04  0.40000000000E+03 0. -1.
<mgrwt>
<rscale>  2 0.45881901E+03</rscale>
<asrwt>0</asrwt>
<pdfrwt beam="1">  1        2 0.41459167E+00 0.45881901E+03</pdfrwt>
<pdfrwt beam="2">  1       -2 0.12366352E-01 0.45881901E+03</pdfrwt>
<totfact> 0.14106735E+02</totfact>
</mgrwt>
</event>
<event>
 6    1  0.8861680E-004  0.4241006E+03  0.7818608E-02  0.1035740E+00
          1   -1    0    0  502    0  0.00000000000E+00  0.00000000000E+00  0.18746282123E+04  0.18746282123E+04  0.00000000000E+00 0.  1.
         -1   -1    0    0    0  501 -0.00000000000E+00 -0.00000000000E+00 -0.11046558236E+03  0.11046558236E+03  0.00000000000E+00 0. -1.
    9000007    2    1    2  502    0 -0.13345299508E+03  0.45744996749E+02  0.52213791273E+03  0.67264276518E+03  0.39989746562E+03 0.  0.
    9000005    1    3    3    0    0  0.12491322183E+03 -0.55854977611E+02  0.24344342224E+03  0.27926473343E+03  0.99999687468E+00 0.  0.
          4    1    3    3  502    0 -0.25836621691E+03  0.10159997436E+03  0.27869449049E+03  0.39337803175E+03  0.00000000000E+00 0.  1.
   -9000007    1    1    2    0  501  0.13345299508E+03 -0.45744996749E+02  0.12420247172E+04  0.13124510294E+04  0.40000000000E+03 0.  1.
<mgrwt>
<rscale>  2 0.42410057E+03</rscale>
<asrwt>0</asrwt>
<pdfrwt beam="1">  1        1 0.28840432E+00 0.42410057E+03</pdfrwt>
<pdfrwt beam="2">  1       -1 0.16994706E-01 0.42410057E+03</pdfrwt>
<totfact> 0.10415155E+02</totfact>
</mgrwt>
</event>
<event>
 6    1  0.8861680E-004  0.5322260E+03  0.7818608E-02  0.1005694E+00
         -1   -1    0    0    0  501 -0.00000000000E+00  0.00000000000E+00  0.20793781021E+03  0.20793781021E+03  0.00000000000E+00 0. -1.
          1   -1    0    0  502    0  0.00000000000E+00 -0.00000000000E+00 -0.13803720871E+04  0.13803720871E+04  0.00000000000E+00 0.  1.
    9000007    2    1    2  502    0  0.28668345012E+03 -0.20228162868E+03 -0.49540095504E+03  0.72721792966E+03  0.40039799337E+03 0.  0.
    9000005    1    3    3    0    0 -0.12899925722E+02 -0.22234113566E+03 -0.14494586459E+03  0.26572973553E+03  0.99999687468E+00 0.  0.
          4    1    3    3  502    0  0.29958337584E+03  0.20059506980E+02 -0.35045509044E+03  0.46148819413E+03  0.00000000000E+00 0.  1.
   -9000007    1    1    2    0  501 -0.28668345012E+03  0.20228162868E+03 -0.67703332188E+03  0.86109196768E+03  0.40000000000E+03 0.  1.
<mgrwt>
<rscale>  2 0.53222598E+03</rscale>
<asrwt>0</asrwt>
<pdfrwt beam="1">  1        1 0.21236494E+00 0.53222598E+03</pdfrwt>
<pdfrwt beam="2">  1       -1 0.31990432E-01 0.53222598E+03</pdfrwt>
<totfact> 0.75838924E+01</totfact>
</mgrwt>
</event>
<event>
 6    1  0.8861680E-004  0.5126713E+03  0.7818608E-02  0.1010523E+00
          2   -1    0    0  502    0  0.00000000000E+00  0.00000000000E+00  0.35660380324E+04  0.35660380324E+04  0.00000000000E+00 0. -1.
         -2   -1    0    0    0  501 -0.00000000000E+00 -0.00000000000E+00 -0.74084563876E+02  0.74084563876E+02  0.00000000000E+00 0.  1.
    9000007    2    1    2  502    0 -0.31719322581E+03  0.41106924771E+02  0.18781373865E+04  0.19469883227E+04  0.40132550927E+03 0.  0.
    9000005    1    3    3    0    0  0.19375889011E+02  0.11866978989E+03  0.93302926755E+03  0.94074574578E+03  0.99999687468E+00 0.  0.
          4    1    3    3  502    0 -0.33656911482E+03 -0.77562865120E+02  0.94510811899E+03  0.10062425770E+04  0.00000000000E+00 0.  1.
   -9000007    1    1    2    0  501  0.31719322581E+03 -0.41106924771E+02  0.16138160820E+04  0.16931342736E+04  0.40000000000E+03 0.  1.
<mgrwt>
<rscale>  2 0.51267131E+03</rscale>
<asrwt>0</asrwt>
<pdfrwt beam="1">  1        2 0.54862110E+00 0.51267131E+03</pdfrwt>
<pdfrwt beam="2">  1       -2 0.11397628E-01 0.51267131E+03</pdfrwt>
<totfact> 0.45688279E+01</totfact>
</mgrwt>
</event>
<event>
 6    1  0.8861680E-004  0.9230915E+03  0.7818608E-02  0.9397167E-01
          2   -1    0    0  502    0  0.00000000000E+00  0.00000000000E+00  0.73595870700E+03  0.73595870700E+03  0.00000000000E+00 0.  1.
         -2   -1    0    0    0  501 -0.00000000000E+00 -0.00000000000E+00 -0.11585033439E+04  0.11585033439E+04  0.00000000000E+00 0. -1.
    9000007    2    1    2  502    0  0.67398760358E+03 -0.48777966124E+03 -0.23448748148E+03  0.95236132309E+03  0.39977421510E+03 0.  0.
    9000005    1    3    3    0    0  0.67540917320E+03 -0.36535815226E+03 -0.28614728414E+03  0.81947873607E+03  0.99999687468E+00 0.  0.
          4    1    3    3  502    0 -0.14215696236E+01 -0.12242150898E+03  0.51659802665E+02  0.13288258702E+03  0.00000000000E+00 0.  1.
   -9000007    1    1    2    0  501 -0.67398760358E+03  0.48777966124E+03 -0.18805715546E+03  0.94210072785E+03  0.40000000000E+03 0.  1.
<mgrwt>
<rscale>  2 0.92309154E+03</rscale>
<asrwt>0</asrwt>
<pdfrwt beam="1">  1        2 0.11322442E+00 0.92309154E+03</pdfrwt>
<pdfrwt beam="2">  1       -2 0.17823128E+00 0.92309154E+03</pdfrwt>
<totfact> 0.71642554E+00</totfact>
</mgrwt>
</event>
<event>
 6    1  0.8861680E-004  0.4017497E+03  0.7818608E-02  0.1043176E+00
         -1   -1    0    0    0  501 -0.00000000000E+00  0.00000000000E+00  0.27895212964E+03  0.27895212964E+03  0.00000000000E+00 0.  1.
          1   -1    0    0  502    0  0.00000000000E+00 -0.00000000000E+00 -0.59685411136E+03  0.59685411136E+03  0.00000000000E+00 0. -1.
    9000007    2    1    2  502    0  0.83427877006E+02  0.12438162875E+01 -0.23255559407E+03  0.45837868606E+03  0.38609216226E+03 0.  0.
    9000005    1    3    3    0    0 -0.85293438204E+02  0.14402070804E+02 -0.27130738424E+03  0.28476496797E+03  0.99999687468E+00 0.  0.
          4    1    3    3  502    0  0.16872131521E+03 -0.13158254517E+02  0.38751790171E+02  0.17361371809E+03  0.00000000000E+00 0.  1.
   -9000007    1    1    2    0  501 -0.83427877006E+02 -0.12438162875E+01 -0.85346387653E+02  0.41742755494E+03  0.40000000000E+03 0.  1.
<mgrwt>
<rscale>  2 0.40174967E+03</rscale>
<asrwt>0</asrwt>
<pdfrwt beam="1">  1        1 0.91823709E-01 0.40174967E+03</pdfrwt>
<pdfrwt beam="2">  1       -1 0.42915712E-01 0.40174967E+03</pdfrwt>
<totfact> 0.19184309E+02</totfact>
</mgrwt>
</event>
<event>
 6    1  0.8861680E-004  0.4322011E+03  0.7818608E-02  0.1033167E+00
          2   -1    0    0  502    0  0.00000000000E+00  0.00000000000E+00  0.37234706587E+04  0.37234706587E+04  0.00000000000E+00 0. -1.
         -2   -1    0    0    0  501 -0.00000000000E+00 -0.00000000000E+00 -0.52015717043E+02  0.52015717043E+02  0.00000000000E+00 0.  1.
    9000007    2    1    2  502    0 -0.12416037453E+03 -0.10495250371E+03  0.21932861200E+04  0.22355468016E+04  0.40091728748E+03 0.  0.
    9000005    1    3    3    0    0 -0.10991389152E+03 -0.18344787826E+03  0.21077873603E+04  0.21186086812E+04  0.99999687468E+00 0.  0.
          4    1    3    3  502    0 -0.14246483013E+02  0.78495374552E+02  0.85498759615E+02  0.11693812039E+03  0.00000000000E+00 0.  1.
   -9000007    1    1    2    0  501  0.12416037453E+03  0.10495250371E+03  0.14781688217E+04  0.15399395741E+04  0.40000000000E+03 0. -1.
<mgrwt>
<rscale>  2 0.43220111E+03</rscale>
<asrwt>0</asrwt>
<pdfrwt beam="1">  1        2 0.57284143E+00 0.43220111E+03</pdfrwt>
<pdfrwt beam="2">  1       -2 0.80024209E-02 0.43220111E+03</pdfrwt>
<totfact> 0.63923232E+01</totfact>
</mgrwt>
</event>
<event>
 6    1  0.8861680E-004  0.4209775E+03  0.7818608E-02  0.1036749E+00
          2   -1    0    0  502    0  0.00000000000E+00  0.00000000000E+00  0.72490156127E+03  0.72490156127E+03  0.00000000000E+00 0.  1.
         -2   -1    0    0    0  501 -0.00000000000E+00 -0.00000000000E+00 -0.27072147152E+03  0.27072147152E+03  0.00000000000E+00 0. -1.
    9000007    2    1    2  502    0  0.67951971887E+02 -0.11401878929E+03  0.38185596690E+03  0.56801511245E+03  0.39901056843E+03 0.  0.
    9000005    1    3    3    0    0  0.12782149989E+03 -0.21610061894E+03  0.11512808382E+03  0.27621239838E+03  0.99999687468E+00 0.  0.
          4    1    3    3  502    0 -0.59869528001E+02  0.10208182965E+03  0.26672788308E+03  0.29180271407E+03  0.00000000000E+00 0.  1.
   -9000007    1    1    2    0  501 -0.67951971887E+02  0.11401878929E+03  0.72324122844E+02  0.42760792034E+03  0.40000000000E+03 0.  1.
<mgrwt>
<rscale>  2 0.42097747E+03</rscale>
<asrwt>0</asrwt>
<pdfrwt beam="1">  1        2 0.11152332E+00 0.42097747E+03</pdfrwt>
<pdfrwt beam="2">  1       -2 0.41649458E-01 0.42097747E+03</pdfrwt>
<totfact> 0.22033151E+02</totfact>
</mgrwt>
</event>
<event>
 6    1  0.8861680E-004  0.4051999E+03  0.7818608E-02  0.1041994E+00
         -2   -1    0    0    0  501 -0.00000000000E+00  0.00000000000E+00  0.65108831887E+03  0.65108831887E+03  0.00000000000E+00 0.  1.
          2   -1    0    0  502    0  0.00000000000E+00 -0.00000000000E+00 -0.25246946477E+03  0.25246946477E+03  0.00000000000E+00 0. -1.
    9000007    2    1    2  502    0 -0.90455927785E+00 -0.59553299321E+02  0.21515079017E+03  0.45947677282E+03  0.40159884033E+03 0.  0.
    9000005    1    3    3    0    0  0.16933006445E+03  0.54309773578E+02  0.24206765271E+02  0.17946918875E+03  0.99999687468E+00 0.  0.
          4    1    3    3  502    0 -0.17023462373E+03 -0.11386307290E+03  0.19094402490E+03  0.28000758406E+03  0.00000000000E+00 0.  1.
   -9000007    1    1    2    0  501  0.90455927785E+00  0.59553299321E+02  0.18346806393E+03  0.44408101082E+03  0.40000000000E+03 0. -1.
<mgrwt>
<rscale>  2 0.40519992E+03</rscale>
<asrwt>0</asrwt>
<pdfrwt beam="1">  1        2 0.38841456E-01 0.40519992E+03</pdfrwt>
<pdfrwt beam="2">  1       -2 0.10016743E+00 0.40519992E+03</pdfrwt>
<totfact> 0.11246285E+02</totfact>
</mgrwt>
</event>
<event>
 6    1  0.8861680E-004  0.4184219E+03  0.7818608E-02  0.1037581E+00
         -2   -1    0    0    0  501 -0.00000000000E+00  0.00000000000E+00  0.65915310235E+02  0.65915310235E+02  0.00000000000E+00 0.  1.
          2   -1    0    0  502    0  0.00000000000E+00 -0.00000000000E+00 -0.27190368617E+04  0.27190368617E+04  0.00000000000E+00 0. -1.
    9000007    2    1    2  502    0 -0.10983067109E+03  0.58527523120E+02 -0.11131738849E+04  0.11890426936E+04  0.39897140487E+03 0.  0.
    9000005    1    3    3    0    0  0.46483565118E+02 -0.14983647787E+03 -0.38881567219E+03  0.41927356089E+03  0.99999687468E+00 0.  0.
          4    1    3    3  502    0 -0.15631423621E+03  0.20836400099E+03 -0.72435821267E+03  0.76976913268E+03  0.00000000000E+00 0.  1.
   -9000007    1    1    2    0  501  0.10983067109E+03 -0.58527523120E+02 -0.15399476666E+04  0.15959094783E+04  0.40000000000E+03 0. -1.
<mgrwt>
<rscale>  2 0.41842186E+03</rscale>
<asrwt>0</asrwt>
<pdfrwt beam="1">  1        2 0.41831343E+00 0.41842186E+03</pdfrwt>
<pdfrwt beam="2">  1       -2 0.10140815E-01 0.41842186E+03</pdfrwt>
<totfact> 0.19018286E+02</totfact>
</mgrwt>
</event>
<event>
 6    1  0.8861680E-004  0.4223554E+03  0.7818608E-02  0.1036302E+00
          1   -1    0    0  502    0  0.00000000000E+00  0.00000000000E+00  0.40715365897E+03  0.40715365897E+03  0.00000000000E+00 0. -1.
         -1   -1    0    0    0  501 -0.00000000000E+00 -0.00000000000E+00 -0.60230856823E+03  0.60230856823E+03  0.00000000000E+00 0.  1.
    9000007    2    1    2  502    0 -0.13487190921E+03 -0.15233121818E+02  0.16595154502E+03  0.45374615652E+03  0.39990396268E+03 0.  0.
    9000005    1    3    3    0    0 -0.56025459580E+02 -0.15685484555E+03  0.22612330115E+03  0.28084700820E+03  0.99999687468E+00 0.  0.
          4    1    3    3  502    0 -0.78846449630E+02  0.14162172374E+03 -0.60171756137E+02  0.17289914832E+03  0.00000000000E+00 0.  1.
   -9000007    1    1    2    0  501  0.13487190921E+03  0.15233121818E+02 -0.36110645428E+03  0.55571607069E+03  0.40000000000E+03 0.  1.
<mgrwt>
<rscale>  2 0.42235538E+03</rscale>
<asrwt>0</asrwt>
<pdfrwt beam="1">  1        1 0.62639025E-01 0.42235538E+03</pdfrwt>
<pdfrwt beam="2">  1       -1 0.92662857E-01 0.42235538E+03</pdfrwt>
<totfact> 0.69791777E+01</totfact>
</mgrwt>
</event>
<event>
 6    1  0.8861680E-004  0.4559091E+03  0.7818608E-02  0.1025974E+00
         -2   -1    0    0    0  501 -0.00000000000E+00  0.00000000000E+00  0.27485264105E+03  0.27485264105E+03  0.00000000000E+00 0.  1.
          2   -1    0    0  502    0  0.00000000000E+00 -0.00000000000E+00 -0.76265785191E+03  0.76265785191E+03  0.00000000000E+00 0. -1.
    9000007    2    1    2  502    0 -0.15690866023E+03  0.15352012357E+03 -0.29131274092E+03  0.54072276491E+03  0.39916066875E+03 0.  0.
    9000005    1    3    3    0    0 -0.24693555953E+03  0.20844430256E+03 -0.29159458455E+03  0.43526382754E+03  0.99999687468E+00 0.  0.
          4    1    3    3  502    0  0.90026899303E+02 -0.54924178989E+02  0.28184362867E+00  0.10545893737E+03  0.00000000000E+00 0.  1.
   -9000007    1    1    2    0  501  0.15690866023E+03 -0.15352012357E+03 -0.19649246994E+03  0.49678772805E+03  0.40000000000E+03 0. -1.
<mgrwt>
<rscale>  2 0.45590910E+03</rscale>
<asrwt>0</asrwt>
<pdfrwt beam="1">  1        2 0.11733198E+00 0.45590910E+03</pdfrwt>
<pdfrwt beam="2">  1       -2 0.42285022E-01 0.45590910E+03</pdfrwt>
<totfact> 0.20003962E+02</totfact>
</mgrwt>
</event>
<event>
 6    1  0.8861680E-004  0.4667547E+03  0.7818608E-02  0.1022840E+00
         -2   -1    0    0    0  501 -0.00000000000E+00  0.00000000000E+00  0.13203891942E+03  0.13203891942E+03  0.00000000000E+00 0. -1.
          2   -1    0    0  502    0  0.00000000000E+00 -0.00000000000E+00 -0.16538487945E+04  0.16538487945E+04  0.00000000000E+00 0.  1.
    9000007    2    1    2  502    0  0.16408137870E+03  0.17591913440E+03 -0.80414244385E+03  0.92978212316E+03  0.39997435651E+03 0.  0.
    9000005    1    3    3    0    0  0.20500949807E+03  0.24385882976E+03 -0.36913951992E+03  0.48760743258E+03  0.99999687468E+00 0.  0.
          4    1    3    3  502    0 -0.40928119369E+02 -0.67939695360E+02 -0.43500292393E+03  0.44217469058E+03  0.00000000000E+00 0.  1.
   -9000007    1    1    2    0  501 -0.16408137870E+03 -0.17591913440E+03 -0.71766743126E+03  0.85610559079E+03  0.40000000000E+03 0. -1.
<mgrwt>
<rscale>  2 0.46675474E+03</rscale>
<asrwt>0</asrwt>
<pdfrwt beam="1">  1        2 0.25443826E+00 0.46675474E+03</pdfrwt>
<pdfrwt beam="2">  1       -2 0.20313681E-01 0.46675474E+03</pdfrwt>
<totfact> 0.22579300E+02</totfact>
</mgrwt>
</event>
<event>
 6    1  0.8861680E-004  0.4109939E+03  0.7818608E-02  0.1040038E+00
          2   -1    0    0  502    0  0.00000000000E+00  0.00000000000E+00  0.10522236039E+04  0.10522236039E+04  0.00000000000E+00 0. -1.
         -2   -1    0    0    0  501 -0.00000000000E+00 -0.00000000000E+00 -0.27391722225E+03  0.27391722225E+03  0.00000000000E+00 0.  1.
    9000007    2    1    2  502    0  0.90150225156E+02 -0.30703905248E+02 -0.37556935605E+02  0.41252014703E+03  0.39961550946E+03 0.  0.
    9000005    1    3    3    0    0  0.61366661158E+02  0.18327506751E+03  0.53553096731E+00  0.19327934255E+03  0.99999687468E+00 0.  0.
          4    1    3    3  502    0  0.28783563998E+02 -0.21397897275E+03 -0.38092466572E+02  0.21924080447E+03  0.00000000000E+00 0.  1.
   -9000007    1    1    2    0  501 -0.90150225156E+02  0.30703905248E+02  0.81586331727E+03  0.91362067914E+03  0.40000000000E+03 0. -1.
<mgrwt>
<rscale>  2 0.41099392E+03</rscale>
<asrwt>0</asrwt>
<pdfrwt beam="1">  1        2 0.16188055E+00 0.41099392E+03</pdfrwt>
<pdfrwt beam="2">  1       -2 0.42141111E-01 0.41099392E+03</pdfrwt>
<totfact> 0.13016375E+02</totfact>
</mgrwt>
</event>
<event>
 6    1  0.8861680E-004  0.4145744E+03  0.7818608E-02  0.1038847E+00
         -1   -1    0    0    0  501 -0.00000000000E+00  0.00000000000E+00  0.27957835659E+03  0.27957835659E+03  0.00000000000E+00 0.  1.
          1   -1    0    0  502    0  0.00000000000E+00 -0.00000000000E+00 -0.64130665371E+03  0.64130665371E+03  0.00000000000E+00 0. -1.
    9000007    2    1    2  502    0 -0.81672267528E+02  0.70489318079E+02 -0.27467170062E+03  0.49754359460E+03  0.40058205422E+03 0.  0.
    9000005    1    3    3    0    0  0.12782248505E+03  0.11647342688E+03 -0.21301757236E+03  0.27437589723E+03  0.99999687468E+00 0.  0.
          4    1    3    3  502    0 -0.20949475258E+03 -0.45984108801E+02 -0.61654128263E+02  0.22316769737E+03  0.00000000000E+00 0.  1.
   -9000007    1    1    2    0  501  0.81672267528E+02 -0.70489318079E+02 -0.87056596507E+02  0.42334141569E+03  0.40000000000E+03 0.  1.
<mgrwt>
<rscale>  2 0.41457440E+03</rscale>
<asrwt>0</asrwt>
<pdfrwt beam="1">  1        1 0.98662562E-01 0.41457440E+03</pdfrwt>
<pdfrwt beam="2">  1       -1 0.43012055E-01 0.41457440E+03</pdfrwt>
<totfact> 0.17224478E+02</totfact>
</mgrwt>
</event>
<event>
 6    1  0.8861680E-004  0.7128852E+03  0.7818608E-02  0.9695447E-01
          2   -1    0    0  502    0  0.00000000000E+00  0.00000000000E+00  0.25411156984E+04  0.25411156984E+04  0.00000000000E+00 0. -1.
         -2   -1    0    0    0  501 -0.00000000000E+00 -0.00000000000E+00 -0.20505459789E+03  0.20505459789E+03  0.00000000000E+00 0.  1.
    9000007    2    1    2  502    0 -0.54333192314E+03 -0.23097723455E+03  0.13833608520E+04  0.15561291940E+04  0.39911246535E+03 0.  0.
    9000005    1    3    3    0    0 -0.34283530742E+03 -0.33776504635E+03  0.85802936601E+03  0.98378690146E+03  0.99999687468E+00 0.  0.
          4    1    3    3  502    0 -0.20049661572E+03  0.10678781180E+03  0.52533148598E+03  0.57234229254E+03  0.00000000000E+00 0.  1.
   -9000007    1    1    2    0  501  0.54333192314E+03  0.23097723455E+03  0.95270024849E+03  0.11900411023E+04  0.40000000000E+03 0.  1.
<mgrwt>
<rscale>  2 0.71288521E+03</rscale>
<asrwt>0</asrwt>
<pdfrwt beam="1">  1        2 0.39094086E+00 0.71288521E+03</pdfrwt>
<pdfrwt beam="2">  1       -2 0.31546863E-01 0.71288521E+03</pdfrwt>
<totfact> 0.32268867E+01</totfact>
</mgrwt>
</event>
<event>
 6    1  0.8861680E-004  0.4439199E+03  0.7818608E-02  0.1029551E+00
          2   -1    0    0  502    0  0.00000000000E+00  0.00000000000E+00  0.58861679659E+03  0.58861679659E+03  0.00000000000E+00 0. -1.
         -2   -1    0    0    0  501 -0.00000000000E+00 -0.00000000000E+00 -0.33904611953E+03  0.33904611953E+03  0.00000000000E+00 0.  1.
    9000007    2    1    2  502    0 -0.15179867803E+03  0.12089149594E+03  0.17654470984E+03  0.47711837412E+03  0.39851764817E+03 0.  0.
    9000005    1    3    3    0    0 -0.70391334116E+01  0.19067554286E+03  0.23801985485E+03  0.30505927840E+03  0.99999687468E+00 0.  0.
          4    1    3    3  502    0 -0.14475954462E+03 -0.69784046920E+02 -0.61475145011E+02  0.17205909571E+03  0.00000000000E+00 0.  1.
   -9000007    1    1    2    0  501  0.15179867803E+03 -0.12089149594E+03  0.73025967213E+02  0.45054454200E+03  0.40000000000E+03 0. -1.
<mgrwt>
<rscale>  2 0.44391988E+03</rscale>
<asrwt>0</asrwt>
<pdfrwt beam="1">  1        2 0.90556430E-01 0.44391988E+03</pdfrwt>
<pdfrwt beam="2">  1       -2 0.52160941E-01 0.44391988E+03</pdfrwt>
<totfact> 0.18100112E+02</totfact>
</mgrwt>
</event>
<event>
 6    1  0.8861680E-004  0.4041243E+03  0.7818608E-02  0.1042361E+00
          1   -1    0    0  502    0  0.00000000000E+00  0.00000000000E+00  0.90220419094E+03  0.90220419094E+03  0.00000000000E+00 0.  1.
         -1   -1    0    0    0  501 -0.00000000000E+00 -0.00000000000E+00 -0.19857283776E+03  0.19857283776E+03  0.00000000000E+00 0. -1.
    9000007    2    1    2  502    0 -0.35141493393E+02 -0.49072944078E+02  0.51513466986E+03  0.65448779735E+03  0.39918350466E+03 0.  0.
    9000005    1    3    3    0    0 -0.13131850847E+03  0.59782333520E+02  0.48517180843E+03  0.50617305514E+03  0.99999687468E+00 0.  0.
          4    1    3    3  502    0  0.96177015077E+02 -0.10885527760E+03  0.29962861429E+02  0.14831474220E+03  0.00000000000E+00 0.  1.
   -9000007    1    1    2    0  501  0.35141493393E+02  0.49072944078E+02  0.18849668332E+03  0.44628923135E+03  0.40000000000E+03 0. -1.
<mgrwt>
<rscale>  2 0.40412435E+03</rscale>
<asrwt>0</asrwt>
<pdfrwt beam="1">  1        1 0.13880064E+00 0.40412435E+03</pdfrwt>
<pdfrwt beam="2">  1       -1 0.30549668E-01 0.40412435E+03</pdfrwt>
<totfact> 0.18691305E+02</totfact>
</mgrwt>
</event>
<event>
 6    1  0.8861680E-004  0.4880937E+03  0.7818608E-02  0.1016934E+00
          1   -1    0    0  502    0  0.00000000000E+00  0.00000000000E+00  0.10893313624E+04  0.10893313624E+04  0.00000000000E+00 0. -1.
         -1   -1    0    0    0  501 -0.00000000000E+00 -0.00000000000E+00 -0.49639408340E+03  0.49639408340E+03  0.00000000000E+00 0.  1.
    9000007    2    1    2  502    0  0.20063179359E+03 -0.19458922409E+03  0.88952025510E+03  0.10146916950E+04  0.40029347856E+03 0.  0.
    9000005    1    3    3    0    0 -0.17993311474E+02 -0.10693507310E+03  0.71079057701E+03  0.71901537777E+03  0.99999687468E+00 0.  0.
          4    1    3    3  502    0  0.21862510506E+03 -0.87654150993E+02  0.17872967809E+03  0.29567631725E+03  0.00000000000E+00 0.  1.
   -9000007    1    1    2    0  501 -0.20063179359E+03  0.19458922409E+03 -0.29658297615E+03  0.57103375073E+03  0.40000000000E+03 0.  1.
<mgrwt>
<rscale>  2 0.48809373E+03</rscale>
<asrwt>0</asrwt>
<pdfrwt beam="1">  1        1 0.16758944E+00 0.48809373E+03</pdfrwt>
<pdfrwt beam="2">  1       -1 0.76368321E-01 0.48809373E+03</pdfrwt>
<totfact> 0.23790405E+01</totfact>
</mgrwt>
</event>
<event>
 6    1  0.8861680E-004  0.4957865E+03  0.7818608E-02  0.1014885E+00
          2   -1    0    0  502    0  0.00000000000E+00  0.00000000000E+00  0.49626389051E+03  0.49626389051E+03  0.00000000000E+00 0.  1.
         -2   -1    0    0    0  501 -0.00000000000E+00 -0.00000000000E+00 -0.49594673611E+03  0.49594673611E+03  0.00000000000E+00 0. -1.
    9000007    2    1    2  502    0 -0.25246617147E+03 -0.14845567735E+03 -0.17623454209E+02  0.49612583416E+03  0.40006499635E+03 0.  0.
    9000005    1    3    3    0    0  0.26315944808E+02  0.91139830165E+02  0.70404106172E+02  0.11813862939E+03  0.99999687468E+00 0.  0.
          4    1    3    3  502    0 -0.27878211628E+03 -0.23959550752E+03 -0.88027560381E+02  0.37798720477E+03  0.00000000000E+00 0.  1.
   -9000007    1    1    2    0  501  0.25246617147E+03  0.14845567735E+03  0.17940608603E+02  0.49608479246E+03  0.40000000000E+03 0. -1.
<mgrwt>
<rscale>  2 0.49578650E+03</rscale>
<asrwt>0</asrwt>
<pdfrwt beam="1">  1        2 0.76348291E-01 0.49578650E+03</pdfrwt>
<pdfrwt beam="2">  1       -2 0.76299498E-01 0.49578650E+03</pdfrwt>
<totfact> 0.98129977E+01</totfact>
</mgrwt>
</event>
<event>
 6    1  0.8861680E-004  0.8267830E+03  0.7818608E-02  0.9522039E-01
          2   -1    0    0  502    0  0.00000000000E+00  0.00000000000E+00  0.16245089320E+04  0.16245089320E+04  0.00000000000E+00 0. -1.
         -2   -1    0    0    0  501 -0.00000000000E+00 -0.00000000000E+00 -0.54516330311E+03  0.54516330311E+03  0.00000000000E+00 0.  1.
    9000007    2    1    2  502    0 -0.70954917999E+03 -0.14289262217E+03  0.21409418501E+02  0.82687390120E+03  0.39922893806E+03 0.  0.
    9000005    1    3    3    0    0 -0.46549144081E+03 -0.19399371206E+03  0.17525429887E+03  0.53388286267E+03  0.99999687468E+00 0.  0.
          4    1    3    3  502    0 -0.24405773919E+03  0.51101089891E+02 -0.15384488037E+03  0.29299103853E+03  0.00000000000E+00 0.  1.
   -9000007    1    1    2    0  501  0.70954917999E+03  0.14289262217E+03  0.10579362104E+04  0.13427983339E+04  0.40000000000E+03 0.  1.
<mgrwt>
<rscale>  2 0.82678301E+03</rscale>
<asrwt>0</asrwt>
<pdfrwt beam="1">  1        2 0.24992445E+00 0.82678301E+03</pdfrwt>
<pdfrwt beam="2">  1       -2 0.83871278E-01 0.82678301E+03</pdfrwt>
<totfact> 0.13647081E+01</totfact>
</mgrwt>
</event>
<event>
 6    1  0.8861680E-004  0.4619598E+03  0.7818608E-02  0.1024214E+00
         -1   -1    0    0    0  501 -0.00000000000E+00  0.00000000000E+00  0.45281221427E+03  0.45281221427E+03  0.00000000000E+00 0.  1.
          1   -1    0    0  502    0  0.00000000000E+00 -0.00000000000E+00 -0.47373002399E+03  0.47373002399E+03  0.00000000000E+00 0. -1.
    9000007    2    1    2  502    0  0.21319428489E+03 -0.98361889715E+02  0.22763558392E+02  0.46067216370E+03  0.39569407167E+03 0.  0.
    9000005    1    3    3    0    0 -0.93958765326E+02  0.39030653919E+01  0.89846377122E+02  0.13006481068E+03  0.99999687468E+00 0.  0.
          4    1    3    3  502    0  0.30715305022E+03 -0.10226495511E+03 -0.67082818731E+02  0.33060735302E+03  0.00000000000E+00 0.  1.
   -9000007    1    1    2    0  501 -0.21319428489E+03  0.98361889715E+02 -0.43681368114E+02  0.46587007457E+03  0.40000000000E+03 0. -1.
<mgrwt>
<rscale>  2 0.46195983E+03</rscale>
<asrwt>0</asrwt>
<pdfrwt beam="1">  1        1 0.72881542E-01 0.46195983E+03</pdfrwt>
<pdfrwt beam="2">  1       -1 0.69663418E-01 0.46195983E+03</pdfrwt>
<totfact> 0.10365670E+02</totfact>
</mgrwt>
</event>
<event>
 6    1  0.8861680E-004  0.4735306E+03  0.7818608E-02  0.1020928E+00
         -1   -1    0    0    0  501 -0.00000000000E+00  0.00000000000E+00  0.16268379081E+03  0.16268379081E+03  0.00000000000E+00 0. -1.
          1   -1    0    0  502    0  0.00000000000E+00 -0.00000000000E+00 -0.14096732783E+04  0.14096732783E+04  0.00000000000E+00 0.  1.
    9000007    2    1    2  502    0 -0.14233702011E+03  0.20862509609E+03 -0.50686834683E+03  0.69397016070E+03  0.40111694668E+03 0.  0.
    9000005    1    3    3    0    0 -0.19845683491E+03  0.30298830333E+03 -0.36076792352E+03  0.51121572933E+03  0.99999687468E+00 0.  0.
          4    1    3    3  502    0  0.56119814807E+02 -0.94363207239E+02 -0.14610042331E+03  0.18275443137E+03  0.00000000000E+00 0.  1.
   -9000007    1    1    2    0  501  0.14233702011E+03 -0.20862509609E+03 -0.74012114068E+03  0.87838690843E+03  0.40000000000E+03 0.  1.
<mgrwt>
<rscale>  2 0.47353058E+03</rscale>
<asrwt>0</asrwt>
<pdfrwt beam="1">  1        1 0.21687281E+00 0.47353058E+03</pdfrwt>
<pdfrwt beam="2">  1       -1 0.25028276E-01 0.47353058E+03</pdfrwt>
<totfact> 0.11126910E+02</totfact>
</mgrwt>
</event>
<event>
 6    1  0.8861680E-004  0.4980030E+03  0.7818608E-02  0.1014301E+00
          1   -1    0    0  502    0  0.00000000000E+00  0.00000000000E+00  0.31609434044E+04  0.31609434044E+04  0.00000000000E+00 0. -1.
         -1   -1    0    0    0  501 -0.00000000000E+00 -0.00000000000E+00 -0.91210606175E+02  0.91210606175E+02  0.00000000000E+00 0.  1.
    9000007    2    1    2  502    0  0.57649926642E+02  0.29098638775E+03  0.21428714528E+04  0.21999807618E+04  0.40002587033E+03 0.  0.
    9000005    1    3    3    0    0  0.16055030350E+03  0.34468595862E+03  0.17148155706E+04  0.17564675491E+04  0.99999687468E+00 0.  0.
          4    1    3    3  502    0 -0.10290037686E+03 -0.53699570868E+02  0.42805588225E+03  0.44351321265E+03  0.00000000000E+00 0.  1.
   -9000007    1    1    2    0  501 -0.57649926642E+02 -0.29098638775E+03  0.92686134538E+03  0.10521732488E+04  0.40000000000E+03 0.  1.
<mgrwt>
<rscale>  2 0.49800295E+03</rscale>
<asrwt>0</asrwt>
<pdfrwt beam="1">  1        1 0.48629890E+00 0.49800295E+03</pdfrwt>
<pdfrwt beam="2">  1       -1 0.14032403E-01 0.49800295E+03</pdfrwt>
<totfact> 0.18593560E+01</totfact>
</mgrwt>
</event>
<event>
 6    1  0.8861680E-004  0.4236080E+03  0.7818608E-02  0.1035898E+00
         -2   -1    0    0    0  501 -0.00000000000E+00  0.00000000000E+00  0.24152236027E+03  0.24152236027E+03  0.00000000000E+00 0.  1.
          2   -1    0    0  502    0  0.00000000000E+00 -0.00000000000E+00 -0.96380137711E+03  0.96380137711E+03  0.00000000000E+00 0. -1.
    9000007    2    1    2  502    0  0.10787580714E+03 -0.82859517609E+02 -0.65034399482E+03  0.77674756350E+03  0.40235130966E+03 0.  0.
    9000005    1    3    3    0    0  0.24332503560E+03  0.23095653443E+01 -0.50507810038E+03  0.56064007574E+03  0.99999687468E+00 0.  0.
          4    1    3    3  502    0 -0.13544922846E+03 -0.85169082954E+02 -0.14526589443E+03  0.21610748776E+03  0.00000000000E+00 0.  1.
   -9000007    1    1    2    0  501 -0.10787580714E+03  0.82859517609E+02 -0.71935022016E+02  0.42857617388E+03  0.40000000000E+03 0.  1.
<mgrwt>
<rscale>  2 0.42360795E+03</rscale>
<asrwt>0</asrwt>
<pdfrwt beam="1">  1        2 0.14827714E+00 0.42360795E+03</pdfrwt>
<pdfrwt beam="2">  1       -2 0.37157286E-01 0.42360795E+03</pdfrwt>
<totfact> 0.18808593E+02</totfact>
</mgrwt>
</event>
<event>
 6    1  0.8861680E-004  0.4196457E+03  0.7818608E-02  0.1037182E+00
         -2   -1    0    0    0  501 -0.00000000000E+00  0.00000000000E+00  0.47322584537E+03  0.47322584537E+03  0.00000000000E+00 0. -1.
          2   -1    0    0  502    0  0.00000000000E+00 -0.00000000000E+00 -0.41351503499E+03  0.41351503499E+03  0.00000000000E+00 0.  1.
    9000007    2    1    2  502    0 -0.12423921216E+03  0.26028177832E+02  0.17011399319E+03  0.45280343019E+03  0.39997415895E+03 0.  0.
    9000005    1    3    3    0    0 -0.24324692770E+03  0.92926218217E+02  0.17901279735E+03  0.31599198008E+03  0.99999687468E+00 0.  0.
          4    1    3    3  502    0  0.11900771554E+03 -0.66898040386E+02 -0.88988041599E+01  0.13681145010E+03  0.00000000000E+00 0.  1.
   -9000007    1    1    2    0  501  0.12423921216E+03 -0.26028177832E+02 -0.11040318281E+03  0.43393745016E+03  0.40000000000E+03 0.  1.
<mgrwt>
<rscale>  2 0.41964570E+03</rscale>
<asrwt>0</asrwt>
<pdfrwt beam="1">  1        2 0.63617698E-01 0.41964570E+03</pdfrwt>
<pdfrwt beam="2">  1       -2 0.72803976E-01 0.41964570E+03</pdfrwt>
<totfact> 0.13440163E+02</totfact>
</mgrwt>
</event>
<event>
 6    1  0.8861680E-004  0.6852787E+03  0.7818608E-02  0.9742744E-01
         -2   -1    0    0    0  501 -0.00000000000E+00  0.00000000000E+00  0.68030449191E+03  0.68030449191E+03  0.00000000000E+00 0.  1.
          2   -1    0    0  502    0  0.00000000000E+00 -0.00000000000E+00 -0.15627689300E+04  0.15627689300E+04  0.00000000000E+00 0. -1.
    9000007    2    1    2  502    0  0.15384986443E+03  0.53477398335E+03  0.39677690951E+03  0.79182863916E+03  0.39988458813E+03 0.  0.
    9000005    1    3    3    0    0  0.13060506355E+03  0.32702083399E+03  0.10127220362E+02  0.35228379054E+03  0.99999687468E+00 0.  0.
          4    1    3    3  502    0  0.23244800874E+02  0.20775314936E+03  0.38664968914E+03  0.43954484862E+03  0.00000000000E+00 0.  1.
   -9000007    1    1    2    0  501 -0.15384986443E+03 -0.53477398335E+03 -0.12792413476E+04  0.14512447828E+04  0.40000000000E+03 0. -1.
<mgrwt>
<rscale>  2 0.68527865E+03</rscale>
<asrwt>0</asrwt>
<pdfrwt beam="1">  1        2 0.24042599E+00 0.68527865E+03</pdfrwt>
<pdfrwt beam="2">  1       -2 0.10466223E+00 0.68527865E+03</pdfrwt>
<totfact> 0.89783236E+00</totfact>
</mgrwt>
</event>
<event>
 6    1  0.8861680E-004  0.5144090E+03  0.7818608E-02  0.1010085E+00
         -2   -1    0    0    0  501 -0.00000000000E+00  0.00000000000E+00  0.16906202372E+03  0.16906202372E+03  0.00000000000E+00 0. -1.
          2   -1    0    0  502    0  0.00000000000E+00 -0.00000000000E+00 -0.17485186982E+04  0.17485186982E+04  0.00000000000E+00 0.  1.
    9000007    2    1    2  502    0  0.14396785628E+03 -0.28946477415E+03 -0.11003085520E+04  0.12146585908E+04  0.40024990130E+03 0.  0.
    9000005    1    3    3    0    0  0.85774809570E+02 -0.21183715005E+02 -0.83841707359E+01  0.88754504398E+02  0.99999687468E+00 0.  0.
          4    1    3    3  502    0  0.58193046707E+02 -0.26828105915E+03 -0.10919243813E+04  0.11259040864E+04  0.00000000000E+00 0.  1.
   -9000007    1    1    2    0  501 -0.14396785628E+03  0.28946477415E+03 -0.47914812239E+03  0.70292213104E+03  0.40000000000E+03 0. -1.
<mgrwt>
<rscale>  2 0.51440895E+03</rscale>
<asrwt>0</asrwt>
<pdfrwt beam="1">  1        2 0.26900289E+00 0.51440895E+03</pdfrwt>
<pdfrwt beam="2">  1       -2 0.26009541E-01 0.51440895E+03</pdfrwt>
<totfact> 0.12880573E+02</totfact>
</mgrwt>
</event>
<event>
 6    1  0.8861680E-004  0.4554514E+03  0.7818608E-02  0.1026109E+00
          2   -1    0    0  502    0  0.00000000000E+00  0.00000000000E+00  0.68107736350E+03  0.68107736350E+03  0.00000000000E+00 0.  1.
         -2   -1    0    0    0  501 -0.00000000000E+00 -0.00000000000E+00 -0.32326667289E+03  0.32326667289E+03  0.00000000000E+00 0. -1.
    9000007    2    1    2  502    0 -0.20897297423E+03  0.59165051223E+02  0.29978043631E+03  0.54550014392E+03  0.40066431059E+03 0.  0.
    9000005    1    3    3    0    0 -0.18876251267E+03 -0.63782136099E+01 -0.44838278017E+02  0.19412222688E+03  0.99999687468E+00 0.  0.
          4    1    3    3  502    0 -0.20210461554E+02  0.65543264833E+02  0.34461871432E+03  0.35137791704E+03  0.00000000000E+00 0.  1.
   -9000007    1    1    2    0  501  0.20897297423E+03 -0.59165051223E+02  0.58030254301E+02  0.45884389247E+03  0.40000000000E+03 0.  1.
<mgrwt>
<rscale>  2 0.45545140E+03</rscale>
<asrwt>0</asrwt>
<pdfrwt beam="1">  1        2 0.10478113E+00 0.45545140E+03</pdfrwt>
<pdfrwt beam="2">  1       -2 0.49733334E-01 0.45545140E+03</pdfrwt>
<totfact> 0.16705167E+02</totfact>
</mgrwt>
</event>
<event>
 6    1  0.8861680E-004  0.4139296E+03  0.7818608E-02  0.1039060E+00
          1   -1    0    0  502    0  0.00000000000E+00  0.00000000000E+00  0.20756984998E+04  0.20756984998E+04  0.00000000000E+00 0.  1.
         -1   -1    0    0    0  501 -0.00000000000E+00 -0.00000000000E+00 -0.82691120727E+02  0.82691120727E+02  0.00000000000E+00 0. -1.
    9000007    2    1    2  502    0  0.35267463629E+02  0.10020815403E+03  0.10420814838E+04  0.11213045101E+04  0.40013062517E+03 0.  0.
    9000005    1    3    3    0    0  0.82283619730E+02  0.24476586725E+03  0.58071193901E+03  0.63553778798E+03  0.99999687468E+00 0.  0.
          4    1    3    3  502    0 -0.47016156101E+02 -0.14455771323E+03  0.46136954483E+03  0.48576672208E+03  0.00000000000E+00 0.  1.
   -9000007    1    1    2    0  501 -0.35267463629E+02 -0.10020815403E+03  0.95092589525E+03  0.10370851105E+04  0.40000000000E+03 0. -1.
<mgrwt>
<rscale>  2 0.41392961E+03</rscale>
<asrwt>0</asrwt>
<pdfrwt beam="1">  1        1 0.31933819E+00 0.41392961E+03</pdfrwt>
<pdfrwt beam="2">  1       -1 0.12721713E-01 0.41392961E+03</pdfrwt>
<totfact> 0.12249018E+02</totfact>
</mgrwt>
</event>
<event>
 6    1  0.8861680E-004  0.5069204E+03  0.7818608E-02  0.1011988E+00
          2   -1    0    0  502    0  0.00000000000E+00  0.00000000000E+00  0.18022810608E+04  0.18022810608E+04  0.00000000000E+00 0.  1.
         -2   -1    0    0    0  501 -0.00000000000E+00 -0.00000000000E+00 -0.14564001778E+03  0.14564001778E+03  0.00000000000E+00 0. -1.
    9000007    2    1    2  502    0  0.28539173379E+03 -0.12452462153E+03  0.68715306804E+03  0.85390930683E+03  0.40003367645E+03 0.  0.
    9000005    1    3    3    0    0  0.34661198158E+03 -0.28794537197E+02  0.33125931852E+03  0.48031523737E+03  0.99999687468E+00 0.  0.
          4    1    3    3  502    0 -0.61220247798E+02 -0.95730084337E+02  0.35589374951E+03  0.37359406945E+03  0.00000000000E+00 0.  1.
   -9000007    1    1    2    0  501 -0.28539173379E+03  0.12452462153E+03  0.96948797494E+03  0.10940117717E+04  0.40000000000E+03 0. -1.
<mgrwt>
<rscale>  2 0.50692040E+03</rscale>
<asrwt>0</asrwt>
<pdfrwt beam="1">  1        2 0.27727399E+00 0.50692040E+03</pdfrwt>
<pdfrwt beam="2">  1       -2 0.22406158E-01 0.50692040E+03</pdfrwt>
<totfact> 0.15737297E+02</totfact>
</mgrwt>
</event>
<event>
 6    1  0.8861680E-004  0.4102711E+03  0.7818608E-02  0.1040280E+00
          2   -1    0    0  502    0  0.00000000000E+00  0.00000000000E+00  0.53916702880E+03  0.53916702880E+03  0.00000000000E+00 0.  1.
         -2   -1    0    0    0  501 -0.00000000000E+00 -0.00000000000E+00 -0.37288156525E+03  0.37288156525E+03  0.00000000000E+00 0. -1.
    9000007    2    1    2  502    0 -0.77315736042E+02 -0.53082909502E+02  0.26702279315E+03  0.48903142195E+03  0.39881705238E+03 0.  0.
    9000005    1    3    3    0    0  0.16075392201E+03  0.99470637952E+01  0.80274476513E+02  0.17996043757E+03  0.99999687468E+00 0.  0.
          4    1    3    3  502    0 -0.23806965805E+03 -0.63029973297E+02  0.18674831664E+03  0.30907098438E+03  0.00000000000E+00 0.  1.
   -9000007    1    1    2    0  501  0.77315736042E+02  0.53082909502E+02 -0.10073732959E+03  0.42301717210E+03  0.40000000000E+03 0. -1.
<mgrwt>
<rscale>  2 0.41027110E+03</rscale>
<asrwt>0</asrwt>
<pdfrwt beam="1">  1        2 0.82948774E-01 0.41027110E+03</pdfrwt>
<pdfrwt beam="2">  1       -2 0.57366395E-01 0.41027110E+03</pdfrwt>
<totfact> 0.16535866E+02</totfact>
</mgrwt>
</event>
<event>
 6    1  0.8861680E-004  0.4205030E+03  0.7818608E-02  0.1036903E+00
          2   -1    0    0  502    0  0.00000000000E+00  0.00000000000E+00  0.94938079760E+03  0.94938079760E+03  0.00000000000E+00 0. -1.
         -2   -1    0    0    0  501 -0.00000000000E+00 -0.00000000000E+00 -0.19713796082E+03  0.19713796082E+03  0.00000000000E+00 0.  1.
    9000007    2    1    2  502    0  0.12778277701E+03  0.15764138662E+02  0.51108658283E+03  0.66202594630E+03  0.40061441844E+03 0.  0.
    9000005    1    3    3    0    0  0.22917414843E+03  0.92733593604E+02  0.46501186420E+03  0.52664726671E+03  0.99999687468E+00 0.  0.
          4    1    3    3  502    0 -0.10139137142E+03 -0.76969454943E+02  0.46074718630E+02  0.13537867960E+03  0.00000000000E+00 0.  1.
   -9000007    1    1    2    0  501 -0.12778277701E+03 -0.15764138662E+02  0.24115625395E+03  0.48449281211E+03  0.40000000000E+03 0. -1.
<mgrwt>
<rscale>  2 0.42050295E+03</rscale>
<asrwt>0</asrwt>
<pdfrwt beam="1">  1        2 0.14605858E+00 0.42050295E+03</pdfrwt>
<pdfrwt beam="2">  1       -2 0.30328918E-01 0.42050295E+03</pdfrwt>
<totfact> 0.28112277E+02</totfact>
</mgrwt>
</event>
<event>
 6    1  0.8861680E-004  0.4999400E+03  0.7818608E-02  0.1013795E+00
          2   -1    0    0  502    0  0.00000000000E+00  0.00000000000E+00  0.23241268936E+03  0.23241268936E+03  0.00000000000E+00 0. -1.
         -2   -1    0    0    0  501 -0.00000000000E+00 -0.00000000000E+00 -0.11216016033E+04  0.11216016033E+04  0.00000000000E+00 0.  1.
    9000007    2    1    2  502    0  0.19336109621E+03  0.22905897547E+03 -0.30728228717E+03  0.58689510372E+03  0.40020860935E+03 0.  0.
    9000005    1    3    3    0    0  0.14520901092E+03 -0.75098494604E+02 -0.18147899203E+02  0.16448643404E+03  0.99999687468E+00 0.  0.
          4    1    3    3  502    0  0.48152085286E+02  0.30415747007E+03 -0.28913438796E+03  0.42240866968E+03  0.00000000000E+00 0.  1.
   -9000007    1    1    2    0  501 -0.19336109621E+03 -0.22905897547E+03 -0.58190662681E+03  0.76711918898E+03  0.40000000000E+03 0.  1.
<mgrwt>
<rscale>  2 0.49993998E+03</rscale>
<asrwt>0</asrwt>
<pdfrwt beam="1">  1        2 0.35755798E-01 0.49993998E+03</pdfrwt>
<pdfrwt beam="2">  1       -2 0.17255409E+00 0.49993998E+03</pdfrwt>
<totfact> 0.30877528E+01</totfact>
</mgrwt>
</event>
<event>
 6    1  0.8861680E-004  0.4222968E+03  0.7818608E-02  0.1036321E+00
          2   -1    0    0  502    0  0.00000000000E+00  0.00000000000E+00  0.14120736500E+04  0.14120736500E+04  0.00000000000E+00 0. -1.
         -2   -1    0    0    0  501 -0.00000000000E+00 -0.00000000000E+00 -0.16208913264E+03  0.16208913264E+03  0.00000000000E+00 0.  1.
    9000007    2    1    2  502    0 -0.44687705238E+02  0.12584816676E+03  0.25579585810E+03  0.49423415432E+03  0.40124945632E+03 0.  0.
    9000005    1    3    3    0    0 -0.15687610983E+02 -0.12452829176E+03  0.19993384219E+03  0.23606765520E+03  0.99999687468E+00 0.  0.
          4    1    3    3  502    0 -0.29000094254E+02  0.25037645851E+03  0.55862015906E+02  0.25816649911E+03  0.00000000000E+00 0.  1.
   -9000007    1    1    2    0  501  0.44687705238E+02 -0.12584816676E+03  0.99418865923E+03  0.10799286283E+04  0.40000000000E+03 0. -1.
<mgrwt>
<rscale>  2 0.42229683E+03</rscale>
<asrwt>0</asrwt>
<pdfrwt beam="1">  1        2 0.21724209E+00 0.42229683E+03</pdfrwt>
<pdfrwt beam="2">  1       -2 0.24936791E-01 0.42229683E+03</pdfrwt>
<totfact> 0.21429039E+02</totfact>
</mgrwt>
</event>
<event>
 6    1  0.8861680E-004  0.6249000E+03  0.7818608E-02  0.9855052E-01
          2   -1    0    0  502    0  0.00000000000E+00  0.00000000000E+00  0.34746878975E+04  0.34746878975E+04  0.00000000000E+00 0.  1.
         -2   -1    0    0    0  501 -0.00000000000E+00 -0.00000000000E+00 -0.14809596625E+03  0.14809596625E+03  0.00000000000E+00 0. -1.
    9000007    2    1    2  502    0  0.90113051637E+02 -0.47166376798E+03  0.77365401476E+03  0.99446138020E+03  0.39978222829E+03 0.  0.
    9000005    1    3    3    0    0  0.14100731003E+03 -0.37891637036E+03  0.78996703314E+03  0.88741737116E+03  0.99999687468E+00 0.  0.
          4    1    3    3  502    0 -0.50894258397E+02 -0.92747397619E+02 -0.16313018372E+02  0.10704400904E+03  0.00000000000E+00 0.  1.
   -9000007    1    1    2    0  501 -0.90113051637E+02  0.47166376798E+03  0.25529379165E+04  0.26283224836E+04  0.40000000000E+03 0.  1.
<mgrwt>
<rscale>  2 0.62489997E+03</rscale>
<asrwt>0</asrwt>
<pdfrwt beam="1">  1        2 0.53456731E+00 0.62489997E+03</pdfrwt>
<pdfrwt beam="2">  1       -2 0.22783997E-01 0.62489997E+03</pdfrwt>
<totfact> 0.15835922E+01</totfact>
</mgrwt>
</event>
<event>
 6    1  0.8861680E-004  0.4418686E+03  0.7818608E-02  0.1030175E+00
          2   -1    0    0  502    0  0.00000000000E+00  0.00000000000E+00  0.25584494261E+03  0.25584494261E+03  0.00000000000E+00 0.  1.
         -2   -1    0    0    0  501 -0.00000000000E+00 -0.00000000000E+00 -0.82370573938E+03  0.82370573938E+03  0.00000000000E+00 0. -1.
    9000007    2    1    2  502    0  0.61274087967E+02  0.17434931052E+03 -0.43101785094E+03  0.61816343926E+03  0.40273745030E+03 0.  0.
    9000005    1    3    3    0    0 -0.12908787110E+03 -0.57638547500E+02 -0.16344678053E+03  0.21610583213E+03  0.99999687468E+00 0.  0.
          4    1    3    3  502    0  0.19036195906E+03  0.23198785802E+03 -0.26757107041E+03  0.40205760713E+03  0.00000000000E+00 0.  1.
   -9000007    1    1    2    0  501 -0.61274087967E+02 -0.17434931052E+03 -0.13684294583E+03  0.46138724274E+03  0.40000000000E+03 0.  1.
<mgrwt>
<rscale>  2 0.44186857E+03</rscale>
<asrwt>0</asrwt>
<pdfrwt beam="1">  1        2 0.39360759E-01 0.44186857E+03</pdfrwt>
<pdfrwt beam="2">  1       -2 0.12672396E+00 0.44186857E+03</pdfrwt>
<totfact> 0.62605352E+01</totfact>
</mgrwt>
</event>
<event>
 6    1  0.8861680E-004  0.4288567E+03  0.7818608E-02  0.1034222E+00
          2   -1    0    0  502    0  0.00000000000E+00  0.00000000000E+00  0.12385098807E+04  0.12385098807E+04  0.00000000000E+00 0.  1.
         -2   -1    0    0    0  501 -0.00000000000E+00 -0.00000000000E+00 -0.17775766613E+03  0.17775766613E+03  0.00000000000E+00 0. -1.
    9000007    2    1    2  502    0  0.81054656494E+02 -0.13188278837E+03  0.24302910124E+03  0.49288570961E+03  0.39988779862E+03 0.  0.
    9000005    1    3    3    0    0 -0.12463208240E+03  0.67806511500E+02  0.88299601485E+02  0.16711881576E+03  0.99999687468E+00 0.  0.
          4    1    3    3  502    0  0.20568673889E+03 -0.19968929987E+03  0.15472949975E+03  0.32576689385E+03  0.00000000000E+00 0.  1.
   -9000007    1    1    2    0  501 -0.81054656494E+02  0.13188278837E+03  0.81772311331E+03  0.92338183719E+03  0.40000000000E+03 0. -1.
<mgrwt>
<rscale>  2 0.42885667E+03</rscale>
<asrwt>0</asrwt>
<pdfrwt beam="1">  1        2 0.19053998E+00 0.42885667E+03</pdfrwt>
<pdfrwt beam="2">  1       -2 0.27347334E-01 0.42885667E+03</pdfrwt>
<totfact> 0.22710068E+02</totfact>
</mgrwt>
</event>
<event>
 6    1  0.8861680E-004  0.5694478E+03  0.7818608E-02  0.9970901E-01
         -2   -1    0    0    0  501 -0.00000000000E+00  0.00000000000E+00  0.19615664167E+03  0.19615664167E+03  0.00000000000E+00 0.  1.
          2   -1    0    0  502    0  0.00000000000E+00 -0.00000000000E+00 -0.30479211950E+04  0.30479211950E+04  0.00000000000E+00 0. -1.
    9000007    2    1    2  502    0  0.88475928058E+02  0.39550830968E+03 -0.25231758624E+04  0.25866393675E+04  0.40003996311E+03 0.  0.
    9000005    1    3    3    0    0 -0.21216893606E+02  0.31054441605E+03 -0.23189010953E+04  0.23396989722E+04  0.99999687468E+00 0.  0.
          4    1    3    3  502    0  0.10969282166E+03  0.84963893638E+02 -0.20427476713E+03  0.24694039531E+03  0.00000000000E+00 0.  1.
   -9000007    1    1    2    0  501 -0.88475928058E+02 -0.39550830968E+03 -0.32858869085E+03  0.65743846908E+03  0.40000000000E+03 0.  1.
<mgrwt>
<rscale>  2 0.56944780E+03</rscale>
<asrwt>0</asrwt>
<pdfrwt beam="1">  1        2 0.46891100E+00 0.56944780E+03</pdfrwt>
<pdfrwt beam="2">  1       -2 0.30177942E-01 0.56944780E+03</pdfrwt>
<totfact> 0.18106070E+01</totfact>
</mgrwt>
</event>
<event>
 6    1  0.8861680E-004  0.1116606E+04  0.7818608E-02  0.9189156E-01
          2   -1    0    0  502    0  0.00000000000E+00  0.00000000000E+00  0.11216224801E+04  0.11216224801E+04  0.00000000000E+00 0. -1.
         -2   -1    0    0    0  501 -0.00000000000E+00 -0.00000000000E+00 -0.11116576181E+04  0.11116576181E+04  0.00000000000E+00 0.  1.
    9000007    2    1    2  502    0  0.99908740569E+03 -0.30703345775E+03  0.11615294956E+02  0.11141519053E+04  0.38568687369E+03 0.  0.
    9000005    1    3    3    0    0  0.70664861431E+03 -0.33264365403E+03  0.14046876998E+03  0.79355941177E+03  0.99999687468E+00 0.  0.
          4    1    3    3  502    0  0.29243879137E+03  0.25610196287E+02 -0.12885347503E+03  0.32059249349E+03  0.00000000000E+00 0.  1.
   -9000007    1    1    2    0  501 -0.99908740569E+03  0.30703345775E+03 -0.16504329264E+01  0.11191281930E+04  0.40000000000E+03 0.  1.
<mgrwt>
<rscale>  2 0.11166063E+04</rscale>
<asrwt>0</asrwt>
<pdfrwt beam="1">  1        2 0.17255731E+00 0.11166063E+04</pdfrwt>
<pdfrwt beam="2">  1       -2 0.17102425E+00 0.11166063E+04</pdfrwt>
<totfact> 0.43383073E+00</totfact>
</mgrwt>
</event>
<event>
 6    1  0.8861680E-004  0.4059264E+03  0.7818608E-02  0.1041747E+00
         -1   -1    0    0    0  501 -0.00000000000E+00  0.00000000000E+00  0.91903236174E+03  0.91903236174E+03  0.00000000000E+00 0. -1.
          1   -1    0    0  502    0  0.00000000000E+00 -0.00000000000E+00 -0.23408279429E+03  0.23408279429E+03  0.00000000000E+00 0.  1.
    9000007    2    1    2  502    0 -0.67549736890E+02  0.15909496923E+02  0.62138056969E+03  0.74219290483E+03  0.39990050831E+03 0.  0.
    9000005    1    3    3    0    0 -0.17372538964E+03  0.97760578744E+02  0.56061326955E+03  0.59500073929E+03  0.99999687468E+00 0.  0.
          4    1    3    3  502    0  0.10617565275E+03 -0.81851081821E+02  0.60767300145E+02  0.14719216555E+03  0.00000000000E+00 0.  1.
   -9000007    1    1    2    0  501  0.67549736890E+02 -0.15909496923E+02  0.63568997757E+02  0.41092225119E+03  0.40000000000E+03 0.  1.
<mgrwt>
<rscale>  2 0.40592645E+03</rscale>
<asrwt>0</asrwt>
<pdfrwt beam="1">  1        1 0.36012738E-01 0.40592645E+03</pdfrwt>
<pdfrwt beam="2">  1       -1 0.14138959E+00 0.40592645E+03</pdfrwt>
<totfact> 0.52235242E+01</totfact>
</mgrwt>
</event>
<event>
 6    1  0.8861680E-004  0.4467203E+03  0.7818608E-02  0.1028705E+00
         -2   -1    0    0    0  501 -0.00000000000E+00  0.00000000000E+00  0.29797700465E+03  0.29797700465E+03  0.00000000000E+00 0. -1.
          2   -1    0    0  502    0  0.00000000000E+00 -0.00000000000E+00 -0.69209986156E+03  0.69209986156E+03  0.00000000000E+00 0.  1.
    9000007    2    1    2  502    0  0.84007298565E+01 -0.19894622538E+03 -0.10798463817E+03  0.45948733269E+03  0.39977212755E+03 0.  0.
    9000005    1    3    3    0    0  0.12037125922E+03  0.83471070890E+01  0.90974173548E+02  0.15111655928E+03  0.99999687468E+00 0.  0.
          4    1    3    3  502    0 -0.11197052937E+03 -0.20729333246E+03 -0.19895881171E+03  0.30837077340E+03  0.00000000000E+00 0.  1.
   -9000007    1    1    2    0  501 -0.84007298565E+01  0.19894622538E+03 -0.28613821874E+03  0.53058953352E+03  0.40000000000E+03 0.  1.
<mgrwt>
<rscale>  2 0.44672030E+03</rscale>
<asrwt>0</asrwt>
<pdfrwt beam="1">  1        2 0.10647690E+00 0.44672030E+03</pdfrwt>
<pdfrwt beam="2">  1       -2 0.45842616E-01 0.44672030E+03</pdfrwt>
<totfact> 0.19290501E+02</totfact>
</mgrwt>
</event>
<event>
 6    1  0.8861680E-004  0.5479565E+03  0.7818608E-02  0.1001968E+00
          1   -1    0    0  502    0  0.00000000000E+00  0.00000000000E+00  0.84068424406E+03  0.84068424406E+03  0.00000000000E+00 0. -1.
         -1   -1    0    0    0  501 -0.00000000000E+00 -0.00000000000E+00 -0.36879432150E+03  0.36879432150E+03  0.00000000000E+00 0.  1.
    9000007    2    1    2  502    0  0.25363173768E+03 -0.27231892288E+03  0.12921115019E+03  0.56456353617E+03  0.40441292131E+03 0.  0.
    9000005    1    3    3    0    0  0.40190228721E+02  0.35352923684E+01  0.20391092827E+03  0.20786634994E+03  0.99999687468E+00 0.  0.
          4    1    3    3  502    0  0.21344150896E+03 -0.27585421525E+03 -0.74699778079E+02  0.35669718622E+03  0.00000000000E+00 0.  1.
   -9000007    1    1    2    0  501 -0.25363173768E+03  0.27231892288E+03  0.34267877236E+03  0.64491502940E+03  0.40000000000E+03 0. -1.
<mgrwt>
<rscale>  2 0.54795649E+03</rscale>
<asrwt>0</asrwt>
<pdfrwt beam="1">  1        1 0.12933604E+00 0.54795649E+03</pdfrwt>
<pdfrwt beam="2">  1       -1 0.56737588E-01 0.54795649E+03</pdfrwt>
<totfact> 0.66866967E+01</totfact>
</mgrwt>
</event>
<event>
 6    1  0.8861680E-004  0.5145173E+03  0.7818608E-02  0.1010058E+00
         -2   -1    0    0    0  501 -0.00000000000E+00  0.00000000000E+00  0.40462272166E+03  0.40462272166E+03  0.00000000000E+00 0. -1.
          2   -1    0    0  502    0  0.00000000000E+00 -0.00000000000E+00 -0.84597692874E+03  0.84597692874E+03  0.00000000000E+00 0.  1.
    9000007    2    1    2  502    0 -0.20341481787E+03 -0.25115754143E+03  0.76909114464E+02  0.52049378876E+03  0.40067577105E+03 0.  0.
    9000005    1    3    3    0    0 -0.30374795492E+03 -0.27708396377E+03  0.62561495295E+02  0.41587652469E+03  0.99999687468E+00 0.  0.
          4    1    3    3  502    0  0.10033313706E+03  0.25926422341E+02  0.14347619169E+02  0.10461726408E+03  0.00000000000E+00 0.  1.
   -9000007    1    1    2    0  501  0.20341481787E+03  0.25115754143E+03 -0.51826332155E+03  0.73010586164E+03  0.40000000000E+03 0. -1.
<mgrwt>
<rscale>  2 0.51451734E+03</rscale>
<asrwt>0</asrwt>
<pdfrwt beam="1">  1        2 0.13015029E+00 0.51451734E+03</pdfrwt>
<pdfrwt beam="2">  1       -2 0.62249651E-01 0.51451734E+03</pdfrwt>
<totfact> 0.79123082E+01</totfact>
</mgrwt>
</event>
<event>
 6    1  0.8861680E-004  0.5120763E+03  0.7818608E-02  0.1010674E+00
         -2   -1    0    0    0  501 -0.00000000000E+00  0.00000000000E+00  0.31824286452E+03  0.31824286452E+03  0.00000000000E+00 0.  1.
          2   -1    0    0  502    0  0.00000000000E+00 -0.00000000000E+00 -0.17174716956E+04  0.17174716956E+04  0.00000000000E+00 0. -1.
    9000007    2    1    2  502    0 -0.30658644765E+03 -0.90322982382E+02  0.34500693440E+02  0.51330402400E+03  0.40017150345E+03 0.  0.
    9000005    1    3    3    0    0 -0.11307166153E+03 -0.23257548770E+03  0.76060661093E+02  0.26956034998E+03  0.99999687468E+00 0.  0.
          4    1    3    3  502    0 -0.19351478612E+03  0.14225250532E+03 -0.41559967654E+02  0.24374367402E+03  0.00000000000E+00 0.  1.
   -9000007    1    1    2    0  501  0.30658644765E+03  0.90322982382E+02 -0.14337295245E+04  0.15224105361E+04  0.40000000000E+03 0. -1.
<mgrwt>
<rscale>  2 0.51207626E+03</rscale>
<asrwt>0</asrwt>
<pdfrwt beam="1">  1        2 0.26422642E+00 0.51207626E+03</pdfrwt>
<pdfrwt beam="2">  1       -2 0.48960440E-01 0.51207626E+03</pdfrwt>
<totfact> 0.40194747E+01</totfact>
</mgrwt>
</event>
<event>
 6    1  0.8861680E-004  0.4675688E+03  0.7818608E-02  0.1022609E+00
          2   -1    0    0  502    0  0.00000000000E+00  0.00000000000E+00  0.58086590178E+03  0.58086590178E+03  0.00000000000E+00 0.  1.
         -2   -1    0    0    0  501 -0.00000000000E+00 -0.00000000000E+00 -0.38942439221E+03  0.38942439221E+03  0.00000000000E+00 0. -1.
    9000007    2    1    2  502    0  0.21709533092E+02 -0.24073526850E+03  0.18458706448E+03  0.50288066985E+03  0.40048946354E+03 0.  0.
    9000005    1    3    3    0    0  0.12576892151E+03 -0.26363333415E+03  0.27322138155E+01  0.29211097459E+03  0.99999687468E+00 0.  0.
          4    1    3    3  502    0 -0.10405938842E+03  0.22898065646E+02  0.18185485066E+03  0.21076969525E+03  0.00000000000E+00 0.  1.
   -9000007    1    1    2    0  501 -0.21709533092E+02  0.24073526850E+03  0.68544450870E+01  0.46740962415E+03  0.40000000000E+03 0. -1.
<mgrwt>
<rscale>  2 0.46756881E+03</rscale>
<asrwt>0</asrwt>
<pdfrwt beam="1">  1        2 0.89363984E-01 0.46756881E+03</pdfrwt>
<pdfrwt beam="2">  1       -2 0.59911445E-01 0.46756881E+03</pdfrwt>
<totfact> 0.13784530E+02</totfact>
</mgrwt>
</event>
<event>
 6    1  0.8861680E-004  0.4580139E+03  0.7818608E-02  0.1025359E+00
         -1   -1    0    0    0  501 -0.00000000000E+00  0.00000000000E+00  0.71075434928E+02  0.71075434928E+02  0.00000000000E+00 0. -1.
          1   -1    0    0  502    0  0.00000000000E+00 -0.00000000000E+00 -0.33976842347E+04  0.33976842347E+04  0.00000000000E+00 0.  1.
    9000007    2    1    2  502    0  0.18713740436E+03  0.12190369998E+03 -0.10344157819E+04  0.11312332524E+04  0.39973959180E+03 0.  0.
    9000005    1    3    3    0    0  0.30279989775E+03  0.12591360498E+03 -0.62546575576E+03  0.70622264593E+03  0.99999687468E+00 0.  0.
          4    1    3    3  502    0 -0.11566249339E+03 -0.40099049953E+01 -0.40895002613E+03  0.42501060644E+03  0.00000000000E+00 0.  1.
   -9000007    1    1    2    0  501 -0.18713740436E+03 -0.12190369998E+03 -0.22921930179E+04  0.23375264173E+04  0.40000000000E+03 0.  1.
<mgrwt>
<rscale>  2 0.45801394E+03</rscale>
<asrwt>0</asrwt>
<pdfrwt beam="1">  1        1 0.52272063E+00 0.45801394E+03</pdfrwt>
<pdfrwt beam="2">  1       -1 0.10934683E-01 0.45801394E+03</pdfrwt>
<totfact> 0.18676207E+01</totfact>
</mgrwt>
</event>
<event>
 6    1  0.8861680E-004  0.4010773E+03  0.7818608E-02  0.1043407E+00
          2   -1    0    0  502    0  0.00000000000E+00  0.00000000000E+00  0.52965830303E+03  0.52965830303E+03  0.00000000000E+00 0.  1.
         -2   -1    0    0    0  501 -0.00000000000E+00 -0.00000000000E+00 -0.32517646025E+03  0.32517646025E+03  0.00000000000E+00 0. -1.
    9000007    2    1    2  502    0 -0.39086352507E+02  0.11415901278E+02  0.21181584883E+03  0.45270063964E+03  0.39801237363E+03 0.  0.
    9000005    1    3    3    0    0  0.15006657905E+02 -0.14437112743E+03 -0.41019871958E+02  0.15083717084E+03  0.99999687468E+00 0.  0.
          4    1    3    3  502    0 -0.54093010412E+02  0.15578702871E+03  0.25283572079E+03  0.30186346880E+03  0.00000000000E+00 0.  1.
   -9000007    1    1    2    0  501  0.39086352507E+02 -0.11415901278E+02 -0.73340060491E+01  0.40213412364E+03  0.40000000000E+03 0. -1.
<mgrwt>
<rscale>  2 0.40107734E+03</rscale>
<asrwt>0</asrwt>
<pdfrwt beam="1">  1        2 0.81485893E-01 0.40107734E+03</pdfrwt>
<pdfrwt beam="2">  1       -2 0.50027148E-01 0.40107734E+03</pdfrwt>
<totfact> 0.22345837E+02</totfact>
</mgrwt>
</event>
<event>
 6    1  0.8861680E-004  0.4863495E+03  0.7818608E-02  0.1017405E+00
         -2   -1    0    0    0  501 -0.00000000000E+00  0.00000000000E+00  0.83208713271E+03  0.83208713271E+03  0.00000000000E+00 0.  1.
          2   -1    0    0  502    0  0.00000000000E+00 -0.00000000000E+00 -0.55142466969E+03  0.55142466969E+03  0.00000000000E+00 0. -1.
    9000007    2    1    2  502    0  0.21453427475E+03 -0.17290128169E+03  0.62192088369E+03  0.78989819244E+03  0.40153923917E+03 0.  0.
    9000005    1    3    3    0    0  0.15823079296E+03  0.94759802495E+02  0.12541812345E+03  0.22304060100E+03  0.99999687468E+00 0.  0.
          4    1    3    3  502    0  0.56303481793E+02 -0.26766108419E+03  0.49650276024E+03  0.56685759144E+03  0.00000000000E+00 0.  1.
   -9000007    1    1    2    0  501 -0.21453427475E+03  0.17290128169E+03 -0.34125842067E+03  0.59361360997E+03  0.40000000000E+03 0. -1.
<mgrwt>
<rscale>  2 0.48634955E+03</rscale>
<asrwt>0</asrwt>
<pdfrwt beam="1">  1        2 0.84834564E-01 0.48634955E+03</pdfrwt>
<pdfrwt beam="2">  1       -2 0.12801341E+00 0.48634955E+03</pdfrwt>
<totfact> 0.25787260E+01</totfact>
</mgrwt>
</event>
<event>
 6    1  0.8861680E-004  0.4192147E+03  0.7818608E-02  0.1037322E+00
          1   -1    0    0  502    0  0.00000000000E+00  0.00000000000E+00  0.22957853910E+04  0.22957853910E+04  0.00000000000E+00 0. -1.
         -1   -1    0    0    0  501 -0.00000000000E+00 -0.00000000000E+00 -0.79289747625E+02  0.79289747625E+02  0.00000000000E+00 0.  1.
    9000007    2    1    2  502    0  0.24537599060E+02 -0.12466386752E+03  0.13277920500E+04  0.13922540713E+04  0.39899435733E+03 0.  0.
    9000005    1    3    3    0    0  0.17214854232E+03 -0.16140956357E+03  0.10432091723E+04  0.10695674570E+04  0.99999687468E+00 0.  0.
          4    1    3    3  502    0 -0.14761094326E+03  0.36745696057E+02  0.28458287775E+03  0.32268661431E+03  0.00000000000E+00 0.  1.
   -9000007    1    1    2    0  501 -0.24537599060E+02  0.12466386752E+03  0.88870359332E+03  0.98282106734E+03  0.40000000000E+03 0. -1.
<mgrwt>
<rscale>  2 0.41921470E+03</rscale>
<asrwt>0</asrwt>
<pdfrwt beam="1">  1        1 0.35319770E+00 0.41921470E+03</pdfrwt>
<pdfrwt beam="2">  1       -1 0.12198424E-01 0.41921470E+03</pdfrwt>
<totfact> 0.93568997E+01</totfact>
</mgrwt>
</event>
<event>
 6    1  0.8861680E-004  0.4665640E+03  0.7818608E-02  0.1022894E+00
         -4   -1    0    0    0  501 -0.00000000000E+00  0.00000000000E+00  0.76589229122E+03  0.76589229122E+03  0.00000000000E+00 0.  1.
          4   -1    0    0  502    0  0.00000000000E+00 -0.00000000000E+00 -0.28529631630E+03  0.28529631630E+03  0.00000000000E+00 0. -1.
    9000007    2    1    2  502    0  0.82192963609E+02  0.22522101548E+03  0.27268966982E+03  0.54059559858E+03  0.40050437712E+03 0.  0.
    9000005    1    3    3    0    0 -0.58102691051E+02  0.40670584026E+02 -0.87261388311E+02  0.11245251885E+03  0.99999687468E+00 0.  0.
          4    1    3    3  502    0  0.14029565466E+03  0.18455043145E+03  0.35995105814E+03  0.42814307973E+03  0.00000000000E+00 0.  1.
   -9000007    1    1    2    0  501 -0.82192963609E+02 -0.22522101548E+03  0.20790630510E+03  0.51059300894E+03  0.40000000000E+03 0.  1.
<mgrwt>
<rscale>  2 0.46656401E+03</rscale>
<asrwt>0</asrwt>
<pdfrwt beam="1">  1        4 0.43891741E-01 0.46656401E+03</pdfrwt>
<pdfrwt beam="2">  1       -4 0.11782958E+00 0.46656401E+03</pdfrwt>
<totfact> 0.54436623E+00</totfact>
</mgrwt>
</event>
<event>
 6    1  0.8861680E-004  0.4025516E+03  0.7818608E-02  0.1042900E+00
         -2   -1    0    0    0  501 -0.00000000000E+00  0.00000000000E+00  0.29176811622E+03  0.29176811622E+03  0.00000000000E+00 0. -1.
          2   -1    0    0  502    0  0.00000000000E+00 -0.00000000000E+00 -0.80214083432E+03  0.80214083432E+03  0.00000000000E+00 0.  1.
    9000007    2    1    2  502    0 -0.40115602428E+02 -0.56500627597E+01  0.47943028434E+02  0.40589902503E+03  0.40101658292E+03 0.  0.
    9000005    1    3    3    0    0 -0.24539859991E+02  0.18564813791E+03  0.92497670595E+02  0.20886420205E+03  0.99999687468E+00 0.  0.
          4    1    3    3  502    0 -0.15575742437E+02 -0.19129820067E+03 -0.44554642160E+02  0.19703482299E+03  0.00000000000E+00 0.  1.
   -9000007    1    1    2    0  501  0.40115602428E+02  0.56500627597E+01 -0.55831574654E+03  0.68800992551E+03  0.40000000000E+03 0.  1.
<mgrwt>
<rscale>  2 0.40255164E+03</rscale>
<asrwt>0</asrwt>
<pdfrwt beam="1">  1        2 0.12340628E+00 0.40255164E+03</pdfrwt>
<pdfrwt beam="2">  1       -2 0.44887403E-01 0.40255164E+03</pdfrwt>
<totfact> 0.16748490E+02</totfact>
</mgrwt>
</event>
<event>
 6    1  0.8861680E-004  0.4073148E+03  0.7818608E-02  0.1041276E+00
         -1   -1    0    0    0  501 -0.00000000000E+00  0.00000000000E+00  0.28295038049E+03  0.28295038049E+03  0.00000000000E+00 0.  1.
          1   -1    0    0  502    0  0.00000000000E+00 -0.00000000000E+00 -0.67162683347E+03  0.67162683347E+03  0.00000000000E+00 0. -1.
    9000007    2    1    2  502    0  0.34484448276E+02  0.72168680848E+02 -0.36416657560E+03  0.54592304506E+03  0.39876958344E+03 0.  0.
    9000005    1    3    3    0    0 -0.27197424259E+02  0.35648806138E+02 -0.43958877815E+03  0.44187083083E+03  0.99999687468E+00 0.  0.
          4    1    3    3  502    0  0.61681872535E+02  0.36519874710E+02  0.75422202555E+02  0.10405221423E+03  0.00000000000E+00 0.  1.
   -9000007    1    1    2    0  501 -0.34484448276E+02 -0.72168680848E+02 -0.24509877384E+02  0.40865416890E+03  0.40000000000E+03 0.  1.
<mgrwt>
<rscale>  2 0.40731481E+03</rscale>
<asrwt>0</asrwt>
<pdfrwt beam="1">  1        1 0.10332720E+00 0.40731481E+03</pdfrwt>
<pdfrwt beam="2">  1       -1 0.43530828E-01 0.40731481E+03</pdfrwt>
<totfact> 0.15770205E+02</totfact>
</mgrwt>
</event>
<event>
 6    1  0.8861680E-004  0.4022924E+03  0.7818608E-02  0.1042989E+00
          2   -1    0    0  502    0  0.00000000000E+00  0.00000000000E+00  0.32947644483E+03  0.32947644483E+03  0.00000000000E+00 0. -1.
         -2   -1    0    0    0  501 -0.00000000000E+00 -0.00000000000E+00 -0.51269598273E+03  0.51269598273E+03  0.00000000000E+00 0.  1.
    9000007    2    1    2  502    0  0.32379983392E+01  0.44552194328E+02 -0.53476771558E+01  0.40213404116E+03  0.39960956790E+03 0.  0.
    9000005    1    3    3    0    0  0.37622800226E+01 -0.14299916546E+03  0.11131434535E+03  0.18125892956E+03  0.99999687468E+00 0.  0.
          4    1    3    3  502    0 -0.52428168336E+00  0.18755135978E+03 -0.11666202251E+03  0.22087511160E+03  0.00000000000E+00 0.  1.
   -9000007    1    1    2    0  501 -0.32379983392E+01 -0.44552194328E+02 -0.17787186074E+03  0.44003838639E+03  0.40000000000E+03 0.  1.
<mgrwt>
<rscale>  2 0.40229244E+03</rscale>
<asrwt>0</asrwt>
<pdfrwt beam="1">  1        2 0.50688684E-01 0.40229244E+03</pdfrwt>
<pdfrwt beam="2">  1       -2 0.78876305E-01 0.40229244E+03</pdfrwt>
<totfact> 0.14491775E+02</totfact>
</mgrwt>
</event>
<event>
 6    1  0.8861680E-004  0.7944159E+03  0.7818608E-02  0.9568135E-01
         -2   -1    0    0    0  501 -0.00000000000E+00  0.00000000000E+00  0.36837164966E+03  0.36837164966E+03  0.00000000000E+00 0. -1.
          2   -1    0    0  502    0  0.00000000000E+00 -0.00000000000E+00 -0.17166183762E+04  0.17166183762E+04  0.00000000000E+00 0.  1.
    9000007    2    1    2  502    0  0.62323512530E+03  0.28770124082E+03 -0.72054975215E+03  0.10724696473E+04  0.39975639285E+03 0.  0.
    9000005    1    3    3    0    0  0.39285504055E+03  0.35907424138E+03 -0.37499105368E+03  0.65106734217E+03  0.99999687468E+00 0.  0.
          4    1    3    3  502    0  0.23038008474E+03 -0.71373000562E+02 -0.34555869847E+03  0.42140230510E+03  0.00000000000E+00 0.  1.
   -9000007    1    1    2    0  501 -0.62323512530E+03 -0.28770124082E+03 -0.62769697436E+03  0.10125203786E+04  0.40000000000E+03 0. -1.
<mgrwt>
<rscale>  2 0.79441589E+03</rscale>
<asrwt>0</asrwt>
<pdfrwt beam="1">  1        2 0.26409513E+00 0.79441589E+03</pdfrwt>
<pdfrwt beam="2">  1       -2 0.56672562E-01 0.79441589E+03</pdfrwt>
<totfact> 0.28648587E+01</totfact>
</mgrwt>
</event>
<event>
 6    1  0.8861680E-004  0.4563984E+03  0.7818608E-02  0.1025831E+00
         -1   -1    0    0    0  501 -0.00000000000E+00  0.00000000000E+00  0.23855317102E+03  0.23855317102E+03  0.00000000000E+00 0. -1.
          1   -1    0    0  502    0  0.00000000000E+00 -0.00000000000E+00 -0.15933786914E+04  0.15933786914E+04  0.00000000000E+00 0.  1.
    9000007    2    1    2  502    0  0.20688190373E+03 -0.73518256738E+02 -0.12933064904E+04  0.13715085276E+04  0.40023606416E+03 0.  0.
    9000005    1    3    3    0    0  0.37309210861E+02 -0.22512735793E+03 -0.60618631158E+03  0.64771687398E+03  0.99999687468E+00 0.  0.
          4    1    3    3  502    0  0.16957269287E+03  0.15160910119E+03 -0.68712017883E+03  0.72379165364E+03  0.00000000000E+00 0.  1.
   -9000007    1    1    2    0  501 -0.20688190373E+03  0.73518256738E+02 -0.61519029968E+02  0.46042333478E+03  0.40000000000E+03 0. -1.
<mgrwt>
<rscale>  2 0.45639839E+03</rscale>
<asrwt>0</asrwt>
<pdfrwt beam="1">  1        1 0.24513517E+00 0.45639839E+03</pdfrwt>
<pdfrwt beam="2">  1       -1 0.36700489E-01 0.45639839E+03</pdfrwt>
<totfact> 0.43226538E+01</totfact>
</mgrwt>
</event>
<event>
 6    1  0.8861680E-004  0.6646180E+03  0.7818608E-02  0.9779730E-01
          1   -1    0    0  502    0  0.00000000000E+00  0.00000000000E+00  0.44059293502E+03  0.44059293502E+03  0.00000000000E+00 0. -1.
         -1   -1    0    0    0  501 -0.00000000000E+00 -0.00000000000E+00 -0.13303950332E+04  0.13303950332E+04  0.00000000000E+00 0.  1.
    9000007    2    1    2  502    0 -0.18960298581E+03  0.49573875855E+03 -0.53346083490E+01  0.66464762749E+03  0.40002725123E+03 0.  0.
    9000005    1    3    3    0    0 -0.12399464506E+03  0.46212122192E+03  0.14268162227E+03  0.49928923590E+03  0.99999687468E+00 0.  0.
          4    1    3    3  502    0 -0.65608340747E+02  0.33617536629E+02 -0.14801623062E+03  0.16535839160E+03  0.00000000000E+00 0.  1.
   -9000007    1    1    2    0  501  0.18960298581E+03 -0.49573875855E+03 -0.88446748981E+03  0.11063403407E+04  0.40000000000E+03 0.  1.
<mgrwt>
<rscale>  2 0.66461802E+03</rscale>
<asrwt>0</asrwt>
<pdfrwt beam="1">  1        1 0.67783530E-01 0.66461802E+03</pdfrwt>
<pdfrwt beam="2">  1       -1 0.20467616E+00 0.66461802E+03</pdfrwt>
<totfact> 0.77018811E+00</totfact>
</mgrwt>
</event>
<event>
 6    1  0.8861680E-004  0.5212574E+03  0.7818608E-02  0.1008375E+00
         -1   -1    0    0    0  501 -0.00000000000E+00  0.00000000000E+00  0.16223742476E+03  0.16223742476E+03  0.00000000000E+00 0.  1.
          1   -1    0    0  502    0  0.00000000000E+00 -0.00000000000E+00 -0.35217584811E+04  0.35217584811E+04  0.00000000000E+00 0. -1.
    9000007    2    1    2  502    0  0.32242883208E+03  0.86361293606E+02 -0.30141459956E+04  0.30589338631E+04  0.40072642876E+03 0.  0.
    9000005    1    3    3    0    0  0.32937975267E+03 -0.92671343077E+02 -0.20180883163E+04  0.20468904347E+04  0.99999687468E+00 0.  0.
          4    1    3    3  502    0 -0.69509205876E+01  0.17903263668E+03 -0.99605767933E+03  0.10120434283E+04  0.00000000000E+00 0.  1.
   -9000007    1    1    2    0  501 -0.32242883208E+03 -0.86361293606E+02 -0.34537506068E+03  0.62506204279E+03  0.40000000000E+03 0.  1.
<mgrwt>
<rscale>  2 0.52125743E+03</rscale>
<asrwt>0</asrwt>
<pdfrwt beam="1">  1        1 0.54180897E+00 0.52125743E+03</pdfrwt>
<pdfrwt beam="2">  1       -1 0.24959605E-01 0.52125743E+03</pdfrwt>
<totfact> 0.38504393E+00</totfact>
</mgrwt>
</event>
<event>
 6    1  0.8861680E-004  0.4674770E+03  0.7818608E-02  0.1022635E+00
         -2   -1    0    0    0  501 -0.00000000000E+00  0.00000000000E+00  0.27385147266E+03  0.27385147266E+03  0.00000000000E+00 0.  1.
          2   -1    0    0  502    0  0.00000000000E+00 -0.00000000000E+00 -0.18319118462E+04  0.18319118462E+04  0.00000000000E+00 0. -1.
    9000007    2    1    2  502    0 -0.24213926281E+03  0.95590469077E+01  0.12100317447E+02  0.46743264604E+03  0.39952980230E+03 0.  0.
    9000005    1    3    3    0    0 -0.52258954440E+02 -0.12370488160E+03 -0.13686223183E+03  0.19174505612E+03  0.99999687468E+00 0.  0.
          4    1    3    3  502    0 -0.18988030836E+03  0.13326392851E+03  0.14896254928E+03  0.27568758992E+03  0.00000000000E+00 0.  1.
   -9000007    1    1    2    0  501  0.24213926281E+03 -0.95590469077E+01 -0.15701606910E+04  0.16383306729E+04  0.40000000000E+03 0. -1.
<mgrwt>
<rscale>  2 0.46747700E+03</rscale>
<asrwt>0</asrwt>
<pdfrwt beam="1">  1        2 0.28183258E+00 0.46747700E+03</pdfrwt>
<pdfrwt beam="2">  1       -2 0.42130997E-01 0.46747700E+03</pdfrwt>
<totfact> 0.47380599E+01</totfact>
</mgrwt>
</event>
<event>
 6    1  0.8861680E-004  0.5328469E+03  0.7818608E-02  0.1005544E+00
          2   -1    0    0  502    0  0.00000000000E+00  0.00000000000E+00  0.67757229685E+03  0.67757229685E+03  0.00000000000E+00 0.  1.
         -2   -1    0    0    0  501 -0.00000000000E+00 -0.00000000000E+00 -0.41912648422E+03  0.41912648422E+03  0.00000000000E+00 0. -1.
    9000007    2    1    2  502    0  0.25520316873E+03  0.24213840492E+03  0.13740647512E+03  0.55042944668E+03  0.40041524934E+03 0.  0.
    9000005    1    3    3    0    0  0.33584841105E+03  0.26011076272E+03  0.17528040055E+03  0.45953888072E+03  0.99999687468E+00 0.  0.
          4    1    3    3  502    0 -0.80645242316E+02 -0.17972357801E+02 -0.37873925429E+02  0.90890565960E+02  0.00000000000E+00 0.  1.
   -9000007    1    1    2    0  501 -0.25520316873E+03 -0.24213840492E+03  0.12103933751E+03  0.54626933439E+03  0.40000000000E+03 0.  1.
<mgrwt>
<rscale>  2 0.53284688E+03</rscale>
<asrwt>0</asrwt>
<pdfrwt beam="1">  1        2 0.10424189E+00 0.53284688E+03</pdfrwt>
<pdfrwt beam="2">  1       -2 0.64480998E-01 0.53284688E+03</pdfrwt>
<totfact> 0.97462337E+01</totfact>
</mgrwt>
</event>
<event>
 6    1  0.8861680E-004  0.4278343E+03  0.7818608E-02  0.1034546E+00
          2   -1    0    0  502    0  0.00000000000E+00  0.00000000000E+00  0.14839149017E+04  0.14839149017E+04  0.00000000000E+00 0.  1.
         -2   -1    0    0    0  501 -0.00000000000E+00 -0.00000000000E+00 -0.15384643807E+03  0.15384643807E+03  0.00000000000E+00 0. -1.
    9000007    2    1    2  502    0  0.13423919577E+03  0.71602072898E+02  0.30029957999E+03  0.52260620606E+03  0.39973790206E+03 0.  0.
    9000005    1    3    3    0    0  0.13768537724E+03  0.23808788001E+02 -0.65047090248E+02  0.15413061161E+03  0.99999687468E+00 0.  0.
          4    1    3    3  502    0 -0.34461814659E+01  0.47793284897E+02  0.36534667024E+03  0.36847559445E+03  0.00000000000E+00 0.  1.
   -9000007    1    1    2    0  501 -0.13423919577E+03 -0.71602072898E+02  0.10297688837E+04  0.11151551337E+04  0.40000000000E+03 0.  1.
<mgrwt>
<rscale>  2 0.42783429E+03</rscale>
<asrwt>0</asrwt>
<pdfrwt beam="1">  1        2 0.22829459E+00 0.42783429E+03</pdfrwt>
<pdfrwt beam="2">  1       -2 0.23668684E-01 0.42783429E+03</pdfrwt>
<totfact> 0.21455234E+02</totfact>
</mgrwt>
</event>
<event>
 6    1  0.8861680E-004  0.4589492E+03  0.7818608E-02  0.1025086E+00
          1   -1    0    0  502    0  0.00000000000E+00  0.00000000000E+00  0.10834801426E+04  0.10834801426E+04  0.00000000000E+00 0.  1.
         -1   -1    0    0    0  501 -0.00000000000E+00 -0.00000000000E+00 -0.19651860193E+03  0.19651860193E+03  0.00000000000E+00 0. -1.
    9000007    2    1    2  502    0 -0.15014645023E+03  0.16771191273E+03  0.37707552973E+03  0.59395575291E+03  0.39990778825E+03 0.  0.
    9000005    1    3    3    0    0 -0.20416729423E+03  0.23245319749E+03  0.40083978155E+03  0.50635195618E+03  0.99999687468E+00 0.  0.
          4    1    3    3  502    0  0.54020843999E+02 -0.64741284755E+02 -0.23764251817E+02  0.87603796736E+02  0.00000000000E+00 0.  1.
   -9000007    1    1    2    0  501  0.15014645023E+03 -0.16771191273E+03  0.50988601093E+03  0.68604299160E+03  0.40000000000E+03 0.  1.
<mgrwt>
<rscale>  2 0.45894919E+03</rscale>
<asrwt>0</asrwt>
<pdfrwt beam="1">  1        1 0.16668925E+00 0.45894919E+03</pdfrwt>
<pdfrwt beam="2">  1       -1 0.30233632E-01 0.45894919E+03</pdfrwt>
<totfact> 0.13733173E+02</totfact>
</mgrwt>
</event>
<event>
 6    1  0.8861680E-004  0.4091452E+03  0.7818608E-02  0.1040658E+00
         -2   -1    0    0    0  501 -0.00000000000E+00  0.00000000000E+00  0.13187083011E+03  0.13187083011E+03  0.00000000000E+00 0. -1.
          2   -1    0    0  502    0  0.00000000000E+00 -0.00000000000E+00 -0.14256155385E+04  0.14256155385E+04  0.00000000000E+00 0.  1.
    9000007    2    1    2  502    0  0.49186320010E+02 -0.73155721850E+02 -0.90399775198E+03  0.99208938971E+03  0.39907188310E+03 0.  0.
    9000005    1    3    3    0    0  0.21132532205E+03  0.34152468627E+02 -0.48881209389E+03  0.53363193868E+03  0.99999687468E+00 0.  0.
          4    1    3    3  502    0 -0.16213900204E+03 -0.10730819048E+03 -0.41518565808E+03  0.45845745103E+03  0.00000000000E+00 0.  1.
   -9000007    1    1    2    0  501 -0.49186320010E+02  0.73155721850E+02 -0.38974695641E+03  0.56539697890E+03  0.40000000000E+03 0. -1.
<mgrwt>
<rscale>  2 0.40914524E+03</rscale>
<asrwt>0</asrwt>
<pdfrwt beam="1">  1        2 0.21932547E+00 0.40914524E+03</pdfrwt>
<pdfrwt beam="2">  1       -2 0.20287820E-01 0.40914524E+03</pdfrwt>
<totfact> 0.30330287E+02</totfact>
</mgrwt>
</event>
<event>
 6    1  0.8861680E-004  0.5143741E+03  0.7818608E-02  0.1010094E+00
         -1   -1    0    0    0  501 -0.00000000000E+00  0.00000000000E+00  0.24900231741E+03  0.24900231741E+03  0.00000000000E+00 0. -1.
          1   -1    0    0  502    0  0.00000000000E+00 -0.00000000000E+00 -0.10648957030E+04  0.10648957030E+04  0.00000000000E+00 0.  1.
    9000007    2    1    2  502    0 -0.27530711718E+03 -0.16723854906E+03 -0.43930648868E+03  0.67704605018E+03  0.40204281117E+03 0.  0.
    9000005    1    3    3    0    0 -0.41154639000E+02 -0.25117901646E+03 -0.14973637108E+03  0.29530760817E+03  0.99999687468E+00 0.  0.
          4    1    3    3  502    0 -0.23415247818E+03  0.83940467406E+02 -0.28957011760E+03  0.38173844202E+03  0.00000000000E+00 0.  1.
   -9000007    1    1    2    0  501  0.27530711718E+03  0.16723854906E+03 -0.37658689693E+03  0.63685197024E+03  0.40000000000E+03 0.  1.
<mgrwt>
<rscale>  2 0.51437407E+03</rscale>
<asrwt>0</asrwt>
<pdfrwt beam="1">  1        1 0.16383011E+00 0.51437407E+03</pdfrwt>
<pdfrwt beam="2">  1       -1 0.38308049E-01 0.51437407E+03</pdfrwt>
<totfact> 0.92842451E+01</totfact>
</mgrwt>
</event>
<event>
 6    1  0.8861680E-004  0.4046701E+03  0.7818608E-02  0.1042174E+00
         -1   -1    0    0    0  501 -0.00000000000E+00  0.00000000000E+00  0.24251401794E+03  0.24251401794E+03  0.00000000000E+00 0. -1.
          1   -1    0    0  502    0  0.00000000000E+00 -0.00000000000E+00 -0.67682205413E+03  0.67682205413E+03  0.00000000000E+00 0.  1.
    9000007    2    1    2  502    0 -0.61816870332E+02  0.10626480691E+02 -0.19489377977E+03  0.44896022901E+03  0.39955907484E+03 0.  0.
    9000005    1    3    3    0    0  0.13652321489E+03  0.12574680712E+02  0.38751383636E+02  0.14247589455E+03  0.99999687468E+00 0.  0.
          4    1    3    3  502    0 -0.19834008522E+03 -0.19482000215E+01 -0.23364516340E+03  0.30648433446E+03  0.00000000000E+00 0.  1.
   -9000007    1    1    2    0  501  0.61816870332E+02 -0.10626480691E+02 -0.23941425642E+03  0.47037584305E+03  0.40000000000E+03 0.  1.
<mgrwt>
<rscale>  2 0.40467009E+03</rscale>
<asrwt>0</asrwt>
<pdfrwt beam="1">  1        1 0.10412647E+00 0.40467009E+03</pdfrwt>
<pdfrwt beam="2">  1       -1 0.37309849E-01 0.40467009E+03</pdfrwt>
<totfact> 0.20586874E+02</totfact>
</mgrwt>
</event>
<event>
 6    1  0.8861680E-004  0.4183595E+03  0.7818608E-02  0.1037602E+00
          2   -1    0    0  502    0  0.00000000000E+00  0.00000000000E+00  0.15340896644E+04  0.15340896644E+04  0.00000000000E+00 0. -1.
         -2   -1    0    0    0  501 -0.00000000000E+00 -0.00000000000E+00 -0.31505374633E+03  0.31505374633E+03  0.00000000000E+00 0.  1.
    9000007    2    1    2  502    0  0.10849825482E+03  0.46839327349E+02  0.13486103033E+04  0.14123879698E+04  0.40264653629E+03 0.  0.
    9000005    1    3    3    0    0  0.24488468491E+03 -0.43158530450E+02  0.67812080021E+03  0.72227417739E+03  0.99999687468E+00 0.  0.
          4    1    3    3  502    0 -0.13638643009E+03  0.89997857799E+02  0.67048950304E+03  0.69011379237E+03  0.00000000000E+00 0.  1.
   -9000007    1    1    2    0  501 -0.10849825482E+03 -0.46839327349E+02 -0.12957438521E+03  0.43675544094E+03  0.40000000000E+03 0.  1.
<mgrwt>
<rscale>  2 0.41835952E+03</rscale>
<asrwt>0</asrwt>
<pdfrwt beam="1">  1        2 0.23601379E+00 0.41835952E+03</pdfrwt>
<pdfrwt beam="2">  1       -2 0.48469808E-01 0.41835952E+03</pdfrwt>
<totfact> 0.52426863E+01</totfact>
</mgrwt>
</event>
<event>
 6    1  0.8861680E-004  0.4297618E+03  0.7818608E-02  0.1033935E+00
         -1   -1    0    0    0  501 -0.00000000000E+00  0.00000000000E+00  0.99443348357E+03  0.99443348357E+03  0.00000000000E+00 0.  1.
          1   -1    0    0  502    0  0.00000000000E+00 -0.00000000000E+00 -0.19938704157E+03  0.19938704157E+03  0.00000000000E+00 0. -1.
    9000007    2    1    2  502    0 -0.19306645180E+02 -0.15571407977E+03  0.55382523205E+03  0.70106572474E+03  0.40018888237E+03 0.  0.
    9000005    1    3    3    0    0 -0.46429013400E+02 -0.22844617442E+03  0.12353149897E+03  0.26382634274E+03  0.99999687468E+00 0.  0.
          4    1    3    3  502    0  0.27122368220E+02  0.72732094648E+02  0.43029373308E+03  0.43723938200E+03  0.00000000000E+00 0.  1.
   -9000007    1    1    2    0  501  0.19306645180E+02  0.15571407977E+03  0.24122120996E+03  0.49275480040E+03  0.40000000000E+03 0. -1.
<mgrwt>
<rscale>  2 0.42976177E+03</rscale>
<asrwt>0</asrwt>
<pdfrwt beam="1">  1        1 0.30674930E-01 0.42976177E+03</pdfrwt>
<pdfrwt beam="2">  1       -1 0.15298976E+00 0.42976177E+03</pdfrwt>
<totfact> 0.51953453E+01</totfact>
</mgrwt>
</event>
<event>
 6    1  0.8861680E-004  0.1017500E+04  0.7818608E-02  0.9289557E-01
          2   -1    0    0  502    0  0.00000000000E+00  0.00000000000E+00  0.12008658159E+04  0.12008658159E+04  0.00000000000E+00 0.  1.
         -2   -1    0    0    0  501 -0.00000000000E+00 -0.00000000000E+00 -0.89053608379E+03  0.89053608379E+03  0.00000000000E+00 0. -1.
    9000007    2    1    2  502    0 -0.35834844898E+03 -0.86398946278E+03 -0.31556237443E+02  0.10181929644E+04  0.40103580133E+03 0.  0.
    9000005    1    3    3    0    0  0.24760996276E+02 -0.10546960195E+03  0.11261623974E+03  0.15627015492E+03  0.99999687468E+00 0.  0.
          4    1    3    3  502    0 -0.38310944526E+03 -0.75851986083E+03 -0.14417247718E+03  0.86192280948E+03  0.00000000000E+00 0.  1.
   -9000007    1    1    2    0  501  0.35834844898E+03  0.86398946278E+03  0.34188596960E+03  0.10732089353E+04  0.40000000000E+03 0. -1.
<mgrwt>
<rscale>  2 0.10175000E+04</rscale>
<asrwt>0</asrwt>
<pdfrwt beam="1">  1        2 0.18474859E+00 0.10175000E+04</pdfrwt>
<pdfrwt beam="2">  1       -2 0.13700555E+00 0.10175000E+04</pdfrwt>
<totfact> 0.71151959E+00</totfact>
</mgrwt>
</event>
<event>
 6    1  0.8861680E-004  0.4252109E+03  0.7818608E-02  0.1035384E+00
          2   -1    0    0  502    0  0.00000000000E+00  0.00000000000E+00  0.34768493642E+04  0.34768493642E+04  0.00000000000E+00 0. -1.
         -2   -1    0    0    0  501 -0.00000000000E+00 -0.00000000000E+00 -0.98652598468E+02  0.98652598468E+02  0.00000000000E+00 0.  1.
    9000007    2    1    2  502    0  0.14162631422E+03  0.13396650863E+02  0.46113697019E+03  0.62771035981E+03  0.40141687483E+03 0.  0.
    9000005    1    3    3    0    0 -0.10245118358E+03  0.10827489210E+03  0.92173220976E+02  0.17526151869E+03  0.99999687468E+00 0.  0.
          4    1    3    3  502    0  0.24407749780E+03 -0.94878241238E+02  0.36896374922E+03  0.45244884111E+03  0.00000000000E+00 0.  1.
   -9000007    1    1    2    0  501 -0.14162631422E+03 -0.13396650863E+02  0.29170597955E+04  0.29477916028E+04  0.40000000000E+03 0. -1.
<mgrwt>
<rscale>  2 0.42521094E+03</rscale>
<asrwt>0</asrwt>
<pdfrwt beam="1">  1        2 0.53489981E+00 0.42521094E+03</pdfrwt>
<pdfrwt beam="2">  1       -2 0.15177326E-01 0.42521094E+03</pdfrwt>
<totfact> 0.33454364E+01</totfact>
</mgrwt>
</event>
<event>
 6    1  0.8861680E-004  0.4146119E+03  0.7818608E-02  0.1038834E+00
         -2   -1    0    0    0  501 -0.00000000000E+00  0.00000000000E+00  0.15540430901E+03  0.15540430901E+03  0.00000000000E+00 0. -1.
          2   -1    0    0  502    0  0.00000000000E+00 -0.00000000000E+00 -0.12776092378E+04  0.12776092378E+04  0.00000000000E+00 0.  1.
    9000007    2    1    2  502    0  0.75811128014E+00 -0.10869138307E+03 -0.29875720674E+03  0.51112388832E+03  0.40022165002E+03 0.  0.
    9000005    1    3    3    0    0 -0.14159672656E+03 -0.19993567689E+03 -0.19054601845E+03  0.31037508438E+03  0.99999687468E+00 0.  0.
          4    1    3    3  502    0  0.14235483784E+03  0.91244293818E+02 -0.10821118830E+03  0.20074880394E+03  0.00000000000E+00 0.  1.
   -9000007    1    1    2    0  501 -0.75811128014E+00  0.10869138307E+03 -0.82344772200E+03  0.92188965844E+03  0.40000000000E+03 0.  1.
<mgrwt>
<rscale>  2 0.41461193E+03</rscale>
<asrwt>0</asrwt>
<pdfrwt beam="1">  1        2 0.19655527E+00 0.41461193E+03</pdfrwt>
<pdfrwt beam="2">  1       -2 0.23908355E-01 0.41461193E+03</pdfrwt>
<totfact> 0.27491286E+02</totfact>
</mgrwt>
</event>
<event>
 6    1  0.8861680E-004  0.4104057E+03  0.7818608E-02  0.1040235E+00
         -1   -1    0    0    0  501 -0.00000000000E+00  0.00000000000E+00  0.12719745410E+03  0.12719745410E+03  0.00000000000E+00 0.  1.
          1   -1    0    0  502    0  0.00000000000E+00 -0.00000000000E+00 -0.14505223898E+04  0.14505223898E+04  0.00000000000E+00 0. -1.
    9000007    2    1    2  502    0  0.84312641232E+02 -0.34783428418E+02 -0.89467954115E+03  0.98437729305E+03  0.40028572964E+03 0.  0.
    9000005    1    3    3    0    0  0.89772430558E+02  0.17483319407E+03 -0.50434137021E+03  0.54128269207E+03  0.99999687468E+00 0.  0.
          4    1    3    3  502    0 -0.54597893257E+01 -0.20961662249E+03 -0.39033817094E+03  0.44309460098E+03  0.00000000000E+00 0.  1.
   -9000007    1    1    2    0  501 -0.84312641232E+02  0.34783428418E+02 -0.42864539451E+03  0.59334255081E+03  0.40000000000E+03 0. -1.
<mgrwt>
<rscale>  2 0.41040566E+03</rscale>
<asrwt>0</asrwt>
<pdfrwt beam="1">  1        1 0.22315729E+00 0.41040566E+03</pdfrwt>
<pdfrwt beam="2">  1       -1 0.19568839E-01 0.41040566E+03</pdfrwt>
<totfact> 0.15867958E+02</totfact>
</mgrwt>
</event>
<event>
 6    1  0.8861680E-004  0.6302198E+03  0.7818608E-02  0.9844620E-01
          1   -1    0    0  502    0  0.00000000000E+00  0.00000000000E+00  0.14954581012E+04  0.14954581012E+04  0.00000000000E+00 0.  1.
         -1   -1    0    0    0  501 -0.00000000000E+00 -0.00000000000E+00 -0.27512741261E+03  0.27512741261E+03  0.00000000000E+00 0. -1.
    9000007    2    1    2  502    0  0.31785037432E+03 -0.36899532147E+03  0.77499770694E+03  0.99889394829E+03  0.39997658238E+03 0.  0.
    9000005    1    3    3    0    0  0.11576038267E+03 -0.12830479102E+03  0.11442924408E+02  0.17318927827E+03  0.99999687468E+00 0.  0.
          4    1    3    3  502    0  0.20208999165E+03 -0.24069053045E+03  0.76355478253E+03  0.82570467002E+03  0.00000000000E+00 0.  1.
   -9000007    1    1    2    0  501 -0.31785037432E+03  0.36899532147E+03  0.44533298160E+03  0.77169156547E+03  0.40000000000E+03 0. -1.
<mgrwt>
<rscale>  2 0.63021984E+03</rscale>
<asrwt>0</asrwt>
<pdfrwt beam="1">  1        1 0.23007047E+00 0.63021984E+03</pdfrwt>
<pdfrwt beam="2">  1       -1 0.42327295E-01 0.63021984E+03</pdfrwt>
<totfact> 0.37829534E+01</totfact>
</mgrwt>
</event>
<event>
 6    1  0.8861680E-004  0.4227228E+03  0.7818608E-02  0.1036184E+00
         -1   -1    0    0    0  501 -0.00000000000E+00  0.00000000000E+00  0.45952265461E+03  0.45952265461E+03  0.00000000000E+00 0. -1.
          1   -1    0    0  502    0  0.00000000000E+00 -0.00000000000E+00 -0.53408053717E+03  0.53408053717E+03  0.00000000000E+00 0.  1.
    9000007    2    1    2  502    0  0.33384132034E+02 -0.13219597968E+03  0.22176021947E+03  0.47746881499E+03  0.40026066136E+03 0.  0.
    9000005    1    3    3    0    0  0.17560937031E+03 -0.16707207198E+03  0.42648026171E+02  0.24611294624E+03  0.99999687468E+00 0.  0.
          4    1    3    3  502    0 -0.14222523827E+03  0.34876092303E+02  0.17911219330E+03  0.23135586875E+03  0.00000000000E+00 0.  1.
   -9000007    1    1    2    0  501 -0.33384132034E+02  0.13219597968E+03 -0.29631810203E+03  0.51613437679E+03  0.40000000000E+03 0.  1.
<mgrwt>
<rscale>  2 0.42272278E+03</rscale>
<asrwt>0</asrwt>
<pdfrwt beam="1">  1        1 0.82166236E-01 0.42272278E+03</pdfrwt>
<pdfrwt beam="2">  1       -1 0.70695793E-01 0.42272278E+03</pdfrwt>
<totfact> 0.85893802E+01</totfact>
</mgrwt>
</event>
<event>
 6    1  0.8861680E-004  0.4255586E+03  0.7818608E-02  0.1035272E+00
         -2   -1    0    0    0  501 -0.00000000000E+00  0.00000000000E+00  0.99892032961E+03  0.99892032961E+03  0.00000000000E+00 0. -1.
          2   -1    0    0  502    0  0.00000000000E+00 -0.00000000000E+00 -0.18143139185E+03  0.18143139185E+03  0.00000000000E+00 0.  1.
    9000007    2    1    2  502    0  0.14312741805E+03 -0.27593716218E+02  0.39245061565E+03  0.57876677631E+03  0.39963311257E+03 0.  0.
    9000005    1    3    3    0    0  0.21208006082E+03 -0.24206799319E+02  0.44397431177E+03  0.49262370105E+03  0.99999687468E+00 0.  0.
          4    1    3    3  502    0 -0.68952642779E+02 -0.33869168994E+01 -0.51523696122E+02  0.86143075255E+02  0.00000000000E+00 0.  1.
   -9000007    1    1    2    0  501 -0.14312741805E+03  0.27593716218E+02  0.42503832212E+03  0.60158494516E+03  0.40000000000E+03 0.  1.
<mgrwt>
<rscale>  2 0.42555860E+03</rscale>
<asrwt>0</asrwt>
<pdfrwt beam="1">  1        2 0.27912522E-01 0.42555860E+03</pdfrwt>
<pdfrwt beam="2">  1       -2 0.15368005E+00 0.42555860E+03</pdfrwt>
<totfact> 0.56049300E+01</totfact>
</mgrwt>
</event>
<event>
 6    1  0.8861680E-004  0.4107730E+03  0.7818608E-02  0.1040112E+00
         -1   -1    0    0    0  501 -0.00000000000E+00  0.00000000000E+00  0.33402507993E+03  0.33402507993E+03  0.00000000000E+00 0.  1.
          1   -1    0    0  502    0  0.00000000000E+00 -0.00000000000E+00 -0.57927663100E+03  0.57927663100E+03  0.00000000000E+00 0. -1.
    9000007    2    1    2  502    0 -0.41873964805E+02  0.81291172437E+02  0.40602980965E+02  0.41322721935E+03  0.40093197566E+03 0.  0.
    9000005    1    3    3    0    0  0.14066803982E+03 -0.21401909870E+02 -0.88139843083E+02  0.16737733152E+03  0.99999687468E+00 0.  0.
          4    1    3    3  502    0 -0.18254200463E+03  0.10269308231E+03  0.12874282405E+03  0.24584988784E+03  0.00000000000E+00 0.  1.
   -9000007    1    1    2    0  501  0.41873964805E+02 -0.81291172437E+02 -0.28585453203E+03  0.50007449158E+03  0.40000000000E+03 0. -1.
<mgrwt>
<rscale>  2 0.41077305E+03</rscale>
<asrwt>0</asrwt>
<pdfrwt beam="1">  1        1 0.89119482E-01 0.41077305E+03</pdfrwt>
<pdfrwt beam="2">  1       -1 0.51388474E-01 0.41077305E+03</pdfrwt>
<totfact> 0.14323794E+02</totfact>
</mgrwt>
</event>
<event>
 6    1  0.8861680E-004  0.7094221E+03  0.7818608E-02  0.9701253E-01
         -2   -1    0    0    0  501 -0.00000000000E+00  0.00000000000E+00  0.91033971215E+03  0.91033971215E+03  0.00000000000E+00 0.  1.
          2   -1    0    0  502    0  0.00000000000E+00 -0.00000000000E+00 -0.56656767137E+03  0.56656767137E+03  0.00000000000E+00 0. -1.
    9000007    2    1    2  502    0 -0.58362206960E+03  0.51750377327E+02  0.28679550535E+03  0.76519174700E+03  0.39996740632E+03 0.  0.
    9000005    1    3    3    0    0 -0.80413029034E+02 -0.13253215316E+03 -0.48133995927E+01  0.15509737480E+03  0.99999687468E+00 0.  0.
          4    1    3    3  502    0 -0.50320904057E+03  0.18428253049E+03  0.29160890494E+03  0.61009437220E+03  0.00000000000E+00 0.  1.
   -9000007    1    1    2    0  501  0.58362206960E+03 -0.51750377327E+02  0.56976535429E+02  0.71171563652E+03  0.40000000000E+03 0. -1.
<mgrwt>
<rscale>  2 0.70942215E+03</rscale>
<asrwt>0</asrwt>
<pdfrwt beam="1">  1        2 0.87164257E-01 0.70942215E+03</pdfrwt>
<pdfrwt beam="2">  1       -2 0.14005226E+00 0.70942215E+03</pdfrwt>
<totfact> 0.19397430E+01</totfact>
</mgrwt>
</event>
<event>
 6    1  0.8861680E-004  0.5267190E+03  0.7818608E-02  0.1007031E+00
          2   -1    0    0  502    0  0.00000000000E+00  0.00000000000E+00  0.14839111888E+03  0.14839111888E+03  0.00000000000E+00 0. -1.
         -2   -1    0    0    0  501 -0.00000000000E+00 -0.00000000000E+00 -0.19095577014E+04  0.19095577014E+04  0.00000000000E+00 0.  1.
    9000007    2    1    2  502    0  0.14683490748E+03 -0.30980550342E+03 -0.10292529262E+04  0.11561519805E+04  0.39973225517E+03 0.  0.
    9000005    1    3    3    0    0 -0.61020676924E+02 -0.27998014269E+03 -0.39465551892E+03  0.48771547230E+03  0.99999687468E+00 0.  0.
          4    1    3    3  502    0  0.20785558441E+03 -0.29825360733E+02 -0.63459740729E+03  0.66843650817E+03  0.00000000000E+00 0.  1.
   -9000007    1    1    2    0  501 -0.14683490748E+03  0.30980550342E+03 -0.73191365633E+03  0.90179683983E+03  0.40000000000E+03 0. -1.
<mgrwt>
<rscale>  2 0.52671895E+03</rscale>
<asrwt>0</asrwt>
<pdfrwt beam="1">  1        2 0.22829406E-01 0.52671895E+03</pdfrwt>
<pdfrwt beam="2">  1       -2 0.29377807E+00 0.52671895E+03</pdfrwt>
<totfact> 0.90169595E+00</totfact>
</mgrwt>
</event>
<event>
 6    1  0.8861680E-004  0.6239034E+03  0.7818608E-02  0.9857019E-01
         -2   -1    0    0    0  501 -0.00000000000E+00  0.00000000000E+00  0.19188707111E+03  0.19188707111E+03  0.00000000000E+00 0.  1.
          2   -1    0    0  502    0  0.00000000000E+00 -0.00000000000E+00 -0.23899903675E+04  0.23899903675E+04  0.00000000000E+00 0. -1.
    9000007    2    1    2  502    0  0.45964283180E+03  0.13433780996E+03 -0.59696128996E+03  0.86345551582E+03  0.39984305180E+03 0.  0.
    9000005    1    3    3    0    0  0.35514537101E+02 -0.15996290769E+02  0.57357918295E+02  0.69340424348E+02  0.99999687468E+00 0.  0.
          4    1    3    3  502    0  0.42412829470E+03  0.15033410073E+03 -0.65431920826E+03  0.79411509147E+03  0.00000000000E+00 0.  1.
   -9000007    1    1    2    0  501 -0.45964283180E+03 -0.13433780996E+03 -0.16011420065E+04  0.17184219228E+04  0.40000000000E+03 0. -1.
<mgrwt>
<rscale>  2 0.62390336E+03</rscale>
<asrwt>0</asrwt>
<pdfrwt beam="1">  1        2 0.36769084E+00 0.62390336E+03</pdfrwt>
<pdfrwt beam="2">  1       -2 0.29521086E-01 0.62390336E+03</pdfrwt>
<totfact> 0.45022962E+01</totfact>
</mgrwt>
</event>
<event>
 6    1  0.8861680E-004  0.4389153E+03  0.7818608E-02  0.1031080E+00
          2   -1    0    0  502    0  0.00000000000E+00  0.00000000000E+00  0.18474428099E+04  0.18474428099E+04  0.00000000000E+00 0.  1.
         -2   -1    0    0    0  501 -0.00000000000E+00 -0.00000000000E+00 -0.10502533340E+03  0.10502533340E+03  0.00000000000E+00 0. -1.
    9000007    2    1    2  502    0 -0.14342571908E+03  0.10968853713E+03  0.95368808112E+03  0.10498627083E+04  0.40011028258E+03 0.  0.
    9000005    1    3    3    0    0 -0.27945141602E+03  0.34053714282E+02  0.65859169627E+03  0.71623792958E+03  0.99999687468E+00 0.  0.
          4    1    3    3  502    0  0.13602569695E+03  0.75634822846E+02  0.29509638484E+03  0.33362477876E+03  0.00000000000E+00 0.  1.
   -9000007    1    1    2    0  501  0.14342571908E+03 -0.10968853713E+03  0.78872939536E+03  0.90260543494E+03  0.40000000000E+03 0. -1.
<mgrwt>
<rscale>  2 0.43891528E+03</rscale>
<asrwt>0</asrwt>
<pdfrwt beam="1">  1        2 0.28422195E+00 0.43891528E+03</pdfrwt>
<pdfrwt beam="2">  1       -2 0.16157745E-01 0.43891528E+03</pdfrwt>
<totfact> 0.26401409E+02</totfact>
</mgrwt>
</event>
<event>
 6    1  0.8861680E-004  0.4971339E+03  0.7818608E-02  0.1014530E+00
         -2   -1    0    0    0  501 -0.00000000000E+00  0.00000000000E+00  0.28044459292E+03  0.28044459292E+03  0.00000000000E+00 0.  1.
          2   -1    0    0  502    0  0.00000000000E+00 -0.00000000000E+00 -0.10232710500E+04  0.10232710500E+04  0.00000000000E+00 0. -1.
    9000007    2    1    2  502    0 -0.13439843068E+03  0.26303956048E+03 -0.61418834141E+03  0.79010050161E+03  0.39972332353E+03 0.  0.
    9000005    1    3    3    0    0 -0.51341374581E+02  0.20419940971E+03 -0.64917521782E+03  0.68246816710E+03  0.99999687468E+00 0.  0.
          4    1    3    3  502    0 -0.83057056103E+02  0.58840150773E+02  0.34986876415E+02  0.10763233451E+03  0.00000000000E+00 0.  1.
   -9000007    1    1    2    0  501  0.13439843068E+03 -0.26303956048E+03 -0.12863811563E+03  0.51361514127E+03  0.40000000000E+03 0. -1.
<mgrwt>
<rscale>  2 0.49713388E+03</rscale>
<asrwt>0</asrwt>
<pdfrwt beam="1">  1        2 0.15742631E+00 0.49713388E+03</pdfrwt>
<pdfrwt beam="2">  1       -2 0.43145322E-01 0.49713388E+03</pdfrwt>
<totfact> 0.12824707E+02</totfact>
</mgrwt>
</event>
<event>
 6    1  0.8861680E-004  0.4347517E+03  0.7818608E-02  0.1032369E+00
         -2   -1    0    0    0  501 -0.00000000000E+00  0.00000000000E+00  0.29423285244E+03  0.29423285244E+03  0.00000000000E+00 0. -1.
          2   -1    0    0  502    0  0.00000000000E+00 -0.00000000000E+00 -0.78403820353E+03  0.78403820353E+03  0.00000000000E+00 0.  1.
    9000007    2    1    2  502    0  0.16971422269E+03  0.11846237605E+02 -0.47410435873E+03  0.64331154994E+03  0.40016441194E+03 0.  0.
    9000005    1    3    3    0    0  0.35931051658E+01  0.58684654200E+02  0.58797295309E+02  0.83156003828E+02  0.99999687468E+00 0.  0.
          4    1    3    3  502    0  0.16612111752E+03 -0.46838416595E+02 -0.53290165404E+03  0.56015554611E+03  0.00000000000E+00 0.  1.
   -9000007    1    1    2    0  501 -0.16971422269E+03 -0.11846237605E+02 -0.15700992354E+02  0.43495950603E+03  0.40000000000E+03 0. -1.
<mgrwt>
<rscale>  2 0.43475167E+03</rscale>
<asrwt>0</asrwt>
<pdfrwt beam="1">  1        2 0.12062126E+00 0.43475167E+03</pdfrwt>
<pdfrwt beam="2">  1       -2 0.45266593E-01 0.43475167E+03</pdfrwt>
<totfact> 0.16914565E+02</totfact>
</mgrwt>
</event>
<event>
 6    1  0.8861680E-004  0.4436762E+03  0.7818608E-02  0.1029625E+00
          1   -1    0    0  502    0  0.00000000000E+00  0.00000000000E+00  0.12091841898E+04  0.12091841898E+04  0.00000000000E+00 0.  1.
         -1   -1    0    0    0  501 -0.00000000000E+00 -0.00000000000E+00 -0.16759310980E+03  0.16759310980E+03  0.00000000000E+00 0. -1.
    9000007    2    1    2  502    0 -0.18897380443E+03  0.31103706755E+02  0.63749667898E+03  0.77680161320E+03  0.40042501324E+03 0.  0.
    9000005    1    3    3    0    0 -0.13422309969E+03 -0.16108793212E+03  0.17549180036E+03  0.27342921270E+03  0.99999687468E+00 0.  0.
          4    1    3    3  502    0 -0.54750704737E+02  0.19219163888E+03  0.46200487861E+03  0.50337240050E+03  0.00000000000E+00 0.  1.
   -9000007    1    1    2    0  501  0.18897380443E+03 -0.31103706755E+02  0.40409440099E+03  0.59997568638E+03  0.40000000000E+03 0.  1.
<mgrwt>
<rscale>  2 0.44367619E+03</rscale>
<asrwt>0</asrwt>
<pdfrwt beam="1">  1        1 0.18602833E+00 0.44367619E+03</pdfrwt>
<pdfrwt beam="2">  1       -1 0.25783556E-01 0.44367619E+03</pdfrwt>
<totfact> 0.14650225E+02</totfact>
</mgrwt>
</event>
<event>
 6    1  0.8861680E-004  0.4116748E+03  0.7818608E-02  0.1039810E+00
          1   -1    0    0  502    0  0.00000000000E+00  0.00000000000E+00  0.60544892855E+03  0.60544892855E+03  0.00000000000E+00 0. -1.
         -1   -1    0    0    0  501 -0.00000000000E+00 -0.00000000000E+00 -0.39764342781E+03  0.39764342781E+03  0.00000000000E+00 0.  1.
    9000007    2    1    2  502    0 -0.79303022844E+02  0.54039194397E+02 -0.16893645691E+03  0.44528978679E+03  0.40066727316E+03 0.  0.
    9000005    1    3    3    0    0  0.65547589507E+01  0.22261524721E+03 -0.86346169969E+02  0.23886643594E+03  0.99999687468E+00 0.  0.
          4    1    3    3  502    0 -0.85857781795E+02 -0.16857605282E+03 -0.82590286940E+02  0.20642335085E+03  0.00000000000E+00 0.  1.
   -9000007    1    1    2    0  501  0.79303022844E+02 -0.54039194397E+02  0.37674195766E+03  0.55780256957E+03  0.40000000000E+03 0. -1.
<mgrwt>
<rscale>  2 0.41167478E+03</rscale>
<asrwt>0</asrwt>
<pdfrwt beam="1">  1        1 0.93145989E-01 0.41167478E+03</pdfrwt>
<pdfrwt beam="2">  1       -1 0.61175912E-01 0.41167478E+03</pdfrwt>
<totfact> 0.96329272E+01</totfact>
</mgrwt>
</event>
<event>
 6    1  0.8861680E-004  0.4423848E+03  0.7818608E-02  0.1030018E+00
          2   -1    0    0  502    0  0.00000000000E+00  0.00000000000E+00  0.81390753776E+03  0.81390753776E+03  0.00000000000E+00 0.  1.
         -2   -1    0    0    0  501 -0.00000000000E+00 -0.00000000000E+00 -0.24349779327E+03  0.24349779327E+03  0.00000000000E+00 0. -1.
    9000007    2    1    2  502    0 -0.18919655919E+03 -0.17505511277E+01  0.22599034790E+03  0.49667088123E+03  0.39976483647E+03 0.  0.
    9000005    1    3    3    0    0  0.34533411499E+02 -0.15798292586E+03  0.12969220724E+03  0.20729744327E+03  0.99999687468E+00 0.  0.
          4    1    3    3  502    0 -0.22372997069E+03  0.15623237473E+03  0.96298140659E+02  0.28937343796E+03  0.00000000000E+00 0.  1.
   -9000007    1    1    2    0  501  0.18919655919E+03  0.17505511277E+01  0.34441939659E+03  0.56073444980E+03  0.40000000000E+03 0. -1.
<mgrwt>
<rscale>  2 0.44238483E+03</rscale>
<asrwt>0</asrwt>
<pdfrwt beam="1">  1        2 0.12521654E+00 0.44238483E+03</pdfrwt>
<pdfrwt beam="2">  1       -2 0.37461200E-01 0.44238483E+03</pdfrwt>
<totfact> 0.23263209E+02</totfact>
</mgrwt>
</event>
<event>
 6    1  0.8861680E-004  0.4193920E+03  0.7818608E-02  0.1037264E+00
          2   -1    0    0  502    0  0.00000000000E+00  0.00000000000E+00  0.12279370718E+04  0.12279370718E+04  0.00000000000E+00 0.  1.
         -2   -1    0    0    0  501 -0.00000000000E+00 -0.00000000000E+00 -0.14393507603E+03  0.14393507603E+03  0.00000000000E+00 0. -1.
    9000007    2    1    2  502    0 -0.98344107078E+02 -0.80359078944E+02  0.58929978857E+03  0.72313536085E+03  0.39940125731E+03 0.  0.
    9000005    1    3    3    0    0 -0.21769342402E+03 -0.15876954194E+03  0.44434099850E+03  0.51965191931E+03  0.99999687468E+00 0.  0.
          4    1    3    3  502    0  0.11934931694E+03  0.78410462994E+02  0.14495879007E+03  0.20348344154E+03  0.00000000000E+00 0.  1.
   -9000007    1    1    2    0  501  0.98344107078E+02  0.80359078944E+02  0.49470220720E+03  0.64873678697E+03  0.40000000000E+03 0.  1.
<mgrwt>
<rscale>  2 0.41939202E+03</rscale>
<asrwt>0</asrwt>
<pdfrwt beam="1">  1        2 0.18891339E+00 0.41939202E+03</pdfrwt>
<pdfrwt beam="2">  1       -2 0.22143859E-01 0.41939202E+03</pdfrwt>
<totfact> 0.33583604E+02</totfact>
</mgrwt>
</event>
<event>
 6    1  0.8861680E-004  0.4771491E+03  0.7818608E-02  0.1019922E+00
         -2   -1    0    0    0  501 -0.00000000000E+00  0.00000000000E+00  0.11076679795E+03  0.11076679795E+03  0.00000000000E+00 0.  1.
          2   -1    0    0  502    0  0.00000000000E+00 -0.00000000000E+00 -0.21863385732E+04  0.21863385732E+04  0.00000000000E+00 0. -1.
    9000007    2    1    2  502    0 -0.12713256624E+02 -0.25981125904E+03 -0.75673638773E+03  0.89461105865E+03  0.40001933519E+03 0.  0.
    9000005    1    3    3    0    0  0.13789738939E+03 -0.24387912627E+03 -0.65432984891E+03  0.71178737654E+03  0.99999687468E+00 0.  0.
          4    1    3    3  502    0 -0.15061064601E+03 -0.15932132764E+02 -0.10240653882E+03  0.18282368211E+03  0.00000000000E+00 0.  1.
   -9000007    1    1    2    0  501  0.12713256624E+02  0.25981125904E+03 -0.13188353875E+04  0.14024943125E+04  0.40000000000E+03 0. -1.
<mgrwt>
<rscale>  2 0.47714909E+03</rscale>
<asrwt>0</asrwt>
<pdfrwt beam="1">  1        2 0.33635977E+00 0.47714909E+03</pdfrwt>
<pdfrwt beam="2">  1       -2 0.17041046E-01 0.47714909E+03</pdfrwt>
<totfact> 0.15769167E+02</totfact>
</mgrwt>
</event>
<event>
 6    1  0.8861680E-004  0.6058023E+03  0.7818608E-02  0.9893441E-01
          2   -1    0    0  502    0  0.00000000000E+00  0.00000000000E+00  0.53355945880E+03  0.53355945880E+03  0.00000000000E+00 0. -1.
         -2   -1    0    0    0  501 -0.00000000000E+00 -0.00000000000E+00 -0.91535890975E+03  0.91535890975E+03  0.00000000000E+00 0.  1.
    9000007    2    1    2  502    0 -0.38579699467E+03  0.24134406417E+03 -0.55207541065E+03  0.81956935500E+03  0.39977542471E+03 0.  0.
    9000005    1    3    3    0    0 -0.79010649940E+02 -0.16397519852E+02  0.51039704075E+02  0.95486191919E+02  0.99999687468E+00 0.  0.
          4    1    3    3  502    0 -0.30678634473E+03  0.25774158402E+03 -0.60311511472E+03  0.72408316308E+03  0.00000000000E+00 0.  1.
   -9000007    1    1    2    0  501  0.38579699467E+03 -0.24134406417E+03  0.17027595970E+03  0.62934901355E+03  0.40000000000E+03 0. -1.
<mgrwt>
<rscale>  2 0.60580233E+03</rscale>
<asrwt>0</asrwt>
<pdfrwt beam="1">  1        2 0.82086071E-01 0.60580233E+03</pdfrwt>
<pdfrwt beam="2">  1       -2 0.14082445E+00 0.60580233E+03</pdfrwt>
<totfact> 0.20741137E+01</totfact>
</mgrwt>
</event>
<event>
 6    1  0.8861680E-004  0.4662708E+03  0.7818608E-02  0.1022978E+00
          1   -1    0    0  502    0  0.00000000000E+00  0.00000000000E+00  0.16894439665E+04  0.16894439665E+04  0.00000000000E+00 0.  1.
         -1   -1    0    0    0  501 -0.00000000000E+00 -0.00000000000E+00 -0.12868661028E+03  0.12868661028E+03  0.00000000000E+00 0. -1.
    9000007    2    1    2  502    0  0.49787016319E+02  0.23438662728E+03  0.77925374038E+03  0.90809555568E+03  0.39998163496E+03 0.  0.
    9000005    1    3    3    0    0  0.72040048369E+02  0.27859360704E+03  0.26413669252E+03  0.39060639880E+03  0.99999687468E+00 0.  0.
          4    1    3    3  502    0 -0.22253032050E+02 -0.44206979760E+02  0.51511704786E+03  0.51748915688E+03  0.00000000000E+00 0.  1.
   -9000007    1    1    2    0  501 -0.49787016319E+02 -0.23438662728E+03  0.78150361580E+03  0.91003502106E+03  0.40000000000E+03 0. -1.
<mgrwt>
<rscale>  2 0.46627084E+03</rscale>
<asrwt>0</asrwt>
<pdfrwt beam="1">  1        1 0.25991444E+00 0.46627084E+03</pdfrwt>
<pdfrwt beam="2">  1       -1 0.19797941E-01 0.46627084E+03</pdfrwt>
<totfact> 0.10680225E+02</totfact>
</mgrwt>
</event>
<event>
 6    1  0.8861680E-004  0.4824152E+03  0.7818608E-02  0.1018474E+00
          2   -1    0    0  502    0  0.00000000000E+00  0.00000000000E+00  0.28184007751E+03  0.28184007751E+03  0.00000000000E+00 0.  1.
         -2   -1    0    0    0  501 -0.00000000000E+00 -0.00000000000E+00 -0.96935068823E+03  0.96935068823E+03  0.00000000000E+00 0. -1.
    9000007    2    1    2  502    0  0.26378428823E+03 -0.55744380375E+02 -0.10297635256E+03  0.49331882034E+03  0.40008716882E+03 0.  0.
    9000005    1    3    3    0    0  0.22678735891E+03 -0.20845006669E+03 -0.12918130845E+03  0.33402506929E+03  0.99999687468E+00 0.  0.
          4    1    3    3  502    0  0.36996929319E+02  0.15270568632E+03  0.26204955882E+02  0.15929375106E+03  0.00000000000E+00 0.  1.
   -9000007    1    1    2    0  501 -0.26378428823E+03  0.55744380375E+02 -0.58453425816E+03  0.75787194540E+03  0.40000000000E+03 0. -1.
<mgrwt>
<rscale>  2 0.48241523E+03</rscale>
<asrwt>0</asrwt>
<pdfrwt beam="1">  1        2 0.43360011E-01 0.48241523E+03</pdfrwt>
<pdfrwt beam="2">  1       -2 0.14913088E+00 0.48241523E+03</pdfrwt>
<totfact> 0.37011506E+01</totfact>
</mgrwt>
</event>
<event>
 6    1  0.8861680E-004  0.4229467E+03  0.7818608E-02  0.1036112E+00
         -2   -1    0    0    0  501 -0.00000000000E+00  0.00000000000E+00  0.19789890419E+03  0.19789890419E+03  0.00000000000E+00 0. -1.
          2   -1    0    0  502    0  0.00000000000E+00 -0.00000000000E+00 -0.10485055824E+04  0.10485055824E+04  0.00000000000E+00 0.  1.
    9000007    2    1    2  502    0  0.13751284731E+03  0.15617782383E+02 -0.19360120616E+03  0.46486121293E+03  0.39932545869E+03 0.  0.
    9000005    1    3    3    0    0  0.10129363337E+03 -0.94179625270E+02  0.85605049018E+02  0.16266353736E+03  0.99999687468E+00 0.  0.
          4    1    3    3  502    0  0.36219213940E+02  0.10979740765E+03 -0.27920625518E+03  0.30219767557E+03  0.00000000000E+00 0.  1.
   -9000007    1    1    2    0  501 -0.13751284731E+03 -0.15617782383E+02 -0.65700547203E+03  0.78154327364E+03  0.40000000000E+03 0.  1.
<mgrwt>
<rscale>  2 0.42294669E+03</rscale>
<asrwt>0</asrwt>
<pdfrwt beam="1">  1        2 0.16130855E+00 0.42294669E+03</pdfrwt>
<pdfrwt beam="2">  1       -2 0.30445985E-01 0.42294669E+03</pdfrwt>
<totfact> 0.24191525E+02</totfact>
</mgrwt>
</event>
<event>
 6    1  0.8861680E-004  0.4142303E+03  0.7818608E-02  0.1038961E+00
          2   -1    0    0  502    0  0.00000000000E+00  0.00000000000E+00  0.80314740319E+03  0.80314740319E+03  0.00000000000E+00 0.  1.
         -2   -1    0    0    0  501 -0.00000000000E+00 -0.00000000000E+00 -0.22676300874E+03  0.22676300874E+03  0.00000000000E+00 0. -1.
    9000007    2    1    2  502    0 -0.92178074325E+02 -0.58253563443E+02  0.41181738847E+03  0.58384699211E+03  0.39924112227E+03 0.  0.
    9000005    1    3    3    0    0  0.24248943399E+02 -0.18195602519E+02 -0.75421105837E+02  0.81292277655E+02  0.99999687468E+00 0.  0.
          4    1    3    3  502    0 -0.11642701772E+03 -0.40057960924E+02  0.48723849430E+03  0.50255471446E+03  0.00000000000E+00 0.  1.
   -9000007    1    1    2    0  501  0.92178074325E+02  0.58253563443E+02  0.16456700599E+03  0.44606341982E+03  0.40000000000E+03 0. -1.
<mgrwt>
<rscale>  2 0.41423030E+03</rscale>
<asrwt>0</asrwt>
<pdfrwt beam="1">  1        2 0.12356114E+00 0.41423030E+03</pdfrwt>
<pdfrwt beam="2">  1       -2 0.34886617E-01 0.41423030E+03</pdfrwt>
<totfact> 0.27155839E+02</totfact>
</mgrwt>
</event>
<event>
 6    1  0.8861680E-004  0.5036901E+03  0.7818608E-02  0.1012820E+00
         -2   -1    0    0    0  501 -0.00000000000E+00  0.00000000000E+00  0.63084937097E+03  0.63084937097E+03  0.00000000000E+00 0. -1.
          2   -1    0    0  502    0  0.00000000000E+00 -0.00000000000E+00 -0.51921055901E+03  0.51921055901E+03  0.00000000000E+00 0.  1.
    9000007    2    1    2  502    0 -0.30496652376E+03  0.29113030564E+02  0.32883121790E+03  0.60140275983E+03  0.39962877837E+03 0.  0.
    9000005    1    3    3    0    0 -0.84685631790E+02  0.19654388713E+03  0.21141970742E+03  0.30083292453E+03  0.99999687468E+00 0.  0.
          4    1    3    3  502    0 -0.22028089197E+03 -0.16743085657E+03  0.11741151048E+03  0.30056983530E+03  0.00000000000E+00 0.  1.
   -9000007    1    1    2    0  501  0.30496652376E+03 -0.29113030564E+02 -0.21719240594E+03  0.54865717015E+03  0.40000000000E+03 0.  1.
<mgrwt>
<rscale>  2 0.50369007E+03</rscale>
<asrwt>0</asrwt>
<pdfrwt beam="1">  1        2 0.79878547E-01 0.50369007E+03</pdfrwt>
<pdfrwt beam="2">  1       -2 0.97053750E-01 0.50369007E+03</pdfrwt>
<totfact> 0.53896598E+01</totfact>
</mgrwt>
</event>
<event>
 6    1  0.8861680E-004  0.5002473E+03  0.7818608E-02  0.1013714E+00
          1   -1    0    0  502    0  0.00000000000E+00  0.00000000000E+00  0.22122526630E+04  0.22122526630E+04  0.00000000000E+00 0. -1.
         -1   -1    0    0    0  501 -0.00000000000E+00 -0.00000000000E+00 -0.11365490348E+03  0.11365490348E+03  0.00000000000E+00 0.  1.
    9000007    2    1    2  502    0 -0.25278455463E+02 -0.29932094819E+03  0.96945880110E+03  0.10909230250E+04  0.40003830948E+03 0.  0.
    9000005    1    3    3    0    0 -0.55363881614E+02 -0.75844778671E+01  0.66801024331E+03  0.67034421669E+03  0.99999687468E+00 0.  0.
          4    1    3    3  502    0  0.30085426150E+02 -0.29173647032E+03  0.30144855779E+03  0.42057880828E+03  0.00000000000E+00 0.  1.
   -9000007    1    1    2    0  501  0.25278455463E+02  0.29932094819E+03  0.11291389584E+04  0.12349845415E+04  0.40000000000E+03 0. -1.
<mgrwt>
<rscale>  2 0.50024729E+03</rscale>
<asrwt>0</asrwt>
<pdfrwt beam="1">  1        1 0.34034653E+00 0.50024729E+03</pdfrwt>
<pdfrwt beam="2">  1       -1 0.17485371E-01 0.50024729E+03</pdfrwt>
<totfact> 0.58698687E+01</totfact>
</mgrwt>
</event>
<event>
 6    1  0.8861680E-004  0.4946878E+03  0.7818608E-02  0.1015175E+00
         -2   -1    0    0    0  501 -0.00000000000E+00  0.00000000000E+00  0.22825936552E+03  0.22825936552E+03  0.00000000000E+00 0.  1.
          2   -1    0    0  502    0  0.00000000000E+00 -0.00000000000E+00 -0.10973225858E+04  0.10973225858E+04  0.00000000000E+00 0. -1.
    9000007    2    1    2  502    0 -0.20666938929E+03 -0.20499335808E+03 -0.33402222638E+03  0.59688216507E+03  0.39995369474E+03 0.  0.
    9000005    1    3    3    0    0 -0.25084891449E+03 -0.22925651218E+03 -0.39283449136E+03  0.51942628339E+03  0.99999687468E+00 0.  0.
          4    1    3    3  502    0  0.44179525198E+02  0.24263154103E+02  0.58812264988E+02  0.77455881680E+02  0.00000000000E+00 0.  1.
   -9000007    1    1    2    0  501  0.20666938929E+03  0.20499335808E+03 -0.53504099394E+03  0.72869978628E+03  0.40000000000E+03 0.  1.
<mgrwt>
<rscale>  2 0.49468777E+03</rscale>
<asrwt>0</asrwt>
<pdfrwt beam="1">  1        2 0.16881886E+00 0.49468777E+03</pdfrwt>
<pdfrwt beam="2">  1       -2 0.35116825E-01 0.49468777E+03</pdfrwt>
<totfact> 0.17186835E+02</totfact>
</mgrwt>
</event>
<event>
 6    1  0.8861680E-004  0.4687779E+03  0.7818608E-02  0.1022266E+00
         -1   -1    0    0    0  501 -0.00000000000E+00  0.00000000000E+00  0.27054902202E+03  0.27054902202E+03  0.00000000000E+00 0.  1.
          1   -1    0    0  502    0  0.00000000000E+00 -0.00000000000E+00 -0.82592599761E+03  0.82592599761E+03  0.00000000000E+00 0. -1.
    9000007    2    1    2  502    0 -0.16869429166E+03  0.15900421007E+03 -0.21133394674E+03  0.52018888535E+03  0.41496305442E+03 0.  0.
    9000005    1    3    3    0    0 -0.10771110254E+03  0.11570586614E+03 -0.33797107734E+03  0.37311523445E+03  0.99999687468E+00 0.  0.
          4    1    3    3  502    0 -0.60983189114E+02  0.43298343924E+02  0.12663713060E+03  0.14707365089E+03  0.00000000000E+00 0.  1.
   -9000007    1    1    2    0  501  0.16869429166E+03 -0.15900421007E+03 -0.34404302885E+03  0.57628613428E+03  0.40000000000E+03 0. -1.
<mgrwt>
<rscale>  2 0.46877788E+03</rscale>
<asrwt>0</asrwt>
<pdfrwt beam="1">  1        1 0.12706554E+00 0.46877788E+03</pdfrwt>
<pdfrwt beam="2">  1       -1 0.41622926E-01 0.46877788E+03</pdfrwt>
<totfact> 0.12396354E+02</totfact>
</mgrwt>
</event>
<event>
 6    1  0.8861680E-004  0.4373381E+03  0.7818608E-02  0.1031567E+00
          2   -1    0    0  502    0  0.00000000000E+00  0.00000000000E+00  0.11698827076E+04  0.11698827076E+04  0.00000000000E+00 0.  1.
         -2   -1    0    0    0  501 -0.00000000000E+00 -0.00000000000E+00 -0.18013950237E+03  0.18013950237E+03  0.00000000000E+00 0. -1.
    9000007    2    1    2  502    0 -0.24007835160E+01  0.17696646899E+03  0.28959151899E+03  0.52447071028E+03  0.39985420238E+03 0.  0.
    9000005    1    3    3    0    0  0.46751520085E+02 -0.10209855275E+03 -0.92102547170E+01  0.11267496567E+03  0.99999687468E+00 0.  0.
          4    1    3    3  502    0 -0.49152303601E+02  0.27906502174E+03  0.29880177370E+03  0.41179574461E+03  0.00000000000E+00 0.  1.
   -9000007    1    1    2    0  501  0.24007835160E+01 -0.17696646899E+03  0.70015168623E+03  0.82555149969E+03  0.40000000000E+03 0.  1.
<mgrwt>
<rscale>  2 0.43733806E+03</rscale>
<asrwt>0</asrwt>
<pdfrwt beam="1">  1        2 0.17998195E+00 0.43733806E+03</pdfrwt>
<pdfrwt beam="2">  1       -2 0.27713770E-01 0.43733806E+03</pdfrwt>
<totfact> 0.24273460E+02</totfact>
</mgrwt>
</event>
<event>
 6    1  0.8861680E-004  0.4698989E+03  0.7818608E-02  0.1021949E+00
         -1   -1    0    0    0  501 -0.00000000000E+00  0.00000000000E+00  0.57753391531E+03  0.57753391531E+03  0.00000000000E+00 0.  1.
          1   -1    0    0  502    0  0.00000000000E+00 -0.00000000000E+00 -0.92007154528E+03  0.92007154528E+03  0.00000000000E+00 0. -1.
    9000007    2    1    2  502    0 -0.24040393471E+03  0.80683347638E+02  0.40173171037E+03  0.61542594066E+03  0.39122482911E+03 0.  0.
    9000005    1    3    3    0    0  0.91044628882E+02  0.25357565839E+02  0.38004337135E+01  0.94591616350E+02  0.99999687468E+00 0.  0.
          4    1    3    3  502    0 -0.33144856359E+03  0.55325781799E+02  0.39793127666E+03  0.52083432431E+03  0.00000000000E+00 0.  1.
   -9000007    1    1    2    0  501  0.24040393471E+03 -0.80683347638E+02 -0.74426934035E+03  0.88217951993E+03  0.40000000000E+03 0. -1.
<mgrwt>
<rscale>  2 0.46989892E+03</rscale>
<asrwt>0</asrwt>
<pdfrwt beam="1">  1        1 0.14154947E+00 0.46989892E+03</pdfrwt>
<pdfrwt beam="2">  1       -1 0.88851372E-01 0.46989892E+03</pdfrwt>
<totfact> 0.23318032E+01</totfact>
</mgrwt>
</event>
<event>
 6    1  0.8861680E-004  0.4366723E+03  0.7818608E-02  0.1031773E+00
         -1   -1    0    0    0  501 -0.00000000000E+00  0.00000000000E+00  0.25207246307E+03  0.25207246307E+03  0.00000000000E+00 0.  1.
          1   -1    0    0  502    0  0.00000000000E+00 -0.00000000000E+00 -0.23223845831E+04  0.23223845831E+04  0.00000000000E+00 0. -1.
    9000007    2    1    2  502    0 -0.47391574938E+02 -0.17019692303E+03 -0.20916847468E+04  0.21366560147E+04  0.39867391615E+03 0.  0.
    9000005    1    3    3    0    0 -0.15777831059E+03 -0.21208607822E+03 -0.18371645584E+04  0.18560843500E+04  0.99999687468E+00 0.  0.
          4    1    3    3  502    0  0.11038673565E+03  0.41889155196E+02 -0.25452018838E+03  0.28057166469E+03  0.00000000000E+00 0.  1.
   -9000007    1    1    2    0  501  0.47391574938E+02  0.17019692303E+03  0.21372626712E+02  0.43780103147E+03  0.40000000000E+03 0.  1.
<mgrwt>
<rscale>  2 0.43667226E+03</rscale>
<asrwt>0</asrwt>
<pdfrwt beam="1">  1        1 0.35728992E+00 0.43667226E+03</pdfrwt>
<pdfrwt beam="2">  1       -1 0.38780380E-01 0.43667226E+03</pdfrwt>
<totfact> 0.12960387E+01</totfact>
</mgrwt>
</event>
<event>
 6    1  0.8861680E-004  0.4209950E+03  0.7818608E-02  0.1036743E+00
          2   -1    0    0  502    0  0.00000000000E+00  0.00000000000E+00  0.25733646279E+04  0.25733646279E+04  0.00000000000E+00 0.  1.
         -2   -1    0    0    0  501 -0.00000000000E+00 -0.00000000000E+00 -0.69723452070E+02  0.69723452070E+02  0.00000000000E+00 0. -1.
    9000007    2    1    2  502    0  0.72421267086E+02  0.11057029079E+03  0.13969098910E+04  0.14588901379E+04  0.39941527488E+03 0.  0.
    9000005    1    3    3    0    0  0.23028105598E+03  0.10920956782E+03  0.71880369655E+03  0.76265054161E+03  0.99999687468E+00 0.  0.
          4    1    3    3  502    0 -0.15785978890E+03  0.13607229748E+01  0.67810619447E+03  0.69623959633E+03  0.00000000000E+00 0.  1.
   -9000007    1    1    2    0  501 -0.72421267086E+02 -0.11057029079E+03  0.11067312848E+04  0.11841979420E+04  0.40000000000E+03 0.  1.
<mgrwt>
<rscale>  2 0.42099496E+03</rscale>
<asrwt>0</asrwt>
<pdfrwt beam="1">  1        2 0.39590218E+00 0.42099496E+03</pdfrwt>
<pdfrwt beam="2">  1       -2 0.10726687E-01 0.42099496E+03</pdfrwt>
<totfact> 0.20998116E+02</totfact>
</mgrwt>
</event>
<event>
 6    1  0.8861680E-004  0.5230633E+03  0.7818608E-02  0.1007928E+00
          2   -1    0    0  502    0  0.00000000000E+00  0.00000000000E+00  0.21188524871E+04  0.21188524871E+04  0.00000000000E+00 0.  1.
         -2   -1    0    0    0  501 -0.00000000000E+00 -0.00000000000E+00 -0.13257637330E+03  0.13257637330E+03  0.00000000000E+00 0. -1.
    9000007    2    1    2  502    0 -0.11015385857E+03  0.31815042688E+03  0.81191418272E+03  0.96594081617E+03  0.40060386116E+03 0.  0.
    9000005    1    3    3    0    0  0.14869988584E+03  0.10264119270E+03  0.21781929689E+03  0.28300727301E+03  0.99999687468E+00 0.  0.
          4    1    3    3  502    0 -0.25885374441E+03  0.21550923418E+03  0.59409488583E+03  0.68293354316E+03  0.00000000000E+00 0.  1.
   -9000007    1    1    2    0  501  0.11015385857E+03 -0.31815042688E+03  0.11743619311E+04  0.12854880443E+04  0.40000000000E+03 0.  1.
<mgrwt>
<rscale>  2 0.52306327E+03</rscale>
<asrwt>0</asrwt>
<pdfrwt beam="1">  1        2 0.32597728E+00 0.52306327E+03</pdfrwt>
<pdfrwt beam="2">  1       -2 0.20396367E-01 0.52306327E+03</pdfrwt>
<totfact> 0.12500196E+02</totfact>
</mgrwt>
</event>
<event>
 6    1  0.8861680E-004  0.4077399E+03  0.7818608E-02  0.1041132E+00
          1   -1    0    0  502    0  0.00000000000E+00  0.00000000000E+00  0.18755644090E+04  0.18755644090E+04  0.00000000000E+00 0.  1.
         -1   -1    0    0    0  501 -0.00000000000E+00 -0.00000000000E+00 -0.88886148119E+02  0.88886148119E+02  0.00000000000E+00 0. -1.
    9000007    2    1    2  502    0 -0.23510241657E+02 -0.85923377563E+02  0.94020132407E+03  0.10239938793E+04  0.39578956129E+03 0.  0.
    9000005    1    3    3    0    0  0.12373234801E+03  0.60926986531E+02  0.13735216828E+03  0.19464945353E+03  0.99999687468E+00 0.  0.
          4    1    3    3  502    0 -0.14724258967E+03 -0.14685036409E+03  0.80284915579E+03  0.82934442579E+03  0.00000000000E+00 0.  1.
   -9000007    1    1    2    0  501  0.23510241657E+02  0.85923377563E+02  0.84647693684E+03  0.94045667783E+03  0.40000000000E+03 0. -1.
<mgrwt>
<rscale>  2 0.40773988E+03</rscale>
<asrwt>0</asrwt>
<pdfrwt beam="1">  1        1 0.28854834E+00 0.40773988E+03</pdfrwt>
<pdfrwt beam="2">  1       -1 0.13674793E-01 0.40773988E+03</pdfrwt>
<totfact> 0.14798804E+02</totfact>
</mgrwt>
</event>
<event>
 6    1  0.8861680E-004  0.4154096E+03  0.7818608E-02  0.1038571E+00
         -2   -1    0    0    0  501 -0.00000000000E+00  0.00000000000E+00  0.67723724092E+03  0.67723724092E+03  0.00000000000E+00 0. -1.
          2   -1    0    0  502    0  0.00000000000E+00 -0.00000000000E+00 -0.25644447089E+03  0.25644447089E+03  0.00000000000E+00 0.  1.
    9000007    2    1    2  502    0 -0.10448241789E+03  0.11945507302E+02  0.24855484234E+03  0.48565808014E+03  0.40376353273E+03 0.  0.
    9000005    1    3    3    0    0 -0.28484890051E+02 -0.92694172317E+02  0.32244479951E+03  0.33671241032E+03  0.99999687468E+00 0.  0.
          4    1    3    3  502    0 -0.75997527842E+02  0.10463967962E+03 -0.73889957165E+02  0.14894566982E+03  0.00000000000E+00 0.  1.
   -9000007    1    1    2    0  501  0.10448241789E+03 -0.11945507302E+02  0.17223792768E+03  0.44802363166E+03  0.40000000000E+03 0.  1.
<mgrwt>
<rscale>  2 0.41540960E+03</rscale>
<asrwt>0</asrwt>
<pdfrwt beam="1">  1        2 0.39452996E-01 0.41540960E+03</pdfrwt>
<pdfrwt beam="2">  1       -2 0.10419034E+00 0.41540960E+03</pdfrwt>
<totfact> 0.10065314E+02</totfact>
</mgrwt>
</event>
<event>
 6    1  0.8861680E-004  0.4511975E+03  0.7818608E-02  0.1027366E+00
          2   -1    0    0  502    0  0.00000000000E+00  0.00000000000E+00  0.57632363158E+03  0.57632363158E+03  0.00000000000E+00 0. -1.
         -2   -1    0    0    0  501 -0.00000000000E+00 -0.00000000000E+00 -0.38854426741E+03  0.38854426741E+03  0.00000000000E+00 0.  1.
    9000007    2    1    2  502    0  0.19250756175E+03 -0.81168882839E+02 -0.51551969363E+02  0.45405772282E+03  0.39982904001E+03 0.  0.
    9000005    1    3    3    0    0 -0.51800012269E+02 -0.14610565626E+03  0.74033411567E+02  0.17179071595E+03  0.99999687468E+00 0.  0.
          4    1    3    3  502    0  0.24430757402E+03  0.64936773426E+02 -0.12558538093E+03  0.28226700687E+03  0.00000000000E+00 0.  1.
   -9000007    1    1    2    0  501 -0.19250756175E+03  0.81168882839E+02  0.23933133353E+03  0.51081017617E+03  0.40000000000E+03 0. -1.
<mgrwt>
<rscale>  2 0.45119748E+03</rscale>
<asrwt>0</asrwt>
<pdfrwt beam="1">  1        2 0.88665174E-01 0.45119748E+03</pdfrwt>
<pdfrwt beam="2">  1       -2 0.59776041E-01 0.45119748E+03</pdfrwt>
<totfact> 0.13996829E+02</totfact>
</mgrwt>
</event>
<event>
 6    1  0.8861680E-004  0.4513620E+03  0.7818608E-02  0.1027317E+00
         -2   -1    0    0    0  501 -0.00000000000E+00  0.00000000000E+00  0.13142340467E+04  0.13142340467E+04  0.00000000000E+00 0.  1.
          2   -1    0    0  502    0  0.00000000000E+00 -0.00000000000E+00 -0.21171884527E+03  0.21171884527E+03  0.00000000000E+00 0. -1.
    9000007    2    1    2  502    0 -0.19902426517E+03  0.63102974505E+02  0.15654075582E+03  0.47787832628E+03  0.40033741141E+03 0.  0.
    9000005    1    3    3    0    0 -0.26373637355E+03  0.12978709531E+03  0.21844457610E+03  0.36622479116E+03  0.99999687468E+00 0.  0.
          4    1    3    3  502    0  0.64712108379E+02 -0.66684120807E+02 -0.61903820280E+02  0.11165353512E+03  0.00000000000E+00 0.  1.
   -9000007    1    1    2    0  501  0.19902426517E+03 -0.63102974505E+02  0.94597444565E+03  0.10480745657E+04  0.40000000000E+03 0.  1.
<mgrwt>
<rscale>  2 0.45136196E+03</rscale>
<asrwt>0</asrwt>
<pdfrwt beam="1">  1        2 0.32572131E-01 0.45136196E+03</pdfrwt>
<pdfrwt beam="2">  1       -2 0.20218985E+00 0.45136196E+03</pdfrwt>
<totfact> 0.21864083E+01</totfact>
</mgrwt>
</event>
<event>
 6    1  0.8861680E-004  0.4082048E+03  0.7818608E-02  0.1040975E+00
         -2   -1    0    0    0  501 -0.00000000000E+00  0.00000000000E+00  0.13789375460E+03  0.13789375460E+03  0.00000000000E+00 0.  1.
          2   -1    0    0  502    0  0.00000000000E+00 -0.00000000000E+00 -0.12495203721E+04  0.12495203721E+04  0.00000000000E+00 0. -1.
    9000007    2    1    2  502    0 -0.32504899829E+02  0.75128992241E+02 -0.42986011712E+03  0.59274029735E+03  0.39982546921E+03 0.  0.
    9000005    1    3    3    0    0 -0.80663567458E+02  0.18349250728E+03 -0.42970689349E+03  0.47415727944E+03  0.99999687468E+00 0.  0.
          4    1    3    3  502    0  0.48158667629E+02 -0.10836351504E+03 -0.15322362572E+00  0.11858301791E+03  0.00000000000E+00 0.  1.
   -9000007    1    1    2    0  501  0.32504899829E+02 -0.75128992241E+02 -0.68176650036E+03  0.79467382931E+03  0.40000000000E+03 0. -1.
<mgrwt>
<rscale>  2 0.40820476E+03</rscale>
<asrwt>0</asrwt>
<pdfrwt beam="1">  1        2 0.19223391E+00 0.40820476E+03</pdfrwt>
<pdfrwt beam="2">  1       -2 0.21214423E-01 0.40820476E+03</pdfrwt>
<totfact> 0.35222030E+02</totfact>
</mgrwt>
</event>
<event>
 6    1  0.8861680E-004  0.7841390E+03  0.7818608E-02  0.9583263E-01
          2   -1    0    0  502    0  0.00000000000E+00  0.00000000000E+00  0.11131411946E+04  0.11131411946E+04  0.00000000000E+00 0. -1.
         -2   -1    0    0    0  501 -0.00000000000E+00 -0.00000000000E+00 -0.97423382971E+03  0.97423382971E+03  0.00000000000E+00 0.  1.
    9000007    2    1    2  502    0  0.46446266548E+03 -0.48899921091E+03 -0.61733109954E+03  0.99799794955E+03  0.40007052496E+03 0.  0.
    9000005    1    3    3    0    0  0.46343010973E+03 -0.29032811457E+03 -0.30038536390E+03  0.62393128432E+03  0.99999687468E+00 0.  0.
          4    1    3    3  502    0  0.10325557498E+01 -0.19867109634E+03 -0.31694573564E+03  0.37406666523E+03  0.00000000000E+00 0.  1.
   -9000007    1    1    2    0  501 -0.46446266548E+03  0.48899921091E+03  0.75623846439E+03  0.10893770747E+04  0.40000000000E+03 0. -1.
<mgrwt>
<rscale>  2 0.78413902E+03</rscale>
<asrwt>0</asrwt>
<pdfrwt beam="1">  1        2 0.17125249E+00 0.78413902E+03</pdfrwt>
<pdfrwt beam="2">  1       -2 0.14988213E+00 0.78413902E+03</pdfrwt>
<totfact> 0.65196636E+00</totfact>
</mgrwt>
</event>
<event>
 6    1  0.8861680E-004  0.4001705E+03  0.7818608E-02  0.1043721E+00
          2   -1    0    0  502    0  0.00000000000E+00  0.00000000000E+00  0.71019395195E+03  0.71019395195E+03  0.00000000000E+00 0. -1.
         -2   -1    0    0    0  501 -0.00000000000E+00 -0.00000000000E+00 -0.32130645889E+03  0.32130645889E+03  0.00000000000E+00 0.  1.
    9000007    2    1    2  502    0 -0.95366348190E+01  0.17380459384E+02  0.47598846630E+03  0.62164725749E+03  0.39935856686E+03 0.  0.
    9000005    1    3    3    0    0  0.11705320891E+03  0.16070272756E+03  0.17398275255E+03  0.26419276776E+03  0.99999687468E+00 0.  0.
          4    1    3    3  502    0 -0.12658984373E+03 -0.14332226817E+03  0.30200571375E+03  0.35745448973E+03  0.00000000000E+00 0.  1.
   -9000007    1    1    2    0  501  0.95366348190E+01 -0.17380459384E+02 -0.87100973236E+02  0.40985315335E+03  0.40000000000E+03 0.  1.
<mgrwt>
<rscale>  2 0.40017053E+03</rscale>
<asrwt>0</asrwt>
<pdfrwt beam="1">  1        2 0.10926061E+00 0.40017053E+03</pdfrwt>
<pdfrwt beam="2">  1       -2 0.49431763E-01 0.40017053E+03</pdfrwt>
<totfact> 0.16135300E+02</totfact>
</mgrwt>
</event>
<event>
 6    1  0.8861680E-004  0.4251321E+03  0.7818608E-02  0.1035409E+00
         -1   -1    0    0    0  501 -0.00000000000E+00  0.00000000000E+00  0.57728014141E+03  0.57728014141E+03  0.00000000000E+00 0. -1.
          1   -1    0    0  502    0  0.00000000000E+00 -0.00000000000E+00 -0.31325539575E+03  0.31325539575E+03  0.00000000000E+00 0.  1.
    9000007    2    1    2  502    0  0.13308835386E+03  0.56103327309E+02  0.12155822925E+03  0.44203046298E+03  0.39969292442E+03 0.  0.
    9000005    1    3    3    0    0 -0.75980805594E+02  0.88085378537E+02  0.18735290616E+03  0.22053169425E+03  0.99999687468E+00 0.  0.
          4    1    3    3  502    0  0.20906915946E+03 -0.31982051228E+02 -0.65794676911E+02  0.22149876872E+03  0.00000000000E+00 0.  1.
   -9000007    1    1    2    0  501 -0.13308835386E+03 -0.56103327309E+02  0.14246651642E+03  0.44850507418E+03  0.40000000000E+03 0.  1.
<mgrwt>
<rscale>  2 0.42513206E+03</rscale>
<asrwt>0</asrwt>
<pdfrwt beam="1">  1        1 0.48193138E-01 0.42513206E+03</pdfrwt>
<pdfrwt beam="2">  1       -1 0.88812329E-01 0.42513206E+03</pdfrwt>
<totfact> 0.10742788E+02</totfact>
</mgrwt>
</event>
<event>
 6    1  0.8861680E-004  0.4140543E+03  0.7818608E-02  0.1039019E+00
          2   -1    0    0  502    0  0.00000000000E+00  0.00000000000E+00  0.17288179922E+03  0.17288179922E+03  0.00000000000E+00 0. -1.
         -2   -1    0    0    0  501 -0.00000000000E+00 -0.00000000000E+00 -0.13054537402E+04  0.13054537402E+04  0.00000000000E+00 0.  1.
    9000007    2    1    2  502    0  0.86227817553E+01 -0.10890400821E+03 -0.20327569865E+03  0.46072758869E+03  0.39876617955E+03 0.  0.
    9000005    1    3    3    0    0  0.20103148652E+03 -0.65409867895E+02 -0.70135423014E+02  0.22273770885E+03  0.99999687468E+00 0.  0.
          4    1    3    3  502    0 -0.19240870476E+03 -0.43494140311E+02 -0.13314027563E+03  0.23798987984E+03  0.00000000000E+00 0.  1.
   -9000007    1    1    2    0  501 -0.86227817553E+01  0.10890400821E+03 -0.92929624230E+03  0.10176079507E+04  0.40000000000E+03 0.  1.
<mgrwt>
<rscale>  2 0.41405430E+03</rscale>
<asrwt>0</asrwt>
<pdfrwt beam="1">  1        2 0.26597200E-01 0.41405430E+03</pdfrwt>
<pdfrwt beam="2">  1       -2 0.20083904E+00 0.41405430E+03</pdfrwt>
<totfact> 0.28119287E+01</totfact>
</mgrwt>
</event>
<event>
 6    1  0.8861680E-004  0.4728410E+03  0.7818608E-02  0.1021121E+00
          3   -1    0    0  502    0  0.00000000000E+00  0.00000000000E+00  0.41920128534E+03  0.41920128534E+03  0.00000000000E+00 0. -1.
         -3   -1    0    0    0  501 -0.00000000000E+00 -0.00000000000E+00 -0.53423572939E+03  0.53423572939E+03  0.00000000000E+00 0.  1.
    9000007    2    1    2  502    0  0.13271216037E+03 -0.22417353028E+03 -0.38033309134E+02  0.46991300915E+03  0.38923696429E+03 0.  0.
    9000005    1    3    3    0    0  0.26303514178E+01 -0.11918397710E+03  0.16711541779E+03  0.20528103176E+03  0.99999687468E+00 0.  0.
          4    1    3    3  502    0  0.13008180896E+03 -0.10498955319E+03 -0.20514872692E+03  0.26463197739E+03  0.00000000000E+00 0.  1.
   -9000007    1    1    2    0  501 -0.13271216037E+03  0.22417353028E+03 -0.77001134917E+02  0.48352400558E+03  0.40000000000E+03 0. -1.
<mgrwt>
<rscale>  2 0.47284105E+03</rscale>
<asrwt>0</asrwt>
<pdfrwt beam="1">  1        3 0.64492505E-01 0.47284105E+03</pdfrwt>
<pdfrwt beam="2">  1       -3 0.82190112E-01 0.47284105E+03</pdfrwt>
<totfact> 0.83152144E+00</totfact>
</mgrwt>
</event>
<event>
 6    1  0.8861680E-004  0.4381205E+03  0.7818608E-02  0.1031325E+00
          2   -1    0    0  502    0  0.00000000000E+00  0.00000000000E+00  0.23089033042E+04  0.23089033042E+04  0.00000000000E+00 0. -1.
         -2   -1    0    0    0  501 -0.00000000000E+00 -0.00000000000E+00 -0.12008410056E+03  0.12008410056E+03  0.00000000000E+00 0.  1.
    9000007    2    1    2  502    0 -0.11068622760E+03 -0.13885981442E+03  0.42154713226E+03  0.60833256012E+03  0.40103993560E+03 0.  0.
    9000005    1    3    3    0    0 -0.20774292595E+02  0.67099285386E+02  0.37151874635E+03  0.37810192305E+03  0.99999687468E+00 0.  0.
          4    1    3    3  502    0 -0.89911935001E+02 -0.20595909980E+03  0.50028385912E+02  0.23023063707E+03  0.00000000000E+00 0.  1.
   -9000007    1    1    2    0  501  0.11068622760E+03  0.13885981442E+03  0.17672720714E+04  0.18206548447E+04  0.40000000000E+03 0. -1.
<mgrwt>
<rscale>  2 0.43812048E+03</rscale>
<asrwt>0</asrwt>
<pdfrwt beam="1">  1        2 0.35521586E+00 0.43812048E+03</pdfrwt>
<pdfrwt beam="2">  1       -2 0.18474479E-01 0.43812048E+03</pdfrwt>
<totfact> 0.11860709E+02</totfact>
</mgrwt>
</event>
<event>
 6    1  0.8861680E-004  0.4776929E+03  0.7818608E-02  0.1019771E+00
          2   -1    0    0  502    0  0.00000000000E+00  0.00000000000E+00  0.60848746670E+03  0.60848746670E+03  0.00000000000E+00 0.  1.
         -2   -1    0    0    0  501 -0.00000000000E+00 -0.00000000000E+00 -0.44388152962E+03  0.44388152962E+03  0.00000000000E+00 0. -1.
    9000007    2    1    2  502    0 -0.63394555846E+02  0.25297884636E+03  0.28958948465E+03  0.55877194044E+03  0.40043332202E+03 0.  0.
    9000005    1    3    3    0    0  0.57328549200E+02 -0.85649753488E+02  0.10405796341E+02  0.10359403176E+03  0.99999687468E+00 0.  0.
          4    1    3    3  502    0 -0.12072310505E+03  0.33862859985E+03  0.27918368831E+03  0.45517790867E+03  0.00000000000E+00 0.  1.
   -9000007    1    1    2    0  501  0.63394555846E+02 -0.25297884636E+03 -0.12498354757E+03  0.49359705589E+03  0.40000000000E+03 0. -1.
<mgrwt>
<rscale>  2 0.47769292E+03</rscale>
<asrwt>0</asrwt>
<pdfrwt beam="1">  1        2 0.93613456E-01 0.47769292E+03</pdfrwt>
<pdfrwt beam="2">  1       -2 0.68289466E-01 0.47769292E+03</pdfrwt>
<totfact> 0.98674100E+01</totfact>
</mgrwt>
</event>
<event>
 6    1  0.8861680E-004  0.5993875E+03  0.7818608E-02  0.9906678E-01
         -2   -1    0    0    0  501 -0.00000000000E+00  0.00000000000E+00  0.59519779408E+03  0.59519779408E+03  0.00000000000E+00 0.  1.
          2   -1    0    0  502    0  0.00000000000E+00 -0.00000000000E+00 -0.70519881017E+03  0.70519881017E+03  0.00000000000E+00 0. -1.
    9000007    2    1    2  502    0  0.48609533546E+02 -0.44366249394E+03  0.19178098617E+03  0.62937374908E+03  0.40016505856E+03 0.  0.
    9000005    1    3    3    0    0 -0.28566016882E+02 -0.29428102067E+01  0.17949373110E+03  0.18177919834E+03  0.99999687468E+00 0.  0.
          4    1    3    3  502    0  0.77175550428E+02 -0.44071968373E+03  0.12287255077E+02  0.44759455074E+03  0.00000000000E+00 0.  1.
   -9000007    1    1    2    0  501 -0.48609533546E+02  0.44366249394E+03 -0.30178200226E+03  0.67102285518E+03  0.40000000000E+03 0. -1.
<mgrwt>
<rscale>  2 0.59938746E+03</rscale>
<asrwt>0</asrwt>
<pdfrwt beam="1">  1        2 0.10849212E+00 0.59938746E+03</pdfrwt>
<pdfrwt beam="2">  1       -2 0.91568892E-01 0.59938746E+03</pdfrwt>
<totfact> 0.42311100E+01</totfact>
</mgrwt>
</event>
<event>
 6    1  0.8861680E-004  0.5156260E+03  0.7818608E-02  0.1009779E+00
         -1   -1    0    0    0  501 -0.00000000000E+00  0.00000000000E+00  0.81270282743E+03  0.81270282743E+03  0.00000000000E+00 0. -1.
          1   -1    0    0  502    0  0.00000000000E+00 -0.00000000000E+00 -0.62106549841E+03  0.62106549841E+03  0.00000000000E+00 0.  1.
    9000007    2    1    2  502    0  0.21362209941E+03 -0.24507554224E+03 -0.39733469203E+03  0.65109057329E+03  0.40043433217E+03 0.  0.
    9000005    1    3    3    0    0 -0.60424291224E+02 -0.28937225371E+02 -0.27218077452E+03  0.28030667490E+03  0.99999687468E+00 0.  0.
          4    1    3    3  502    0  0.27404639064E+03 -0.21613831686E+03 -0.12515391751E+03  0.37078389839E+03  0.00000000000E+00 0.  1.
   -9000007    1    1    2    0  501 -0.21362209941E+03  0.24507554224E+03  0.58897202104E+03  0.78267775255E+03  0.40000000000E+03 0. -1.
<mgrwt>
<rscale>  2 0.51562602E+03</rscale>
<asrwt>0</asrwt>
<pdfrwt beam="1">  1        1 0.95548538E-01 0.51562602E+03</pdfrwt>
<pdfrwt beam="2">  1       -1 0.12503120E+00 0.51562602E+03</pdfrwt>
<totfact> 0.19307302E+01</totfact>
</mgrwt>
</event>
<event>
 6    1  0.8861680E-004  0.4523955E+03  0.7818608E-02  0.1027010E+00
          2   -1    0    0  502    0  0.00000000000E+00  0.00000000000E+00  0.76011895706E+03  0.76011895706E+03  0.00000000000E+00 0.  1.
         -2   -1    0    0    0  501 -0.00000000000E+00 -0.00000000000E+00 -0.33664341268E+03  0.33664341268E+03  0.00000000000E+00 0. -1.
    9000007    2    1    2  502    0  0.89372952000E+02 -0.19193019464E+03  0.45703250443E+03  0.64294435144E+03  0.39959229819E+03 0.  0.
    9000005    1    3    3    0    0 -0.11339773925E+02  0.12022128453E+03  0.89317426844E+02  0.15020103348E+03  0.99999687468E+00 0.  0.
          4    1    3    3  502    0  0.10071272592E+03 -0.31215147916E+03  0.36771507759E+03  0.49274331796E+03  0.00000000000E+00 0.  1.
   -9000007    1    1    2    0  501 -0.89372952000E+02  0.19193019464E+03 -0.33556960055E+02  0.45381801830E+03  0.40000000000E+03 0. -1.
<mgrwt>
<rscale>  2 0.45239547E+03</rscale>
<asrwt>0</asrwt>
<pdfrwt beam="1">  1        2 0.11694138E+00 0.45239547E+03</pdfrwt>
<pdfrwt beam="2">  1       -2 0.51791295E-01 0.45239547E+03</pdfrwt>
<totfact> 0.13412344E+02</totfact>
</mgrwt>
</event>
<event>
 6    1  0.8861680E-004  0.4432154E+03  0.7818608E-02  0.1029765E+00
          2   -1    0    0  502    0  0.00000000000E+00  0.00000000000E+00  0.10309441564E+04  0.10309441564E+04  0.00000000000E+00 0. -1.
         -2   -1    0    0    0  501 -0.00000000000E+00 -0.00000000000E+00 -0.22336219345E+03  0.22336219345E+03  0.00000000000E+00 0.  1.
    9000007    2    1    2  502    0 -0.15349465681E+02  0.19048780871E+03  0.64411618916E+03  0.78182114313E+03  0.39979672755E+03 0.  0.
    9000005    1    3    3    0    0  0.10024800690E+03  0.78088494600E+02  0.60187752788E+03  0.61514635205E+03  0.99999687468E+00 0.  0.
          4    1    3    3  502    0 -0.11559747258E+03  0.11239931411E+03  0.42238661276E+02  0.16667479109E+03  0.00000000000E+00 0.  1.
   -9000007    1    1    2    0  501  0.15349465681E+02 -0.19048780871E+03  0.16346577381E+03  0.47248520672E+03  0.40000000000E+03 0.  1.
<mgrwt>
<rscale>  2 0.44321542E+03</rscale>
<asrwt>0</asrwt>
<pdfrwt beam="1">  1        2 0.15860679E+00 0.44321542E+03</pdfrwt>
<pdfrwt beam="2">  1       -2 0.34363415E-01 0.44321542E+03</pdfrwt>
<totfact> 0.19756372E+02</totfact>
</mgrwt>
</event>
<event>
 6    1  0.8861680E-004  0.5322968E+03  0.7818608E-02  0.1005677E+00
          2   -1    0    0  502    0  0.00000000000E+00  0.00000000000E+00  0.14618633255E+04  0.14618633255E+04  0.00000000000E+00 0.  1.
         -2   -1    0    0    0  501 -0.00000000000E+00 -0.00000000000E+00 -0.19388795158E+03  0.19388795158E+03  0.00000000000E+00 0. -1.
    9000007    2    1    2  502    0  0.19669055208E+03  0.29126820063E+03  0.61840415459E+03  0.81583038380E+03  0.39953870743E+03 0.  0.
    9000005    1    3    3    0    0  0.29735345121E+03  0.96634382548E+02  0.37779623998E+03  0.49039604176E+03  0.99999687468E+00 0.  0.
          4    1    3    3  502    0 -0.10066289913E+03  0.19463381808E+03  0.24060791461E+03  0.32543434203E+03  0.00000000000E+00 0.  1.
   -9000007    1    1    2    0  501 -0.19669055208E+03 -0.29126820063E+03  0.64957121929E+03  0.83992089325E+03  0.40000000000E+03 0.  1.
<mgrwt>
<rscale>  2 0.53229679E+03</rscale>
<asrwt>0</asrwt>
<pdfrwt beam="1">  1        2 0.22490204E+00 0.53229679E+03</pdfrwt>
<pdfrwt beam="2">  1       -2 0.29828917E-01 0.53229679E+03</pdfrwt>
<totfact> 0.14341976E+02</totfact>
</mgrwt>
</event>
<event>
 6    1  0.8861680E-004  0.7182468E+03  0.7818608E-02  0.9686527E-01
          2   -1    0    0  502    0  0.00000000000E+00  0.00000000000E+00  0.82061947555E+03  0.82061947555E+03  0.00000000000E+00 0.  1.
         -2   -1    0    0    0  501 -0.00000000000E+00 -0.00000000000E+00 -0.22248466373E+04  0.22248466373E+04  0.00000000000E+00 0. -1.
    9000007    2    1    2  502    0  0.41725994882E+03 -0.42398305484E+03  0.58728315697E+03  0.92886958888E+03  0.40500581601E+03 0.  0.
    9000005    1    3    3    0    0  0.27016161345E+03 -0.11449519728E+03  0.59175265593E+02  0.29933118721E+03  0.99999687468E+00 0.  0.
          4    1    3    3  502    0  0.14709833537E+03 -0.30948785756E+03  0.52810789137E+03  0.62953840167E+03  0.00000000000E+00 0.  1.
   -9000007    1    1    2    0  501 -0.41725994882E+03  0.42398305484E+03 -0.19915103187E+04  0.21165965239E+04  0.40000000000E+03 0. -1.
<mgrwt>
<rscale>  2 0.71824677E+03</rscale>
<asrwt>0</asrwt>
<pdfrwt beam="1">  1        2 0.12624915E+00 0.71824677E+03</pdfrwt>
<pdfrwt beam="2">  1       -2 0.34228410E+00 0.71824677E+03</pdfrwt>
<totfact> 0.61501565E-01</totfact>
</mgrwt>
</event>
<event>
 6    1  0.8861680E-004  0.6082283E+03  0.7818608E-02  0.9888481E-01
          1   -1    0    0  502    0  0.00000000000E+00  0.00000000000E+00  0.48082703905E+03  0.48082703905E+03  0.00000000000E+00 0. -1.
         -1   -1    0    0    0  501 -0.00000000000E+00 -0.00000000000E+00 -0.10396261715E+04  0.10396261715E+04  0.00000000000E+00 0.  1.
    9000007    2    1    2  502    0  0.26330274194E+03  0.37749633614E+03 -0.66646422198E+03  0.90124113924E+03  0.39525841441E+03 0.  0.
    9000005    1    3    3    0    0 -0.54163086011E+02  0.31770084915E+02 -0.29792706147E+03  0.30447415676E+03  0.99999687468E+00 0.  0.
          4    1    3    3  502    0  0.31746582796E+03  0.34572625123E+03 -0.36853716051E+03  0.59676698248E+03  0.00000000000E+00 0.  1.
   -9000007    1    1    2    0  501 -0.26330274194E+03 -0.37749633614E+03  0.10766508955E+03  0.61921207128E+03  0.40000000000E+03 0. -1.
<mgrwt>
<rscale>  2 0.60822826E+03</rscale>
<asrwt>0</asrwt>
<pdfrwt beam="1">  1        1 0.73973391E-01 0.60822826E+03</pdfrwt>
<pdfrwt beam="2">  1       -1 0.15994249E+00 0.60822826E+03</pdfrwt>
<totfact> 0.14327878E+01</totfact>
</mgrwt>
</event>
<event>
 6    1  0.8861680E-004  0.7387258E+03  0.7818608E-02  0.9653206E-01
         -2   -1    0    0    0  501 -0.00000000000E+00  0.00000000000E+00  0.32784103468E+03  0.32784103468E+03  0.00000000000E+00 0.  1.
          2   -1    0    0  502    0  0.00000000000E+00 -0.00000000000E+00 -0.27387563647E+04  0.27387563647E+04  0.00000000000E+00 0. -1.
    9000007    2    1    2  502    0 -0.37414200750E+03 -0.49656942854E+03 -0.24462926599E+03  0.77763284081E+03  0.39787676257E+03 0.  0.
    9000005    1    3    3    0    0 -0.18443552485E+03 -0.29473779448E+03 -0.33841594127E+03  0.48519396082E+03  0.99999687468E+00 0.  0.
          4    1    3    3  502    0 -0.18970648266E+03 -0.20183163406E+03  0.93786675279E+02  0.29243887999E+03  0.00000000000E+00 0.  1.
   -9000007    1    1    2    0  501  0.37414200750E+03  0.49656942854E+03 -0.21662860641E+04  0.22889645586E+04  0.40000000000E+03 0. -1.
<mgrwt>
<rscale>  2 0.73872575E+03</rscale>
<asrwt>0</asrwt>
<pdfrwt beam="1">  1        2 0.42134713E+00 0.73872575E+03</pdfrwt>
<pdfrwt beam="2">  1       -2 0.50437083E-01 0.73872575E+03</pdfrwt>
<totfact> 0.98970121E+00</totfact>
</mgrwt>
</event>
<event>
 6    1  0.8861680E-004  0.4451702E+03  0.7818608E-02  0.1029172E+00
         -2   -1    0    0    0  501 -0.00000000000E+00  0.00000000000E+00  0.18524229299E+03  0.18524229299E+03  0.00000000000E+00 0.  1.
          2   -1    0    0  502    0  0.00000000000E+00 -0.00000000000E+00 -0.14840724698E+04  0.14840724698E+04  0.00000000000E+00 0. -1.
    9000007    2    1    2  502    0  0.22606583723E+02  0.19008542604E+03 -0.10921944275E+04  0.11800889870E+04  0.40382895262E+03 0.  0.
    9000005    1    3    3    0    0  0.13769495839E+03  0.16354197393E+02 -0.84710734211E+03  0.85838173931E+03  0.99999687468E+00 0.  0.
          4    1    3    3  502    0 -0.11508837467E+03  0.17373122865E+03 -0.24508708538E+03  0.32170724769E+03  0.00000000000E+00 0.  1.
   -9000007    1    1    2    0  501 -0.22606583723E+02 -0.19008542604E+03 -0.20663574937E+03  0.48922577583E+03  0.40000000000E+03 0.  1.
<mgrwt>
<rscale>  2 0.44517015E+03</rscale>
<asrwt>0</asrwt>
<pdfrwt beam="1">  1        2 0.22831884E+00 0.44517015E+03</pdfrwt>
<pdfrwt beam="2">  1       -2 0.28498814E-01 0.44517015E+03</pdfrwt>
<totfact> 0.15326426E+02</totfact>
</mgrwt>
</event>
<event>
 6    1  0.8861680E-004  0.5011106E+03  0.7818608E-02  0.1013489E+00
          1   -1    0    0  502    0  0.00000000000E+00  0.00000000000E+00  0.84068096609E+03  0.84068096609E+03  0.00000000000E+00 0.  1.
         -1   -1    0    0    0  501 -0.00000000000E+00 -0.00000000000E+00 -0.51177898058E+03  0.51177898058E+03  0.00000000000E+00 0. -1.
    9000007    2    1    2  502    0  0.32474860372E+02  0.29999013882E+03  0.60080102885E+03  0.78239171416E+03  0.40015774161E+03 0.  0.
    9000005    1    3    3    0    0 -0.41986225035E+02  0.63857658504E+02 -0.46423811992E+02  0.89424906799E+02  0.99999687468E+00 0.  0.
          4    1    3    3  502    0  0.74461085407E+02  0.23613248032E+03  0.64722484084E+03  0.69296680736E+03  0.00000000000E+00 0.  1.
   -9000007    1    1    2    0  501 -0.32474860372E+02 -0.29999013882E+03 -0.27189904334E+03  0.57006823251E+03  0.40000000000E+03 0. -1.
<mgrwt>
<rscale>  2 0.50111057E+03</rscale>
<asrwt>0</asrwt>
<pdfrwt beam="1">  1        1 0.12933553E+00 0.50111057E+03</pdfrwt>
<pdfrwt beam="2">  1       -1 0.78735228E-01 0.50111057E+03</pdfrwt>
<totfact> 0.34821152E+01</totfact>
</mgrwt>
</event>
<event>
 6    1  0.8861680E-004  0.4571695E+03  0.7818608E-02  0.1025605E+00
         -1   -1    0    0    0  501 -0.00000000000E+00  0.00000000000E+00  0.45030964313E+03  0.45030964313E+03  0.00000000000E+00 0. -1.
          1   -1    0    0  502    0  0.00000000000E+00 -0.00000000000E+00 -0.51054028695E+03  0.51054028695E+03  0.00000000000E+00 0.  1.
    9000007    2    1    2  502    0  0.22817666134E+02 -0.21993574251E+03 -0.17496631516E+03  0.48962105681E+03  0.40027889167E+03 0.  0.
    9000005    1    3    3    0    0 -0.30285719527E+02  0.10737783400E+03  0.62392739629E+01  0.11174592868E+03  0.99999687468E+00 0.  0.
          4    1    3    3  502    0  0.53103385661E+02 -0.32731357651E+03 -0.18120558912E+03  0.37787512814E+03  0.00000000000E+00 0.  1.
   -9000007    1    1    2    0  501 -0.22817666134E+02  0.21993574251E+03  0.11473567134E+03  0.47122887326E+03  0.40000000000E+03 0. -1.
<mgrwt>
<rscale>  2 0.45716949E+03</rscale>
<asrwt>0</asrwt>
<pdfrwt beam="1">  1        1 0.78544660E-01 0.45716949E+03</pdfrwt>
<pdfrwt beam="2">  1       -1 0.69278406E-01 0.45716949E+03</pdfrwt>
<totfact> 0.94789018E+01</totfact>
</mgrwt>
</event>
<event>
 6    1  0.8861680E-004  0.4354408E+03  0.7818608E-02  0.1032155E+00
         -1   -1    0    0    0  501 -0.00000000000E+00  0.00000000000E+00  0.27047190910E+03  0.27047190910E+03  0.00000000000E+00 0.  1.
          1   -1    0    0  502    0  0.00000000000E+00 -0.00000000000E+00 -0.70112161144E+03  0.70112161144E+03  0.00000000000E+00 0. -1.
    9000007    2    1    2  502    0  0.14832567297E+03  0.91498426995E+02 -0.22038866065E+03  0.48725668211E+03  0.39808974505E+03 0.  0.
    9000005    1    3    3    0    0  0.28168855301E+03  0.10477351510E+03 -0.15242377861E+03  0.33698655558E+03  0.99999687468E+00 0.  0.
          4    1    3    3  502    0 -0.13336288004E+03 -0.13275088109E+02 -0.67964882040E+02  0.15027012653E+03  0.00000000000E+00 0.  1.
   -9000007    1    1    2    0  501 -0.14832567297E+03 -0.91498426995E+02 -0.21026104169E+03  0.48433683843E+03  0.40000000000E+03 0.  1.
<mgrwt>
<rscale>  2 0.43544076E+03</rscale>
<asrwt>0</asrwt>
<pdfrwt beam="1">  1        1 0.10786486E+00 0.43544076E+03</pdfrwt>
<pdfrwt beam="2">  1       -1 0.41611063E-01 0.43544076E+03</pdfrwt>
<totfact> 0.16017868E+02</totfact>
</mgrwt>
</event>
<event>
 6    1  0.8861680E-004  0.4059878E+03  0.7818608E-02  0.1041726E+00
          2   -1    0    0  502    0  0.00000000000E+00  0.00000000000E+00  0.59279859563E+03  0.59279859563E+03  0.00000000000E+00 0. -1.
         -2   -1    0    0    0  501 -0.00000000000E+00 -0.00000000000E+00 -0.37492846354E+03  0.37492846354E+03  0.00000000000E+00 0.  1.
    9000007    2    1    2  502    0  0.79992574841E+01  0.66947764497E+02  0.35496561980E+03  0.53954349568E+03  0.40070013875E+03 0.  0.
    9000005    1    3    3    0    0 -0.75790475518E+02  0.21498889416E+03  0.14865355695E+03  0.27214573445E+03  0.99999687468E+00 0.  0.
          4    1    3    3  502    0  0.83789733002E+02 -0.14804112967E+03  0.20631206285E+03  0.26739776123E+03  0.00000000000E+00 0.  1.
   -9000007    1    1    2    0  501 -0.79992574841E+01 -0.66947764497E+02 -0.13709548772E+03  0.42818356349E+03  0.40000000000E+03 0.  1.
<mgrwt>
<rscale>  2 0.40598775E+03</rscale>
<asrwt>0</asrwt>
<pdfrwt beam="1">  1        2 0.91199784E-01 0.40598775E+03</pdfrwt>
<pdfrwt beam="2">  1       -2 0.57681302E-01 0.40598775E+03</pdfrwt>
<totfact> 0.14639935E+02</totfact>
</mgrwt>
</event>
<event>
 6    1  0.8861680E-004  0.5322414E+03  0.7818608E-02  0.1005690E+00
          3   -1    0    0  502    0  0.00000000000E+00  0.00000000000E+00  0.57109559045E+03  0.57109559045E+03  0.00000000000E+00 0. -1.
         -3   -1    0    0    0  501 -0.00000000000E+00 -0.00000000000E+00 -0.63922685643E+03  0.63922685643E+03  0.00000000000E+00 0.  1.
    9000007    2    1    2  502    0  0.32055429310E+03 -0.14288296316E+03 -0.32049471558E+03  0.62137600900E+03  0.40027576227E+03 0.  0.
    9000005    1    3    3    0    0 -0.71931665043E+01 -0.19917723722E+03 -0.10729243480E+03  0.22635366141E+03  0.99999687468E+00 0.  0.
          4    1    3    3  502    0  0.32774745961E+03  0.56294274064E+02 -0.21320228078E+03  0.39502234759E+03  0.00000000000E+00 0.  1.
   -9000007    1    1    2    0  501 -0.32055429310E+03  0.14288296316E+03  0.25236344961E+03  0.58894643787E+03  0.40000000000E+03 0. -1.
<mgrwt>
<rscale>  2 0.53224141E+03</rscale>
<asrwt>0</asrwt>
<pdfrwt beam="1">  1        3 0.87860860E-01 0.53224141E+03</pdfrwt>
<pdfrwt beam="2">  1       -3 0.98342594E-01 0.53224141E+03</pdfrwt>
<totfact> 0.27987975E+00</totfact>
</mgrwt>
</event>
<event>
 6    1  0.8861680E-004  0.4452611E+03  0.7818608E-02  0.1029145E+00
         -2   -1    0    0    0  501 -0.00000000000E+00  0.00000000000E+00  0.21994170545E+03  0.21994170545E+03  0.00000000000E+00 0. -1.
          2   -1    0    0  502    0  0.00000000000E+00 -0.00000000000E+00 -0.14461573740E+04  0.14461573740E+04  0.00000000000E+00 0.  1.
    9000007    2    1    2  502    0 -0.11191335857E+01 -0.19616874841E+03 -0.10160778759E+03  0.45646015968E+03  0.39943498166E+03 0.  0.
    9000005    1    3    3    0    0 -0.10117052614E+03  0.63374413366E+01  0.10813450851E+03  0.14822182851E+03  0.99999687468E+00 0.  0.
          4    1    3    3  502    0  0.10005139255E+03 -0.20250618974E+03 -0.20974229610E+03  0.30823833118E+03  0.00000000000E+00 0.  1.
   -9000007    1    1    2    0  501  0.11191335857E+01  0.19616874841E+03 -0.11246078810E+04  0.12096389198E+04  0.40000000000E+03 0.  1.
<mgrwt>
<rscale>  2 0.44526111E+03</rscale>
<asrwt>0</asrwt>
<pdfrwt beam="1">  1        2 0.22248575E+00 0.44526111E+03</pdfrwt>
<pdfrwt beam="2">  1       -2 0.33837185E-01 0.44526111E+03</pdfrwt>
<totfact> 0.11702214E+02</totfact>
</mgrwt>
</event>
<event>
 6    1  0.8861680E-004  0.3971817E+03  0.7818608E-02  0.1044760E+00
         -1   -1    0    0    0  501 -0.00000000000E+00  0.00000000000E+00  0.11113830094E+03  0.11113830094E+03  0.00000000000E+00 0.  1.
          1   -1    0    0  502    0  0.00000000000E+00 -0.00000000000E+00 -0.14546329959E+04  0.14546329959E+04  0.00000000000E+00 0. -1.
    9000007    2    1    2  502    0  0.44677189644E+02  0.13547970804E+02 -0.54137284357E+03  0.66823073326E+03  0.38893207418E+03 0.  0.
    9000005    1    3    3    0    0 -0.11630454589E+03 -0.93605102121E+02 -0.40488236452E+03  0.43153144918E+03  0.99999687468E+00 0.  0.
          4    1    3    3  502    0  0.16098173553E+03  0.10715307293E+03 -0.13649047905E+03  0.23669928408E+03  0.00000000000E+00 0.  1.
   -9000007    1    1    2    0  501 -0.44677189644E+02 -0.13547970804E+02 -0.80212185138E+03  0.89754056357E+03  0.40000000000E+03 0. -1.
<mgrwt>
<rscale>  2 0.39718166E+03</rscale>
<asrwt>0</asrwt>
<pdfrwt beam="1">  1        1 0.22378968E+00 0.39718166E+03</pdfrwt>
<pdfrwt beam="2">  1       -1 0.17098201E-01 0.39718166E+03</pdfrwt>
<totfact> 0.19691601E+02</totfact>
</mgrwt>
</event>
<event>
 6    1  0.8861680E-004  0.4143798E+03  0.7818608E-02  0.1038911E+00
          1   -1    0    0  502    0  0.00000000000E+00  0.00000000000E+00  0.18724628523E+04  0.18724628523E+04  0.00000000000E+00 0.  1.
         -1   -1    0    0    0  501 -0.00000000000E+00 -0.00000000000E+00 -0.92014780272E+02  0.92014780272E+02  0.00000000000E+00 0. -1.
    9000007    2    1    2  502    0 -0.10753685285E+03 -0.83949313828E+01  0.83325376753E+03  0.93064413530E+03  0.40018997474E+03 0.  0.
    9000005    1    3    3    0    0  0.46447253312E+01 -0.19073332546E+03  0.29436949661E+03  0.35079221120E+03  0.99999687468E+00 0.  0.
          4    1    3    3  502    0 -0.11218157818E+03  0.18233839408E+03  0.53888427092E+03  0.57985192410E+03  0.00000000000E+00 0.  1.
   -9000007    1    1    2    0  501  0.10753685285E+03  0.83949313828E+01  0.94719430450E+03  0.10338334973E+04  0.40000000000E+03 0. -1.
<mgrwt>
<rscale>  2 0.41437983E+03</rscale>
<asrwt>0</asrwt>
<pdfrwt beam="1">  1        1 0.28807118E+00 0.41437983E+03</pdfrwt>
<pdfrwt beam="2">  1       -1 0.14156121E-01 0.41437983E+03</pdfrwt>
<totfact> 0.14053284E+02</totfact>
</mgrwt>
</event>
<event>
 6    1  0.8861680E-004  0.4876408E+03  0.7818608E-02  0.1017056E+00
         -2   -1    0    0    0  501 -0.00000000000E+00  0.00000000000E+00  0.40864081403E+03  0.40864081403E+03  0.00000000000E+00 0.  1.
          2   -1    0    0  502    0  0.00000000000E+00 -0.00000000000E+00 -0.75601722544E+03  0.75601722544E+03  0.00000000000E+00 0. -1.
    9000007    2    1    2  502    0 -0.27806828106E+03 -0.23770615290E+02  0.10578967414E+03  0.49889042822E+03  0.39976642322E+03 0.  0.
    9000005    1    3    3    0    0 -0.37987854106E+02  0.16750493809E+03 -0.68954862315E+01  0.17189976460E+03  0.99999687468E+00 0.  0.
          4    1    3    3  502    0 -0.24008042696E+03 -0.19127555338E+03  0.11268516037E+03  0.32699066362E+03  0.00000000000E+00 0.  1.
   -9000007    1    1    2    0  501  0.27806828106E+03  0.23770615290E+02 -0.45316608556E+03  0.66576761124E+03  0.40000000000E+03 0. -1.
<mgrwt>
<rscale>  2 0.48764084E+03</rscale>
<asrwt>0</asrwt>
<pdfrwt beam="1">  1        2 0.11631034E+00 0.48764084E+03</pdfrwt>
<pdfrwt beam="2">  1       -2 0.62867817E-01 0.48764084E+03</pdfrwt>
<totfact> 0.90006301E+01</totfact>
</mgrwt>
</event>
<event>
 6    1  0.8861680E-004  0.4515826E+03  0.7818608E-02  0.1027251E+00
         -2   -1    0    0    0  501 -0.00000000000E+00  0.00000000000E+00  0.10787697025E+03  0.10787697025E+03  0.00000000000E+00 0. -1.
          2   -1    0    0  502    0  0.00000000000E+00 -0.00000000000E+00 -0.19950878582E+04  0.19950878582E+04  0.00000000000E+00 0.  1.
    9000007    2    1    2  502    0 -0.20938653408E+03 -0.95662534462E+01 -0.11844922541E+04  0.12676518858E+04  0.39998146155E+03 0.  0.
    9000005    1    3    3    0    0 -0.11009018433E+03 -0.58542023191E+02 -0.61172102028E+02  0.13888860006E+03  0.99999687468E+00 0.  0.
          4    1    3    3  502    0 -0.99296349752E+02  0.48975769745E+02 -0.11233201521E+04  0.11287632857E+04  0.00000000000E+00 0.  1.
   -9000007    1    1    2    0  501  0.20938653408E+03  0.95662534462E+01 -0.70271863376E+03  0.83531294261E+03  0.40000000000E+03 0.  1.
<mgrwt>
<rscale>  2 0.45158257E+03</rscale>
<asrwt>0</asrwt>
<pdfrwt beam="1">  1        2 0.30693657E+00 0.45158257E+03</pdfrwt>
<pdfrwt beam="2">  1       -2 0.16596458E-01 0.45158257E+03</pdfrwt>
<totfact> 0.20995019E+02</totfact>
</mgrwt>
</event>
<event>
 6    1  0.8861680E-004  0.4635954E+03  0.7818608E-02  0.1023744E+00
          2   -1    0    0  502    0  0.00000000000E+00  0.00000000000E+00  0.10659798374E+04  0.10659798374E+04  0.00000000000E+00 0.  1.
         -2   -1    0    0    0  501 -0.00000000000E+00 -0.00000000000E+00 -0.33164354644E+03  0.33164354644E+03  0.00000000000E+00 0. -1.
    9000007    2    1    2  502    0 -0.10990036681E+03 -0.20714764864E+03  0.80469422863E+03  0.92864739475E+03  0.39983114339E+03 0.  0.
    9000005    1    3    3    0    0 -0.94387880206E+02  0.87900443506E+02  0.95865097377E+02  0.16070680380E+03  0.99999687468E+00 0.  0.
          4    1    3    3  502    0 -0.15512486608E+02 -0.29504809214E+03  0.70882913126E+03  0.76794059095E+03  0.00000000000E+00 0.  1.
   -9000007    1    1    2    0  501  0.10990036681E+03  0.20714764864E+03 -0.70357937663E+02  0.46897598910E+03  0.40000000000E+03 0. -1.
<mgrwt>
<rscale>  2 0.46359541E+03</rscale>
<asrwt>0</asrwt>
<pdfrwt beam="1">  1        2 0.16399690E+00 0.46359541E+03</pdfrwt>
<pdfrwt beam="2">  1       -2 0.51022084E-01 0.46359541E+03</pdfrwt>
<totfact> 0.86700668E+01</totfact>
</mgrwt>
</event>
<event>
 6    1  0.8861680E-004  0.4330095E+03  0.7818608E-02  0.1032913E+00
          2   -1    0    0  502    0  0.00000000000E+00  0.00000000000E+00  0.30127252236E+04  0.30127252236E+04  0.00000000000E+00 0.  1.
         -2   -1    0    0    0  501 -0.00000000000E+00 -0.00000000000E+00 -0.65991613485E+02  0.65991613485E+02  0.00000000000E+00 0. -1.
    9000007    2    1    2  502    0 -0.15665520382E+03 -0.54368139147E+02  0.18406408873E+04  0.18908877842E+04  0.40000123620E+03 0.  0.
    9000005    1    3    3    0    0 -0.66511151686E+02  0.13121532624E+03  0.27651802850E+03  0.31321624354E+03  0.99999687468E+00 0.  0.
          4    1    3    3  502    0 -0.90144052136E+02 -0.18558346538E+03  0.15641228588E+04  0.15776715407E+04  0.00000000000E+00 0.  1.
   -9000007    1    1    2    0  501  0.15665520382E+03  0.54368139147E+02  0.11060927228E+04  0.11878290529E+04  0.40000000000E+03 0. -1.
<mgrwt>
<rscale>  2 0.43300952E+03</rscale>
<asrwt>0</asrwt>
<pdfrwt beam="1">  1        2 0.46349608E+00 0.43300952E+03</pdfrwt>
<pdfrwt beam="2">  1       -2 0.10152558E-01 0.43300952E+03</pdfrwt>
<totfact> 0.12720490E+02</totfact>
</mgrwt>
</event>
<event>
 6    1  0.8861680E-004  0.4991528E+03  0.7818608E-02  0.1014000E+00
          2   -1    0    0  502    0  0.00000000000E+00  0.00000000000E+00  0.11071088382E+04  0.11071088382E+04  0.00000000000E+00 0. -1.
         -2   -1    0    0    0  501 -0.00000000000E+00 -0.00000000000E+00 -0.25183089358E+03  0.25183089358E+03  0.00000000000E+00 0.  1.
    9000007    2    1    2  502    0  0.16767198991E+03  0.24734651266E+03  0.64911487316E+03  0.81875697979E+03  0.39964819513E+03 0.  0.
    9000005    1    3    3    0    0  0.38868157693E+02  0.33762356921E+03  0.40993374320E+03  0.53249139146E+03  0.99999687468E+00 0.  0.
          4    1    3    3  502    0  0.12880383221E+03 -0.90277056549E+02  0.23918112997E+03  0.28626558833E+03  0.00000000000E+00 0.  1.
   -9000007    1    1    2    0  501 -0.16767198991E+03 -0.24734651266E+03  0.20616307148E+03  0.54018275201E+03  0.40000000000E+03 0.  1.
<mgrwt>
<rscale>  2 0.49915278E+03</rscale>
<asrwt>0</asrwt>
<pdfrwt beam="1">  1        2 0.17032443E+00 0.49915278E+03</pdfrwt>
<pdfrwt beam="2">  1       -2 0.38743215E-01 0.49915278E+03</pdfrwt>
<totfact> 0.14047975E+02</totfact>
</mgrwt>
</event>
<event>
 6    1  0.8861680E-004  0.4242093E+03  0.7818608E-02  0.1035705E+00
         -1   -1    0    0    0  501 -0.00000000000E+00  0.00000000000E+00  0.27448315995E+03  0.27448315995E+03  0.00000000000E+00 0.  1.
          1   -1    0    0  502    0  0.00000000000E+00 -0.00000000000E+00 -0.78719005328E+03  0.78719005328E+03  0.00000000000E+00 0. -1.
    9000007    2    1    2  502    0 -0.76996919191E+02  0.11864603001E+03 -0.47335193151E+03  0.63558141675E+03  0.39987032930E+03 0.  0.
    9000005    1    3    3    0    0  0.63829768981E+02  0.23339546795E+03 -0.28588854054E+03  0.37454097436E+03  0.99999687468E+00 0.  0.
          4    1    3    3  502    0 -0.14082668817E+03 -0.11474943795E+03 -0.18746339097E+03  0.26104044239E+03  0.00000000000E+00 0.  1.
   -9000007    1    1    2    0  501  0.76996919191E+02 -0.11864603001E+03 -0.39354961828E+02  0.42609179647E+03  0.40000000000E+03 0.  1.
<mgrwt>
<rscale>  2 0.42420931E+03</rscale>
<asrwt>0</asrwt>
<pdfrwt beam="1">  1        1 0.12110616E+00 0.42420931E+03</pdfrwt>
<pdfrwt beam="2">  1       -1 0.42228179E-01 0.42420931E+03</pdfrwt>
<totfact> 0.13093185E+02</totfact>
</mgrwt>
</event>
<event>
 6    1  0.8861680E-004  0.4950173E+03  0.7818608E-02  0.1015088E+00
          2   -1    0    0  502    0  0.00000000000E+00  0.00000000000E+00  0.10879601110E+04  0.10879601110E+04  0.00000000000E+00 0. -1.
         -2   -1    0    0    0  501 -0.00000000000E+00 -0.00000000000E+00 -0.24583081152E+03  0.24583081152E+03  0.00000000000E+00 0.  1.
    9000007    2    1    2  502    0 -0.23378749251E+03  0.17466882449E+03  0.22791602463E+03  0.54485256186E+03  0.39969089304E+03 0.  0.
    9000005    1    3    3    0    0 -0.16934589138E+03  0.28736846935E+03  0.24506240303E+03  0.41390246373E+03  0.99999687468E+00 0.  0.
          4    1    3    3  502    0 -0.64441601129E+02 -0.11269964486E+03 -0.17146378401E+02  0.13095009813E+03  0.00000000000E+00 0.  1.
   -9000007    1    1    2    0  501  0.23378749251E+03 -0.17466882449E+03  0.61421327481E+03  0.78893836062E+03  0.40000000000E+03 0. -1.
<mgrwt>
<rscale>  2 0.49501734E+03</rscale>
<asrwt>0</asrwt>
<pdfrwt beam="1">  1        2 0.16737848E+00 0.49501734E+03</pdfrwt>
<pdfrwt beam="2">  1       -2 0.37820126E-01 0.49501734E+03</pdfrwt>
<totfact> 0.15117751E+02</totfact>
</mgrwt>
</event>
<event>
 6    1  0.8861680E-004  0.4381346E+03  0.7818608E-02  0.1031321E+00
         -1   -1    0    0    0  501 -0.00000000000E+00  0.00000000000E+00  0.52017087215E+03  0.52017087215E+03  0.00000000000E+00 0.  1.
          1   -1    0    0  502    0  0.00000000000E+00 -0.00000000000E+00 -0.37528737999E+03  0.37528737999E+03  0.00000000000E+00 0. -1.
    9000007    2    1    2  502    0 -0.17514894634E+03 -0.26812845855E+02  0.14765972594E+02  0.43903010774E+03  0.40141414954E+03 0.  0.
    9000005    1    3    3    0    0 -0.25377941387E+03  0.88266024366E+02 -0.67691343938E+02  0.27708843353E+03  0.99999687468E+00 0.  0.
          4    1    3    3  502    0  0.78630467531E+02 -0.11507887022E+03  0.82457316532E+02  0.16194167421E+03  0.00000000000E+00 0.  1.
   -9000007    1    1    2    0  501  0.17514894634E+03  0.26812845855E+02  0.13011751957E+03  0.45642814440E+03  0.40000000000E+03 0.  1.
<mgrwt>
<rscale>  2 0.43813457E+03</rscale>
<asrwt>0</asrwt>
<pdfrwt beam="1">  1        1 0.57736520E-01 0.43813457E+03</pdfrwt>
<pdfrwt beam="2">  1       -1 0.80026289E-01 0.43813457E+03</pdfrwt>
<totfact> 0.10613143E+02</totfact>
</mgrwt>
</event>
<event>
 6    1  0.8861680E-004  0.5173579E+03  0.7818608E-02  0.1009345E+00
          2   -1    0    0  502    0  0.00000000000E+00  0.00000000000E+00  0.97245950087E+03  0.97245950087E+03  0.00000000000E+00 0.  1.
         -2   -1    0    0    0  501 -0.00000000000E+00 -0.00000000000E+00 -0.28215491308E+03  0.28215491308E+03  0.00000000000E+00 0. -1.
    9000007    2    1    2  502    0 -0.29337058482E+03 -0.16579674397E+03  0.24351401471E+03  0.56673602605E+03  0.38514385302E+03 0.  0.
    9000005    1    3    3    0    0 -0.16861095622E+03  0.53811879155E+02  0.25898832038E+03  0.31368985157E+03  0.99999687468E+00 0.  0.
          4    1    3    3  502    0 -0.12475962860E+03 -0.21960862313E+03 -0.15474305670E+02  0.25304617448E+03  0.00000000000E+00 0.  1.
   -9000007    1    1    2    0  501  0.29337058482E+03  0.16579674397E+03  0.44679057308E+03  0.68787838791E+03  0.40000000000E+03 0.  1.
<mgrwt>
<rscale>  2 0.51735793E+03</rscale>
<asrwt>0</asrwt>
<pdfrwt beam="1">  1        2 0.14960915E+00 0.51735793E+03</pdfrwt>
<pdfrwt beam="2">  1       -2 0.43408449E-01 0.51735793E+03</pdfrwt>
<totfact> 0.13614710E+02</totfact>
</mgrwt>
</event>
<event>
 6    1  0.8861680E-004  0.4362373E+03  0.7818608E-02  0.1031908E+00
         -2   -1    0    0    0  501 -0.00000000000E+00  0.00000000000E+00  0.72379963223E+03  0.72379963223E+03  0.00000000000E+00 0.  1.
          2   -1    0    0  502    0  0.00000000000E+00 -0.00000000000E+00 -0.51706325229E+03  0.51706325229E+03  0.00000000000E+00 0. -1.
    9000007    2    1    2  502    0 -0.12751280756E+03  0.12054054287E+03  0.53827057700E+03  0.69249762086E+03  0.39878340270E+03 0.  0.
    9000005    1    3    3    0    0  0.41526359061E+02 -0.75460897854E+02  0.37883979078E+03  0.38850916678E+03  0.99999687468E+00 0.  0.
          4    1    3    3  502    0 -0.16903916663E+03  0.19600144072E+03  0.15943078622E+03  0.30398845408E+03  0.00000000000E+00 0.  1.
   -9000007    1    1    2    0  501  0.12751280756E+03 -0.12054054287E+03 -0.33153419706E+03  0.54836526366E+03  0.40000000000E+03 0. -1.
<mgrwt>
<rscale>  2 0.43623734E+03</rscale>
<asrwt>0</asrwt>
<pdfrwt beam="1">  1        2 0.79548193E-01 0.43623734E+03</pdfrwt>
<pdfrwt beam="2">  1       -2 0.11135379E+00 0.43623734E+03</pdfrwt>
<totfact> 0.39362055E+01</totfact>
</mgrwt>
</event>
<event>
 6    1  0.8861680E-004  0.4336925E+03  0.7818608E-02  0.1032700E+00
          1   -1    0    0  502    0  0.00000000000E+00  0.00000000000E+00  0.11085568332E+04  0.11085568332E+04  0.00000000000E+00 0. -1.
         -1   -1    0    0    0  501 -0.00000000000E+00 -0.00000000000E+00 -0.19243475244E+03  0.19243475244E+03  0.00000000000E+00 0.  1.
    9000007    2    1    2  502    0  0.13346072725E+03  0.99824397965E+02  0.68212972820E+03  0.80851915268E+03  0.40078120965E+03 0.  0.
    9000005    1    3    3    0    0  0.23635904380E+03 -0.56295922769E+02  0.43961704326E+03  0.50229371211E+03  0.99999687468E+00 0.  0.
          4    1    3    3  502    0 -0.10289831655E+03  0.15612032073E+03  0.24251268495E+03  0.30622544058E+03  0.00000000000E+00 0.  1.
   -9000007    1    1    2    0  501 -0.13346072725E+03 -0.99824397965E+02  0.23399235254E+03  0.49247243293E+03  0.40000000000E+03 0.  1.
<mgrwt>
<rscale>  2 0.43369252E+03</rscale>
<asrwt>0</asrwt>
<pdfrwt beam="1">  1        1 0.17054720E+00 0.43369252E+03</pdfrwt>
<pdfrwt beam="2">  1       -1 0.29605347E-01 0.43369252E+03</pdfrwt>
<totfact> 0.13691239E+02</totfact>
</mgrwt>
</event>
<event>
 6    1  0.8861680E-004  0.4049563E+03  0.7818608E-02  0.1042077E+00
         -1   -1    0    0    0  501 -0.00000000000E+00  0.00000000000E+00  0.21435780430E+03  0.21435780430E+03  0.00000000000E+00 0. -1.
          1   -1    0    0  502    0  0.00000000000E+00 -0.00000000000E+00 -0.84504938719E+03  0.84504938719E+03  0.00000000000E+00 0.  1.
    9000007    2    1    2  502    0  0.52380182494E+01  0.63901425212E+02 -0.15223691780E+03  0.43248638667E+03  0.39969684328E+03 0.  0.
    9000005    1    3    3    0    0 -0.12200961375E+03  0.17951877307E+03 -0.24784079158E+02  0.21846873073E+03  0.99999687468E+00 0.  0.
          4    1    3    3  502    0  0.12724763200E+03 -0.11561734786E+03 -0.12745283864E+03  0.21401765594E+03  0.00000000000E+00 0.  1.
   -9000007    1    1    2    0  501 -0.52380182494E+01 -0.63901425212E+02 -0.47845466509E+03  0.62692080482E+03  0.40000000000E+03 0.  1.
<mgrwt>
<rscale>  2 0.40495625E+03</rscale>
<asrwt>0</asrwt>
<pdfrwt beam="1">  1        1 0.13000760E+00 0.40495625E+03</pdfrwt>
<pdfrwt beam="2">  1       -1 0.32978124E-01 0.40495625E+03</pdfrwt>
<totfact> 0.18209190E+02</totfact>
</mgrwt>
</event>
<event>
 6    1  0.8861680E-004  0.4731766E+03  0.7818608E-02  0.1021027E+00
         -2   -1    0    0    0  501 -0.00000000000E+00  0.00000000000E+00  0.22567977268E+03  0.22567977268E+03  0.00000000000E+00 0. -1.
          2   -1    0    0  502    0  0.00000000000E+00 -0.00000000000E+00 -0.99337332686E+03  0.99337332686E+03  0.00000000000E+00 0.  1.
    9000007    2    1    2  502    0 -0.20524812791E+03  0.14752151450E+03 -0.36199749284E+03  0.59577251631E+03  0.40001664356E+03 0.  0.
    9000005    1    3    3    0    0 -0.16710806585E+03  0.11512172613E+03  0.25978324040E+02  0.20458247924E+03  0.99999687468E+00 0.  0.
          4    1    3    3  502    0 -0.38140062059E+02  0.32399788368E+02 -0.38797581688E+03  0.39119003707E+03  0.00000000000E+00 0.  1.
   -9000007    1    1    2    0  501  0.20524812791E+03 -0.14752151450E+03 -0.40569606134E+03  0.62328058323E+03  0.40000000000E+03 0. -1.
<mgrwt>
<rscale>  2 0.47317655E+03</rscale>
<asrwt>0</asrwt>
<pdfrwt beam="1">  1        2 0.15282666E+00 0.47317655E+03</pdfrwt>
<pdfrwt beam="2">  1       -2 0.34719965E-01 0.47317655E+03</pdfrwt>
<totfact> 0.20391854E+02</totfact>
</mgrwt>
</event>
<event>
 6    1  0.8861680E-004  0.4595488E+03  0.7818608E-02  0.1024912E+00
         -2   -1    0    0    0  501 -0.00000000000E+00  0.00000000000E+00  0.35235830396E+03  0.35235830396E+03  0.00000000000E+00 0. -1.
          2   -1    0    0  502    0  0.00000000000E+00 -0.00000000000E+00 -0.59939992087E+03  0.59939992087E+03  0.00000000000E+00 0.  1.
    9000007    2    1    2  502    0  0.55878442208E+00  0.22669897613E+03 -0.11902167454E+03  0.47449326313E+03  0.39948086278E+03 0.  0.
    9000005    1    3    3    0    0 -0.16359365988E+03  0.19097071616E+03  0.25679007074E+02  0.25277086735E+03  0.99999687468E+00 0.  0.
          4    1    3    3  502    0  0.16415244430E+03  0.35728259971E+02 -0.14470068162E+03  0.22172239578E+03  0.00000000000E+00 0.  1.
   -9000007    1    1    2    0  501 -0.55878442208E+00 -0.22669897613E+03 -0.12801994236E+03  0.47726496170E+03  0.40000000000E+03 0.  1.
<mgrwt>
<rscale>  2 0.45954882E+03</rscale>
<asrwt>0</asrwt>
<pdfrwt beam="1">  1        2 0.92215372E-01 0.45954882E+03</pdfrwt>
<pdfrwt beam="2">  1       -2 0.54208970E-01 0.45954882E+03</pdfrwt>
<totfact> 0.16354188E+02</totfact>
</mgrwt>
</event>
<event>
 6    1  0.8861680E-004  0.6099452E+03  0.7818608E-02  0.9884985E-01
          2   -1    0    0  502    0  0.00000000000E+00  0.00000000000E+00  0.15827470018E+04  0.15827470018E+04  0.00000000000E+00 0.  1.
         -2   -1    0    0    0  501 -0.00000000000E+00 -0.00000000000E+00 -0.31890099140E+03  0.31890099140E+03  0.00000000000E+00 0. -1.
    9000007    2    1    2  502    0 -0.35852771233E+03  0.28903647250E+03  0.11194334818E+04  0.12747993820E+04  0.39987240607E+03 0.  0.
    9000005    1    3    3    0    0 -0.26799079614E+03  0.38767444157E+03  0.80097195257E+03  0.92933718760E+03  0.99999687468E+00 0.  0.
          4    1    3    3  502    0 -0.90536916195E+02 -0.98637969064E+02  0.31846152924E+03  0.34546219437E+03  0.00000000000E+00 0.  1.
   -9000007    1    1    2    0  501  0.35852771233E+03 -0.28903647250E+03  0.14441252856E+03  0.62684861119E+03  0.40000000000E+03 0. -1.
<mgrwt>
<rscale>  2 0.60994522E+03</rscale>
<asrwt>0</asrwt>
<pdfrwt beam="1">  1        2 0.24349953E+00 0.60994522E+03</pdfrwt>
<pdfrwt beam="2">  1       -2 0.49061692E-01 0.60994522E+03</pdfrwt>
<totfact> 0.46679175E+01</totfact>
</mgrwt>
</event>
<event>
 6    1  0.8861680E-004  0.4451856E+03  0.7818608E-02  0.1029168E+00
         -2   -1    0    0    0  501 -0.00000000000E+00  0.00000000000E+00  0.26638436344E+03  0.26638436344E+03  0.00000000000E+00 0. -1.
          2   -1    0    0  502    0  0.00000000000E+00 -0.00000000000E+00 -0.74491026554E+03  0.74491026554E+03  0.00000000000E+00 0.  1.
    9000007    2    1    2  502    0  0.14925375294E+03  0.10847442130E+03 -0.25862759281E+03  0.51895465572E+03  0.41034414835E+03 0.  0.
    9000005    1    3    3    0    0  0.24558402019E+03  0.10367668634E+03 -0.31066855018E+03  0.40936086077E+03  0.99999687468E+00 0.  0.
          4    1    3    3  502    0 -0.96330267247E+02  0.47977349634E+01  0.52040957369E+02  0.10959379495E+03  0.00000000000E+00 0.  1.
   -9000007    1    1    2    0  501 -0.14925375294E+03 -0.10847442130E+03 -0.21989830929E+03  0.49233997326E+03  0.40000000000E+03 0. -1.
<mgrwt>
<rscale>  2 0.44518562E+03</rscale>
<asrwt>0</asrwt>
<pdfrwt beam="1">  1        2 0.11460158E+00 0.44518562E+03</pdfrwt>
<pdfrwt beam="2">  1       -2 0.40982209E-01 0.44518562E+03</pdfrwt>
<totfact> 0.21927596E+02</totfact>
</mgrwt>
</event>
<event>
 6    1  0.8861680E-004  0.4091168E+03  0.7818608E-02  0.1040668E+00
          2   -1    0    0  502    0  0.00000000000E+00  0.00000000000E+00  0.23711268257E+04  0.23711268257E+04  0.00000000000E+00 0. -1.
         -2   -1    0    0    0  501 -0.00000000000E+00 -0.00000000000E+00 -0.70971646238E+02  0.70971646238E+02  0.00000000000E+00 0.  1.
    9000007    2    1    2  502    0  0.30607312793E+02 -0.80269487258E+02  0.10604595759E+04  0.11366387109E+04  0.39999131094E+03 0.  0.
    9000005    1    3    3    0    0  0.10773950348E+03 -0.21295329435E+03  0.79452975764E+03  0.82959956723E+03  0.99999687468E+00 0.  0.
          4    1    3    3  502    0 -0.77132190686E+02  0.13268380709E+03  0.26592981822E+03  0.30703914363E+03  0.00000000000E+00 0.  1.
   -9000007    1    1    2    0  501 -0.30607312793E+02  0.80269487258E+02  0.12396956036E+04  0.13054597610E+04  0.40000000000E+03 0.  1.
<mgrwt>
<rscale>  2 0.40911676E+03</rscale>
<asrwt>0</asrwt>
<pdfrwt beam="1">  1        2 0.36478868E+00 0.40911676E+03</pdfrwt>
<pdfrwt beam="2">  1       -2 0.10918717E-01 0.40911676E+03</pdfrwt>
<totfact> 0.26470130E+02</totfact>
</mgrwt>
</event>
<event>
 6    1  0.8861680E-004  0.4542646E+03  0.7818608E-02  0.1026458E+00
         -2   -1    0    0    0  501 -0.00000000000E+00  0.00000000000E+00  0.44628419987E+03  0.44628419987E+03  0.00000000000E+00 0. -1.
          2   -1    0    0  502    0  0.00000000000E+00 -0.00000000000E+00 -0.49879751558E+03  0.49879751558E+03  0.00000000000E+00 0.  1.
    9000007    2    1    2  502    0  0.20562468468E+03  0.63475120710E+02  0.10140984987E+03  0.46549549505E+03  0.40011435411E+03 0.  0.
    9000005    1    3    3    0    0 -0.32547167044E+02  0.90064340783E+02  0.18775014096E+03  0.21076531732E+03  0.99999687468E+00 0.  0.
          4    1    3    3  502    0  0.23817185172E+03 -0.26589220073E+02 -0.86340291092E+02  0.25473017772E+03  0.00000000000E+00 0.  1.
   -9000007    1    1    2    0  501 -0.20562468468E+03 -0.63475120710E+02 -0.15392316557E+03  0.47958622040E+03  0.40000000000E+03 0. -1.
<mgrwt>
<rscale>  2 0.45426462E+03</rscale>
<asrwt>0</asrwt>
<pdfrwt beam="1">  1        2 0.76738080E-01 0.45426462E+03</pdfrwt>
<pdfrwt beam="2">  1       -2 0.68659107E-01 0.45426462E+03</pdfrwt>
<totfact> 0.12324626E+02</totfact>
</mgrwt>
</event>
<event>
 6    1  0.8861680E-004  0.4659897E+03  0.7818608E-02  0.1023058E+00
          2   -1    0    0  502    0  0.00000000000E+00  0.00000000000E+00  0.26431625110E+04  0.26431625110E+04  0.00000000000E+00 0.  1.
         -2   -1    0    0    0  501 -0.00000000000E+00 -0.00000000000E+00 -0.83135780923E+02  0.83135780923E+02  0.00000000000E+00 0. -1.
    9000007    2    1    2  502    0  0.12016029938E+03  0.20569204548E+03  0.14293044307E+04  0.15034816117E+04  0.40099636653E+03 0.  0.
    9000005    1    3    3    0    0 -0.78908113768E+02  0.11600348308E+03  0.14886785671E+03  0.20456279539E+03  0.99999687468E+00 0.  0.
          4    1    3    3  502    0  0.19906841315E+03  0.89688562406E+02  0.12804365740E+04  0.12989188163E+04  0.00000000000E+00 0.  1.
   -9000007    1    1    2    0  501 -0.12016029938E+03 -0.20569204548E+03  0.11307222994E+04  0.12228166802E+04  0.40000000000E+03 0.  1.
<mgrwt>
<rscale>  2 0.46598969E+03</rscale>
<asrwt>0</asrwt>
<pdfrwt beam="1">  1        2 0.40664032E+00 0.46598969E+03</pdfrwt>
<pdfrwt beam="2">  1       -2 0.12790122E-01 0.46598969E+03</pdfrwt>
<totfact> 0.14264467E+02</totfact>
</mgrwt>
</event>
<event>
 6    1  0.8861680E-004  0.4295997E+03  0.7818608E-02  0.1033986E+00
         -1   -1    0    0    0  501 -0.00000000000E+00  0.00000000000E+00  0.95543568182E+02  0.95543568182E+02  0.00000000000E+00 0.  1.
          1   -1    0    0  502    0  0.00000000000E+00 -0.00000000000E+00 -0.20562416149E+04  0.20562416149E+04  0.00000000000E+00 0. -1.
    9000007    2    1    2  502    0 -0.15133961803E+03  0.38214762569E+02 -0.71598356903E+03  0.83509304783E+03  0.40047956171E+03 0.  0.
    9000005    1    3    3    0    0 -0.15849572220E+03 -0.16280077534E+03 -0.41403311737E+03  0.47228106958E+03  0.99999687468E+00 0.  0.
          4    1    3    3  502    0  0.71561041794E+01  0.20101553791E+03 -0.30195045166E+03  0.36281197825E+03  0.00000000000E+00 0.  1.
   -9000007    1    1    2    0  501  0.15133961803E+03 -0.38214762569E+02 -0.12447144777E+04  0.13166921352E+04  0.40000000000E+03 0. -1.
<mgrwt>
<rscale>  2 0.42959968E+03</rscale>
<asrwt>0</asrwt>
<pdfrwt beam="1">  1        1 0.31634488E+00 0.42959968E+03</pdfrwt>
<pdfrwt beam="2">  1       -1 0.14699010E-01 0.42959968E+03</pdfrwt>
<totfact> 0.99879204E+01</totfact>
</mgrwt>
</event>
<event>
 6    1  0.8861680E-004  0.4592106E+03  0.7818608E-02  0.1025010E+00
          1   -1    0    0  502    0  0.00000000000E+00  0.00000000000E+00  0.10457597988E+04  0.10457597988E+04  0.00000000000E+00 0. -1.
         -1   -1    0    0    0  501 -0.00000000000E+00 -0.00000000000E+00 -0.20519327627E+03  0.20519327627E+03  0.00000000000E+00 0.  1.
    9000007    2    1    2  502    0 -0.31564357450E+02  0.22356113281E+03  0.33795695772E+03  0.57007697518E+03  0.39974612392E+03 0.  0.
    9000005    1    3    3    0    0  0.14947736973E+03  0.15983459009E+03  0.30492106529E+03  0.37532444139E+03  0.99999687468E+00 0.  0.
          4    1    3    3  502    0 -0.18104172718E+03  0.63726542720E+02  0.33035892431E+02  0.19475253379E+03  0.00000000000E+00 0.  1.
   -9000007    1    1    2    0  501  0.31564357450E+02 -0.22356113281E+03  0.50260956478E+03  0.68087609987E+03  0.40000000000E+03 0. -1.
<mgrwt>
<rscale>  2 0.45921057E+03</rscale>
<asrwt>0</asrwt>
<pdfrwt beam="1">  1        1 0.16088612E+00 0.45921057E+03</pdfrwt>
<pdfrwt beam="2">  1       -1 0.31568197E-01 0.45921057E+03</pdfrwt>
<totfact> 0.13593041E+02</totfact>
</mgrwt>
</event>
<event>
 6    1  0.8861680E-004  0.4249315E+03  0.7818608E-02  0.1035473E+00
         -2   -1    0    0    0  501 -0.00000000000E+00  0.00000000000E+00  0.97891063532E+02  0.97891063532E+02  0.00000000000E+00 0.  1.
          2   -1    0    0  502    0  0.00000000000E+00 -0.00000000000E+00 -0.20746595697E+04  0.20746595697E+04  0.00000000000E+00 0. -1.
    9000007    2    1    2  502    0 -0.72153766446E+02  0.12597118070E+03 -0.13489027502E+04  0.14140716870E+04  0.39872948483E+03 0.  0.
    9000005    1    3    3    0    0  0.10966675356E+03 -0.31021932927E+02 -0.87869315056E+03  0.88605406719E+03  0.99999687468E+00 0.  0.
          4    1    3    3  502    0 -0.18182052000E+03  0.15699311363E+03 -0.47020959962E+03  0.52801761978E+03  0.00000000000E+00 0.  1.
   -9000007    1    1    2    0  501  0.72153766446E+02 -0.12597118070E+03 -0.62786575600E+03  0.75847894628E+03  0.40000000000E+03 0.  1.
<mgrwt>
<rscale>  2 0.42493152E+03</rscale>
<asrwt>0</asrwt>
<pdfrwt beam="1">  1        2 0.31917838E+00 0.42493152E+03</pdfrwt>
<pdfrwt beam="2">  1       -2 0.15060164E-01 0.42493152E+03</pdfrwt>
<totfact> 0.22502614E+02</totfact>
</mgrwt>
</event>
<event>
 6    1  0.8861680E-004  0.4882678E+03  0.7818608E-02  0.1016887E+00
          3   -1    0    0  502    0  0.00000000000E+00  0.00000000000E+00  0.62611037955E+03  0.62611037955E+03  0.00000000000E+00 0.  1.
         -3   -1    0    0    0  501 -0.00000000000E+00 -0.00000000000E+00 -0.38365489212E+03  0.38365489212E+03  0.00000000000E+00 0. -1.
    9000007    2    1    2  502    0 -0.40282442219E+02 -0.27689170714E+03  0.77492999798E+02  0.49449416345E+03  0.40028442392E+03 0.  0.
    9000005    1    3    3    0    0 -0.58597152572E+02 -0.68740740351E+02 -0.15655176404E+03  0.18074393625E+03  0.99999687468E+00 0.  0.
          4    1    3    3  502    0  0.18314710354E+02 -0.20815096679E+03  0.23404476384E+03  0.31375022720E+03  0.00000000000E+00 0.  1.
   -9000007    1    1    2    0  501  0.40282442219E+02  0.27689170714E+03  0.16496248763E+03  0.51527110821E+03  0.40000000000E+03 0.  1.
<mgrwt>
<rscale>  2 0.48826783E+03</rscale>
<asrwt>0</asrwt>
<pdfrwt beam="1">  1        3 0.96324674E-01 0.48826783E+03</pdfrwt>
<pdfrwt beam="2">  1       -3 0.59023829E-01 0.48826783E+03</pdfrwt>
<totfact> 0.70061723E+00</totfact>
</mgrwt>
</event>
<event>
 6    1  0.8861680E-004  0.4385299E+03  0.7818608E-02  0.1031199E+00
         -2   -1    0    0    0  501 -0.00000000000E+00  0.00000000000E+00  0.10157663463E+03  0.10157663463E+03  0.00000000000E+00 0. -1.
          2   -1    0    0  502    0  0.00000000000E+00 -0.00000000000E+00 -0.23673909479E+04  0.23673909479E+04  0.00000000000E+00 0.  1.
    9000007    2    1    2  502    0  0.17962003030E+03  0.58136451101E+01 -0.16854065830E+04  0.17415266659E+04  0.40002827954E+03 0.  0.
    9000005    1    3    3    0    0  0.13574314615E+03 -0.18930379162E+03 -0.76679733754E+03  0.80139957830E+03  0.99999687468E+00 0.  0.
          4    1    3    3  502    0  0.43876884151E+02  0.19511743673E+03 -0.91860924546E+03  0.94012708765E+03  0.00000000000E+00 0.  1.
   -9000007    1    1    2    0  501 -0.17962003030E+03 -0.58136451101E+01 -0.58040773024E+03  0.72744091655E+03  0.40000000000E+03 0. -1.
<mgrwt>
<rscale>  2 0.43852989E+03</rscale>
<asrwt>0</asrwt>
<pdfrwt beam="1">  1        2 0.36421398E+00 0.43852989E+03</pdfrwt>
<pdfrwt beam="2">  1       -2 0.15627175E-01 0.43852989E+03</pdfrwt>
<totfact> 0.14639385E+02</totfact>
</mgrwt>
</event>
<event>
 6    1  0.8861680E-004  0.4487262E+03  0.7818608E-02  0.1028103E+00
         -1   -1    0    0    0  501 -0.00000000000E+00  0.00000000000E+00  0.40780248423E+03  0.40780248423E+03  0.00000000000E+00 0.  1.
          1   -1    0    0  502    0  0.00000000000E+00 -0.00000000000E+00 -0.49572207306E+03  0.49572207306E+03  0.00000000000E+00 0. -1.
    9000007    2    1    2  502    0 -0.43365587062E+02  0.20035006612E+03 -0.15452305578E+02  0.44825295673E+03  0.39833555746E+03 0.  0.
    9000005    1    3    3    0    0  0.15444240296E+03 -0.15174627021E+02  0.18876062106E+01  0.15520079958E+03  0.99999687468E+00 0.  0.
          4    1    3    3  502    0 -0.19780799003E+03  0.21552469314E+03 -0.17339911789E+02  0.29305215715E+03  0.00000000000E+00 0.  1.
   -9000007    1    1    2    0  501  0.43365587062E+02 -0.20035006612E+03 -0.72467283259E+02  0.45527160056E+03  0.40000000000E+03 0. -1.
<mgrwt>
<rscale>  2 0.44872624E+03</rscale>
<asrwt>0</asrwt>
<pdfrwt beam="1">  1        1 0.76264934E-01 0.44872624E+03</pdfrwt>
<pdfrwt beam="2">  1       -1 0.62738844E-01 0.44872624E+03</pdfrwt>
<totfact> 0.12035804E+02</totfact>
</mgrwt>
</event>
<event>
 6    1  0.8861680E-004  0.4244830E+03  0.7818608E-02  0.1035617E+00
         -2   -1    0    0    0  501 -0.00000000000E+00  0.00000000000E+00  0.26335389732E+03  0.26335389732E+03  0.00000000000E+00 0.  1.
          2   -1    0    0  502    0  0.00000000000E+00 -0.00000000000E+00 -0.68519155154E+03  0.68519155154E+03  0.00000000000E+00 0. -1.
    9000007    2    1    2  502    0 -0.13738068227E+03 -0.31639211243E+02 -0.19303289078E+03  0.46664700383E+03  0.40077828997E+03 0.  0.
    9000005    1    3    3    0    0 -0.16028024480E+03  0.14799019782E+03 -0.18391250099E+03  0.28533430137E+03  0.99999687468E+00 0.  0.
          4    1    3    3  502    0  0.22899562531E+02 -0.17962940906E+03 -0.91203897884E+01  0.18131270246E+03  0.00000000000E+00 0.  1.
   -9000007    1    1    2    0  501  0.13738068227E+03  0.31639211243E+02 -0.22880476344E+03  0.48189844503E+03  0.40000000000E+03 0. -1.
<mgrwt>
<rscale>  2 0.42448303E+03</rscale>
<asrwt>0</asrwt>
<pdfrwt beam="1">  1        2 0.10541408E+00 0.42448303E+03</pdfrwt>
<pdfrwt beam="2">  1       -2 0.40515985E-01 0.42448303E+03</pdfrwt>
<totfact> 0.24924124E+02</totfact>
</mgrwt>
</event>
<event>
 6    1  0.8861680E-004  0.6814726E+03  0.7818608E-02  0.9749452E-01
          1   -1    0    0  502    0  0.00000000000E+00  0.00000000000E+00  0.40847834000E+03  0.40847834000E+03  0.00000000000E+00 0. -1.
         -1   -1    0    0    0  501 -0.00000000000E+00 -0.00000000000E+00 -0.16220575141E+04  0.16220575141E+04  0.00000000000E+00 0.  1.
    9000007    2    1    2  502    0 -0.43941068410E+03 -0.33343307293E+03 -0.51614047312E+02  0.68353091005E+03  0.40036374923E+03 0.  0.
    9000005    1    3    3    0    0 -0.81532254242E+02 -0.23845210437E+03  0.11559977094E+03  0.27725659883E+03  0.99999687468E+00 0.  0.
          4    1    3    3  502    0 -0.35787842985E+03 -0.94980968552E+02 -0.16721381825E+03  0.40627431122E+03  0.00000000000E+00 0.  1.
   -9000007    1    1    2    0  501  0.43941068410E+03  0.33343307293E+03 -0.11619651268E+04  0.13470049440E+04  0.40000000000E+03 0.  1.
<mgrwt>
<rscale>  2 0.68147260E+03</rscale>
<asrwt>0</asrwt>
<pdfrwt beam="1">  1        1 0.62842822E-01 0.68147260E+03</pdfrwt>
<pdfrwt beam="2">  1       -1 0.24954731E+00 0.68147260E+03</pdfrwt>
<totfact> 0.43068169E+00</totfact>
</mgrwt>
</event>
<event>
 6    1  0.8861680E-004  0.5466142E+03  0.7818608E-02  0.1002281E+00
         -2   -1    0    0    0  501 -0.00000000000E+00  0.00000000000E+00  0.33082971215E+03  0.33082971215E+03  0.00000000000E+00 0. -1.
          2   -1    0    0  502    0  0.00000000000E+00 -0.00000000000E+00 -0.12123823019E+04  0.12123823019E+04  0.00000000000E+00 0.  1.
    9000007    2    1    2  502    0  0.35274811751E+02 -0.37084220792E+03 -0.83047904592E+03  0.99423408885E+03  0.40004714996E+03 0.  0.
    9000005    1    3    3    0    0 -0.96976068064E+02  0.47014665077E+02 -0.14637129773E+03  0.18176989108E+03  0.99999687468E+00 0.  0.
          4    1    3    3  502    0  0.13225087982E+03 -0.41785687300E+03 -0.68410774819E+03  0.81246419777E+03  0.00000000000E+00 0.  1.
   -9000007    1    1    2    0  501 -0.35274811751E+02  0.37084220792E+03 -0.51073543875E+02  0.54897792524E+03  0.40000000000E+03 0. -1.
<mgrwt>
<rscale>  2 0.54661423E+03</rscale>
<asrwt>0</asrwt>
<pdfrwt beam="1">  1        2 0.18652036E+00 0.54661423E+03</pdfrwt>
<pdfrwt beam="2">  1       -2 0.50896878E-01 0.54661423E+03</pdfrwt>
<totfact> 0.70555734E+01</totfact>
</mgrwt>
</event>
<event>
 6    1  0.8861680E-004  0.4219583E+03  0.7818608E-02  0.1036431E+00
          1   -1    0    0  502    0  0.00000000000E+00  0.00000000000E+00  0.42672233978E+03  0.42672233978E+03  0.00000000000E+00 0.  1.
         -1   -1    0    0    0  501 -0.00000000000E+00 -0.00000000000E+00 -0.45607764975E+03  0.45607764975E+03  0.00000000000E+00 0. -1.
    9000007    2    1    2  502    0 -0.68888382002E+02  0.11332798016E+03 -0.14348844027E+03  0.44620496929E+03  0.40114972499E+03 0.  0.
    9000005    1    3    3    0    0  0.10436695000E+03  0.30236147571E+02  0.91923511472E+02  0.14232925500E+03  0.99999687468E+00 0.  0.
          4    1    3    3  502    0 -0.17325533200E+03  0.83091832591E+02 -0.23541195174E+03  0.30387571429E+03  0.00000000000E+00 0.  1.
   -9000007    1    1    2    0  501  0.68888382002E+02 -0.11332798016E+03  0.11413313031E+03  0.43659502024E+03  0.40000000000E+03 0. -1.
<mgrwt>
<rscale>  2 0.42195829E+03</rscale>
<asrwt>0</asrwt>
<pdfrwt beam="1">  1        1 0.65649591E-01 0.42195829E+03</pdfrwt>
<pdfrwt beam="2">  1       -1 0.70165792E-01 0.42195829E+03</pdfrwt>
<totfact> 0.11787606E+02</totfact>
</mgrwt>
</event>
<event>
 6    1  0.8861680E-004  0.5123356E+03  0.7818608E-02  0.1010608E+00
         -2   -1    0    0    0  501 -0.00000000000E+00  0.00000000000E+00  0.78943166112E+03  0.78943166112E+03  0.00000000000E+00 0. -1.
          2   -1    0    0  502    0  0.00000000000E+00 -0.00000000000E+00 -0.46268401887E+03  0.46268401887E+03  0.00000000000E+00 0.  1.
    9000007    2    1    2  502    0 -0.25319847847E+03 -0.19643796281E+03 -0.16875655911E+03  0.53921894392E+03  0.39947584471E+03 0.  0.
    9000005    1    3    3    0    0 -0.48075746151E+01 -0.18167906141E+03  0.69629281637E+02  0.19462690200E+03  0.99999687468E+00 0.  0.
          4    1    3    3  502    0 -0.24839090385E+03 -0.14758901406E+02 -0.23838584074E+03  0.34459204192E+03  0.00000000000E+00 0.  1.
   -9000007    1    1    2    0  501  0.25319847847E+03  0.19643796281E+03  0.49550420136E+03  0.71289673607E+03  0.40000000000E+03 0. -1.
<mgrwt>
<rscale>  2 0.51233557E+03</rscale>
<asrwt>0</asrwt>
<pdfrwt beam="1">  1        2 0.71182157E-01 0.51233557E+03</pdfrwt>
<pdfrwt beam="2">  1       -2 0.12145102E+00 0.51233557E+03</pdfrwt>
<totfact> 0.35861065E+01</totfact>
</mgrwt>
</event>
<event>
 6    1  0.8861680E-004  0.5397321E+03  0.7818608E-02  0.1003899E+00
          2   -1    0    0  502    0  0.00000000000E+00  0.00000000000E+00  0.22376134326E+04  0.22376134326E+04  0.00000000000E+00 0.  1.
         -2   -1    0    0    0  501 -0.00000000000E+00 -0.00000000000E+00 -0.25743892089E+03  0.25743892089E+03  0.00000000000E+00 0. -1.
    9000007    2    1    2  502    0 -0.10433854293E+02 -0.36250914130E+03  0.18669931281E+04  0.19433896228E+04  0.39947233040E+03 0.  0.
    9000005    1    3    3    0    0  0.37140071833E+02  0.81649362766E+02  0.39781501335E+03  0.40780361477E+03  0.99999687468E+00 0.  0.
          4    1    3    3  502    0 -0.47573926126E+02 -0.44415850406E+03  0.14691781147E+04  0.15355860080E+04  0.00000000000E+00 0.  1.
   -9000007    1    1    2    0  501  0.10433854293E+02  0.36250914130E+03  0.11318138361E+03  0.55166273069E+03  0.40000000000E+03 0. -1.
<mgrwt>
<rscale>  2 0.53973210E+03</rscale>
<asrwt>0</asrwt>
<pdfrwt beam="1">  1        2 0.34424821E+00 0.53973210E+03</pdfrwt>
<pdfrwt beam="2">  1       -2 0.39605989E-01 0.53973210E+03</pdfrwt>
<totfact> 0.31824128E+01</totfact>
</mgrwt>
</event>
<event>
 6    1  0.8861680E-004  0.6093998E+03  0.7818608E-02  0.9886094E-01
          2   -1    0    0  502    0  0.00000000000E+00  0.00000000000E+00  0.15279844464E+04  0.15279844464E+04  0.00000000000E+00 0.  1.
         -2   -1    0    0    0  501 -0.00000000000E+00 -0.00000000000E+00 -0.27947715042E+03  0.27947715042E+03  0.00000000000E+00 0. -1.
    9000007    2    1    2  502    0 -0.42353068085E+03  0.18001474202E+03  0.95024578325E+03  0.11286807228E+04  0.39896062522E+03 0.  0.
    9000005    1    3    3    0    0 -0.13547565679E+03  0.19735332519E+03  0.72230900272E+03  0.76094236572E+03  0.99999687468E+00 0.  0.
          4    1    3    3  502    0 -0.28805502406E+03 -0.17338583168E+02  0.22793678053E+03  0.36773835708E+03  0.00000000000E+00 0.  1.
   -9000007    1    1    2    0  501  0.42353068085E+03 -0.18001474202E+03  0.29826151272E+03  0.67878087402E+03  0.40000000000E+03 0. -1.
<mgrwt>
<rscale>  2 0.60939979E+03</rscale>
<asrwt>0</asrwt>
<pdfrwt beam="1">  1        2 0.23507453E+00 0.60939979E+03</pdfrwt>
<pdfrwt beam="2">  1       -2 0.42996486E-01 0.60939979E+03</pdfrwt>
<totfact> 0.65105438E+01</totfact>
</mgrwt>
</event>
<event>
 6    1  0.8861680E-004  0.4683778E+03  0.7818608E-02  0.1022379E+00
          2   -1    0    0  502    0  0.00000000000E+00  0.00000000000E+00  0.79811277866E+03  0.79811277866E+03  0.00000000000E+00 0.  1.
         -2   -1    0    0    0  501 -0.00000000000E+00 -0.00000000000E+00 -0.30620956090E+03  0.30620956090E+03  0.00000000000E+00 0. -1.
    9000007    2    1    2  502    0  0.23805448045E+03 -0.51530799534E+02  0.69334089186E+02  0.47353709291E+03  0.40013098290E+03 0.  0.
    9000005    1    3    3    0    0 -0.67236850967E+02 -0.75455169770E+02 -0.83673667745E+02  0.13121188757E+03  0.99999687468E+00 0.  0.
          4    1    3    3  502    0  0.30529133142E+03  0.23924370237E+02  0.15300775693E+03  0.34232520534E+03  0.00000000000E+00 0.  1.
   -9000007    1    1    2    0  501 -0.23805448045E+03  0.51530799534E+02  0.42256912858E+03  0.63078524665E+03  0.40000000000E+03 0.  1.
<mgrwt>
<rscale>  2 0.46837779E+03</rscale>
<asrwt>0</asrwt>
<pdfrwt beam="1">  1        2 0.12278658E+00 0.46837779E+03</pdfrwt>
<pdfrwt beam="2">  1       -2 0.47109164E-01 0.46837779E+03</pdfrwt>
<totfact> 0.15221953E+02</totfact>
</mgrwt>
</event>
<event>
 6    1  0.8861680E-004  0.4305685E+03  0.7818608E-02  0.1033681E+00
         -2   -1    0    0    0  501 -0.00000000000E+00  0.00000000000E+00  0.10150334295E+03  0.10150334295E+03  0.00000000000E+00 0. -1.
          2   -1    0    0  502    0  0.00000000000E+00 -0.00000000000E+00 -0.18264370716E+04  0.18264370716E+04  0.00000000000E+00 0.  1.
    9000007    2    1    2  502    0  0.14860263447E+03 -0.55642760056E+02 -0.86207114223E+03  0.96372534376E+03  0.40052593450E+03 0.  0.
    9000005    1    3    3    0    0  0.16506183618E+03  0.14037349518E+03 -0.31470236432E+03  0.38208468435E+03  0.99999687468E+00 0.  0.
          4    1    3    3  502    0 -0.16459201715E+02 -0.19601625524E+03 -0.54736877791E+03  0.58164065940E+03  0.00000000000E+00 0.  1.
   -9000007    1    1    2    0  501 -0.14860263447E+03  0.55642760056E+02 -0.86286258639E+03  0.96421507077E+03  0.40000000000E+03 0.  1.
<mgrwt>
<rscale>  2 0.43056852E+03</rscale>
<asrwt>0</asrwt>
<pdfrwt beam="1">  1        2 0.28099032E+00 0.43056852E+03</pdfrwt>
<pdfrwt beam="2">  1       -2 0.15615899E-01 0.43056852E+03</pdfrwt>
<totfact> 0.28728094E+02</totfact>
</mgrwt>
</event>
<event>
 6    1  0.8861680E-004  0.1002471E+04  0.7818608E-02  0.9305839E-01
         -1   -1    0    0    0  501 -0.00000000000E+00  0.00000000000E+00  0.14191995660E+04  0.14191995660E+04  0.00000000000E+00 0. -1.
          1   -1    0    0  502    0  0.00000000000E+00 -0.00000000000E+00 -0.10539936355E+04  0.10539936355E+04  0.00000000000E+00 0.  1.
    9000007    2    1    2  502    0 -0.71608300291E+03  0.57591396550E+03 -0.52576106139E+03  0.11321958325E+04  0.40123677152E+03 0.  0.
    9000005    1    3    3    0    0 -0.30149554317E+03  0.44581502141E+02 -0.53944806020E+02  0.30951270567E+03  0.99999687468E+00 0.  0.
          4    1    3    3  502    0 -0.41458745975E+03  0.53133246335E+03 -0.47181625537E+03  0.82268312686E+03  0.00000000000E+00 0.  1.
   -9000007    1    1    2    0  501  0.71608300291E+03 -0.57591396550E+03  0.89096699189E+03  0.13409973689E+04  0.40000000000E+03 0. -1.
<mgrwt>
<rscale>  2 0.10024705E+04</rscale>
<asrwt>0</asrwt>
<pdfrwt beam="1">  1        1 0.16215287E+00 0.10024705E+04</pdfrwt>
<pdfrwt beam="2">  1       -1 0.21833840E+00 0.10024705E+04</pdfrwt>
<totfact> 0.15598818E+00</totfact>
</mgrwt>
</event>
<event>
 6    1  0.8861680E-004  0.4900781E+03  0.7818608E-02  0.1016402E+00
          2   -1    0    0  502    0  0.00000000000E+00  0.00000000000E+00  0.15188870918E+04  0.15188870918E+04  0.00000000000E+00 0.  1.
         -2   -1    0    0    0  501 -0.00000000000E+00 -0.00000000000E+00 -0.16395358052E+03  0.16395358052E+03  0.00000000000E+00 0. -1.
    9000007    2    1    2  502    0  0.24525626237E+03  0.14183107358E+03  0.51871884543E+03  0.71355141980E+03  0.39977456202E+03 0.  0.
    9000005    1    3    3    0    0  0.53932479764E+01  0.19533588595E+03  0.80948410418E+02  0.21151558006E+03  0.99999687468E+00 0.  0.
          4    1    3    3  502    0  0.23986301440E+03 -0.53504812370E+02  0.43777043501E+03  0.50203583975E+03  0.00000000000E+00 0.  1.
   -9000007    1    1    2    0  501 -0.24525626237E+03 -0.14183107358E+03  0.83621466589E+03  0.96928925255E+03  0.40000000000E+03 0.  1.
<mgrwt>
<rscale>  2 0.49007808E+03</rscale>
<asrwt>0</asrwt>
<pdfrwt beam="1">  1        2 0.23367493E+00 0.49007808E+03</pdfrwt>
<pdfrwt beam="2">  1       -2 0.25223629E-01 0.49007808E+03</pdfrwt>
<totfact> 0.18188556E+02</totfact>
</mgrwt>
</event>
<event>
 6    1  0.8861680E-004  0.4975252E+03  0.7818608E-02  0.1014427E+00
          2   -1    0    0  502    0  0.00000000000E+00  0.00000000000E+00  0.34389766662E+04  0.34389766662E+04  0.00000000000E+00 0. -1.
         -2   -1    0    0    0  501 -0.00000000000E+00 -0.00000000000E+00 -0.85894623935E+02  0.85894623935E+02  0.00000000000E+00 0.  1.
    9000007    2    1    2  502    0  0.52078939272E+02 -0.29282448878E+03  0.23833125759E+04  0.24344992367E+04  0.39767989844E+03 0.  0.
    9000005    1    3    3    0    0  0.13067264817E+03 -0.11440040580E+03  0.19685645139E+04  0.19762110310E+04  0.99999687468E+00 0.  0.
          4    1    3    3  502    0 -0.78593708898E+02 -0.17842408299E+03  0.41474806209E+03  0.45828820569E+03  0.00000000000E+00 0.  1.
   -9000007    1    1    2    0  501 -0.52078939272E+02  0.29282448878E+03  0.96976946636E+03  0.10903720535E+04  0.40000000000E+03 0.  1.
<mgrwt>
<rscale>  2 0.49752519E+03</rscale>
<asrwt>0</asrwt>
<pdfrwt beam="1">  1        2 0.52907323E+00 0.49752519E+03</pdfrwt>
<pdfrwt beam="2">  1       -2 0.13214560E-01 0.49752519E+03</pdfrwt>
<totfact> 0.43796026E+01</totfact>
</mgrwt>
</event>
<event>
 6    1  0.8861680E-004  0.4224478E+03  0.7818608E-02  0.1036273E+00
          2   -1    0    0  502    0  0.00000000000E+00  0.00000000000E+00  0.14664647416E+04  0.14664647416E+04  0.00000000000E+00 0. -1.
         -2   -1    0    0    0  501 -0.00000000000E+00 -0.00000000000E+00 -0.13132068155E+03  0.13132068155E+03  0.00000000000E+00 0.  1.
    9000007    2    1    2  502    0 -0.46506193730E+02  0.12859956154E+03  0.45087429437E+03  0.61766619991E+03  0.39940359526E+03 0.  0.
    9000005    1    3    3    0    0  0.17351192791E+03  0.14016187767E+02  0.18878125877E+03  0.25679214611E+03  0.99999687468E+00 0.  0.
          4    1    3    3  502    0 -0.22001812164E+03  0.11458337377E+03  0.26209303560E+03  0.36087405380E+03  0.00000000000E+00 0.  1.
   -9000007    1    1    2    0  501  0.46506193730E+02 -0.12859956154E+03  0.88426976568E+03  0.98011922325E+03  0.40000000000E+03 0. -1.
<mgrwt>
<rscale>  2 0.42244778E+03</rscale>
<asrwt>0</asrwt>
<pdfrwt beam="1">  1        2 0.22560995E+00 0.42244778E+03</pdfrwt>
<pdfrwt beam="2">  1       -2 0.20203183E-01 0.42244778E+03</pdfrwt>
<totfact> 0.28968455E+02</totfact>
</mgrwt>
</event>
<event>
 6    1  0.8861680E-004  0.4812059E+03  0.7818608E-02  0.1018804E+00
         -2   -1    0    0    0  501 -0.00000000000E+00  0.00000000000E+00  0.35584852606E+03  0.35584852606E+03  0.00000000000E+00 0. -1.
          2   -1    0    0  502    0  0.00000000000E+00 -0.00000000000E+00 -0.74110401712E+03  0.74110401712E+03  0.00000000000E+00 0.  1.
    9000007    2    1    2  502    0  0.24061829994E+03  0.11660550587E+03 -0.11136899559E+01  0.48127492167E+03  0.40016284142E+03 0.  0.
    9000005    1    3    3    0    0  0.43221514780E+02 -0.37465378051E+02  0.16908644648E+03  0.17850204556E+03  0.99999687468E+00 0.  0.
          4    1    3    3  502    0  0.19739678516E+03  0.15407088392E+03 -0.17020013643E+03  0.30277287611E+03  0.00000000000E+00 0.  1.
   -9000007    1    1    2    0  501 -0.24061829994E+03 -0.11660550587E+03 -0.38414180110E+03  0.61567762151E+03  0.40000000000E+03 0.  1.
<mgrwt>
<rscale>  2 0.48120593E+03</rscale>
<asrwt>0</asrwt>
<pdfrwt beam="1">  1        2 0.11401600E+00 0.48120593E+03</pdfrwt>
<pdfrwt beam="2">  1       -2 0.54745927E-01 0.48120593E+03</pdfrwt>
<totfact> 0.12332258E+02</totfact>
</mgrwt>
</event>
<event>
 6    1  0.8861680E-004  0.5434457E+03  0.7818608E-02  0.1003022E+00
         -1   -1    0    0    0  501 -0.00000000000E+00  0.00000000000E+00  0.55741343955E+03  0.55741343955E+03  0.00000000000E+00 0. -1.
          1   -1    0    0  502    0  0.00000000000E+00 -0.00000000000E+00 -0.71347334805E+03  0.71347334805E+03  0.00000000000E+00 0.  1.
    9000007    2    1    2  502    0  0.98752247167E+02  0.35415994993E+03  0.24434253029E+03  0.59597687551E+03  0.40037967927E+03 0.  0.
    9000005    1    3    3    0    0  0.21766846008E+03  0.35626902600E+03  0.22864290247E+03  0.47601024594E+03  0.99999687468E+00 0.  0.
          4    1    3    3  502    0 -0.11891621291E+03 -0.21090760645E+01  0.15699627818E+02  0.11996662956E+03  0.00000000000E+00 0.  1.
   -9000007    1    1    2    0  501 -0.98752247167E+02 -0.35415994993E+03 -0.40040243878E+03  0.67490991209E+03  0.40000000000E+03 0.  1.
<mgrwt>
<rscale>  2 0.54344566E+03</rscale>
<asrwt>0</asrwt>
<pdfrwt beam="1">  1        1 0.10976513E+00 0.54344566E+03</pdfrwt>
<pdfrwt beam="2">  1       -1 0.85755913E-01 0.54344566E+03</pdfrwt>
<totfact> 0.37267720E+01</totfact>
</mgrwt>
</event>
<event>
 6    1  0.8861680E-004  0.6075923E+03  0.7818608E-02  0.9889778E-01
          4   -1    0    0  502    0  0.00000000000E+00  0.00000000000E+00  0.72931072108E+03  0.72931072108E+03  0.00000000000E+00 0.  1.
         -4   -1    0    0    0  501 -0.00000000000E+00 -0.00000000000E+00 -0.95851843636E+03  0.95851843636E+03  0.00000000000E+00 0. -1.
    9000007    2    1    2  502    0  0.26817445185E+03  0.37043130413E+03 -0.69433685073E+03  0.92266120180E+03  0.40007892135E+03 0.  0.
    9000005    1    3    3    0    0  0.23181834914E+03  0.27064068371E+03 -0.18335206581E+03  0.40075566959E+03  0.99999687468E+00 0.  0.
          4    1    3    3  502    0  0.36356102717E+02  0.99790620412E+02 -0.51098478492E+03  0.52190553221E+03  0.00000000000E+00 0.  1.
   -9000007    1    1    2    0  501 -0.26817445185E+03 -0.37043130413E+03  0.46512913545E+03  0.76516795564E+03  0.40000000000E+03 0.  1.
<mgrwt>
<rscale>  2 0.60759235E+03</rscale>
<asrwt>0</asrwt>
<pdfrwt beam="1">  1        4 0.11220165E+00 0.60759235E+03</pdfrwt>
<pdfrwt beam="2">  1       -4 0.14746438E+00 0.60759235E+03</pdfrwt>
<totfact> 0.38145327E-01</totfact>
</mgrwt>
</event>
<event>
 6    1  0.8861680E-004  0.4460489E+03  0.7818608E-02  0.1028907E+00
          2   -1    0    0  502    0  0.00000000000E+00  0.00000000000E+00  0.20834209931E+04  0.20834209931E+04  0.00000000000E+00 0.  1.
         -2   -1    0    0    0  501 -0.00000000000E+00 -0.00000000000E+00 -0.11162569832E+03  0.11162569832E+03  0.00000000000E+00 0. -1.
    9000007    2    1    2  502    0 -0.18109691147E+03 -0.84128392917E+02  0.56677922599E+03  0.72061668923E+03  0.39771351993E+03 0.  0.
    9000005    1    3    3    0    0  0.30568778519E+02  0.13603010831E+03  0.16780139907E+03  0.21816725261E+03  0.99999687468E+00 0.  0.
          4    1    3    3  502    0 -0.21166568999E+03 -0.22015850123E+03  0.39897782692E+03  0.50244943662E+03  0.00000000000E+00 0.  1.
   -9000007    1    1    2    0  501  0.18109691147E+03  0.84128392917E+02  0.14050160688E+04  0.14744300022E+04  0.40000000000E+03 0.  1.
<mgrwt>
<rscale>  2 0.44604889E+03</rscale>
<asrwt>0</asrwt>
<pdfrwt beam="1">  1        2 0.32052628E+00 0.44604889E+03</pdfrwt>
<pdfrwt beam="2">  1       -2 0.17173186E-01 0.44604889E+03</pdfrwt>
<totfact> 0.17776372E+02</totfact>
</mgrwt>
</event>
<event>
 6    1  0.8861680E-004  0.4239604E+03  0.7818608E-02  0.1035785E+00
          2   -1    0    0  502    0  0.00000000000E+00  0.00000000000E+00  0.92336703205E+03  0.92336703205E+03  0.00000000000E+00 0. -1.
         -2   -1    0    0    0  501 -0.00000000000E+00 -0.00000000000E+00 -0.19842341280E+03  0.19842341280E+03  0.00000000000E+00 0.  1.
    9000007    2    1    2  502    0 -0.76883969267E+02  0.11777329375E+03  0.43968089753E+03  0.61075569666E+03  0.39990190785E+03 0.  0.
    9000005    1    3    3    0    0  0.78962589758E+02 -0.54999527772E+02  0.34734021702E+03  0.36042511704E+03  0.99999687468E+00 0.  0.
          4    1    3    3  502    0 -0.15584655902E+03  0.17277282153E+03  0.92340680506E+02  0.25033057962E+03  0.00000000000E+00 0.  1.
   -9000007    1    1    2    0  501  0.76883969267E+02 -0.11777329375E+03  0.28526272173E+03  0.51103474819E+03  0.40000000000E+03 0.  1.
<mgrwt>
<rscale>  2 0.42396044E+03</rscale>
<asrwt>0</asrwt>
<pdfrwt beam="1">  1        2 0.14205646E+00 0.42396044E+03</pdfrwt>
<pdfrwt beam="2">  1       -2 0.30526679E-01 0.42396044E+03</pdfrwt>
<totfact> 0.28865334E+02</totfact>
</mgrwt>
</event>
<event>
 6    1  0.8861680E-004  0.5103346E+03  0.7818608E-02  0.1011116E+00
          1   -1    0    0  502    0  0.00000000000E+00  0.00000000000E+00  0.11154194528E+04  0.11154194528E+04  0.00000000000E+00 0. -1.
         -1   -1    0    0    0  501 -0.00000000000E+00 -0.00000000000E+00 -0.36803516585E+03  0.36803516585E+03  0.00000000000E+00 0.  1.
    9000007    2    1    2  502    0  0.14412660905E+02  0.31666780521E+03 -0.74795380976E+02  0.51574307588E+03  0.39988791885E+03 0.  0.
    9000005    1    3    3    0    0 -0.62440486252E+02  0.12728110011E+03  0.15374889295E+03  0.20913874544E+03  0.99999687468E+00 0.  0.
          4    1    3    3  502    0  0.76853147158E+02  0.18938670511E+03 -0.22854427392E+03  0.30660433044E+03  0.00000000000E+00 0.  1.
   -9000007    1    1    2    0  501 -0.14412660905E+02 -0.31666780521E+03  0.82217966790E+03  0.96771154274E+03  0.40000000000E+03 0. -1.
<mgrwt>
<rscale>  2 0.51033459E+03</rscale>
<asrwt>0</asrwt>
<pdfrwt beam="1">  1        1 0.17160299E+00 0.51033459E+03</pdfrwt>
<pdfrwt beam="2">  1       -1 0.56620795E-01 0.51033459E+03</pdfrwt>
<totfact> 0.41254109E+01</totfact>
</mgrwt>
</event>
<event>
 6    1  0.8861680E-004  0.4041635E+03  0.7818608E-02  0.1042347E+00
         -3   -1    0    0    0  501 -0.00000000000E+00  0.00000000000E+00  0.30905560069E+03  0.30905560069E+03  0.00000000000E+00 0. -1.
          3   -1    0    0  502    0  0.00000000000E+00 -0.00000000000E+00 -0.52892266231E+03  0.52892266231E+03  0.00000000000E+00 0.  1.
    9000007    2    1    2  502    0  0.41507152334E+02 -0.37212979819E+02 -0.98745308727E+02  0.41634082564E+03  0.40060129497E+03 0.  0.
    9000005    1    3    3    0    0 -0.31713796865E+02  0.13140597866E+03  0.82351431914E+02  0.15829104356E+03  0.99999687468E+00 0.  0.
          4    1    3    3  502    0  0.73220949200E+02 -0.16861895848E+03 -0.18109674064E+03  0.25804978208E+03  0.00000000000E+00 0.  1.
   -9000007    1    1    2    0  501 -0.41507152334E+02  0.37212979819E+02 -0.12112175289E+03  0.42163743736E+03  0.40000000000E+03 0. -1.
<mgrwt>
<rscale>  2 0.40416354E+03</rscale>
<asrwt>0</asrwt>
<pdfrwt beam="1">  1        3 0.81372717E-01 0.40416354E+03</pdfrwt>
<pdfrwt beam="2">  1       -3 0.47547016E-01 0.40416354E+03</pdfrwt>
<totfact> 0.15972931E+01</totfact>
</mgrwt>
</event>
<event>
 6    1  0.8861680E-004  0.4418561E+03  0.7818608E-02  0.1030179E+00
          1   -1    0    0  502    0  0.00000000000E+00  0.00000000000E+00  0.85020507715E+03  0.85020507715E+03  0.00000000000E+00 0.  1.
         -1   -1    0    0    0  501 -0.00000000000E+00 -0.00000000000E+00 -0.44356736622E+03  0.44356736622E+03  0.00000000000E+00 0. -1.
    9000007    2    1    2  502    0 -0.78500606549E+02 -0.16879208966E+03 -0.24577098443E+03  0.50618738730E+03  0.40145881421E+03 0.  0.
    9000005    1    3    3    0    0 -0.16869555828E+03  0.73346576227E+02 -0.10919564149E+03  0.21392194778E+03  0.99999687468E+00 0.  0.
          4    1    3    3  502    0  0.90194951732E+02 -0.24213866588E+03 -0.13657534294E+03  0.29226543951E+03  0.00000000000E+00 0.  1.
   -9000007    1    1    2    0  501  0.78500606549E+02  0.16879208966E+03  0.65240869536E+03  0.78758505607E+03  0.40000000000E+03 0.  1.
<mgrwt>
<rscale>  2 0.44185612E+03</rscale>
<asrwt>0</asrwt>
<pdfrwt beam="1">  1        1 0.13080078E+00 0.44185612E+03</pdfrwt>
<pdfrwt beam="2">  1       -1 0.68241134E-01 0.44185612E+03</pdfrwt>
<totfact> 0.46309518E+01</totfact>
</mgrwt>
</event>
<event>
 6    1  0.8861680E-004  0.4438867E+03  0.7818608E-02  0.1029561E+00
          1   -1    0    0  502    0  0.00000000000E+00  0.00000000000E+00  0.63453260265E+03  0.63453260265E+03  0.00000000000E+00 0.  1.
         -1   -1    0    0    0  501 -0.00000000000E+00 -0.00000000000E+00 -0.31081281288E+03  0.31081281288E+03  0.00000000000E+00 0. -1.
    9000007    2    1    2  502    0  0.17871314226E+03  0.25608834695E+02  0.17715817114E+03  0.48266355108E+03  0.41107771322E+03 0.  0.
    9000005    1    3    3    0    0  0.31077060273E+03  0.49680670552E+02  0.12190365857E+03  0.33750264964E+03  0.99999687468E+00 0.  0.
          4    1    3    3  502    0 -0.13205746047E+03 -0.24071835857E+02  0.55254512577E+02  0.14516090144E+03  0.00000000000E+00 0.  1.
   -9000007    1    1    2    0  501 -0.17871314226E+03 -0.25608834695E+02  0.14656161863E+03  0.46268186445E+03  0.40000000000E+03 0.  1.
<mgrwt>
<rscale>  2 0.44388674E+03</rscale>
<asrwt>0</asrwt>
<pdfrwt beam="1">  1        1 0.97620400E-01 0.44388674E+03</pdfrwt>
<pdfrwt beam="2">  1       -1 0.47817356E-01 0.44388674E+03</pdfrwt>
<totfact> 0.14351117E+02</totfact>
</mgrwt>
</event>
<event>
 6    1  0.8861680E-004  0.4597544E+03  0.7818608E-02  0.1024852E+00
          1   -1    0    0  502    0  0.00000000000E+00  0.00000000000E+00  0.18865843620E+04  0.18865843620E+04  0.00000000000E+00 0. -1.
         -1   -1    0    0    0  501 -0.00000000000E+00 -0.00000000000E+00 -0.29270134567E+03  0.29270134567E+03  0.00000000000E+00 0.  1.
    9000007    2    1    2  502    0  0.22551073280E+03  0.59694317634E+01  0.16533491277E+04  0.17162231383E+04  0.40120792308E+03 0.  0.
    9000005    1    3    3    0    0  0.21423503413E+03  0.17223538881E+03  0.12487618589E+04  0.12786590082E+04  0.99999687468E+00 0.  0.
          4    1    3    3  502    0  0.11275698676E+02 -0.16626595705E+03  0.40458726883E+03  0.43756413010E+03  0.00000000000E+00 0.  1.
   -9000007    1    1    2    0  501 -0.22551073280E+03 -0.59694317634E+01 -0.59466111413E+02  0.46306256935E+03  0.40000000000E+03 0.  1.
<mgrwt>
<rscale>  2 0.45975436E+03</rscale>
<asrwt>0</asrwt>
<pdfrwt beam="1">  1        1 0.29024374E+00 0.45975436E+03</pdfrwt>
<pdfrwt beam="2">  1       -1 0.45030977E-01 0.45975436E+03</pdfrwt>
<totfact> 0.19075300E+01</totfact>
</mgrwt>
</event>
<event>
 6    1  0.8861680E-004  0.5306785E+03  0.7818608E-02  0.1006068E+00
          2   -1    0    0  502    0  0.00000000000E+00  0.00000000000E+00  0.97549179195E+03  0.97549179195E+03  0.00000000000E+00 0. -1.
         -2   -1    0    0    0  501 -0.00000000000E+00 -0.00000000000E+00 -0.33011581056E+03  0.33011581056E+03  0.00000000000E+00 0.  1.
    9000007    2    1    2  502    0 -0.21964297001E+03  0.26796976292E+03  0.92245852583E+02  0.54009877336E+03  0.40391404971E+03 0.  0.
    9000005    1    3    3    0    0 -0.37317777435E+02  0.93483884276E+02  0.23108934407E+03  0.25206177431E+03  0.99999687468E+00 0.  0.
          4    1    3    3  502    0 -0.18232519258E+03  0.17448587864E+03 -0.13884349149E+03  0.28803699905E+03  0.00000000000E+00 0.  1.
   -9000007    1    1    2    0  501  0.21964297001E+03 -0.26796976292E+03  0.55313012881E+03  0.76550882915E+03  0.40000000000E+03 0. -1.
<mgrwt>
<rscale>  2 0.53067854E+03</rscale>
<asrwt>0</asrwt>
<pdfrwt beam="1">  1        2 0.15007566E+00 0.53067854E+03</pdfrwt>
<pdfrwt beam="2">  1       -2 0.50787048E-01 0.53067854E+03</pdfrwt>
<totfact> 0.98895421E+01</totfact>
</mgrwt>
</event>
<event>
 6    1  0.8861680E-004  0.7213905E+03  0.7818608E-02  0.9681335E-01
          1   -1    0    0  502    0  0.00000000000E+00  0.00000000000E+00  0.21132506300E+04  0.21132506300E+04  0.00000000000E+00 0. -1.
         -1   -1    0    0    0  501 -0.00000000000E+00 -0.00000000000E+00 -0.31363003239E+03  0.31363003239E+03  0.00000000000E+00 0.  1.
    9000007    2    1    2  502    0 -0.12440735298E+03 -0.58776461320E+03  0.33703767944E+03  0.79590144042E+03  0.39864805969E+03 0.  0.
    9000005    1    3    3    0    0 -0.13281825517E+03 -0.10020463214E+02  0.14020529309E+02  0.13393533449E+03  0.99999687468E+00 0.  0.
          4    1    3    3  502    0  0.84109021870E+01 -0.57774414999E+03  0.32301715013E+03  0.66196610593E+03  0.00000000000E+00 0.  1.
   -9000007    1    1    2    0  501  0.12440735298E+03  0.58776461320E+03  0.14625829182E+04  0.16309792220E+04  0.40000000000E+03 0. -1.
<mgrwt>
<rscale>  2 0.72139052E+03</rscale>
<asrwt>0</asrwt>
<pdfrwt beam="1">  1        1 0.32511547E+00 0.72139052E+03</pdfrwt>
<pdfrwt beam="2">  1       -1 0.48250776E-01 0.72139052E+03</pdfrwt>
<totfact> 0.11273072E+01</totfact>
</mgrwt>
</event>
<event>
 6    1  0.8861680E-004  0.4309558E+03  0.7818608E-02  0.1033558E+00
          1   -1    0    0  502    0  0.00000000000E+00  0.00000000000E+00  0.14136362729E+04  0.14136362729E+04  0.00000000000E+00 0. -1.
         -1   -1    0    0    0  501 -0.00000000000E+00 -0.00000000000E+00 -0.16560678065E+03  0.16560678065E+03  0.00000000000E+00 0.  1.
    9000007    2    1    2  502    0  0.74074661043E+02 -0.14261409778E+03  0.26490143891E+03  0.50575965565E+03  0.39974269305E+03 0.  0.
    9000005    1    3    3    0    0 -0.14248722366E+03 -0.16906058328E+02  0.31524245174E+01  0.14352477657E+03  0.99999687468E+00 0.  0.
          4    1    3    3  502    0  0.21656188470E+03 -0.12570803945E+03  0.26174901440E+03  0.36223487908E+03  0.00000000000E+00 0.  1.
   -9000007    1    1    2    0  501 -0.74074661043E+02  0.14261409778E+03  0.98312805329E+03  0.10734833979E+04  0.40000000000E+03 0. -1.
<mgrwt>
<rscale>  2 0.43095582E+03</rscale>
<asrwt>0</asrwt>
<pdfrwt beam="1">  1        1 0.21748250E+00 0.43095582E+03</pdfrwt>
<pdfrwt beam="2">  1       -1 0.25477967E-01 0.43095582E+03</pdfrwt>
<totfact> 0.10797142E+02</totfact>
</mgrwt>
</event>
<event>
 6    1  0.8861680E-004  0.4540943E+03  0.7818608E-02  0.1026508E+00
         -2   -1    0    0    0  501 -0.00000000000E+00  0.00000000000E+00  0.22105411283E+03  0.22105411283E+03  0.00000000000E+00 0.  1.
          2   -1    0    0  502    0  0.00000000000E+00 -0.00000000000E+00 -0.93331188877E+03  0.93331188877E+03  0.00000000000E+00 0. -1.
    9000007    2    1    2  502    0  0.96995513622E+02 -0.19224571013E+03 -0.36935916942E+03  0.58520346148E+03  0.39958772825E+03 0.  0.
    9000005    1    3    3    0    0 -0.59080645193E+02 -0.27210938240E+03 -0.23368332474E+03  0.36351469693E+03  0.99999687468E+00 0.  0.
          4    1    3    3  502    0  0.15607615882E+03  0.79863672271E+02 -0.13567584468E+03  0.22168876455E+03  0.00000000000E+00 0.  1.
   -9000007    1    1    2    0  501 -0.96995513622E+02  0.19224571013E+03 -0.34289860652E+03  0.56916254012E+03  0.40000000000E+03 0. -1.
<mgrwt>
<rscale>  2 0.45409432E+03</rscale>
<asrwt>0</asrwt>
<pdfrwt beam="1">  1        2 0.14358645E+00 0.45409432E+03</pdfrwt>
<pdfrwt beam="2">  1       -2 0.34008324E-01 0.45409432E+03</pdfrwt>
<totfact> 0.23201284E+02</totfact>
</mgrwt>
</event>
<event>
 6    1  0.8861680E-004  0.4114177E+03  0.7818608E-02  0.1039896E+00
          1   -1    0    0  502    0  0.00000000000E+00  0.00000000000E+00  0.12603122056E+04  0.12603122056E+04  0.00000000000E+00 0. -1.
         -1   -1    0    0    0  501 -0.00000000000E+00 -0.00000000000E+00 -0.19196534334E+03  0.19196534334E+03  0.00000000000E+00 0.  1.
    9000007    2    1    2  502    0  0.13347056372E+02 -0.94460171625E+02  0.13638285812E+03  0.43362266483E+03  0.40040912018E+03 0.  0.
    9000005    1    3    3    0    0  0.13648040502E+03 -0.20270983808E+03  0.54574124349E+02  0.25039471730E+03  0.99999687468E+00 0.  0.
          4    1    3    3  502    0 -0.12313334864E+03  0.10824966645E+03  0.81808733775E+02  0.18322794753E+03  0.00000000000E+00 0.  1.
   -9000007    1    1    2    0  501 -0.13347056372E+02  0.94460171625E+02  0.93196400416E+03  0.10186548841E+04  0.40000000000E+03 0. -1.
<mgrwt>
<rscale>  2 0.41141770E+03</rscale>
<asrwt>0</asrwt>
<pdfrwt beam="1">  1        1 0.19389418E+00 0.41141770E+03</pdfrwt>
<pdfrwt beam="2">  1       -1 0.29533131E-01 0.41141770E+03</pdfrwt>
<totfact> 0.10742922E+02</totfact>
</mgrwt>
</event>
<event>
 6    1  0.8861680E-004  0.4233519E+03  0.7818608E-02  0.1035981E+00
         -2   -1    0    0    0  501 -0.00000000000E+00  0.00000000000E+00  0.19879445695E+03  0.19879445695E+03  0.00000000000E+00 0.  1.
          2   -1    0    0  502    0  0.00000000000E+00 -0.00000000000E+00 -0.99098641685E+03  0.99098641685E+03  0.00000000000E+00 0. -1.
    9000007    2    1    2  502    0  0.74129205884E+02  0.11785256040E+03 -0.57463364431E+03  0.71363385256E+03  0.39960616260E+03 0.  0.
    9000005    1    3    3    0    0  0.20676903362E+03 -0.16658391852E+02 -0.17422276034E+03  0.27089759227E+03  0.99999687468E+00 0.  0.
          4    1    3    3  502    0 -0.13263982773E+03  0.13451095226E+03 -0.40041088397E+03  0.44273626029E+03  0.00000000000E+00 0.  1.
   -9000007    1    1    2    0  501 -0.74129205884E+02 -0.11785256040E+03 -0.21755831559E+03  0.47614702125E+03  0.40000000000E+03 0.  1.
<mgrwt>
<rscale>  2 0.42335191E+03</rscale>
<asrwt>0</asrwt>
<pdfrwt beam="1">  1        2 0.15245945E+00 0.42335191E+03</pdfrwt>
<pdfrwt beam="2">  1       -2 0.30583763E-01 0.42335191E+03</pdfrwt>
<totfact> 0.26042671E+02</totfact>
</mgrwt>
</event>
<event>
 6    1  0.8861680E-004  0.4617450E+03  0.7818608E-02  0.1024276E+00
         -2   -1    0    0    0  501 -0.00000000000E+00  0.00000000000E+00  0.16908313765E+03  0.16908313765E+03  0.00000000000E+00 0.  1.
          2   -1    0    0  502    0  0.00000000000E+00 -0.00000000000E+00 -0.13384438624E+04  0.13384438624E+04  0.00000000000E+00 0. -1.
    9000007    2    1    2  502    0 -0.22177191710E+03  0.59341049561E+02 -0.76668075709E+03  0.89527272303E+03  0.40126016739E+03 0.  0.
    9000005    1    3    3    0    0  0.10064882816E+03 -0.60590241007E+02 -0.17281952627E+03  0.20897117641E+03  0.99999687468E+00 0.  0.
          4    1    3    3  502    0 -0.32242074525E+03  0.11993129057E+03 -0.59386123081E+03  0.68630154662E+03  0.00000000000E+00 0.  1.
   -9000007    1    1    2    0  501  0.22177191710E+03 -0.59341049561E+02 -0.40267996766E+03  0.61225427702E+03  0.40000000000E+03 0.  1.
<mgrwt>
<rscale>  2 0.46174496E+03</rscale>
<asrwt>0</asrwt>
<pdfrwt beam="1">  1        2 0.20591444E+00 0.46174496E+03</pdfrwt>
<pdfrwt beam="2">  1       -2 0.26012791E-01 0.46174496E+03</pdfrwt>
<totfact> 0.21734127E+02</totfact>
</mgrwt>
</event>
<event>
 6    1  0.8861680E-004  0.4299105E+03  0.7818608E-02  0.1033888E+00
         -2   -1    0    0    0  501 -0.00000000000E+00  0.00000000000E+00  0.94697451590E+02  0.94697451590E+02  0.00000000000E+00 0. -1.
          2   -1    0    0  502    0  0.00000000000E+00 -0.00000000000E+00 -0.24159291505E+04  0.24159291505E+04  0.00000000000E+00 0.  1.
    9000007    2    1    2  502    0 -0.13844033222E+03 -0.75445715067E+02 -0.61026954519E+03  0.74646978566E+03  0.39991304255E+03 0.  0.
    9000005    1    3    3    0    0 -0.26911873700E+03 -0.27081127728E+02 -0.50116454165E+03  0.56949554860E+03  0.99999687468E+00 0.  0.
          4    1    3    3  502    0  0.13067840477E+03 -0.48364587339E+02 -0.10910500354E+03  0.17697423705E+03  0.00000000000E+00 0.  1.
   -9000007    1    1    2    0  501  0.13844033222E+03  0.75445715067E+02 -0.17109621538E+04  0.17641568165E+04  0.40000000000E+03 0.  1.
<mgrwt>
<rscale>  2 0.42991045E+03</rscale>
<asrwt>0</asrwt>
<pdfrwt beam="1">  1        2 0.37168138E+00 0.42991045E+03</pdfrwt>
<pdfrwt beam="2">  1       -2 0.14568840E-01 0.42991045E+03</pdfrwt>
<totfact> 0.15507151E+02</totfact>
</mgrwt>
</event>
<event>
 6    1  0.8861680E-004  0.5164561E+03  0.7818608E-02  0.1009571E+00
          1   -1    0    0  502    0  0.00000000000E+00  0.00000000000E+00  0.20948595865E+04  0.20948595865E+04  0.00000000000E+00 0.  1.
         -1   -1    0    0    0  501 -0.00000000000E+00 -0.00000000000E+00 -0.13384177922E+03  0.13384177922E+03  0.00000000000E+00 0. -1.
    9000007    2    1    2  502    0  0.25432377968E+03  0.20505605467E+03  0.12264064753E+04  0.13307134039E+04  0.39999593774E+03 0.  0.
    9000005    1    3    3    0    0 -0.20626391421E+02  0.51802715637E+02 -0.84186575837E+01  0.56398964172E+02  0.99999687468E+00 0.  0.
          4    1    3    3  502    0  0.27495017110E+03  0.15325333903E+03  0.12348251329E+04  0.12743144397E+04  0.00000000000E+00 0.  1.
   -9000007    1    1    2    0  501 -0.25432377968E+03 -0.20505605467E+03  0.73461133197E+03  0.89798796179E+03  0.40000000000E+03 0. -1.
<mgrwt>
<rscale>  2 0.51645614E+03</rscale>
<asrwt>0</asrwt>
<pdfrwt beam="1">  1        1 0.32228607E+00 0.51645614E+03</pdfrwt>
<pdfrwt beam="2">  1       -1 0.20591045E-01 0.51645614E+03</pdfrwt>
<totfact> 0.53510211E+01</totfact>
</mgrwt>
</event>
<event>
 6    1  0.8861680E-004  0.4370161E+03  0.7818608E-02  0.1031666E+00
          2   -1    0    0  502    0  0.00000000000E+00  0.00000000000E+00  0.20811685190E+04  0.20811685190E+04  0.00000000000E+00 0. -1.
         -2   -1    0    0    0  501 -0.00000000000E+00 -0.00000000000E+00 -0.93156517778E+02  0.93156517778E+02  0.00000000000E+00 0.  1.
    9000007    2    1    2  502    0  0.15821740387E+03 -0.79511830732E+02  0.86029345278E+03  0.96473667596E+03  0.39907035839E+03 0.  0.
    9000005    1    3    3    0    0 -0.47779543648E+02 -0.15952982776E+03  0.60295601355E+03  0.62553145804E+03  0.99999687468E+00 0.  0.
          4    1    3    3  502    0  0.20599694752E+03  0.80017997025E+02  0.25733743923E+03  0.33920521792E+03  0.00000000000E+00 0.  1.
   -9000007    1    1    2    0  501 -0.15821740387E+03  0.79511830732E+02  0.11277185484E+04  0.12095883608E+04  0.40000000000E+03 0. -1.
<mgrwt>
<rscale>  2 0.43701612E+03</rscale>
<asrwt>0</asrwt>
<pdfrwt beam="1">  1        2 0.32017974E+00 0.43701612E+03</pdfrwt>
<pdfrwt beam="2">  1       -2 0.14331774E-01 0.43701612E+03</pdfrwt>
<totfact> 0.24205592E+02</totfact>
</mgrwt>
</event>
<event>
 6    1  0.8861680E-004  0.4605392E+03  0.7818608E-02  0.1024625E+00
          1   -1    0    0  502    0  0.00000000000E+00  0.00000000000E+00  0.34399540505E+03  0.34399540505E+03  0.00000000000E+00 0. -1.
         -1   -1    0    0    0  501 -0.00000000000E+00 -0.00000000000E+00 -0.74976482506E+03  0.74976482506E+03  0.00000000000E+00 0.  1.
    9000007    2    1    2  502    0 -0.21098603669E+03  0.88143237916E+02  0.27692560832E+02  0.46116744885E+03  0.39952997369E+03 0.  0.
    9000005    1    3    3    0    0  0.34897020533E+02 -0.51660676465E+02  0.14278040593E+03  0.15580074405E+03  0.99999687468E+00 0.  0.
          4    1    3    3  502    0 -0.24588305722E+03  0.13980391438E+03 -0.11508784510E+03  0.30536670479E+03  0.00000000000E+00 0.  1.
   -9000007    1    1    2    0  501  0.21098603669E+03 -0.88143237916E+02 -0.43346198084E+03  0.63259278126E+03  0.40000000000E+03 0. -1.
<mgrwt>
<rscale>  2 0.46053920E+03</rscale>
<asrwt>0</asrwt>
<pdfrwt beam="1">  1        1 0.52922371E-01 0.46053920E+03</pdfrwt>
<pdfrwt beam="2">  1       -1 0.11534843E+00 0.46053920E+03</pdfrwt>
<totfact> 0.52430310E+01</totfact>
</mgrwt>
</event>
<event>
 6    1  0.8861680E-004  0.4859104E+03  0.7818608E-02  0.1017523E+00
          1   -1    0    0  502    0  0.00000000000E+00  0.00000000000E+00  0.25218129867E+03  0.25218129867E+03  0.00000000000E+00 0.  1.
         -1   -1    0    0    0  501 -0.00000000000E+00 -0.00000000000E+00 -0.10385063116E+04  0.10385063116E+04  0.00000000000E+00 0. -1.
    9000007    2    1    2  502    0  0.80204143545E+01 -0.28615836221E+03 -0.59116475346E+03  0.76150100592E+03  0.38530128598E+03 0.  0.
    9000005    1    3    3    0    0  0.11257488903E+03 -0.34299881390E+03 -0.44419537017E+03  0.57239131619E+03  0.99999687468E+00 0.  0.
          4    1    3    3  502    0 -0.10455447468E+03  0.56840451691E+02 -0.14696938329E+03  0.18910968973E+03  0.00000000000E+00 0.  1.
   -9000007    1    1    2    0  501 -0.80204143545E+01  0.28615836221E+03 -0.19516025942E+03  0.52918660430E+03  0.40000000000E+03 0.  1.
<mgrwt>
<rscale>  2 0.48591043E+03</rscale>
<asrwt>0</asrwt>
<pdfrwt beam="1">  1        1 0.38797123E-01 0.48591043E+03</pdfrwt>
<pdfrwt beam="2">  1       -1 0.15977020E+00 0.48591043E+03</pdfrwt>
<totfact> 0.33929788E+01</totfact>
</mgrwt>
</event>
<event>
 6    1  0.8861680E-004  0.7335941E+03  0.7818608E-02  0.9661446E-01
          1   -1    0    0  502    0  0.00000000000E+00  0.00000000000E+00  0.91265851695E+03  0.91265851695E+03  0.00000000000E+00 0. -1.
         -1   -1    0    0    0  501 -0.00000000000E+00 -0.00000000000E+00 -0.70423186461E+03  0.70423186461E+03  0.00000000000E+00 0.  1.
    9000007    2    1    2  502    0 -0.51918073976E+03 -0.32958004175E+03  0.43029489320E+03  0.85047198358E+03  0.39997156809E+03 0.  0.
    9000005    1    3    3    0    0 -0.54890633995E+03 -0.38061051447E+03  0.42380644414E+03  0.79105969171E+03  0.99999687468E+00 0.  0.
          4    1    3    3  502    0  0.29725600189E+02  0.51030472728E+02  0.64884490624E+01  0.59412291865E+02  0.00000000000E+00 0.  1.
   -9000007    1    1    2    0  501  0.51918073976E+03  0.32958004175E+03 -0.22186824086E+03  0.76641839798E+03  0.40000000000E+03 0.  1.
<mgrwt>
<rscale>  2 0.73359408E+03</rscale>
<asrwt>0</asrwt>
<pdfrwt beam="1">  1        1 0.14040900E+00 0.73359408E+03</pdfrwt>
<pdfrwt beam="2">  1       -1 0.10834336E+00 0.73359408E+03</pdfrwt>
<totfact> 0.14506592E+01</totfact>
</mgrwt>
</event>
<event>
 6    1  0.8861680E-004  0.4011845E+03  0.7818608E-02  0.1043370E+00
         -1   -1    0    0    0  501 -0.00000000000E+00  0.00000000000E+00  0.75723977417E+03  0.75723977417E+03  0.00000000000E+00 0. -1.
          1   -1    0    0  502    0  0.00000000000E+00 -0.00000000000E+00 -0.46812429080E+03  0.46812429080E+03  0.00000000000E+00 0.  1.
    9000007    2    1    2  502    0 -0.35312230143E+02 -0.84694919009E+01 -0.30822258023E+03  0.50555058349E+03  0.39907586699E+03 0.  0.
    9000005    1    3    3    0    0 -0.13448746635E+03 -0.15831867785E+03 -0.10011869303E+03  0.23060016273E+03  0.99999687468E+00 0.  0.
          4    1    3    3  502    0  0.99175236211E+02  0.14984918595E+03 -0.20810388719E+03  0.27495042076E+03  0.00000000000E+00 0.  1.
   -9000007    1    1    2    0  501  0.35312230143E+02  0.84694919009E+01  0.59733806360E+03  0.71981348148E+03  0.40000000000E+03 0. -1.
<mgrwt>
<rscale>  2 0.40118454E+03</rscale>
<asrwt>0</asrwt>
<pdfrwt beam="1">  1        1 0.72019122E-01 0.40118454E+03</pdfrwt>
<pdfrwt beam="2">  1       -1 0.11649843E+00 0.40118454E+03</pdfrwt>
<totfact> 0.34519166E+01</totfact>
</mgrwt>
</event>
<event>
 6    1  0.8861680E-004  0.8475700E+03  0.7818608E-02  0.9493604E-01
         -2   -1    0    0    0  501 -0.00000000000E+00  0.00000000000E+00  0.65706958298E+03  0.65706958298E+03  0.00000000000E+00 0. -1.
          2   -1    0    0  502    0  0.00000000000E+00 -0.00000000000E+00 -0.10933811017E+04  0.10933811017E+04  0.00000000000E+00 0.  1.
    9000007    2    1    2  502    0 -0.23506504850E+03  0.70919892192E+03 -0.21069081416E+03  0.87345388294E+03  0.40039028283E+03 0.  0.
    9000005    1    3    3    0    0 -0.13501008230E+03  0.47165976523E+03  0.66330398923E+02  0.49506704422E+03  0.99999687468E+00 0.  0.
          4    1    3    3  502    0 -0.10005496620E+03  0.23753915669E+03 -0.27702121308E+03  0.37838683872E+03  0.00000000000E+00 0.  1.
   -9000007    1    1    2    0  501  0.23506504850E+03 -0.70919892192E+03 -0.22562070451E+03  0.87699680169E+03  0.40000000000E+03 0. -1.
<mgrwt>
<rscale>  2 0.84756997E+03</rscale>
<asrwt>0</asrwt>
<pdfrwt beam="1">  1        2 0.16821247E+00 0.84756997E+03</pdfrwt>
<pdfrwt beam="2">  1       -2 0.10108763E+00 0.84756997E+03</pdfrwt>
<totfact> 0.17837686E+01</totfact>
</mgrwt>
</event>
<event>
 6    1  0.8861680E-004  0.5697511E+03  0.7818608E-02  0.9970230E-01
         -1   -1    0    0    0  501 -0.00000000000E+00  0.00000000000E+00  0.38140769816E+03  0.38140769816E+03  0.00000000000E+00 0. -1.
          1   -1    0    0  502    0  0.00000000000E+00 -0.00000000000E+00 -0.92002793271E+03  0.92002793271E+03  0.00000000000E+00 0.  1.
    9000007    2    1    2  502    0  0.28842225675E+03  0.28530275586E+03 -0.44743206503E+03  0.72446046420E+03  0.40007805574E+03 0.  0.
    9000005    1    3    3    0    0  0.27323986126E+03  0.97864854186E+02 -0.45106331804E+03  0.53637362756E+03  0.99999687468E+00 0.  0.
          4    1    3    3  502    0  0.15182395484E+02  0.18743790167E+03  0.36312530147E+01  0.18808683663E+03  0.00000000000E+00 0.  1.
   -9000007    1    1    2    0  501 -0.28842225675E+03 -0.28530275586E+03 -0.91188169525E+02  0.57697516667E+03  0.40000000000E+03 0. -1.
<mgrwt>
<rscale>  2 0.56975107E+03</rscale>
<asrwt>0</asrwt>
<pdfrwt beam="1">  1        1 0.14154276E+00 0.56975107E+03</pdfrwt>
<pdfrwt beam="2">  1       -1 0.58678108E-01 0.56975107E+03</pdfrwt>
<totfact> 0.53818479E+01</totfact>
</mgrwt>
</event>
<event>
 6    1  0.8861680E-004  0.4386908E+03  0.7818608E-02  0.1031149E+00
         -1   -1    0    0    0  501 -0.00000000000E+00  0.00000000000E+00  0.22035879241E+03  0.22035879241E+03  0.00000000000E+00 0. -1.
          1   -1    0    0  502    0  0.00000000000E+00 -0.00000000000E+00 -0.89602144351E+03  0.89602144351E+03  0.00000000000E+00 0.  1.
    9000007    2    1    2  502    0 -0.95312220417E+02 -0.15251850715E+03 -0.24912333139E+03  0.50459423931E+03  0.40025816384E+03 0.  0.
    9000005    1    3    3    0    0  0.12104206437E+03  0.56336323589E+02 -0.43982065229E+02  0.14057163568E+03  0.99999687468E+00 0.  0.
          4    1    3    3  502    0 -0.21635428479E+03 -0.20885483074E+03 -0.20514126616E+03  0.36402260363E+03  0.00000000000E+00 0.  1.
   -9000007    1    1    2    0  501  0.95312220417E+02  0.15251850715E+03 -0.42653931971E+03  0.61178599660E+03  0.40000000000E+03 0.  1.
<mgrwt>
<rscale>  2 0.43869076E+03</rscale>
<asrwt>0</asrwt>
<pdfrwt beam="1">  1        1 0.13784945E+00 0.43869076E+03</pdfrwt>
<pdfrwt beam="2">  1       -1 0.33901353E-01 0.43869076E+03</pdfrwt>
<totfact> 0.15711283E+02</totfact>
</mgrwt>
</event>
<event>
 6    1  0.8861680E-004  0.4021349E+03  0.7818608E-02  0.1043043E+00
         -1   -1    0    0    0  501 -0.00000000000E+00  0.00000000000E+00  0.22826824741E+03  0.22826824741E+03  0.00000000000E+00 0. -1.
          1   -1    0    0  502    0  0.00000000000E+00 -0.00000000000E+00 -0.71087071011E+03  0.71087071011E+03  0.00000000000E+00 0.  1.
    9000007    2    1    2  502    0  0.21469263500E+01  0.41923287816E+02 -0.26876798802E+03  0.48363115966E+03  0.39987585055E+03 0.  0.
    9000005    1    3    3    0    0 -0.29670828580E+02  0.89308690161E+02  0.84076982770E+02  0.12619960076E+03  0.99999687468E+00 0.  0.
          4    1    3    3  502    0  0.31817754930E+02 -0.47385402345E+02 -0.35284497079E+03  0.35743155890E+03  0.00000000000E+00 0.  1.
   -9000007    1    1    2    0  501 -0.21469263500E+01 -0.41923287816E+02 -0.21383447467E+03  0.45550779786E+03  0.40000000000E+03 0. -1.
<mgrwt>
<rscale>  2 0.40213494E+03</rscale>
<asrwt>0</asrwt>
<pdfrwt beam="1">  1        1 0.10936472E+00 0.40213494E+03</pdfrwt>
<pdfrwt beam="2">  1       -1 0.35118193E-01 0.40213494E+03</pdfrwt>
<totfact> 0.21313014E+02</totfact>
</mgrwt>
</event>
<event>
 6    1  0.8861680E-004  0.4946235E+03  0.7818608E-02  0.1015192E+00
          2   -1    0    0  502    0  0.00000000000E+00  0.00000000000E+00  0.13154273285E+04  0.13154273285E+04  0.00000000000E+00 0. -1.
         -2   -1    0    0    0  501 -0.00000000000E+00 -0.00000000000E+00 -0.21153487856E+03  0.21153487856E+03  0.00000000000E+00 0.  1.
    9000007    2    1    2  502    0 -0.55269370420E+02  0.28448184119E+03  0.28728278608E+03  0.57258494182E+03  0.40166838952E+03 0.  0.
    9000005    1    3    3    0    0 -0.16335416820E+02  0.89625550993E+02  0.35200332720E+03  0.36360270569E+03  0.99999687468E+00 0.  0.
          4    1    3    3  502    0 -0.38933953600E+02  0.19485629020E+03 -0.64720541120E+02  0.20898223613E+03  0.00000000000E+00 0.  1.
   -9000007    1    1    2    0  501  0.55269370420E+02 -0.28448184119E+03  0.81660966385E+03  0.95437726522E+03  0.40000000000E+03 0. -1.
<mgrwt>
<rscale>  2 0.49462355E+03</rscale>
<asrwt>0</asrwt>
<pdfrwt beam="1">  1        2 0.20237343E+00 0.49462355E+03</pdfrwt>
<pdfrwt beam="2">  1       -2 0.32543828E-01 0.49462355E+03</pdfrwt>
<totfact> 0.14796413E+02</totfact>
</mgrwt>
</event>
<event>
 6    1  0.8861680E-004  0.5870634E+03  0.7818608E-02  0.9932615E-01
          1   -1    0    0  502    0  0.00000000000E+00  0.00000000000E+00  0.86928922333E+03  0.86928922333E+03  0.00000000000E+00 0. -1.
         -1   -1    0    0    0  501 -0.00000000000E+00 -0.00000000000E+00 -0.41862748301E+03  0.41862748301E+03  0.00000000000E+00 0.  1.
    9000007    2    1    2  502    0  0.40905161216E+03 -0.13079000720E+03  0.77232386070E+02  0.59230278324E+03  0.40053526458E+03 0.  0.
    9000005    1    3    3    0    0  0.13608298977E+03 -0.24963844197E+03 -0.15882005714E+01  0.28432631639E+03  0.99999687468E+00 0.  0.
          4    1    3    3  502    0  0.27296862239E+03  0.11884843477E+03  0.78820586642E+02  0.30797646685E+03  0.00000000000E+00 0.  1.
   -9000007    1    1    2    0  501 -0.40905161216E+03  0.13079000720E+03  0.37342935425E+03  0.69561392310E+03  0.40000000000E+03 0. -1.
<mgrwt>
<rscale>  2 0.58706340E+03</rscale>
<asrwt>0</asrwt>
<pdfrwt beam="1">  1        1 0.13373680E+00 0.58706340E+03</pdfrwt>
<pdfrwt beam="2">  1       -1 0.64404228E-01 0.58706340E+03</pdfrwt>
<totfact> 0.49129742E+01</totfact>
</mgrwt>
</event>
<event>
 6    1  0.8861680E-004  0.4199287E+03  0.7818608E-02  0.1037090E+00
          2   -1    0    0  502    0  0.00000000000E+00  0.00000000000E+00  0.24575318340E+04  0.24575318340E+04  0.00000000000E+00 0. -1.
         -2   -1    0    0    0  501 -0.00000000000E+00 -0.00000000000E+00 -0.93326281110E+02  0.93326281110E+02  0.00000000000E+00 0.  1.
    9000007    2    1    2  502    0 -0.32561933770E+02  0.12382711147E+03  0.56877856001E+03  0.70696236973E+03  0.39986661379E+03 0.  0.
    9000005    1    3    3    0    0 -0.43989080100E+02  0.13244670027E+03  0.62939287519E+03  0.64468097452E+03  0.99999687468E+00 0.  0.
          4    1    3    3  502    0  0.11427146330E+02 -0.86195888005E+01 -0.60614315179E+02  0.62281395207E+02  0.00000000000E+00 0.  1.
   -9000007    1    1    2    0  501  0.32561933770E+02 -0.12382711147E+03  0.17954269929E+04  0.18438957454E+04  0.40000000000E+03 0. -1.
<mgrwt>
<rscale>  2 0.41992866E+03</rscale>
<asrwt>0</asrwt>
<pdfrwt beam="1">  1        2 0.37808177E+00 0.41992866E+03</pdfrwt>
<pdfrwt beam="2">  1       -2 0.14357891E-01 0.41992866E+03</pdfrwt>
<totfact> 0.15097880E+02</totfact>
</mgrwt>
</event>
<event>
 6    1  0.8861680E-004  0.4015457E+03  0.7818608E-02  0.1043246E+00
          2   -1    0    0  502    0  0.00000000000E+00  0.00000000000E+00  0.59105114173E+03  0.59105114173E+03  0.00000000000E+00 0. -1.
         -2   -1    0    0    0  501 -0.00000000000E+00 -0.00000000000E+00 -0.38653834589E+03  0.38653834589E+03  0.00000000000E+00 0.  1.
    9000007    2    1    2  502    0  0.33484311620E+02 -0.11882303806E+02 -0.16289368292E+03  0.43330104488E+03  0.39994131481E+03 0.  0.
    9000005    1    3    3    0    0  0.14266873542E+03  0.33055961608E+02  0.77341302069E+02  0.16561926718E+03  0.99999687468E+00 0.  0.
          4    1    3    3  502    0 -0.10918442380E+03 -0.44938265414E+02 -0.24023498498E+03  0.26768177769E+03  0.00000000000E+00 0.  1.
   -9000007    1    1    2    0  501 -0.33484311620E+02  0.11882303806E+02  0.36740647876E+03  0.54428844275E+03  0.40000000000E+03 0. -1.
<mgrwt>
<rscale>  2 0.40154566E+03</rscale>
<asrwt>0</asrwt>
<pdfrwt beam="1">  1        2 0.90930944E-01 0.40154566E+03</pdfrwt>
<pdfrwt beam="2">  1       -2 0.59467438E-01 0.40154566E+03</pdfrwt>
<totfact> 0.13792854E+02</totfact>
</mgrwt>
</event>
<event>
 6    1  0.8861680E-004  0.4001096E+03  0.7818608E-02  0.1043742E+00
          2   -1    0    0  502    0  0.00000000000E+00  0.00000000000E+00  0.18575854955E+04  0.18575854955E+04  0.00000000000E+00 0.  1.
         -2   -1    0    0    0  501 -0.00000000000E+00 -0.00000000000E+00 -0.10114819051E+03  0.10114819051E+03  0.00000000000E+00 0. -1.
    9000007    2    1    2  502    0  0.57077171897E+01  0.28047038921E+02  0.12532477422E+04  0.13152906422E+04  0.39817126456E+03 0.  0.
    9000005    1    3    3    0    0  0.81112382555E+02  0.21307767269E+02  0.29056852014E+02  0.88761141230E+02  0.99999687468E+00 0.  0.
          4    1    3    3  502    0 -0.75404665365E+02  0.67392716514E+01  0.12241908902E+04  0.12265295010E+04  0.00000000000E+00 0.  1.
   -9000007    1    1    2    0  501 -0.57077171897E+01 -0.28047038921E+02  0.50318956280E+03  0.64344304374E+03  0.40000000000E+03 0. -1.
<mgrwt>
<rscale>  2 0.40010965E+03</rscale>
<asrwt>0</asrwt>
<pdfrwt beam="1">  1        2 0.28578236E+00 0.40010965E+03</pdfrwt>
<pdfrwt beam="2">  1       -2 0.15561261E-01 0.40010965E+03</pdfrwt>
<totfact> 0.27928640E+02</totfact>
</mgrwt>
</event>
<event>
 6    1  0.8861680E-004  0.4239599E+03  0.7818608E-02  0.1035785E+00
          1   -1    0    0  502    0  0.00000000000E+00  0.00000000000E+00  0.10829576306E+04  0.10829576306E+04  0.00000000000E+00 0. -1.
         -1   -1    0    0    0  501 -0.00000000000E+00 -0.00000000000E+00 -0.25570662863E+03  0.25570662863E+03  0.00000000000E+00 0.  1.
    9000007    2    1    2  502    0 -0.16828190579E+02 -0.14061447588E+03  0.80989520108E+03  0.91397985566E+03  0.39921588271E+03 0.  0.
    9000005    1    3    3    0    0  0.74548222163E+02 -0.22365829902E+03  0.72947381692E+03  0.76662475939E+03  0.99999687468E+00 0.  0.
          4    1    3    3  502    0 -0.91376412742E+02  0.83043823139E+02  0.80421384154E+02  0.14735509627E+03  0.00000000000E+00 0.  1.
   -9000007    1    1    2    0  501  0.16828190579E+02  0.14061447588E+03  0.17355800924E+02  0.42468440359E+03  0.40000000000E+03 0.  1.
<mgrwt>
<rscale>  2 0.42395991E+03</rscale>
<asrwt>0</asrwt>
<pdfrwt beam="1">  1        1 0.16660886E+00 0.42395991E+03</pdfrwt>
<pdfrwt beam="2">  1       -1 0.39339482E-01 0.42395991E+03</pdfrwt>
<totfact> 0.86907041E+01</totfact>
</mgrwt>
</event>
<event>
 6    1  0.8861680E-004  0.4020125E+03  0.7818608E-02  0.1043085E+00
         -1   -1    0    0    0  501 -0.00000000000E+00  0.00000000000E+00  0.19343511090E+03  0.19343511090E+03  0.00000000000E+00 0. -1.
          1   -1    0    0  502    0  0.00000000000E+00 -0.00000000000E+00 -0.88302707885E+03  0.88302707885E+03  0.00000000000E+00 0.  1.
    9000007    2    1    2  502    0 -0.37925842648E+02  0.95056640575E+01 -0.22000716254E+03  0.45836946479E+03  0.40021330249E+03 0.  0.
    9000005    1    3    3    0    0 -0.21214098334E+03  0.12186861691E+02 -0.57555784627E+02  0.22014991426E+03  0.99999687468E+00 0.  0.
          4    1    3    3  502    0  0.17421514069E+03 -0.26811976335E+01 -0.16245137792E+03  0.23821955053E+03  0.00000000000E+00 0.  1.
   -9000007    1    1    2    0  501  0.37925842648E+02 -0.95056640575E+01 -0.46958480541E+03  0.61809272497E+03  0.40000000000E+03 0.  1.
<mgrwt>
<rscale>  2 0.40201250E+03</rscale>
<asrwt>0</asrwt>
<pdfrwt beam="1">  1        1 0.13585032E+00 0.40201250E+03</pdfrwt>
<pdfrwt beam="2">  1       -1 0.29759248E-01 0.40201250E+03</pdfrwt>
<totfact> 0.20264825E+02</totfact>
</mgrwt>
</event>
<event>
 6    1  0.8861680E-004  0.4119346E+03  0.7818608E-02  0.1039724E+00
          1   -1    0    0  502    0  0.00000000000E+00  0.00000000000E+00  0.20896682945E+04  0.20896682945E+04  0.00000000000E+00 0. -1.
         -1   -1    0    0    0  501 -0.00000000000E+00 -0.00000000000E+00 -0.92113999844E+02  0.92113999844E+02  0.00000000000E+00 0.  1.
    9000007    2    1    2  502    0  0.20605684217E+02 -0.92953964040E+02  0.13758224408E+04  0.14363860697E+04  0.40156259647E+03 0.  0.
    9000005    1    3    3    0    0 -0.26320381919E+02 -0.18604681406E+03  0.12833479401E+04  0.12970308843E+04  0.99999687468E+00 0.  0.
          4    1    3    3  502    0  0.46926066136E+02  0.93092850022E+02  0.92474500741E+02  0.13935518539E+03  0.00000000000E+00 0.  1.
   -9000007    1    1    2    0  501 -0.20605684217E+02  0.92953964040E+02  0.62173185384E+03  0.74539622466E+03  0.40000000000E+03 0.  1.
<mgrwt>
<rscale>  2 0.41193463E+03</rscale>
<asrwt>0</asrwt>
<pdfrwt beam="1">  1        1 0.32148739E+00 0.41193463E+03</pdfrwt>
<pdfrwt beam="2">  1       -1 0.14171386E-01 0.41193463E+03</pdfrwt>
<totfact> 0.10099441E+02</totfact>
</mgrwt>
</event>
<event>
 6    1  0.8861680E-004  0.3999738E+03  0.7818608E-02  0.1043789E+00
         -1   -1    0    0    0  501 -0.00000000000E+00  0.00000000000E+00  0.39477326154E+03  0.39477326154E+03  0.00000000000E+00 0.  1.
          1   -1    0    0  502    0  0.00000000000E+00 -0.00000000000E+00 -0.65799252077E+03  0.65799252077E+03  0.00000000000E+00 0. -1.
    9000007    2    1    2  502    0 -0.12055054934E+02 -0.10057317532E+02 -0.45778119923E+03  0.60768059666E+03  0.39933145030E+03 0.  0.
    9000005    1    3    3    0    0 -0.76740982585E+02  0.13789459972E+03 -0.40994075339E+03  0.43926816448E+03  0.99999687468E+00 0.  0.
          4    1    3    3  502    0  0.64685927651E+02 -0.14795191725E+03 -0.47840445842E+02  0.16841243218E+03  0.00000000000E+00 0.  1.
   -9000007    1    1    2    0  501  0.12055054934E+02  0.10057317532E+02  0.19456194000E+03  0.44508518565E+03  0.40000000000E+03 0.  1.
<mgrwt>
<rscale>  2 0.39997382E+03</rscale>
<asrwt>0</asrwt>
<pdfrwt beam="1">  1        1 0.10122962E+00 0.39997382E+03</pdfrwt>
<pdfrwt beam="2">  1       -1 0.60734348E-01 0.39997382E+03</pdfrwt>
<totfact> 0.86845892E+01</totfact>
</mgrwt>
</event>
<event>
 6    1  0.8861680E-004  0.7861948E+03  0.7818608E-02  0.9580217E-01
         -1   -1    0    0    0  501 -0.00000000000E+00  0.00000000000E+00  0.11533639369E+04  0.11533639369E+04  0.00000000000E+00 0. -1.
          1   -1    0    0  502    0  0.00000000000E+00 -0.00000000000E+00 -0.63221150874E+03  0.63221150874E+03  0.00000000000E+00 0.  1.
    9000007    2    1    2  502    0 -0.65438578326E+02  0.67360113186E+03 -0.87848970018E+02  0.79113922579E+03  0.40020387388E+03 0.  0.
    9000005    1    3    3    0    0  0.15960384988E+03  0.25168745608E+03 -0.95323258826E+02  0.31290172277E+03  0.99999687468E+00 0.  0.
          4    1    3    3  502    0 -0.22504242820E+03  0.42191367578E+03  0.74742888078E+01  0.47823750302E+03  0.00000000000E+00 0.  1.
   -9000007    1    1    2    0  501  0.65438578326E+02 -0.67360113186E+03  0.60900139822E+03  0.99443621988E+03  0.40000000000E+03 0. -1.
<mgrwt>
<rscale>  2 0.78619480E+03</rscale>
<asrwt>0</asrwt>
<pdfrwt beam="1">  1        1 0.97263309E-01 0.78619480E+03</pdfrwt>
<pdfrwt beam="2">  1       -1 0.17744061E+00 0.78619480E+03</pdfrwt>
<totfact> 0.70841677E+00</totfact>
</mgrwt>
</event>
<event>
 6    1  0.8861680E-004  0.5388802E+03  0.7818608E-02  0.1004101E+00
         -2   -1    0    0    0  501 -0.00000000000E+00  0.00000000000E+00  0.25534381230E+03  0.25534381230E+03  0.00000000000E+00 0. -1.
          2   -1    0    0  502    0  0.00000000000E+00 -0.00000000000E+00 -0.14778969446E+04  0.14778969446E+04  0.00000000000E+00 0.  1.
    9000007    2    1    2  502    0  0.50975155808E+02  0.35740429141E+03 -0.19526369642E+03  0.57321494724E+03  0.40013893908E+03 0.  0.
    9000005    1    3    3    0    0  0.84557599503E+02  0.43906239654E+03 -0.13786314209E+03  0.46790279079E+03  0.99999687468E+00 0.  0.
          4    1    3    3  502    0 -0.33582443695E+02 -0.81658105129E+02 -0.57400554334E+02  0.10531215645E+03  0.00000000000E+00 0.  1.
   -9000007    1    1    2    0  501 -0.50975155808E+02 -0.35740429141E+03 -0.10272894359E+04  0.11600258097E+04  0.40000000000E+03 0.  1.
<mgrwt>
<rscale>  2 0.53888020E+03</rscale>
<asrwt>0</asrwt>
<pdfrwt beam="1">  1        2 0.22736876E+00 0.53888020E+03</pdfrwt>
<pdfrwt beam="2">  1       -2 0.39283663E-01 0.53888020E+03</pdfrwt>
<totfact> 0.83503895E+01</totfact>
</mgrwt>
</event>
<event>
 6    1  0.8861680E-004  0.5715686E+03  0.7818608E-02  0.9966213E-01
         -1   -1    0    0    0  501 -0.00000000000E+00  0.00000000000E+00  0.19554169359E+03  0.19554169359E+03  0.00000000000E+00 0.  1.
          1   -1    0    0  502    0  0.00000000000E+00 -0.00000000000E+00 -0.21479658879E+04  0.21479658879E+04  0.00000000000E+00 0. -1.
    9000007    2    1    2  502    0 -0.63895650396E+02 -0.40258309774E+03 -0.15291712088E+04  0.16326637910E+04  0.40133609852E+03 0.  0.
    9000005    1    3    3    0    0 -0.15577797019E+03 -0.19737022658E+03 -0.34254379525E+03  0.42492238585E+03  0.99999687468E+00 0.  0.
          4    1    3    3  502    0  0.91882319796E+02 -0.20521287115E+03 -0.11866274136E+04  0.12077414052E+04  0.00000000000E+00 0.  1.
   -9000007    1    1    2    0  501  0.63895650396E+02  0.40258309774E+03 -0.42325298552E+03  0.71084379049E+03  0.40000000000E+03 0.  1.
<mgrwt>
<rscale>  2 0.57156863E+03</rscale>
<asrwt>0</asrwt>
<pdfrwt beam="1">  1        1 0.33045630E+00 0.57156863E+03</pdfrwt>
<pdfrwt beam="2">  1       -1 0.30083337E-01 0.57156863E+03</pdfrwt>
<totfact> 0.25694126E+01</totfact>
</mgrwt>
</event>
<event>
 6    1  0.8861680E-004  0.4993138E+03  0.7818608E-02  0.1013958E+00
          2   -1    0    0  502    0  0.00000000000E+00  0.00000000000E+00  0.13076662914E+04  0.13076662914E+04  0.00000000000E+00 0.  1.
         -2   -1    0    0    0  501 -0.00000000000E+00 -0.00000000000E+00 -0.23908827238E+03  0.23908827238E+03  0.00000000000E+00 0. -1.
    9000007    2    1    2  502    0  0.12934480683E+03 -0.27056718247E+03  0.88183746657E+03  0.10130798378E+04  0.39844292056E+03 0.  0.
    9000005    1    3    3    0    0  0.61406647767E+02  0.10076197463E+03  0.26185160810E+03  0.28721249377E+03  0.99999687468E+00 0.  0.
          4    1    3    3  502    0  0.67938159062E+02 -0.37132915710E+03  0.61998585847E+03  0.72586734399E+03  0.00000000000E+00 0.  1.
   -9000007    1    1    2    0  501 -0.12934480683E+03  0.27056718247E+03  0.18674055247E+03  0.53367472605E+03  0.40000000000E+03 0. -1.
<mgrwt>
<rscale>  2 0.49931381E+03</rscale>
<asrwt>0</asrwt>
<pdfrwt beam="1">  1        2 0.20117942E+00 0.49931381E+03</pdfrwt>
<pdfrwt beam="2">  1       -2 0.36782812E-01 0.49931381E+03</pdfrwt>
<totfact> 0.11855449E+02</totfact>
</mgrwt>
</event>
<event>
 6    1  0.8861680E-004  0.4337823E+03  0.7818608E-02  0.1032672E+00
          1   -1    0    0  502    0  0.00000000000E+00  0.00000000000E+00  0.10365367181E+03  0.10365367181E+03  0.00000000000E+00 0.  1.
         -1   -1    0    0    0  501 -0.00000000000E+00 -0.00000000000E+00 -0.18761419307E+04  0.18761419307E+04  0.00000000000E+00 0. -1.
    9000007    2    1    2  502    0  0.15874151940E+03  0.55449235809E+02 -0.10641986952E+04  0.11491647616E+04  0.39973403512E+03 0.  0.
    9000005    1    3    3    0    0 -0.98126351799E+02  0.11151366957E+03 -0.22388537581E+03  0.26868148599E+03  0.99999687468E+00 0.  0.
          4    1    3    3  502    0  0.25686787120E+03 -0.56064433757E+02 -0.84031331936E+03  0.88048327564E+03  0.00000000000E+00 0.  1.
   -9000007    1    1    2    0  501 -0.15874151940E+03 -0.55449235809E+02 -0.70828956371E+03  0.83063084087E+03  0.40000000000E+03 0.  1.
<mgrwt>
<rscale>  2 0.43378233E+03</rscale>
<asrwt>0</asrwt>
<pdfrwt beam="1">  1        1 0.15946720E-01 0.43378233E+03</pdfrwt>
<pdfrwt beam="2">  1       -1 0.28863720E+00 0.43378233E+03</pdfrwt>
<totfact> 0.15101032E+01</totfact>
</mgrwt>
</event>
<event>
 6    1  0.8861680E-004  0.6863759E+03  0.7818608E-02  0.9740819E-01
          2   -1    0    0  502    0  0.00000000000E+00  0.00000000000E+00  0.74766816864E+03  0.74766816864E+03  0.00000000000E+00 0. -1.
         -2   -1    0    0    0  501 -0.00000000000E+00 -0.00000000000E+00 -0.72563029303E+03  0.72563029303E+03  0.00000000000E+00 0.  1.
    9000007    2    1    2  502    0  0.21398766201E+03  0.51506699515E+03 -0.25625371662E+03  0.73266971575E+03  0.40006776439E+03 0.  0.
    9000005    1    3    3    0    0 -0.10877602193E+03  0.75667757727E+02 -0.56562664278E+01  0.13263041073E+03  0.99999687468E+00 0.  0.
          4    1    3    3  502    0  0.32276368394E+03  0.43939923743E+03 -0.25059745019E+03  0.60003930502E+03  0.00000000000E+00 0.  1.
   -9000007    1    1    2    0  501 -0.21398766201E+03 -0.51506699515E+03  0.27829159223E+03  0.74062874593E+03  0.40000000000E+03 0. -1.
<mgrwt>
<rscale>  2 0.68637587E+03</rscale>
<asrwt>0</asrwt>
<pdfrwt beam="1">  1        2 0.11502587E+00 0.68637587E+03</pdfrwt>
<pdfrwt beam="2">  1       -2 0.11163543E+00 0.68637587E+03</pdfrwt>
<totfact> 0.24348786E+01</totfact>
</mgrwt>
</event>
<event>
 6    1  0.8861680E-004  0.4118600E+03  0.7818608E-02  0.1039749E+00
         -2   -1    0    0    0  501 -0.00000000000E+00  0.00000000000E+00  0.14405717662E+03  0.14405717662E+03  0.00000000000E+00 0.  1.
          2   -1    0    0  502    0  0.00000000000E+00 -0.00000000000E+00 -0.12165393539E+04  0.12165393539E+04  0.00000000000E+00 0. -1.
    9000007    2    1    2  502    0  0.87877720115E+02 -0.44279434889E+02 -0.65801075437E+03  0.77624242345E+03  0.39986370810E+03 0.  0.
    9000005    1    3    3    0    0  0.15082828258E+03 -0.12158748649E+03 -0.64765392573E+03  0.67600983366E+03  0.99999687468E+00 0.  0.
          4    1    3    3  502    0 -0.62950562469E+02  0.77308051598E+02 -0.10356828641E+02  0.10023258979E+03  0.00000000000E+00 0.  1.
   -9000007    1    1    2    0  501 -0.87877720115E+02  0.44279434889E+02 -0.41447142296E+03  0.58435410711E+03  0.40000000000E+03 0. -1.
<mgrwt>
<rscale>  2 0.41185998E+03</rscale>
<asrwt>0</asrwt>
<pdfrwt beam="1">  1        2 0.18715990E+00 0.41185998E+03</pdfrwt>
<pdfrwt beam="2">  1       -2 0.22162643E-01 0.41185998E+03</pdfrwt>
<totfact> 0.34068683E+02</totfact>
</mgrwt>
</event>
<event>
 6    1  0.8861680E-004  0.4032445E+03  0.7818608E-02  0.1042662E+00
          2   -1    0    0  502    0  0.00000000000E+00  0.00000000000E+00  0.10978685248E+04  0.10978685248E+04  0.00000000000E+00 0. -1.
         -2   -1    0    0    0  501 -0.00000000000E+00 -0.00000000000E+00 -0.15579462155E+03  0.15579462155E+03  0.00000000000E+00 0.  1.
    9000007    2    1    2  502    0  0.49699369246E+02 -0.54943761836E+00  0.33201574508E+03  0.52247145771E+03  0.40033940596E+03 0.  0.
    9000005    1    3    3    0    0  0.21170940662E+03 -0.24656495558E+02  0.27736362409E+03  0.34980050827E+03  0.99999687468E+00 0.  0.
          4    1    3    3  502    0 -0.16201003738E+03  0.24107057939E+02  0.54652120989E+02  0.17267094944E+03  0.00000000000E+00 0.  1.
   -9000007    1    1    2    0  501 -0.49699369246E+02  0.54943761836E+00  0.61005815819E+03  0.73119168865E+03  0.40000000000E+03 0. -1.
<mgrwt>
<rscale>  2 0.40324446E+03</rscale>
<asrwt>0</asrwt>
<pdfrwt beam="1">  1        2 0.16890285E+00 0.40324446E+03</pdfrwt>
<pdfrwt beam="2">  1       -2 0.23968404E-01 0.40324446E+03</pdfrwt>
<totfact> 0.34861725E+02</totfact>
</mgrwt>
</event>
<event>
 6    1  0.8861680E-004  0.4885190E+03  0.7818608E-02  0.1016820E+00
         -2   -1    0    0    0  501 -0.00000000000E+00  0.00000000000E+00  0.71480866004E+02  0.71480866004E+02  0.00000000000E+00 0. -1.
          2   -1    0    0  502    0  0.00000000000E+00 -0.00000000000E+00 -0.35985496818E+04  0.35985496818E+04  0.00000000000E+00 0.  1.
    9000007    2    1    2  502    0  0.27047586992E+03 -0.71922196132E+02 -0.12715031392E+04  0.13622379835E+04  0.40080181155E+03 0.  0.
    9000005    1    3    3    0    0  0.21142707528E+03 -0.53467634072E+02 -0.22300873308E+03  0.31192000750E+03  0.99999687468E+00 0.  0.
          4    1    3    3  502    0  0.59048794645E+02 -0.18454562060E+02 -0.10484944062E+04  0.10503179760E+04  0.00000000000E+00 0.  1.
   -9000007    1    1    2    0  501 -0.27047586992E+03  0.71922196132E+02 -0.22555656765E+04  0.23077925643E+04  0.40000000000E+03 0.  1.
<mgrwt>
<rscale>  2 0.48851902E+03</rscale>
<asrwt>0</asrwt>
<pdfrwt beam="1">  1        2 0.55362294E+00 0.48851902E+03</pdfrwt>
<pdfrwt beam="2">  1       -2 0.10997058E-01 0.48851902E+03</pdfrwt>
<totfact> 0.46267763E+01</totfact>
</mgrwt>
</event>
<event>
 6    1  0.8861680E-004  0.6576123E+03  0.7818608E-02  0.9792599E-01
          1   -1    0    0  502    0  0.00000000000E+00  0.00000000000E+00  0.18233569277E+04  0.18233569277E+04  0.00000000000E+00 0. -1.
         -1   -1    0    0    0  501 -0.00000000000E+00 -0.00000000000E+00 -0.23935596710E+03  0.23935596710E+03  0.00000000000E+00 0.  1.
    9000007    2    1    2  502    0  0.44916918308E+03 -0.26601306560E+03  0.69348565078E+03  0.95567476398E+03  0.39984497066E+03 0.  0.
    9000005    1    3    3    0    0  0.25414656247E+03 -0.29239151152E+03  0.64594964421E+03  0.75321657847E+03  0.99999687468E+00 0.  0.
          4    1    3    3  502    0  0.19502262061E+03  0.26378445925E+02  0.47536006567E+02  0.20245818551E+03  0.00000000000E+00 0.  1.
   -9000007    1    1    2    0  501 -0.44916918308E+03  0.26601306560E+03  0.89051530982E+03  0.11070381308E+04  0.40000000000E+03 0. -1.
<mgrwt>
<rscale>  2 0.65761227E+03</rscale>
<asrwt>0</asrwt>
<pdfrwt beam="1">  1        1 0.28051644E+00 0.65761227E+03</pdfrwt>
<pdfrwt beam="2">  1       -1 0.36823996E-01 0.65761227E+03</pdfrwt>
<totfact> 0.29175282E+01</totfact>
</mgrwt>
</event>
<event>
 6    1  0.8861680E-004  0.5310477E+03  0.7818608E-02  0.1005978E+00
         -2   -1    0    0    0  501 -0.00000000000E+00  0.00000000000E+00  0.11228242104E+04  0.11228242104E+04  0.00000000000E+00 0.  1.
          2   -1    0    0  502    0  0.00000000000E+00 -0.00000000000E+00 -0.25877621960E+03  0.25877621960E+03  0.00000000000E+00 0. -1.
    9000007    2    1    2  502    0  0.33644938764E+03  0.98365109060E+02  0.54986899538E+03  0.76387692692E+03  0.39784188099E+03 0.  0.
    9000005    1    3    3    0    0  0.26170335147E+03  0.87640572973E+02  0.79115782233E+02  0.28710594071E+03  0.99999687468E+00 0.  0.
          4    1    3    3  502    0  0.74746036174E+02  0.10724536087E+02  0.47075321315E+03  0.47677098621E+03  0.00000000000E+00 0.  1.
   -9000007    1    1    2    0  501 -0.33644938764E+03 -0.98365109060E+02  0.31417899544E+03  0.61772350311E+03  0.40000000000E+03 0. -1.
<mgrwt>
<rscale>  2 0.53104769E+03</rscale>
<asrwt>0</asrwt>
<pdfrwt beam="1">  1        2 0.39811727E-01 0.53104769E+03</pdfrwt>
<pdfrwt beam="2">  1       -2 0.17274218E+00 0.53104769E+03</pdfrwt>
<totfact> 0.27245633E+01</totfact>
</mgrwt>
</event>
<event>
 6    1  0.8861680E-004  0.4651101E+03  0.7818608E-02  0.1023309E+00
          1   -1    0    0  502    0  0.00000000000E+00  0.00000000000E+00  0.20301015302E+03  0.20301015302E+03  0.00000000000E+00 0.  1.
         -1   -1    0    0    0  501 -0.00000000000E+00 -0.00000000000E+00 -0.10742019936E+04  0.10742019936E+04  0.00000000000E+00 0. -1.
    9000007    2    1    2  502    0 -0.22998034250E+03  0.59747351280E+02 -0.37831387225E+03  0.59942944132E+03  0.39966681782E+03 0.  0.
    9000005    1    3    3    0    0 -0.17573800450E+02  0.36512736281E+01 -0.37931229748E+03  0.37973805349E+03  0.99999687468E+00 0.  0.
          4    1    3    3  502    0 -0.21240654205E+03  0.56096077652E+02  0.99842522815E+00  0.21969138783E+03  0.00000000000E+00 0.  1.
   -9000007    1    1    2    0  501  0.22998034250E+03 -0.59747351280E+02 -0.49287796830E+03  0.67778270527E+03  0.40000000000E+03 0.  1.
<mgrwt>
<rscale>  2 0.46511014E+03</rscale>
<asrwt>0</asrwt>
<pdfrwt beam="1">  1        1 0.31232331E-01 0.46511014E+03</pdfrwt>
<pdfrwt beam="2">  1       -1 0.16526184E+00 0.46511014E+03</pdfrwt>
<totfact> 0.40912802E+01</totfact>
</mgrwt>
</event>
<event>
 6    1  0.8861680E-004  0.5072762E+03  0.7818608E-02  0.1011897E+00
         -2   -1    0    0    0  501 -0.00000000000E+00  0.00000000000E+00  0.51298306850E+03  0.51298306850E+03  0.00000000000E+00 0.  1.
          2   -1    0    0  502    0  0.00000000000E+00 -0.00000000000E+00 -0.66856063910E+03  0.66856063910E+03  0.00000000000E+00 0. -1.
    9000007    2    1    2  502    0 -0.26529171966E+03  0.16520575815E+03 -0.37294788657E+03  0.62934583245E+03  0.39914084191E+03 0.  0.
    9000005    1    3    3    0    0  0.62964156507E+02  0.12290918138E+03 -0.23118646633E+03  0.26929414045E+03  0.99999687468E+00 0.  0.
          4    1    3    3  502    0 -0.32825587617E+03  0.42296576771E+02 -0.14176142025E+03  0.36005169201E+03  0.00000000000E+00 0.  1.
   -9000007    1    1    2    0  501  0.26529171966E+03 -0.16520575815E+03  0.21737031598E+03  0.55219787515E+03  0.40000000000E+03 0.  1.
<mgrwt>
<rscale>  2 0.50727617E+03</rscale>
<asrwt>0</asrwt>
<pdfrwt beam="1">  1        2 0.10285548E+00 0.50727617E+03</pdfrwt>
<pdfrwt beam="2">  1       -2 0.78920472E-01 0.50727617E+03</pdfrwt>
<totfact> 0.63924187E+01</totfact>
</mgrwt>
</event>
<event>
 6    1  0.8861680E-004  0.5194301E+03  0.7818608E-02  0.1008828E+00
          2   -1    0    0  502    0  0.00000000000E+00  0.00000000000E+00  0.16562420137E+04  0.16562420137E+04  0.00000000000E+00 0.  1.
         -2   -1    0    0    0  501 -0.00000000000E+00 -0.00000000000E+00 -0.16314703324E+03  0.16314703324E+03  0.00000000000E+00 0. -1.
    9000007    2    1    2  502    0 -0.14728402906E+03  0.29712409151E+03  0.71116970528E+03  0.88056933744E+03  0.39958065189E+03 0.  0.
    9000005    1    3    3    0    0 -0.22467991776E+03  0.32718504747E+03  0.42032264328E+03  0.57810314407E+03  0.99999687468E+00 0.  0.
          4    1    3    3  502    0  0.77395888698E+02 -0.30060955963E+02  0.29084706200E+03  0.30246619337E+03  0.00000000000E+00 0.  1.
   -9000007    1    1    2    0  501  0.14728402906E+03 -0.29712409151E+03  0.78192527515E+03  0.93881970947E+03  0.40000000000E+03 0. -1.
<mgrwt>
<rscale>  2 0.51943008E+03</rscale>
<asrwt>0</asrwt>
<pdfrwt beam="1">  1        2 0.25480645E+00 0.51943008E+03</pdfrwt>
<pdfrwt beam="2">  1       -2 0.25099545E-01 0.51943008E+03</pdfrwt>
<totfact> 0.15393369E+02</totfact>
</mgrwt>
</event>
<event>
 6    1  0.8861680E-004  0.4115284E+03  0.7818608E-02  0.1039859E+00
          1   -1    0    0  502    0  0.00000000000E+00  0.00000000000E+00  0.63252842824E+03  0.63252842824E+03  0.00000000000E+00 0. -1.
         -1   -1    0    0    0  501 -0.00000000000E+00 -0.00000000000E+00 -0.30875849487E+03  0.30875849487E+03  0.00000000000E+00 0.  1.
    9000007    2    1    2  502    0 -0.73215772764E+02 -0.64674721585E+02  0.33334161700E+03  0.52941924275E+03  0.39953063960E+03 0.  0.
    9000005    1    3    3    0    0  0.77736599793E+02 -0.10787140906E+03  0.34720696122E+03  0.37179684473E+03  0.99999687468E+00 0.  0.
          4    1    3    3  502    0 -0.15095237256E+03  0.43196687471E+02 -0.13865344220E+02  0.15762239803E+03  0.00000000000E+00 0.  1.
   -9000007    1    1    2    0  501  0.73215772764E+02  0.64674721585E+02 -0.95716836316E+01  0.41186768036E+03  0.40000000000E+03 0. -1.
<mgrwt>
<rscale>  2 0.41152841E+03</rscale>
<asrwt>0</asrwt>
<pdfrwt beam="1">  1        1 0.97312065E-01 0.41152841E+03</pdfrwt>
<pdfrwt beam="2">  1       -1 0.47501307E-01 0.41152841E+03</pdfrwt>
<totfact> 0.14645235E+02</totfact>
</mgrwt>
</event>
<event>
 6    1  0.8861680E-004  0.4233055E+03  0.7818608E-02  0.1035996E+00
         -2   -1    0    0    0  501 -0.00000000000E+00  0.00000000000E+00  0.14180055936E+04  0.14180055936E+04  0.00000000000E+00 0.  1.
          2   -1    0    0  502    0  0.00000000000E+00 -0.00000000000E+00 -0.38558798753E+03  0.38558798753E+03  0.00000000000E+00 0. -1.
    9000007    2    1    2  502    0  0.13893228990E+03  0.15293670142E+02 -0.22336124581E+03  0.47825717011E+03  0.39912854710E+03 0.  0.
    9000005    1    3    3    0    0  0.21240972724E+02  0.16859775199E+03 -0.22868829409E+03  0.28491352503E+03  0.99999687468E+00 0.  0.
          4    1    3    3  502    0  0.11769131717E+03 -0.15330408185E+03  0.53270482753E+01  0.19334364508E+03  0.00000000000E+00 0.  1.
   -9000007    1    1    2    0  501 -0.13893228990E+03 -0.15293670142E+02  0.12557788519E+04  0.13253364110E+04  0.40000000000E+03 0.  1.
<mgrwt>
<rscale>  2 0.42330549E+03</rscale>
<asrwt>0</asrwt>
<pdfrwt beam="1">  1        2 0.59321230E-01 0.42330549E+03</pdfrwt>
<pdfrwt beam="2">  1       -2 0.21815470E+00 0.42330549E+03</pdfrwt>
<totfact> 0.90062712E+00</totfact>
</mgrwt>
</event>
<event>
 6    1  0.8861680E-004  0.4294940E+03  0.7818608E-02  0.1034020E+00
         -2   -1    0    0    0  501 -0.00000000000E+00  0.00000000000E+00  0.22137405318E+03  0.22137405318E+03  0.00000000000E+00 0.  1.
          2   -1    0    0  502    0  0.00000000000E+00 -0.00000000000E+00 -0.10467196152E+04  0.10467196152E+04  0.00000000000E+00 0. -1.
    9000007    2    1    2  502    0 -0.10520472386E+03  0.11269520061E+03 -0.12697776419E+03  0.44865128284E+03  0.40174168172E+03 0.  0.
    9000005    1    3    3    0    0 -0.22525249662E+03  0.18168200938E+03 -0.63214273081E+02  0.29621627923E+03  0.99999687468E+00 0.  0.
          4    1    3    3  502    0  0.12004777276E+03 -0.68986808772E+02 -0.63763491113E+02  0.15243500361E+03  0.00000000000E+00 0.  1.
   -9000007    1    1    2    0  501  0.10520472386E+03 -0.11269520061E+03 -0.69836779784E+03  0.81944238554E+03  0.40000000000E+03 0. -1.
<mgrwt>
<rscale>  2 0.42949402E+03</rscale>
<asrwt>0</asrwt>
<pdfrwt beam="1">  1        2 0.16103379E+00 0.42949402E+03</pdfrwt>
<pdfrwt beam="2">  1       -2 0.34057546E-01 0.42949402E+03</pdfrwt>
<totfact> 0.19674743E+02</totfact>
</mgrwt>
</event>
<event>
 6    1  0.8861680E-004  0.4505684E+03  0.7818608E-02  0.1027553E+00
         -1   -1    0    0    0  501 -0.00000000000E+00  0.00000000000E+00  0.36183978493E+03  0.36183978493E+03  0.00000000000E+00 0. -1.
          1   -1    0    0  502    0  0.00000000000E+00 -0.00000000000E+00 -0.12374459551E+04  0.12374459551E+04  0.00000000000E+00 0.  1.
    9000007    2    1    2  502    0  0.37466377920E+02  0.20402905437E+03 -0.10289900781E+04  0.11233044298E+04  0.39995084273E+03 0.  0.
    9000005    1    3    3    0    0 -0.15644550278E+03  0.53507797092E+02 -0.65797963928E+03  0.67843679543E+03  0.99999687468E+00 0.  0.
          4    1    3    3  502    0  0.19391188070E+03  0.15052125728E+03 -0.37101043882E+03  0.44486763434E+03  0.00000000000E+00 0.  1.
   -9000007    1    1    2    0  501 -0.37466377920E+02 -0.20402905437E+03  0.15338390794E+03  0.47598131026E+03  0.40000000000E+03 0. -1.
<mgrwt>
<rscale>  2 0.45056844E+03</rscale>
<asrwt>0</asrwt>
<pdfrwt beam="1">  1        1 0.19037630E+00 0.45056844E+03</pdfrwt>
<pdfrwt beam="2">  1       -1 0.55667659E-01 0.45056844E+03</pdfrwt>
<totfact> 0.35187596E+01</totfact>
</mgrwt>
</event>
<event>
 6    1  0.8861680E-004  0.4204995E+03  0.7818608E-02  0.1036904E+00
          2   -1    0    0  502    0  0.00000000000E+00  0.00000000000E+00  0.61684753138E+03  0.61684753138E+03  0.00000000000E+00 0.  1.
         -2   -1    0    0    0  501 -0.00000000000E+00 -0.00000000000E+00 -0.32586779155E+03  0.32586779155E+03  0.00000000000E+00 0. -1.
    9000007    2    1    2  502    0  0.11768976551E+03 -0.54478371514E+02 -0.18028366786E+02  0.42088701416E+03  0.40000260351E+03 0.  0.
    9000005    1    3    3    0    0  0.26467611427E+03 -0.36359745870E+02 -0.43292542894E+02  0.27064870377E+03  0.99999687468E+00 0.  0.
          4    1    3    3  502    0 -0.14698634876E+03 -0.18118625644E+02  0.25264176107E+02  0.15023831040E+03  0.00000000000E+00 0.  1.
   -9000007    1    1    2    0  501 -0.11768976551E+03  0.54478371514E+02  0.30900810662E+03  0.52182830876E+03  0.40000000000E+03 0.  1.
<mgrwt>
<rscale>  2 0.42049948E+03</rscale>
<asrwt>0</asrwt>
<pdfrwt beam="1">  1        2 0.94899620E-01 0.42049948E+03</pdfrwt>
<pdfrwt beam="2">  1       -2 0.50133507E-01 0.42049948E+03</pdfrwt>
<totfact> 0.18585946E+02</totfact>
</mgrwt>
</event>
<event>
 6    1  0.8861680E-004  0.4343116E+03  0.7818608E-02  0.1032507E+00
         -2   -1    0    0    0  501 -0.00000000000E+00  0.00000000000E+00  0.10288378847E+03  0.10288378847E+03  0.00000000000E+00 0.  1.
          2   -1    0    0  502    0  0.00000000000E+00 -0.00000000000E+00 -0.20518832397E+04  0.20518832397E+04  0.00000000000E+00 0. -1.
    9000007    2    1    2  502    0  0.19505925029E+02 -0.16395308102E+03 -0.62611670221E+03  0.76290501578E+03  0.40341150756E+03 0.  0.
    9000005    1    3    3    0    0 -0.15805724003E+03 -0.16471783243E+03 -0.48518741327E+03  0.53621066889E+03  0.99999687468E+00 0.  0.
          4    1    3    3  502    0  0.17756316506E+03  0.76475140362E+00 -0.14092928894E+03  0.22669434689E+03  0.00000000000E+00 0.  1.
   -9000007    1    1    2    0  501 -0.19505925029E+02  0.16395308102E+03 -0.13228827490E+04  0.13918620124E+04  0.40000000000E+03 0. -1.
<mgrwt>
<rscale>  2 0.43431157E+03</rscale>
<asrwt>0</asrwt>
<pdfrwt beam="1">  1        2 0.31567433E+00 0.43431157E+03</pdfrwt>
<pdfrwt beam="2">  1       -2 0.15828276E-01 0.43431157E+03</pdfrwt>
<totfact> 0.21259036E+02</totfact>
</mgrwt>
</event>
<event>
 6    1  0.8861680E-004  0.4332972E+03  0.7818608E-02  0.1032823E+00
          2   -1    0    0  502    0  0.00000000000E+00  0.00000000000E+00  0.36781183737E+03  0.36781183737E+03  0.00000000000E+00 0.  1.
         -2   -1    0    0    0  501 -0.00000000000E+00 -0.00000000000E+00 -0.51167666743E+03  0.51167666743E+03  0.00000000000E+00 0. -1.
    9000007    2    1    2  502    0 -0.13114984991E+03 -0.10247176390E+03 -0.50336749742E+02  0.43626367772E+03  0.40011431191E+03 0.  0.
    9000005    1    3    3    0    0 -0.12032728547E+03 -0.16570960525E+03 -0.19201899272E+03  0.28073229679E+03  0.99999687468E+00 0.  0.
          4    1    3    3  502    0 -0.10822564439E+02  0.63237841353E+02  0.14168224298E+03  0.15553138093E+03  0.00000000000E+00 0.  1.
   -9000007    1    1    2    0  501  0.13114984991E+03  0.10247176390E+03 -0.93528080318E+02  0.44322482707E+03  0.40000000000E+03 0. -1.
<mgrwt>
<rscale>  2 0.43329721E+03</rscale>
<asrwt>0</asrwt>
<pdfrwt beam="1">  1        2 0.56586437E-01 0.43329721E+03</pdfrwt>
<pdfrwt beam="2">  1       -2 0.78719487E-01 0.43329721E+03</pdfrwt>
<totfact> 0.12869532E+02</totfact>
</mgrwt>
</event>
<event>
 6    1  0.8861680E-004  0.5105758E+03  0.7818608E-02  0.1011055E+00
          1   -1    0    0  502    0  0.00000000000E+00  0.00000000000E+00  0.13071481729E+04  0.13071481729E+04  0.00000000000E+00 0. -1.
         -1   -1    0    0    0  501 -0.00000000000E+00 -0.00000000000E+00 -0.20885289846E+03  0.20885289846E+03  0.00000000000E+00 0.  1.
    9000007    2    1    2  502    0 -0.27610289112E+03  0.15528785997E+03  0.38850535090E+03  0.64184498604E+03  0.40085091055E+03 0.  0.
    9000005    1    3    3    0    0 -0.28944814198E+03  0.20872172413E+03  0.43994880304E+03  0.56648118619E+03  0.99999687468E+00 0.  0.
          4    1    3    3  502    0  0.13345250856E+02 -0.53433864161E+02 -0.51443452141E+02  0.75363799850E+02  0.00000000000E+00 0.  1.
   -9000007    1    1    2    0  501  0.27610289112E+03 -0.15528785997E+03  0.70978992351E+03  0.87415608529E+03  0.40000000000E+03 0.  1.
<mgrwt>
<rscale>  2 0.51057578E+03</rscale>
<asrwt>0</asrwt>
<pdfrwt beam="1">  1        1 0.20109971E+00 0.51057578E+03</pdfrwt>
<pdfrwt beam="2">  1       -1 0.32131216E-01 0.51057578E+03</pdfrwt>
<totfact> 0.84847483E+01</totfact>
</mgrwt>
</event>
<event>
 6    1  0.8861680E-004  0.4250118E+03  0.7818608E-02  0.1035447E+00
          2   -1    0    0  502    0  0.00000000000E+00  0.00000000000E+00  0.67808304917E+03  0.67808304917E+03  0.00000000000E+00 0.  1.
         -2   -1    0    0    0  501 -0.00000000000E+00 -0.00000000000E+00 -0.28704859964E+03  0.28704859964E+03  0.00000000000E+00 0. -1.
    9000007    2    1    2  502    0  0.76682328480E+02  0.12258386174E+03  0.32483612047E+03  0.53467932691E+03  0.39932004058E+03 0.  0.
    9000005    1    3    3    0    0  0.20342192452E+02 -0.84563495700E+02 -0.51743857415E+02  0.10120877616E+03  0.99999687468E+00 0.  0.
          4    1    3    3  502    0  0.56340136027E+02  0.20714735744E+03  0.37657997788E+03  0.43347055075E+03  0.00000000000E+00 0.  1.
   -9000007    1    1    2    0  501 -0.76682328480E+02 -0.12258386174E+03  0.66198329057E+02  0.43045232190E+03  0.40000000000E+03 0. -1.
<mgrwt>
<rscale>  2 0.42501179E+03</rscale>
<asrwt>0</asrwt>
<pdfrwt beam="1">  1        2 0.10432047E+00 0.42501179E+03</pdfrwt>
<pdfrwt beam="2">  1       -2 0.44161323E-01 0.42501179E+03</pdfrwt>
<totfact> 0.21335319E+02</totfact>
</mgrwt>
</event>
<event>
 6    1  0.8861680E-004  0.4679521E+03  0.7818608E-02  0.1022500E+00
          2   -1    0    0  502    0  0.00000000000E+00  0.00000000000E+00  0.91155888910E+03  0.91155888910E+03  0.00000000000E+00 0. -1.
         -2   -1    0    0    0  501 -0.00000000000E+00 -0.00000000000E+00 -0.25547034403E+03  0.25547034403E+03  0.00000000000E+00 0.  1.
    9000007    2    1    2  502    0 -0.23427006393E+03 -0.65067824236E+02  0.18540288757E+03  0.50320600909E+03  0.39965706832E+03 0.  0.
    9000005    1    3    3    0    0 -0.30531843433E+03 -0.13588340247E+03  0.21648972466E+03  0.39818644664E+03  0.99999687468E+00 0.  0.
          4    1    3    3  502    0  0.71048370400E+02  0.70815578235E+02 -0.31086837087E+02  0.10501956245E+03  0.00000000000E+00 0.  1.
   -9000007    1    1    2    0  501  0.23427006393E+03  0.65067824236E+02  0.47068565750E+03  0.66382322404E+03  0.40000000000E+03 0. -1.
<mgrwt>
<rscale>  2 0.46795206E+03</rscale>
<asrwt>0</asrwt>
<pdfrwt beam="1">  1        2 0.14023983E+00 0.46795206E+03</pdfrwt>
<pdfrwt beam="2">  1       -2 0.39303130E-01 0.46795206E+03</pdfrwt>
<totfact> 0.18177884E+02</totfact>
</mgrwt>
</event>
<event>
 6    1  0.8861680E-004  0.4308244E+03  0.7818608E-02  0.1033600E+00
         -2   -1    0    0    0  501 -0.00000000000E+00  0.00000000000E+00  0.14115818385E+03  0.14115818385E+03  0.00000000000E+00 0.  1.
          2   -1    0    0  502    0  0.00000000000E+00 -0.00000000000E+00 -0.13272226754E+04  0.13272226754E+04  0.00000000000E+00 0. -1.
    9000007    2    1    2  502    0  0.15967918152E+03  0.14730391502E+02 -0.52213776843E+03  0.67685504216E+03  0.39973800598E+03 0.  0.
    9000005    1    3    3    0    0 -0.50080998889E+00  0.91864059377E+01 -0.51639331190E+03  0.51647622736E+03  0.99999687468E+00 0.  0.
          4    1    3    3  502    0  0.16017999150E+03  0.55439855639E+01 -0.57444565376E+01  0.16037881480E+03  0.00000000000E+00 0.  1.
   -9000007    1    1    2    0  501 -0.15967918152E+03 -0.14730391502E+02 -0.66392672310E+03  0.79152581707E+03  0.40000000000E+03 0. -1.
<mgrwt>
<rscale>  2 0.43082436E+03</rscale>
<asrwt>0</asrwt>
<pdfrwt beam="1">  1        2 0.20418811E+00 0.43082436E+03</pdfrwt>
<pdfrwt beam="2">  1       -2 0.21716643E-01 0.43082436E+03</pdfrwt>
<totfact> 0.30483012E+02</totfact>
</mgrwt>
</event>
<event>
 6    1  0.8861680E-004  0.4457720E+03  0.7818608E-02  0.1028990E+00
         -2   -1    0    0    0  501 -0.00000000000E+00  0.00000000000E+00  0.15167309235E+03  0.15167309235E+03  0.00000000000E+00 0. -1.
          2   -1    0    0  502    0  0.00000000000E+00 -0.00000000000E+00 -0.15924914426E+04  0.15924914426E+04  0.00000000000E+00 0.  1.
    9000007    2    1    2  502    0  0.19706738909E+03 -0.27222952282E+00 -0.35301491308E+03  0.56851494945E+03  0.39969249297E+03 0.  0.
    9000005    1    3    3    0    0  0.25696420139E+03  0.10821435734E+03 -0.11786821780E+03  0.30271251163E+03  0.99999687468E+00 0.  0.
          4    1    3    3  502    0 -0.59896812300E+02 -0.10848658686E+03 -0.23514669527E+03  0.26580243782E+03  0.00000000000E+00 0.  1.
   -9000007    1    1    2    0  501 -0.19706738909E+03  0.27222952282E+00 -0.10878034371E+04  0.11756495855E+04  0.40000000000E+03 0.  1.
<mgrwt>
<rscale>  2 0.44577196E+03</rscale>
<asrwt>0</asrwt>
<pdfrwt beam="1">  1        2 0.24499868E+00 0.44577196E+03</pdfrwt>
<pdfrwt beam="2">  1       -2 0.23334322E-01 0.44577196E+03</pdfrwt>
<totfact> 0.19160329E+02</totfact>
</mgrwt>
</event>
<event>
 6    1  0.8861680E-004  0.4709779E+03  0.7818608E-02  0.1021645E+00
          1   -1    0    0  502    0  0.00000000000E+00  0.00000000000E+00  0.39168712831E+03  0.39168712831E+03  0.00000000000E+00 0.  1.
         -1   -1    0    0    0  501 -0.00000000000E+00 -0.00000000000E+00 -0.59155458850E+03  0.59155458850E+03  0.00000000000E+00 0. -1.
    9000007    2    1    2  502    0 -0.23101921762E+03  0.89785734136E+02  0.15202757587E+01  0.47139371481E+03  0.40097177726E+03 0.  0.
    9000005    1    3    3    0    0 -0.24322905027E+03  0.80611027041E+02 -0.16461277187E+03  0.30456013073E+03  0.99999687468E+00 0.  0.
          4    1    3    3  502    0  0.12209832650E+02  0.91747070952E+01  0.16613304763E+03  0.16683358408E+03  0.00000000000E+00 0.  1.
   -9000007    1    1    2    0  501  0.23101921762E+03 -0.89785734136E+02 -0.20138773594E+03  0.51184800200E+03  0.40000000000E+03 0.  1.
<mgrwt>
<rscale>  2 0.47097792E+03</rscale>
<asrwt>0</asrwt>
<pdfrwt beam="1">  1        1 0.60259558E-01 0.47097792E+03</pdfrwt>
<pdfrwt beam="2">  1       -1 0.91008399E-01 0.47097792E+03</pdfrwt>
<totfact> 0.75929011E+01</totfact>
</mgrwt>
</event>
<event>
 6    1  0.8861680E-004  0.5473023E+03  0.7818608E-02  0.1002120E+00
          2   -1    0    0  502    0  0.00000000000E+00  0.00000000000E+00  0.28501946176E+04  0.28501946176E+04  0.00000000000E+00 0. -1.
         -2   -1    0    0    0  501 -0.00000000000E+00 -0.00000000000E+00 -0.17911476242E+03  0.17911476242E+03  0.00000000000E+00 0.  1.
    9000007    2    1    2  502    0  0.17221989171E+03 -0.33146599406E+03  0.36185796051E+03  0.65611845741E+03  0.40002606195E+03 0.  0.
    9000005    1    3    3    0    0  0.24465035192E+03 -0.43776854334E+02  0.13643400185E+03  0.28352326981E+03  0.99999687468E+00 0.  0.
          4    1    3    3  502    0 -0.72430460203E+02 -0.28768913973E+03  0.22542395866E+03  0.37259518760E+03  0.00000000000E+00 0.  1.
   -9000007    1    1    2    0  501 -0.17221989171E+03  0.33146599406E+03  0.23092218947E+04  0.23731909226E+04  0.40000000000E+03 0. -1.
<mgrwt>
<rscale>  2 0.54730231E+03</rscale>
<asrwt>0</asrwt>
<pdfrwt beam="1">  1        2 0.43849145E+00 0.54730231E+03</pdfrwt>
<pdfrwt beam="2">  1       -2 0.27556119E-01 0.54730231E+03</pdfrwt>
<totfact> 0.28265489E+01</totfact>
</mgrwt>
</event>
<event>
 6    1  0.8861680E-004  0.4690070E+03  0.7818608E-02  0.1022201E+00
         -2   -1    0    0    0  501 -0.00000000000E+00  0.00000000000E+00  0.11850211263E+03  0.11850211263E+03  0.00000000000E+00 0. -1.
          2   -1    0    0  502    0  0.00000000000E+00 -0.00000000000E+00 -0.18674886122E+04  0.18674886122E+04  0.00000000000E+00 0.  1.
    9000007    2    1    2  502    0  0.64691236092E+02  0.23617127772E+03 -0.95159418533E+03  0.10608981180E+04  0.40001436816E+03 0.  0.
    9000005    1    3    3    0    0  0.70883371648E+02 -0.10559240686E+03 -0.26137248663E+03  0.29067298726E+03  0.99999687468E+00 0.  0.
          4    1    3    3  502    0 -0.61921355563E+01  0.34176368458E+03 -0.69022169870E+03  0.77022513072E+03  0.00000000000E+00 0.  1.
   -9000007    1    1    2    0  501 -0.64691236092E+02 -0.23617127772E+03 -0.79739231428E+03  0.92509260689E+03  0.40000000000E+03 0. -1.
<mgrwt>
<rscale>  2 0.46900701E+03</rscale>
<asrwt>0</asrwt>
<pdfrwt beam="1">  1        2 0.28730592E+00 0.46900701E+03</pdfrwt>
<pdfrwt beam="2">  1       -2 0.18231095E-01 0.46900701E+03</pdfrwt>
<totfact> 0.20888545E+02</totfact>
</mgrwt>
</event>
<event>
 6    1  0.8861680E-004  0.5624807E+03  0.7818608E-02  0.9986457E-01
          2   -1    0    0  502    0  0.00000000000E+00  0.00000000000E+00  0.16592061172E+04  0.16592061172E+04  0.00000000000E+00 0.  1.
         -2   -1    0    0    0  501 -0.00000000000E+00 -0.00000000000E+00 -0.23989279567E+03  0.23989279567E+03  0.00000000000E+00 0. -1.
    9000007    2    1    2  502    0 -0.77163036550E+02 -0.38775633159E+03  0.11397839735E+04  0.12710497402E+04  0.40018849173E+03 0.  0.
    9000005    1    3    3    0    0  0.32231609297E+02 -0.43983970161E+03  0.87483512014E+03  0.97971185926E+03  0.99999687468E+00 0.  0.
          4    1    3    3  502    0 -0.10939464585E+03  0.52083370024E+02  0.26494885335E+03  0.29133788093E+03  0.00000000000E+00 0.  1.
   -9000007    1    1    2    0  501  0.77163036550E+02  0.38775633159E+03  0.27952934805E+03  0.62804917269E+03  0.40000000000E+03 0. -1.
<mgrwt>
<rscale>  2 0.56248068E+03</rscale>
<asrwt>0</asrwt>
<pdfrwt beam="1">  1        2 0.25526247E+00 0.56248068E+03</pdfrwt>
<pdfrwt beam="2">  1       -2 0.36906585E-01 0.56248068E+03</pdfrwt>
<totfact> 0.74692993E+01</totfact>
</mgrwt>
</event>
<event>
 6    1  0.8861680E-004  0.4043263E+03  0.7818608E-02  0.1042292E+00
          2   -1    0    0  502    0  0.00000000000E+00  0.00000000000E+00  0.33952750319E+03  0.33952750319E+03  0.00000000000E+00 0. -1.
         -2   -1    0    0    0  501 -0.00000000000E+00 -0.00000000000E+00 -0.56441513886E+03  0.56441513886E+03  0.00000000000E+00 0.  1.
    9000007    2    1    2  502    0 -0.76797101320E+01  0.58343520273E+02 -0.28568939048E+03  0.49509083797E+03  0.40004195494E+03 0.  0.
    9000005    1    3    3    0    0  0.18974796148E+03  0.73297941555E+02 -0.11496060280E+03  0.23365319880E+03  0.99999687468E+00 0.  0.
          4    1    3    3  502    0 -0.19742767161E+03 -0.14954421282E+02 -0.17072878768E+03  0.26143763917E+03  0.00000000000E+00 0.  1.
   -9000007    1    1    2    0  501  0.76797101320E+01 -0.58343520273E+02  0.60801754812E+02  0.40885180407E+03  0.40000000000E+03 0. -1.
<mgrwt>
<rscale>  2 0.40432626E+03</rscale>
<asrwt>0</asrwt>
<pdfrwt beam="1">  1        2 0.52235001E-01 0.40432626E+03</pdfrwt>
<pdfrwt beam="2">  1       -2 0.86833097E-01 0.40432626E+03</pdfrwt>
<totfact> 0.11300293E+02</totfact>
</mgrwt>
</event>
<event>
 6    1  0.8861680E-004  0.4258009E+03  0.7818608E-02  0.1035195E+00
         -1   -1    0    0    0  501 -0.00000000000E+00  0.00000000000E+00  0.67374222971E+03  0.67374222971E+03  0.00000000000E+00 0.  1.
          1   -1    0    0  502    0  0.00000000000E+00 -0.00000000000E+00 -0.28235069691E+03  0.28235069691E+03  0.00000000000E+00 0. -1.
    9000007    2    1    2  502    0  0.46183088297E+01 -0.14591187902E+03  0.29924017521E+03  0.52042851686E+03  0.39998694165E+03 0.  0.
    9000005    1    3    3    0    0 -0.14913228848E+03 -0.67474403514E+01 -0.82803511893E+01  0.14951766326E+03  0.99999687468E+00 0.  0.
          4    1    3    3  502    0  0.15375059731E+03 -0.13916443867E+03  0.30752052640E+03  0.37091085360E+03  0.00000000000E+00 0.  1.
   -9000007    1    1    2    0  501 -0.46183088297E+01  0.14591187902E+03  0.92151357587E+02  0.43566440975E+03  0.40000000000E+03 0. -1.
<mgrwt>
<rscale>  2 0.42580087E+03</rscale>
<asrwt>0</asrwt>
<pdfrwt beam="1">  1        1 0.43438569E-01 0.42580087E+03</pdfrwt>
<pdfrwt beam="2">  1       -1 0.10365265E+00 0.42580087E+03</pdfrwt>
<totfact> 0.87011638E+01</totfact>
</mgrwt>
</event>
<event>
 6    1  0.8861680E-004  0.4102686E+03  0.7818608E-02  0.1040281E+00
          1   -1    0    0  502    0  0.00000000000E+00  0.00000000000E+00  0.15995176986E+03  0.15995176986E+03  0.00000000000E+00 0. -1.
         -1   -1    0    0    0  501 -0.00000000000E+00 -0.00000000000E+00 -0.10932046706E+04  0.10932046706E+04  0.00000000000E+00 0.  1.
    9000007    2    1    2  502    0 -0.74229244102E+02  0.52888316529E+02 -0.58781772041E+03  0.71684252257E+03  0.40003296743E+03 0.  0.
    9000005    1    3    3    0    0 -0.13711494963E+03 -0.31580617349E+02 -0.23346195381E+02  0.14263200776E+03  0.99999687468E+00 0.  0.
          4    1    3    3  502    0  0.62885705529E+02  0.84468933877E+02 -0.56447152503E+03  0.57421051481E+03  0.00000000000E+00 0.  1.
   -9000007    1    1    2    0  501  0.74229244102E+02 -0.52888316529E+02 -0.34543518029E+03  0.53631391786E+03  0.40000000000E+03 0. -1.
<mgrwt>
<rscale>  2 0.41026862E+03</rscale>
<asrwt>0</asrwt>
<pdfrwt beam="1">  1        1 0.24607965E-01 0.41026862E+03</pdfrwt>
<pdfrwt beam="2">  1       -1 0.16818533E+00 0.41026862E+03</pdfrwt>
<totfact> 0.53335006E+01</totfact>
</mgrwt>
</event>
<event>
 6    1  0.8861680E-004  0.4386408E+03  0.7818608E-02  0.1031165E+00
         -2   -1    0    0    0  501 -0.00000000000E+00  0.00000000000E+00  0.20615170479E+03  0.20615170479E+03  0.00000000000E+00 0.  1.
          2   -1    0    0  502    0  0.00000000000E+00 -0.00000000000E+00 -0.20576313981E+04  0.20576313981E+04  0.00000000000E+00 0. -1.
    9000007    2    1    2  502    0  0.62672594013E+01 -0.18044645334E+03 -0.17622167317E+04  0.18159348280E+04  0.39951381568E+03 0.  0.
    9000005    1    3    3    0    0  0.52038464058E+02 -0.27261635813E+03 -0.15995457339E+04  0.16234454827E+04  0.99999687468E+00 0.  0.
          4    1    3    3  502    0 -0.45771204656E+02  0.92169904781E+02 -0.16267099782E+03  0.19248934530E+03  0.00000000000E+00 0.  1.
   -9000007    1    1    2    0  501 -0.62672594013E+01  0.18044645334E+03 -0.89262961673E+02  0.44784827497E+03  0.40000000000E+03 0.  1.
<mgrwt>
<rscale>  2 0.43864080E+03</rscale>
<asrwt>0</asrwt>
<pdfrwt beam="1">  1        2 0.31655868E+00 0.43864080E+03</pdfrwt>
<pdfrwt beam="2">  1       -2 0.31715647E-01 0.43864080E+03</pdfrwt>
<totfact> 0.61924300E+01</totfact>
</mgrwt>
</event>
<event>
 6    1  0.8861680E-004  0.9561000E+03  0.7818608E-02  0.9358049E-01
         -2   -1    0    0    0  501 -0.00000000000E+00  0.00000000000E+00  0.48126417238E+03  0.48126417238E+03  0.00000000000E+00 0.  1.
          2   -1    0    0  502    0  0.00000000000E+00 -0.00000000000E+00 -0.21471403119E+04  0.21471403119E+04  0.00000000000E+00 0. -1.
    9000007    2    1    2  502    0  0.48894380071E+03  0.71766231328E+03 -0.38656685918E+03  0.10313016476E+04  0.40005489070E+03 0.  0.
    9000005    1    3    3    0    0  0.78761938038E+02  0.19768868155E+03 -0.29347016619E+03  0.36250516705E+03  0.99999687468E+00 0.  0.
          4    1    3    3  502    0  0.41018186267E+03  0.51997363173E+03 -0.93096692994E+02  0.66879648055E+03  0.00000000000E+00 0.  1.
   -9000007    1    1    2    0  501 -0.48894380071E+03 -0.71766231328E+03 -0.12793092803E+04  0.15971028367E+04  0.40000000000E+03 0. -1.
<mgrwt>
<rscale>  2 0.95609999E+03</rscale>
<asrwt>0</asrwt>
<pdfrwt beam="1">  1        2 0.33032928E+00 0.95609999E+03</pdfrwt>
<pdfrwt beam="2">  1       -2 0.74040643E-01 0.95609999E+03</pdfrwt>
<totfact> 0.91757291E+00</totfact>
</mgrwt>
</event>
<event>
 6    1  0.8861680E-004  0.4180487E+03  0.7818608E-02  0.1037703E+00
          1   -1    0    0  502    0  0.00000000000E+00  0.00000000000E+00  0.26615111353E+04  0.26615111353E+04  0.00000000000E+00 0.  1.
         -1   -1    0    0    0  501 -0.00000000000E+00 -0.00000000000E+00 -0.66024758318E+02  0.66024758318E+02  0.00000000000E+00 0. -1.
    9000007    2    1    2  502    0  0.11612782047E+03  0.36846076938E+02  0.13983001601E+04  0.14594277981E+04  0.39980352174E+03 0.  0.
    9000005    1    3    3    0    0  0.25873642804E+03  0.25132995112E+02  0.70220995363E+03  0.74878302973E+03  0.99999687468E+00 0.  0.
          4    1    3    3  502    0 -0.14260860757E+03  0.11713081826E+02  0.69609020649E+03  0.71064476837E+03  0.00000000000E+00 0.  1.
   -9000007    1    1    2    0  501 -0.11612782047E+03 -0.36846076938E+02  0.11971862168E+04  0.12681080955E+04  0.40000000000E+03 0.  1.
<mgrwt>
<rscale>  2 0.41804870E+03</rscale>
<asrwt>0</asrwt>
<pdfrwt beam="1">  1        1 0.40946317E+00 0.41804870E+03</pdfrwt>
<pdfrwt beam="2">  1       -1 0.10157657E-01 0.41804870E+03</pdfrwt>
<totfact> 0.70899958E+01</totfact>
</mgrwt>
</event>
<event>
 6    1  0.8861680E-004  0.9363697E+03  0.7818608E-02  0.9381226E-01
         -2   -1    0    0    0  501 -0.00000000000E+00  0.00000000000E+00  0.34547378430E+03  0.34547378430E+03  0.00000000000E+00 0. -1.
          2   -1    0    0  502    0  0.00000000000E+00 -0.00000000000E+00 -0.34969208401E+04  0.34969208401E+04  0.00000000000E+00 0.  1.
    9000007    2    1    2  502    0 -0.60012745012E+03 -0.59712247617E+03 -0.25818645047E+04  0.27464327225E+04  0.40020016290E+03 0.  0.
    9000005    1    3    3    0    0 -0.39117784658E+03 -0.39784646916E+03 -0.21883052039E+04  0.22583141026E+04  0.99999687468E+00 0.  0.
          4    1    3    3  502    0 -0.20894960355E+03 -0.19927600701E+03 -0.39355930087E+03  0.48811861990E+03  0.00000000000E+00 0.  1.
   -9000007    1    1    2    0  501  0.60012745012E+03  0.59712247617E+03 -0.56958255103E+03  0.10959619019E+04  0.40000000000E+03 0.  1.
<mgrwt>
<rscale>  2 0.93636974E+03</rscale>
<asrwt>0</asrwt>
<pdfrwt beam="1">  1        2 0.53798783E+00 0.93636974E+03</pdfrwt>
<pdfrwt beam="2">  1       -2 0.53149812E-01 0.93636974E+03</pdfrwt>
<totfact> 0.28577608E+00</totfact>
</mgrwt>
</event>
<event>
 6    1  0.8861680E-004  0.4044875E+03  0.7818608E-02  0.1042237E+00
         -2   -1    0    0    0  501 -0.00000000000E+00  0.00000000000E+00  0.14927027822E+03  0.14927027822E+03  0.00000000000E+00 0. -1.
          2   -1    0    0  502    0  0.00000000000E+00 -0.00000000000E+00 -0.12523910233E+04  0.12523910233E+04  0.00000000000E+00 0.  1.
    9000007    2    1    2  502    0  0.54871053800E+02 -0.19929747597E+02 -0.79946192845E+03  0.89607579511E+03  0.40050521615E+03 0.  0.
    9000005    1    3    3    0    0  0.27230657268E+02  0.15593054776E+02  0.42540605045E+02  0.52871118050E+02  0.99999687468E+00 0.  0.
          4    1    3    3  502    0  0.27640396531E+02 -0.35522802373E+02 -0.84200253349E+03  0.84320467706E+03  0.00000000000E+00 0.  1.
   -9000007    1    1    2    0  501 -0.54871053800E+02  0.19929747597E+02 -0.30365881668E+03  0.50558550645E+03  0.40000000000E+03 0. -1.
<mgrwt>
<rscale>  2 0.40448747E+03</rscale>
<asrwt>0</asrwt>
<pdfrwt beam="1">  1        2 0.19267555E+00 0.40448747E+03</pdfrwt>
<pdfrwt beam="2">  1       -2 0.22964658E-01 0.40448747E+03</pdfrwt>
<totfact> 0.30545518E+02</totfact>
</mgrwt>
</event>
<event>
 6    1  0.8861680E-004  0.4821725E+03  0.7818608E-02  0.1018540E+00
         -2   -1    0    0    0  501 -0.00000000000E+00  0.00000000000E+00  0.41280322801E+03  0.41280322801E+03  0.00000000000E+00 0. -1.
          2   -1    0    0  502    0  0.00000000000E+00 -0.00000000000E+00 -0.77679776985E+03  0.77679776985E+03  0.00000000000E+00 0.  1.
    9000007    2    1    2  502    0  0.12033100100E+03 -0.24411215105E+03 -0.49344539489E+03  0.68877386656E+03  0.39604392361E+03 0.  0.
    9000005    1    3    3    0    0 -0.40716243821E+02 -0.90373234458E+02 -0.45144464341E+03  0.46219952410E+03  0.99999687468E+00 0.  0.
          4    1    3    3  502    0  0.16104724482E+03 -0.15373891659E+03 -0.42000751480E+02  0.22657434246E+03  0.00000000000E+00 0.  1.
   -9000007    1    1    2    0  501 -0.12033100100E+03  0.24411215105E+03  0.12945085305E+03  0.50082713130E+03  0.40000000000E+03 0. -1.
<mgrwt>
<rscale>  2 0.48217254E+03</rscale>
<asrwt>0</asrwt>
<pdfrwt beam="1">  1        2 0.11950735E+00 0.48217254E+03</pdfrwt>
<pdfrwt beam="2">  1       -2 0.63508189E-01 0.48217254E+03</pdfrwt>
<totfact> 0.85123739E+01</totfact>
</mgrwt>
</event>
<event>
 6    1  0.8861680E-004  0.4400427E+03  0.7818608E-02  0.1030734E+00
         -2   -1    0    0    0  501 -0.00000000000E+00  0.00000000000E+00  0.76542295878E+03  0.76542295878E+03  0.00000000000E+00 0.  1.
          2   -1    0    0  502    0  0.00000000000E+00 -0.00000000000E+00 -0.62977563109E+03  0.62977563109E+03  0.00000000000E+00 0. -1.
    9000007    2    1    2  502    0  0.14323875142E+03 -0.11555183093E+03 -0.47178441040E+03  0.64497003670E+03  0.39941989535E+03 0.  0.
    9000005    1    3    3    0    0  0.30154562262E+02 -0.15150884202E+03 -0.49972770254E+03  0.52306118526E+03  0.99999687468E+00 0.  0.
          4    1    3    3  502    0  0.11308418916E+03  0.35957011090E+02  0.27943292143E+02  0.12190885144E+03  0.00000000000E+00 0.  1.
   -9000007    1    1    2    0  501 -0.14323875142E+03  0.11555183093E+03  0.60743173809E+03  0.75022855317E+03  0.40000000000E+03 0.  1.
<mgrwt>
<rscale>  2 0.44004267E+03</rscale>
<asrwt>0</asrwt>
<pdfrwt beam="1">  1        2 0.96888558E-01 0.44004267E+03</pdfrwt>
<pdfrwt beam="2">  1       -2 0.11775738E+00 0.44004267E+03</pdfrwt>
<totfact> 0.27262489E+01</totfact>
</mgrwt>
</event>
<event>
 6    1  0.8861680E-004  0.5419367E+03  0.7818608E-02  0.1003378E+00
          2   -1    0    0  502    0  0.00000000000E+00  0.00000000000E+00  0.26136576893E+04  0.26136576893E+04  0.00000000000E+00 0.  1.
         -2   -1    0    0    0  501 -0.00000000000E+00 -0.00000000000E+00 -0.12203674580E+03  0.12203674580E+03  0.00000000000E+00 0. -1.
    9000007    2    1    2  502    0  0.33144336579E+03 -0.15484563180E+03  0.86055865897E+03  0.10169169479E+04  0.39965860310E+03 0.  0.
    9000005    1    3    3    0    0  0.82943704258E+01  0.18519221256E+02 -0.39830439971E+02  0.44712661280E+02  0.99999687468E+00 0.  0.
          4    1    3    3  502    0  0.32314899536E+03 -0.17336485305E+03  0.90038909894E+03  0.97220428665E+03  0.00000000000E+00 0.  1.
   -9000007    1    1    2    0  501 -0.33144336579E+03  0.15484563180E+03  0.16310622845E+04  0.17187774871E+04  0.40000000000E+03 0.  1.
<mgrwt>
<rscale>  2 0.54193666E+03</rscale>
<asrwt>0</asrwt>
<pdfrwt beam="1">  1        2 0.40210114E+00 0.54193666E+03</pdfrwt>
<pdfrwt beam="2">  1       -2 0.18774886E-01 0.54193666E+03</pdfrwt>
<totfact> 0.76560275E+01</totfact>
</mgrwt>
</event>
<event>
 6    1  0.8861680E-004  0.6003424E+03  0.7818608E-02  0.9904696E-01
         -1   -1    0    0    0  501 -0.00000000000E+00  0.00000000000E+00  0.23716183013E+03  0.23716183013E+03  0.00000000000E+00 0.  1.
          1   -1    0    0  502    0  0.00000000000E+00 -0.00000000000E+00 -0.16550647763E+04  0.16550647763E+04  0.00000000000E+00 0. -1.
    9000007    2    1    2  502    0  0.44759226672E+03  0.16588138291E+02 -0.43817688769E+03  0.74310644161E+03  0.39949242182E+03 0.  0.
    9000005    1    3    3    0    0  0.11841247347E+03 -0.18086923113E+03 -0.15053702250E+03  0.26343421908E+03  0.99999687468E+00 0.  0.
          4    1    3    3  502    0  0.32917979326E+03  0.19745736942E+03 -0.28763986519E+03  0.47967222253E+03  0.00000000000E+00 0.  1.
   -9000007    1    1    2    0  501 -0.44759226672E+03 -0.16588138291E+02 -0.97972605851E+03  0.11491201649E+04  0.40000000000E+03 0. -1.
<mgrwt>
<rscale>  2 0.60034244E+03</rscale>
<asrwt>0</asrwt>
<pdfrwt beam="1">  1        1 0.25462534E+00 0.60034244E+03</pdfrwt>
<pdfrwt beam="2">  1       -1 0.36486436E-01 0.60034244E+03</pdfrwt>
<totfact> 0.38758414E+01</totfact>
</mgrwt>
</event>
<event>
 6    1  0.8861680E-004  0.4268134E+03  0.7818608E-02  0.1034871E+00
         -2   -1    0    0    0  501 -0.00000000000E+00  0.00000000000E+00  0.10698053353E+03  0.10698053353E+03  0.00000000000E+00 0.  1.
          2   -1    0    0  502    0  0.00000000000E+00 -0.00000000000E+00 -0.19435399030E+04  0.19435399030E+04  0.00000000000E+00 0. -1.
    9000007    2    1    2  502    0 -0.14773882542E+03 -0.22877339144E+02 -0.12786959084E+04  0.13479809185E+04  0.39954874208E+03 0.  0.
    9000005    1    3    3    0    0 -0.17226519234E+02 -0.36784837042E+02 -0.11874123790E+04  0.11881073331E+04  0.99999687468E+00 0.  0.
          4    1    3    3  502    0 -0.13051230619E+03  0.13907497899E+02 -0.91283529395E+02  0.15987358538E+03  0.00000000000E+00 0.  1.
   -9000007    1    1    2    0  501  0.14773882542E+03  0.22877339144E+02 -0.55786346105E+03  0.70253951800E+03  0.40000000000E+03 0.  1.
<mgrwt>
<rscale>  2 0.42681336E+03</rscale>
<asrwt>0</asrwt>
<pdfrwt beam="1">  1        2 0.29900613E+00 0.42681336E+03</pdfrwt>
<pdfrwt beam="2">  1       -2 0.16458544E-01 0.42681336E+03</pdfrwt>
<totfact> 0.22774023E+02</totfact>
</mgrwt>
</event>
<event>
 6    1  0.8861680E-004  0.4177115E+03  0.7818608E-02  0.1037814E+00
         -2   -1    0    0    0  501 -0.00000000000E+00  0.00000000000E+00  0.83974407931E+02  0.83974407931E+02  0.00000000000E+00 0.  1.
          2   -1    0    0  502    0  0.00000000000E+00 -0.00000000000E+00 -0.20829806283E+04  0.20829806283E+04  0.00000000000E+00 0. -1.
    9000007    2    1    2  502    0  0.10706296719E+03 -0.55306698774E+02 -0.94541152587E+03  0.10335605373E+04  0.39990388995E+03 0.  0.
    9000005    1    3    3    0    0  0.22739244256E+03 -0.12401993952E+03 -0.75406678562E+03  0.79731172417E+03  0.99999687468E+00 0.  0.
          4    1    3    3  502    0 -0.12032947537E+03  0.68713240746E+02 -0.19134474025E+03  0.23624881316E+03  0.00000000000E+00 0.  1.
   -9000007    1    1    2    0  501 -0.10706296719E+03  0.55306698774E+02 -0.10535946945E+04  0.11333944989E+04  0.40000000000E+03 0. -1.
<mgrwt>
<rscale>  2 0.41771146E+03</rscale>
<asrwt>0</asrwt>
<pdfrwt beam="1">  1        2 0.32045856E+00 0.41771146E+03</pdfrwt>
<pdfrwt beam="2">  1       -2 0.12919140E-01 0.41771146E+03</pdfrwt>
<totfact> 0.28765911E+02</totfact>
</mgrwt>
</event>
<event>
 6    1  0.8861680E-004  0.6821601E+03  0.7818608E-02  0.9748237E-01
          1   -1    0    0  502    0  0.00000000000E+00  0.00000000000E+00  0.67523278373E+03  0.67523278373E+03  0.00000000000E+00 0.  1.
         -1   -1    0    0    0  501 -0.00000000000E+00 -0.00000000000E+00 -0.86795445763E+03  0.86795445763E+03  0.00000000000E+00 0. -1.
    9000007    2    1    2  502    0  0.86580320504E+02  0.54575179328E+03 -0.44656331195E+03  0.81532959801E+03  0.40000298755E+03 0.  0.
    9000005    1    3    3    0    0  0.22701983343E+03  0.23876381657E+03 -0.30600111342E+03  0.44964858087E+03  0.99999687468E+00 0.  0.
          4    1    3    3  502    0 -0.14043951293E+03  0.30698797671E+03 -0.14056219853E+03  0.36568101714E+03  0.00000000000E+00 0.  1.
   -9000007    1    1    2    0  501 -0.86580320504E+02 -0.54575179328E+03  0.25384163805E+03  0.72785764334E+03  0.40000000000E+03 0.  1.
<mgrwt>
<rscale>  2 0.68216007E+03</rscale>
<asrwt>0</asrwt>
<pdfrwt beam="1">  1        1 0.10388197E+00 0.68216007E+03</pdfrwt>
<pdfrwt beam="2">  1       -1 0.13353145E+00 0.68216007E+03</pdfrwt>
<totfact> 0.14141587E+01</totfact>
</mgrwt>
</event>
<event>
 6    1  0.8861680E-004  0.4935813E+03  0.7818608E-02  0.1015468E+00
         -2   -1    0    0    0  501 -0.00000000000E+00  0.00000000000E+00  0.27034177712E+03  0.27034177712E+03  0.00000000000E+00 0.  1.
          2   -1    0    0  502    0  0.00000000000E+00 -0.00000000000E+00 -0.11856747374E+04  0.11856747374E+04  0.00000000000E+00 0. -1.
    9000007    2    1    2  502    0  0.15558994625E+03  0.24353123881E+03 -0.10112559884E+03  0.50394019242E+03  0.40026695486E+03 0.  0.
    9000005    1    3    3    0    0  0.64784894562E+02 -0.78708017559E+02 -0.13306784982E+03  0.16763080636E+03  0.99999687468E+00 0.  0.
          4    1    3    3  502    0  0.90805051684E+02  0.32223925637E+03  0.31942250981E+02  0.33630938607E+03  0.00000000000E+00 0.  1.
   -9000007    1    1    2    0  501 -0.15558994625E+03 -0.24353123881E+03 -0.81420736142E+03  0.95207632207E+03  0.40000000000E+03 0. -1.
<mgrwt>
<rscale>  2 0.49358129E+03</rscale>
<asrwt>0</asrwt>
<pdfrwt beam="1">  1        2 0.18241150E+00 0.49358129E+03</pdfrwt>
<pdfrwt beam="2">  1       -2 0.41591043E-01 0.49358129E+03</pdfrwt>
<totfact> 0.11003683E+02</totfact>
</mgrwt>
</event>
<event>
 6    1  0.8861680E-004  0.5236955E+03  0.7818608E-02  0.1007773E+00
         -2   -1    0    0    0  501 -0.00000000000E+00  0.00000000000E+00  0.12935386689E+03  0.12935386689E+03  0.00000000000E+00 0. -1.
          2   -1    0    0  502    0  0.00000000000E+00 -0.00000000000E+00 -0.27683111835E+04  0.27683111835E+04  0.00000000000E+00 0.  1.
    9000007    2    1    2  502    0 -0.33233155089E+03 -0.64386767765E+02 -0.20198894314E+04  0.20865947932E+04  0.39916738394E+03 0.  0.
    9000005    1    3    3    0    0  0.18847898350E+02  0.43211349991E+00  0.12777307686E+02  0.22796701072E+02  0.99999687468E+00 0.  0.
          4    1    3    3  502    0 -0.35117944924E+03 -0.64818881265E+02 -0.20326667391E+04  0.20637980921E+04  0.00000000000E+00 0.  1.
   -9000007    1    1    2    0  501  0.33233155089E+03  0.64386767765E+02 -0.61906788524E+03  0.81107025721E+03  0.40000000000E+03 0. -1.
<mgrwt>
<rscale>  2 0.52369554E+03</rscale>
<asrwt>0</asrwt>
<pdfrwt beam="1">  1        2 0.42589402E+00 0.52369554E+03</pdfrwt>
<pdfrwt beam="2">  1       -2 0.19900595E-01 0.52369554E+03</pdfrwt>
<totfact> 0.56584078E+01</totfact>
</mgrwt>
</event>
<event>
 6    1  0.8861680E-004  0.4243897E+03  0.7818608E-02  0.1035647E+00
          2   -1    0    0  502    0  0.00000000000E+00  0.00000000000E+00  0.11506925339E+04  0.11506925339E+04  0.00000000000E+00 0.  1.
         -2   -1    0    0    0  501 -0.00000000000E+00 -0.00000000000E+00 -0.17328710603E+03  0.17328710603E+03  0.00000000000E+00 0. -1.
    9000007    2    1    2  502    0 -0.10937429113E+03  0.93090213856E+02  0.28214783975E+03  0.50911054780E+03  0.39869489955E+03 0.  0.
    9000005    1    3    3    0    0 -0.18910224873E+03  0.20967123418E+03  0.18088636541E+03  0.33532456532E+03  0.99999687468E+00 0.  0.
          4    1    3    3  502    0  0.79727957597E+02 -0.11658102033E+03  0.10126147434E+03  0.17378598248E+03  0.00000000000E+00 0.  1.
   -9000007    1    1    2    0  501  0.10937429113E+03 -0.93090213856E+02  0.69525758810E+03  0.81486909212E+03  0.40000000000E+03 0.  1.
<mgrwt>
<rscale>  2 0.42438966E+03</rscale>
<asrwt>0</asrwt>
<pdfrwt beam="1">  1        2 0.17702962E+00 0.42438966E+03</pdfrwt>
<pdfrwt beam="2">  1       -2 0.26659556E-01 0.42438966E+03</pdfrwt>
<totfact> 0.26758059E+02</totfact>
</mgrwt>
</event>
<event>
 6    1  0.8861680E-004  0.4166300E+03  0.7818608E-02  0.1038169E+00
         -1   -1    0    0    0  501 -0.00000000000E+00  0.00000000000E+00  0.11390088794E+03  0.11390088794E+03  0.00000000000E+00 0.  1.
          1   -1    0    0  502    0  0.00000000000E+00 -0.00000000000E+00 -0.15268600385E+04  0.15268600385E+04  0.00000000000E+00 0. -1.
    9000007    2    1    2  502    0  0.11315068738E+03  0.11995818935E+02 -0.74348032437E+03  0.85263093942E+03  0.40158379999E+03 0.  0.
    9000005    1    3    3    0    0  0.89957149338E+02 -0.18802429770E+03 -0.29698857037E+03  0.36283417172E+03  0.99999687468E+00 0.  0.
          4    1    3    3  502    0  0.23193538047E+02  0.20002011664E+03 -0.44649175399E+03  0.48979676770E+03  0.00000000000E+00 0.  1.
   -9000007    1    1    2    0  501 -0.11315068738E+03 -0.11995818935E+02 -0.66947882622E+03  0.78812998705E+03  0.40000000000E+03 0. -1.
<mgrwt>
<rscale>  2 0.41663004E+03</rscale>
<asrwt>0</asrwt>
<pdfrwt beam="1">  1        1 0.23490154E+00 0.41663004E+03</pdfrwt>
<pdfrwt beam="2">  1       -1 0.17523214E-01 0.41663004E+03</pdfrwt>
<totfact> 0.16870306E+02</totfact>
</mgrwt>
</event>
<event>
 6    1  0.8861680E-004  0.4107030E+03  0.7818608E-02  0.1040135E+00
          1   -1    0    0  502    0  0.00000000000E+00  0.00000000000E+00  0.26322176306E+04  0.26322176306E+04  0.00000000000E+00 0. -1.
         -1   -1    0    0    0  501 -0.00000000000E+00 -0.00000000000E+00 -0.67236596312E+02  0.67236596312E+02  0.00000000000E+00 0.  1.
    9000007    2    1    2  502    0 -0.38520550233E+02  0.82791126766E+02  0.15760878584E+04  0.16288245445E+04  0.40084692346E+03 0.  0.
    9000005    1    3    3    0    0 -0.82352575172E+01  0.58586500219E+02  0.15873500621E+04  0.15884525228E+04  0.99999687468E+00 0.  0.
          4    1    3    3  502    0 -0.30285292716E+02  0.24204626548E+02 -0.11262203779E+02  0.40372021688E+02  0.00000000000E+00 0.  1.
   -9000007    1    1    2    0  501  0.38520550233E+02 -0.82791126766E+02  0.98889317598E+03  0.10706296825E+04  0.40000000000E+03 0.  1.
<mgrwt>
<rscale>  2 0.41070304E+03</rscale>
<asrwt>0</asrwt>
<pdfrwt beam="1">  1        1 0.40495648E+00 0.41070304E+03</pdfrwt>
<pdfrwt beam="2">  1       -1 0.10344094E-01 0.41070304E+03</pdfrwt>
<totfact> 0.72256967E+01</totfact>
</mgrwt>
</event>
<event>
 6    1  0.8861680E-004  0.4127273E+03  0.7818608E-02  0.1039460E+00
          2   -1    0    0  502    0  0.00000000000E+00  0.00000000000E+00  0.23245625171E+04  0.23245625171E+04  0.00000000000E+00 0. -1.
         -2   -1    0    0    0  501 -0.00000000000E+00 -0.00000000000E+00 -0.73893266127E+02  0.73893266127E+02  0.00000000000E+00 0.  1.
    9000007    2    1    2  502    0 -0.49411837111E+02  0.89730414568E+02  0.12341000298E+04  0.13012292531E+04  0.39962683678E+03 0.  0.
    9000005    1    3    3    0    0 -0.71146350362E+02  0.23528750082E+03  0.56534904695E+03  0.61647591688E+03  0.99999687468E+00 0.  0.
          4    1    3    3  502    0  0.21734513251E+02 -0.14555708626E+03  0.66875098282E+03  0.68475333620E+03  0.00000000000E+00 0.  1.
   -9000007    1    1    2    0  501  0.49411837111E+02 -0.89730414568E+02  0.10165692212E+04  0.10972265302E+04  0.40000000000E+03 0. -1.
<mgrwt>
<rscale>  2 0.41272729E+03</rscale>
<asrwt>0</asrwt>
<pdfrwt beam="1">  1        2 0.35762495E+00 0.41272729E+03</pdfrwt>
<pdfrwt beam="2">  1       -2 0.11368197E-01 0.41272729E+03</pdfrwt>
<totfact> 0.26272611E+02</totfact>
</mgrwt>
</event>
<event>
 6    1  0.8861680E-004  0.5425154E+03  0.7818608E-02  0.1003241E+00
         -2   -1    0    0    0  501 -0.00000000000E+00  0.00000000000E+00  0.63340535945E+03  0.63340535945E+03  0.00000000000E+00 0. -1.
          2   -1    0    0  502    0  0.00000000000E+00 -0.00000000000E+00 -0.11494853892E+04  0.11494853892E+04  0.00000000000E+00 0.  1.
    9000007    2    1    2  502    0 -0.29143718075E+03 -0.22280983985E+03  0.43007204085E+03  0.69211873043E+03  0.39935763625E+03 0.  0.
    9000005    1    3    3    0    0 -0.23736916425E+03 -0.29192674841E+03  0.46457551965E+03  0.59782669732E+03  0.99999687468E+00 0.  0.
          4    1    3    3  502    0 -0.54068016507E+02  0.69116908565E+02 -0.34503478802E+02  0.94292033110E+02  0.00000000000E+00 0.  1.
   -9000007    1    1    2    0  501  0.29143718075E+03  0.22280983985E+03 -0.94615207063E+03  0.10907720183E+04  0.40000000000E+03 0.  1.
<mgrwt>
<rscale>  2 0.54251544E+03</rscale>
<asrwt>0</asrwt>
<pdfrwt beam="1">  1        2 0.17684390E+00 0.54251544E+03</pdfrwt>
<pdfrwt beam="2">  1       -2 0.97446979E-01 0.54251544E+03</pdfrwt>
<totfact> 0.18671395E+01</totfact>
</mgrwt>
</event>
<event>
 6    1  0.8861680E-004  0.5055990E+03  0.7818608E-02  0.1012328E+00
         -2   -1    0    0    0  501 -0.00000000000E+00  0.00000000000E+00  0.15273958387E+03  0.15273958387E+03  0.00000000000E+00 0.  1.
          2   -1    0    0  502    0  0.00000000000E+00 -0.00000000000E+00 -0.17623251231E+04  0.17623251231E+04  0.00000000000E+00 0. -1.
    9000007    2    1    2  502    0 -0.19836435502E+03 -0.23155936340E+03 -0.10235418042E+04  0.11427853433E+04  0.40663541396E+03 0.  0.
    9000005    1    3    3    0    0 -0.63021011234E+02 -0.11999787719E+03 -0.93781610279E+03  0.94756064768E+03  0.99999687468E+00 0.  0.
          4    1    3    3  502    0 -0.13534334378E+03 -0.11156148621E+03 -0.85725701404E+02  0.19522469565E+03  0.00000000000E+00 0.  1.
   -9000007    1    1    2    0  501  0.19836435502E+03  0.23155936340E+03 -0.58604373506E+03  0.77227936365E+03  0.40000000000E+03 0.  1.
<mgrwt>
<rscale>  2 0.50559898E+03</rscale>
<asrwt>0</asrwt>
<pdfrwt beam="1">  1        2 0.27112696E+00 0.50559898E+03</pdfrwt>
<pdfrwt beam="2">  1       -2 0.23498396E-01 0.50559898E+03</pdfrwt>
<totfact> 0.15202539E+02</totfact>
</mgrwt>
</event>
<event>
 6    1  0.8861680E-004  0.5228436E+03  0.7818608E-02  0.1007983E+00
         -1   -1    0    0    0  501 -0.00000000000E+00  0.00000000000E+00  0.14990940780E+03  0.14990940780E+03  0.00000000000E+00 0. -1.
          1   -1    0    0  502    0  0.00000000000E+00 -0.00000000000E+00 -0.19004782221E+04  0.19004782221E+04  0.00000000000E+00 0.  1.
    9000007    2    1    2  502    0 -0.99417506922E+01  0.33649787568E+03 -0.10816169496E+04  0.12013727561E+04  0.40008950820E+03 0.  0.
    9000005    1    3    3    0    0  0.11009913795E+03  0.29284635817E+03 -0.39963983418E+03  0.50753700035E+03  0.99999687468E+00 0.  0.
          4    1    3    3  502    0 -0.12004088864E+03  0.43651517512E+02 -0.68197711544E+03  0.69383575571E+03  0.00000000000E+00 0.  1.
   -9000007    1    1    2    0  501  0.99417506922E+01 -0.33649787568E+03 -0.66895186473E+03  0.84901487388E+03  0.40000000000E+03 0. -1.
<mgrwt>
<rscale>  2 0.52284363E+03</rscale>
<asrwt>0</asrwt>
<pdfrwt beam="1">  1        1 0.29238125E+00 0.52284363E+03</pdfrwt>
<pdfrwt beam="2">  1       -1 0.23062987E-01 0.52284363E+03</pdfrwt>
<totfact> 0.59499566E+01</totfact>
</mgrwt>
</event>
<event>
 6    1  0.8861680E-004  0.4008238E+03  0.7818608E-02  0.1043495E+00
         -3   -1    0    0    0  501 -0.00000000000E+00  0.00000000000E+00  0.25409041682E+03  0.25409041682E+03  0.00000000000E+00 0.  1.
          3   -1    0    0  502    0  0.00000000000E+00 -0.00000000000E+00 -0.64830744423E+03  0.64830744423E+03  0.00000000000E+00 0. -1.
    9000007    2    1    2  502    0  0.17912820337E+02  0.21941136289E+02 -0.26793609114E+03  0.48198240289E+03  0.39964359768E+03 0.  0.
    9000005    1    3    3    0    0  0.13863700177E+03  0.90925062659E+02 -0.29680527086E+03  0.33997346085E+03  0.99999687468E+00 0.  0.
          4    1    3    3  502    0 -0.12072418144E+03 -0.68983926371E+02  0.28869179721E+02  0.14200894204E+03  0.00000000000E+00 0.  1.
   -9000007    1    1    2    0  501 -0.17912820337E+02 -0.21941136289E+02 -0.12628093628E+03  0.42041545816E+03  0.40000000000E+03 0.  1.
<mgrwt>
<rscale>  2 0.40082380E+03</rscale>
<asrwt>0</asrwt>
<pdfrwt beam="1">  1        3 0.99739606E-01 0.40082380E+03</pdfrwt>
<pdfrwt beam="2">  1       -3 0.39090834E-01 0.40082380E+03</pdfrwt>
<totfact> 0.14863884E+01</totfact>
</mgrwt>
</event>
<event>
 6    1  0.8861680E-004  0.4061081E+03  0.7818608E-02  0.1041685E+00
         -2   -1    0    0    0  501 -0.00000000000E+00  0.00000000000E+00  0.13173333406E+03  0.13173333406E+03  0.00000000000E+00 0. -1.
          2   -1    0    0  502    0  0.00000000000E+00 -0.00000000000E+00 -0.13221850472E+04  0.13221850472E+04  0.00000000000E+00 0.  1.
    9000007    2    1    2  502    0  0.46293073267E+02 -0.51010072937E+02 -0.76307738035E+03  0.86451707783E+03  0.40044676711E+03 0.  0.
    9000005    1    3    3    0    0  0.94888763508E+02 -0.16884094604E+02  0.27181783826E+01  0.96422707793E+02  0.99999687468E+00 0.  0.
          4    1    3    3  502    0 -0.48595690241E+02 -0.34125978332E+02 -0.76579555874E+03  0.76809437004E+03  0.00000000000E+00 0.  1.
   -9000007    1    1    2    0  501 -0.46293073267E+02  0.51010072937E+02 -0.42737433283E+03  0.58940130347E+03  0.40000000000E+03 0. -1.
<mgrwt>
<rscale>  2 0.40610810E+03</rscale>
<asrwt>0</asrwt>
<pdfrwt beam="1">  1        2 0.20341308E+00 0.40610810E+03</pdfrwt>
<pdfrwt beam="2">  1       -2 0.20266667E-01 0.40610810E+03</pdfrwt>
<totfact> 0.34697090E+02</totfact>
</mgrwt>
</event>
<event>
 6    1  0.8861680E-004  0.5169588E+03  0.7818608E-02  0.1009445E+00
         -2   -1    0    0    0  501 -0.00000000000E+00  0.00000000000E+00  0.10281250521E+03  0.10281250521E+03  0.00000000000E+00 0.  1.
          2   -1    0    0  502    0  0.00000000000E+00 -0.00000000000E+00 -0.27394400555E+04  0.27394400555E+04  0.00000000000E+00 0. -1.
    9000007    2    1    2  502    0  0.25570702131E+03 -0.20389738420E+03 -0.16403451509E+04  0.17199607790E+04  0.40071516454E+03 0.  0.
    9000005    1    3    3    0    0  0.25820273571E+03 -0.17874456680E+03 -0.16590538746E+04  0.16885138530E+04  0.99999687468E+00 0.  0.
          4    1    3    3  502    0 -0.24957144025E+01 -0.25152817402E+02  0.18708723682E+02  0.31446926009E+02  0.00000000000E+00 0.  1.
   -9000007    1    1    2    0  501 -0.25570702131E+03  0.20389738420E+03 -0.99628239934E+03  0.11222917817E+04  0.40000000000E+03 0. -1.
<mgrwt>
<rscale>  2 0.51695879E+03</rscale>
<asrwt>0</asrwt>
<pdfrwt beam="1">  1        2 0.42145226E+00 0.51695879E+03</pdfrwt>
<pdfrwt beam="2">  1       -2 0.15817311E-01 0.51695879E+03</pdfrwt>
<totfact> 0.87271179E+01</totfact>
</mgrwt>
</event>
<event>
 6    1  0.8861680E-004  0.5560382E+03  0.7818608E-02  0.1000106E+00
          2   -1    0    0  502    0  0.00000000000E+00  0.00000000000E+00  0.81265821722E+03  0.81265821722E+03  0.00000000000E+00 0.  1.
         -2   -1    0    0    0  501 -0.00000000000E+00 -0.00000000000E+00 -0.74393610951E+03  0.74393610951E+03  0.00000000000E+00 0. -1.
    9000007    2    1    2  502    0 -0.38151610987E+03  0.60420124873E+02 -0.50966559140E+03  0.75426181208E+03  0.39993341010E+03 0.  0.
    9000005    1    3    3    0    0 -0.42375273224E+03 -0.51672801687E+02 -0.45059010551E+03  0.62070033003E+03  0.99999687468E+00 0.  0.
          4    1    3    3  502    0  0.42236622371E+02  0.11209292656E+03 -0.59075485890E+02  0.13356148205E+03  0.00000000000E+00 0.  1.
   -9000007    1    1    2    0  501  0.38151610987E+03 -0.60420124873E+02  0.57838769912E+03  0.80233251465E+03  0.40000000000E+03 0.  1.
<mgrwt>
<rscale>  2 0.55603822E+03</rscale>
<asrwt>0</asrwt>
<pdfrwt beam="1">  1        2 0.12502434E+00 0.55603822E+03</pdfrwt>
<pdfrwt beam="2">  1       -2 0.11445171E+00 0.55603822E+03</pdfrwt>
<totfact> 0.20869388E+01</totfact>
</mgrwt>
</event>
<event>
 6    1  0.8861680E-004  0.4814950E+03  0.7818608E-02  0.1018725E+00
         -1   -1    0    0    0  501 -0.00000000000E+00  0.00000000000E+00  0.57155681800E+03  0.57155681800E+03  0.00000000000E+00 0. -1.
          1   -1    0    0  502    0  0.00000000000E+00 -0.00000000000E+00 -0.44162267761E+03  0.44162267761E+03  0.00000000000E+00 0.  1.
    9000007    2    1    2  502    0  0.10095625854E+03  0.24962448929E+03  0.20951382602E+03  0.52446948123E+03  0.39833107040E+03 0.  0.
    9000005    1    3    3    0    0 -0.98287052155E+02 -0.53934488366E+02  0.84685368568E+02  0.14050581945E+03  0.99999687468E+00 0.  0.
          4    1    3    3  502    0  0.19924331069E+03  0.30355897766E+03  0.12482845746E+03  0.38396366177E+03  0.00000000000E+00 0.  1.
   -9000007    1    1    2    0  501 -0.10095625854E+03 -0.24962448929E+03 -0.79579685631E+02  0.48871001438E+03  0.40000000000E+03 0.  1.
<mgrwt>
<rscale>  2 0.48149498E+03</rscale>
<asrwt>0</asrwt>
<pdfrwt beam="1">  1        1 0.67941950E-01 0.48149498E+03</pdfrwt>
<pdfrwt beam="2">  1       -1 0.87931818E-01 0.48149498E+03</pdfrwt>
<totfact> 0.69786392E+01</totfact>
</mgrwt>
</event>
<event>
 6    1  0.8861680E-004  0.4078114E+03  0.7818608E-02  0.1041108E+00
          2   -1    0    0  502    0  0.00000000000E+00  0.00000000000E+00  0.70172364871E+03  0.70172364871E+03  0.00000000000E+00 0.  1.
         -2   -1    0    0    0  501 -0.00000000000E+00 -0.00000000000E+00 -0.37669775474E+03  0.37669775474E+03  0.00000000000E+00 0. -1.
    9000007    2    1    2  502    0 -0.70152100827E+02  0.38015461406E+02  0.49085775858E+03  0.63811843972E+03  0.39985911443E+03 0.  0.
    9000005    1    3    3    0    0 -0.13799051364E+03  0.55623901387E+02  0.67208557056E+01  0.14893478490E+03  0.99999687468E+00 0.  0.
          4    1    3    3  502    0  0.67838412809E+02 -0.17608439981E+02  0.48413690288E+03  0.48918365481E+03  0.00000000000E+00 0.  1.
   -9000007    1    1    2    0  501  0.70152100827E+02 -0.38015461406E+02 -0.16583186461E+03  0.44030296374E+03  0.40000000000E+03 0. -1.
<mgrwt>
<rscale>  2 0.40781140E+03</rscale>
<asrwt>0</asrwt>
<pdfrwt beam="1">  1        2 0.10795748E+00 0.40781140E+03</pdfrwt>
<pdfrwt beam="2">  1       -2 0.57953501E-01 0.40781140E+03</pdfrwt>
<totfact> 0.11822521E+02</totfact>
</mgrwt>
</event>
<event>
 6    1  0.8861680E-004  0.4388178E+03  0.7818608E-02  0.1031110E+00
         -2   -1    0    0    0  501 -0.00000000000E+00  0.00000000000E+00  0.61552944151E+03  0.61552944151E+03  0.00000000000E+00 0.  1.
          2   -1    0    0  502    0  0.00000000000E+00 -0.00000000000E+00 -0.43547882404E+03  0.43547882404E+03  0.00000000000E+00 0. -1.
    9000007    2    1    2  502    0 -0.27006447332E+02  0.18184482001E+03  0.36868902187E+03  0.57207055105E+03  0.39690834430E+03 0.  0.
    9000005    1    3    3    0    0 -0.11444423161E+03  0.24922336805E+03  0.11877194007E+03  0.29886040734E+03  0.99999687468E+00 0.  0.
          4    1    3    3  502    0  0.87437784277E+02 -0.67378548046E+02  0.24991708179E+03  0.27321014371E+03  0.00000000000E+00 0.  1.
   -9000007    1    1    2    0  501  0.27006447332E+02 -0.18184482001E+03 -0.18863840440E+03  0.47893771450E+03  0.40000000000E+03 0. -1.
<mgrwt>
<rscale>  2 0.43881780E+03</rscale>
<asrwt>0</asrwt>
<pdfrwt beam="1">  1        2 0.66996742E-01 0.43881780E+03</pdfrwt>
<pdfrwt beam="2">  1       -2 0.94696837E-01 0.43881780E+03</pdfrwt>
<totfact> 0.70131784E+01</totfact>
</mgrwt>
</event>
<event>
 6    1  0.8861680E-004  0.5716022E+03  0.7818608E-02  0.9966139E-01
          1   -1    0    0  502    0  0.00000000000E+00  0.00000000000E+00  0.21915484025E+04  0.21915484025E+04  0.00000000000E+00 0.  1.
         -1   -1    0    0    0  501 -0.00000000000E+00 -0.00000000000E+00 -0.17899676592E+03  0.17899676592E+03  0.00000000000E+00 0. -1.
    9000007    2    1    2  502    0 -0.29298825329E+03  0.28435104976E+03  0.14908340580E+04  0.15966673564E+04  0.40007852051E+03 0.  0.
    9000005    1    3    3    0    0 -0.17913059522E+03  0.15535237298E+03  0.25228295135E+03  0.34622220823E+03  0.99999687468E+00 0.  0.
          4    1    3    3  502    0 -0.11385765808E+03  0.12899867677E+03  0.12385511066E+04  0.12504451482E+04  0.00000000000E+00 0.  1.
   -9000007    1    1    2    0  501  0.29298825329E+03 -0.28435104976E+03  0.52171757856E+03  0.77387781196E+03  0.40000000000E+03 0. -1.
<mgrwt>
<rscale>  2 0.57160217E+03</rscale>
<asrwt>0</asrwt>
<pdfrwt beam="1">  1        1 0.33716127E+00 0.57160217E+03</pdfrwt>
<pdfrwt beam="2">  1       -1 0.27537965E-01 0.57160217E+03</pdfrwt>
<totfact> 0.27993366E+01</totfact>
</mgrwt>
</event>
<event>
 6    1  0.8861680E-004  0.4240060E+03  0.7818608E-02  0.1035770E+00
         -2   -1    0    0    0  501 -0.00000000000E+00  0.00000000000E+00  0.11541957143E+03  0.11541957143E+03  0.00000000000E+00 0. -1.
          2   -1    0    0  502    0  0.00000000000E+00 -0.00000000000E+00 -0.15764136286E+04  0.15764136286E+04  0.00000000000E+00 0.  1.
    9000007    2    1    2  502    0 -0.14010533906E+03 -0.17868210705E+02 -0.63782451188E+03  0.76578952974E+03  0.39958067636E+03 0.  0.
    9000005    1    3    3    0    0  0.88149428728E+01  0.12956006288E+03 -0.45686344986E+02  0.13766537409E+03  0.99999687468E+00 0.  0.
          4    1    3    3  502    0 -0.14892028193E+03 -0.14742827358E+03 -0.59213816690E+03  0.62812415566E+03  0.00000000000E+00 0.  1.
   -9000007    1    1    2    0  501  0.14010533906E+03  0.17868210705E+02 -0.82316954524E+03  0.92604367024E+03  0.40000000000E+03 0. -1.
<mgrwt>
<rscale>  2 0.42400597E+03</rscale>
<asrwt>0</asrwt>
<pdfrwt beam="1">  1        2 0.24252516E+00 0.42400597E+03</pdfrwt>
<pdfrwt beam="2">  1       -2 0.17756858E-01 0.42400597E+03</pdfrwt>
<totfact> 0.31507874E+02</totfact>
</mgrwt>
</event>
<event>
 6    1  0.8861680E-004  0.4026914E+03  0.7818608E-02  0.1042852E+00
          1   -1    0    0  502    0  0.00000000000E+00  0.00000000000E+00  0.18932778781E+03  0.18932778781E+03  0.00000000000E+00 0. -1.
         -1   -1    0    0    0  501 -0.00000000000E+00 -0.00000000000E+00 -0.10254556690E+04  0.10254556690E+04  0.00000000000E+00 0.  1.
    9000007    2    1    2  502    0 -0.22591002593E+02  0.39172624582E+02 -0.66472943179E+03  0.77726514133E+03  0.40028868897E+03 0.  0.
    9000005    1    3    3    0    0 -0.17289665253E+03 -0.92873759852E+02 -0.39880584788E+03  0.44448384900E+03  0.99999687468E+00 0.  0.
          4    1    3    3  502    0  0.15030564993E+03  0.13204638443E+03 -0.26592358390E+03  0.33278129232E+03  0.00000000000E+00 0.  1.
   -9000007    1    1    2    0  501  0.22591002593E+02 -0.39172624582E+02 -0.17139844939E+03  0.43751831546E+03  0.40000000000E+03 0. -1.
<mgrwt>
<rscale>  2 0.40269135E+03</rscale>
<asrwt>0</asrwt>
<pdfrwt beam="1">  1        1 0.29127352E-01 0.40269135E+03</pdfrwt>
<pdfrwt beam="2">  1       -1 0.15776241E+00 0.40269135E+03</pdfrwt>
<totfact> 0.51284752E+01</totfact>
</mgrwt>
</event>
<event>
 6    1  0.8861680E-004  0.4354431E+03  0.7818608E-02  0.1032154E+00
         -2   -1    0    0    0  501 -0.00000000000E+00  0.00000000000E+00  0.97495628434E+02  0.97495628434E+02  0.00000000000E+00 0. -1.
          2   -1    0    0  502    0  0.00000000000E+00 -0.00000000000E+00 -0.25779348029E+04  0.25779348029E+04  0.00000000000E+00 0.  1.
    9000007    2    1    2  502    0 -0.14926847459E+03  0.79624933352E+02 -0.57974031618E+03  0.72574395463E+03  0.40247266487E+03 0.  0.
    9000005    1    3    3    0    0 -0.39108402620E+02 -0.62922652393E+02  0.37293279096E+02  0.82948875816E+02  0.99999687468E+00 0.  0.
          4    1    3    3  502    0 -0.11016007197E+03  0.14254758575E+03 -0.61703359527E+03  0.64279507882E+03  0.00000000000E+00 0.  1.
   -9000007    1    1    2    0  501  0.14926847459E+03 -0.79624933352E+02 -0.19006988583E+04  0.19496864767E+04  0.40000000000E+03 0.  1.
<mgrwt>
<rscale>  2 0.43544315E+03</rscale>
<asrwt>0</asrwt>
<pdfrwt beam="1">  1        2 0.39660531E+00 0.43544315E+03</pdfrwt>
<pdfrwt beam="2">  1       -2 0.14999329E-01 0.43544315E+03</pdfrwt>
<totfact> 0.11986349E+02</totfact>
</mgrwt>
</event>
<event>
 6    1  0.8861680E-004  0.7340654E+03  0.7818608E-02  0.9660686E-01
          2   -1    0    0  502    0  0.00000000000E+00  0.00000000000E+00  0.10002159794E+04  0.10002159794E+04  0.00000000000E+00 0. -1.
         -2   -1    0    0    0  501 -0.00000000000E+00 -0.00000000000E+00 -0.10719923531E+04  0.10719923531E+04  0.00000000000E+00 0.  1.
    9000007    2    1    2  502    0 -0.60729863416E+03  0.10074421278E+03 -0.76664794867E+03  0.10613633725E+04  0.39972753697E+03 0.  0.
    9000005    1    3    3    0    0  0.52839762781E+02  0.40104604648E+01 -0.12514615649E+02  0.54458607423E+02  0.99999687468E+00 0.  0.
          4    1    3    3  502    0 -0.66013839694E+03  0.96733752318E+02 -0.75413333302E+03  0.10069047651E+04  0.00000000000E+00 0.  1.
   -9000007    1    1    2    0  501  0.60729863416E+03 -0.10074421278E+03  0.69487157496E+03  0.10108449600E+04  0.40000000000E+03 0. -1.
<mgrwt>
<rscale>  2 0.73406544E+03</rscale>
<asrwt>0</asrwt>
<pdfrwt beam="1">  1        2 0.15387938E+00 0.73406544E+03</pdfrwt>
<pdfrwt beam="2">  1       -2 0.16492190E+00 0.73406544E+03</pdfrwt>
<totfact> 0.59650569E+00</totfact>
</mgrwt>
</event>
<event>
 6    1  0.8861680E-004  0.4298785E+03  0.7818608E-02  0.1033898E+00
         -1   -1    0    0    0  501 -0.00000000000E+00  0.00000000000E+00  0.61476179337E+03  0.61476179337E+03  0.00000000000E+00 0. -1.
          1   -1    0    0  502    0  0.00000000000E+00 -0.00000000000E+00 -0.31771977936E+03  0.31771977936E+03  0.00000000000E+00 0.  1.
    9000007    2    1    2  502    0 -0.15460622823E+03  0.30438582898E+02  0.25674505773E+03  0.50067902778E+03  0.39991482975E+03 0.  0.
    9000005    1    3    3    0    0  0.18458659813E+02 -0.35879282443E+02  0.30620749042E+03  0.30885607039E+03  0.99999687468E+00 0.  0.
          4    1    3    3  502    0 -0.17306488804E+03  0.66317865341E+02 -0.49462432692E+02  0.19182295739E+03  0.00000000000E+00 0.  1.
   -9000007    1    1    2    0  501  0.15460622823E+03 -0.30438582898E+02  0.40296956277E+02  0.43180254494E+03  0.40000000000E+03 0.  1.
<mgrwt>
<rscale>  2 0.42987850E+03</rscale>
<asrwt>0</asrwt>
<pdfrwt beam="1">  1        1 0.48879966E-01 0.42987850E+03</pdfrwt>
<pdfrwt beam="2">  1       -1 0.94578737E-01 0.42987850E+03</pdfrwt>
<totfact> 0.91879901E+01</totfact>
</mgrwt>
</event>
<event>
 6    1  0.8861680E-004  0.4031682E+03  0.7818608E-02  0.1042688E+00
          2   -1    0    0  502    0  0.00000000000E+00  0.00000000000E+00  0.31366201545E+03  0.31366201545E+03  0.00000000000E+00 0. -1.
         -2   -1    0    0    0  501 -0.00000000000E+00 -0.00000000000E+00 -0.67335428762E+03  0.67335428762E+03  0.00000000000E+00 0.  1.
    9000007    2    1    2  502    0  0.35706157904E+02 -0.27731312949E+02 -0.41694060212E+03  0.58041904937E+03  0.40125160653E+03 0.  0.
    9000005    1    3    3    0    0  0.16443234337E+03 -0.12341176479E+03 -0.10778906259E+03  0.23213776350E+03  0.99999687468E+00 0.  0.
          4    1    3    3  502    0 -0.12872618547E+03  0.95680451842E+02 -0.30915153953E+03  0.34828128586E+03  0.00000000000E+00 0.  1.
   -9000007    1    1    2    0  501 -0.35706157904E+02  0.27731312949E+02  0.57248329948E+02  0.40659725369E+03  0.40000000000E+03 0. -1.
<mgrwt>
<rscale>  2 0.40316821E+03</rscale>
<asrwt>0</asrwt>
<pdfrwt beam="1">  1        2 0.48255695E-01 0.40316821E+03</pdfrwt>
<pdfrwt beam="2">  1       -2 0.10359297E+00 0.40316821E+03</pdfrwt>
<totfact> 0.81909610E+01</totfact>
</mgrwt>
</event>
<event>
 6    1  0.8861680E-004  0.6135125E+03  0.7818608E-02  0.9877762E-01
         -1   -1    0    0    0  501 -0.00000000000E+00  0.00000000000E+00  0.25523496413E+03  0.25523496413E+03  0.00000000000E+00 0. -1.
          1   -1    0    0  502    0  0.00000000000E+00 -0.00000000000E+00 -0.14843624907E+04  0.14843624907E+04  0.00000000000E+00 0.  1.
    9000007    2    1    2  502    0 -0.28098968959E+03  0.37069311282E+03 -0.54444701200E+03  0.82027379225E+03  0.40007243822E+03 0.  0.
    9000005    1    3    3    0    0 -0.19575117452E+03  0.29833852738E+03 -0.11257512928E+03  0.37416381301E+03  0.99999687468E+00 0.  0.
          4    1    3    3  502    0 -0.85238515074E+02  0.72354585447E+02 -0.43187188272E+03  0.44610997923E+03  0.00000000000E+00 0.  1.
   -9000007    1    1    2    0  501  0.28098968959E+03 -0.37069311282E+03 -0.68468051456E+03  0.91932366258E+03  0.40000000000E+03 0. -1.
<mgrwt>
<rscale>  2 0.61351248E+03</rscale>
<asrwt>0</asrwt>
<pdfrwt beam="1">  1        1 0.22836346E+00 0.61351248E+03</pdfrwt>
<pdfrwt beam="2">  1       -1 0.39266917E-01 0.61351248E+03</pdfrwt>
<totfact> 0.44226550E+01</totfact>
</mgrwt>
</event>
<event>
 6    1  0.8861680E-004  0.4063170E+03  0.7818608E-02  0.1041614E+00
          2   -1    0    0  502    0  0.00000000000E+00  0.00000000000E+00  0.20831815310E+04  0.20831815310E+04  0.00000000000E+00 0. -1.
         -2   -1    0    0    0  501 -0.00000000000E+00 -0.00000000000E+00 -0.79254535770E+02  0.79254535770E+02  0.00000000000E+00 0.  1.
    9000007    2    1    2  502    0  0.28989757818E+02  0.71428079901E+02  0.99237637885E+03  0.10719421300E+04  0.39787771500E+03 0.  0.
    9000005    1    3    3    0    0 -0.68998210173E+02 -0.90725237932E+02  0.77606154529E+03  0.78438787846E+03  0.99999687468E+00 0.  0.
          4    1    3    3  502    0  0.97987967991E+02  0.16215331783E+03  0.21631483356E+03  0.28755425153E+03  0.00000000000E+00 0.  1.
   -9000007    1    1    2    0  501 -0.28989757818E+02 -0.71428079901E+02  0.10115506164E+04  0.10904939368E+04  0.40000000000E+03 0. -1.
<mgrwt>
<rscale>  2 0.40631705E+03</rscale>
<asrwt>0</asrwt>
<pdfrwt beam="1">  1        2 0.32048942E+00 0.40631705E+03</pdfrwt>
<pdfrwt beam="2">  1       -2 0.12193007E-01 0.40631705E+03</pdfrwt>
<totfact> 0.31678430E+02</totfact>
</mgrwt>
</event>
<event>
 6    1  0.8861680E-004  0.4469752E+03  0.7818608E-02  0.1028628E+00
         -1   -1    0    0    0  501 -0.00000000000E+00  0.00000000000E+00  0.42808798724E+03  0.42808798724E+03  0.00000000000E+00 0. -1.
          1   -1    0    0  502    0  0.00000000000E+00 -0.00000000000E+00 -0.67728885427E+03  0.67728885427E+03  0.00000000000E+00 0.  1.
    9000007    2    1    2  502    0  0.14823979448E+02  0.19765955814E+03 -0.43289468915E+03  0.62264247193E+03  0.40124404628E+03 0.  0.
    9000005    1    3    3    0    0  0.15379121561E+03 -0.50391879054E+02 -0.13400096870E+03  0.21011506152E+03  0.99999687468E+00 0.  0.
          4    1    3    3  502    0 -0.13896723616E+03  0.24805143719E+03 -0.29889372045E+03  0.41252741041E+03  0.00000000000E+00 0.  1.
   -9000007    1    1    2    0  501 -0.14823979448E+02 -0.19765955814E+03  0.18369382212E+03  0.48273436958E+03  0.40000000000E+03 0.  1.
<mgrwt>
<rscale>  2 0.44697519E+03</rscale>
<asrwt>0</asrwt>
<pdfrwt beam="1">  1        1 0.10419828E+00 0.44697519E+03</pdfrwt>
<pdfrwt beam="2">  1       -1 0.65859691E-01 0.44697519E+03</pdfrwt>
<totfact> 0.70489735E+01</totfact>
</mgrwt>
</event>
<event>
 6    1  0.8861680E-004  0.4450525E+03  0.7818608E-02  0.1029208E+00
          1   -1    0    0  502    0  0.00000000000E+00  0.00000000000E+00  0.81322137504E+03  0.81322137504E+03  0.00000000000E+00 0. -1.
         -1   -1    0    0    0  501 -0.00000000000E+00 -0.00000000000E+00 -0.25246695388E+03  0.25246695388E+03  0.00000000000E+00 0.  1.
    9000007    2    1    2  502    0  0.19483897617E+03 -0.98914957431E+01  0.38044456548E+03  0.58550949518E+03  0.40002904047E+03 0.  0.
    9000005    1    3    3    0    0  0.18948787441E+03  0.16918548447E+03  0.28760047470E+03  0.38372440077E+03  0.99999687468E+00 0.  0.
          4    1    3    3  502    0  0.53511017594E+01 -0.17907698022E+03  0.92844090781E+02  0.20178509441E+03  0.00000000000E+00 0.  1.
   -9000007    1    1    2    0  501 -0.19483897617E+03  0.98914957431E+01  0.18030985568E+03  0.48017883375E+03  0.40000000000E+03 0. -1.
<mgrwt>
<rscale>  2 0.44505245E+03</rscale>
<asrwt>0</asrwt>
<pdfrwt beam="1">  1        1 0.12511098E+00 0.44505245E+03</pdfrwt>
<pdfrwt beam="2">  1       -1 0.38841070E-01 0.44505245E+03</pdfrwt>
<totfact> 0.14431826E+02</totfact>
</mgrwt>
</event>
<event>
 6    1  0.8861680E-004  0.4809313E+03  0.7818608E-02  0.1018880E+00
          1   -1    0    0  502    0  0.00000000000E+00  0.00000000000E+00  0.44023416564E+03  0.44023416564E+03  0.00000000000E+00 0.  1.
         -1   -1    0    0    0  501 -0.00000000000E+00 -0.00000000000E+00 -0.55254417021E+03  0.55254417021E+03  0.00000000000E+00 0. -1.
    9000007    2    1    2  502    0  0.25346914265E+03 -0.84201165512E+02 -0.16619051336E+03  0.50879532811E+03  0.39989618231E+03 0.  0.
    9000005    1    3    3    0    0  0.27057081167E+03 -0.10954797479E+03  0.45040766483E+02  0.29536247823E+03  0.99999687468E+00 0.  0.
          4    1    3    3  502    0 -0.17101669017E+02  0.25346809274E+02 -0.21123127984E+03  0.21343284988E+03  0.00000000000E+00 0.  1.
   -9000007    1    1    2    0  501 -0.25346914265E+03  0.84201165512E+02  0.53880508790E+02  0.48398300774E+03  0.40000000000E+03 0.  1.
<mgrwt>
<rscale>  2 0.48093130E+03</rscale>
<asrwt>0</asrwt>
<pdfrwt beam="1">  1        1 0.67728333E-01 0.48093130E+03</pdfrwt>
<pdfrwt beam="2">  1       -1 0.85006795E-01 0.48093130E+03</pdfrwt>
<totfact> 0.75381126E+01</totfact>
</mgrwt>
</event>
<event>
 6    1  0.8861680E-004  0.4809299E+03  0.7818608E-02  0.1018880E+00
          1   -1    0    0  502    0  0.00000000000E+00  0.00000000000E+00  0.29403916850E+04  0.29403916850E+04  0.00000000000E+00 0.  1.
         -1   -1    0    0    0  501 -0.00000000000E+00 -0.00000000000E+00 -0.84808693883E+02  0.84808693883E+02  0.00000000000E+00 0. -1.
    9000007    2    1    2  502    0 -0.52566304516E+02 -0.26119941406E+03  0.10214112476E+04  0.11291058836E+04  0.40076278446E+03 0.  0.
    9000005    1    3    3    0    0 -0.67050933695E+02 -0.34742510315E+03  0.58231782818E+03  0.68139201861E+03  0.99999687468E+00 0.  0.
          4    1    3    3  502    0  0.14484629180E+02  0.86225689091E+02  0.43909341940E+03  0.44771386499E+03  0.00000000000E+00 0.  1.
   -9000007    1    1    2    0  501  0.52566304516E+02  0.26119941406E+03  0.18341717435E+04  0.18960944953E+04  0.40000000000E+03 0.  1.
<mgrwt>
<rscale>  2 0.48092988E+03</rscale>
<asrwt>0</asrwt>
<pdfrwt beam="1">  1        1 0.45236787E+00 0.48092988E+03</pdfrwt>
<pdfrwt beam="2">  1       -1 0.13047494E-01 0.48092988E+03</pdfrwt>
<totfact> 0.30158856E+01</totfact>
</mgrwt>
</event>
<event>
 6    1  0.8861680E-004  0.4416008E+03  0.7818608E-02  0.1030257E+00
         -1   -1    0    0    0  501 -0.00000000000E+00  0.00000000000E+00  0.14154992718E+03  0.14154992718E+03  0.00000000000E+00 0.  1.
          1   -1    0    0  502    0  0.00000000000E+00 -0.00000000000E+00 -0.13798869635E+04  0.13798869635E+04  0.00000000000E+00 0. -1.
    9000007    2    1    2  502    0  0.16340062666E+03  0.90741486285E+02 -0.58890509629E+03  0.73613718557E+03  0.40019365489E+03 0.  0.
    9000005    1    3    3    0    0  0.12674753730E+03  0.18193030142E+03 -0.59766314794E+03  0.63746828250E+03  0.99999687468E+00 0.  0.
          4    1    3    3  502    0  0.36653089367E+02 -0.91188815133E+02  0.87580516534E+01  0.98668903076E+02  0.00000000000E+00 0.  1.
   -9000007    1    1    2    0  501 -0.16340062666E+03 -0.90741486285E+02 -0.64943194004E+03  0.78529970512E+03  0.40000000000E+03 0.  1.
<mgrwt>
<rscale>  2 0.44160078E+03</rscale>
<asrwt>0</asrwt>
<pdfrwt beam="1">  1        1 0.21229030E+00 0.44160078E+03</pdfrwt>
<pdfrwt beam="2">  1       -1 0.21776912E-01 0.44160078E+03</pdfrwt>
<totfact> 0.14790799E+02</totfact>
</mgrwt>
</event>
<event>
 6    1  0.8861680E-004  0.4715496E+03  0.7818608E-02  0.1021484E+00
          2   -1    0    0  502    0  0.00000000000E+00  0.00000000000E+00  0.17675317030E+03  0.17675317030E+03  0.00000000000E+00 0. -1.
         -2   -1    0    0    0  501 -0.00000000000E+00 -0.00000000000E+00 -0.12623436737E+04  0.12623436737E+04  0.00000000000E+00 0.  1.
    9000007    2    1    2  502    0  0.13699130369E+03 -0.20845800428E+03 -0.50085167589E+03  0.68800373843E+03  0.40034408452E+03 0.  0.
    9000005    1    3    3    0    0  0.42409018509E+02 -0.20824844540E+03 -0.54400282030E+03  0.58404281380E+03  0.99999687468E+00 0.  0.
          4    1    3    3  502    0  0.94582285180E+02 -0.20955887411E+00  0.43151144411E+02  0.10396092462E+03  0.00000000000E+00 0.  1.
   -9000007    1    1    2    0  501 -0.13699130369E+03  0.20845800428E+03 -0.58473882751E+03  0.75109310557E+03  0.40000000000E+03 0.  1.
<mgrwt>
<rscale>  2 0.47154958E+03</rscale>
<asrwt>0</asrwt>
<pdfrwt beam="1">  1        2 0.27192795E-01 0.47154958E+03</pdfrwt>
<pdfrwt beam="2">  1       -2 0.19420672E+00 0.47154958E+03</pdfrwt>
<totfact> 0.30068921E+01</totfact>
</mgrwt>
</event>
<event>
 6    1  0.8861680E-004  0.4423890E+03  0.7818608E-02  0.1030016E+00
         -2   -1    0    0    0  501 -0.00000000000E+00  0.00000000000E+00  0.22748983677E+03  0.22748983677E+03  0.00000000000E+00 0. -1.
          2   -1    0    0  502    0  0.00000000000E+00 -0.00000000000E+00 -0.86463988341E+03  0.86463988341E+03  0.00000000000E+00 0.  1.
    9000007    2    1    2  502    0  0.18824449448E+03  0.25348594708E+02 -0.27956274818E+03  0.52296610840E+03  0.39907352632E+03 0.  0.
    9000005    1    3    3    0    0  0.64847613431E+02  0.13388912508E+03  0.48139483603E+02  0.15636470400E+03  0.99999687468E+00 0.  0.
          4    1    3    3  502    0  0.12339688105E+03 -0.10854053037E+03 -0.32770223179E+03  0.36660140439E+03  0.00000000000E+00 0.  1.
   -9000007    1    1    2    0  501 -0.18824449448E+03 -0.25348594708E+02 -0.35758729847E+03  0.56916361178E+03  0.40000000000E+03 0.  1.
<mgrwt>
<rscale>  2 0.44238900E+03</rscale>
<asrwt>0</asrwt>
<pdfrwt beam="1">  1        2 0.13302152E+00 0.44238900E+03</pdfrwt>
<pdfrwt beam="2">  1       -2 0.34998437E-01 0.44238900E+03</pdfrwt>
<totfact> 0.24428557E+02</totfact>
</mgrwt>
</event>
<event>
 6    1  0.8861680E-004  0.4343038E+03  0.7818608E-02  0.1032509E+00
         -2   -1    0    0    0  501 -0.00000000000E+00  0.00000000000E+00  0.13848429050E+03  0.13848429050E+03  0.00000000000E+00 0. -1.
          2   -1    0    0  502    0  0.00000000000E+00 -0.00000000000E+00 -0.14325283102E+04  0.14325283102E+04  0.00000000000E+00 0.  1.
    9000007    2    1    2  502    0 -0.66855756707E+02 -0.15468484115E+03 -0.47313059378E+03  0.64241368559E+03  0.40055672804E+03 0.  0.
    9000005    1    3    3    0    0  0.15979771478E+03 -0.66394748627E+02 -0.10900392552E+03  0.20451510474E+03  0.99999687468E+00 0.  0.
          4    1    3    3  502    0 -0.22665347149E+03 -0.88290092524E+02 -0.36412666825E+03  0.43789858085E+03  0.00000000000E+00 0.  1.
   -9000007    1    1    2    0  501  0.66855756707E+02  0.15468484115E+03 -0.82091342596E+03  0.92859891515E+03  0.40000000000E+03 0.  1.
<mgrwt>
<rscale>  2 0.43430382E+03</rscale>
<asrwt>0</asrwt>
<pdfrwt beam="1">  1        2 0.22038897E+00 0.43430382E+03</pdfrwt>
<pdfrwt beam="2">  1       -2 0.21305276E-01 0.43430382E+03</pdfrwt>
<totfact> 0.27531834E+02</totfact>
</mgrwt>
</event>
<event>
 6    1  0.8861680E-004  0.7746111E+03  0.7818608E-02  0.9597511E-01
         -1   -1    0    0    0  501 -0.00000000000E+00  0.00000000000E+00  0.62372599322E+03  0.62372599322E+03  0.00000000000E+00 0.  1.
          1   -1    0    0  502    0  0.00000000000E+00 -0.00000000000E+00 -0.12967917090E+04  0.12967917090E+04  0.00000000000E+00 0. -1.
    9000007    2    1    2  502    0 -0.60094598899E+03 -0.28102823647E+03  0.15139927232E+03  0.78921072885E+03  0.39977354027E+03 0.  0.
    9000005    1    3    3    0    0 -0.42910310671E+02  0.93143338263E+02  0.15236108769E+02  0.10368276245E+03  0.99999687468E+00 0.  0.
          4    1    3    3  502    0 -0.55803567832E+03 -0.37417157473E+03  0.13616316355E+03  0.68552796640E+03  0.00000000000E+00 0.  1.
   -9000007    1    1    2    0  501  0.60094598899E+03  0.28102823647E+03 -0.82446498806E+03  0.11313069733E+04  0.40000000000E+03 0. -1.
<mgrwt>
<rscale>  2 0.77461112E+03</rscale>
<asrwt>0</asrwt>
<pdfrwt beam="1">  1        1 0.19950642E+00 0.77461112E+03</pdfrwt>
<pdfrwt beam="2">  1       -1 0.95957846E-01 0.77461112E+03</pdfrwt>
<totfact> 0.98262191E+00</totfact>
</mgrwt>
</event>
<event>
 6    1  0.8861680E-004  0.6425871E+03  0.7818608E-02  0.9820789E-01
          2   -1    0    0  502    0  0.00000000000E+00  0.00000000000E+00  0.10070300369E+04  0.10070300369E+04  0.00000000000E+00 0.  1.
         -2   -1    0    0    0  501 -0.00000000000E+00 -0.00000000000E+00 -0.42339814444E+03  0.42339814444E+03  0.00000000000E+00 0. -1.
    9000007    2    1    2  502    0  0.70060644994E+02 -0.49805823871E+03  0.41885690458E+03  0.76701179647E+03  0.39986933651E+03 0.  0.
    9000005    1    3    3    0    0  0.92302015401E+02 -0.25095575389E+03 -0.14362231622E+02  0.26777924892E+03  0.99999687468E+00 0.  0.
          4    1    3    3  502    0 -0.22241370406E+02 -0.24710248482E+03  0.43321913620E+03  0.49923254755E+03  0.00000000000E+00 0.  1.
   -9000007    1    1    2    0  501 -0.70060644994E+02  0.49805823871E+03  0.16477498790E+03  0.66341638490E+03  0.40000000000E+03 0. -1.
<mgrwt>
<rscale>  2 0.64258715E+03</rscale>
<asrwt>0</asrwt>
<pdfrwt beam="1">  1        2 0.15492770E+00 0.64258715E+03</pdfrwt>
<pdfrwt beam="2">  1       -2 0.65138176E-01 0.64258715E+03</pdfrwt>
<totfact> 0.55551655E+01</totfact>
</mgrwt>
</event>
<event>
 6    1  0.8861680E-004  0.4216332E+03  0.7818608E-02  0.1036536E+00
          2   -1    0    0  502    0  0.00000000000E+00  0.00000000000E+00  0.14655350745E+04  0.14655350745E+04  0.00000000000E+00 0.  1.
         -2   -1    0    0    0  501 -0.00000000000E+00 -0.00000000000E+00 -0.12256536450E+03  0.12256536450E+03  0.00000000000E+00 0. -1.
    9000007    2    1    2  502    0  0.92173122036E+02 -0.96517399581E+02  0.75198439715E+03  0.86210103621E+03  0.39990770213E+03 0.  0.
    9000005    1    3    3    0    0  0.10752631996E+03  0.38400819584E+02  0.17915978833E+02  0.11557904100E+03  0.99999687468E+00 0.  0.
          4    1    3    3  502    0 -0.15353197920E+02 -0.13491821917E+03  0.73406841832E+03  0.74652199520E+03  0.00000000000E+00 0.  1.
   -9000007    1    1    2    0  501 -0.92173122036E+02  0.96517399581E+02  0.59098531285E+03  0.72599940279E+03  0.40000000000E+03 0.  1.
<mgrwt>
<rscale>  2 0.42163322E+03</rscale>
<asrwt>0</asrwt>
<pdfrwt beam="1">  1        2 0.22546692E+00 0.42163322E+03</pdfrwt>
<pdfrwt beam="2">  1       -2 0.18856211E-01 0.42163322E+03</pdfrwt>
<totfact> 0.32675831E+02</totfact>
</mgrwt>
</event>
<event>
 6    1  0.8861680E-004  0.4312503E+03  0.7818608E-02  0.1033466E+00
         -2   -1    0    0    0  501 -0.00000000000E+00  0.00000000000E+00  0.18440622445E+03  0.18440622445E+03  0.00000000000E+00 0.  1.
          2   -1    0    0  502    0  0.00000000000E+00 -0.00000000000E+00 -0.12656909702E+04  0.12656909702E+04  0.00000000000E+00 0. -1.
    9000007    2    1    2  502    0  0.70308924575E+01 -0.16199853106E+03 -0.21345117032E+03  0.48085621730E+03  0.39920964680E+03 0.  0.
    9000005    1    3    3    0    0 -0.87722976795E+02 -0.22720468622E+03 -0.26046609857E+03  0.35659624029E+03  0.99999687468E+00 0.  0.
          4    1    3    3  502    0  0.94753869253E+02  0.65206155156E+02  0.47014928250E+02  0.12425997701E+03  0.00000000000E+00 0.  1.
   -9000007    1    1    2    0  501 -0.70308924575E+01  0.16199853106E+03 -0.86783357542E+03  0.96924097734E+03  0.40000000000E+03 0. -1.
<mgrwt>
<rscale>  2 0.43125035E+03</rscale>
<asrwt>0</asrwt>
<pdfrwt beam="1">  1        2 0.19472170E+00 0.43125035E+03</pdfrwt>
<pdfrwt beam="2">  1       -2 0.28370187E-01 0.43125035E+03</pdfrwt>
<totfact> 0.20491482E+02</totfact>
</mgrwt>
</event>
<event>
 6    1  0.8861680E-004  0.4175553E+03  0.7818608E-02  0.1037865E+00
         -1   -1    0    0    0  501 -0.00000000000E+00  0.00000000000E+00  0.52717118444E+04  0.52717118444E+04  0.00000000000E+00 0. -1.
          1   -1    0    0  502    0  0.00000000000E+00 -0.00000000000E+00 -0.35154469313E+02  0.35154469313E+02  0.00000000000E+00 0.  1.
    9000007    2    1    2  502    0  0.37927086350E+02 -0.11410130999E+03  0.19719118536E+04  0.20156100256E+04  0.39973721902E+03 0.  0.
    9000005    1    3    3    0    0  0.14695330272E+03 -0.21831569818E+03  0.13734485150E+04  0.13984344249E+04  0.99999687468E+00 0.  0.
          4    1    3    3  502    0 -0.10902621637E+03  0.10421438820E+03  0.59846333855E+03  0.61717560074E+03  0.00000000000E+00 0.  1.
   -9000007    1    1    2    0  501 -0.37927086350E+02  0.11410130999E+03  0.32646455215E+04  0.32912562881E+04  0.40000000000E+03 0. -1.
<mgrwt>
<rscale>  2 0.41755534E+03</rscale>
<asrwt>0</asrwt>
<pdfrwt beam="1">  1        1 0.54083841E-02 0.41755534E+03</pdfrwt>
<pdfrwt beam="2">  1       -1 0.81103196E+00 0.41755534E+03</pdfrwt>
<totfact> 0.11921340E-01</totfact>
</mgrwt>
</event>
<event>
 6    1  0.8861680E-004  0.4882847E+03  0.7818608E-02  0.1016883E+00
          1   -1    0    0  502    0  0.00000000000E+00  0.00000000000E+00  0.90796794841E+03  0.90796794841E+03  0.00000000000E+00 0.  1.
         -1   -1    0    0    0  501 -0.00000000000E+00 -0.00000000000E+00 -0.27144965043E+03  0.27144965043E+03  0.00000000000E+00 0. -1.
    9000007    2    1    2  502    0  0.17181551138E+03 -0.22292517214E+03  0.42428867651E+03  0.64625944730E+03  0.39801280115E+03 0.  0.
    9000005    1    3    3    0    0  0.81436563132E+02 -0.17113520092E+03 -0.19391278212E+02  0.19051559640E+03  0.99999687468E+00 0.  0.
          4    1    3    3  502    0  0.90378948243E+02 -0.51789971224E+02  0.44367995472E+03  0.45574385089E+03  0.00000000000E+00 0.  1.
   -9000007    1    1    2    0  501 -0.17181551138E+03  0.22292517214E+03  0.21222962147E+03  0.53315815154E+03  0.40000000000E+03 0. -1.
<mgrwt>
<rscale>  2 0.48828473E+03</rscale>
<asrwt>0</asrwt>
<pdfrwt beam="1">  1        1 0.13968738E+00 0.48828473E+03</pdfrwt>
<pdfrwt beam="2">  1       -1 0.41761485E-01 0.48828473E+03</pdfrwt>
<totfact> 0.10532388E+02</totfact>
</mgrwt>
</event>
<event>
 6    1  0.8861680E-004  0.7371917E+03  0.7818608E-02  0.9655662E-01
          1   -1    0    0  502    0  0.00000000000E+00  0.00000000000E+00  0.95004755457E+03  0.95004755457E+03  0.00000000000E+00 0.  1.
         -1   -1    0    0    0  501 -0.00000000000E+00 -0.00000000000E+00 -0.65898065576E+03  0.65898065576E+03  0.00000000000E+00 0. -1.
    9000007    2    1    2  502    0 -0.26358643461E+03  0.55719405951E+03 -0.14628936245E+03  0.75391212013E+03  0.40870512458E+03 0.  0.
    9000005    1    3    3    0    0 -0.85264472760E+02  0.40126247904E+03  0.89292238673E+02  0.41982819257E+03  0.99999687468E+00 0.  0.
          4    1    3    3  502    0 -0.17832196185E+03  0.15593158047E+03 -0.23558160112E+03  0.33408392756E+03  0.00000000000E+00 0.  1.
   -9000007    1    1    2    0  501  0.26358643461E+03 -0.55719405951E+03  0.43735626126E+03  0.85511609020E+03  0.40000000000E+03 0.  1.
<mgrwt>
<rscale>  2 0.73719168E+03</rscale>
<asrwt>0</asrwt>
<pdfrwt beam="1">  1        1 0.14616116E+00 0.73719168E+03</pdfrwt>
<pdfrwt beam="2">  1       -1 0.10138164E+00 0.73719168E+03</pdfrwt>
<totfact> 0.15788218E+01</totfact>
</mgrwt>
</event>
<event>
 6    1  0.8861680E-004  0.4470020E+03  0.7818608E-02  0.1028620E+00
          2   -1    0    0  502    0  0.00000000000E+00  0.00000000000E+00  0.20250279121E+04  0.20250279121E+04  0.00000000000E+00 0.  1.
         -2   -1    0    0    0  501 -0.00000000000E+00 -0.00000000000E+00 -0.10731878421E+03  0.10731878421E+03  0.00000000000E+00 0. -1.
    9000007    2    1    2  502    0 -0.14805515017E+03  0.13457432403E+03  0.12610272329E+04  0.13378269122E+04  0.39945035818E+03 0.  0.
    9000005    1    3    3    0    0  0.89058132623E+02  0.13622653477E+03  0.24244939931E+03  0.29201323769E+03  0.99999687468E+00 0.  0.
          4    1    3    3  502    0 -0.23711328279E+03 -0.16522107494E+01  0.10185778336E+04  0.10458136745E+04  0.00000000000E+00 0.  1.
   -9000007    1    1    2    0  501  0.14805515017E+03 -0.13457432403E+03  0.65668189503E+03  0.79451978417E+03  0.40000000000E+03 0. -1.
<mgrwt>
<rscale>  2 0.44700196E+03</rscale>
<asrwt>0</asrwt>
<pdfrwt beam="1">  1        2 0.31154273E+00 0.44700196E+03</pdfrwt>
<pdfrwt beam="2">  1       -2 0.16510584E-01 0.44700196E+03</pdfrwt>
<totfact> 0.20425050E+02</totfact>
</mgrwt>
</event>
<event>
 6    1  0.8861680E-004  0.4108501E+03  0.7818608E-02  0.1040086E+00
         -2   -1    0    0    0  501 -0.00000000000E+00  0.00000000000E+00  0.41394870585E+03  0.41394870585E+03  0.00000000000E+00 0. -1.
          2   -1    0    0  502    0  0.00000000000E+00 -0.00000000000E+00 -0.45879903124E+03  0.45879903124E+03  0.00000000000E+00 0.  1.
    9000007    2    1    2  502    0 -0.66344132037E+02  0.67490484741E+02  0.12310872942E+03  0.42871310614E+03  0.39960312653E+03 0.  0.
    9000005    1    3    3    0    0  0.62908733165E+02  0.14352740521E+03  0.20485256876E+03  0.25792091748E+03  0.99999687468E+00 0.  0.
          4    1    3    3  502    0 -0.12925286520E+03 -0.76036920469E+02 -0.81743839340E+02  0.17079218866E+03  0.00000000000E+00 0.  1.
   -9000007    1    1    2    0  501  0.66344132037E+02 -0.67490484741E+02 -0.16795905480E+03  0.44403463094E+03  0.40000000000E+03 0.  1.
<mgrwt>
<rscale>  2 0.41085005E+03</rscale>
<asrwt>0</asrwt>
<pdfrwt beam="1">  1        2 0.70584466E-01 0.41085005E+03</pdfrwt>
<pdfrwt beam="2">  1       -2 0.63684416E-01 0.41085005E+03</pdfrwt>
<totfact> 0.15967115E+02</totfact>
</mgrwt>
</event>
<event>
 6    1  0.8861680E-004  0.4588041E+03  0.7818608E-02  0.1025129E+00
         -2   -1    0    0    0  501 -0.00000000000E+00  0.00000000000E+00  0.20626633166E+03  0.20626633166E+03  0.00000000000E+00 0. -1.
          2   -1    0    0  502    0  0.00000000000E+00 -0.00000000000E+00 -0.10820501675E+04  0.10820501675E+04  0.00000000000E+00 0.  1.
    9000007    2    1    2  502    0  0.18556086197E+03  0.12653688651E+03 -0.59154142299E+03  0.74865163428E+03  0.40014197138E+03 0.  0.
    9000005    1    3    3    0    0  0.15962643823E+03  0.65251464964E+02 -0.20408028952E+02  0.17365437254E+03  0.99999687468E+00 0.  0.
          4    1    3    3  502    0  0.25934423742E+02  0.61285421544E+02 -0.57113339404E+03  0.57499726175E+03  0.00000000000E+00 0.  1.
   -9000007    1    1    2    0  501 -0.18556086197E+03 -0.12653688651E+03 -0.28424241289E+03  0.53966486492E+03  0.40000000000E+03 0.  1.
<mgrwt>
<rscale>  2 0.45880411E+03</rscale>
<asrwt>0</asrwt>
<pdfrwt beam="1">  1        2 0.16646926E+00 0.45880411E+03</pdfrwt>
<pdfrwt beam="2">  1       -2 0.31733282E-01 0.45880411E+03</pdfrwt>
<totfact> 0.21303747E+02</totfact>
</mgrwt>
</event>
<event>
 6    1  0.8861680E-004  0.4322366E+03  0.7818608E-02  0.1033156E+00
         -2   -1    0    0    0  501 -0.00000000000E+00  0.00000000000E+00  0.55289636745E+03  0.55289636745E+03  0.00000000000E+00 0. -1.
          2   -1    0    0  502    0  0.00000000000E+00 -0.00000000000E+00 -0.51631720348E+03  0.51631720348E+03  0.00000000000E+00 0.  1.
    9000007    2    1    2  502    0  0.37087981537E+02 -0.15832313042E+03 -0.29595392596E+03  0.52421816920E+03  0.40096662035E+03 0.  0.
    9000005    1    3    3    0    0 -0.21919083822E+02 -0.21563358824E+03  0.30950596513E+00  0.21674728695E+03  0.99999687468E+00 0.  0.
          4    1    3    3  502    0  0.59007065359E+02  0.57310457820E+02 -0.29626343192E+03  0.30747088225E+03  0.00000000000E+00 0.  1.
   -9000007    1    1    2    0  501 -0.37087981537E+02  0.15832313042E+03  0.33253308993E+03  0.54499540173E+03  0.40000000000E+03 0. -1.
<mgrwt>
<rscale>  2 0.43223656E+03</rscale>
<asrwt>0</asrwt>
<pdfrwt beam="1">  1        2 0.79433416E-01 0.43223656E+03</pdfrwt>
<pdfrwt beam="2">  1       -2 0.85060979E-01 0.43223656E+03</pdfrwt>
<totfact> 0.73955567E+01</totfact>
</mgrwt>
</event>
<event>
 6    1  0.8861680E-004  0.4144072E+03  0.7818608E-02  0.1038902E+00
          2   -1    0    0  502    0  0.00000000000E+00  0.00000000000E+00  0.73573898853E+03  0.73573898853E+03  0.00000000000E+00 0.  1.
         -2   -1    0    0    0  501 -0.00000000000E+00 -0.00000000000E+00 -0.24632682082E+03  0.24632682082E+03  0.00000000000E+00 0. -1.
    9000007    2    1    2  502    0 -0.28284519993E+02 -0.12018445410E+03  0.35466620910E+03  0.54229224211E+03  0.39121405764E+03 0.  0.
    9000005    1    3    3    0    0  0.16411710525E+03  0.12685288854E+02  0.21192355722E+03  0.26834294269E+03  0.99999687468E+00 0.  0.
          4    1    3    3  502    0 -0.19240162525E+03 -0.13286974296E+03  0.14274265188E+03  0.27394929943E+03  0.00000000000E+00 0.  1.
   -9000007    1    1    2    0  501  0.28284519993E+02  0.12018445410E+03  0.13474595860E+03  0.43977356724E+03  0.40000000000E+03 0. -1.
<mgrwt>
<rscale>  2 0.41440725E+03</rscale>
<asrwt>0</asrwt>
<pdfrwt beam="1">  1        2 0.11319061E+00 0.41440725E+03</pdfrwt>
<pdfrwt beam="2">  1       -2 0.37896434E-01 0.41440725E+03</pdfrwt>
<totfact> 0.25961846E+02</totfact>
</mgrwt>
</event>
<event>
 6    1  0.8861680E-004  0.6297113E+03  0.7818608E-02  0.9845612E-01
          2   -1    0    0  502    0  0.00000000000E+00  0.00000000000E+00  0.14406086237E+04  0.14406086237E+04  0.00000000000E+00 0. -1.
         -2   -1    0    0    0  501 -0.00000000000E+00 -0.00000000000E+00 -0.28132045653E+03  0.28132045653E+03  0.00000000000E+00 0.  1.
    9000007    2    1    2  502    0 -0.14280028199E+02  0.48639693926E+03  0.45305681800E+03  0.77559477340E+03  0.39937560074E+03 0.  0.
    9000005    1    3    3    0    0 -0.16030923633E+03  0.41606724419E+03  0.41494721908E+03  0.60909210926E+03  0.99999687468E+00 0.  0.
          4    1    3    3  502    0  0.14602920814E+03  0.70329695070E+02  0.38109598918E+02  0.16650266414E+03  0.00000000000E+00 0.  1.
   -9000007    1    1    2    0  501  0.14280028199E+02 -0.48639693926E+03  0.70623134921E+03  0.94633430686E+03  0.40000000000E+03 0.  1.
<mgrwt>
<rscale>  2 0.62971125E+03</rscale>
<asrwt>0</asrwt>
<pdfrwt beam="1">  1        2 0.22163209E+00 0.62971125E+03</pdfrwt>
<pdfrwt beam="2">  1       -2 0.43280071E-01 0.62971125E+03</pdfrwt>
<totfact> 0.71679059E+01</totfact>
</mgrwt>
</event>
<event>
 6    1  0.8861680E-004  0.4254995E+03  0.7818608E-02  0.1035291E+00
         -2   -1    0    0    0  501 -0.00000000000E+00  0.00000000000E+00  0.16824249715E+03  0.16824249715E+03  0.00000000000E+00 0.  1.
          2   -1    0    0  502    0  0.00000000000E+00 -0.00000000000E+00 -0.11027218568E+04  0.11027218568E+04  0.00000000000E+00 0. -1.
    9000007    2    1    2  502    0 -0.24583764794E+02  0.13920047144E+03 -0.36991256354E+03  0.56476551509E+03  0.40267064660E+03 0.  0.
    9000005    1    3    3    0    0  0.18325598538E+03  0.22903726583E+02 -0.12414449663E+03  0.22253133017E+03  0.99999687468E+00 0.  0.
          4    1    3    3  502    0 -0.20783975018E+03  0.11629674486E+03 -0.24576806690E+03  0.34223418492E+03  0.00000000000E+00 0.  1.
   -9000007    1    1    2    0  501  0.24583764794E+02 -0.13920047144E+03 -0.56456679610E+03  0.70619883885E+03  0.40000000000E+03 0. -1.
<mgrwt>
<rscale>  2 0.42549945E+03</rscale>
<asrwt>0</asrwt>
<pdfrwt beam="1">  1        2 0.16964952E+00 0.42549945E+03</pdfrwt>
<pdfrwt beam="2">  1       -2 0.25883461E-01 0.42549945E+03</pdfrwt>
<totfact> 0.30129502E+02</totfact>
</mgrwt>
</event>
<event>
 6    1  0.8861680E-004  0.6530754E+03  0.7818608E-02  0.9801025E-01
         -4   -1    0    0    0  501 -0.00000000000E+00  0.00000000000E+00  0.57950261834E+03  0.57950261834E+03  0.00000000000E+00 0.  1.
          4   -1    0    0  502    0  0.00000000000E+00 -0.00000000000E+00 -0.75628782156E+03  0.75628782156E+03  0.00000000000E+00 0. -1.
    9000007    2    1    2  502    0  0.38225800312E+03 -0.34704345596E+03  0.21033901581E+02  0.65337360284E+03  0.39986785143E+03 0.  0.
    9000005    1    3    3    0    0  0.17512123239E+02 -0.26748723235E+03 -0.51781929138E+02  0.27301732932E+03  0.99999687468E+00 0.  0.
          4    1    3    3  502    0  0.36474587988E+03 -0.79556223607E+02  0.72815830719E+02  0.38035627352E+03  0.00000000000E+00 0.  1.
   -9000007    1    1    2    0  501 -0.38225800312E+03  0.34704345596E+03 -0.19781910481E+03  0.68241683706E+03  0.40000000000E+03 0.  1.
<mgrwt>
<rscale>  2 0.65307541E+03</rscale>
<asrwt>0</asrwt>
<pdfrwt beam="1">  1        4 0.11635197E+00 0.65307541E+03</pdfrwt>
<pdfrwt beam="2">  1       -4 0.89154249E-01 0.65307541E+03</pdfrwt>
<totfact> 0.12097655E+00</totfact>
</mgrwt>
</event>
<event>
 6    1  0.8861680E-004  0.1275746E+04  0.7818608E-02  0.9049023E-01
         -2   -1    0    0    0  501 -0.00000000000E+00  0.00000000000E+00  0.17914063293E+04  0.17914063293E+04  0.00000000000E+00 0.  1.
          2   -1    0    0  502    0  0.00000000000E+00 -0.00000000000E+00 -0.10425380453E+04  0.10425380453E+04  0.00000000000E+00 0. -1.
    9000007    2    1    2  502    0 -0.21573187193E+03  0.11922593348E+04  0.88242455765E+03  0.15510336839E+04  0.39876036229E+03 0.  0.
    9000005    1    3    3    0    0  0.30378891181E+02 -0.18339287240E+02  0.51592765715E+01  0.35872337732E+02  0.99999687468E+00 0.  0.
          4    1    3    3  502    0 -0.24611076312E+03  0.12105986221E+04  0.87726528108E+03  0.15151613462E+04  0.00000000000E+00 0.  1.
   -9000007    1    1    2    0  501  0.21573187193E+03 -0.11922593348E+04 -0.13355627360E+03  0.12829106907E+04  0.40000000000E+03 0. -1.
<mgrwt>
<rscale>  2 0.12757458E+04</rscale>
<asrwt>0</asrwt>
<pdfrwt beam="1">  1        2 0.16039047E+00 0.12757458E+04</pdfrwt>
<pdfrwt beam="2">  1       -2 0.27560097E+00 0.12757458E+04</pdfrwt>
<totfact> 0.10256765E+00</totfact>
</mgrwt>
</event>
<event>
 6    1  0.8861680E-004  0.5668688E+03  0.7818608E-02  0.9976632E-01
          2   -1    0    0  502    0  0.00000000000E+00  0.00000000000E+00  0.34907230477E+04  0.34907230477E+04  0.00000000000E+00 0.  1.
         -2   -1    0    0    0  501 -0.00000000000E+00 -0.00000000000E+00 -0.92794218326E+02  0.92794218326E+02  0.00000000000E+00 0. -1.
    9000007    2    1    2  502    0 -0.36854968915E+03 -0.15933636581E+03  0.18591553729E+04  0.19436877928E+04  0.40030811202E+03 0.  0.
    9000005    1    3    3    0    0  0.70729777509E+02 -0.30350281674E+02  0.10150420867E+03  0.12738895319E+03  0.99999687468E+00 0.  0.
          4    1    3    3  502    0 -0.43927946666E+03 -0.12898608413E+03  0.17576511642E+04  0.18162988396E+04  0.00000000000E+00 0.  1.
   -9000007    1    1    2    0  501  0.36854968915E+03  0.15933636581E+03  0.15387734565E+04  0.16398294732E+04  0.40000000000E+03 0. -1.
<mgrwt>
<rscale>  2 0.56686879E+03</rscale>
<asrwt>0</asrwt>
<pdfrwt beam="1">  1        2 0.53703421E+00 0.56686879E+03</pdfrwt>
<pdfrwt beam="2">  1       -2 0.14276036E-01 0.56686879E+03</pdfrwt>
<totfact> 0.34991945E+01</totfact>
</mgrwt>
</event>
<event>
 6    1  0.8861680E-004  0.4288403E+03  0.7818608E-02  0.1034227E+00
         -1   -1    0    0    0  501 -0.00000000000E+00  0.00000000000E+00  0.20900109345E+04  0.20900109345E+04  0.00000000000E+00 0.  1.
          1   -1    0    0  502    0  0.00000000000E+00 -0.00000000000E+00 -0.91702266419E+02  0.91702266419E+02  0.00000000000E+00 0. -1.
    9000007    2    1    2  502    0 -0.57850642461E+02 -0.14634545772E+03  0.77750757155E+03  0.88744931472E+03  0.39784993723E+03 0.  0.
    9000005    1    3    3    0    0 -0.77167484460E+00  0.13178321706E+03  0.35247596045E+03  0.37630800480E+03  0.99999687468E+00 0.  0.
          4    1    3    3  502    0 -0.57078967616E+02 -0.27812867478E+03  0.42503161109E+03  0.51114130992E+03  0.00000000000E+00 0.  1.
   -9000007    1    1    2    0  501  0.57850642461E+02  0.14634545772E+03  0.12208010965E+04  0.12942638862E+04  0.40000000000E+03 0.  1.
<mgrwt>
<rscale>  2 0.42884027E+03</rscale>
<asrwt>0</asrwt>
<pdfrwt beam="1">  1        1 0.14108043E-01 0.42884027E+03</pdfrwt>
<pdfrwt beam="2">  1       -1 0.32154011E+00 0.42884027E+03</pdfrwt>
<totfact> 0.11017245E+01</totfact>
</mgrwt>
</event>
<event>
 6    1  0.8861680E-004  0.5246304E+03  0.7818608E-02  0.1007543E+00
          1   -1    0    0  502    0  0.00000000000E+00  0.00000000000E+00  0.90386507738E+03  0.90386507738E+03  0.00000000000E+00 0. -1.
         -1   -1    0    0    0  501 -0.00000000000E+00 -0.00000000000E+00 -0.39265469036E+03  0.39265469036E+03  0.00000000000E+00 0.  1.
    9000007    2    1    2  502    0  0.26931016489E+03  0.20656775504E+03 -0.51522619012E+02  0.52719107438E+03  0.40009704611E+03 0.  0.
    9000005    1    3    3    0    0  0.35881483006E+02  0.15946556925E+03  0.14495112597E+03  0.21846871060E+03  0.99999687468E+00 0.  0.
          4    1    3    3  502    0  0.23342868188E+03  0.47102185787E+02 -0.19647374498E+03  0.30872236378E+03  0.00000000000E+00 0.  1.
   -9000007    1    1    2    0  501 -0.26931016489E+03 -0.20656775504E+03  0.56273300603E+03  0.76932869335E+03  0.40000000000E+03 0.  1.
<mgrwt>
<rscale>  2 0.52463037E+03</rscale>
<asrwt>0</asrwt>
<pdfrwt beam="1">  1        1 0.13905617E+00 0.52463037E+03</pdfrwt>
<pdfrwt beam="2">  1       -1 0.60408414E-01 0.52463037E+03</pdfrwt>
<totfact> 0.52693492E+01</totfact>
</mgrwt>
</event>
<event>
 6    1  0.8861680E-004  0.4975657E+03  0.7818608E-02  0.1014416E+00
         -2   -1    0    0    0  501 -0.00000000000E+00  0.00000000000E+00  0.10029762486E+04  0.10029762486E+04  0.00000000000E+00 0. -1.
          2   -1    0    0  502    0  0.00000000000E+00 -0.00000000000E+00 -0.12720797680E+04  0.12720797680E+04  0.00000000000E+00 0.  1.
    9000007    2    1    2  502    0 -0.29491592964E+03 -0.31707328648E+02 -0.11557476277E+04  0.12581398277E+04  0.39897679985E+03 0.  0.
    9000005    1    3    3    0    0 -0.39250117244E+03 -0.16098675647E+02 -0.99106466792E+03  0.10660799753E+04  0.99999687468E+00 0.  0.
          4    1    3    3  502    0  0.97585242794E+02 -0.15608653001E+02 -0.16468295983E+03  0.19205985244E+03  0.00000000000E+00 0.  1.
   -9000007    1    1    2    0  501  0.29491592964E+03  0.31707328648E+02  0.88664410836E+03  0.10169161888E+04  0.40000000000E+03 0. -1.
<mgrwt>
<rscale>  2 0.49756574E+03</rscale>
<asrwt>0</asrwt>
<pdfrwt beam="1">  1        2 0.19570458E+00 0.49756574E+03</pdfrwt>
<pdfrwt beam="2">  1       -2 0.15430404E+00 0.49756574E+03</pdfrwt>
<totfact> 0.51024796E+00</totfact>
</mgrwt>
</event>
<event>
 6    1  0.8861680E-004  0.4053099E+03  0.7818608E-02  0.1041956E+00
          2   -1    0    0  502    0  0.00000000000E+00  0.00000000000E+00  0.50195896832E+03  0.50195896832E+03  0.00000000000E+00 0. -1.
         -2   -1    0    0    0  501 -0.00000000000E+00 -0.00000000000E+00 -0.33949562869E+03  0.33949562869E+03  0.00000000000E+00 0.  1.
    9000007    2    1    2  502    0  0.19361985214E+02  0.76025182538E+02  0.98248169670E+00  0.40301328699E+03  0.39530245303E+03 0.  0.
    9000005    1    3    3    0    0  0.15974940369E+03  0.14750125316E+03  0.73591452992E+02  0.22954998064E+03  0.99999687468E+00 0.  0.
          4    1    3    3  502    0 -0.14038741848E+03 -0.71476070620E+02 -0.72608971295E+02  0.17346330635E+03  0.00000000000E+00 0.  1.
   -9000007    1    1    2    0  501 -0.19361985214E+02 -0.76025182538E+02  0.16148085793E+03  0.43844131002E+03  0.40000000000E+03 0. -1.
<mgrwt>
<rscale>  2 0.40530989E+03</rscale>
<asrwt>0</asrwt>
<pdfrwt beam="1">  1        2 0.77224456E-01 0.40530989E+03</pdfrwt>
<pdfrwt beam="2">  1       -2 0.52230097E-01 0.40530989E+03</pdfrwt>
<totfact> 0.21773272E+02</totfact>
</mgrwt>
</event>
<event>
 6    1  0.8861680E-004  0.5870918E+03  0.7818608E-02  0.9932554E-01
          1   -1    0    0  502    0  0.00000000000E+00  0.00000000000E+00  0.81773812931E+03  0.81773812931E+03  0.00000000000E+00 0.  1.
         -1   -1    0    0    0  501 -0.00000000000E+00 -0.00000000000E+00 -0.43851474884E+03  0.43851474884E+03  0.00000000000E+00 0. -1.
    9000007    2    1    2  502    0  0.32969436198E+03 -0.27568726049E+03  0.31333246540E+03  0.66545388476E+03  0.39993724626E+03 0.  0.
    9000005    1    3    3    0    0  0.20672997882E+03 -0.35554553237E+03  0.13132903924E+03  0.43173860873E+03  0.99999687468E+00 0.  0.
          4    1    3    3  502    0  0.12296438316E+03  0.79858271879E+02  0.18200342616E+03  0.23371527602E+03  0.00000000000E+00 0.  1.
   -9000007    1    1    2    0  501 -0.32969436198E+03  0.27568726049E+03  0.65890915072E+02  0.59079899340E+03  0.40000000000E+03 0. -1.
<mgrwt>
<rscale>  2 0.58709176E+03</rscale>
<asrwt>0</asrwt>
<pdfrwt beam="1">  1        1 0.12580587E+00 0.58709176E+03</pdfrwt>
<pdfrwt beam="2">  1       -1 0.67463808E-01 0.58709176E+03</pdfrwt>
<totfact> 0.49428020E+01</totfact>
</mgrwt>
</event>
<event>
 6    1  0.8861680E-004  0.4589281E+03  0.7818608E-02  0.1025093E+00
         -2   -1    0    0    0  501 -0.00000000000E+00  0.00000000000E+00  0.11610878048E+04  0.11610878048E+04  0.00000000000E+00 0.  1.
          2   -1    0    0  502    0  0.00000000000E+00 -0.00000000000E+00 -0.22149753181E+03  0.22149753181E+03  0.00000000000E+00 0. -1.
    9000007    2    1    2  502    0  0.18688362242E+03  0.12644906717E+03  0.76366894498E+03  0.89078947595E+03  0.39925026992E+03 0.  0.
    9000005    1    3    3    0    0 -0.83429279512E+02 -0.22196882649E+02  0.42081593494E+03  0.42958142112E+03  0.99999687468E+00 0.  0.
          4    1    3    3  502    0  0.27031290194E+03  0.14864594982E+03  0.34285301004E+03  0.46120805483E+03  0.00000000000E+00 0.  1.
   -9000007    1    1    2    0  501 -0.18688362242E+03 -0.12644906717E+03  0.17592132804E+03  0.49179586068E+03  0.40000000000E+03 0. -1.
<mgrwt>
<rscale>  2 0.45892813E+03</rscale>
<asrwt>0</asrwt>
<pdfrwt beam="1">  1        2 0.34076544E-01 0.45892813E+03</pdfrwt>
<pdfrwt beam="2">  1       -2 0.17862889E+00 0.45892813E+03</pdfrwt>
<totfact> 0.29705213E+01</totfact>
</mgrwt>
</event>
<event>
 6    1  0.8861680E-004  0.4377944E+03  0.7818608E-02  0.1031426E+00
         -1   -1    0    0    0  501 -0.00000000000E+00  0.00000000000E+00  0.18598741717E+04  0.18598741717E+04  0.00000000000E+00 0. -1.
          1   -1    0    0  502    0  0.00000000000E+00 -0.00000000000E+00 -0.10354080294E+03  0.10354080294E+03  0.00000000000E+00 0.  1.
    9000007    2    1    2  502    0  0.14334656357E+03 -0.10270418813E+03  0.81203206634E+03  0.92283756891E+03  0.40141837810E+03 0.  0.
    9000005    1    3    3    0    0 -0.11479047811E+03  0.57547502170E+02  0.17501227687E+03  0.21706880458E+03  0.99999687468E+00 0.  0.
          4    1    3    3  502    0  0.25813704168E+03 -0.16025169029E+03  0.63701978947E+03  0.70576876433E+03  0.00000000000E+00 0.  1.
   -9000007    1    1    2    0  501 -0.14334656357E+03  0.10270418813E+03  0.94430130237E+03  0.10405774057E+04  0.40000000000E+03 0. -1.
<mgrwt>
<rscale>  2 0.43779436E+03</rscale>
<asrwt>0</asrwt>
<pdfrwt beam="1">  1        1 0.15929356E-01 0.43779436E+03</pdfrwt>
<pdfrwt beam="2">  1       -1 0.28613446E+00 0.43779436E+03</pdfrwt>
<totfact> 0.15671596E+01</totfact>
</mgrwt>
</event>
<event>
 6    1  0.8861680E-004  0.6768720E+03  0.7818608E-02  0.9757623E-01
         -2   -1    0    0    0  501 -0.00000000000E+00  0.00000000000E+00  0.53905009269E+03  0.53905009269E+03  0.00000000000E+00 0.  1.
          2   -1    0    0  502    0  0.00000000000E+00 -0.00000000000E+00 -0.16869552970E+04  0.16869552970E+04  0.00000000000E+00 0. -1.
    9000007    2    1    2  502    0 -0.31159570941E+03  0.44809524223E+03  0.20995574811E+03  0.70888060962E+03  0.40068575006E+03 0.  0.
    9000005    1    3    3    0    0 -0.38360486312E+03  0.23385692799E+03  0.16381223267E+03  0.47820205075E+03  0.99999687468E+00 0.  0.
          4    1    3    3  502    0  0.72009153706E+02  0.21423831424E+03  0.46143515438E+02  0.23067855887E+03  0.00000000000E+00 0.  1.
   -9000007    1    1    2    0  501  0.31159570941E+03 -0.44809524223E+03 -0.13578609524E+04  0.15171247801E+04  0.40000000000E+03 0. -1.
<mgrwt>
<rscale>  2 0.67687199E+03</rscale>
<asrwt>0</asrwt>
<pdfrwt beam="1">  1        2 0.25953158E+00 0.67687199E+03</pdfrwt>
<pdfrwt beam="2">  1       -2 0.82930784E-01 0.67687199E+03</pdfrwt>
<totfact> 0.13203370E+01</totfact>
</mgrwt>
</event>
<event>
 6    1  0.8861680E-004  0.4667322E+03  0.7818608E-02  0.1022847E+00
         -2   -1    0    0    0  501 -0.00000000000E+00  0.00000000000E+00  0.49343158417E+02  0.49343158417E+02  0.00000000000E+00 0. -1.
          2   -1    0    0  502    0  0.00000000000E+00 -0.00000000000E+00 -0.47979398647E+04  0.47979398647E+04  0.00000000000E+00 0.  1.
    9000007    2    1    2  502    0 -0.15192240860E+03  0.18605731660E+03 -0.30599163667E+04  0.30953301035E+04  0.40035301307E+03 0.  0.
    9000005    1    3    3    0    0  0.58750562764E+02 -0.85498247766E+02 -0.39722458848E+03  0.41054835609E+03  0.99999687468E+00 0.  0.
          4    1    3    3  502    0 -0.21067297137E+03  0.27155556436E+03 -0.26626917782E+04  0.26847817474E+04  0.00000000000E+00 0.  1.
   -9000007    1    1    2    0  501  0.15192240860E+03 -0.18605731660E+03 -0.16886803395E+04  0.17519529196E+04  0.40000000000E+03 0.  1.
<mgrwt>
<rscale>  2 0.46673222E+03</rscale>
<asrwt>0</asrwt>
<pdfrwt beam="1">  1        2 0.73814459E+00 0.46673222E+03</pdfrwt>
<pdfrwt beam="2">  1       -2 0.75912551E-02 0.46673222E+03</pdfrwt>
<totfact> 0.80160930E+00</totfact>
</mgrwt>
</event>
<event>
 6    1  0.8861680E-004  0.4006773E+03  0.7818608E-02  0.1043545E+00
          2   -1    0    0  502    0  0.00000000000E+00  0.00000000000E+00  0.11074402082E+04  0.11074402082E+04  0.00000000000E+00 0. -1.
         -2   -1    0    0    0  501 -0.00000000000E+00 -0.00000000000E+00 -0.14533795433E+03  0.14533795433E+03  0.00000000000E+00 0.  1.
    9000007    2    1    2  502    0  0.28956051069E+02  0.13085522928E+01  0.44896568559E+03  0.60151070371E+03  0.39925527504E+03 0.  0.
    9000005    1    3    3    0    0  0.19933016638E+03  0.49743079350E+01  0.35433630101E+03  0.40658636619E+03  0.99999687468E+00 0.  0.
          4    1    3    3  502    0 -0.17037411531E+03 -0.36657556422E+01  0.94629384578E+02  0.19492433752E+03  0.00000000000E+00 0.  1.
   -9000007    1    1    2    0  501 -0.28956051069E+02 -0.13085522928E+01  0.51313656832E+03  0.65126745885E+03  0.40000000000E+03 0. -1.
<mgrwt>
<rscale>  2 0.40067727E+03</rscale>
<asrwt>0</asrwt>
<pdfrwt beam="1">  1        2 0.17037541E+00 0.40067727E+03</pdfrwt>
<pdfrwt beam="2">  1       -2 0.22359686E-01 0.40067727E+03</pdfrwt>
<totfact> 0.38903274E+02</totfact>
</mgrwt>
</event>
<event>
 6    1  0.8861680E-004  0.4766999E+03  0.7818608E-02  0.1020046E+00
          1   -1    0    0  502    0  0.00000000000E+00  0.00000000000E+00  0.20723488888E+03  0.20723488888E+03  0.00000000000E+00 0. -1.
         -1   -1    0    0    0  501 -0.00000000000E+00 -0.00000000000E+00 -0.11041454441E+04  0.11041454441E+04  0.00000000000E+00 0.  1.
    9000007    2    1    2  502    0 -0.15111048783E+03  0.21081840296E+03 -0.39402699853E+03  0.61843686476E+03  0.39991011686E+03 0.  0.
    9000005    1    3    3    0    0  0.68213742457E+02  0.20624229509E+03 -0.72126376697E+02  0.22889345371E+03  0.99999687468E+00 0.  0.
          4    1    3    3  502    0 -0.21932423029E+03  0.45761078745E+01 -0.32190062183E+03  0.38954341104E+03  0.00000000000E+00 0.  1.
   -9000007    1    1    2    0  501  0.15111048783E+03 -0.21081840296E+03 -0.50288355668E+03  0.69294346821E+03  0.40000000000E+03 0.  1.
<mgrwt>
<rscale>  2 0.47669993E+03</rscale>
<asrwt>0</asrwt>
<pdfrwt beam="1">  1        1 0.31882290E-01 0.47669993E+03</pdfrwt>
<pdfrwt beam="2">  1       -1 0.16986853E+00 0.47669993E+03</pdfrwt>
<totfact> 0.36823341E+01</totfact>
</mgrwt>
</event>
<event>
 6    1  0.8861680E-004  0.5517194E+03  0.7818608E-02  0.1001097E+00
         -2   -1    0    0    0  501 -0.00000000000E+00  0.00000000000E+00  0.14694031505E+04  0.14694031505E+04  0.00000000000E+00 0. -1.
          2   -1    0    0  502    0  0.00000000000E+00 -0.00000000000E+00 -0.20862083951E+03  0.20862083951E+03  0.00000000000E+00 0.  1.
    9000007    2    1    2  502    0  0.33884434497E+03  0.17226224932E+03  0.70061973917E+03  0.89172132593E+03  0.39976134324E+03 0.  0.
    9000005    1    3    3    0    0 -0.22458353711E+02  0.15044472998E+03  0.37566644718E+03  0.40529529230E+03  0.99999687468E+00 0.  0.
          4    1    3    3  502    0  0.36130269868E+03  0.21817519339E+02  0.32495329199E+03  0.48642603364E+03  0.00000000000E+00 0.  1.
   -9000007    1    1    2    0  501 -0.33884434497E+03 -0.17226224932E+03  0.56016257181E+03  0.78630266406E+03  0.40000000000E+03 0.  1.
<mgrwt>
<rscale>  2 0.55171942E+03</rscale>
<asrwt>0</asrwt>
<pdfrwt beam="1">  1        2 0.32095515E-01 0.55171942E+03</pdfrwt>
<pdfrwt beam="2">  1       -2 0.22606202E+00 0.55171942E+03</pdfrwt>
<totfact> 0.15556279E+01</totfact>
</mgrwt>
</event>
<event>
 6    1  0.8861680E-004  0.4875076E+03  0.7818608E-02  0.1017092E+00
         -2   -1    0    0    0  501 -0.00000000000E+00  0.00000000000E+00  0.24026010680E+03  0.24026010680E+03  0.00000000000E+00 0. -1.
          2   -1    0    0  502    0  0.00000000000E+00 -0.00000000000E+00 -0.99907276722E+03  0.99907276722E+03  0.00000000000E+00 0.  1.
    9000007    2    1    2  502    0  0.44456871722E+02  0.27557916719E+03 -0.31758411099E+03  0.58160730536E+03  0.39935835944E+03 0.  0.
    9000005    1    3    3    0    0  0.18684376166E+03  0.12267906727E+02 -0.10767458049E+03  0.21599978723E+03  0.99999687468E+00 0.  0.
          4    1    3    3  502    0 -0.14238688994E+03  0.26331126047E+03 -0.20990953050E+03  0.36560751813E+03  0.00000000000E+00 0.  1.
   -9000007    1    1    2    0  501 -0.44456871722E+02 -0.27557916719E+03 -0.44122854943E+03  0.65772556866E+03  0.40000000000E+03 0.  1.
<mgrwt>
<rscale>  2 0.48750764E+03</rscale>
<asrwt>0</asrwt>
<pdfrwt beam="1">  1        2 0.15370350E+00 0.48750764E+03</pdfrwt>
<pdfrwt beam="2">  1       -2 0.36963093E-01 0.48750764E+03</pdfrwt>
<totfact> 0.17934398E+02</totfact>
</mgrwt>
</event>
<event>
 6    1  0.8861680E-004  0.5120289E+03  0.7818608E-02  0.1010686E+00
         -3   -1    0    0    0  501 -0.00000000000E+00  0.00000000000E+00  0.33761560259E+04  0.33761560259E+04  0.00000000000E+00 0.  1.
          3   -1    0    0  502    0  0.00000000000E+00 -0.00000000000E+00 -0.14173292775E+03  0.14173292775E+03  0.00000000000E+00 0. -1.
    9000007    2    1    2  502    0  0.96609330291E+02 -0.30473952131E+03  0.27998627760E+04  0.28462921906E+04  0.39993515870E+03 0.  0.
    9000005    1    3    3    0    0 -0.10062649204E+03 -0.26760812956E+03  0.20578427492E+04  0.20776086210E+04  0.99999687468E+00 0.  0.
          4    1    3    3  502    0  0.19723582233E+03 -0.37131391754E+02  0.74202002685E+03  0.76868356956E+03  0.00000000000E+00 0.  1.
   -9000007    1    1    2    0  501 -0.96609330291E+02  0.30473952131E+03  0.43456032209E+03  0.67159676301E+03  0.40000000000E+03 0. -1.
<mgrwt>
<rscale>  2 0.51202891E+03</rscale>
<asrwt>0</asrwt>
<pdfrwt beam="1">  1        3 0.21805068E-01 0.51202891E+03</pdfrwt>
<pdfrwt beam="2">  1       -3 0.51940856E+00 0.51202891E+03</pdfrwt>
<totfact> 0.13514268E-01</totfact>
</mgrwt>
</event>
<event>
 6    1  0.8861680E-004  0.6054716E+03  0.7818608E-02  0.9894119E-01
          2   -1    0    0  502    0  0.00000000000E+00  0.00000000000E+00  0.25936760946E+04  0.25936760946E+04  0.00000000000E+00 0. -1.
         -2   -1    0    0    0  501 -0.00000000000E+00 -0.00000000000E+00 -0.16994219460E+03  0.16994219460E+03  0.00000000000E+00 0.  1.
    9000007    2    1    2  502    0 -0.43433593785E+03 -0.13459889152E+03  0.64476897979E+03  0.88439484430E+03  0.39957807099E+03 0.  0.
    9000005    1    3    3    0    0 -0.86500800363E+02 -0.29353500991E+02  0.47425206139E+03  0.48297001378E+03  0.99999687468E+00 0.  0.
          4    1    3    3  502    0 -0.34783513749E+03 -0.10524539053E+03  0.17051691840E+03  0.40142483052E+03  0.00000000000E+00 0.  1.
   -9000007    1    1    2    0  501  0.43433593785E+03  0.13459889152E+03  0.17789649203E+04  0.18792234449E+04  0.40000000000E+03 0. -1.
<mgrwt>
<rscale>  2 0.60547159E+03</rscale>
<asrwt>0</asrwt>
<pdfrwt beam="1">  1        2 0.39902706E+00 0.60547159E+03</pdfrwt>
<pdfrwt beam="2">  1       -2 0.26144955E-01 0.60547159E+03</pdfrwt>
<totfact> 0.43297672E+01</totfact>
</mgrwt>
</event>
<event>
 6    1  0.8861680E-004  0.4309243E+03  0.7818608E-02  0.1033568E+00
         -2   -1    0    0    0  501 -0.00000000000E+00  0.00000000000E+00  0.57192729531E+03  0.57192729531E+03  0.00000000000E+00 0. -1.
          2   -1    0    0  502    0  0.00000000000E+00 -0.00000000000E+00 -0.34955006536E+03  0.34955006536E+03  0.00000000000E+00 0.  1.
    9000007    2    1    2  502    0 -0.15785870172E+03  0.13369222866E+02 -0.11528347465E+02  0.43177344505E+03  0.40149383460E+03 0.  0.
    9000005    1    3    3    0    0  0.98521069228E+02 -0.32579294870E+02  0.10392769481E+03  0.14686652879E+03  0.99999687468E+00 0.  0.
          4    1    3    3  502    0 -0.25637977095E+03  0.45948517736E+02 -0.11545604228E+03  0.28490691626E+03  0.00000000000E+00 0.  1.
   -9000007    1    1    2    0  501  0.15785870172E+03 -0.13369222866E+02  0.23390557742E+03  0.48970391562E+03  0.40000000000E+03 0.  1.
<mgrwt>
<rscale>  2 0.43092434E+03</rscale>
<asrwt>0</asrwt>
<pdfrwt beam="1">  1        2 0.53776933E-01 0.43092434E+03</pdfrwt>
<pdfrwt beam="2">  1       -2 0.87988814E-01 0.43092434E+03</pdfrwt>
<totfact> 0.10599722E+02</totfact>
</mgrwt>
</event>
<event>
 6    1  0.8861680E-004  0.4326985E+03  0.7818608E-02  0.1033011E+00
         -2   -1    0    0    0  501 -0.00000000000E+00  0.00000000000E+00  0.18842533539E+03  0.18842533539E+03  0.00000000000E+00 0.  1.
          2   -1    0    0  502    0  0.00000000000E+00 -0.00000000000E+00 -0.10268204601E+04  0.10268204601E+04  0.00000000000E+00 0. -1.
    9000007    2    1    2  502    0  0.16513579013E+03  0.60682454521E+01 -0.52832979120E+03  0.68284823369E+03  0.39980331314E+03 0.  0.
    9000005    1    3    3    0    0  0.16905314496E+03  0.18641847198E+03 -0.32470503528E+03  0.41081038503E+03  0.99999687468E+00 0.  0.
          4    1    3    3  502    0 -0.39173548375E+01 -0.18035022653E+03 -0.20362475593E+03  0.27203784866E+03  0.00000000000E+00 0.  1.
   -9000007    1    1    2    0  501 -0.16513579013E+03 -0.60682454521E+01 -0.31006533356E+03  0.53239756185E+03  0.40000000000E+03 0.  1.
<mgrwt>
<rscale>  2 0.43269849E+03</rscale>
<asrwt>0</asrwt>
<pdfrwt beam="1">  1        2 0.15797238E+00 0.43269849E+03</pdfrwt>
<pdfrwt beam="2">  1       -2 0.28988513E-01 0.43269849E+03</pdfrwt>
<totfact> 0.27272085E+02</totfact>
</mgrwt>
</event>
<event>
 6    1  0.8861680E-004  0.4072810E+03  0.7818608E-02  0.1041287E+00
          1   -1    0    0  502    0  0.00000000000E+00  0.00000000000E+00  0.27596219920E+03  0.27596219920E+03  0.00000000000E+00 0. -1.
         -1   -1    0    0    0  501 -0.00000000000E+00 -0.00000000000E+00 -0.65706355787E+03  0.65706355787E+03  0.00000000000E+00 0.  1.
    9000007    2    1    2  502    0  0.32790442378E+02 -0.72058092226E+02 -0.32650705105E+03  0.52162799311E+03  0.39902547167E+03 0.  0.
    9000005    1    3    3    0    0  0.25556074924E+02 -0.22163090327E+03 -0.87630128887E+02  0.23969440906E+03  0.99999687468E+00 0.  0.
          4    1    3    3  502    0  0.72343674547E+01  0.14957281104E+03 -0.23887692216E+03  0.28193358405E+03  0.00000000000E+00 0.  1.
   -9000007    1    1    2    0  501 -0.32790442378E+02  0.72058092226E+02 -0.54594307624E+02  0.41139776396E+03  0.40000000000E+03 0. -1.
<mgrwt>
<rscale>  2 0.40728097E+03</rscale>
<asrwt>0</asrwt>
<pdfrwt beam="1">  1        1 0.42455724E-01 0.40728097E+03</pdfrwt>
<pdfrwt beam="2">  1       -1 0.10108670E+00 0.40728097E+03</pdfrwt>
<totfact> 0.95044837E+01</totfact>
</mgrwt>
</event>
<event>
 6    1  0.8861680E-004  0.4465949E+03  0.7818608E-02  0.1028742E+00
         -2   -1    0    0    0  501 -0.00000000000E+00  0.00000000000E+00  0.78619459626E+03  0.78619459626E+03  0.00000000000E+00 0.  1.
          2   -1    0    0  502    0  0.00000000000E+00 -0.00000000000E+00 -0.75614224773E+03  0.75614224773E+03  0.00000000000E+00 0. -1.
    9000007    2    1    2  502    0  0.76720179806E+02  0.18286802993E+03 -0.61360408261E+03  0.75899764307E+03  0.40030082392E+03 0.  0.
    9000005    1    3    3    0    0  0.78449692420E+02  0.26346928889E+03 -0.61991194934E+03  0.67813143664E+03  0.99999687468E+00 0.  0.
          4    1    3    3  502    0 -0.17295126147E+01 -0.80601258957E+02  0.63078667371E+01  0.80866206429E+02  0.00000000000E+00 0.  1.
   -9000007    1    1    2    0  501 -0.76720179806E+02 -0.18286802993E+03  0.64365643113E+03  0.78333920092E+03  0.40000000000E+03 0.  1.
<mgrwt>
<rscale>  2 0.44659494E+03</rscale>
<asrwt>0</asrwt>
<pdfrwt beam="1">  1        2 0.11632958E+00 0.44659494E+03</pdfrwt>
<pdfrwt beam="2">  1       -2 0.12095301E+00 0.44659494E+03</pdfrwt>
<totfact> 0.20341171E+01</totfact>
</mgrwt>
</event>
<event>
 6    1  0.8861680E-004  0.4614063E+03  0.7818608E-02  0.1024374E+00
         -2   -1    0    0    0  501 -0.00000000000E+00  0.00000000000E+00  0.31745448009E+03  0.31745448009E+03  0.00000000000E+00 0. -1.
          2   -1    0    0  502    0  0.00000000000E+00 -0.00000000000E+00 -0.69216334347E+03  0.69216334347E+03  0.00000000000E+00 0.  1.
    9000007    2    1    2  502    0 -0.40634567722E+02  0.22594503038E+03 -0.98407080474E+02  0.47198876921E+03  0.40048360756E+03 0.  0.
    9000005    1    3    3    0    0  0.11848627721E+03 -0.30322273835E+02 -0.11767342979E+03  0.16972470135E+03  0.99999687468E+00 0.  0.
          4    1    3    3  502    0 -0.15912084493E+03  0.25626730422E+03  0.19266349316E+02  0.30226406786E+03  0.00000000000E+00 0.  1.
   -9000007    1    1    2    0  501  0.40634567722E+02 -0.22594503038E+03 -0.27630178291E+03  0.53762905435E+03  0.40000000000E+03 0.  1.
<mgrwt>
<rscale>  2 0.46140633E+03</rscale>
<asrwt>0</asrwt>
<pdfrwt beam="1">  1        2 0.10648667E+00 0.46140633E+03</pdfrwt>
<pdfrwt beam="2">  1       -2 0.48839152E-01 0.46140633E+03</pdfrwt>
<totfact> 0.16976775E+02</totfact>
</mgrwt>
</event>
<event>
 6    1  0.8861680E-004  0.6675666E+03  0.7818608E-02  0.9774364E-01
          1   -1    0    0  502    0  0.00000000000E+00  0.00000000000E+00  0.88218552393E+03  0.88218552393E+03  0.00000000000E+00 0. -1.
         -1   -1    0    0    0  501 -0.00000000000E+00 -0.00000000000E+00 -0.59755932401E+03  0.59755932401E+03  0.00000000000E+00 0.  1.
    9000007    2    1    2  502    0 -0.19540748206E+03  0.49747536020E+03 -0.14862724714E+03  0.68389664166E+03  0.39994842145E+03 0.  0.
    9000005    1    3    3    0    0 -0.28905994076E+03  0.48223899066E+03 -0.16852037554E+03  0.58694992157E+03  0.99999687468E+00 0.  0.
          4    1    3    3  502    0  0.93652458701E+02  0.15236369540E+02  0.19893128400E+02  0.96946720084E+02  0.00000000000E+00 0.  1.
   -9000007    1    1    2    0  501  0.19540748206E+03 -0.49747536020E+03  0.43325344706E+03  0.79584820628E+03  0.40000000000E+03 0. -1.
<mgrwt>
<rscale>  2 0.66756662E+03</rscale>
<asrwt>0</asrwt>
<pdfrwt beam="1">  1        1 0.13572085E+00 0.66756662E+03</pdfrwt>
<pdfrwt beam="2">  1       -1 0.91932204E-01 0.66756662E+03</pdfrwt>
<totfact> 0.22515317E+01</totfact>
</mgrwt>
</event>
<event>
 6    1  0.8861680E-004  0.4094084E+03  0.7818608E-02  0.1040570E+00
          2   -1    0    0  502    0  0.00000000000E+00  0.00000000000E+00  0.81476702989E+03  0.81476702989E+03  0.00000000000E+00 0. -1.
         -2   -1    0    0    0  501 -0.00000000000E+00 -0.00000000000E+00 -0.21271173908E+03  0.21271173908E+03  0.00000000000E+00 0.  1.
    9000007    2    1    2  502    0  0.83345866769E+02  0.24833125191E+02  0.20794303232E+03  0.45924669498E+03  0.40012998456E+03 0.  0.
    9000005    1    3    3    0    0  0.15814550333E+03  0.12266674362E+03  0.25781113457E+03  0.32638123616E+03  0.99999687468E+00 0.  0.
          4    1    3    3  502    0 -0.74799636557E+02 -0.97833618433E+02 -0.49868102254E+02  0.13286545882E+03  0.00000000000E+00 0.  1.
   -9000007    1    1    2    0  501 -0.83345866769E+02 -0.24833125191E+02  0.39411225849E+03  0.56823207399E+03  0.40000000000E+03 0. -1.
<mgrwt>
<rscale>  2 0.40940837E+03</rscale>
<asrwt>0</asrwt>
<pdfrwt beam="1">  1        2 0.12534877E+00 0.40940837E+03</pdfrwt>
<pdfrwt beam="2">  1       -2 0.32724883E-01 0.40940837E+03</pdfrwt>
<totfact> 0.30057575E+02</totfact>
</mgrwt>
</event>
<event>
 6    1  0.8861680E-004  0.4171939E+03  0.7818608E-02  0.1037983E+00
         -2   -1    0    0    0  501 -0.00000000000E+00  0.00000000000E+00  0.99702697420E+02  0.99702697420E+02  0.00000000000E+00 0. -1.
          2   -1    0    0  502    0  0.00000000000E+00 -0.00000000000E+00 -0.17487696785E+04  0.17487696785E+04  0.00000000000E+00 0.  1.
    9000007    2    1    2  502    0 -0.11828130900E+03  0.86601719595E+00 -0.86341018056E+03  0.95895125406E+03  0.40014890943E+03 0.  0.
    9000005    1    3    3    0    0 -0.20964198159E+03 -0.13722117484E+03 -0.55393076000E+03  0.60796356646E+03  0.99999687468E+00 0.  0.
          4    1    3    3  502    0  0.91360672584E+02  0.13808719203E+03 -0.30947942056E+03  0.35098768760E+03  0.00000000000E+00 0.  1.
   -9000007    1    1    2    0  501  0.11828130900E+03 -0.86601719595E+00 -0.78565680056E+03  0.88952112191E+03  0.40000000000E+03 0. -1.
<mgrwt>
<rscale>  2 0.41719394E+03</rscale>
<asrwt>0</asrwt>
<pdfrwt beam="1">  1        2 0.26904149E+00 0.41719394E+03</pdfrwt>
<pdfrwt beam="2">  1       -2 0.15338876E-01 0.41719394E+03</pdfrwt>
<totfact> 0.32632020E+02</totfact>
</mgrwt>
</event>
<event>
 6    1  0.8861680E-004  0.4035703E+03  0.7818608E-02  0.1042550E+00
         -1   -1    0    0    0  501 -0.00000000000E+00  0.00000000000E+00  0.26925246824E+03  0.26925246824E+03  0.00000000000E+00 0.  1.
          1   -1    0    0  502    0  0.00000000000E+00 -0.00000000000E+00 -0.91886542272E+03  0.91886542272E+03  0.00000000000E+00 0. -1.
    9000007    2    1    2  502    0  0.45604846778E+02 -0.25103946397E+02 -0.67216629377E+03  0.78411459482E+03  0.40039750394E+03 0.  0.
    9000005    1    3    3    0    0  0.15440255249E+03  0.12853789027E+03 -0.24180526451E+03  0.31437704017E+03  0.99999687468E+00 0.  0.
          4    1    3    3  502    0 -0.10879770571E+03 -0.15364183666E+03 -0.43036102926E+03  0.46973755465E+03  0.00000000000E+00 0.  1.
   -9000007    1    1    2    0  501 -0.45604846778E+02  0.25103946397E+02  0.22553339284E+02  0.40400329613E+03  0.40000000000E+03 0.  1.
<mgrwt>
<rscale>  2 0.40357033E+03</rscale>
<asrwt>0</asrwt>
<pdfrwt beam="1">  1        1 0.14136391E+00 0.40357033E+03</pdfrwt>
<pdfrwt beam="2">  1       -1 0.41423456E-01 0.40357033E+03</pdfrwt>
<totfact> 0.10593756E+02</totfact>
</mgrwt>
</event>
<event>
 6    1  0.8861680E-004  0.7942723E+03  0.7818608E-02  0.9568345E-01
          2   -1    0    0  502    0  0.00000000000E+00  0.00000000000E+00  0.29104982504E+04  0.29104982504E+04  0.00000000000E+00 0. -1.
         -2   -1    0    0    0  501 -0.00000000000E+00 -0.00000000000E+00 -0.22684857113E+03  0.22684857113E+03  0.00000000000E+00 0.  1.
    9000007    2    1    2  502    0 -0.10004619814E+03 -0.67865223917E+03  0.16729928008E+04  0.18520431883E+04  0.40072553761E+03 0.  0.
    9000005    1    3    3    0    0 -0.16586593297E+03 -0.65603128439E+03  0.12320782235E+04  0.14056693432E+04  0.99999687468E+00 0.  0.
          4    1    3    3  502    0  0.65819734834E+02 -0.22620954786E+02  0.44091457730E+03  0.44637384507E+03  0.00000000000E+00 0.  1.
   -9000007    1    1    2    0  501  0.10004619814E+03  0.67865223917E+03  0.10106568785E+04  0.12853036332E+04  0.40000000000E+03 0.  1.
<mgrwt>
<rscale>  2 0.79427232E+03</rscale>
<asrwt>0</asrwt>
<pdfrwt beam="1">  1        2 0.44776893E+00 0.79427232E+03</pdfrwt>
<pdfrwt beam="2">  1       -2 0.34899782E-01 0.79427232E+03</pdfrwt>
<totfact> 0.16013242E+01</totfact>
</mgrwt>
</event>
<event>
 6    1  0.8861680E-004  0.4391176E+03  0.7818608E-02  0.1031018E+00
          1   -1    0    0  502    0  0.00000000000E+00  0.00000000000E+00  0.30376379284E+03  0.30376379284E+03  0.00000000000E+00 0.  1.
         -1   -1    0    0    0  501 -0.00000000000E+00 -0.00000000000E+00 -0.68659072119E+03  0.68659072119E+03  0.00000000000E+00 0. -1.
    9000007    2    1    2  502    0 -0.83484400057E+02 -0.15966701477E+03 -0.55558808502E+02  0.44302680331E+03  0.40090244024E+03 0.  0.
    9000005    1    3    3    0    0 -0.11686308063E+03 -0.77068611783E+02 -0.21723239403E+03  0.25843270603E+03  0.99999687468E+00 0.  0.
          4    1    3    3  502    0  0.33378680577E+02 -0.82598402987E+02  0.16167358552E+03  0.18459409728E+03  0.00000000000E+00 0.  1.
   -9000007    1    1    2    0  501  0.83484400057E+02  0.15966701477E+03 -0.32726811985E+03  0.54732771072E+03  0.40000000000E+03 0. -1.
<mgrwt>
<rscale>  2 0.43911758E+03</rscale>
<asrwt>0</asrwt>
<pdfrwt beam="1">  1        1 0.46732891E-01 0.43911758E+03</pdfrwt>
<pdfrwt beam="2">  1       -1 0.10562934E+00 0.43911758E+03</pdfrwt>
<totfact> 0.75769509E+01</totfact>
</mgrwt>
</event>
<event>
 6    1  0.8861680E-004  0.8267935E+03  0.7818608E-02  0.9522024E-01
          1   -1    0    0  502    0  0.00000000000E+00  0.00000000000E+00  0.83830343093E+03  0.83830343093E+03  0.00000000000E+00 0.  1.
         -1   -1    0    0    0  501 -0.00000000000E+00 -0.00000000000E+00 -0.97641299393E+03  0.97641299393E+03  0.00000000000E+00 0. -1.
    9000007    2    1    2  502    0  0.67410304164E+03 -0.26336655454E+03  0.29936741076E+03  0.87921497891E+03  0.39952631918E+03 0.  0.
    9000005    1    3    3    0    0  0.72156679490E+03 -0.20413773077E+03  0.25977499788E+03  0.79360878407E+03  0.99999687468E+00 0.  0.
          4    1    3    3  502    0 -0.47463753261E+02 -0.59228823768E+02  0.39592412877E+02  0.85606194846E+02  0.00000000000E+00 0.  1.
   -9000007    1    1    2    0  501 -0.67410304164E+03  0.26336655454E+03 -0.43747697376E+03  0.93550144595E+03  0.40000000000E+03 0.  1.
<mgrwt>
<rscale>  2 0.82679348E+03</rscale>
<asrwt>0</asrwt>
<pdfrwt beam="1">  1        1 0.12896976E+00 0.82679348E+03</pdfrwt>
<pdfrwt beam="2">  1       -1 0.15021738E+00 0.82679348E+03</pdfrwt>
<totfact> 0.72822635E+00</totfact>
</mgrwt>
</event>
<event>
 6    1  0.8861680E-004  0.4010538E+03  0.7818608E-02  0.1043415E+00
          1   -1    0    0  502    0  0.00000000000E+00  0.00000000000E+00  0.10180768719E+04  0.10180768719E+04  0.00000000000E+00 0. -1.
         -1   -1    0    0    0  501 -0.00000000000E+00 -0.00000000000E+00 -0.15836551039E+03  0.15836551039E+03  0.00000000000E+00 0.  1.
    9000007    2    1    2  502    0 -0.11707319207E+02 -0.19079743527E+02  0.40160857908E+03  0.56787089331E+03  0.40085758411E+03 0.  0.
    9000005    1    3    3    0    0  0.19133997944E+03 -0.40402045967E+02  0.22304777860E+03  0.29663887908E+03  0.99999687468E+00 0.  0.
          4    1    3    3  502    0 -0.20304729865E+03  0.21322302440E+02  0.17856080048E+03  0.27123201422E+03  0.00000000000E+00 0.  1.
   -9000007    1    1    2    0  501  0.11707319207E+02  0.19079743527E+02  0.45810278245E+03  0.60857148900E+03  0.40000000000E+03 0. -1.
<mgrwt>
<rscale>  2 0.40105378E+03</rscale>
<asrwt>0</asrwt>
<pdfrwt beam="1">  1        1 0.15662721E+00 0.40105378E+03</pdfrwt>
<pdfrwt beam="2">  1       -1 0.24363925E-01 0.40105378E+03</pdfrwt>
<totfact> 0.22347690E+02</totfact>
</mgrwt>
</event>
<event>
 6    1  0.8861680E-004  0.4492884E+03  0.7818608E-02  0.1027934E+00
          2   -1    0    0  502    0  0.00000000000E+00  0.00000000000E+00  0.79659525812E+03  0.79659525812E+03  0.00000000000E+00 0.  1.
         -2   -1    0    0    0  501 -0.00000000000E+00 -0.00000000000E+00 -0.26070019841E+03  0.26070019841E+03  0.00000000000E+00 0. -1.
    9000007    2    1    2  502    0  0.10586004355E+03  0.17545619065E+03  0.17942108980E+03  0.48365365639E+03  0.39967200079E+03 0.  0.
    9000005    1    3    3    0    0  0.89527230180E+02  0.45178570568E+02 -0.12019136690E+03  0.15653495729E+03  0.99999687468E+00 0.  0.
          4    1    3    3  502    0  0.16332813366E+02  0.13027762008E+03  0.29961245670E+03  0.32711869910E+03  0.00000000000E+00 0.  1.
   -9000007    1    1    2    0  501 -0.10586004355E+03 -0.17545619065E+03  0.35647396991E+03  0.57364180015E+03  0.40000000000E+03 0. -1.
<mgrwt>
<rscale>  2 0.44928837E+03</rscale>
<asrwt>0</asrwt>
<pdfrwt beam="1">  1        2 0.12255312E+00 0.44928837E+03</pdfrwt>
<pdfrwt beam="2">  1       -2 0.40107723E-01 0.44928837E+03</pdfrwt>
<totfact> 0.20970753E+02</totfact>
</mgrwt>
</event>
<event>
 6    1  0.8861680E-004  0.4552774E+03  0.7818608E-02  0.1026160E+00
          2   -1    0    0  502    0  0.00000000000E+00  0.00000000000E+00  0.83525565847E+03  0.83525565847E+03  0.00000000000E+00 0. -1.
         -2   -1    0    0    0  501 -0.00000000000E+00 -0.00000000000E+00 -0.26484429331E+03  0.26484429331E+03  0.00000000000E+00 0.  1.
    9000007    2    1    2  502    0 -0.84586078188E+02  0.20008378555E+03  0.42331863574E+03  0.62174381153E+03  0.40022290532E+03 0.  0.
    9000005    1    3    3    0    0 -0.82490204960E+02  0.91128160923E+02  0.48237776300E+03  0.49779341283E+03  0.99999687468E+00 0.  0.
          4    1    3    3  502    0 -0.20958732281E+01  0.10895562463E+03 -0.59059127264E+02  0.12395039869E+03  0.00000000000E+00 0.  1.
   -9000007    1    1    2    0  501  0.84586078188E+02 -0.20008378555E+03  0.14709272942E+03  0.47835614025E+03  0.40000000000E+03 0. -1.
<mgrwt>
<rscale>  2 0.45527738E+03</rscale>
<asrwt>0</asrwt>
<pdfrwt beam="1">  1        2 0.12850087E+00 0.45527738E+03</pdfrwt>
<pdfrwt beam="2">  1       -2 0.40745276E-01 0.45527738E+03</pdfrwt>
<totfact> 0.19102535E+02</totfact>
</mgrwt>
</event>
<event>
 6    1  0.8861680E-004  0.4358079E+03  0.7818608E-02  0.1032041E+00
         -2   -1    0    0    0  501 -0.00000000000E+00  0.00000000000E+00  0.32123440954E+03  0.32123440954E+03  0.00000000000E+00 0.  1.
          2   -1    0    0  502    0  0.00000000000E+00 -0.00000000000E+00 -0.18057577073E+04  0.18057577073E+04  0.00000000000E+00 0. -1.
    9000007    2    1    2  502    0 -0.16828036715E+03 -0.41290426335E+02 -0.16143828688E+04  0.16721441319E+04  0.39976339173E+03 0.  0.
    9000005    1    3    3    0    0 -0.26853463632E+03 -0.15323203806E+01 -0.14558121293E+04  0.14803726405E+04  0.99999687468E+00 0.  0.
          4    1    3    3  502    0  0.10025426918E+03 -0.39758105955E+02 -0.15857073953E+03  0.19177149139E+03  0.00000000000E+00 0.  1.
   -9000007    1    1    2    0  501  0.16828036715E+03  0.41290426335E+02  0.12985957102E+03  0.45484798500E+03  0.40000000000E+03 0.  1.
<mgrwt>
<rscale>  2 0.43580792E+03</rscale>
<asrwt>0</asrwt>
<pdfrwt beam="1">  1        2 0.27780888E+00 0.43580792E+03</pdfrwt>
<pdfrwt beam="2">  1       -2 0.49420679E-01 0.43580792E+03</pdfrwt>
<totfact> 0.35883649E+01</totfact>
</mgrwt>
</event>
<event>
 6    1  0.8861680E-004  0.6599077E+03  0.7818608E-02  0.9788364E-01
          2   -1    0    0  502    0  0.00000000000E+00  0.00000000000E+00  0.12511644297E+04  0.12511644297E+04  0.00000000000E+00 0. -1.
         -2   -1    0    0    0  501 -0.00000000000E+00 -0.00000000000E+00 -0.56558205220E+03  0.56558205220E+03  0.00000000000E+00 0.  1.
    9000007    2    1    2  502    0 -0.38531192806E+03 -0.35710507658E+03  0.90600631823E+03  0.11206315264E+04  0.39872076891E+03 0.  0.
    9000005    1    3    3    0    0  0.56577309451E+02 -0.35916563454E+02  0.28842863566E+03  0.29611327113E+03  0.99999687468E+00 0.  0.
          4    1    3    3  502    0 -0.44188923751E+03 -0.32118851313E+03  0.61757768257E+03  0.82451825523E+03  0.00000000000E+00 0.  1.
   -9000007    1    1    2    0  501  0.38531192806E+03  0.35710507658E+03 -0.22042394077E+03  0.69611495551E+03  0.40000000000E+03 0.  1.
<mgrwt>
<rscale>  2 0.65990768E+03</rscale>
<asrwt>0</asrwt>
<pdfrwt beam="1">  1        2 0.19248684E+00 0.65990768E+03</pdfrwt>
<pdfrwt beam="2">  1       -2 0.87012624E-01 0.65990768E+03</pdfrwt>
<totfact> 0.20795261E+01</totfact>
</mgrwt>
</event>
<event>
 6    1  0.8861680E-004  0.5258887E+03  0.7818608E-02  0.1007234E+00
          2   -1    0    0  502    0  0.00000000000E+00  0.00000000000E+00  0.13768940824E+04  0.13768940824E+04  0.00000000000E+00 0.  1.
         -2   -1    0    0    0  501 -0.00000000000E+00 -0.00000000000E+00 -0.30419978875E+03  0.30419978875E+03  0.00000000000E+00 0. -1.
    9000007    2    1    2  502    0 -0.88248694081E+02 -0.32991640096E+03  0.10262168056E+04  0.11530855184E+04  0.39981572892E+03 0.  0.
    9000005    1    3    3    0    0 -0.18272387491E+03 -0.12046611395E+03  0.20338678830E+03  0.29877631218E+03  0.99999687468E+00 0.  0.
          4    1    3    3  502    0  0.94475180825E+02 -0.20945028701E+03  0.82283001727E+03  0.85430920622E+03  0.00000000000E+00 0.  1.
   -9000007    1    1    2    0  501  0.88248694081E+02  0.32991640096E+03  0.46477488043E+02  0.52800835270E+03  0.40000000000E+03 0. -1.
<mgrwt>
<rscale>  2 0.52588874E+03</rscale>
<asrwt>0</asrwt>
<pdfrwt beam="1">  1        2 0.21182986E+00 0.52588874E+03</pdfrwt>
<pdfrwt beam="2">  1       -2 0.46799968E-01 0.52588874E+03</pdfrwt>
<totfact> 0.67482676E+01</totfact>
</mgrwt>
</event>
<event>
 6    1  0.8861680E-004  0.5142561E+03  0.7818608E-02  0.1010123E+00
         -1   -1    0    0    0  501 -0.00000000000E+00  0.00000000000E+00  0.16479546639E+03  0.16479546639E+03  0.00000000000E+00 0. -1.
          1   -1    0    0  502    0  0.00000000000E+00 -0.00000000000E+00 -0.16532430908E+04  0.16532430908E+04  0.00000000000E+00 0.  1.
    9000007    2    1    2  502    0  0.29356596871E+03 -0.13893240939E+03 -0.89846552125E+03  0.10347365245E+04  0.39743702631E+03 0.  0.
    9000005    1    3    3    0    0  0.20737557214E+03 -0.24050168089E+03 -0.36004718641E+03  0.48008401647E+03  0.99999687468E+00 0.  0.
          4    1    3    3  502    0  0.86190396572E+02  0.10156927149E+03 -0.53841833483E+03  0.55465250802E+03  0.00000000000E+00 0.  1.
   -9000007    1    1    2    0  501 -0.29356596871E+03  0.13893240939E+03 -0.58998210314E+03  0.78330203268E+03  0.40000000000E+03 0. -1.
<mgrwt>
<rscale>  2 0.51425608E+03</rscale>
<asrwt>0</asrwt>
<pdfrwt beam="1">  1        1 0.25434510E+00 0.51425608E+03</pdfrwt>
<pdfrwt beam="2">  1       -1 0.25353148E-01 0.51425608E+03</pdfrwt>
<totfact> 0.74124841E+01</totfact>
</mgrwt>
</event>
<event>
 6    1  0.8861680E-004  0.4228957E+03  0.7818608E-02  0.1036128E+00
          2   -1    0    0  502    0  0.00000000000E+00  0.00000000000E+00  0.80846374022E+03  0.80846374022E+03  0.00000000000E+00 0.  1.
         -2   -1    0    0    0  501 -0.00000000000E+00 -0.00000000000E+00 -0.30673456230E+03  0.30673456230E+03  0.00000000000E+00 0. -1.
    9000007    2    1    2  502    0  0.11637655326E+03  0.71355053060E+02 -0.43462913856E+02  0.42536537877E+03  0.40051421302E+03 0.  0.
    9000005    1    3    3    0    0 -0.21806857138E+02 -0.61967199786E+02 -0.17877398629E+03  0.19046419883E+03  0.99999687468E+00 0.  0.
          4    1    3    3  502    0  0.13818341040E+03  0.13332225285E+03  0.13531107244E+03  0.23490117994E+03  0.00000000000E+00 0.  1.
   -9000007    1    1    2    0  501 -0.11637655326E+03 -0.71355053060E+02  0.54519209178E+03  0.68983292375E+03  0.40000000000E+03 0.  1.
<mgrwt>
<rscale>  2 0.42289567E+03</rscale>
<asrwt>0</asrwt>
<pdfrwt beam="1">  1        2 0.12437904E+00 0.42289567E+03</pdfrwt>
<pdfrwt beam="2">  1       -2 0.47189933E-01 0.42289567E+03</pdfrwt>
<totfact> 0.14981458E+02</totfact>
</mgrwt>
</event>
<event>
 6    1  0.8861680E-004  0.4902635E+03  0.7818608E-02  0.1016352E+00
          1   -1    0    0  502    0  0.00000000000E+00  0.00000000000E+00  0.17919184722E+04  0.17919184722E+04  0.00000000000E+00 0.  1.
         -1   -1    0    0    0  501 -0.00000000000E+00 -0.00000000000E+00 -0.14411405839E+03  0.14411405839E+03  0.00000000000E+00 0. -1.
    9000007    2    1    2  502    0  0.66305773629E+02 -0.27507485458E+03  0.10791051281E+04  0.11853784765E+04  0.40073884765E+03 0.  0.
    9000005    1    3    3    0    0  0.58104636094E+02  0.88848659900E+02  0.12390470524E+03  0.16316742652E+03  0.99999687468E+00 0.  0.
          4    1    3    3  502    0  0.82011375348E+01 -0.36392351448E+03  0.95520042282E+03  0.10222110500E+04  0.00000000000E+00 0.  1.
   -9000007    1    1    2    0  501 -0.66305773629E+02  0.27507485458E+03  0.56869928575E+03  0.75065405404E+03  0.40000000000E+03 0. -1.
<mgrwt>
<rscale>  2 0.49026346E+03</rscale>
<asrwt>0</asrwt>
<pdfrwt beam="1">  1        1 0.27567975E+00 0.49026346E+03</pdfrwt>
<pdfrwt beam="2">  1       -1 0.22171395E-01 0.49026346E+03</pdfrwt>
<totfact> 0.75395130E+01</totfact>
</mgrwt>
</event>
<event>
 6    1  0.8861680E-004  0.4795896E+03  0.7818608E-02  0.1019248E+00
          2   -1    0    0  502    0  0.00000000000E+00  0.00000000000E+00  0.90882859018E+03  0.90882859018E+03  0.00000000000E+00 0.  1.
         -2   -1    0    0    0  501 -0.00000000000E+00 -0.00000000000E+00 -0.27505988273E+03  0.27505988273E+03  0.00000000000E+00 0. -1.
    9000007    2    1    2  502    0 -0.75719635933E+01  0.26394302619E+03  0.14973131299E+03  0.50270167405E+03  0.40070718898E+03 0.  0.
    9000005    1    3    3    0    0  0.10574208773E+03  0.32986225015E+03  0.85878113832E+02  0.35688449619E+03  0.99999687468E+00 0.  0.
          4    1    3    3  502    0 -0.11331405132E+03 -0.65919223966E+02  0.63853199154E+02  0.14581717786E+03  0.00000000000E+00 0.  1.
   -9000007    1    1    2    0  501  0.75719635933E+01 -0.26394302619E+03  0.48403739446E+03  0.68118679886E+03  0.40000000000E+03 0.  1.
<mgrwt>
<rscale>  2 0.47958962E+03</rscale>
<asrwt>0</asrwt>
<pdfrwt beam="1">  1        2 0.13981978E+00 0.47958962E+03</pdfrwt>
<pdfrwt beam="2">  1       -2 0.42316905E-01 0.47958962E+03</pdfrwt>
<totfact> 0.15795378E+02</totfact>
</mgrwt>
</event>
<event>
 6    1  0.8861680E-004  0.4042212E+03  0.7818608E-02  0.1042328E+00
         -4   -1    0    0    0  501 -0.00000000000E+00  0.00000000000E+00  0.14546930639E+04  0.14546930639E+04  0.00000000000E+00 0.  1.
          4   -1    0    0  502    0  0.00000000000E+00 -0.00000000000E+00 -0.13638227307E+03  0.13638227307E+03  0.00000000000E+00 0. -1.
    9000007    2    1    2  502    0  0.57864608353E+01  0.58072236285E+02  0.99327621096E+03  0.10723718129E+04  0.39997225668E+03 0.  0.
    9000005    1    3    3    0    0 -0.61667485714E+02 -0.10929630553E+03  0.98376211783E+02  0.15945983894E+03  0.99999687468E+00 0.  0.
          4    1    3    3  502    0  0.67453946550E+02  0.16736854181E+03  0.89489999918E+03  0.91291197397E+03  0.00000000000E+00 0.  1.
   -9000007    1    1    2    0  501 -0.57864608353E+01 -0.58072236285E+02  0.32503457989E+03  0.51870352407E+03  0.40000000000E+03 0. -1.
<mgrwt>
<rscale>  2 0.40422119E+03</rscale>
<asrwt>0</asrwt>
<pdfrwt beam="1">  1        4 0.20981889E-01 0.40422119E+03</pdfrwt>
<pdfrwt beam="2">  1       -4 0.22379892E+00 0.40422119E+03</pdfrwt>
<totfact> 0.38907790E+00</totfact>
</mgrwt>
</event>
<event>
 6    1  0.8861680E-004  0.4477673E+03  0.7818608E-02  0.1028390E+00
          1   -1    0    0  502    0  0.00000000000E+00  0.00000000000E+00  0.28956425595E+04  0.28956425595E+04  0.00000000000E+00 0. -1.
         -1   -1    0    0    0  501 -0.00000000000E+00 -0.00000000000E+00 -0.70965198335E+02  0.70965198335E+02  0.00000000000E+00 0.  1.
    9000007    2    1    2  502    0  0.46585412706E+02 -0.19507795100E+03  0.11820241890E+04  0.12640992992E+04  0.40067473997E+03 0.  0.
    9000005    1    3    3    0    0  0.16046637065E+03  0.41266595227E+02  0.65167128856E+03  0.67240527684E+03  0.99999687468E+00 0.  0.
          4    1    3    3  502    0 -0.11388095794E+03 -0.23634454623E+03  0.53035290044E+03  0.59169402238E+03  0.00000000000E+00 0.  1.
   -9000007    1    1    2    0  501 -0.46585412706E+02  0.19507795100E+03  0.16426531722E+04  0.17025084586E+04  0.40000000000E+03 0.  1.
<mgrwt>
<rscale>  2 0.44776729E+03</rscale>
<asrwt>0</asrwt>
<pdfrwt beam="1">  1        1 0.44548338E+00 0.44776729E+03</pdfrwt>
<pdfrwt beam="2">  1       -1 0.10917725E-01 0.44776729E+03</pdfrwt>
<totfact> 0.43337443E+01</totfact>
</mgrwt>
</event>
<event>
 6    1  0.8861680E-004  0.4246201E+03  0.7818608E-02  0.1035573E+00
          1   -1    0    0  502    0  0.00000000000E+00  0.00000000000E+00  0.81564745672E+03  0.81564745672E+03  0.00000000000E+00 0.  1.
         -1   -1    0    0    0  501 -0.00000000000E+00 -0.00000000000E+00 -0.22464460266E+03  0.22464460266E+03  0.00000000000E+00 0. -1.
    9000007    2    1    2  502    0  0.47938005179E+02 -0.13510332560E+03  0.36105925210E+03  0.55715127139E+03  0.39937800986E+03 0.  0.
    9000005    1    3    3    0    0  0.14586539050E+03  0.94294280947E+02  0.12772094217E+03  0.21559629548E+03  0.99999687468E+00 0.  0.
          4    1    3    3  502    0 -0.97927385318E+02 -0.22939760655E+03  0.23333830993E+03  0.34155497591E+03  0.00000000000E+00 0.  1.
   -9000007    1    1    2    0  501 -0.47938005179E+02  0.13510332560E+03  0.22994360196E+03  0.48314078798E+03  0.40000000000E+03 0.  1.
<mgrwt>
<rscale>  2 0.42462005E+03</rscale>
<asrwt>0</asrwt>
<pdfrwt beam="1">  1        1 0.12548422E+00 0.42462005E+03</pdfrwt>
<pdfrwt beam="2">  1       -1 0.34560708E-01 0.42462005E+03</pdfrwt>
<totfact> 0.17709837E+02</totfact>
</mgrwt>
</event>
<event>
 6    1  0.8861680E-004  0.5437062E+03  0.7818608E-02  0.1002961E+00
         -2   -1    0    0    0  501 -0.00000000000E+00  0.00000000000E+00  0.61295058307E+03  0.61295058307E+03  0.00000000000E+00 0.  1.
          2   -1    0    0  502    0  0.00000000000E+00 -0.00000000000E+00 -0.68669213347E+03  0.68669213347E+03  0.00000000000E+00 0. -1.
    9000007    2    1    2  502    0 -0.83647385842E+02  0.35821767196E+03  0.31765316658E+03  0.62993635540E+03  0.40074866433E+03 0.  0.
    9000005    1    3    3    0    0 -0.19090545384E+03  0.19514845577E+03  0.19652994835E+02  0.27370614223E+03  0.99999687468E+00 0.  0.
          4    1    3    3  502    0  0.10725806800E+03  0.16306921619E+03  0.29800017174E+03  0.35623021317E+03  0.00000000000E+00 0.  1.
   -9000007    1    1    2    0  501  0.83647385842E+02 -0.35821767196E+03 -0.39139471698E+03  0.66970636113E+03  0.40000000000E+03 0. -1.
<mgrwt>
<rscale>  2 0.54370615E+03</rscale>
<asrwt>0</asrwt>
<pdfrwt beam="1">  1        2 0.10564494E+00 0.54370615E+03</pdfrwt>
<pdfrwt beam="2">  1       -2 0.94300090E-01 0.54370615E+03</pdfrwt>
<totfact> 0.41097859E+01</totfact>
</mgrwt>
</event>
<event>
 6    1  0.8861680E-004  0.4987667E+03  0.7818608E-02  0.1014101E+00
         -1   -1    0    0    0  501 -0.00000000000E+00  0.00000000000E+00  0.92969340026E+03  0.92969340026E+03  0.00000000000E+00 0.  1.
          1   -1    0    0  502    0  0.00000000000E+00 -0.00000000000E+00 -0.28077415850E+03  0.28077415850E+03  0.00000000000E+00 0. -1.
    9000007    2    1    2  502    0  0.29386212204E+03  0.49084819361E+02  0.45565803580E+03  0.67557115759E+03  0.40000984629E+03 0.  0.
    9000005    1    3    3    0    0 -0.74156615808E+02  0.86549360576E+02  0.44135860657E+02  0.12222507793E+03  0.99999687468E+00 0.  0.
          4    1    3    3  502    0  0.36801873784E+03 -0.37464541215E+02  0.41152217514E+03  0.55334607967E+03  0.00000000000E+00 0.  1.
   -9000007    1    1    2    0  501 -0.29386212204E+03 -0.49084819361E+02  0.19326120596E+03  0.53489640117E+03  0.40000000000E+03 0. -1.
<mgrwt>
<rscale>  2 0.49876668E+03</rscale>
<asrwt>0</asrwt>
<pdfrwt beam="1">  1        1 0.43196025E-01 0.49876668E+03</pdfrwt>
<pdfrwt beam="2">  1       -1 0.14302975E+00 0.49876668E+03</pdfrwt>
<totfact> 0.39686898E+01</totfact>
</mgrwt>
</event>
<event>
 6    1  0.8861680E-004  0.4422685E+03  0.7818608E-02  0.1030053E+00
          2   -1    0    0  502    0  0.00000000000E+00  0.00000000000E+00  0.76905682934E+03  0.76905682934E+03  0.00000000000E+00 0.  1.
         -2   -1    0    0    0  501 -0.00000000000E+00 -0.00000000000E+00 -0.42607309341E+03  0.42607309341E+03  0.00000000000E+00 0. -1.
    9000007    2    1    2  502    0  0.75630027342E+01  0.19135887005E+03 -0.20816237470E+03  0.48771388432E+03  0.39731328011E+03 0.  0.
    9000005    1    3    3    0    0 -0.50120902942E+02  0.26627421661E+03 -0.26367356372E+03  0.37807249509E+03  0.99999687468E+00 0.  0.
          4    1    3    3  502    0  0.57683905677E+02 -0.74915346567E+02  0.55511189015E+02  0.10964138922E+03  0.00000000000E+00 0.  1.
   -9000007    1    1    2    0  501 -0.75630027342E+01 -0.19135887005E+03  0.55114611063E+03  0.70741603843E+03  0.40000000000E+03 0.  1.
<mgrwt>
<rscale>  2 0.44226848E+03</rscale>
<asrwt>0</asrwt>
<pdfrwt beam="1">  1        2 0.11831644E+00 0.44226848E+03</pdfrwt>
<pdfrwt beam="2">  1       -2 0.65549707E-01 0.44226848E+03</pdfrwt>
<totfact> 0.80963213E+01</totfact>
</mgrwt>
</event>
<event>
 6    1  0.8861680E-004  0.4423589E+03  0.7818608E-02  0.1030025E+00
          2   -1    0    0  502    0  0.00000000000E+00  0.00000000000E+00  0.18800320894E+04  0.18800320894E+04  0.00000000000E+00 0. -1.
         -2   -1    0    0    0  501 -0.00000000000E+00 -0.00000000000E+00 -0.11230908250E+03  0.11230908250E+03  0.00000000000E+00 0.  1.
    9000007    2    1    2  502    0 -0.21789733490E+02  0.18657569340E+03  0.11542736146E+04  0.12362952482E+04  0.40099012635E+03 0.  0.
    9000005    1    3    3    0    0 -0.13206209398E+03  0.15518730630E+01  0.86826269131E+03  0.87825048027E+03  0.99999687468E+00 0.  0.
          4    1    3    3  502    0  0.11027236049E+03  0.18502382034E+03  0.28601092330E+03  0.35804476791E+03  0.00000000000E+00 0.  1.
   -9000007    1    1    2    0  501  0.21789733490E+02 -0.18657569340E+03  0.61344939225E+03  0.75604592367E+03  0.40000000000E+03 0. -1.
<mgrwt>
<rscale>  2 0.44235893E+03</rscale>
<asrwt>0</asrwt>
<pdfrwt beam="1">  1        2 0.28923568E+00 0.44235893E+03</pdfrwt>
<pdfrwt beam="2">  1       -2 0.17278322E-01 0.44235893E+03</pdfrwt>
<totfact> 0.22626407E+02</totfact>
</mgrwt>
</event>
<event>
 6    1  0.8861680E-004  0.5285861E+03  0.7818608E-02  0.1006576E+00
         -3   -1    0    0    0  501 -0.00000000000E+00  0.00000000000E+00  0.16470485048E+03  0.16470485048E+03  0.00000000000E+00 0. -1.
          3   -1    0    0  502    0  0.00000000000E+00 -0.00000000000E+00 -0.20029578866E+04  0.20029578866E+04  0.00000000000E+00 0.  1.
    9000007    2    1    2  502    0 -0.27137978726E+03 -0.21843728399E+03 -0.13404155319E+04  0.14401986372E+04  0.39509047128E+03 0.  0.
    9000005    1    3    3    0    0 -0.24530768070E+03 -0.21173045152E+03 -0.47871948210E+03  0.57808216098E+03  0.99999687468E+00 0.  0.
          4    1    3    3  502    0 -0.26072106566E+02 -0.67068324701E+01 -0.86169604984E+03  0.86211647627E+03  0.00000000000E+00 0.  1.
   -9000007    1    1    2    0  501  0.27137978726E+03  0.21843728399E+03 -0.49783750416E+03  0.72746409982E+03  0.40000000000E+03 0. -1.
<mgrwt>
<rscale>  2 0.52858609E+03</rscale>
<asrwt>0</asrwt>
<pdfrwt beam="1">  1        3 0.30814734E+00 0.52858609E+03</pdfrwt>
<pdfrwt beam="2">  1       -3 0.25339210E-01 0.52858609E+03</pdfrwt>
<totfact> 0.14158459E+00</totfact>
</mgrwt>
</event>
<event>
 6    1  0.8861680E-004  0.4219852E+03  0.7818608E-02  0.1036422E+00
          2   -1    0    0  502    0  0.00000000000E+00  0.00000000000E+00  0.16773114984E+04  0.16773114984E+04  0.00000000000E+00 0. -1.
         -2   -1    0    0    0  501 -0.00000000000E+00 -0.00000000000E+00 -0.15238173013E+03  0.15238173013E+03  0.00000000000E+00 0.  1.
    9000007    2    1    2  502    0 -0.66087597537E+02 -0.11824641631E+03  0.12658774831E+04  0.13342561771E+04  0.39930434297E+03 0.  0.
    9000005    1    3    3    0    0  0.14308232143E+03  0.51661176019E+02  0.46640787656E+03  0.49059019061E+03  0.99999687468E+00 0.  0.
          4    1    3    3  502    0 -0.20916991896E+03 -0.16990759233E+03  0.79946960653E+03  0.84366598646E+03  0.00000000000E+00 0.  1.
   -9000007    1    1    2    0  501  0.66087597537E+02  0.11824641631E+03  0.25905228522E+03  0.49543705150E+03  0.40000000000E+03 0.  1.
<mgrwt>
<rscale>  2 0.42198525E+03</rscale>
<asrwt>0</asrwt>
<pdfrwt beam="1">  1        2 0.25804791E+00 0.42198525E+03</pdfrwt>
<pdfrwt beam="2">  1       -2 0.23443344E-01 0.42198525E+03</pdfrwt>
<totfact> 0.17160866E+02</totfact>
</mgrwt>
</event>
<event>
 6    1  0.8861680E-004  0.4477154E+03  0.7818608E-02  0.1028406E+00
         -3   -1    0    0    0  501 -0.00000000000E+00  0.00000000000E+00  0.23701387084E+03  0.23701387084E+03  0.00000000000E+00 0. -1.
          3   -1    0    0  502    0  0.00000000000E+00 -0.00000000000E+00 -0.90320825310E+03  0.90320825310E+03  0.00000000000E+00 0.  1.
    9000007    2    1    2  502    0 -0.15900159814E+03 -0.12336142413E+03 -0.18923496682E+03  0.48601280487E+03  0.39987376089E+03 0.  0.
    9000005    1    3    3    0    0  0.32904711994E+02 -0.21962730373E+03 -0.42896433190E+02  0.22618571261E+03  0.99999687468E+00 0.  0.
          4    1    3    3  502    0 -0.19190631014E+03  0.96265879598E+02 -0.14633853363E+03  0.25982709226E+03  0.00000000000E+00 0.  1.
   -9000007    1    1    2    0  501  0.15900159814E+03  0.12336142413E+03 -0.47695941544E+03  0.65420931906E+03  0.40000000000E+03 0.  1.
<mgrwt>
<rscale>  2 0.44771537E+03</rscale>
<asrwt>0</asrwt>
<pdfrwt beam="1">  1        3 0.13895512E+00 0.44771537E+03</pdfrwt>
<pdfrwt beam="2">  1       -3 0.36463672E-01 0.44771537E+03</pdfrwt>
<totfact> 0.76797962E+00</totfact>
</mgrwt>
</event>
<event>
 6    1  0.8861680E-004  0.4026464E+03  0.7818608E-02  0.1042867E+00
         -2   -1    0    0    0  501 -0.00000000000E+00  0.00000000000E+00  0.21999150188E+04  0.21999150188E+04  0.00000000000E+00 0. -1.
          2   -1    0    0  502    0  0.00000000000E+00 -0.00000000000E+00 -0.74680922261E+02  0.74680922261E+02  0.00000000000E+00 0.  1.
    9000007    2    1    2  502    0  0.21313691812E+02  0.25179161012E+02  0.93539603531E+03  0.10188878239E+04  0.40258960639E+03 0.  0.
    9000005    1    3    3    0    0 -0.18684183955E+03 -0.10349630558E+02  0.35555813601E+03  0.40179544041E+03  0.99999687468E+00 0.  0.
          4    1    3    3  502    0  0.20815553137E+03  0.35528791570E+02  0.57983789930E+03  0.61709238346E+03  0.00000000000E+00 0.  1.
   -9000007    1    1    2    0  501 -0.21313691812E+02 -0.25179161012E+02  0.11898380613E+04  0.12557081172E+04  0.40000000000E+03 0.  1.
<mgrwt>
<rscale>  2 0.40264641E+03</rscale>
<asrwt>0</asrwt>
<pdfrwt beam="1">  1        2 0.11489374E-01 0.40264641E+03</pdfrwt>
<pdfrwt beam="2">  1       -2 0.33844842E+00 0.40264641E+03</pdfrwt>
<totfact> 0.11316625E+01</totfact>
</mgrwt>
</event>
<event>
 6    1  0.8861680E-004  0.4880887E+03  0.7818608E-02  0.1016936E+00
         -2   -1    0    0    0  501 -0.00000000000E+00  0.00000000000E+00  0.26417159654E+03  0.26417159654E+03  0.00000000000E+00 0.  1.
          2   -1    0    0  502    0  0.00000000000E+00 -0.00000000000E+00 -0.93136668288E+03  0.93136668288E+03  0.00000000000E+00 0. -1.
    9000007    2    1    2  502    0 -0.20278023339E+03  0.19274205190E+03 -0.22706952963E+03  0.53828655649E+03  0.39990314325E+03 0.  0.
    9000005    1    3    3    0    0  0.44754641152E+02  0.37463196487E+02 -0.23881280788E+03  0.24584349940E+03  0.99999687468E+00 0.  0.
          4    1    3    3  502    0 -0.24753487455E+03  0.15527885541E+03  0.11743278248E+02  0.29244305709E+03  0.00000000000E+00 0.  1.
   -9000007    1    1    2    0  501  0.20278023339E+03 -0.19274205190E+03 -0.44012555671E+03  0.65725172293E+03  0.40000000000E+03 0. -1.
<mgrwt>
<rscale>  2 0.48808870E+03</rscale>
<asrwt>0</asrwt>
<pdfrwt beam="1">  1        2 0.14328718E+00 0.48808870E+03</pdfrwt>
<pdfrwt beam="2">  1       -2 0.40641784E-01 0.48808870E+03</pdfrwt>
<totfact> 0.16505382E+02</totfact>
</mgrwt>
</event>
<event>
 6    1  0.8861680E-004  0.4494373E+03  0.7818608E-02  0.1027890E+00
         -1   -1    0    0    0  501 -0.00000000000E+00  0.00000000000E+00  0.42329061255E+03  0.42329061255E+03  0.00000000000E+00 0. -1.
          1   -1    0    0  502    0  0.00000000000E+00 -0.00000000000E+00 -0.53583878973E+03  0.53583878973E+03  0.00000000000E+00 0.  1.
    9000007    2    1    2  502    0 -0.19943275594E+03  0.44843873491E+02  0.10234449510E+03  0.46117030986E+03  0.40052373448E+03 0.  0.
    9000005    1    3    3    0    0  0.15923271273E+02 -0.10829809356E+03  0.15692903620E+03  0.19133674512E+03  0.99999687468E+00 0.  0.
          4    1    3    3  502    0 -0.21535602722E+03  0.15314196705E+03 -0.54584541101E+02  0.26983356474E+03  0.00000000000E+00 0.  1.
   -9000007    1    1    2    0  501  0.19943275594E+03 -0.44843873491E+02 -0.21489267228E+03  0.49795909243E+03  0.40000000000E+03 0.  1.
<mgrwt>
<rscale>  2 0.44943734E+03</rscale>
<asrwt>0</asrwt>
<pdfrwt beam="1">  1        1 0.82436736E-01 0.44943734E+03</pdfrwt>
<pdfrwt beam="2">  1       -1 0.65121633E-01 0.44943734E+03</pdfrwt>
<totfact> 0.10052531E+02</totfact>
</mgrwt>
</event>
<event>
 6    1  0.8861680E-004  0.4178112E+03  0.7818608E-02  0.1037781E+00
          2   -1    0    0  502    0  0.00000000000E+00  0.00000000000E+00  0.12186523276E+04  0.12186523276E+04  0.00000000000E+00 0.  1.
         -2   -1    0    0    0  501 -0.00000000000E+00 -0.00000000000E+00 -0.21064149078E+03  0.21064149078E+03  0.00000000000E+00 0. -1.
    9000007    2    1    2  502    0  0.12048328853E+03 -0.79889348754E+01  0.90822996251E+03  0.99971696987E+03  0.39996538494E+03 0.  0.
    9000005    1    3    3    0    0 -0.55845936152E+02 -0.53762120096E+02  0.43342416564E+01  0.77646118940E+02  0.99999687468E+00 0.  0.
          4    1    3    3  502    0  0.17632922468E+03  0.45773185220E+02  0.90389572085E+03  0.92207085093E+03  0.00000000000E+00 0.  1.
   -9000007    1    1    2    0  501 -0.12048328853E+03  0.79889348754E+01  0.99780874312E+02  0.42957684851E+03  0.40000000000E+03 0. -1.
<mgrwt>
<rscale>  2 0.41781120E+03</rscale>
<asrwt>0</asrwt>
<pdfrwt beam="1">  1        2 0.18748497E+00 0.41781120E+03</pdfrwt>
<pdfrwt beam="2">  1       -2 0.32406384E-01 0.41781120E+03</pdfrwt>
<totfact> 0.17093773E+02</totfact>
</mgrwt>
</event>
<event>
 6    1  0.8861680E-004  0.4283930E+03  0.7818608E-02  0.1034369E+00
          2   -1    0    0  502    0  0.00000000000E+00  0.00000000000E+00  0.31848050402E+04  0.31848050402E+04  0.00000000000E+00 0.  1.
         -2   -1    0    0    0  501 -0.00000000000E+00 -0.00000000000E+00 -0.63173334534E+02  0.63173334534E+02  0.00000000000E+00 0. -1.
    9000007    2    1    2  502    0  0.55216624857E+02 -0.14155384412E+03  0.20438297114E+04  0.20883476123E+04  0.40108539485E+03 0.  0.
    9000005    1    3    3    0    0 -0.58601704236E+02  0.31840547069E+02  0.15662847460E+04  0.15677043362E+04  0.99999687468E+00 0.  0.
          4    1    3    3  502    0  0.11381832909E+03 -0.17339439119E+03  0.47754496547E+03  0.52064327613E+03  0.00000000000E+00 0.  1.
   -9000007    1    1    2    0  501 -0.55216624857E+02  0.14155384412E+03  0.10778019943E+04  0.11596307625E+04  0.40000000000E+03 0. -1.
<mgrwt>
<rscale>  2 0.42839304E+03</rscale>
<asrwt>0</asrwt>
<pdfrwt beam="1">  1        2 0.48996988E+00 0.42839304E+03</pdfrwt>
<pdfrwt beam="2">  1       -2 0.97189771E-02 0.42839304E+03</pdfrwt>
<totfact> 0.10713135E+02</totfact>
</mgrwt>
</event>
<event>
 6    1  0.8861680E-004  0.4037827E+03  0.7818608E-02  0.1042478E+00
         -2   -1    0    0    0  501 -0.00000000000E+00  0.00000000000E+00  0.26839278794E+03  0.26839278794E+03  0.00000000000E+00 0. -1.
          2   -1    0    0  502    0  0.00000000000E+00 -0.00000000000E+00 -0.12583648806E+04  0.12583648806E+04  0.00000000000E+00 0.  1.
    9000007    2    1    2  502    0 -0.72013497250E+01  0.54273989836E+02  0.54007881588E+02  0.40743121390E+03  0.40010725734E+03 0.  0.
    9000005    1    3    3    0    0  0.16365235263E+03 -0.58428857478E+02 -0.45811755533E+02  0.17971015788E+03  0.99999687468E+00 0.  0.
          4    1    3    3  502    0 -0.17085370235E+03  0.11270284731E+03  0.99819637122E+02  0.22772105602E+03  0.00000000000E+00 0.  1.
   -9000007    1    1    2    0  501  0.72013497250E+01 -0.54273989836E+02 -0.10439799742E+04  0.11193264546E+04  0.40000000000E+03 0.  1.
<mgrwt>
<rscale>  2 0.40378265E+03</rscale>
<asrwt>0</asrwt>
<pdfrwt beam="1">  1        2 0.19359460E+00 0.40378265E+03</pdfrwt>
<pdfrwt beam="2">  1       -2 0.41291198E-01 0.40378265E+03</pdfrwt>
<totfact> 0.10254254E+02</totfact>
</mgrwt>
</event>
<event>
 6    1  0.8861680E-004  0.4486122E+03  0.7818608E-02  0.1028137E+00
          1   -1    0    0  502    0  0.00000000000E+00  0.00000000000E+00  0.76920023544E+03  0.76920023544E+03  0.00000000000E+00 0. -1.
         -1   -1    0    0    0  501 -0.00000000000E+00 -0.00000000000E+00 -0.28354695548E+03  0.28354695548E+03  0.00000000000E+00 0.  1.
    9000007    2    1    2  502    0 -0.18725263335E+03  0.80567913235E+02  0.38897047564E+03  0.59350618449E+03  0.39924531653E+03 0.  0.
    9000005    1    3    3    0    0 -0.12568180395E+03 -0.53729294372E+02  0.42074319177E+03  0.44238963181E+03  0.99999687468E+00 0.  0.
          4    1    3    3  502    0 -0.61570829392E+02  0.13429720761E+03 -0.31772716131E+02  0.15111655268E+03  0.00000000000E+00 0.  1.
   -9000007    1    1    2    0  501  0.18725263335E+03 -0.80567913235E+02  0.96682804313E+02  0.45924100643E+03  0.40000000000E+03 0.  1.
<mgrwt>
<rscale>  2 0.44861222E+03</rscale>
<asrwt>0</asrwt>
<pdfrwt beam="1">  1        1 0.11833850E+00 0.44861222E+03</pdfrwt>
<pdfrwt beam="2">  1       -1 0.43622609E-01 0.44861222E+03</pdfrwt>
<totfact> 0.12754913E+02</totfact>
</mgrwt>
</event>
<event>
 6    1  0.8861680E-004  0.6302303E+03  0.7818608E-02  0.9844599E-01
         -2   -1    0    0    0  501 -0.00000000000E+00  0.00000000000E+00  0.35811709870E+03  0.35811709870E+03  0.00000000000E+00 0. -1.
          2   -1    0    0  502    0  0.00000000000E+00 -0.00000000000E+00 -0.11142649115E+04  0.11142649115E+04  0.00000000000E+00 0.  1.
    9000007    2    1    2  502    0 -0.45807508667E+03  0.16592245898E+03 -0.32790591940E+03  0.71030972576E+03  0.39956797559E+03 0.  0.
    9000005    1    3    3    0    0 -0.35352140509E+03  0.26147539995E+02 -0.18388023490E+02  0.35496506463E+03  0.99999687468E+00 0.  0.
          4    1    3    3  502    0 -0.10455368158E+03  0.13977491898E+03 -0.30951789591E+03  0.35534466113E+03  0.00000000000E+00 0.  1.
   -9000007    1    1    2    0  501  0.45807508667E+03 -0.16592245898E+03 -0.42824189337E+03  0.76207228440E+03  0.40000000000E+03 0.  1.
<mgrwt>
<rscale>  2 0.63023035E+03</rscale>
<asrwt>0</asrwt>
<pdfrwt beam="1">  1        2 0.17142537E+00 0.63023035E+03</pdfrwt>
<pdfrwt beam="2">  1       -2 0.55094939E-01 0.63023035E+03</pdfrwt>
<totfact> 0.67942502E+01</totfact>
</mgrwt>
</event>
<event>
 6    1  0.8861680E-004  0.4254405E+03  0.7818608E-02  0.1035310E+00
         -2   -1    0    0    0  501 -0.00000000000E+00  0.00000000000E+00  0.22622199692E+03  0.22622199692E+03  0.00000000000E+00 0. -1.
          2   -1    0    0  502    0  0.00000000000E+00 -0.00000000000E+00 -0.98766710353E+03  0.98766710353E+03  0.00000000000E+00 0.  1.
    9000007    2    1    2  502    0 -0.13189268207E+03  0.56691677699E+02 -0.64555409881E+03  0.77338898513E+03  0.40097481458E+03 0.  0.
    9000005    1    3    3    0    0 -0.25476379824E+03  0.37448015112E+02 -0.25060141454E+03  0.35931743026E+03  0.99999687468E+00 0.  0.
          4    1    3    3  502    0  0.12287111616E+03  0.19243662588E+02 -0.39495268427E+03  0.41407155487E+03  0.00000000000E+00 0.  1.
   -9000007    1    1    2    0  501  0.13189268207E+03 -0.56691677699E+02 -0.11589100779E+03  0.44050011532E+03  0.40000000000E+03 0. -1.
<mgrwt>
<rscale>  2 0.42544048E+03</rscale>
<asrwt>0</asrwt>
<pdfrwt beam="1">  1        2 0.15194878E+00 0.42544048E+03</pdfrwt>
<pdfrwt beam="2">  1       -2 0.34803384E-01 0.42544048E+03</pdfrwt>
<totfact> 0.20561155E+02</totfact>
</mgrwt>
</event>
<event>
 6    1  0.8861680E-004  0.4130937E+03  0.7818608E-02  0.1039338E+00
         -2   -1    0    0    0  501 -0.00000000000E+00  0.00000000000E+00  0.68028472691E+02  0.68028472691E+02  0.00000000000E+00 0.  1.
          2   -1    0    0  502    0  0.00000000000E+00 -0.00000000000E+00 -0.25122884819E+04  0.25122884819E+04  0.00000000000E+00 0. -1.
    9000007    2    1    2  502    0 -0.76535937422E+02  0.66221355586E+02 -0.12739457151E+04  0.13393985187E+04  0.40100834044E+03 0.  0.
    9000005    1    3    3    0    0  0.15538887098E+03  0.90718058247E+01 -0.31786009646E+03  0.35392660228E+03  0.99999687468E+00 0.  0.
          4    1    3    3  502    0 -0.23192480841E+03  0.57149549761E+02 -0.95608561865E+03  0.98547191638E+03  0.00000000000E+00 0.  1.
   -9000007    1    1    2    0  501  0.76535937422E+02 -0.66221355586E+02 -0.11703142941E+04  0.12409184359E+04  0.40000000000E+03 0.  1.
<mgrwt>
<rscale>  2 0.41309368E+03</rscale>
<asrwt>0</asrwt>
<pdfrwt beam="1">  1        2 0.38650585E+00 0.41309368E+03</pdfrwt>
<pdfrwt beam="2">  1       -2 0.10465921E-01 0.41309368E+03</pdfrwt>
<totfact> 0.23672945E+02</totfact>
</mgrwt>
</event>
<event>
 6    1  0.8861680E-004  0.4204031E+03  0.7818608E-02  0.1036935E+00
         -1   -1    0    0    0  501 -0.00000000000E+00  0.00000000000E+00  0.73846495907E+02  0.73846495907E+02  0.00000000000E+00 0.  1.
          1   -1    0    0  502    0  0.00000000000E+00 -0.00000000000E+00 -0.30659344321E+04  0.30659344321E+04  0.00000000000E+00 0. -1.
    9000007    2    1    2  502    0  0.11852762263E+03  0.51627022810E+02 -0.76081746562E+03  0.86925630589E+03  0.40006144843E+03 0.  0.
    9000005    1    3    3    0    0  0.16353843824E+03 -0.46003363179E+02 -0.74063718790E+03  0.75987207759E+03  0.99999687468E+00 0.  0.
          4    1    3    3  502    0 -0.45010815614E+02  0.97630385990E+02 -0.20180277719E+02  0.10938422829E+03  0.00000000000E+00 0.  1.
   -9000007    1    1    2    0  501 -0.11852762263E+03 -0.51627022810E+02 -0.22312704705E+04  0.22705246221E+04  0.40000000000E+03 0. -1.
<mgrwt>
<rscale>  2 0.42040305E+03</rscale>
<asrwt>0</asrwt>
<pdfrwt beam="1">  1        1 0.47168230E+00 0.42040305E+03</pdfrwt>
<pdfrwt beam="2">  1       -1 0.11360997E-01 0.42040305E+03</pdfrwt>
<totfact> 0.31051247E+01</totfact>
</mgrwt>
</event>
<event>
 6    1  0.8861680E-004  0.4478393E+03  0.7818608E-02  0.1028368E+00
          1   -1    0    0  502    0  0.00000000000E+00  0.00000000000E+00  0.24859608015E+03  0.24859608015E+03  0.00000000000E+00 0.  1.
         -1   -1    0    0    0  501 -0.00000000000E+00 -0.00000000000E+00 -0.85548043950E+03  0.85548043950E+03  0.00000000000E+00 0. -1.
    9000007    2    1    2  502    0 -0.14703122963E+03  0.13563601900E+03 -0.43555535364E+03  0.62515174441E+03  0.40136134009E+03 0.  0.
    9000005    1    3    3    0    0 -0.32260428861E+02 -0.80086433771E+02 -0.35877561463E+03  0.36901966586E+03  0.99999687468E+00 0.  0.
          4    1    3    3  502    0 -0.11477080077E+03  0.21572245277E+03 -0.76779739008E+02  0.25613207855E+03  0.00000000000E+00 0.  1.
   -9000007    1    1    2    0  501  0.14703122963E+03 -0.13563601900E+03 -0.17132900571E+03  0.47892477523E+03  0.40000000000E+03 0.  1.
<mgrwt>
<rscale>  2 0.44783929E+03</rscale>
<asrwt>0</asrwt>
<pdfrwt beam="1">  1        1 0.38245551E-01 0.44783929E+03</pdfrwt>
<pdfrwt beam="2">  1       -1 0.13161237E+00 0.44783929E+03</pdfrwt>
<totfact> 0.57722538E+01</totfact>
</mgrwt>
</event>
<event>
 6    1  0.8861680E-004  0.5673424E+03  0.7818608E-02  0.9975577E-01
          2   -1    0    0  502    0  0.00000000000E+00  0.00000000000E+00  0.66601542257E+03  0.66601542257E+03  0.00000000000E+00 0. -1.
         -2   -1    0    0    0  501 -0.00000000000E+00 -0.00000000000E+00 -0.52287685012E+03  0.52287685012E+03  0.00000000000E+00 0.  1.
    9000007    2    1    2  502    0  0.23398353375E+03 -0.32743472914E+03 -0.92007433864E+02  0.57468103850E+03  0.39978885954E+03 0.  0.
    9000005    1    3    3    0    0  0.14319503901E+02 -0.20287296179E+03  0.12754083306E+03  0.24006280618E+03  0.99999687468E+00 0.  0.
          4    1    3    3  502    0  0.21966402985E+03 -0.12456176735E+03 -0.21954826692E+03  0.33461823232E+03  0.00000000000E+00 0.  1.
   -9000007    1    1    2    0  501 -0.23398353375E+03  0.32743472914E+03  0.23514600632E+03  0.61421123419E+03  0.40000000000E+03 0. -1.
<mgrwt>
<rscale>  2 0.56734236E+03</rscale>
<asrwt>0</asrwt>
<pdfrwt beam="1">  1        2 0.10246391E+00 0.56734236E+03</pdfrwt>
<pdfrwt beam="2">  1       -2 0.80442592E-01 0.56734236E+03</pdfrwt>
<totfact> 0.61184570E+01</totfact>
</mgrwt>
</event>
<event>
 6    1  0.8861680E-004  0.4461193E+03  0.7818608E-02  0.1028886E+00
         -2   -1    0    0    0  501 -0.00000000000E+00  0.00000000000E+00  0.16696558541E+03  0.16696558541E+03  0.00000000000E+00 0. -1.
          2   -1    0    0  502    0  0.00000000000E+00 -0.00000000000E+00 -0.21045519070E+04  0.21045519070E+04  0.00000000000E+00 0.  1.
    9000007    2    1    2  502    0  0.17654809664E+03  0.89187483443E+02 -0.17165404119E+04  0.17735366375E+04  0.39974689661E+03 0.  0.
    9000005    1    3    3    0    0  0.70942183453E+01 -0.56125118082E+02 -0.12976191837E+04  0.12988521482E+04  0.99999687468E+00 0.  0.
          4    1    3    3  502    0  0.16945387830E+03  0.14531260153E+03 -0.41892122815E+03  0.47468448935E+03  0.00000000000E+00 0.  1.
   -9000007    1    1    2    0  501 -0.17654809664E+03 -0.89187483443E+02 -0.22104590970E+03  0.49798085488E+03  0.40000000000E+03 0. -1.
<mgrwt>
<rscale>  2 0.44611927E+03</rscale>
<asrwt>0</asrwt>
<pdfrwt beam="1">  1        2 0.32377719E+00 0.44611927E+03</pdfrwt>
<pdfrwt beam="2">  1       -2 0.25687015E-01 0.44611927E+03</pdfrwt>
<totfact> 0.85725772E+01</totfact>
</mgrwt>
</event>
<event>
 6    1  0.8861680E-004  0.5081875E+03  0.7818608E-02  0.1011664E+00
         -1   -1    0    0    0  501 -0.00000000000E+00  0.00000000000E+00  0.15089096375E+03  0.15089096375E+03  0.00000000000E+00 0. -1.
          1   -1    0    0  502    0  0.00000000000E+00 -0.00000000000E+00 -0.17738914893E+04  0.17738914893E+04  0.00000000000E+00 0.  1.
    9000007    2    1    2  502    0  0.26723087467E+03 -0.16221556154E+03 -0.99274362211E+03  0.11154926452E+04  0.40131996391E+03 0.  0.
    9000005    1    3    3    0    0  0.25107125163E+03 -0.66005233964E+02 -0.23091338315E+03  0.34744129694E+03  0.99999687468E+00 0.  0.
          4    1    3    3  502    0  0.16159623040E+02 -0.96210327577E+02 -0.76183023896E+03  0.76805134825E+03  0.00000000000E+00 0.  1.
   -9000007    1    1    2    0  501 -0.26723087467E+03  0.16221556154E+03 -0.63025690339E+03  0.80928980783E+03  0.40000000000E+03 0.  1.
<mgrwt>
<rscale>  2 0.50818751E+03</rscale>
<asrwt>0</asrwt>
<pdfrwt beam="1">  1        1 0.27290639E+00 0.50818751E+03</pdfrwt>
<pdfrwt beam="2">  1       -1 0.23213994E-01 0.50818751E+03</pdfrwt>
<totfact> 0.71556685E+01</totfact>
</mgrwt>
</event>
<event>
 6    1  0.8861680E-004  0.4015294E+03  0.7818608E-02  0.1043251E+00
          2   -1    0    0  502    0  0.00000000000E+00  0.00000000000E+00  0.19607993911E+03  0.19607993911E+03  0.00000000000E+00 0.  1.
         -2   -1    0    0    0  501 -0.00000000000E+00 -0.00000000000E+00 -0.84128599729E+03  0.84128599729E+03  0.00000000000E+00 0. -1.
    9000007    2    1    2  502    0 -0.11921241182E+02  0.19353016638E+02 -0.40132077226E+03  0.56832789110E+03  0.40177303831E+03 0.  0.
    9000005    1    3    3    0    0 -0.62286643415E+01  0.96329993990E+02 -0.46084961637E+03  0.47085202867E+03  0.99999687468E+00 0.  0.
          4    1    3    3  502    0 -0.56925768405E+01 -0.76976977352E+02  0.59528844118E+02  0.97475862424E+02  0.00000000000E+00 0.  1.
   -9000007    1    1    2    0  501  0.11921241182E+02 -0.19353016638E+02 -0.24388528593E+03  0.46903804530E+03  0.40000000000E+03 0.  1.
<mgrwt>
<rscale>  2 0.40152942E+03</rscale>
<asrwt>0</asrwt>
<pdfrwt beam="1">  1        2 0.30166144E-01 0.40152942E+03</pdfrwt>
<pdfrwt beam="2">  1       -2 0.12942862E+00 0.40152942E+03</pdfrwt>
<totfact> 0.79991995E+01</totfact>
</mgrwt>
</event>
<event>
 6    1  0.8861680E-004  0.4731275E+03  0.7818608E-02  0.1021041E+00
         -1   -1    0    0    0  501 -0.00000000000E+00  0.00000000000E+00  0.21767804128E+03  0.21767804128E+03  0.00000000000E+00 0. -1.
          1   -1    0    0  502    0  0.00000000000E+00 -0.00000000000E+00 -0.11780746433E+04  0.11780746433E+04  0.00000000000E+00 0.  1.
    9000007    2    1    2  502    0  0.25358355327E+03  0.11405415411E+02 -0.72844119818E+03  0.86826997267E+03  0.39853665358E+03 0.  0.
    9000005    1    3    3    0    0  0.24210741275E+03  0.31395390543E+02 -0.14413514359E+03  0.28350945217E+03  0.99999687468E+00 0.  0.
          4    1    3    3  502    0  0.11476140515E+02 -0.19989975132E+02 -0.58430605459E+03  0.58476052050E+03  0.00000000000E+00 0.  1.
   -9000007    1    1    2    0  501 -0.25358355327E+03 -0.11405415411E+02 -0.23195540385E+03  0.52748271191E+03  0.40000000000E+03 0. -1.
<mgrwt>
<rscale>  2 0.47312754E+03</rscale>
<asrwt>0</asrwt>
<pdfrwt beam="1">  1        1 0.18124225E+00 0.47312754E+03</pdfrwt>
<pdfrwt beam="2">  1       -1 0.33488930E-01 0.47312754E+03</pdfrwt>
<totfact> 0.97889821E+01</totfact>
</mgrwt>
</event>
<event>
 6    1  0.8861680E-004  0.4527165E+03  0.7818608E-02  0.1026915E+00
          2   -1    0    0  502    0  0.00000000000E+00  0.00000000000E+00  0.17302771981E+04  0.17302771981E+04  0.00000000000E+00 0. -1.
         -2   -1    0    0    0  501 -0.00000000000E+00 -0.00000000000E+00 -0.13729724930E+03  0.13729724930E+03  0.00000000000E+00 0.  1.
    9000007    2    1    2  502    0 -0.15343287957E+03  0.14559395070E+03  0.11428142010E+04  0.12293045613E+04  0.40053234509E+03 0.  0.
    9000005    1    3    3    0    0 -0.20350109366E+03 -0.40004080600E+02  0.87745472345E+03  0.90163230492E+03  0.99999687468E+00 0.  0.
          4    1    3    3  502    0  0.50068214083E+02  0.18559803130E+03  0.26535947750E+03  0.32767225636E+03  0.00000000000E+00 0.  1.
   -9000007    1    1    2    0  501  0.15343287957E+03 -0.14559395070E+03  0.45016574787E+03  0.63826988615E+03  0.40000000000E+03 0.  1.
<mgrwt>
<rscale>  2 0.45271649E+03</rscale>
<asrwt>0</asrwt>
<pdfrwt beam="1">  1        2 0.26619648E+00 0.45271649E+03</pdfrwt>
<pdfrwt beam="2">  1       -2 0.21122655E-01 0.45271649E+03</pdfrwt>
<totfact> 0.19221909E+02</totfact>
</mgrwt>
</event>
<event>
 6    1  0.8861680E-004  0.4986708E+03  0.7818608E-02  0.1014126E+00
         -1   -1    0    0    0  501 -0.00000000000E+00  0.00000000000E+00  0.71717508596E+03  0.71717508596E+03  0.00000000000E+00 0. -1.
          1   -1    0    0  502    0  0.00000000000E+00 -0.00000000000E+00 -0.37686820802E+03  0.37686820802E+03  0.00000000000E+00 0.  1.
    9000007    2    1    2  502    0  0.28515079086E+03  0.85125800309E+02  0.32485879828E+03  0.59524872848E+03  0.40028793952E+03 0.  0.
    9000005    1    3    3    0    0  0.15324017779E+03  0.92964739168E+02  0.40346989126E+03  0.44149059782E+03  0.99999687468E+00 0.  0.
          4    1    3    3  502    0  0.13191061307E+03 -0.78389388599E+01 -0.78611092977E+02  0.15375813066E+03  0.00000000000E+00 0.  1.
   -9000007    1    1    2    0  501 -0.28515079086E+03 -0.85125800309E+02  0.15448079652E+02  0.49879456550E+03  0.40000000000E+03 0.  1.
<mgrwt>
<rscale>  2 0.49867080E+03</rscale>
<asrwt>0</asrwt>
<pdfrwt beam="1">  1        1 0.57979724E-01 0.49867080E+03</pdfrwt>
<pdfrwt beam="2">  1       -1 0.11033463E+00 0.49867080E+03</pdfrwt>
<totfact> 0.51471119E+01</totfact>
</mgrwt>
</event>
<event>
 6    1  0.8861680E-004  0.5116866E+03  0.7818608E-02  0.1010773E+00
          2   -1    0    0  502    0  0.00000000000E+00  0.00000000000E+00  0.13417182738E+04  0.13417182738E+04  0.00000000000E+00 0.  1.
         -2   -1    0    0    0  501 -0.00000000000E+00 -0.00000000000E+00 -0.24450124392E+03  0.24450124392E+03  0.00000000000E+00 0. -1.
    9000007    2    1    2  502    0 -0.30862436424E+03 -0.76923749642E+02  0.90551393253E+03  0.10404023881E+04  0.40164086656E+03 0.  0.
    9000005    1    3    3    0    0 -0.23792966354E+02 -0.18835340289E+03  0.48160151853E+03  0.51767183840E+03  0.99999687468E+00 0.  0.
          4    1    3    3  502    0 -0.28483139789E+03  0.11142965325E+03  0.42391241400E+03  0.52273054970E+03  0.00000000000E+00 0.  1.
   -9000007    1    1    2    0  501  0.30862436424E+03  0.76923749642E+02  0.19170309737E+03  0.54581712964E+03  0.40000000000E+03 0. -1.
<mgrwt>
<rscale>  2 0.51168655E+03</rscale>
<asrwt>0</asrwt>
<pdfrwt beam="1">  1        2 0.20641819E+00 0.51168655E+03</pdfrwt>
<pdfrwt beam="2">  1       -2 0.37615577E-01 0.51168655E+03</pdfrwt>
<totfact> 0.10849450E+02</totfact>
</mgrwt>
</event>
<event>
 6    1  0.8861680E-004  0.4118650E+03  0.7818608E-02  0.1039747E+00
          2   -1    0    0  502    0  0.00000000000E+00  0.00000000000E+00  0.12027788672E+04  0.12027788672E+04  0.00000000000E+00 0.  1.
         -2   -1    0    0    0  501 -0.00000000000E+00 -0.00000000000E+00 -0.14774904907E+03  0.14774904907E+03  0.00000000000E+00 0. -1.
    9000007    2    1    2  502    0 -0.79536470851E+02  0.53384152685E+02  0.38423961441E+03  0.56367633220E+03  0.40114212973E+03 0.  0.
    9000005    1    3    3    0    0 -0.10915077926E+03 -0.52988644961E+02 -0.38070775123E+02  0.12716946576E+03  0.99999687468E+00 0.  0.
          4    1    3    3  502    0  0.29614308414E+02  0.10637279765E+03  0.42231038953E+03  0.43650686644E+03  0.00000000000E+00 0.  1.
   -9000007    1    1    2    0  501  0.79536470851E+02 -0.53384152685E+02  0.67079020377E+03  0.78685158411E+03  0.40000000000E+03 0.  1.
<mgrwt>
<rscale>  2 0.41186503E+03</rscale>
<asrwt>0</asrwt>
<pdfrwt beam="1">  1        2 0.18504290E+00 0.41186503E+03</pdfrwt>
<pdfrwt beam="2">  1       -2 0.22730624E-01 0.41186503E+03</pdfrwt>
<totfact> 0.33187897E+02</totfact>
</mgrwt>
</event>
<event>
 6    1  0.8861680E-004  0.4062695E+03  0.7818608E-02  0.1041630E+00
          1   -1    0    0  502    0  0.00000000000E+00  0.00000000000E+00  0.20658520663E+04  0.20658520663E+04  0.00000000000E+00 0. -1.
         -1   -1    0    0    0  501 -0.00000000000E+00 -0.00000000000E+00 -0.94463860860E+02  0.94463860860E+02  0.00000000000E+00 0.  1.
    9000007    2    1    2  502    0 -0.33725867910E+02  0.63305692705E+02  0.56129571335E+03  0.69283308871E+03  0.39977464413E+03 0.  0.
    9000005    1    3    3    0    0  0.12948749310E+03 -0.10791795250E+03  0.25824865259E+03  0.30839368006E+03  0.99999687468E+00 0.  0.
          4    1    3    3  502    0 -0.16321336101E+03  0.17122364521E+03  0.30304706076E+03  0.38443940865E+03  0.00000000000E+00 0.  1.
   -9000007    1    1    2    0  501  0.33725867910E+02 -0.63305692705E+02  0.14100924920E+04  0.14674828384E+04  0.40000000000E+03 0. -1.
<mgrwt>
<rscale>  2 0.40626950E+03</rscale>
<asrwt>0</asrwt>
<pdfrwt beam="1">  1        1 0.31782336E+00 0.40626950E+03</pdfrwt>
<pdfrwt beam="2">  1       -1 0.14532903E-01 0.40626950E+03</pdfrwt>
<totfact> 0.10067321E+02</totfact>
</mgrwt>
</event>
<event>
 6    1  0.8861680E-004  0.4528980E+03  0.7818608E-02  0.1026861E+00
         -2   -1    0    0    0  501 -0.00000000000E+00  0.00000000000E+00  0.19328594307E+03  0.19328594307E+03  0.00000000000E+00 0. -1.
          2   -1    0    0  502    0  0.00000000000E+00 -0.00000000000E+00 -0.11430247994E+04  0.11430247994E+04  0.00000000000E+00 0.  1.
    9000007    2    1    2  502    0 -0.12465792468E+03  0.17209074715E+03 -0.65358863618E+03  0.79514554004E+03  0.39990436488E+03 0.  0.
    9000005    1    3    3    0    0  0.10214109801E+03  0.62722064074E+02 -0.31357515570E+02  0.12389977805E+03  0.99999687468E+00 0.  0.
          4    1    3    3  502    0 -0.22679902269E+03  0.10936868307E+03 -0.62223112061E+03  0.67124576199E+03  0.00000000000E+00 0.  1.
   -9000007    1    1    2    0  501  0.12465792468E+03 -0.17209074715E+03 -0.29615022014E+03  0.54116520244E+03  0.40000000000E+03 0.  1.
<mgrwt>
<rscale>  2 0.45289797E+03</rscale>
<asrwt>0</asrwt>
<pdfrwt beam="1">  1        2 0.17584997E+00 0.45289797E+03</pdfrwt>
<pdfrwt beam="2">  1       -2 0.29736299E-01 0.45289797E+03</pdfrwt>
<totfact> 0.22099109E+02</totfact>
</mgrwt>
</event>
<event>
 6    1  0.8861680E-004  0.4045718E+03  0.7818608E-02  0.1042208E+00
         -2   -1    0    0    0  501 -0.00000000000E+00  0.00000000000E+00  0.29108412961E+03  0.29108412961E+03  0.00000000000E+00 0.  1.
          2   -1    0    0  502    0  0.00000000000E+00 -0.00000000000E+00 -0.63287767354E+03  0.63287767354E+03  0.00000000000E+00 0. -1.
    9000007    2    1    2  502    0 -0.47173269276E+02  0.34121396648E+02 -0.32529964414E+03  0.51941064969E+03  0.40072182058E+03 0.  0.
    9000005    1    3    3    0    0  0.13765003267E+03 -0.10192280713E+03 -0.17622882834E+03  0.24575066641E+03  0.99999687468E+00 0.  0.
          4    1    3    3  502    0 -0.18482330195E+03  0.13604420378E+03 -0.14907081580E+03  0.27365998328E+03  0.00000000000E+00 0.  1.
   -9000007    1    1    2    0  501  0.47173269276E+02 -0.34121396648E+02 -0.16493899791E+02  0.40455115347E+03  0.40000000000E+03 0.  1.
<mgrwt>
<rscale>  2 0.40457177E+03</rscale>
<asrwt>0</asrwt>
<pdfrwt beam="1">  1        2 0.97365796E-01 0.40457177E+03</pdfrwt>
<pdfrwt beam="2">  1       -2 0.44782174E-01 0.40457177E+03</pdfrwt>
<totfact> 0.22603937E+02</totfact>
</mgrwt>
</event>
<event>
 6    1  0.8861680E-004  0.4442770E+03  0.7818608E-02  0.1029443E+00
         -2   -1    0    0    0  501 -0.00000000000E+00  0.00000000000E+00  0.14223917631E+03  0.14223917631E+03  0.00000000000E+00 0.  1.
          2   -1    0    0  502    0  0.00000000000E+00 -0.00000000000E+00 -0.15057111884E+04  0.15057111884E+04  0.00000000000E+00 0. -1.
    9000007    2    1    2  502    0  0.19017946720E+03 -0.38702834329E+02 -0.45058541261E+03  0.63255483457E+03  0.39928970128E+03 0.  0.
    9000005    1    3    3    0    0  0.25300199133E+03 -0.12116995267E+03 -0.15758542558E+03  0.32175507983E+03  0.99999687468E+00 0.  0.
          4    1    3    3  502    0 -0.62822524135E+02  0.82467118339E+02 -0.29299998703E+03  0.31079975474E+03  0.00000000000E+00 0.  1.
   -9000007    1    1    2    0  501 -0.19017946720E+03  0.38702834329E+02 -0.91288659945E+03  0.10153955301E+04  0.40000000000E+03 0.  1.
<mgrwt>
<rscale>  2 0.44427702E+03</rscale>
<asrwt>0</asrwt>
<pdfrwt beam="1">  1        2 0.23164789E+00 0.44427702E+03</pdfrwt>
<pdfrwt beam="2">  1       -2 0.21882949E-01 0.44427702E+03</pdfrwt>
<totfact> 0.23923674E+02</totfact>
</mgrwt>
</event>
<event>
 6    1  0.8861680E-004  0.5870915E+03  0.7818608E-02  0.9932555E-01
         -2   -1    0    0    0  501 -0.00000000000E+00  0.00000000000E+00  0.15846769618E+03  0.15846769618E+03  0.00000000000E+00 0.  1.
          2   -1    0    0  502    0  0.00000000000E+00 -0.00000000000E+00 -0.22510658206E+04  0.22510658206E+04  0.00000000000E+00 0. -1.
    9000007    2    1    2  502    0 -0.35528638556E+03 -0.24247591885E+03 -0.82441248661E+03  0.10119220547E+04  0.39913319799E+03 0.  0.
    9000005    1    3    3    0    0 -0.21617324846E+03 -0.34478102256E+03 -0.64704889826E+03  0.76438086292E+03  0.99999687468E+00 0.  0.
          4    1    3    3  502    0 -0.13911313710E+03  0.10230510371E+03 -0.17736358835E+03  0.24754119179E+03  0.00000000000E+00 0.  1.
   -9000007    1    1    2    0  501  0.35528638556E+03  0.24247591885E+03 -0.12681856378E+04  0.13976114621E+04  0.40000000000E+03 0. -1.
<mgrwt>
<rscale>  2 0.58709153E+03</rscale>
<asrwt>0</asrwt>
<pdfrwt beam="1">  1        2 0.34631777E+00 0.58709153E+03</pdfrwt>
<pdfrwt beam="2">  1       -2 0.24379649E-01 0.58709153E+03</pdfrwt>
<totfact> 0.76516690E+01</totfact>
</mgrwt>
</event>
<event>
 6    1  0.8861680E-004  0.4455875E+03  0.7818608E-02  0.1029046E+00
         -2   -1    0    0    0  501 -0.00000000000E+00  0.00000000000E+00  0.16402007530E+04  0.16402007530E+04  0.00000000000E+00 0. -1.
          2   -1    0    0  502    0  0.00000000000E+00 -0.00000000000E+00 -0.20618909056E+03  0.20618909056E+03  0.00000000000E+00 0.  1.
    9000007    2    1    2  502    0  0.15644636843E+03 -0.11731284526E+03  0.13105634077E+04  0.13843538693E+04  0.40077602226E+03 0.  0.
    9000005    1    3    3    0    0 -0.11066770147E+03 -0.10506351839E+03  0.72120938680E+03  0.73717681912E+03  0.99999687468E+00 0.  0.
          4    1    3    3  502    0  0.26711406990E+03 -0.12249326863E+02  0.58935402092E+03  0.64717705021E+03  0.00000000000E+00 0.  1.
   -9000007    1    1    2    0  501 -0.15644636843E+03  0.11731284526E+03  0.12344825468E+03  0.46203597419E+03  0.40000000000E+03 0.  1.
<mgrwt>
<rscale>  2 0.44558752E+03</rscale>
<asrwt>0</asrwt>
<pdfrwt beam="1">  1        2 0.31721400E-01 0.44558752E+03</pdfrwt>
<pdfrwt beam="2">  1       -2 0.25233857E+00 0.44558752E+03</pdfrwt>
<totfact> 0.11097316E+01</totfact>
</mgrwt>
</event>
<event>
 6    1  0.8861680E-004  0.5134002E+03  0.7818608E-02  0.1010339E+00
         -1   -1    0    0    0  501 -0.00000000000E+00  0.00000000000E+00  0.67698031070E+03  0.67698031070E+03  0.00000000000E+00 0.  1.
          1   -1    0    0  502    0  0.00000000000E+00 -0.00000000000E+00 -0.41934704513E+03  0.41934704513E+03  0.00000000000E+00 0. -1.
    9000007    2    1    2  502    0  0.24912879615E+03  0.20309556016E+03 -0.17741400108E+02  0.51396649681E+03  0.40066674300E+03 0.  0.
    9000005    1    3    3    0    0 -0.65253739536E+02 -0.60214111057E+02 -0.51235388772E+02  0.10251758264E+03  0.99999687468E+00 0.  0.
          4    1    3    3  502    0  0.31438253568E+03  0.26330967122E+03  0.33493988664E+02  0.41144891417E+03  0.00000000000E+00 0.  1.
   -9000007    1    1    2    0  501 -0.24912879615E+03 -0.20309556016E+03  0.27537466568E+03  0.58236085902E+03  0.40000000000E+03 0.  1.
<mgrwt>
<rscale>  2 0.51340018E+03</rscale>
<asrwt>0</asrwt>
<pdfrwt beam="1">  1        1 0.64514930E-01 0.51340018E+03</pdfrwt>
<pdfrwt beam="2">  1       -1 0.10415082E+00 0.51340018E+03</pdfrwt>
<totfact> 0.51057661E+01</totfact>
</mgrwt>
</event>
<event>
 6    1  0.8861680E-004  0.4023512E+03  0.7818608E-02  0.1042969E+00
         -2   -1    0    0    0  501 -0.00000000000E+00  0.00000000000E+00  0.17182333257E+03  0.17182333257E+03  0.00000000000E+00 0.  1.
          2   -1    0    0  502    0  0.00000000000E+00 -0.00000000000E+00 -0.94547053772E+03  0.94547053772E+03  0.00000000000E+00 0. -1.
    9000007    2    1    2  502    0  0.46242639494E+02  0.58593616676E+00 -0.41953662770E+03  0.58107280946E+03  0.39936938150E+03 0.  0.
    9000005    1    3    3    0    0  0.99397133992E+02 -0.18397063511E+03 -0.19953830183E+03  0.28903549734E+03  0.99999687468E+00 0.  0.
          4    1    3    3  502    0 -0.53154494498E+02  0.18455657127E+03 -0.21999832587E+03  0.29203731212E+03  0.00000000000E+00 0.  1.
   -9000007    1    1    2    0  501 -0.46242639494E+02 -0.58593616676E+00 -0.35411057744E+03  0.53622106084E+03  0.40000000000E+03 0.  1.
<mgrwt>
<rscale>  2 0.40235119E+03</rscale>
<asrwt>0</asrwt>
<pdfrwt beam="1">  1        2 0.14545701E+00 0.40235119E+03</pdfrwt>
<pdfrwt beam="2">  1       -2 0.26434359E-01 0.40235119E+03</pdfrwt>
<totfact> 0.36366692E+02</totfact>
</mgrwt>
</event>
<event>
 6    1  0.8861680E-004  0.4294226E+03  0.7818608E-02  0.1034043E+00
          1   -1    0    0  502    0  0.00000000000E+00  0.00000000000E+00  0.35927640298E+03  0.35927640298E+03  0.00000000000E+00 0. -1.
         -1   -1    0    0    0  501 -0.00000000000E+00 -0.00000000000E+00 -0.61660880909E+03  0.61660880909E+03  0.00000000000E+00 0.  1.
    9000007    2    1    2  502    0  0.13177815025E+03  0.83460418396E+02  0.71072169928E+02  0.43534780552E+03  0.40018162890E+03 0.  0.
    9000005    1    3    3    0    0  0.13901102752E+03 -0.10900358596E+03 -0.76703080247E+02  0.19258818769E+03  0.99999687468E+00 0.  0.
          4    1    3    3  502    0 -0.72328772720E+01  0.19246400435E+03  0.14777525017E+03  0.24275961783E+03  0.00000000000E+00 0.  1.
   -9000007    1    1    2    0  501 -0.13177815025E+03 -0.83460418396E+02 -0.32840457604E+03  0.54053740655E+03  0.40000000000E+03 0.  1.
<mgrwt>
<rscale>  2 0.42942261E+03</rscale>
<asrwt>0</asrwt>
<pdfrwt beam="1">  1        1 0.55273293E-01 0.42942261E+03</pdfrwt>
<pdfrwt beam="2">  1       -1 0.94862893E-01 0.42942261E+03</pdfrwt>
<totfact> 0.77911911E+01</totfact>
</mgrwt>
</event>
<event>
 6    1  0.8861680E-004  0.4749547E+03  0.7818608E-02  0.1020531E+00
         -1   -1    0    0    0  501 -0.00000000000E+00  0.00000000000E+00  0.21477525763E+03  0.21477525763E+03  0.00000000000E+00 0. -1.
          1   -1    0    0  502    0  0.00000000000E+00 -0.00000000000E+00 -0.10586031415E+04  0.10586031415E+04  0.00000000000E+00 0.  1.
    9000007    2    1    2  502    0 -0.17030373499E+03 -0.19024677357E+03 -0.47860095294E+03  0.67455629860E+03  0.40096150791E+03 0.  0.
    9000005    1    3    3    0    0 -0.12830764563E+03 -0.83889975451E+01  0.30642904174E+02  0.13218628816E+03  0.99999687468E+00 0.  0.
          4    1    3    3  502    0 -0.41996089355E+02 -0.18185777603E+03 -0.50924385711E+03  0.54237001044E+03  0.00000000000E+00 0.  1.
   -9000007    1    1    2    0  501  0.17030373499E+03  0.19024677357E+03 -0.36522693096E+03  0.59882210055E+03  0.40000000000E+03 0.  1.
<mgrwt>
<rscale>  2 0.47495466E+03</rscale>
<asrwt>0</asrwt>
<pdfrwt beam="1">  1        1 0.16286202E+00 0.47495466E+03</pdfrwt>
<pdfrwt beam="2">  1       -1 0.33042348E-01 0.47495466E+03</pdfrwt>
<totfact> 0.12254413E+02</totfact>
</mgrwt>
</event>
<event>
 6    1  0.8861680E-004  0.4211278E+03  0.7818608E-02  0.1036700E+00
         -2   -1    0    0    0  501 -0.00000000000E+00  0.00000000000E+00  0.32367229270E+03  0.32367229270E+03  0.00000000000E+00 0. -1.
          2   -1    0    0  502    0  0.00000000000E+00 -0.00000000000E+00 -0.58152262985E+03  0.58152262985E+03  0.00000000000E+00 0.  1.
    9000007    2    1    2  502    0 -0.91142613580E+02  0.93768771123E+02 -0.20224809184E+02  0.42190882717E+03  0.40062258685E+03 0.  0.
    9000005    1    3    3    0    0 -0.13063195437E+03  0.18826165088E+03  0.11168110587E+03  0.25491336979E+03  0.99999687468E+00 0.  0.
          4    1    3    3  502    0  0.39489340790E+02 -0.94492879761E+02 -0.13190591505E+03  0.16699545738E+03  0.00000000000E+00 0.  1.
   -9000007    1    1    2    0  501  0.91142613580E+02 -0.93768771123E+02 -0.23762552796E+03  0.48328609538E+03  0.40000000000E+03 0.  1.
<mgrwt>
<rscale>  2 0.42112779E+03</rscale>
<asrwt>0</asrwt>
<pdfrwt beam="1">  1        2 0.89465019E-01 0.42112779E+03</pdfrwt>
<pdfrwt beam="2">  1       -2 0.49795738E-01 0.42112779E+03</pdfrwt>
<totfact> 0.20204201E+02</totfact>
</mgrwt>
</event>
<event>
 6    1  0.8861680E-004  0.4109072E+03  0.7818608E-02  0.1040067E+00
          1   -1    0    0  502    0  0.00000000000E+00  0.00000000000E+00  0.17378103337E+04  0.17378103337E+04  0.00000000000E+00 0.  1.
         -1   -1    0    0    0  501 -0.00000000000E+00 -0.00000000000E+00 -0.10164233379E+03  0.10164233379E+03  0.00000000000E+00 0. -1.
    9000007    2    1    2  502    0  0.51918686573E+02 -0.95457534036E+02  0.10042684702E+04  0.10837379683E+04  0.39258773931E+03 0.  0.
    9000005    1    3    3    0    0 -0.10101518654E+02 -0.64180445035E+02 -0.11165926398E+02  0.65930631046E+02  0.99999687468E+00 0.  0.
          4    1    3    3  502    0  0.62020205228E+02 -0.31277089001E+02  0.10154343965E+04  0.10178073373E+04  0.00000000000E+00 0.  1.
   -9000007    1    1    2    0  501 -0.51918686573E+02  0.95457534036E+02  0.63189952979E+03  0.75571469919E+03  0.40000000000E+03 0. -1.
<mgrwt>
<rscale>  2 0.41090718E+03</rscale>
<asrwt>0</asrwt>
<pdfrwt beam="1">  1        1 0.26735541E+00 0.41090718E+03</pdfrwt>
<pdfrwt beam="2">  1       -1 0.15637283E-01 0.41090718E+03</pdfrwt>
<totfact> 0.14700044E+02</totfact>
</mgrwt>
</event>
<event>
 6    1  0.8861680E-004  0.5301978E+03  0.7818608E-02  0.1006184E+00
          2   -1    0    0  502    0  0.00000000000E+00  0.00000000000E+00  0.20233318340E+04  0.20233318340E+04  0.00000000000E+00 0.  1.
         -2   -1    0    0    0  501 -0.00000000000E+00 -0.00000000000E+00 -0.14203665940E+03  0.14203665940E+03  0.00000000000E+00 0. -1.
    9000007    2    1    2  502    0 -0.89038895868E+02 -0.33649744334E+03  0.78055169062E+03  0.94356872589E+03  0.39987816196E+03 0.  0.
    9000005    1    3    3    0    0 -0.14932044237E+03 -0.29676642385E+03  0.27044663024E+03  0.42837983687E+03  0.99999687468E+00 0.  0.
          4    1    3    3  502    0  0.60281546499E+02 -0.39731019490E+02  0.51010506037E+03  0.51518888902E+03  0.00000000000E+00 0.  1.
   -9000007    1    1    2    0  501  0.89038895868E+02  0.33649744334E+03  0.11007434840E+04  0.12217997675E+04  0.40000000000E+03 0.  1.
<mgrwt>
<rscale>  2 0.53019781E+03</rscale>
<asrwt>0</asrwt>
<pdfrwt beam="1">  1        2 0.31128180E+00 0.53019781E+03</pdfrwt>
<pdfrwt beam="2">  1       -2 0.21851795E-01 0.53019781E+03</pdfrwt>
<totfact> 0.12464928E+02</totfact>
</mgrwt>
</event>
<event>
 6    1  0.8861680E-004  0.5436057E+03  0.7818608E-02  0.1002985E+00
         -1   -1    0    0    0  501 -0.00000000000E+00  0.00000000000E+00  0.28940881892E+03  0.28940881892E+03  0.00000000000E+00 0.  1.
          1   -1    0    0  502    0  0.00000000000E+00 -0.00000000000E+00 -0.11164726181E+04  0.11164726181E+04  0.00000000000E+00 0. -1.
    9000007    2    1    2  502    0  0.24452287456E+03 -0.27577838002E+03 -0.61879583151E+03  0.82345487731E+03  0.39915473541E+03 0.  0.
    9000005    1    3    3    0    0  0.15620204496E+03 -0.30367733061E+03 -0.64270360352E+03  0.72779662128E+03  0.99999687468E+00 0.  0.
          4    1    3    3  502    0  0.88320829599E+02  0.27898950593E+02  0.23907772003E+02  0.95658256034E+02  0.00000000000E+00 0.  1.
   -9000007    1    1    2    0  501 -0.24452287456E+03  0.27577838002E+03 -0.20826796762E+03  0.58242655966E+03  0.40000000000E+03 0.  1.
<mgrwt>
<rscale>  2 0.54360575E+03</rscale>
<asrwt>0</asrwt>
<pdfrwt beam="1">  1        1 0.17176502E+00 0.54360575E+03</pdfrwt>
<pdfrwt beam="2">  1       -1 0.44524434E-01 0.54360575E+03</pdfrwt>
<totfact> 0.64452862E+01</totfact>
</mgrwt>
</event>
<event>
 6    1  0.8861680E-004  0.4033706E+03  0.7818608E-02  0.1042619E+00
          2   -1    0    0  502    0  0.00000000000E+00  0.00000000000E+00  0.11427673724E+04  0.11427673724E+04  0.00000000000E+00 0.  1.
         -2   -1    0    0    0  501 -0.00000000000E+00 -0.00000000000E+00 -0.14283117758E+03  0.14283117758E+03  0.00000000000E+00 0. -1.
    9000007    2    1    2  502    0 -0.54740756985E+02  0.75499400535E+00  0.46342389654E+03  0.61415043829E+03  0.39927676176E+03 0.  0.
    9000005    1    3    3    0    0 -0.59959472536E+02  0.95798489422E+02 -0.25654783949E+02  0.11589502515E+03  0.99999687468E+00 0.  0.
          4    1    3    3  502    0  0.52187155509E+01 -0.95043495417E+02  0.48907868049E+03  0.49825541314E+03  0.00000000000E+00 0.  1.
   -9000007    1    1    2    0  501  0.54740756985E+02 -0.75499400535E+00  0.53651229828E+03  0.67144811170E+03  0.40000000000E+03 0.  1.
<mgrwt>
<rscale>  2 0.40337059E+03</rscale>
<asrwt>0</asrwt>
<pdfrwt beam="1">  1        2 0.17581036E+00 0.40337059E+03</pdfrwt>
<pdfrwt beam="2">  1       -2 0.21974028E-01 0.40337059E+03</pdfrwt>
<totfact> 0.38211569E+02</totfact>
</mgrwt>
</event>
<event>
 6    1  0.8861680E-004  0.4140103E+03  0.7818608E-02  0.1039034E+00
          1   -1    0    0  502    0  0.00000000000E+00  0.00000000000E+00  0.43097471518E+03  0.43097471518E+03  0.00000000000E+00 0. -1.
         -1   -1    0    0    0  501 -0.00000000000E+00 -0.00000000000E+00 -0.44397841448E+03  0.44397841448E+03  0.00000000000E+00 0.  1.
    9000007    2    1    2  502    0  0.49968964896E+02  0.90547804044E+02  0.13470414195E+03  0.43618963000E+03  0.40177155846E+03 0.  0.
    9000005    1    3    3    0    0  0.68659867100E+02  0.23794649161E+03  0.14547217187E+03  0.28722093064E+03  0.99999687468E+00 0.  0.
          4    1    3    3  502    0 -0.18690902204E+02 -0.14739868756E+03 -0.10768029916E+02  0.14896869936E+03  0.00000000000E+00 0.  1.
   -9000007    1    1    2    0  501 -0.49968964896E+02 -0.90547804044E+02 -0.14770784125E+03  0.43876349966E+03  0.40000000000E+03 0.  1.
<mgrwt>
<rscale>  2 0.41401029E+03</rscale>
<asrwt>0</asrwt>
<pdfrwt beam="1">  1        1 0.66303802E-01 0.41401029E+03</pdfrwt>
<pdfrwt beam="2">  1       -1 0.68304372E-01 0.41401029E+03</pdfrwt>
<totfact> 0.12293527E+02</totfact>
</mgrwt>
</event>
<event>
 6    1  0.8861680E-004  0.4440626E+03  0.7818608E-02  0.1029508E+00
         -4   -1    0    0    0  501 -0.00000000000E+00  0.00000000000E+00  0.72598257526E+03  0.72598257526E+03  0.00000000000E+00 0. -1.
          4   -1    0    0  502    0  0.00000000000E+00 -0.00000000000E+00 -0.51050505795E+03  0.51050505795E+03  0.00000000000E+00 0.  1.
    9000007    2    1    2  502    0 -0.15007657492E+03 -0.12084154305E+03 -0.31516748084E+03  0.54459907937E+03  0.40016491526E+03 0.  0.
    9000005    1    3    3    0    0  0.46029637326E+02 -0.21237253438E+03 -0.99266549599E+02  0.23890514589E+03  0.99999687468E+00 0.  0.
          4    1    3    3  502    0 -0.19610621224E+03  0.91530991328E+02 -0.21590093124E+03  0.30569393348E+03  0.00000000000E+00 0.  1.
   -9000007    1    1    2    0  501  0.15007657492E+03  0.12084154305E+03  0.53064499815E+03  0.69188855384E+03  0.40000000000E+03 0. -1.
<mgrwt>
<rscale>  2 0.44406264E+03</rscale>
<asrwt>0</asrwt>
<pdfrwt beam="1">  1        4 0.78539240E-01 0.44406264E+03</pdfrwt>
<pdfrwt beam="2">  1       -4 0.11168963E+00 0.44406264E+03</pdfrwt>
<totfact> 0.17783356E+00</totfact>
</mgrwt>
</event>
<event>
 6    1  0.8861680E-004  0.5376349E+03  0.7818608E-02  0.1004397E+00
         -2   -1    0    0    0  501 -0.00000000000E+00  0.00000000000E+00  0.12533486876E+03  0.12533486876E+03  0.00000000000E+00 0. -1.
          2   -1    0    0  502    0  0.00000000000E+00 -0.00000000000E+00 -0.23726081161E+04  0.23726081161E+04  0.00000000000E+00 0.  1.
    9000007    2    1    2  502    0  0.15624731317E+03  0.32356410716E+03 -0.13324351814E+04  0.14367947195E+04  0.39986072433E+03 0.  0.
    9000005    1    3    3    0    0 -0.10944447617E+03  0.10260951057E+03 -0.18353114001E+03  0.23704743064E+03  0.99999687468E+00 0.  0.
          4    1    3    3  502    0  0.26569178934E+03  0.22095459658E+03 -0.11489040414E+04  0.11997472888E+04  0.00000000000E+00 0.  1.
   -9000007    1    1    2    0  501 -0.15624731317E+03 -0.32356410716E+03 -0.91483806588E+03  0.10611482654E+04  0.40000000000E+03 0. -1.
<mgrwt>
<rscale>  2 0.53763487E+03</rscale>
<asrwt>0</asrwt>
<pdfrwt beam="1">  1        2 0.36501664E+00 0.53763487E+03</pdfrwt>
<pdfrwt beam="2">  1       -2 0.19282287E-01 0.53763487E+03</pdfrwt>
<totfact> 0.99884195E+01</totfact>
</mgrwt>
</event>
<event>
 6    1  0.8861680E-004  0.4449138E+03  0.7818608E-02  0.1029250E+00
          2   -1    0    0  502    0  0.00000000000E+00  0.00000000000E+00  0.13268729335E+04  0.13268729335E+04  0.00000000000E+00 0. -1.
         -2   -1    0    0    0  501 -0.00000000000E+00 -0.00000000000E+00 -0.19673804726E+03  0.19673804726E+03  0.00000000000E+00 0.  1.
    9000007    2    1    2  502    0 -0.18133618064E+03 -0.69908314708E+02  0.93979618589E+03  0.10398767523E+04  0.40044575934E+03 0.  0.
    9000005    1    3    3    0    0 -0.21243303585E+03 -0.11294510425E+03  0.95484451064E+03  0.98468950984E+03  0.99999687468E+00 0.  0.
          4    1    3    3  502    0  0.31096855210E+02  0.43036789539E+02 -0.15048324747E+02  0.55187242507E+02  0.00000000000E+00 0.  1.
   -9000007    1    1    2    0  501  0.18133618064E+03  0.69908314708E+02  0.19033870033E+03  0.48373422839E+03  0.40000000000E+03 0.  1.
<mgrwt>
<rscale>  2 0.44491382E+03</rscale>
<asrwt>0</asrwt>
<pdfrwt beam="1">  1        2 0.20413429E+00 0.44491382E+03</pdfrwt>
<pdfrwt beam="2">  1       -2 0.30267393E-01 0.44491382E+03</pdfrwt>
<totfact> 0.16776498E+02</totfact>
</mgrwt>
</event>
<event>
 6    1  0.8861680E-004  0.4742244E+03  0.7818608E-02  0.1020735E+00
         -1   -1    0    0    0  501 -0.00000000000E+00  0.00000000000E+00  0.34544768711E+03  0.34544768711E+03  0.00000000000E+00 0.  1.
          1   -1    0    0  502    0  0.00000000000E+00 -0.00000000000E+00 -0.13716073595E+04  0.13716073595E+04  0.00000000000E+00 0. -1.
    9000007    2    1    2  502    0  0.24642458958E+03 -0.63943441119E+02  0.10916077186E+03  0.48670292094E+03  0.40018722760E+03 0.  0.
    9000005    1    3    3    0    0 -0.47516428173E+02 -0.25782228077E+02 -0.10697418550E+03  0.11986246531E+03  0.99999687468E+00 0.  0.
          4    1    3    3  502    0  0.29394101775E+03 -0.38161213042E+02  0.21613495737E+03  0.36684045564E+03  0.00000000000E+00 0.  1.
   -9000007    1    1    2    0  501 -0.24642458958E+03  0.63943441119E+02 -0.11353204442E+04  0.12303521257E+04  0.40000000000E+03 0. -1.
<mgrwt>
<rscale>  2 0.47422435E+03</rscale>
<asrwt>0</asrwt>
<pdfrwt beam="1">  1        1 0.21101652E+00 0.47422435E+03</pdfrwt>
<pdfrwt beam="2">  1       -1 0.53145797E-01 0.47422435E+03</pdfrwt>
<totfact> 0.30858523E+01</totfact>
</mgrwt>
</event>
<event>
 6    1  0.8861680E-004  0.4507021E+03  0.7818608E-02  0.1027513E+00
         -2   -1    0    0    0  501 -0.00000000000E+00  0.00000000000E+00  0.22684588382E+03  0.22684588382E+03  0.00000000000E+00 0.  1.
          2   -1    0    0  502    0  0.00000000000E+00 -0.00000000000E+00 -0.96379615359E+03  0.96379615359E+03  0.00000000000E+00 0. -1.
    9000007    2    1    2  502    0  0.17934794847E+03  0.10641524966E+03 -0.52668820991E+03  0.69294732597E+03  0.39910604372E+03 0.  0.
    9000005    1    3    3    0    0  0.57206873141E+02  0.24512275192E+03 -0.21716926714E+03  0.33244741002E+03  0.99999687468E+00 0.  0.
          4    1    3    3  502    0  0.12214107532E+03 -0.13870750226E+03 -0.30951894277E+03  0.36049991595E+03  0.00000000000E+00 0.  1.
   -9000007    1    1    2    0  501 -0.17934794847E+03 -0.10641524966E+03 -0.21026205986E+03  0.49769471144E+03  0.40000000000E+03 0.  1.
<mgrwt>
<rscale>  2 0.45070211E+03</rscale>
<asrwt>0</asrwt>
<pdfrwt beam="1">  1        2 0.14827634E+00 0.45070211E+03</pdfrwt>
<pdfrwt beam="2">  1       -2 0.34899366E-01 0.45070211E+03</pdfrwt>
<totfact> 0.21128655E+02</totfact>
</mgrwt>
</event>
<event>
 6    1  0.8861680E-004  0.5590723E+03  0.7818608E-02  0.9994156E-01
         -2   -1    0    0    0  501 -0.00000000000E+00  0.00000000000E+00  0.13694142008E+03  0.13694142008E+03  0.00000000000E+00 0. -1.
          2   -1    0    0  502    0  0.00000000000E+00 -0.00000000000E+00 -0.23127615881E+04  0.23127615881E+04  0.00000000000E+00 0.  1.
    9000007    2    1    2  502    0 -0.21825448310E+03  0.32416197743E+03 -0.12278705929E+04  0.13491011710E+04  0.39961452638E+03 0.  0.
    9000005    1    3    3    0    0 -0.14420692145E+03  0.40596192646E+03 -0.81645724756E+03  0.92314904485E+03  0.99999687468E+00 0.  0.
          4    1    3    3  502    0 -0.74047561659E+02 -0.81799949033E+02 -0.41141334534E+03  0.42595212615E+03  0.00000000000E+00 0.  1.
   -9000007    1    1    2    0  501  0.21825448310E+03 -0.32416197743E+03 -0.94794957513E+03  0.11006018372E+04  0.40000000000E+03 0. -1.
<mgrwt>
<rscale>  2 0.55907232E+03</rscale>
<asrwt>0</asrwt>
<pdfrwt beam="1">  1        2 0.35580943E+00 0.55907232E+03</pdfrwt>
<pdfrwt beam="2">  1       -2 0.21067913E-01 0.55907232E+03</pdfrwt>
<totfact> 0.92052171E+01</totfact>
</mgrwt>
</event>
<event>
 6    1  0.8861680E-004  0.4049012E+03  0.7818608E-02  0.1042096E+00
         -2   -1    0    0    0  501 -0.00000000000E+00  0.00000000000E+00  0.46289801893E+03  0.46289801893E+03  0.00000000000E+00 0. -1.
          2   -1    0    0  502    0  0.00000000000E+00 -0.00000000000E+00 -0.35616580542E+03  0.35616580542E+03  0.00000000000E+00 0.  1.
    9000007    2    1    2  502    0  0.44931430188E+02 -0.45019598614E+02  0.83999573968E+02  0.41340094636E+03  0.39974844133E+03 0.  0.
    9000005    1    3    3    0    0  0.52167738104E+02  0.60919146932E+02  0.22386129957E+03  0.23779717576E+03  0.99999687468E+00 0.  0.
          4    1    3    3  502    0 -0.72363079168E+01 -0.10593874555E+03 -0.13986172560E+03  0.17560377060E+03  0.00000000000E+00 0.  1.
   -9000007    1    1    2    0  501 -0.44931430188E+02  0.45019598614E+02  0.22732639540E+02  0.40566287799E+03  0.40000000000E+03 0.  1.
<mgrwt>
<rscale>  2 0.40490119E+03</rscale>
<asrwt>0</asrwt>
<pdfrwt beam="1">  1        2 0.54794739E-01 0.40490119E+03</pdfrwt>
<pdfrwt beam="2">  1       -2 0.71215080E-01 0.40490119E+03</pdfrwt>
<totfact> 0.16647521E+02</totfact>
</mgrwt>
</event>
<event>
 6    1  0.8861680E-004  0.4400675E+03  0.7818608E-02  0.1030726E+00
          2   -1    0    0  502    0  0.00000000000E+00  0.00000000000E+00  0.20081552549E+04  0.20081552549E+04  0.00000000000E+00 0. -1.
         -2   -1    0    0    0  501 -0.00000000000E+00 -0.00000000000E+00 -0.10282441174E+03  0.10282441174E+03  0.00000000000E+00 0.  1.
    9000007    2    1    2  502    0  0.12682123182E+03  0.13263681042E+03  0.12157056539E+04  0.12928971219E+04  0.39995822609E+03 0.  0.
    9000005    1    3    3    0    0  0.17340716119E+02  0.25399985551E+03  0.92496066139E+03  0.95935908405E+03  0.99999687468E+00 0.  0.
          4    1    3    3  502    0  0.10948051570E+03 -0.12136304509E+03  0.29074499247E+03  0.33353803783E+03  0.00000000000E+00 0.  1.
   -9000007    1    1    2    0  501 -0.12682123182E+03 -0.13263681042E+03  0.68962518926E+03  0.81808254472E+03  0.40000000000E+03 0.  1.
<mgrwt>
<rscale>  2 0.44006754E+03</rscale>
<asrwt>0</asrwt>
<pdfrwt beam="1">  1        2 0.30894693E+00 0.44006754E+03</pdfrwt>
<pdfrwt beam="2">  1       -2 0.15819142E-01 0.44006754E+03</pdfrwt>
<totfact> 0.22441287E+02</totfact>
</mgrwt>
</event>
<event>
 6    1  0.8861680E-004  0.4476715E+03  0.7818608E-02  0.1028419E+00
         -2   -1    0    0    0  501 -0.00000000000E+00  0.00000000000E+00  0.18588620994E+03  0.18588620994E+03  0.00000000000E+00 0.  1.
          2   -1    0    0  502    0  0.00000000000E+00 -0.00000000000E+00 -0.11244216032E+04  0.11244216032E+04  0.00000000000E+00 0. -1.
    9000007    2    1    2  502    0  0.17993950390E+03  0.90028984309E+02 -0.33625471836E+03  0.55982433267E+03  0.39981571348E+03 0.  0.
    9000005    1    3    3    0    0  0.14103259431E+03  0.20446637137E+03 -0.35927687986E+03  0.43678091313E+03  0.99999687468E+00 0.  0.
          4    1    3    3  502    0  0.38906909591E+02 -0.11443738706E+03  0.23022161503E+02  0.12304341953E+03  0.00000000000E+00 0.  1.
   -9000007    1    1    2    0  501 -0.17993950390E+03 -0.90028984309E+02 -0.60228067486E+03  0.75048348042E+03  0.40000000000E+03 0. -1.
<mgrwt>
<rscale>  2 0.44767146E+03</rscale>
<asrwt>0</asrwt>
<pdfrwt beam="1">  1        2 0.17298793E+00 0.44767146E+03</pdfrwt>
<pdfrwt beam="2">  1       -2 0.28597879E-01 0.44767146E+03</pdfrwt>
<totfact> 0.24361294E+02</totfact>
</mgrwt>
</event>
<event>
 6    1  0.8861680E-004  0.5238393E+03  0.7818608E-02  0.1007737E+00
          2   -1    0    0  502    0  0.00000000000E+00  0.00000000000E+00  0.32776379768E+04  0.32776379768E+04  0.00000000000E+00 0.  1.
         -2   -1    0    0    0  501 -0.00000000000E+00 -0.00000000000E+00 -0.84944956194E+02  0.84944956194E+02  0.00000000000E+00 0. -1.
    9000007    2    1    2  502    0 -0.16170969131E+03  0.29711020459E+03  0.17981022436E+04  0.18728487509E+04  0.39995783209E+03 0.  0.
    9000005    1    3    3    0    0 -0.10858498382E+03 -0.76118447541E+02  0.29931326807E+03  0.32737463127E+03  0.99999687468E+00 0.  0.
          4    1    3    3  502    0 -0.53124707490E+02  0.37322865213E+03  0.14987889756E+04  0.15454741197E+04  0.00000000000E+00 0.  1.
   -9000007    1    1    2    0  501  0.16170969131E+03 -0.29711020459E+03  0.13945907770E+04  0.14897341821E+04  0.40000000000E+03 0. -1.
<mgrwt>
<rscale>  2 0.52383932E+03</rscale>
<asrwt>0</asrwt>
<pdfrwt beam="1">  1        2 0.50425190E+00 0.52383932E+03</pdfrwt>
<pdfrwt beam="2">  1       -2 0.13068457E-01 0.52383932E+03</pdfrwt>
<totfact> 0.56507204E+01</totfact>
</mgrwt>
</event>
<event>
 6    1  0.8861680E-004  0.5665668E+03  0.7818608E-02  0.9977305E-01
          2   -1    0    0  502    0  0.00000000000E+00  0.00000000000E+00  0.11925755589E+04  0.11925755589E+04  0.00000000000E+00 0.  1.
         -2   -1    0    0    0  501 -0.00000000000E+00 -0.00000000000E+00 -0.27683630964E+03  0.27683630964E+03  0.00000000000E+00 0. -1.
    9000007    2    1    2  502    0  0.33625529285E+03  0.21782512109E+03  0.58051718766E+03  0.81146868260E+03  0.40120544901E+03 0.  0.
    9000005    1    3    3    0    0  0.19061183946E+03 -0.63105152550E+02  0.73524231555E+02  0.21382690720E+03  0.99999687468E+00 0.  0.
          4    1    3    3  502    0  0.14564345339E+03  0.28093027364E+03  0.50699295610E+03  0.59764177540E+03  0.00000000000E+00 0.  1.
   -9000007    1    1    2    0  501 -0.33625529285E+03 -0.21782512109E+03  0.33522206163E+03  0.65794318596E+03  0.40000000000E+03 0.  1.
<mgrwt>
<rscale>  2 0.56656681E+03</rscale>
<asrwt>0</asrwt>
<pdfrwt beam="1">  1        2 0.18347316E+00 0.56656681E+03</pdfrwt>
<pdfrwt beam="2">  1       -2 0.42590202E-01 0.56656681E+03</pdfrwt>
<totfact> 0.10322117E+02</totfact>
</mgrwt>
</event>
<event>
 6    1  0.8861680E-004  0.4145232E+03  0.7818608E-02  0.1038864E+00
         -2   -1    0    0    0  501 -0.00000000000E+00  0.00000000000E+00  0.73141420523E+02  0.73141420523E+02  0.00000000000E+00 0. -1.
          2   -1    0    0  502    0  0.00000000000E+00 -0.00000000000E+00 -0.24783421703E+04  0.24783421703E+04  0.00000000000E+00 0.  1.
    9000007    2    1    2  502    0 -0.10835220926E+03  0.73127769676E+01 -0.14938482833E+04  0.15503057864E+04  0.40008956472E+03 0.  0.
    9000005    1    3    3    0    0  0.72259579347E+02 -0.14821287329E+03 -0.44107871699E+03  0.47089270242E+03  0.99999687468E+00 0.  0.
          4    1    3    3  502    0 -0.18061178860E+03  0.15552565026E+03 -0.10527695663E+04  0.10794130840E+04  0.00000000000E+00 0.  1.
   -9000007    1    1    2    0  501  0.10835220926E+03 -0.73127769676E+01 -0.91135246646E+03  0.10011778044E+04  0.40000000000E+03 0. -1.
<mgrwt>
<rscale>  2 0.41452323E+03</rscale>
<asrwt>0</asrwt>
<pdfrwt beam="1">  1        2 0.38128341E+00 0.41452323E+03</pdfrwt>
<pdfrwt beam="2">  1       -2 0.11252526E-01 0.41452323E+03</pdfrwt>
<totfact> 0.21977897E+02</totfact>
</mgrwt>
</event>
<event>
 6    1  0.8861680E-004  0.4057978E+03  0.7818608E-02  0.1041790E+00
          1   -1    0    0  502    0  0.00000000000E+00  0.00000000000E+00  0.28464137381E+03  0.28464137381E+03  0.00000000000E+00 0. -1.
         -1   -1    0    0    0  501 -0.00000000000E+00 -0.00000000000E+00 -0.68083819488E+03  0.68083819488E+03  0.00000000000E+00 0.  1.
    9000007    2    1    2  502    0  0.19163738419E+02  0.64413923361E+02 -0.38531458234E+03  0.55972739617E+03  0.40038859657E+03 0.  0.
    9000005    1    3    3    0    0  0.65926683152E+02  0.19520758412E+03 -0.74168622715E+02  0.21898473243E+03  0.99999687468E+00 0.  0.
          4    1    3    3  502    0 -0.46762944733E+02 -0.13079366076E+03 -0.31114595963E+03  0.34074266373E+03  0.00000000000E+00 0.  1.
   -9000007    1    1    2    0  501 -0.19163738419E+02 -0.64413923361E+02 -0.10882238727E+02  0.40575217253E+03  0.40000000000E+03 0. -1.
<mgrwt>
<rscale>  2 0.40579779E+03</rscale>
<asrwt>0</asrwt>
<pdfrwt beam="1">  1        1 0.43790980E-01 0.40579779E+03</pdfrwt>
<pdfrwt beam="2">  1       -1 0.10474434E+00 0.40579779E+03</pdfrwt>
<totfact> 0.84270141E+01</totfact>
</mgrwt>
</event>
<event>
 6    1  0.8861680E-004  0.4337867E+03  0.7818608E-02  0.1032670E+00
          2   -1    0    0  502    0  0.00000000000E+00  0.00000000000E+00  0.12773966093E+04  0.12773966093E+04  0.00000000000E+00 0. -1.
         -2   -1    0    0    0  501 -0.00000000000E+00 -0.00000000000E+00 -0.20511733777E+03  0.20511733777E+03  0.00000000000E+00 0.  1.
    9000007    2    1    2  502    0  0.21119210115E+01  0.16829871119E+03  0.14245869775E+03  0.45640712232E+03  0.39960488528E+03 0.  0.
    9000005    1    3    3    0    0 -0.12678699829E+03  0.36152807585E+02  0.21975894342E+03  0.25627516781E+03  0.99999687468E+00 0.  0.
          4    1    3    3  502    0  0.12889891930E+03  0.13214590360E+03 -0.77300245667E+02  0.20013195451E+03  0.00000000000E+00 0.  1.
   -9000007    1    1    2    0  501 -0.21119210115E+01 -0.16829871119E+03  0.92982057381E+03  0.10261068248E+04  0.40000000000E+03 0. -1.
<mgrwt>
<rscale>  2 0.43378668E+03</rscale>
<asrwt>0</asrwt>
<pdfrwt beam="1">  1        2 0.19652255E+00 0.43378668E+03</pdfrwt>
<pdfrwt beam="2">  1       -2 0.31556514E-01 0.43378668E+03</pdfrwt>
<totfact> 0.16588094E+02</totfact>
</mgrwt>
</event>
<event>
 6    1  0.8861680E-004  0.4439532E+03  0.7818608E-02  0.1029541E+00
          2   -1    0    0  502    0  0.00000000000E+00  0.00000000000E+00  0.12448148042E+04  0.12448148042E+04  0.00000000000E+00 0.  1.
         -2   -1    0    0    0  501 -0.00000000000E+00 -0.00000000000E+00 -0.16347851907E+03  0.16347851907E+03  0.00000000000E+00 0. -1.
    9000007    2    1    2  502    0 -0.12660995803E+03  0.14523664056E+03  0.66556192384E+03  0.80002357821E+03  0.39992660327E+03 0.  0.
    9000005    1    3    3    0    0 -0.19946644772E+03  0.17904907032E+03  0.66789057236E+03  0.71966954222E+03  0.99999687468E+00 0.  0.
          4    1    3    3  502    0  0.72856489691E+02 -0.33812429765E+02 -0.23286485266E+01  0.80354035995E+02  0.00000000000E+00 0.  1.
   -9000007    1    1    2    0  501  0.12660995803E+03 -0.14523664056E+03  0.41577436126E+03  0.60826974502E+03  0.40000000000E+03 0. -1.
<mgrwt>
<rscale>  2 0.44395316E+03</rscale>
<asrwt>0</asrwt>
<pdfrwt beam="1">  1        2 0.19150996E+00 0.44395316E+03</pdfrwt>
<pdfrwt beam="2">  1       -2 0.25150542E-01 0.44395316E+03</pdfrwt>
<totfact> 0.26144465E+02</totfact>
</mgrwt>
</event>
<event>
 6    1  0.8861680E-004  0.4079162E+03  0.7818608E-02  0.1041073E+00
         -2   -1    0    0    0  501 -0.00000000000E+00  0.00000000000E+00  0.71212820644E+02  0.71212820644E+02  0.00000000000E+00 0.  1.
          2   -1    0    0  502    0  0.00000000000E+00 -0.00000000000E+00 -0.24217145978E+04  0.24217145978E+04  0.00000000000E+00 0. -1.
    9000007    2    1    2  502    0  0.71903082889E+02 -0.30372506831E+02 -0.94260277928E+03  0.10272289055E+04  0.40075763545E+03 0.  0.
    9000005    1    3    3    0    0  0.32240940005E+02 -0.12180987299E+03 -0.91523816955E+03  0.92387176078E+03  0.99999687468E+00 0.  0.
          4    1    3    3  502    0  0.39662142884E+02  0.91437366155E+02 -0.27364609726E+02  0.10335714476E+03  0.00000000000E+00 0.  1.
   -9000007    1    1    2    0  501 -0.71903082889E+02  0.30372506831E+02 -0.14078989979E+04  0.14656985129E+04  0.40000000000E+03 0. -1.
<mgrwt>
<rscale>  2 0.40791618E+03</rscale>
<asrwt>0</asrwt>
<pdfrwt beam="1">  1        2 0.37257147E+00 0.40791618E+03</pdfrwt>
<pdfrwt beam="2">  1       -2 0.10955819E-01 0.40791618E+03</pdfrwt>
<totfact> 0.24697476E+02</totfact>
</mgrwt>
</event>
<event>
 6    1  0.8861680E-004  0.4579187E+03  0.7818608E-02  0.1025387E+00
          2   -1    0    0  502    0  0.00000000000E+00  0.00000000000E+00  0.42173405261E+03  0.42173405261E+03  0.00000000000E+00 0. -1.
         -2   -1    0    0    0  501 -0.00000000000E+00 -0.00000000000E+00 -0.91667201520E+03  0.91667201520E+03  0.00000000000E+00 0.  1.
    9000007    2    1    2  502    0  0.20617418035E+03 -0.83076691421E+02  0.20512841174E+03  0.50204343248E+03  0.40069990453E+03 0.  0.
    9000005    1    3    3    0    0  0.96499290608E+02 -0.22364869286E+03  0.19036458575E+02  0.24432404232E+03  0.99999687468E+00 0.  0.
          4    1    3    3  502    0  0.10967488974E+03  0.14057200144E+03  0.18609195317E+03  0.25771939016E+03  0.00000000000E+00 0.  1.
   -9000007    1    1    2    0  501 -0.20617418035E+03  0.83076691421E+02 -0.70006637433E+03  0.83636263533E+03  0.40000000000E+03 0.  1.
<mgrwt>
<rscale>  2 0.45791871E+03</rscale>
<asrwt>0</asrwt>
<pdfrwt beam="1">  1        2 0.64882163E-01 0.45791871E+03</pdfrwt>
<pdfrwt beam="2">  1       -2 0.14102646E+00 0.45791871E+03</pdfrwt>
<totfact> 0.27490066E+01</totfact>
</mgrwt>
</event>
<event>
 6    1  0.8861680E-004  0.5117748E+03  0.7818608E-02  0.1010750E+00
          2   -1    0    0  502    0  0.00000000000E+00  0.00000000000E+00  0.81328280195E+03  0.81328280195E+03  0.00000000000E+00 0. -1.
         -2   -1    0    0    0  501 -0.00000000000E+00 -0.00000000000E+00 -0.64318261928E+03  0.64318261928E+03  0.00000000000E+00 0.  1.
    9000007    2    1    2  502    0 -0.28428598778E+03 -0.14547397193E+03 -0.42953058698E+03  0.66808844334E+03  0.39983051861E+03 0.  0.
    9000005    1    3    3    0    0 -0.87535843749E+02 -0.66616207073E+02  0.66585756968E+02  0.12858812546E+03  0.99999687468E+00 0.  0.
          4    1    3    3  502    0 -0.19675014403E+03 -0.78857764861E+02 -0.49611634394E+03  0.53950031787E+03  0.00000000000E+00 0.  1.
   -9000007    1    1    2    0  501  0.28428598778E+03  0.14547397193E+03  0.59963076965E+03  0.78837697789E+03  0.40000000000E+03 0. -1.
<mgrwt>
<rscale>  2 0.51177477E+03</rscale>
<asrwt>0</asrwt>
<pdfrwt beam="1">  1        2 0.12512043E+00 0.51177477E+03</pdfrwt>
<pdfrwt beam="2">  1       -2 0.98951173E-01 0.51177477E+03</pdfrwt>
<totfact> 0.29702961E+01</totfact>
</mgrwt>
</event>
<event>
 6    1  0.8861680E-004  0.7271226E+03  0.7818608E-02  0.9671941E-01
          2   -1    0    0  502    0  0.00000000000E+00  0.00000000000E+00  0.43954236783E+04  0.43954236783E+04  0.00000000000E+00 0. -1.
         -2   -1    0    0    0  501 -0.00000000000E+00 -0.00000000000E+00 -0.12577698406E+03  0.12577698406E+03  0.00000000000E+00 0.  1.
    9000007    2    1    2  502    0  0.38125544594E+03  0.47178020632E+03  0.26086570969E+04  0.27082421078E+04  0.40193430688E+03 0.  0.
    9000005    1    3    3    0    0  0.21120752528E+03  0.49657936671E+03  0.17039030511E+04  0.17873125898E+04  0.99999687468E+00 0.  0.
          4    1    3    3  502    0  0.17004792066E+03 -0.24799160394E+02  0.90475404575E+03  0.92092951792E+03  0.00000000000E+00 0.  1.
   -9000007    1    1    2    0  501 -0.38125544594E+03 -0.47178020632E+03  0.16609895974E+04  0.18129585546E+04  0.40000000000E+03 0.  1.
<mgrwt>
<rscale>  2 0.72712262E+03</rscale>
<asrwt>0</asrwt>
<pdfrwt beam="1">  1        2 0.67621891E+00 0.72712262E+03</pdfrwt>
<pdfrwt beam="2">  1       -2 0.19350309E-01 0.72712262E+03</pdfrwt>
<totfact> 0.39661239E+00</totfact>
</mgrwt>
</event>
<event>
 6    1  0.8861680E-004  0.4726346E+03  0.7818608E-02  0.1021179E+00
          2   -1    0    0  502    0  0.00000000000E+00  0.00000000000E+00  0.33156719095E+04  0.33156719095E+04  0.00000000000E+00 0. -1.
         -2   -1    0    0    0  501 -0.00000000000E+00 -0.00000000000E+00 -0.73580546096E+02  0.73580546096E+02  0.00000000000E+00 0.  1.
    9000007    2    1    2  502    0 -0.13530848339E+03 -0.21169902574E+03  0.11296540939E+04  0.12246471612E+04  0.40064627075E+03 0.  0.
    9000005    1    3    3    0    0 -0.34941614217E+02 -0.19860886005E+03  0.11011916255E+04  0.11195045296E+04  0.99999687468E+00 0.  0.
          4    1    3    3  502    0 -0.10036686917E+03 -0.13090165684E+02  0.28462468408E+02  0.10514263157E+03  0.00000000000E+00 0.  1.
   -9000007    1    1    2    0  501  0.13530848339E+03  0.21169902574E+03  0.21124372695E+04  0.21646052944E+04  0.40000000000E+03 0. -1.
<mgrwt>
<rscale>  2 0.47263456E+03</rscale>
<asrwt>0</asrwt>
<pdfrwt beam="1">  1        2 0.51010325E+00 0.47263456E+03</pdfrwt>
<pdfrwt beam="2">  1       -2 0.11320087E-01 0.47263456E+03</pdfrwt>
<totfact> 0.68420441E+01</totfact>
</mgrwt>
</event>
<event>
 6    1  0.8861680E-004  0.7651187E+03  0.7818608E-02  0.9611926E-01
         -1   -1    0    0    0  501 -0.00000000000E+00  0.00000000000E+00  0.15168544686E+04  0.15168544686E+04  0.00000000000E+00 0.  1.
          1   -1    0    0  502    0  0.00000000000E+00 -0.00000000000E+00 -0.53640777686E+03  0.53640777686E+03  0.00000000000E+00 0. -1.
    9000007    2    1    2  502    0  0.17874056162E+03  0.62737473606E+03  0.10339274066E+04  0.12861850430E+04  0.39964838903E+03 0.  0.
    9000005    1    3    3    0    0  0.27308816168E+03  0.48906526107E+03  0.93992421524E+03  0.10941757190E+04  0.99999687468E+00 0.  0.
          4    1    3    3  502    0 -0.94347600061E+02  0.13830947500E+03  0.94003191323E+02  0.19200932397E+03  0.00000000000E+00 0.  1.
   -9000007    1    1    2    0  501 -0.17874056162E+03 -0.62737473606E+03 -0.53480714779E+02  0.76707720255E+03  0.40000000000E+03 0. -1.
<mgrwt>
<rscale>  2 0.76511872E+03</rscale>
<asrwt>0</asrwt>
<pdfrwt beam="1">  1        1 0.82524274E-01 0.76511872E+03</pdfrwt>
<pdfrwt beam="2">  1       -1 0.23336222E+00 0.76511872E+03</pdfrwt>
<totfact> 0.37397426E+00</totfact>
</mgrwt>
</event>
<event>
 6    1  0.8861680E-004  0.4228021E+03  0.7818608E-02  0.1036158E+00
         -1   -1    0    0    0  501 -0.00000000000E+00  0.00000000000E+00  0.56332077398E+03  0.56332077398E+03  0.00000000000E+00 0.  1.
          1   -1    0    0  502    0  0.00000000000E+00 -0.00000000000E+00 -0.31752841903E+03  0.31752841903E+03  0.00000000000E+00 0. -1.
    9000007    2    1    2  502    0  0.12995725062E+03  0.36186570748E+02  0.11225398994E+03  0.43809548064E+03  0.40140794338E+03 0.  0.
    9000005    1    3    3    0    0  0.14147422078E+03  0.11801904645E+03 -0.10049098585E+03  0.20986397667E+03  0.99999687468E+00 0.  0.
          4    1    3    3  502    0 -0.11516970162E+02 -0.81832475704E+02  0.21274497579E+03  0.22823150397E+03  0.00000000000E+00 0.  1.
   -9000007    1    1    2    0  501 -0.12995725062E+03 -0.36186570748E+02  0.13353836500E+03  0.44275371237E+03  0.40000000000E+03 0.  1.
<mgrwt>
<rscale>  2 0.42280212E+03</rscale>
<asrwt>0</asrwt>
<pdfrwt beam="1">  1        1 0.48850526E-01 0.42280212E+03</pdfrwt>
<pdfrwt beam="2">  1       -1 0.86664734E-01 0.42280212E+03</pdfrwt>
<totfact> 0.11133206E+02</totfact>
</mgrwt>
</event>
<event>
 6    1  0.8861680E-004  0.4281618E+03  0.7818608E-02  0.1034442E+00
         -1   -1    0    0    0  501 -0.00000000000E+00  0.00000000000E+00  0.15239298920E+03  0.15239298920E+03  0.00000000000E+00 0.  1.
          1   -1    0    0  502    0  0.00000000000E+00 -0.00000000000E+00 -0.12121845845E+04  0.12121845845E+04  0.00000000000E+00 0. -1.
    9000007    2    1    2  502    0 -0.14933387144E+03 -0.37727772844E+02 -0.46980225473E+03  0.63532356310E+03  0.39899609181E+03 0.  0.
    9000005    1    3    3    0    0 -0.81554095886E+02 -0.21321753416E+03 -0.32854604082E+03  0.40007035426E+03  0.99999687468E+00 0.  0.
          4    1    3    3  502    0 -0.67779775554E+02  0.17548976132E+03 -0.14125621391E+03  0.23525320884E+03  0.00000000000E+00 0.  1.
   -9000007    1    1    2    0  501  0.14933387144E+03  0.37727772844E+02 -0.58998934059E+03  0.72925401063E+03  0.40000000000E+03 0. -1.
<mgrwt>
<rscale>  2 0.42816176E+03</rscale>
<asrwt>0</asrwt>
<pdfrwt beam="1">  1        1 0.18648993E+00 0.42816176E+03</pdfrwt>
<pdfrwt beam="2">  1       -1 0.23445076E-01 0.42816176E+03</pdfrwt>
<totfact> 0.17143575E+02</totfact>
</mgrwt>
</event>
<event>
 6    1  0.8861680E-004  0.6013614E+03  0.7818608E-02  0.9902586E-01
         -1   -1    0    0    0  501 -0.00000000000E+00  0.00000000000E+00  0.25060787997E+03  0.25060787997E+03  0.00000000000E+00 0. -1.
          1   -1    0    0  502    0  0.00000000000E+00 -0.00000000000E+00 -0.14856081690E+04  0.14856081690E+04  0.00000000000E+00 0.  1.
    9000007    2    1    2  502    0  0.58934049090E+02 -0.44758858485E+03 -0.46876691646E+03  0.76106357644E+03  0.39454604545E+03 0.  0.
    9000005    1    3    3    0    0  0.17556077624E+03 -0.12665868798E+03 -0.32515445641E+03  0.39062825028E+03  0.99999687468E+00 0.  0.
          4    1    3    3  502    0 -0.11662672715E+03 -0.32092989687E+03 -0.14361246005E+03  0.37043532616E+03  0.00000000000E+00 0.  1.
   -9000007    1    1    2    0  501 -0.58934049090E+02  0.44758858485E+03 -0.76623337255E+03  0.97515247250E+03  0.40000000000E+03 0.  1.
<mgrwt>
<rscale>  2 0.60136143E+03</rscale>
<asrwt>0</asrwt>
<pdfrwt beam="1">  1        1 0.22855511E+00 0.60136143E+03</pdfrwt>
<pdfrwt beam="2">  1       -1 0.38555058E-01 0.60136143E+03</pdfrwt>
<totfact> 0.45696801E+01</totfact>
</mgrwt>
</event>
<event>
 6    1  0.8861680E-004  0.6065009E+03  0.7818608E-02  0.9892010E-01
          2   -1    0    0  502    0  0.00000000000E+00  0.00000000000E+00  0.15548252092E+04  0.15548252092E+04  0.00000000000E+00 0. -1.
         -2   -1    0    0    0  501 -0.00000000000E+00 -0.00000000000E+00 -0.24353786113E+03  0.24353786113E+03  0.00000000000E+00 0.  1.
    9000007    2    1    2  502    0  0.45282392625E+03 -0.50272493687E+02  0.80783997615E+03  0.10103046410E+04  0.40066595651E+03 0.  0.
    9000005    1    3    3    0    0  0.47371005015E+03  0.13664578892E+02  0.81488995801E+03  0.94267416215E+03  0.99999687468E+00 0.  0.
          4    1    3    3  502    0 -0.20886123902E+02 -0.63937072579E+02 -0.70499818597E+01  0.67630478823E+02  0.00000000000E+00 0.  1.
   -9000007    1    1    2    0  501 -0.45282392625E+03  0.50272493687E+02  0.50344737195E+03  0.78805842939E+03  0.40000000000E+03 0.  1.
<mgrwt>
<rscale>  2 0.60650090E+03</rscale>
<asrwt>0</asrwt>
<pdfrwt beam="1">  1        2 0.23920387E+00 0.60650090E+03</pdfrwt>
<pdfrwt beam="2">  1       -2 0.37467364E-01 0.60650090E+03</pdfrwt>
<totfact> 0.82278567E+01</totfact>
</mgrwt>
</event>
<event>
 6    1  0.8861680E-004  0.4904439E+03  0.7818608E-02  0.1016304E+00
          2   -1    0    0  502    0  0.00000000000E+00  0.00000000000E+00  0.74041105176E+03  0.74041105176E+03  0.00000000000E+00 0.  1.
         -2   -1    0    0    0  501 -0.00000000000E+00 -0.00000000000E+00 -0.42523948228E+03  0.42523948228E+03  0.00000000000E+00 0. -1.
    9000007    2    1    2  502    0  0.22380095069E+03 -0.17423805865E+03 -0.12554958231E+03  0.50634718940E+03  0.40022370243E+03 0.  0.
    9000005    1    3    3    0    0  0.15938828495E+03 -0.28692096077E+03 -0.35847981276E+01  0.32824093876E+03  0.99999687468E+00 0.  0.
          4    1    3    3  502    0  0.64412665743E+02  0.11268290212E+03 -0.12196478418E+03  0.17810625064E+03  0.00000000000E+00 0.  1.
   -9000007    1    1    2    0  501 -0.22380095069E+03  0.17423805865E+03  0.44072115178E+03  0.65930334463E+03  0.40000000000E+03 0.  1.
<mgrwt>
<rscale>  2 0.49044394E+03</rscale>
<asrwt>0</asrwt>
<pdfrwt beam="1">  1        2 0.11390939E+00 0.49044394E+03</pdfrwt>
<pdfrwt beam="2">  1       -2 0.65421459E-01 0.49044394E+03</pdfrwt>
<totfact> 0.84895646E+01</totfact>
</mgrwt>
</event>
<event>
 6    1  0.8861680E-004  0.4548787E+03  0.7818608E-02  0.1026277E+00
         -1   -1    0    0    0  501 -0.00000000000E+00  0.00000000000E+00  0.31464708108E+03  0.31464708108E+03  0.00000000000E+00 0. -1.
          1   -1    0    0  502    0  0.00000000000E+00 -0.00000000000E+00 -0.74974107586E+03  0.74974107586E+03  0.00000000000E+00 0.  1.
    9000007    2    1    2  502    0  0.18765691843E+03  0.10752121110E+03 -0.31050108012E+02  0.45608938800E+03  0.40034671319E+03 0.  0.
    9000005    1    3    3    0    0 -0.41502160674E+02 -0.75617555202E+02  0.10233181718E+03  0.13384037058E+03  0.99999687468E+00 0.  0.
          4    1    3    3  502    0  0.22915907911E+03  0.18313876630E+03 -0.13338192519E+03  0.32224901742E+03  0.00000000000E+00 0.  1.
   -9000007    1    1    2    0  501 -0.18765691843E+03 -0.10752121110E+03 -0.40404388676E+03  0.60829876895E+03  0.40000000000E+03 0.  1.
<mgrwt>
<rscale>  2 0.45487870E+03</rscale>
<asrwt>0</asrwt>
<pdfrwt beam="1">  1        1 0.11534478E+00 0.45487870E+03</pdfrwt>
<pdfrwt beam="2">  1       -1 0.48407243E-01 0.45487870E+03</pdfrwt>
<totfact> 0.10940172E+02</totfact>
</mgrwt>
</event>
<event>
 6    1  0.8861680E-004  0.5130182E+03  0.7818608E-02  0.1010436E+00
         -1   -1    0    0    0  501 -0.00000000000E+00  0.00000000000E+00  0.12496098145E+03  0.12496098145E+03  0.00000000000E+00 0.  1.
          1   -1    0    0  502    0  0.00000000000E+00 -0.00000000000E+00 -0.23881270802E+04  0.23881270802E+04  0.00000000000E+00 0. -1.
    9000007    2    1    2  502    0  0.19065578020E+03  0.25730480376E+03 -0.70101932105E+03  0.86905097459E+03  0.40157953060E+03 0.  0.
    9000005    1    3    3    0    0  0.12573348984E+03  0.18733912425E+03 -0.73413425840E+03  0.76802276482E+03  0.99999687468E+00 0.  0.
          4    1    3    3  502    0  0.64922290362E+02  0.69965679503E+02  0.33114937344E+02  0.10102820977E+03  0.00000000000E+00 0.  1.
   -9000007    1    1    2    0  501 -0.19065578020E+03 -0.25730480376E+03 -0.15621467777E+04  0.16440370871E+04  0.40000000000E+03 0.  1.
<mgrwt>
<rscale>  2 0.51301821E+03</rscale>
<asrwt>0</asrwt>
<pdfrwt beam="1">  1        1 0.36740415E+00 0.51301821E+03</pdfrwt>
<pdfrwt beam="2">  1       -1 0.19224767E-01 0.51301821E+03</pdfrwt>
<totfact> 0.38244575E+01</totfact>
</mgrwt>
</event>
<event>
 6    1  0.8861680E-004  0.4539531E+03  0.7818608E-02  0.1026550E+00
         -2   -1    0    0    0  501 -0.00000000000E+00  0.00000000000E+00  0.39319331361E+03  0.39319331361E+03  0.00000000000E+00 0. -1.
          2   -1    0    0  502    0  0.00000000000E+00 -0.00000000000E+00 -0.54398291086E+03  0.54398291086E+03  0.00000000000E+00 0.  1.
    9000007    2    1    2  502    0  0.21406378857E+03 -0.10199802326E+02 -0.16500124528E+03  0.48316156338E+03  0.40036526303E+03 0.  0.
    9000005    1    3    3    0    0 -0.71635532170E+02  0.11962125479E+03 -0.64670901442E+02  0.15370172268E+03  0.99999687468E+00 0.  0.
          4    1    3    3  502    0  0.28569932074E+03 -0.12982105711E+03 -0.10033034384E+03  0.32945984071E+03  0.00000000000E+00 0.  1.
   -9000007    1    1    2    0  501 -0.21406378857E+03  0.10199802326E+02  0.14211648032E+02  0.45401466109E+03  0.40000000000E+03 0.  1.
<mgrwt>
<rscale>  2 0.45395315E+03</rscale>
<asrwt>0</asrwt>
<pdfrwt beam="1">  1        2 0.83689679E-01 0.45395315E+03</pdfrwt>
<pdfrwt beam="2">  1       -2 0.60491279E-01 0.45395315E+03</pdfrwt>
<totfact> 0.14602765E+02</totfact>
</mgrwt>
</event>
<event>
 6    1  0.8861680E-004  0.4600218E+03  0.7818608E-02  0.1024775E+00
         -2   -1    0    0    0  501 -0.00000000000E+00  0.00000000000E+00  0.14765182165E+03  0.14765182165E+03  0.00000000000E+00 0. -1.
          2   -1    0    0  502    0  0.00000000000E+00 -0.00000000000E+00 -0.14382473154E+04  0.14382473154E+04  0.00000000000E+00 0.  1.
    9000007    2    1    2  502    0 -0.46397109280E+02  0.21416659545E+03 -0.60451134412E+03  0.76204752254E+03  0.40897730876E+03 0.  0.
    9000005    1    3    3    0    0  0.85647518254E+02  0.23474423498E+03 -0.15724053611E+03  0.29523878375E+03  0.99999687468E+00 0.  0.
          4    1    3    3  502    0 -0.13204462753E+03 -0.20577639528E+02 -0.44727080801E+03  0.46680873879E+03  0.00000000000E+00 0.  1.
   -9000007    1    1    2    0  501  0.46397109280E+02 -0.21416659545E+03 -0.68608414959E+03  0.82385161448E+03  0.40000000000E+03 0.  1.
<mgrwt>
<rscale>  2 0.46002184E+03</rscale>
<asrwt>0</asrwt>
<pdfrwt beam="1">  1        2 0.22126881E+00 0.46002184E+03</pdfrwt>
<pdfrwt beam="2">  1       -2 0.22715666E-01 0.46002184E+03</pdfrwt>
<totfact> 0.24352463E+02</totfact>
</mgrwt>
</event>
<event>
 6    1  0.8861680E-004  0.5212714E+03  0.7818608E-02  0.1008371E+00
          1   -1    0    0  502    0  0.00000000000E+00  0.00000000000E+00  0.32045402151E+03  0.32045402151E+03  0.00000000000E+00 0.  1.
         -1   -1    0    0    0  501 -0.00000000000E+00 -0.00000000000E+00 -0.91362236226E+03  0.91362236226E+03  0.00000000000E+00 0. -1.
    9000007    2    1    2  502    0 -0.32306094570E+03 -0.86459919799E+02 -0.46197575042E+03  0.69643785452E+03  0.39970038637E+03 0.  0.
    9000005    1    3    3    0    0 -0.21612010091E+03 -0.24650588361E+03 -0.30993755163E+03  0.45114890510E+03  0.99999687468E+00 0.  0.
          4    1    3    3  502    0 -0.10694084479E+03  0.16004596381E+03 -0.15203819880E+03  0.24528894943E+03  0.00000000000E+00 0.  1.
   -9000007    1    1    2    0  501  0.32306094570E+03  0.86459919799E+02 -0.13119259033E+03  0.53763852925E+03  0.40000000000E+03 0. -1.
<mgrwt>
<rscale>  2 0.52127139E+03</rscale>
<asrwt>0</asrwt>
<pdfrwt beam="1">  1        1 0.49300620E-01 0.52127139E+03</pdfrwt>
<pdfrwt beam="2">  1       -1 0.14055728E+00 0.52127139E+03</pdfrwt>
<totfact> 0.34936458E+01</totfact>
</mgrwt>
</event>
<event>
 6    1  0.8861680E-004  0.6087290E+03  0.7818608E-02  0.9887460E-01
         -2   -1    0    0    0  501 -0.00000000000E+00  0.00000000000E+00  0.33380019488E+03  0.33380019488E+03  0.00000000000E+00 0.  1.
          2   -1    0    0  502    0  0.00000000000E+00 -0.00000000000E+00 -0.11887006861E+04  0.11887006861E+04  0.00000000000E+00 0. -1.
    9000007    2    1    2  502    0  0.80445550617E+02  0.45175439744E+03 -0.23169543419E+03  0.65133036648E+03  0.39999368727E+03 0.  0.
    9000005    1    3    3    0    0 -0.11741600846E+03  0.11706557137E+03 -0.20209001534E+03  0.26140436366E+03  0.99999687468E+00 0.  0.
          4    1    3    3  502    0  0.19786155908E+03  0.33468882607E+03 -0.29605418851E+02  0.38992600283E+03  0.00000000000E+00 0.  1.
   -9000007    1    1    2    0  501 -0.80445550617E+02 -0.45175439744E+03 -0.62320505702E+03  0.87117051449E+03  0.40000000000E+03 0. -1.
<mgrwt>
<rscale>  2 0.60872900E+03</rscale>
<asrwt>0</asrwt>
<pdfrwt beam="1">  1        2 0.18287703E+00 0.60872900E+03</pdfrwt>
<pdfrwt beam="2">  1       -2 0.51353877E-01 0.60872900E+03</pdfrwt>
<totfact> 0.71028881E+01</totfact>
</mgrwt>
</event>
<event>
 6    1  0.8861680E-004  0.5050450E+03  0.7818608E-02  0.1012470E+00
          2   -1    0    0  502    0  0.00000000000E+00  0.00000000000E+00  0.11308336974E+04  0.11308336974E+04  0.00000000000E+00 0.  1.
         -2   -1    0    0    0  501 -0.00000000000E+00 -0.00000000000E+00 -0.22659429580E+03  0.22659429580E+03  0.00000000000E+00 0. -1.
    9000007    2    1    2  502    0 -0.14003426015E+03 -0.27435129595E+03  0.49815068169E+03  0.70951883595E+03  0.40048052298E+03 0.  0.
    9000005    1    3    3    0    0 -0.27698848450E+03 -0.18973143078E+03  0.27294854621E+03  0.43269220613E+03  0.99999687468E+00 0.  0.
          4    1    3    3  502    0  0.13695422436E+03 -0.84619865168E+02  0.22520213548E+03  0.27682662982E+03  0.00000000000E+00 0.  1.
   -9000007    1    1    2    0  501  0.14003426015E+03  0.27435129595E+03  0.40608871988E+03  0.64790915723E+03  0.40000000000E+03 0. -1.
<mgrwt>
<rscale>  2 0.50504503E+03</rscale>
<asrwt>0</asrwt>
<pdfrwt beam="1">  1        2 0.17397441E+00 0.50504503E+03</pdfrwt>
<pdfrwt beam="2">  1       -2 0.34860662E-01 0.50504503E+03</pdfrwt>
<totfact> 0.16620883E+02</totfact>
</mgrwt>
</event>
<event>
 6    1  0.8861680E-004  0.4629935E+03  0.7818608E-02  0.1023917E+00
         -1   -1    0    0    0  501 -0.00000000000E+00  0.00000000000E+00  0.52312823749E+03  0.52312823749E+03  0.00000000000E+00 0. -1.
          1   -1    0    0  502    0  0.00000000000E+00 -0.00000000000E+00 -0.47805160105E+03  0.47805160105E+03  0.00000000000E+00 0.  1.
    9000007    2    1    2  502    0  0.13032346714E+01  0.23376520262E+03 -0.16666156658E+03  0.49178712658E+03  0.39928765535E+03 0.  0.
    9000005    1    3    3    0    0  0.11884704835E+03 -0.61977273184E+02 -0.98458077450E+02  0.16631535198E+03  0.99999687468E+00 0.  0.
          4    1    3    3  502    0 -0.11754381368E+03  0.29574247581E+03 -0.68203489131E+02  0.32547177460E+03  0.00000000000E+00 0.  1.
   -9000007    1    1    2    0  501 -0.13032346714E+01 -0.23376520262E+03  0.21173820303E+03  0.50939271196E+03  0.40000000000E+03 0. -1.
<mgrwt>
<rscale>  2 0.46299352E+03</rscale>
<asrwt>0</asrwt>
<pdfrwt beam="1">  1        1 0.73546400E-01 0.46299352E+03</pdfrwt>
<pdfrwt beam="2">  1       -1 0.80481267E-01 0.46299352E+03</pdfrwt>
<totfact> 0.76001577E+01</totfact>
</mgrwt>
</event>
<event>
 6    1  0.8861680E-004  0.4450379E+03  0.7818608E-02  0.1029212E+00
          1   -1    0    0  502    0  0.00000000000E+00  0.00000000000E+00  0.82992456316E+03  0.82992456316E+03  0.00000000000E+00 0. -1.
         -1   -1    0    0    0  501 -0.00000000000E+00 -0.00000000000E+00 -0.24468706307E+03  0.24468706307E+03  0.00000000000E+00 0.  1.
    9000007    2    1    2  502    0  0.10748869937E+03  0.16109758244E+03  0.20860038973E+03  0.49206397628E+03  0.40138084483E+03 0.  0.
    9000005    1    3    3    0    0 -0.11187299913E+03 -0.63771918053E+02  0.36411120994E+02  0.13382524124E+03  0.99999687468E+00 0.  0.
          4    1    3    3  502    0  0.21936169850E+03  0.22486950049E+03  0.17218926873E+03  0.35823873505E+03  0.00000000000E+00 0.  1.
   -9000007    1    1    2    0  501 -0.10748869937E+03 -0.16109758244E+03  0.37663711036E+03  0.58254764995E+03  0.40000000000E+03 0. -1.
<mgrwt>
<rscale>  2 0.44503794E+03</rscale>
<asrwt>0</asrwt>
<pdfrwt beam="1">  1        1 0.12768070E+00 0.44503794E+03</pdfrwt>
<pdfrwt beam="2">  1       -1 0.37644164E-01 0.44503794E+03</pdfrwt>
<totfact> 0.14776731E+02</totfact>
</mgrwt>
</event>
<event>
 6    1  0.8861680E-004  0.4119488E+03  0.7818608E-02  0.1039719E+00
          1   -1    0    0  502    0  0.00000000000E+00  0.00000000000E+00  0.63196082893E+03  0.63196082893E+03  0.00000000000E+00 0.  1.
         -1   -1    0    0    0  501 -0.00000000000E+00 -0.00000000000E+00 -0.30519357719E+03  0.30519357719E+03  0.00000000000E+00 0. -1.
    9000007    2    1    2  502    0  0.70374905622E+02  0.68033898838E+02  0.32583899171E+03  0.52535093309E+03  0.40030153090E+03 0.  0.
    9000005    1    3    3    0    0 -0.84211117514E+01 -0.64222298649E+01 -0.92542743871E+02  0.93152131465E+02  0.99999687468E+00 0.  0.
          4    1    3    3  502    0  0.78796017374E+02  0.74456128703E+02  0.41838173558E+03  0.43219880162E+03  0.00000000000E+00 0.  1.
   -9000007    1    1    2    0  501 -0.70374905622E+02 -0.68033898838E+02  0.92826002722E+00  0.41180347303E+03  0.40000000000E+03 0. -1.
<mgrwt>
<rscale>  2 0.41194885E+03</rscale>
<asrwt>0</asrwt>
<pdfrwt beam="1">  1        1 0.97224743E-01 0.41194885E+03</pdfrwt>
<pdfrwt beam="2">  1       -1 0.46952858E-01 0.41194885E+03</pdfrwt>
<totfact> 0.14982172E+02</totfact>
</mgrwt>
</event>
<event>
 6    1  0.8861680E-004  0.4129744E+03  0.7818608E-02  0.1039377E+00
         -1   -1    0    0    0  501 -0.00000000000E+00  0.00000000000E+00  0.11659999713E+04  0.11659999713E+04  0.00000000000E+00 0. -1.
          1   -1    0    0  502    0  0.00000000000E+00 -0.00000000000E+00 -0.14741158298E+03  0.14741158298E+03  0.00000000000E+00 0.  1.
    9000007    2    1    2  502    0  0.99099015149E+02 -0.28033468927E+02  0.56706224590E+03  0.70146192607E+03  0.39985341417E+03 0.  0.
    9000005    1    3    3    0    0  0.18715800822E+03  0.82377746172E+02  0.50941041582E+03  0.54892092768E+03  0.99999687468E+00 0.  0.
          4    1    3    3  502    0 -0.88058993070E+02 -0.11041121510E+03  0.57651830077E+02  0.15254099840E+03  0.00000000000E+00 0.  1.
   -9000007    1    1    2    0  501 -0.99099015149E+02  0.28033468927E+02  0.45152614246E+03  0.61194962824E+03  0.40000000000E+03 0. -1.
<mgrwt>
<rscale>  2 0.41297440E+03</rscale>
<asrwt>0</asrwt>
<pdfrwt beam="1">  1        1 0.22678706E-01 0.41297440E+03</pdfrwt>
<pdfrwt beam="2">  1       -1 0.17938460E+00 0.41297440E+03</pdfrwt>
<totfact> 0.49283663E+01</totfact>
</mgrwt>
</event>
<event>
 6    1  0.8861680E-004  0.6058335E+03  0.7818608E-02  0.9893377E-01
         -2   -1    0    0    0  501 -0.00000000000E+00  0.00000000000E+00  0.13243902061E+03  0.13243902061E+03  0.00000000000E+00 0. -1.
          2   -1    0    0  502    0  0.00000000000E+00 -0.00000000000E+00 -0.27850021547E+04  0.27850021547E+04  0.00000000000E+00 0.  1.
    9000007    2    1    2  502    0  0.23624936166E+03  0.38950827922E+03 -0.14275348468E+04  0.15506109865E+04  0.39875836305E+03 0.  0.
    9000005    1    3    3    0    0  0.27304046906E+02  0.19547279441E+03 -0.16796581269E+03  0.25916913118E+03  0.99999687468E+00 0.  0.
          4    1    3    3  502    0  0.20894531475E+03  0.19403548481E+03 -0.12595690341E+04  0.12914418553E+04  0.00000000000E+00 0.  1.
   -9000007    1    1    2    0  501 -0.23624936166E+03 -0.38950827922E+03 -0.12250282873E+04  0.13668301889E+04  0.40000000000E+03 0.  1.
<mgrwt>
<rscale>  2 0.60583351E+03</rscale>
<asrwt>0</asrwt>
<pdfrwt beam="1">  1        2 0.42846185E+00 0.60583351E+03</pdfrwt>
<pdfrwt beam="2">  1       -2 0.20375235E-01 0.60583351E+03</pdfrwt>
<totfact> 0.52293843E+01</totfact>
</mgrwt>
</event>
<event>
 6    1  0.8861680E-004  0.4755302E+03  0.7818608E-02  0.1020371E+00
         -2   -1    0    0    0  501 -0.00000000000E+00  0.00000000000E+00  0.19680055652E+03  0.19680055652E+03  0.00000000000E+00 0. -1.
          2   -1    0    0  502    0  0.00000000000E+00 -0.00000000000E+00 -0.24499952139E+04  0.24499952139E+04  0.00000000000E+00 0.  1.
    9000007    2    1    2  502    0  0.25508496163E+03 -0.31305803557E+02 -0.20910561808E+04  0.21444639313E+04  0.40020146230E+03 0.  0.
    9000005    1    3    3    0    0 -0.14428501356E+02  0.40027879741E+02 -0.85903518400E+01  0.43418969891E+02  0.99999687468E+00 0.  0.
          4    1    3    3  502    0  0.26951346298E+03 -0.71333683298E+02 -0.20824658290E+04  0.21010449614E+04  0.00000000000E+00 0.  1.
   -9000007    1    1    2    0  501 -0.25508496163E+03  0.31305803557E+02 -0.16213847656E+03  0.50233183909E+03  0.40000000000E+03 0. -1.
<mgrwt>
<rscale>  2 0.47553021E+03</rscale>
<asrwt>0</asrwt>
<pdfrwt beam="1">  1        2 0.37692234E+00 0.47553021E+03</pdfrwt>
<pdfrwt beam="2">  1       -2 0.30277008E-01 0.47553021E+03</pdfrwt>
<totfact> 0.40915015E+01</totfact>
</mgrwt>
</event>
<event>
 6    1  0.8861680E-004  0.4584742E+03  0.7818608E-02  0.1025225E+00
         -2   -1    0    0    0  501 -0.00000000000E+00  0.00000000000E+00  0.10932555632E+04  0.10932555632E+04  0.00000000000E+00 0.  1.
          2   -1    0    0  502    0  0.00000000000E+00 -0.00000000000E+00 -0.20864610870E+03  0.20864610870E+03  0.00000000000E+00 0. -1.
    9000007    2    1    2  502    0  0.22263349680E+03  0.66268254580E+01  0.62525071132E+03  0.77571107298E+03  0.40147182718E+03 0.  0.
    9000005    1    3    3    0    0  0.25247969053E+03 -0.11388100845E+03  0.22561785087E+03  0.35723842576E+03  0.99999687468E+00 0.  0.
          4    1    3    3  502    0 -0.29846193738E+02  0.12050783391E+03  0.39963286045E+03  0.41847264721E+03  0.00000000000E+00 0.  1.
   -9000007    1    1    2    0  501 -0.22263349680E+03 -0.66268254580E+01  0.25935874314E+03  0.52619059888E+03  0.40000000000E+03 0. -1.
<mgrwt>
<rscale>  2 0.45847418E+03</rscale>
<asrwt>0</asrwt>
<pdfrwt beam="1">  1        2 0.32099402E-01 0.45847418E+03</pdfrwt>
<pdfrwt beam="2">  1       -2 0.16819316E+00 0.45847418E+03</pdfrwt>
<totfact> 0.37501792E+01</totfact>
</mgrwt>
</event>
<event>
 6    1  0.8861680E-004  0.5127569E+03  0.7818608E-02  0.1010502E+00
         -2   -1    0    0    0  501 -0.00000000000E+00  0.00000000000E+00  0.11517308070E+03  0.11517308070E+03  0.00000000000E+00 0. -1.
          2   -1    0    0  502    0  0.00000000000E+00 -0.00000000000E+00 -0.24009786359E+04  0.24009786359E+04  0.00000000000E+00 0.  1.
    9000007    2    1    2  502    0  0.47506874986E+02 -0.31756752074E+03 -0.86343004763E+03  0.10041139797E+04  0.39953398305E+03 0.  0.
    9000005    1    3    3    0    0  0.11342657115E+03 -0.34005426071E+03 -0.40682319808E+03  0.54222560043E+03  0.99999687468E+00 0.  0.
          4    1    3    3  502    0 -0.65919696166E+02  0.22486739972E+02 -0.45660684955E+03  0.46188837924E+03  0.00000000000E+00 0.  1.
   -9000007    1    1    2    0  501 -0.47506874986E+02  0.31756752074E+03 -0.14223755075E+04  0.15120377369E+04  0.40000000000E+03 0.  1.
<mgrwt>
<rscale>  2 0.51275693E+03</rscale>
<asrwt>0</asrwt>
<pdfrwt beam="1">  1        2 0.36938132E+00 0.51275693E+03</pdfrwt>
<pdfrwt beam="2">  1       -2 0.17718936E-01 0.51275693E+03</pdfrwt>
<totfact> 0.11188572E+02</totfact>
</mgrwt>
</event>
<event>
 6    1  0.8861680E-004  0.5920841E+03  0.7818608E-02  0.9921966E-01
         -2   -1    0    0    0  501 -0.00000000000E+00  0.00000000000E+00  0.91787221957E+03  0.91787221957E+03  0.00000000000E+00 0.  1.
          2   -1    0    0  502    0  0.00000000000E+00 -0.00000000000E+00 -0.59430253469E+03  0.59430253469E+03  0.00000000000E+00 0. -1.
    9000007    2    1    2  502    0 -0.23504098668E+02 -0.43551300377E+03  0.61381239104E+03  0.85303527920E+03  0.40084849638E+03 0.  0.
    9000005    1    3    3    0    0  0.17436549367E+03 -0.17510264088E+03  0.16280529235E+03  0.29592367840E+03  0.99999687468E+00 0.  0.
          4    1    3    3  502    0 -0.19786959234E+03 -0.26041036289E+03  0.45100709869E+03  0.55711160080E+03  0.00000000000E+00 0.  1.
   -9000007    1    1    2    0  501  0.23504098668E+02  0.43551300377E+03 -0.29024270616E+03  0.65913947506E+03  0.40000000000E+03 0. -1.
<mgrwt>
<rscale>  2 0.59208413E+03</rscale>
<asrwt>0</asrwt>
<pdfrwt beam="1">  1        2 0.91431159E-01 0.59208413E+03</pdfrwt>
<pdfrwt beam="2">  1       -2 0.14121111E+00 0.59208413E+03</pdfrwt>
<totfact> 0.18159249E+01</totfact>
</mgrwt>
</event>
<event>
 6    1  0.8861680E-004  0.4240433E+03  0.7818608E-02  0.1035758E+00
          1   -1    0    0  502    0  0.00000000000E+00  0.00000000000E+00  0.11071028233E+03  0.11071028233E+03  0.00000000000E+00 0. -1.
         -1   -1    0    0    0  501 -0.00000000000E+00 -0.00000000000E+00 -0.16262772733E+04  0.16262772733E+04  0.00000000000E+00 0.  1.
    9000007    2    1    2  502    0  0.11711942163E+03  0.78242313243E+02 -0.72649367821E+03  0.84117758057E+03  0.39993479353E+03 0.  0.
    9000005    1    3    3    0    0  0.59466487887E+02  0.22384212034E+03 -0.58856922357E+03  0.63250003079E+03  0.99999687468E+00 0.  0.
          4    1    3    3  502    0  0.57652933739E+02 -0.14559980710E+03 -0.13792445464E+03  0.20867754978E+03  0.00000000000E+00 0.  1.
   -9000007    1    1    2    0  501 -0.11711942163E+03 -0.78242313243E+02 -0.78907331277E+03  0.89580997507E+03  0.40000000000E+03 0.  1.
<mgrwt>
<rscale>  2 0.42404332E+03</rscale>
<asrwt>0</asrwt>
<pdfrwt beam="1">  1        1 0.17032352E-01 0.42404332E+03</pdfrwt>
<pdfrwt beam="2">  1       -1 0.25019649E+00 0.42404332E+03</pdfrwt>
<totfact> 0.24270131E+01</totfact>
</mgrwt>
</event>
<event>
 6    1  0.8861680E-004  0.7866229E+03  0.7818608E-02  0.9579584E-01
         -1   -1    0    0    0  501 -0.00000000000E+00  0.00000000000E+00  0.50402238009E+03  0.50402238009E+03  0.00000000000E+00 0. -1.
          1   -1    0    0  502    0  0.00000000000E+00 -0.00000000000E+00 -0.13916302589E+04  0.13916302589E+04  0.00000000000E+00 0.  1.
    9000007    2    1    2  502    0 -0.15283813097E+03  0.65939711014E+03 -0.76933130441E+03  0.11005718939E+04  0.40152682923E+03 0.  0.
    9000005    1    3    3    0    0 -0.39087801251E+02  0.54190376251E+03 -0.33945266824E+03  0.64063769636E+03  0.99999687468E+00 0.  0.
          4    1    3    3  502    0 -0.11375032972E+03  0.11749334764E+03 -0.42987863617E+03  0.45993419756E+03  0.00000000000E+00 0.  1.
   -9000007    1    1    2    0  501  0.15283813097E+03 -0.65939711014E+03 -0.11827657441E+03  0.79508074508E+03  0.40000000000E+03 0. -1.
<mgrwt>
<rscale>  2 0.78662293E+03</rscale>
<asrwt>0</asrwt>
<pdfrwt beam="1">  1        1 0.21409696E+00 0.78662293E+03</pdfrwt>
<pdfrwt beam="2">  1       -1 0.77541905E-01 0.78662293E+03</pdfrwt>
<totfact> 0.13374364E+01</totfact>
</mgrwt>
</event>
<event>
 6    1  0.8861680E-004  0.4822471E+03  0.7818608E-02  0.1018519E+00
          1   -1    0    0  502    0  0.00000000000E+00  0.00000000000E+00  0.10688968673E+04  0.10688968673E+04  0.00000000000E+00 0.  1.
         -1   -1    0    0    0  501 -0.00000000000E+00 -0.00000000000E+00 -0.36967008432E+03  0.36967008432E+03  0.00000000000E+00 0. -1.
    9000007    2    1    2  502    0  0.20987078311E+03  0.16790581681E+03 -0.11161831369E+03  0.49532367455E+03  0.40081016166E+03 0.  0.
    9000005    1    3    3    0    0  0.25965349796E+03  0.24484463353E+03 -0.79768196580E+01  0.35697823913E+03  0.99999687468E+00 0.  0.
          4    1    3    3  502    0 -0.49782714845E+02 -0.76938816714E+02 -0.10364149404E+03  0.13834543542E+03  0.00000000000E+00 0.  1.
   -9000007    1    1    2    0  501 -0.20987078311E+03 -0.16790581681E+03  0.81084509665E+03  0.94324327705E+03  0.40000000000E+03 0.  1.
<mgrwt>
<rscale>  2 0.48224711E+03</rscale>
<asrwt>0</asrwt>
<pdfrwt beam="1">  1        1 0.16444567E+00 0.48224711E+03</pdfrwt>
<pdfrwt beam="2">  1       -1 0.56872321E-01 0.48224711E+03</pdfrwt>
<totfact> 0.44472274E+01</totfact>
</mgrwt>
</event>
<event>
 6    1  0.8861680E-004  0.5579344E+03  0.7818608E-02  0.9996739E-01
         -2   -1    0    0    0  501 -0.00000000000E+00  0.00000000000E+00  0.36716767067E+03  0.36716767067E+03  0.00000000000E+00 0. -1.
          2   -1    0    0  502    0  0.00000000000E+00 -0.00000000000E+00 -0.11490905042E+04  0.11490905042E+04  0.00000000000E+00 0.  1.
    9000007    2    1    2  502    0 -0.10579700507E+03  0.37407731551E+03 -0.28451389639E+01  0.55808861866E+03  0.40040974914E+03 0.  0.
    9000005    1    3    3    0    0  0.13720842015E+03  0.52799513002E+02 -0.43220415941E+02  0.15324145484E+03  0.99999687468E+00 0.  0.
          4    1    3    3  502    0 -0.24300542522E+03  0.32127780251E+03  0.40375276977E+02  0.40484716383E+03  0.00000000000E+00 0.  1.
   -9000007    1    1    2    0  501  0.10579700507E+03 -0.37407731551E+03 -0.77907769454E+03  0.95816955618E+03  0.40000000000E+03 0.  1.
<mgrwt>
<rscale>  2 0.55793439E+03</rscale>
<asrwt>0</asrwt>
<pdfrwt beam="1">  1        2 0.17678315E+00 0.55793439E+03</pdfrwt>
<pdfrwt beam="2">  1       -2 0.56487334E-01 0.55793439E+03</pdfrwt>
<totfact> 0.61974598E+01</totfact>
</mgrwt>
</event>
<event>
 6    1  0.8861680E-004  0.4009746E+03  0.7818608E-02  0.1043443E+00
         -2   -1    0    0    0  501 -0.00000000000E+00  0.00000000000E+00  0.71465654156E+03  0.71465654156E+03  0.00000000000E+00 0.  1.
          2   -1    0    0  502    0  0.00000000000E+00 -0.00000000000E+00 -0.24045102203E+03  0.24045102203E+03  0.00000000000E+00 0. -1.
    9000007    2    1    2  502    0  0.18784258981E+02  0.45162308879E+01  0.35853285645E+03  0.53827017358E+03  0.40101836103E+03 0.  0.
    9000005    1    3    3    0    0 -0.31152943784E+02  0.28357673953E+02 -0.83105641358E+02  0.93178383747E+02  0.99999687468E+00 0.  0.
          4    1    3    3  502    0  0.49937202766E+02 -0.23841443065E+02  0.44163849781E+03  0.44509178983E+03  0.00000000000E+00 0.  1.
   -9000007    1    1    2    0  501 -0.18784258981E+02 -0.45162308879E+01  0.11567266308E+03  0.41683739001E+03  0.40000000000E+03 0. -1.
<mgrwt>
<rscale>  2 0.40097455E+03</rscale>
<asrwt>0</asrwt>
<pdfrwt beam="1">  1        2 0.36992465E-01 0.40097455E+03</pdfrwt>
<pdfrwt beam="2">  1       -2 0.10994716E+00 0.40097455E+03</pdfrwt>
<totfact> 0.95129315E+01</totfact>
</mgrwt>
</event>
<event>
 6    1  0.8861680E-004  0.5307649E+03  0.7818608E-02  0.1006047E+00
          4   -1    0    0  502    0  0.00000000000E+00  0.00000000000E+00  0.70594826357E+03  0.70594826357E+03  0.00000000000E+00 0.  1.
         -4   -1    0    0    0  501 -0.00000000000E+00 -0.00000000000E+00 -0.43179726650E+03  0.43179726650E+03  0.00000000000E+00 0. -1.
    9000007    2    1    2  502    0  0.13111202506E+03  0.32530145937E+03  0.29343076295E+03  0.60540812582E+03  0.39674422942E+03 0.  0.
    9000005    1    3    3    0    0 -0.36199587633E+02 -0.22171074469E+02 -0.65833872491E+02  0.78339424614E+02  0.99999687468E+00 0.  0.
          4    1    3    3  502    0  0.16731161269E+03  0.34747253384E+03  0.35926463544E+03  0.52706870121E+03  0.00000000000E+00 0.  1.
   -9000007    1    1    2    0  501 -0.13111202506E+03 -0.32530145937E+03 -0.19279765886E+02  0.53233740424E+03  0.40000000000E+03 0. -1.
<mgrwt>
<rscale>  2 0.53076493E+03</rscale>
<asrwt>0</asrwt>
<pdfrwt beam="1">  1        4 0.10860743E+00 0.53076493E+03</pdfrwt>
<pdfrwt beam="2">  1       -4 0.66430349E-01 0.53076493E+03</pdfrwt>
<totfact> 0.27749427E+00</totfact>
</mgrwt>
</event>
<event>
 6    1  0.8861680E-004  0.6148590E+03  0.7818608E-02  0.9875049E-01
         -2   -1    0    0    0  501 -0.00000000000E+00  0.00000000000E+00  0.14393419581E+03  0.14393419581E+03  0.00000000000E+00 0. -1.
          2   -1    0    0  502    0  0.00000000000E+00 -0.00000000000E+00 -0.30056526925E+04  0.30056526925E+04  0.00000000000E+00 0.  1.
    9000007    2    1    2  502    0  0.37822164247E+03  0.27391900069E+03 -0.87152925572E+03  0.10665754998E+04  0.39992102151E+03 0.  0.
    9000005    1    3    3    0    0 -0.15160273577E+02  0.13048388171E+03 -0.42951107960E+02  0.13820880923E+03  0.99999687468E+00 0.  0.
          4    1    3    3  502    0  0.39338191605E+03  0.14343511898E+03 -0.82857814776E+03  0.92836669058E+03  0.00000000000E+00 0.  1.
   -9000007    1    1    2    0  501 -0.37822164247E+03 -0.27391900069E+03 -0.19901892410E+04  0.20830113885E+04  0.40000000000E+03 0.  1.
<mgrwt>
<rscale>  2 0.61485904E+03</rscale>
<asrwt>0</asrwt>
<pdfrwt beam="1">  1        2 0.46240809E+00 0.61485904E+03</pdfrwt>
<pdfrwt beam="2">  1       -2 0.22143723E-01 0.61485904E+03</pdfrwt>
<totfact> 0.33301869E+01</totfact>
</mgrwt>
</event>
<event>
 6    1  0.8861680E-004  0.4318981E+03  0.7818608E-02  0.1033262E+00
          1   -1    0    0  502    0  0.00000000000E+00  0.00000000000E+00  0.79755196974E+03  0.79755196974E+03  0.00000000000E+00 0. -1.
         -1   -1    0    0    0  501 -0.00000000000E+00 -0.00000000000E+00 -0.24085739177E+03  0.24085739177E+03  0.00000000000E+00 0.  1.
    9000007    2    1    2  502    0 -0.13520408085E+03  0.90031769401E+02  0.36679020074E+03  0.56676380022E+03  0.40037518768E+03 0.  0.
    9000005    1    3    3    0    0  0.90130974339E+02  0.17025350488E+03  0.17305924941E+03  0.25896013643E+03  0.99999687468E+00 0.  0.
          4    1    3    3  502    0 -0.22533505519E+03 -0.80221735482E+02  0.19373095132E+03  0.30780366379E+03  0.00000000000E+00 0.  1.
   -9000007    1    1    2    0  501  0.13520408085E+03 -0.90031769401E+02  0.18990437724E+03  0.47164556128E+03  0.40000000000E+03 0. -1.
<mgrwt>
<rscale>  2 0.43189808E+03</rscale>
<asrwt>0</asrwt>
<pdfrwt beam="1">  1        1 0.12270030E+00 0.43189808E+03</pdfrwt>
<pdfrwt beam="2">  1       -1 0.37054984E-01 0.43189808E+03</pdfrwt>
<totfact> 0.16207930E+02</totfact>
</mgrwt>
</event>
<event>
 6    1  0.8861680E-004  0.4654145E+03  0.7818608E-02  0.1023222E+00
         -2   -1    0    0    0  501 -0.00000000000E+00  0.00000000000E+00  0.62793890237E+03  0.62793890237E+03  0.00000000000E+00 0.  1.
          2   -1    0    0  502    0  0.00000000000E+00 -0.00000000000E+00 -0.34496657283E+03  0.34496657283E+03  0.00000000000E+00 0. -1.
    9000007    2    1    2  502    0 -0.18321153007E+03 -0.15173561872E+03  0.13867298817E+03  0.48565557766E+03  0.40005122138E+03 0.  0.
    9000005    1    3    3    0    0 -0.22024492454E+02 -0.25352391801E+03  0.14872721104E+03  0.29475453952E+03  0.99999687468E+00 0.  0.
          4    1    3    3  502    0 -0.16118703761E+03  0.10178829929E+03 -0.10054222867E+02  0.19090103814E+03  0.00000000000E+00 0.  1.
   -9000007    1    1    2    0  501  0.18321153007E+03  0.15173561872E+03  0.14429934136E+03  0.48724989754E+03  0.40000000000E+03 0. -1.
<mgrwt>
<rscale>  2 0.46541449E+03</rscale>
<asrwt>0</asrwt>
<pdfrwt beam="1">  1        2 0.53071781E-01 0.46541449E+03</pdfrwt>
<pdfrwt beam="2">  1       -2 0.96605984E-01 0.46541449E+03</pdfrwt>
<totfact> 0.86508088E+01</totfact>
</mgrwt>
</event>
<event>
 6    1  0.8861680E-004  0.4458704E+03  0.7818608E-02  0.1028961E+00
         -2   -1    0    0    0  501 -0.00000000000E+00  0.00000000000E+00  0.70061516165E+03  0.70061516165E+03  0.00000000000E+00 0. -1.
          2   -1    0    0  502    0  0.00000000000E+00 -0.00000000000E+00 -0.39474315613E+03  0.39474315613E+03  0.00000000000E+00 0.  1.
    9000007    2    1    2  502    0  0.56295171819E+02 -0.18919029369E+03  0.44330331395E+03  0.62861483562E+03  0.39959563287E+03 0.  0.
    9000005    1    3    3    0    0 -0.38053800957E+02 -0.29159510572E+03  0.22753555807E+03  0.37181881021E+03  0.99999687468E+00 0.  0.
          4    1    3    3  502    0  0.94348972776E+02  0.10240481202E+03  0.21576775588E+03  0.25679602541E+03  0.00000000000E+00 0.  1.
   -9000007    1    1    2    0  501 -0.56295171819E+02  0.18919029369E+03 -0.13743130843E+03  0.46674348216E+03  0.40000000000E+03 0.  1.
<mgrwt>
<rscale>  2 0.44587037E+03</rscale>
<asrwt>0</asrwt>
<pdfrwt beam="1">  1        2 0.60729716E-01 0.44587037E+03</pdfrwt>
<pdfrwt beam="2">  1       -2 0.10778695E+00 0.44587037E+03</pdfrwt>
<totfact> 0.57628747E+01</totfact>
</mgrwt>
</event>
<event>
 6    1  0.8861680E-004  0.4303537E+03  0.7818608E-02  0.1033748E+00
         -2   -1    0    0    0  501 -0.00000000000E+00  0.00000000000E+00  0.22363292857E+03  0.22363292857E+03  0.00000000000E+00 0.  1.
          2   -1    0    0  502    0  0.00000000000E+00 -0.00000000000E+00 -0.85287921611E+03  0.85287921611E+03  0.00000000000E+00 0. -1.
    9000007    2    1    2  502    0  0.11808266601E+03 -0.10477080852E+03 -0.22322695938E+03  0.48509678034E+03  0.40070958633E+03 0.  0.
    9000005    1    3    3    0    0  0.19590177669E+03  0.93904050057E+02 -0.11681883154E+03  0.24666397411E+03  0.99999687468E+00 0.  0.
          4    1    3    3  502    0 -0.77819110680E+02 -0.19867485857E+03 -0.10640812785E+03  0.23843280623E+03  0.00000000000E+00 0.  1.
   -9000007    1    1    2    0  501 -0.11808266601E+03  0.10477080852E+03 -0.40601932816E+03  0.59141536433E+03  0.40000000000E+03 0. -1.
<mgrwt>
<rscale>  2 0.43035370E+03</rscale>
<asrwt>0</asrwt>
<pdfrwt beam="1">  1        2 0.13121219E+00 0.43035370E+03</pdfrwt>
<pdfrwt beam="2">  1       -2 0.34405065E-01 0.43035370E+03</pdfrwt>
<totfact> 0.25720967E+02</totfact>
</mgrwt>
</event>
<event>
 6    1  0.8861680E-004  0.5161189E+03  0.7818608E-02  0.1009655E+00
         -1   -1    0    0    0  501 -0.00000000000E+00  0.00000000000E+00  0.35453833442E+03  0.35453833442E+03  0.00000000000E+00 0. -1.
          1   -1    0    0  502    0  0.00000000000E+00 -0.00000000000E+00 -0.11711864301E+04  0.11711864301E+04  0.00000000000E+00 0.  1.
    9000007    2    1    2  502    0  0.92053692325E+02  0.31069036310E+03 -0.86574882060E+03  0.10086045994E+04  0.40343504257E+03 0.  0.
    9000005    1    3    3    0    0  0.18066344209E+03  0.14118925998E+03 -0.16570060538E+03  0.28289817436E+03  0.99999687468E+00 0.  0.
          4    1    3    3  502    0 -0.88609749764E+02  0.16950110312E+03 -0.70004821522E+03  0.72570642505E+03  0.00000000000E+00 0.  1.
   -9000007    1    1    2    0  501 -0.92053692325E+02 -0.31069036310E+03  0.49100724917E+02  0.51712016513E+03  0.40000000000E+03 0. -1.
<mgrwt>
<rscale>  2 0.51611891E+03</rscale>
<asrwt>0</asrwt>
<pdfrwt beam="1">  1        1 0.18018253E+00 0.51611891E+03</pdfrwt>
<pdfrwt beam="2">  1       -1 0.54544359E-01 0.51611891E+03</pdfrwt>
<totfact> 0.40334177E+01</totfact>
</mgrwt>
</event>
<event>
 6    1  0.8861680E-004  0.4606226E+03  0.7818608E-02  0.1024601E+00
          2   -1    0    0  502    0  0.00000000000E+00  0.00000000000E+00  0.71323691655E+03  0.71323691655E+03  0.00000000000E+00 0.  1.
         -2   -1    0    0    0  501 -0.00000000000E+00 -0.00000000000E+00 -0.29844253228E+03  0.29844253228E+03  0.00000000000E+00 0. -1.
    9000007    2    1    2  502    0  0.50114631113E+02  0.22247025256E+03  0.17874260732E+03  0.49425802394E+03  0.40042175894E+03 0.  0.
    9000005    1    3    3    0    0  0.10034911378E+03  0.32344838561E+03  0.89085548625E+02  0.35018000765E+03  0.99999687468E+00 0.  0.
          4    1    3    3  502    0 -0.50234482672E+02 -0.10097813305E+03  0.89657058696E+02  0.14407801629E+03  0.00000000000E+00 0.  1.
   -9000007    1    1    2    0  501 -0.50114631113E+02 -0.22247025256E+03  0.23605177695E+03  0.51742142488E+03  0.40000000000E+03 0. -1.
<mgrwt>
<rscale>  2 0.46062264E+03</rscale>
<asrwt>0</asrwt>
<pdfrwt beam="1">  1        2 0.10972876E+00 0.46062264E+03</pdfrwt>
<pdfrwt beam="2">  1       -2 0.45914236E-01 0.46062264E+03</pdfrwt>
<totfact> 0.18504546E+02</totfact>
</mgrwt>
</event>
<event>
 6    1  0.8861680E-004  0.4110033E+03  0.7818608E-02  0.1040035E+00
         -1   -1    0    0    0  501 -0.00000000000E+00  0.00000000000E+00  0.25564915579E+04  0.25564915579E+04  0.00000000000E+00 0.  1.
          1   -1    0    0  502    0  0.00000000000E+00 -0.00000000000E+00 -0.95559503286E+02  0.95559503286E+02  0.00000000000E+00 0. -1.
    9000007    2    1    2  502    0 -0.71543015069E+01  0.93789050006E+02  0.49410887901E+03  0.64276238755E+03  0.40019037044E+03 0.  0.
    9000005    1    3    3    0    0  0.16217419176E+03  0.16111252488E+03  0.28654596627E+03  0.36656146132E+03  0.99999687468E+00 0.  0.
          4    1    3    3  502    0 -0.16932849327E+03 -0.67323474878E+02  0.20756291275E+03  0.27620092623E+03  0.00000000000E+00 0.  1.
   -9000007    1    1    2    0  501  0.71543015069E+01 -0.93789050006E+02  0.19668231756E+04  0.20092886736E+04  0.40000000000E+03 0.  1.
<mgrwt>
<rscale>  2 0.41100331E+03</rscale>
<asrwt>0</asrwt>
<pdfrwt beam="1">  1        1 0.14701464E-01 0.41100331E+03</pdfrwt>
<pdfrwt beam="2">  1       -1 0.39330634E+00 0.41100331E+03</pdfrwt>
<totfact> 0.35676830E+00</totfact>
</mgrwt>
</event>
<event>
 6    1  0.8861680E-004  0.5709116E+03  0.7818608E-02  0.9967663E-01
          2   -1    0    0  502    0  0.00000000000E+00  0.00000000000E+00  0.28049495246E+03  0.28049495246E+03  0.00000000000E+00 0. -1.
         -2   -1    0    0    0  501 -0.00000000000E+00 -0.00000000000E+00 -0.12399330135E+04  0.12399330135E+04  0.00000000000E+00 0.  1.
    9000007    2    1    2  502    0  0.40685950309E+03 -0.20916450833E+02 -0.67026414979E+03  0.88043288461E+03  0.39991984277E+03 0.  0.
    9000005    1    3    3    0    0  0.22849710759E+03 -0.66115439339E+02 -0.63240793662E+02  0.24613528287E+03  0.99999687468E+00 0.  0.
          4    1    3    3  502    0  0.17836239550E+03  0.45198988506E+02 -0.60702335613E+03  0.63429760174E+03  0.00000000000E+00 0.  1.
   -9000007    1    1    2    0  501 -0.40685950309E+03  0.20916450833E+02 -0.28917391120E+03  0.63999508130E+03  0.40000000000E+03 0. -1.
<mgrwt>
<rscale>  2 0.57091163E+03</rscale>
<asrwt>0</asrwt>
<pdfrwt beam="1">  1        2 0.43153069E-01 0.57091163E+03</pdfrwt>
<pdfrwt beam="2">  1       -2 0.19075893E+00 0.57091163E+03</pdfrwt>
<totfact> 0.18733942E+01</totfact>
</mgrwt>
</event>
<event>
 6    1  0.8861680E-004  0.5699600E+03  0.7818608E-02  0.9969767E-01
          2   -1    0    0  502    0  0.00000000000E+00  0.00000000000E+00  0.42223559384E+03  0.42223559384E+03  0.00000000000E+00 0. -1.
         -2   -1    0    0    0  501 -0.00000000000E+00 -0.00000000000E+00 -0.10617409615E+04  0.10617409615E+04  0.00000000000E+00 0.  1.
    9000007    2    1    2  502    0 -0.92664355435E+02  0.39485691153E+03 -0.70924421118E+03  0.91007571928E+03  0.40088876310E+03 0.  0.
    9000005    1    3    3    0    0 -0.70734141908E+02 -0.56686861091E+02 -0.24879615789E+03  0.26479661483E+03  0.99999687468E+00 0.  0.
          4    1    3    3  502    0 -0.21930213527E+02  0.45154377262E+03 -0.46044805329E+03  0.64527910445E+03  0.00000000000E+00 0.  1.
   -9000007    1    1    2    0  501  0.92664355435E+02 -0.39485691153E+03  0.69738843513E+02  0.57390083607E+03  0.40000000000E+03 0. -1.
<mgrwt>
<rscale>  2 0.56995997E+03</rscale>
<asrwt>0</asrwt>
<pdfrwt beam="1">  1        2 0.64959323E-01 0.56995997E+03</pdfrwt>
<pdfrwt beam="2">  1       -2 0.16334476E+00 0.56995997E+03</pdfrwt>
<totfact> 0.18380687E+01</totfact>
</mgrwt>
</event>
<event>
 6    1  0.8861680E-004  0.4135668E+03  0.7818608E-02  0.1039181E+00
          2   -1    0    0  502    0  0.00000000000E+00  0.00000000000E+00  0.13481812872E+04  0.13481812872E+04  0.00000000000E+00 0. -1.
         -2   -1    0    0    0  501 -0.00000000000E+00 -0.00000000000E+00 -0.14542881339E+03  0.14542881339E+03  0.00000000000E+00 0.  1.
    9000007    2    1    2  502    0 -0.10963867803E+03  0.16595832197E+02  0.33265125694E+03  0.52957058431E+03  0.39685272288E+03 0.  0.
    9000005    1    3    3    0    0  0.12793093474E+03  0.90900068880E+02  0.17434465361E+03  0.23457665021E+03  0.99999687468E+00 0.  0.
          4    1    3    3  502    0 -0.23756961277E+03 -0.74304236683E+02  0.15830660333E+03  0.29499393410E+03  0.00000000000E+00 0.  1.
   -9000007    1    1    2    0  501  0.10963867803E+03 -0.16595832197E+02  0.87010121689E+03  0.96403951631E+03  0.40000000000E+03 0. -1.
<mgrwt>
<rscale>  2 0.41356681E+03</rscale>
<asrwt>0</asrwt>
<pdfrwt beam="1">  1        2 0.20741250E+00 0.41356681E+03</pdfrwt>
<pdfrwt beam="2">  1       -2 0.22373665E-01 0.41356681E+03</pdfrwt>
<totfact> 0.28209490E+02</totfact>
</mgrwt>
</event>
<event>
 6    1  0.8861680E-004  0.4213088E+03  0.7818608E-02  0.1036641E+00
          2   -1    0    0  502    0  0.00000000000E+00  0.00000000000E+00  0.93210639677E+03  0.93210639677E+03  0.00000000000E+00 0.  1.
         -2   -1    0    0    0  501 -0.00000000000E+00 -0.00000000000E+00 -0.19414740711E+03  0.19414740711E+03  0.00000000000E+00 0. -1.
    9000007    2    1    2  502    0 -0.73538016094E+01 -0.12935414630E+03  0.44762251960E+03  0.61529212293E+03  0.40178589189E+03 0.  0.
    9000005    1    3    3    0    0  0.14731769442E+02 -0.23557375442E+03  0.10951523176E+03  0.26020492843E+03  0.99999687468E+00 0.  0.
          4    1    3    3  502    0 -0.22085571051E+02  0.10621960812E+03  0.33810728785E+03  0.35508719450E+03  0.00000000000E+00 0.  1.
   -9000007    1    1    2    0  501  0.73538016094E+01  0.12935414630E+03  0.29033647005E+03  0.51096168095E+03  0.40000000000E+03 0. -1.
<mgrwt>
<rscale>  2 0.42130877E+03</rscale>
<asrwt>0</asrwt>
<pdfrwt beam="1">  1        2 0.14340098E+00 0.42130877E+03</pdfrwt>
<pdfrwt beam="2">  1       -2 0.29868833E-01 0.42130877E+03</pdfrwt>
<totfact> 0.29662557E+02</totfact>
</mgrwt>
</event>
<event>
 6    1  0.8861680E-004  0.6168138E+03  0.7818608E-02  0.9871124E-01
          1   -1    0    0  502    0  0.00000000000E+00  0.00000000000E+00  0.28234305615E+04  0.28234305615E+04  0.00000000000E+00 0. -1.
         -1   -1    0    0    0  501 -0.00000000000E+00 -0.00000000000E+00 -0.13749109846E+03  0.13749109846E+03  0.00000000000E+00 0.  1.
    9000007    2    1    2  502    0 -0.36839764184E+03 -0.29136577398E+03  0.11336974538E+04  0.12905725671E+04  0.39962081707E+03 0.  0.
    9000005    1    3    3    0    0  0.62043148386E+02 -0.36269744890E+02  0.37442374192E+03  0.38125973452E+03  0.99999687468E+00 0.  0.
          4    1    3    3  502    0 -0.43044079022E+03 -0.25509602909E+03  0.75927371189E+03  0.90931283259E+03  0.00000000000E+00 0.  1.
   -9000007    1    1    2    0  501  0.36839764184E+03  0.29136577398E+03  0.15522420092E+04  0.16703490928E+04  0.40000000000E+03 0. -1.
<mgrwt>
<rscale>  2 0.61681375E+03</rscale>
<asrwt>0</asrwt>
<pdfrwt beam="1">  1        1 0.43437389E+00 0.61681375E+03</pdfrwt>
<pdfrwt beam="2">  1       -1 0.21152479E-01 0.61681375E+03</pdfrwt>
<totfact> 0.16113584E+01</totfact>
</mgrwt>
</event>
<event>
 6    1  0.8861680E-004  0.5725985E+03  0.7818608E-02  0.9963945E-01
          2   -1    0    0  502    0  0.00000000000E+00  0.00000000000E+00  0.21058232178E+04  0.21058232178E+04  0.00000000000E+00 0. -1.
         -2   -1    0    0    0  501 -0.00000000000E+00 -0.00000000000E+00 -0.17108010787E+03  0.17108010787E+03  0.00000000000E+00 0.  1.
    9000007    2    1    2  502    0 -0.13725332782E+03  0.38574032761E+03  0.62630130843E+03  0.84873876084E+03  0.40058716762E+03 0.  0.
    9000005    1    3    3    0    0 -0.21214197488E+03  0.43294487171E+03  0.55422571310E+03  0.73458329718E+03  0.99999687468E+00 0.  0.
          4    1    3    3  502    0  0.74888647053E+02 -0.47204544095E+02  0.72075595326E+02  0.11415546365E+03  0.00000000000E+00 0.  1.
   -9000007    1    1    2    0  501  0.13725332782E+03 -0.38574032761E+03  0.13084418015E+04  0.14281645648E+04  0.40000000000E+03 0. -1.
<mgrwt>
<rscale>  2 0.57259849E+03</rscale>
<asrwt>0</asrwt>
<pdfrwt beam="1">  1        2 0.32397278E+00 0.57259849E+03</pdfrwt>
<pdfrwt beam="2">  1       -2 0.26320018E-01 0.57259849E+03</pdfrwt>
<totfact> 0.80193365E+01</totfact>
</mgrwt>
</event>
<event>
 6    1  0.8861680E-004  0.4082680E+03  0.7818608E-02  0.1040954E+00
         -4   -1    0    0    0  501 -0.00000000000E+00  0.00000000000E+00  0.47976893318E+03  0.47976893318E+03  0.00000000000E+00 0.  1.
          4   -1    0    0  502    0  0.00000000000E+00 -0.00000000000E+00 -0.35465161483E+03  0.35465161483E+03  0.00000000000E+00 0. -1.
    9000007    2    1    2  502    0  0.79318993225E+02 -0.21287054908E+02  0.29833616271E+01  0.40820306271E+03  0.39984521826E+03 0.  0.
    9000005    1    3    3    0    0  0.41752928818E+02  0.84579461965E+02 -0.17438012161E+03  0.19825846579E+03  0.99999687468E+00 0.  0.
          4    1    3    3  502    0  0.37566064407E+02 -0.10586651687E+03  0.17736348323E+03  0.20994459692E+03  0.00000000000E+00 0.  1.
   -9000007    1    1    2    0  501 -0.79318993225E+02  0.21287054908E+02  0.12213395673E+03  0.42621748530E+03  0.40000000000E+03 0. -1.
<mgrwt>
<rscale>  2 0.40826796E+03</rscale>
<asrwt>0</asrwt>
<pdfrwt beam="1">  1        4 0.54561787E-01 0.40826796E+03</pdfrwt>
<pdfrwt beam="2">  1       -4 0.73810605E-01 0.40826796E+03</pdfrwt>
<totfact> 0.10277351E+01</totfact>
</mgrwt>
</event>
<event>
 6    1  0.8861680E-004  0.6908544E+03  0.7818608E-02  0.9733001E-01
          1   -1    0    0  502    0  0.00000000000E+00  0.00000000000E+00  0.80744314488E+03  0.80744314488E+03  0.00000000000E+00 0. -1.
         -1   -1    0    0    0  501 -0.00000000000E+00 -0.00000000000E+00 -0.62950864724E+03  0.62950864724E+03  0.00000000000E+00 0.  1.
    9000007    2    1    2  502    0 -0.55241488306E+03 -0.11230533996E+03 -0.88545500737E+02  0.69615068391E+03  0.39876155356E+03 0.  0.
    9000005    1    3    3    0    0 -0.25139334960E+03 -0.13026435124E+03 -0.22836461156E+03  0.36375653016E+03  0.99999687468E+00 0.  0.
          4    1    3    3  502    0 -0.30102153346E+03  0.17959011284E+02  0.13981911083E+03  0.33239415375E+03  0.00000000000E+00 0.  1.
   -9000007    1    1    2    0  501  0.55241488306E+03  0.11230533996E+03  0.26647999838E+03  0.74080110822E+03  0.40000000000E+03 0. -1.
<mgrwt>
<rscale>  2 0.69085442E+03</rscale>
<asrwt>0</asrwt>
<pdfrwt beam="1">  1        1 0.12422202E+00 0.69085442E+03</pdfrwt>
<pdfrwt beam="2">  1       -1 0.96847484E-01 0.69085442E+03</pdfrwt>
<totfact> 0.23091364E+01</totfact>
</mgrwt>
</event>
<event>
 6    1  0.8861680E-004  0.4090674E+03  0.7818608E-02  0.1040684E+00
         -2   -1    0    0    0  501 -0.00000000000E+00  0.00000000000E+00  0.32905359104E+03  0.32905359104E+03  0.00000000000E+00 0. -1.
          2   -1    0    0  502    0  0.00000000000E+00 -0.00000000000E+00 -0.50986043818E+03  0.50986043818E+03  0.00000000000E+00 0.  1.
    9000007    2    1    2  502    0 -0.67414800705E+01 -0.85697774606E+02 -0.11175362639E+03  0.42399487635E+03  0.39986651027E+03 0.  0.
    9000005    1    3    3    0    0 -0.72380686498E+02 -0.20294189516E+03  0.42297139641E+02  0.21957783268E+03  0.99999687468E+00 0.  0.
          4    1    3    3  502    0  0.65639206428E+02  0.11724412056E+03 -0.15405076603E+03  0.20441704366E+03  0.00000000000E+00 0.  1.
   -9000007    1    1    2    0  501  0.67414800705E+01  0.85697774606E+02 -0.69053220758E+02  0.41491915288E+03  0.40000000000E+03 0. -1.
<mgrwt>
<rscale>  2 0.40906743E+03</rscale>
<asrwt>0</asrwt>
<pdfrwt beam="1">  1        2 0.78440067E-01 0.40906743E+03</pdfrwt>
<pdfrwt beam="2">  1       -2 0.50623629E-01 0.40906743E+03</pdfrwt>
<totfact> 0.22781504E+02</totfact>
</mgrwt>
</event>
<event>
 6    1  0.8861680E-004  0.5596881E+03  0.7818608E-02  0.9992761E-01
          2   -1    0    0  502    0  0.00000000000E+00  0.00000000000E+00  0.13936403424E+04  0.13936403424E+04  0.00000000000E+00 0. -1.
         -2   -1    0    0    0  501 -0.00000000000E+00 -0.00000000000E+00 -0.50677884782E+03  0.50677884782E+03  0.00000000000E+00 0.  1.
    9000007    2    1    2  502    0 -0.26481559243E+03  0.28826678560E+03  0.11522658866E+04  0.12810125959E+04  0.40006444445E+03 0.  0.
    9000005    1    3    3    0    0 -0.10548551697E+02 -0.11821078444E+02  0.61476957942E+03  0.61497450810E+03  0.99999687468E+00 0.  0.
          4    1    3    3  502    0 -0.25426704073E+03  0.30008786404E+03  0.53749630722E+03  0.66603808782E+03  0.00000000000E+00 0.  1.
   -9000007    1    1    2    0  501  0.26481559243E+03 -0.28826678560E+03 -0.26540439210E+03  0.61940659426E+03  0.40000000000E+03 0.  1.
<mgrwt>
<rscale>  2 0.55968814E+03</rscale>
<asrwt>0</asrwt>
<pdfrwt beam="1">  1        2 0.21440621E+00 0.55968814E+03</pdfrwt>
<pdfrwt beam="2">  1       -2 0.77965977E-01 0.55968814E+03</pdfrwt>
<totfact> 0.22413056E+01</totfact>
</mgrwt>
</event>
<event>
 6    1  0.8861680E-004  0.4115333E+03  0.7818608E-02  0.1039858E+00
         -2   -1    0    0    0  501 -0.00000000000E+00  0.00000000000E+00  0.14613360621E+03  0.14613360621E+03  0.00000000000E+00 0.  1.
          2   -1    0    0  502    0  0.00000000000E+00 -0.00000000000E+00 -0.15205981372E+04  0.15205981372E+04  0.00000000000E+00 0. -1.
    9000007    2    1    2  502    0 -0.10821180898E+02  0.95547929707E+02 -0.10938312688E+04  0.11687342207E+04  0.40028281143E+03 0.  0.
    9000005    1    3    3    0    0  0.14552195400E+03  0.10874555078E+03 -0.90580948988E+03  0.92384742564E+03  0.99999687468E+00 0.  0.
          4    1    3    3  502    0 -0.15634313490E+03 -0.13197621068E+02 -0.18802177893E+03  0.24488679504E+03  0.00000000000E+00 0.  1.
   -9000007    1    1    2    0  501  0.10821180898E+02 -0.95547929707E+02 -0.28063326221E+03  0.49799752277E+03  0.40000000000E+03 0.  1.
<mgrwt>
<rscale>  2 0.41153327E+03</rscale>
<asrwt>0</asrwt>
<pdfrwt beam="1">  1        2 0.23393818E+00 0.41153327E+03</pdfrwt>
<pdfrwt beam="2">  1       -2 0.22482093E-01 0.41153327E+03</pdfrwt>
<totfact> 0.22484425E+02</totfact>
</mgrwt>
</event>
<event>
 6    1  0.8861680E-004  0.6909775E+03  0.7818608E-02  0.9732788E-01
         -1   -1    0    0    0  501 -0.00000000000E+00  0.00000000000E+00  0.24165095547E+03  0.24165095547E+03  0.00000000000E+00 0. -1.
          1   -1    0    0  502    0  0.00000000000E+00 -0.00000000000E+00 -0.22288826294E+04  0.22288826294E+04  0.00000000000E+00 0.  1.
    9000007    2    1    2  502    0  0.23418506848E+03  0.51207483797E+03 -0.57771454844E+03  0.90088336491E+03  0.40096564905E+03 0.  0.
    9000005    1    3    3    0    0  0.26533470510E+03  0.39307852453E+03 -0.22035045832E+03  0.52294221158E+03  0.99999687468E+00 0.  0.
          4    1    3    3  502    0 -0.31149636623E+02  0.11899631344E+03 -0.35736409012E+03  0.37794115333E+03  0.00000000000E+00 0.  1.
   -9000007    1    1    2    0  501 -0.23418506848E+03 -0.51207483797E+03 -0.14095171255E+04  0.15696502200E+04  0.40000000000E+03 0.  1.
<mgrwt>
<rscale>  2 0.69097746E+03</rscale>
<asrwt>0</asrwt>
<pdfrwt beam="1">  1        1 0.34290502E+00 0.69097746E+03</pdfrwt>
<pdfrwt beam="2">  1       -1 0.37177070E-01 0.69097746E+03</pdfrwt>
<totfact> 0.15298169E+01</totfact>
</mgrwt>
</event>
<event>
 6    1  0.8861680E-004  0.4218904E+03  0.7818608E-02  0.1036453E+00
         -2   -1    0    0    0  501 -0.00000000000E+00  0.00000000000E+00  0.34482109239E+03  0.34482109239E+03  0.00000000000E+00 0.  1.
          2   -1    0    0  502    0  0.00000000000E+00 -0.00000000000E+00 -0.58486540148E+03  0.58486540148E+03  0.00000000000E+00 0. -1.
    9000007    2    1    2  502    0 -0.71457713172E+02  0.11283531335E+03 -0.27936003073E+03  0.50614931878E+03  0.40038368276E+03 0.  0.
    9000005    1    3    3    0    0  0.16154554085E+03  0.41616875708E+01 -0.13941750646E+03  0.21343036923E+03  0.99999687468E+00 0.  0.
          4    1    3    3  502    0 -0.23300325402E+03  0.10867362578E+03 -0.13994252427E+03  0.29271894954E+03  0.00000000000E+00 0.  1.
   -9000007    1    1    2    0  501  0.71457713172E+02 -0.11283531335E+03  0.39315721639E+02  0.42353717508E+03  0.40000000000E+03 0.  1.
<mgrwt>
<rscale>  2 0.42189038E+03</rscale>
<asrwt>0</asrwt>
<pdfrwt beam="1">  1        2 0.89979292E-01 0.42189038E+03</pdfrwt>
<pdfrwt beam="2">  1       -2 0.53049399E-01 0.42189038E+03</pdfrwt>
<totfact> 0.17649003E+02</totfact>
</mgrwt>
</event>
<event>
 6    1  0.8861680E-004  0.4079238E+03  0.7818608E-02  0.1041070E+00
          2   -1    0    0  502    0  0.00000000000E+00  0.00000000000E+00  0.73775290236E+03  0.73775290236E+03  0.00000000000E+00 0. -1.
         -2   -1    0    0    0  501 -0.00000000000E+00 -0.00000000000E+00 -0.22582130951E+03  0.22582130951E+03  0.00000000000E+00 0.  1.
    9000007    2    1    2  502    0 -0.43498985986E+02 -0.65772852957E+02  0.27273528177E+03  0.49088710055E+03  0.40045896369E+03 0.  0.
    9000005    1    3    3    0    0 -0.11403100547E+03  0.13961298958E+03  0.18002946456E+03  0.25476747275E+03  0.99999687468E+00 0.  0.
          4    1    3    3  502    0  0.70532019482E+02 -0.20538584254E+03  0.92705817210E+02  0.23611962780E+03  0.00000000000E+00 0.  1.
   -9000007    1    1    2    0  501  0.43498985986E+02  0.65772852957E+02  0.23919631108E+03  0.47268711131E+03  0.40000000000E+03 0. -1.
<mgrwt>
<rscale>  2 0.40792379E+03</rscale>
<asrwt>0</asrwt>
<pdfrwt beam="1">  1        2 0.11350045E+00 0.40792379E+03</pdfrwt>
<pdfrwt beam="2">  1       -2 0.34741740E-01 0.40792379E+03</pdfrwt>
<totfact> 0.30526078E+02</totfact>
</mgrwt>
</event>
<event>
 6    1  0.8861680E-004  0.4128446E+03  0.7818608E-02  0.1039421E+00
          2   -1    0    0  502    0  0.00000000000E+00  0.00000000000E+00  0.91530093958E+03  0.91530093958E+03  0.00000000000E+00 0. -1.
         -2   -1    0    0    0  501 -0.00000000000E+00 -0.00000000000E+00 -0.18714264531E+03  0.18714264531E+03  0.00000000000E+00 0.  1.
    9000007    2    1    2  502    0  0.20550301377E+02  0.10092299857E+03  0.32504580103E+03  0.52528897064E+03  0.39958223608E+03 0.  0.
    9000005    1    3    3    0    0 -0.15921433855E+02  0.24474429753E+03  0.12233898550E+03  0.27408226976E+03  0.99999687468E+00 0.  0.
          4    1    3    3  502    0  0.36471735232E+02 -0.14382129896E+03  0.20270681553E+03  0.25120670088E+03  0.00000000000E+00 0.  1.
   -9000007    1    1    2    0  501 -0.20550301377E+02 -0.10092299857E+03  0.40311249325E+03  0.57715461424E+03  0.40000000000E+03 0. -1.
<mgrwt>
<rscale>  2 0.41284460E+03</rscale>
<asrwt>0</asrwt>
<pdfrwt beam="1">  1        2 0.14081553E+00 0.41284460E+03</pdfrwt>
<pdfrwt beam="2">  1       -2 0.28791177E-01 0.41284460E+03</pdfrwt>
<totfact> 0.32557804E+02</totfact>
</mgrwt>
</event>
<event>
 6    1  0.8861680E-004  0.5030775E+03  0.7818608E-02  0.1012979E+00
         -2   -1    0    0    0  501 -0.00000000000E+00  0.00000000000E+00  0.35638038821E+03  0.35638038821E+03  0.00000000000E+00 0. -1.
          2   -1    0    0  502    0  0.00000000000E+00 -0.00000000000E+00 -0.71118297098E+03  0.71118297098E+03  0.00000000000E+00 0.  1.
    9000007    2    1    2  502    0 -0.14846409211E+03 -0.26556116302E+03 -0.19782479833E+03  0.54105947244E+03  0.40130584837E+03 0.  0.
    9000005    1    3    3    0    0 -0.12787018091E+02 -0.92053944126E+02 -0.28832476974E+03  0.30293499187E+03  0.99999687468E+00 0.  0.
          4    1    3    3  502    0 -0.13567707402E+03 -0.17350721889E+03  0.90499971407E+02  0.23812448057E+03  0.00000000000E+00 0.  1.
   -9000007    1    1    2    0  501  0.14846409211E+03  0.26556116302E+03 -0.15697778443E+03  0.52650388675E+03  0.40000000000E+03 0. -1.
<mgrwt>
<rscale>  2 0.50307750E+03</rscale>
<asrwt>0</asrwt>
<pdfrwt beam="1">  1        2 0.10941276E+00 0.50307750E+03</pdfrwt>
<pdfrwt beam="2">  1       -2 0.54827753E-01 0.50307750E+03</pdfrwt>
<totfact> 0.12925422E+02</totfact>
</mgrwt>
</event>
<event>
 6    1  0.8861680E-004  0.4155909E+03  0.7818608E-02  0.1038511E+00
         -2   -1    0    0    0  501 -0.00000000000E+00  0.00000000000E+00  0.18820105341E+03  0.18820105341E+03  0.00000000000E+00 0. -1.
          2   -1    0    0  502    0  0.00000000000E+00 -0.00000000000E+00 -0.91777043249E+03  0.91777043249E+03  0.00000000000E+00 0.  1.
    9000007    2    1    2  502    0  0.30245054639E+01  0.10620693997E+03 -0.36287001867E+03  0.55301806774E+03  0.40356569609E+03 0.  0.
    9000005    1    3    3    0    0  0.56186167618E+02  0.12082509219E+03  0.45602791544E+02  0.14084105554E+03  0.99999687468E+00 0.  0.
          4    1    3    3  502    0 -0.53161662154E+02 -0.14618152223E+02 -0.40847281022E+03  0.41217701220E+03  0.00000000000E+00 0.  1.
   -9000007    1    1    2    0  501 -0.30245054639E+01 -0.10620693997E+03 -0.36669936041E+03  0.55295341816E+03  0.40000000000E+03 0.  1.
<mgrwt>
<rscale>  2 0.41559085E+03</rscale>
<asrwt>0</asrwt>
<pdfrwt beam="1">  1        2 0.14119545E+00 0.41559085E+03</pdfrwt>
<pdfrwt beam="2">  1       -2 0.28954008E-01 0.41559085E+03</pdfrwt>
<totfact> 0.32097864E+02</totfact>
</mgrwt>
</event>
<event>
 6    1  0.8861680E-004  0.4267788E+03  0.7818608E-02  0.1034882E+00
         -1   -1    0    0    0  501 -0.00000000000E+00  0.00000000000E+00  0.91443528008E+03  0.91443528008E+03  0.00000000000E+00 0. -1.
          1   -1    0    0  502    0  0.00000000000E+00 -0.00000000000E+00 -0.20079212623E+03  0.20079212623E+03  0.00000000000E+00 0.  1.
    9000007    2    1    2  502    0  0.10409094644E+03  0.10083066372E+03  0.30804781979E+03  0.52742699556E+03  0.40284491866E+03 0.  0.
    9000005    1    3    3    0    0  0.14648386310E+03 -0.90412973521E+02  0.28120439303E+03  0.32971038592E+03  0.99999687468E+00 0.  0.
          4    1    3    3  502    0 -0.42392916657E+02  0.19124363724E+03  0.26843426758E+02  0.19771660964E+03  0.00000000000E+00 0.  1.
   -9000007    1    1    2    0  501 -0.10409094644E+03 -0.10083066372E+03  0.40559533406E+03  0.58780041076E+03  0.40000000000E+03 0.  1.
<mgrwt>
<rscale>  2 0.42677884E+03</rscale>
<asrwt>0</asrwt>
<pdfrwt beam="1">  1        1 0.30891097E-01 0.42677884E+03</pdfrwt>
<pdfrwt beam="2">  1       -1 0.14068235E+00 0.42677884E+03</pdfrwt>
<totfact> 0.64209953E+01</totfact>
</mgrwt>
</event>
<event>
 6    1  0.8861680E-004  0.4949791E+03  0.7818608E-02  0.1015098E+00
         -2   -1    0    0    0  501 -0.00000000000E+00  0.00000000000E+00  0.92881604577E+03  0.92881604577E+03  0.00000000000E+00 0. -1.
          2   -1    0    0  502    0  0.00000000000E+00 -0.00000000000E+00 -0.30941201446E+03  0.30941201446E+03  0.00000000000E+00 0.  1.
    9000007    2    1    2  502    0  0.26887519424E+03 -0.11115781232E+03  0.54764819436E+03  0.73842927127E+03  0.40088566270E+03 0.  0.
    9000005    1    3    3    0    0  0.35931316903E+03 -0.65979537891E+02  0.30621252789E+03  0.47668266707E+03  0.99999687468E+00 0.  0.
          4    1    3    3  502    0 -0.90437974786E+02 -0.45178274431E+02  0.24143566647E+03  0.26174660419E+03  0.00000000000E+00 0.  1.
   -9000007    1    1    2    0  501 -0.26887519424E+03  0.11115781232E+03  0.71755836953E+02  0.49979878897E+03  0.40000000000E+03 0. -1.
<mgrwt>
<rscale>  2 0.49497912E+03</rscale>
<asrwt>0</asrwt>
<pdfrwt beam="1">  1        2 0.47601849E-01 0.49497912E+03</pdfrwt>
<pdfrwt beam="2">  1       -2 0.14289477E+00 0.49497912E+03</pdfrwt>
<totfact> 0.37280579E+01</totfact>
</mgrwt>
</event>
<event>
 6    1  0.8861680E-004  0.4507547E+03  0.7818608E-02  0.1027497E+00
          2   -1    0    0  502    0  0.00000000000E+00  0.00000000000E+00  0.73748078395E+03  0.73748078395E+03  0.00000000000E+00 0.  1.
         -2   -1    0    0    0  501 -0.00000000000E+00 -0.00000000000E+00 -0.27583317489E+03  0.27583317489E+03  0.00000000000E+00 0. -1.
    9000007    2    1    2  502    0  0.16239711749E+03 -0.12460493497E+03  0.24894940991E+03  0.51618244958E+03  0.40319883304E+03 0.  0.
    9000005    1    3    3    0    0 -0.35974211543E+02 -0.22152354060E+03  0.80314683111E+02  0.23836583492E+03  0.99999687468E+00 0.  0.
          4    1    3    3  502    0  0.19837132903E+03  0.96918605631E+02  0.16863472680E+03  0.27781661466E+03  0.00000000000E+00 0.  1.
   -9000007    1    1    2    0  501 -0.16239711749E+03  0.12460493497E+03  0.21269819915E+03  0.49713150927E+03  0.40000000000E+03 0. -1.
<mgrwt>
<rscale>  2 0.45075470E+03</rscale>
<asrwt>0</asrwt>
<pdfrwt beam="1">  1        2 0.11345858E+00 0.45075470E+03</pdfrwt>
<pdfrwt beam="2">  1       -2 0.42435873E-01 0.45075470E+03</pdfrwt>
<totfact> 0.20739820E+02</totfact>
</mgrwt>
</event>
<event>
 6    1  0.8861680E-004  0.5192993E+03  0.7818608E-02  0.1008861E+00
          1   -1    0    0  502    0  0.00000000000E+00  0.00000000000E+00  0.73682543897E+03  0.73682543897E+03  0.00000000000E+00 0.  1.
         -1   -1    0    0    0  501 -0.00000000000E+00 -0.00000000000E+00 -0.41159605330E+03  0.41159605330E+03  0.00000000000E+00 0. -1.
    9000007    2    1    2  502    0 -0.68217128193E+02 -0.32383556166E+03 -0.28480395176E+02  0.52022275250E+03  0.40037174192E+03 0.  0.
    9000005    1    3    3    0    0  0.10218848367E+03 -0.32482886275E+03  0.25474641692E+02  0.34147654917E+03  0.99999687468E+00 0.  0.
          4    1    3    3  502    0 -0.17040561186E+03  0.99330108521E+00 -0.53955036868E+02  0.17874620333E+03  0.00000000000E+00 0.  1.
   -9000007    1    1    2    0  501  0.68217128193E+02  0.32383556166E+03  0.35370978085E+03  0.62819873977E+03  0.40000000000E+03 0.  1.
<mgrwt>
<rscale>  2 0.51929931E+03</rscale>
<asrwt>0</asrwt>
<pdfrwt beam="1">  1        1 0.11335776E+00 0.51929931E+03</pdfrwt>
<pdfrwt beam="2">  1       -1 0.63322470E-01 0.51929931E+03</pdfrwt>
<totfact> 0.66558327E+01</totfact>
</mgrwt>
</event>
<event>
 6    1  0.8861680E-004  0.5973676E+03  0.7818608E-02  0.9910882E-01
         -2   -1    0    0    0  501 -0.00000000000E+00  0.00000000000E+00  0.57963466750E+03  0.57963466750E+03  0.00000000000E+00 0.  1.
          2   -1    0    0  502    0  0.00000000000E+00 -0.00000000000E+00 -0.70338245653E+03  0.70338245653E+03  0.00000000000E+00 0. -1.
    9000007    2    1    2  502    0  0.14097236972E+03 -0.42131380506E+03  0.16473659282E+03  0.61923871978E+03  0.39867269244E+03 0.  0.
    9000005    1    3    3    0    0  0.20812477691E+03 -0.40737226116E+03  0.18633373603E+02  0.45783871017E+03  0.99999687468E+00 0.  0.
          4    1    3    3  502    0 -0.67152407188E+02 -0.13941543909E+02  0.14610321922E+03  0.16140000962E+03  0.00000000000E+00 0.  1.
   -9000007    1    1    2    0  501 -0.14097236972E+03  0.42131380506E+03 -0.28848438186E+03  0.66377840424E+03  0.40000000000E+03 0. -1.
<mgrwt>
<rscale>  2 0.59736764E+03</rscale>
<asrwt>0</asrwt>
<pdfrwt beam="1">  1        2 0.10821268E+00 0.59736764E+03</pdfrwt>
<pdfrwt beam="2">  1       -2 0.89174565E-01 0.59736764E+03</pdfrwt>
<totfact> 0.45126856E+01</totfact>
</mgrwt>
</event>
<event>
 6    1  0.8861680E-004  0.4055197E+03  0.7818608E-02  0.1041885E+00
          1   -1    0    0  502    0  0.00000000000E+00  0.00000000000E+00  0.88534081149E+03  0.88534081149E+03  0.00000000000E+00 0.  1.
         -1   -1    0    0    0  501 -0.00000000000E+00 -0.00000000000E+00 -0.32097306005E+03  0.32097306005E+03  0.00000000000E+00 0. -1.
    9000007    2    1    2  502    0  0.21021761023E+02 -0.65024750120E+02 -0.10942717968E+03  0.41975825255E+03  0.39944029637E+03 0.  0.
    9000005    1    3    3    0    0  0.10978132141E+03 -0.13964144657E+03  0.82239538309E+02  0.19574476694E+03  0.99999687468E+00 0.  0.
          4    1    3    3  502    0 -0.88759560391E+02  0.74616696447E+02 -0.19166671799E+03  0.22401348561E+03  0.00000000000E+00 0.  1.
   -9000007    1    1    2    0  501 -0.21021761023E+02  0.65024750120E+02  0.67379493112E+03  0.78655561899E+03  0.40000000000E+03 0.  1.
<mgrwt>
<rscale>  2 0.40551974E+03</rscale>
<asrwt>0</asrwt>
<pdfrwt beam="1">  1        1 0.13620628E+00 0.40551974E+03</pdfrwt>
<pdfrwt beam="2">  1       -1 0.49380471E-01 0.40551974E+03</pdfrwt>
<totfact> 0.81568512E+01</totfact>
</mgrwt>
</event>
<event>
 6    1  0.8861680E-004  0.4104656E+03  0.7818608E-02  0.1040215E+00
         -1   -1    0    0    0  501 -0.00000000000E+00  0.00000000000E+00  0.86135431671E+03  0.86135431671E+03  0.00000000000E+00 0.  1.
          1   -1    0    0  502    0  0.00000000000E+00 -0.00000000000E+00 -0.24450777688E+03  0.24450777688E+03  0.00000000000E+00 0. -1.
    9000007    2    1    2  502    0  0.75567138810E+02 -0.53069549671E+02  0.55568123948E+03  0.69081033352E+03  0.39988811863E+03 0.  0.
    9000005    1    3    3    0    0 -0.11073226285E+03  0.40917194275E+02  0.43288700597E+03  0.44869590008E+03  0.99999687468E+00 0.  0.
          4    1    3    3  502    0  0.18629940166E+03 -0.93986743946E+02  0.12279423351E+03  0.24211443344E+03  0.00000000000E+00 0.  1.
   -9000007    1    1    2    0  501 -0.75567138810E+02  0.53069549671E+02  0.61165300360E+02  0.41505176007E+03  0.40000000000E+03 0. -1.
<mgrwt>
<rscale>  2 0.41046561E+03</rscale>
<asrwt>0</asrwt>
<pdfrwt beam="1">  1        1 0.37616581E-01 0.41046561E+03</pdfrwt>
<pdfrwt beam="2">  1       -1 0.13251605E+00 0.41046561E+03</pdfrwt>
<totfact> 0.58231667E+01</totfact>
</mgrwt>
</event>
<event>
 6    1  0.8861680E-004  0.5912471E+03  0.7818608E-02  0.9923734E-01
          2   -1    0    0  502    0  0.00000000000E+00  0.00000000000E+00  0.75890890669E+03  0.75890890669E+03  0.00000000000E+00 0. -1.
         -2   -1    0    0    0  501 -0.00000000000E+00 -0.00000000000E+00 -0.57209680586E+03  0.57209680586E+03  0.00000000000E+00 0.  1.
    9000007    2    1    2  502    0  0.36951528655E+03  0.22956112392E+03  0.38720388232E+03  0.70698910805E+03  0.40083275291E+03 0.  0.
    9000005    1    3    3    0    0  0.45364286912E+03  0.20056353653E+03  0.36338438195E+03  0.61487136372E+03  0.99999687468E+00 0.  0.
          4    1    3    3  502    0 -0.84127582565E+02  0.28997587387E+02  0.23819500370E+02  0.92117744329E+02  0.00000000000E+00 0.  1.
   -9000007    1    1    2    0  501 -0.36951528655E+03 -0.22956112392E+03 -0.20039178149E+03  0.62401660451E+03  0.40000000000E+03 0. -1.
<mgrwt>
<rscale>  2 0.59124711E+03</rscale>
<asrwt>0</asrwt>
<pdfrwt beam="1">  1        2 0.11675522E+00 0.59124711E+03</pdfrwt>
<pdfrwt beam="2">  1       -2 0.88014892E-01 0.59124711E+03</pdfrwt>
<totfact> 0.42243964E+01</totfact>
</mgrwt>
</event>
<event>
 6    1  0.8861680E-004  0.4517392E+03  0.7818608E-02  0.1027205E+00
          2   -1    0    0  502    0  0.00000000000E+00  0.00000000000E+00  0.83686031141E+03  0.83686031141E+03  0.00000000000E+00 0. -1.
         -2   -1    0    0    0  501 -0.00000000000E+00 -0.00000000000E+00 -0.25827765639E+03  0.25827765639E+03  0.00000000000E+00 0.  1.
    9000007    2    1    2  502    0  0.17128596789E+03 -0.12247231930E+03  0.15969339766E+03  0.47885348664E+03  0.39932484097E+03 0.  0.
    9000005    1    3    3    0    0  0.77132199023E+02  0.63103895651E+02 -0.10326727355E+03  0.14351518231E+03  0.99999687468E+00 0.  0.
          4    1    3    3  502    0  0.94153768871E+02 -0.18557621495E+03  0.26296067121E+03  0.33533830433E+03  0.00000000000E+00 0.  1.
   -9000007    1    1    2    0  501 -0.17128596789E+03  0.12247231930E+03  0.41888925737E+03  0.61628448117E+03  0.40000000000E+03 0. -1.
<mgrwt>
<rscale>  2 0.45173924E+03</rscale>
<asrwt>0</asrwt>
<pdfrwt beam="1">  1        2 0.12874774E+00 0.45173924E+03</pdfrwt>
<pdfrwt beam="2">  1       -2 0.39735025E-01 0.45173924E+03</pdfrwt>
<totfact> 0.20009458E+02</totfact>
</mgrwt>
</event>
<event>
 6    1  0.8861680E-004  0.5268712E+03  0.7818608E-02  0.1006994E+00
         -2   -1    0    0    0  501 -0.00000000000E+00  0.00000000000E+00  0.13823705280E+03  0.13823705280E+03  0.00000000000E+00 0. -1.
          2   -1    0    0  502    0  0.00000000000E+00 -0.00000000000E+00 -0.20125150006E+04  0.20125150006E+04  0.00000000000E+00 0.  1.
    9000007    2    1    2  502    0  0.61438826731E+02 -0.33784647948E+03 -0.88621181101E+03  0.10308459574E+04  0.39919549201E+03 0.  0.
    9000005    1    3    3    0    0  0.80730034983E+02 -0.38428861983E+03 -0.47376647944E+03  0.61534604810E+03  0.99999687468E+00 0.  0.
          4    1    3    3  502    0 -0.19291208252E+02  0.46442140350E+02 -0.41244533157E+03  0.41549990933E+03  0.00000000000E+00 0.  1.
   -9000007    1    1    2    0  501 -0.61438826731E+02  0.33784647948E+03 -0.98806613676E+03  0.11199060959E+04  0.40000000000E+03 0. -1.
<mgrwt>
<rscale>  2 0.52687124E+03</rscale>
<asrwt>0</asrwt>
<pdfrwt beam="1">  1        2 0.30961766E+00 0.52687124E+03</pdfrwt>
<pdfrwt beam="2">  1       -2 0.21267241E-01 0.52687124E+03</pdfrwt>
<totfact> 0.13256288E+02</totfact>
</mgrwt>
</event>
<event>
 6    1  0.8861680E-004  0.4106717E+03  0.7818608E-02  0.1040146E+00
         -1   -1    0    0    0  501 -0.00000000000E+00  0.00000000000E+00  0.96365869269E+02  0.96365869269E+02  0.00000000000E+00 0. -1.
          1   -1    0    0  502    0  0.00000000000E+00 -0.00000000000E+00 -0.18845673478E+04  0.18845673478E+04  0.00000000000E+00 0.  1.
    9000007    2    1    2  502    0  0.62221128107E+01  0.96316073949E+02 -0.11570194028E+04  0.12274703357E+04  0.39833908410E+03 0.  0.
    9000005    1    3    3    0    0 -0.13861083291E+02  0.25225525003E+03 -0.71399844705E+03  0.75737680397E+03  0.99999687468E+00 0.  0.
          4    1    3    3  502    0  0.20083196101E+02 -0.15593917608E+03 -0.44302095572E+03  0.47009353177E+03  0.00000000000E+00 0.  1.
   -9000007    1    1    2    0  501 -0.62221128107E+01 -0.96316073949E+02 -0.63118207574E+03  0.75346288132E+03  0.40000000000E+03 0.  1.
<mgrwt>
<rscale>  2 0.41067166E+03</rscale>
<asrwt>0</asrwt>
<pdfrwt beam="1">  1        1 0.28993345E+00 0.41067166E+03</pdfrwt>
<pdfrwt beam="2">  1       -1 0.14825518E-01 0.41067166E+03</pdfrwt>
<totfact> 0.12820354E+02</totfact>
</mgrwt>
</event>
<event>
 6    1  0.8861680E-004  0.4672100E+03  0.7818608E-02  0.1022711E+00
         -2   -1    0    0    0  501 -0.00000000000E+00  0.00000000000E+00  0.24293073870E+03  0.24293073870E+03  0.00000000000E+00 0.  1.
          2   -1    0    0  502    0  0.00000000000E+00 -0.00000000000E+00 -0.94890153082E+03  0.94890153082E+03  0.00000000000E+00 0. -1.
    9000007    2    1    2  502    0 -0.23485212450E+03  0.56288758355E+02 -0.21568291403E+03  0.51455378315E+03  0.39990315283E+03 0.  0.
    9000005    1    3    3    0    0  0.31523232258E+02 -0.71042139183E+02  0.69352821231E+02  0.10417059815E+03  0.99999687468E+00 0.  0.
          4    1    3    3  502    0 -0.26637535675E+03  0.12733089754E+03 -0.28503573526E+03  0.41038318500E+03  0.00000000000E+00 0.  1.
   -9000007    1    1    2    0  501  0.23485212450E+03 -0.56288758355E+02 -0.49028787809E+03  0.67727848637E+03  0.40000000000E+03 0. -1.
<mgrwt>
<rscale>  2 0.46721002E+03</rscale>
<asrwt>0</asrwt>
<pdfrwt beam="1">  1        2 0.14598485E+00 0.46721002E+03</pdfrwt>
<pdfrwt beam="2">  1       -2 0.37373960E-01 0.46721002E+03</pdfrwt>
<totfact> 0.18934343E+02</totfact>
</mgrwt>
</event>
<event>
 6    1  0.8861680E-004  0.4454187E+03  0.7818608E-02  0.1029097E+00
         -2   -1    0    0    0  501 -0.00000000000E+00  0.00000000000E+00  0.60003043182E+03  0.60003043182E+03  0.00000000000E+00 0.  1.
          2   -1    0    0  502    0  0.00000000000E+00 -0.00000000000E+00 -0.10860625631E+04  0.10860625631E+04  0.00000000000E+00 0. -1.
    9000007    2    1    2  502    0  0.18458321751E+02 -0.19568534206E+03 -0.94607235767E+03  0.10455694023E+04  0.39941082397E+03 0.  0.
    9000005    1    3    3    0    0  0.20677306968E+03 -0.71940966833E+02 -0.43324341222E+03  0.48541884933E+03  0.99999687468E+00 0.  0.
          4    1    3    3  502    0 -0.18831474793E+03 -0.12374437523E+03 -0.51282894545E+03  0.56015055296E+03  0.00000000000E+00 0.  1.
   -9000007    1    1    2    0  501 -0.18458321751E+02  0.19568534206E+03  0.46004022643E+03  0.64052359260E+03  0.40000000000E+03 0.  1.
<mgrwt>
<rscale>  2 0.44541871E+03</rscale>
<asrwt>0</asrwt>
<pdfrwt beam="1">  1        2 0.16708655E+00 0.44541871E+03</pdfrwt>
<pdfrwt beam="2">  1       -2 0.92312374E-01 0.44541871E+03</pdfrwt>
<totfact> 0.23484225E+01</totfact>
</mgrwt>
</event>
<event>
 6    1  0.8861680E-004  0.7035314E+03  0.7818608E-02  0.9711212E-01
         -2   -1    0    0    0  501 -0.00000000000E+00  0.00000000000E+00  0.70413466969E+03  0.70413466969E+03  0.00000000000E+00 0. -1.
          2   -1    0    0  502    0  0.00000000000E+00 -0.00000000000E+00 -0.81853553434E+03  0.81853553434E+03  0.00000000000E+00 0.  1.
    9000007    2    1    2  502    0  0.50484494200E+03  0.28426061573E+03 -0.34328492002E+03  0.78235917216E+03  0.39820701253E+03 0.  0.
    9000005    1    3    3    0    0 -0.45036764646E+02  0.11737381272E+03 -0.36323947882E+02  0.13086386539E+03  0.99999687468E+00 0.  0.
          4    1    3    3  502    0  0.54988170664E+03  0.16688680302E+03 -0.30696097214E+03  0.65149530677E+03  0.00000000000E+00 0.  1.
   -9000007    1    1    2    0  501 -0.50484494200E+03 -0.28426061573E+03  0.22888405537E+03  0.74031103188E+03  0.40000000000E+03 0.  1.
<mgrwt>
<rscale>  2 0.70353138E+03</rscale>
<asrwt>0</asrwt>
<pdfrwt beam="1">  1        2 0.12592854E+00 0.70353138E+03</pdfrwt>
<pdfrwt beam="2">  1       -2 0.10832841E+00 0.70353138E+03</pdfrwt>
<totfact> 0.23214504E+01</totfact>
</mgrwt>
</event>
<event>
 6    1  0.8861680E-004  0.4134631E+03  0.7818608E-02  0.1039215E+00
          2   -1    0    0  502    0  0.00000000000E+00  0.00000000000E+00  0.23795977171E+03  0.23795977171E+03  0.00000000000E+00 0. -1.
         -2   -1    0    0    0  501 -0.00000000000E+00 -0.00000000000E+00 -0.82785759824E+03  0.82785759824E+03  0.00000000000E+00 0.  1.
    9000007    2    1    2  502    0 -0.10299734972E+03 -0.21133498554E+02 -0.48864116496E+03  0.64001461007E+03  0.39974170936E+03 0.  0.
    9000005    1    3    3    0    0 -0.45023407242E+02  0.13130484550E+03 -0.15646218247E+02  0.13969206775E+03  0.99999687468E+00 0.  0.
          4    1    3    3  502    0 -0.57973942480E+02 -0.15243834406E+03 -0.47299494671E+03  0.50032254233E+03  0.00000000000E+00 0.  1.
   -9000007    1    1    2    0  501  0.10299734972E+03  0.21133498554E+02 -0.10125666157E+03  0.42580275988E+03  0.40000000000E+03 0. -1.
<mgrwt>
<rscale>  2 0.41346314E+03</rscale>
<asrwt>0</asrwt>
<pdfrwt beam="1">  1        2 0.36609195E-01 0.41346314E+03</pdfrwt>
<pdfrwt beam="2">  1       -2 0.12736271E+00 0.41346314E+03</pdfrwt>
<totfact> 0.67125952E+01</totfact>
</mgrwt>
</event>
<event>
 6    1  0.8861680E-004  0.6158131E+03  0.7818608E-02  0.9873131E-01
          2   -1    0    0  502    0  0.00000000000E+00  0.00000000000E+00  0.44372571144E+03  0.44372571144E+03  0.00000000000E+00 0. -1.
         -2   -1    0    0    0  501 -0.00000000000E+00 -0.00000000000E+00 -0.85721467879E+03  0.85721467879E+03  0.00000000000E+00 0.  1.
    9000007    2    1    2  502    0 -0.18767675686E+03 -0.42908170313E+03 -0.17106672038E+03  0.63904748435E+03  0.39973014823E+03 0.  0.
    9000005    1    3    3    0    0 -0.16738569280E+03 -0.36503349931E+03  0.53055236265E+02  0.40507194900E+03  0.99999687468E+00 0.  0.
          4    1    3    3  502    0 -0.20291064064E+02 -0.64048203817E+02 -0.22412195665E+03  0.23397553536E+03  0.00000000000E+00 0.  1.
   -9000007    1    1    2    0  501  0.18767675686E+03  0.42908170313E+03 -0.24242224697E+03  0.66189290588E+03  0.40000000000E+03 0.  1.
<mgrwt>
<rscale>  2 0.61581308E+03</rscale>
<asrwt>0</asrwt>
<pdfrwt beam="1">  1        2 0.68265495E-01 0.61581308E+03</pdfrwt>
<pdfrwt beam="2">  1       -2 0.13187918E+00 0.61581308E+03</pdfrwt>
<totfact> 0.30291852E+01</totfact>
</mgrwt>
</event>
<event>
 6    1  0.8861680E-004  0.4097652E+03  0.7818608E-02  0.1040450E+00
         -2   -1    0    0    0  501 -0.00000000000E+00  0.00000000000E+00  0.97784244465E+02  0.97784244465E+02  0.00000000000E+00 0.  1.
          2   -1    0    0  502    0  0.00000000000E+00 -0.00000000000E+00 -0.21519670411E+04  0.21519670411E+04  0.00000000000E+00 0. -1.
    9000007    2    1    2  502    0 -0.11729541917E+02 -0.86415821688E+02 -0.52217616074E+03  0.66398660919E+03  0.40075553391E+03 0.  0.
    9000005    1    3    3    0    0  0.11536296185E+02 -0.32534485550E+02 -0.58033481027E+03  0.58136139439E+03  0.99999687468E+00 0.  0.
          4    1    3    3  502    0 -0.23265838103E+02 -0.53881336138E+02  0.58158649532E+02  0.82625214807E+02  0.00000000000E+00 0.  1.
   -9000007    1    1    2    0  501  0.11729541917E+02  0.86415821688E+02 -0.15320066359E+04  0.15857646764E+04  0.40000000000E+03 0. -1.
<mgrwt>
<rscale>  2 0.40976518E+03</rscale>
<asrwt>0</asrwt>
<pdfrwt beam="1">  1        2 0.33107187E+00 0.40976518E+03</pdfrwt>
<pdfrwt beam="2">  1       -2 0.15043729E-01 0.40976518E+03</pdfrwt>
<totfact> 0.20536430E+02</totfact>
</mgrwt>
</event>
<event>
 6    1  0.8861680E-004  0.4534137E+03  0.7818608E-02  0.1026709E+00
         -1   -1    0    0    0  501 -0.00000000000E+00  0.00000000000E+00  0.32184089090E+03  0.32184089090E+03  0.00000000000E+00 0. -1.
          1   -1    0    0  502    0  0.00000000000E+00 -0.00000000000E+00 -0.95620492412E+03  0.95620492412E+03  0.00000000000E+00 0.  1.
    9000007    2    1    2  502    0 -0.18128304124E+03  0.11031859587E+03  0.50717000130E+02  0.45684562269E+03  0.40137510539E+03 0.  0.
    9000005    1    3    3    0    0  0.21648187926E+02  0.21113617932E+03  0.83129224680E+02  0.22794428760E+03  0.99999687468E+00 0.  0.
          4    1    3    3  502    0 -0.20293122917E+03 -0.10081758345E+03 -0.32412224551E+02  0.22890133509E+03  0.00000000000E+00 0.  1.
   -9000007    1    1    2    0  501  0.18128304124E+03 -0.11031859587E+03 -0.68508103335E+03  0.82120019234E+03  0.40000000000E+03 0.  1.
<mgrwt>
<rscale>  2 0.45341370E+03</rscale>
<asrwt>0</asrwt>
<pdfrwt beam="1">  1        1 0.14710845E+00 0.45341370E+03</pdfrwt>
<pdfrwt beam="2">  1       -1 0.49513983E-01 0.45341370E+03</pdfrwt>
<totfact> 0.70809061E+01</totfact>
</mgrwt>
</event>
<event>
 6    1  0.8861680E-004  0.4373640E+03  0.7818608E-02  0.1031559E+00
          2   -1    0    0  502    0  0.00000000000E+00  0.00000000000E+00  0.12405367312E+04  0.12405367312E+04  0.00000000000E+00 0. -1.
         -2   -1    0    0    0  501 -0.00000000000E+00 -0.00000000000E+00 -0.20146084625E+03  0.20146084625E+03  0.00000000000E+00 0.  1.
    9000007    2    1    2  502    0  0.13537039976E+03  0.11496225148E+03  0.86849662011E+03  0.97227558521E+03  0.39936445768E+03 0.  0.
    9000005    1    3    3    0    0  0.22152739294E+03 -0.65134036080E+02  0.54830721896E+03  0.59494422834E+03  0.99999687468E+00 0.  0.
          4    1    3    3  502    0 -0.86156993184E+02  0.18009628756E+03  0.32018940115E+03  0.37733135686E+03  0.00000000000E+00 0.  1.
   -9000007    1    1    2    0  501 -0.13537039976E+03 -0.11496225148E+03  0.17057926484E+03  0.46972199224E+03  0.40000000000E+03 0.  1.
<mgrwt>
<rscale>  2 0.43736401E+03</rscale>
<asrwt>0</asrwt>
<pdfrwt beam="1">  1        2 0.19085180E+00 0.43736401E+03</pdfrwt>
<pdfrwt beam="2">  1       -2 0.30993977E-01 0.43736401E+03</pdfrwt>
<totfact> 0.17994122E+02</totfact>
</mgrwt>
</event>
<event>
 6    1  0.8861680E-004  0.5478934E+03  0.7818608E-02  0.1001983E+00
         -2   -1    0    0    0  501 -0.00000000000E+00  0.00000000000E+00  0.55960199812E+03  0.55960199812E+03  0.00000000000E+00 0.  1.
          2   -1    0    0  502    0  0.00000000000E+00 -0.00000000000E+00 -0.54484022720E+03  0.54484022720E+03  0.00000000000E+00 0. -1.
    9000007    2    1    2  502    0 -0.35541184953E+03  0.11549915913E+03 -0.61221063298E+02  0.55178407633E+03  0.40132282487E+03 0.  0.
    9000005    1    3    3    0    0 -0.41269278802E+03 -0.29512950377E+01 -0.17276991117E+02  0.41306602601E+03  0.99999687468E+00 0.  0.
          4    1    3    3  502    0  0.57280938489E+02  0.11845045417E+03 -0.43944072181E+02  0.13871805033E+03  0.00000000000E+00 0.  1.
   -9000007    1    1    2    0  501  0.35541184953E+03 -0.11549915913E+03  0.75982834219E+02  0.55265814899E+03  0.40000000000E+03 0. -1.
<mgrwt>
<rscale>  2 0.54789340E+03</rscale>
<asrwt>0</asrwt>
<pdfrwt beam="1">  1        2 0.83821573E-01 0.54789340E+03</pdfrwt>
<pdfrwt beam="2">  1       -2 0.86092616E-01 0.54789340E+03</pdfrwt>
<totfact> 0.66893950E+01</totfact>
</mgrwt>
</event>
<event>
 6    1  0.8861680E-004  0.4202682E+03  0.7818608E-02  0.1036979E+00
          1   -1    0    0  502    0  0.00000000000E+00  0.00000000000E+00  0.51365679919E+03  0.51365679919E+03  0.00000000000E+00 0. -1.
         -1   -1    0    0    0  501 -0.00000000000E+00 -0.00000000000E+00 -0.35243595056E+03  0.35243595056E+03  0.00000000000E+00 0.  1.
    9000007    2    1    2  502    0  0.12603833808E+03  0.26248390194E+02  0.14817837946E+03  0.44568253739E+03  0.40012679408E+03 0.  0.
    9000005    1    3    3    0    0  0.16315219333E+03  0.72690643907E+02  0.26210393308E+03  0.31717824583E+03  0.99999687468E+00 0.  0.
          4    1    3    3  502    0 -0.37113855244E+02 -0.46442253713E+02 -0.11392555362E+03  0.12850429156E+03  0.00000000000E+00 0.  1.
   -9000007    1    1    2    0  501 -0.12603833808E+03 -0.26248390194E+02  0.13042469169E+02  0.42041021236E+03  0.40000000000E+03 0.  1.
<mgrwt>
<rscale>  2 0.42026820E+03</rscale>
<asrwt>0</asrwt>
<pdfrwt beam="1">  1        1 0.79024122E-01 0.42026820E+03</pdfrwt>
<pdfrwt beam="2">  1       -1 0.54220916E-01 0.42026820E+03</pdfrwt>
<totfact> 0.15259632E+02</totfact>
</mgrwt>
</event>
<event>
 6    1  0.8861680E-004  0.5428469E+03  0.7818608E-02  0.1003163E+00
          2   -1    0    0  502    0  0.00000000000E+00  0.00000000000E+00  0.17545710799E+04  0.17545710799E+04  0.00000000000E+00 0. -1.
         -2   -1    0    0    0  501 -0.00000000000E+00 -0.00000000000E+00 -0.22179323519E+03  0.22179323519E+03  0.00000000000E+00 0.  1.
    9000007    2    1    2  502    0  0.59494508511E+02  0.36232895405E+03  0.12531325735E+04  0.13656079437E+04  0.39965227596E+03 0.  0.
    9000005    1    3    3    0    0 -0.11598935580E+03  0.41503482721E+02  0.10912459679E+03  0.16457596226E+03  0.99999687468E+00 0.  0.
          4    1    3    3  502    0  0.17548386431E+03  0.32082547133E+03  0.11440079767E+04  0.12010319814E+04  0.00000000000E+00 0.  1.
   -9000007    1    1    2    0  501 -0.59494508511E+02 -0.36232895405E+03  0.27964527126E+03  0.61075637142E+03  0.40000000000E+03 0.  1.
<mgrwt>
<rscale>  2 0.54284694E+03</rscale>
<asrwt>0</asrwt>
<pdfrwt beam="1">  1        2 0.26993400E+00 0.54284694E+03</pdfrwt>
<pdfrwt beam="2">  1       -2 0.34122037E-01 0.54284694E+03</pdfrwt>
<totfact> 0.77188985E+01</totfact>
</mgrwt>
</event>
<event>
 6    1  0.8861680E-004  0.4645056E+03  0.7818608E-02  0.1023483E+00
         -2   -1    0    0    0  501 -0.00000000000E+00  0.00000000000E+00  0.57362816771E+03  0.57362816771E+03  0.00000000000E+00 0.  1.
          2   -1    0    0  502    0  0.00000000000E+00 -0.00000000000E+00 -0.37944914329E+03  0.37944914329E+03  0.00000000000E+00 0. -1.
    9000007    2    1    2  502    0  0.17328048793E+02  0.23582319622E+03  0.14154668367E+03  0.48544176441E+03  0.39963158262E+03 0.  0.
    9000005    1    3    3    0    0  0.17293141268E+03  0.20369691552E+03 -0.78915399486E+01  0.26732187205E+03  0.99999687468E+00 0.  0.
          4    1    3    3  502    0 -0.15560336389E+03  0.32126280700E+02  0.14943822361E+03  0.21811989236E+03  0.00000000000E+00 0.  1.
   -9000007    1    1    2    0  501 -0.17328048793E+02 -0.23582319622E+03  0.52632340753E+02  0.46763554660E+03  0.40000000000E+03 0. -1.
<mgrwt>
<rscale>  2 0.46450564E+03</rscale>
<asrwt>0</asrwt>
<pdfrwt beam="1">  1        2 0.58376791E-01 0.46450564E+03</pdfrwt>
<pdfrwt beam="2">  1       -2 0.88250488E-01 0.46450564E+03</pdfrwt>
<totfact> 0.95919807E+01</totfact>
</mgrwt>
</event>
<event>
 6    1  0.8861680E-004  0.4552340E+03  0.7818608E-02  0.1026173E+00
         -2   -1    0    0    0  501 -0.00000000000E+00  0.00000000000E+00  0.14405643584E+03  0.14405643584E+03  0.00000000000E+00 0. -1.
          2   -1    0    0  502    0  0.00000000000E+00 -0.00000000000E+00 -0.14868825209E+04  0.14868825209E+04  0.00000000000E+00 0.  1.
    9000007    2    1    2  502    0  0.11423266564E+03 -0.18531050092E+03 -0.52421149213E+03  0.69417915005E+03  0.39962222190E+03 0.  0.
    9000005    1    3    3    0    0  0.18468112836E+03 -0.24685460736E+03 -0.22771146001E+03  0.38327252101E+03  0.99999687468E+00 0.  0.
          4    1    3    3  502    0 -0.70448462718E+02  0.61544106438E+02 -0.29650003212E+03  0.31090662904E+03  0.00000000000E+00 0.  1.
   -9000007    1    1    2    0  501 -0.11423266564E+03  0.18531050092E+03 -0.81861459293E+03  0.93675980668E+03  0.40000000000E+03 0.  1.
<mgrwt>
<rscale>  2 0.45523399E+03</rscale>
<asrwt>0</asrwt>
<pdfrwt beam="1">  1        2 0.22875115E+00 0.45523399E+03</pdfrwt>
<pdfrwt beam="2">  1       -2 0.22162529E-01 0.45523399E+03</pdfrwt>
<totfact> 0.23926945E+02</totfact>
</mgrwt>
</event>
<event>
 6    1  0.8861680E-004  0.5217255E+03  0.7818608E-02  0.1008259E+00
         -2   -1    0    0    0  501 -0.00000000000E+00  0.00000000000E+00  0.68956275995E+03  0.68956275995E+03  0.00000000000E+00 0. -1.
          2   -1    0    0  502    0  0.00000000000E+00 -0.00000000000E+00 -0.42460763103E+03  0.42460763103E+03  0.00000000000E+00 0.  1.
    9000007    2    1    2  502    0 -0.93616484969E+02  0.32166876247E+03 -0.15282717602E+02  0.52191361421E+03  0.39990676443E+03 0.  0.
    9000005    1    3    3    0    0 -0.21607890795E+03  0.30773955767E+03  0.55007588449E+02  0.38002705772E+03  0.99999687468E+00 0.  0.
          4    1    3    3  502    0  0.12246242298E+03  0.13929204795E+02 -0.70290306051E+02  0.14188655649E+03  0.00000000000E+00 0.  1.
   -9000007    1    1    2    0  501  0.93616484969E+02 -0.32166876247E+03  0.28023784652E+03  0.59225677677E+03  0.40000000000E+03 0. -1.
<mgrwt>
<rscale>  2 0.52172555E+03</rscale>
<asrwt>0</asrwt>
<pdfrwt beam="1">  1        2 0.65324251E-01 0.52172555E+03</pdfrwt>
<pdfrwt beam="2">  1       -2 0.10608658E+00 0.52172555E+03</pdfrwt>
<totfact> 0.54801346E+01</totfact>
</mgrwt>
</event>
<event>
 6    1  0.8861680E-004  0.5209741E+03  0.7818608E-02  0.1008445E+00
         -2   -1    0    0    0  501 -0.00000000000E+00  0.00000000000E+00  0.43469702945E+03  0.43469702945E+03  0.00000000000E+00 0.  1.
          2   -1    0    0  502    0  0.00000000000E+00 -0.00000000000E+00 -0.69924411936E+03  0.69924411936E+03  0.00000000000E+00 0. -1.
    9000007    2    1    2  502    0  0.16757563666E+03 -0.28888984882E+03 -0.31776892245E+03  0.61013631663E+03  0.39968775068E+03 0.  0.
    9000005    1    3    3    0    0  0.21449876845E+03 -0.34019240547E+03 -0.15122557911E+03  0.42966355463E+03  0.99999687468E+00 0.  0.
          4    1    3    3  502    0 -0.46923131784E+02  0.51302556651E+02 -0.16654334333E+03  0.18047276200E+03  0.00000000000E+00 0.  1.
   -9000007    1    1    2    0  501 -0.16757563666E+03  0.28888984882E+03  0.53221832535E+02  0.52380483218E+03  0.40000000000E+03 0.  1.
<mgrwt>
<rscale>  2 0.52097414E+03</rscale>
<asrwt>0</asrwt>
<pdfrwt beam="1">  1        2 0.10757602E+00 0.52097414E+03</pdfrwt>
<pdfrwt beam="2">  1       -2 0.66876467E-01 0.52097414E+03</pdfrwt>
<totfact> 0.86773489E+01</totfact>
</mgrwt>
</event>
<event>
 6    1  0.8861680E-004  0.4358895E+03  0.7818608E-02  0.1032016E+00
         -1   -1    0    0    0  501 -0.00000000000E+00  0.00000000000E+00  0.11071613662E+03  0.11071613662E+03  0.00000000000E+00 0. -1.
          1   -1    0    0  502    0  0.00000000000E+00 -0.00000000000E+00 -0.19795557109E+04  0.19795557109E+04  0.00000000000E+00 0.  1.
    9000007    2    1    2  502    0 -0.16352495389E+03  0.51187761982E+02 -0.13170612468E+04  0.13875486302E+04  0.40159715599E+03 0.  0.
    9000005    1    3    3    0    0  0.54435220270E+02 -0.12531994624E+02 -0.51229917015E+01  0.56102487760E+02  0.99999687468E+00 0.  0.
          4    1    3    3  502    0 -0.21796017416E+03  0.63719756607E+02 -0.13119382551E+04  0.13314461424E+04  0.00000000000E+00 0.  1.
   -9000007    1    1    2    0  501  0.16352495389E+03 -0.51187761982E+02 -0.55177832742E+03  0.70272321730E+03  0.40000000000E+03 0. -1.
<mgrwt>
<rscale>  2 0.43588950E+03</rscale>
<asrwt>0</asrwt>
<pdfrwt beam="1">  1        1 0.30454703E+00 0.43588950E+03</pdfrwt>
<pdfrwt beam="2">  1       -1 0.17033252E-01 0.43588950E+03</pdfrwt>
<totfact> 0.88323003E+01</totfact>
</mgrwt>
</event>
<event>
 6    1  0.8861680E-004  0.4255966E+03  0.7818608E-02  0.1035260E+00
         -2   -1    0    0    0  501 -0.00000000000E+00  0.00000000000E+00  0.24860772193E+03  0.24860772193E+03  0.00000000000E+00 0.  1.
          2   -1    0    0  502    0  0.00000000000E+00 -0.00000000000E+00 -0.72875074799E+03  0.72875074799E+03  0.00000000000E+00 0. -1.
    9000007    2    1    2  502    0 -0.14585131072E+03  0.27150115168E+01 -0.23266187071E+03  0.48488826942E+03  0.39963121952E+03 0.  0.
    9000005    1    3    3    0    0  0.86762575482E+02  0.44466890999E+02 -0.22859833832E+03  0.24852213016E+03  0.99999687468E+00 0.  0.
          4    1    3    3  502    0 -0.23261388621E+03 -0.41751879482E+02 -0.40635323905E+01  0.23636613927E+03  0.00000000000E+00 0.  1.
   -9000007    1    1    2    0  501  0.14585131072E+03 -0.27150115168E+01 -0.24748115534E+03  0.49247020050E+03  0.40000000000E+03 0. -1.
<mgrwt>
<rscale>  2 0.42559661E+03</rscale>
<asrwt>0</asrwt>
<pdfrwt beam="1">  1        2 0.11211550E+00 0.42559661E+03</pdfrwt>
<pdfrwt beam="2">  1       -2 0.38247342E-01 0.42559661E+03</pdfrwt>
<totfact> 0.25794353E+02</totfact>
</mgrwt>
</event>
<event>
 6    1  0.8861680E-004  0.4470586E+03  0.7818608E-02  0.1028603E+00
         -1   -1    0    0    0  501 -0.00000000000E+00  0.00000000000E+00  0.60376523604E+03  0.60376523604E+03  0.00000000000E+00 0. -1.
          1   -1    0    0  502    0  0.00000000000E+00 -0.00000000000E+00 -0.38567888867E+03  0.38567888867E+03  0.00000000000E+00 0.  1.
    9000007    2    1    2  502    0  0.16799618649E+03 -0.10802922576E+03 -0.77198212312E+02  0.45364005280E+03  0.39992086870E+03 0.  0.
    9000005    1    3    3    0    0  0.26020692292E+03 -0.10017230432E+03  0.62808765285E+02  0.28581125639E+03  0.99999687468E+00 0.  0.
          4    1    3    3  502    0 -0.92210736428E+02 -0.78569214340E+01 -0.14000697760E+03  0.16782879641E+03  0.00000000000E+00 0.  1.
   -9000007    1    1    2    0  501 -0.16799618649E+03  0.10802922576E+03  0.29528455968E+03  0.53580407191E+03  0.40000000000E+03 0. -1.
<mgrwt>
<rscale>  2 0.44705859E+03</rscale>
<asrwt>0</asrwt>
<pdfrwt beam="1">  1        1 0.59335214E-01 0.44705859E+03</pdfrwt>
<pdfrwt beam="2">  1       -1 0.92886959E-01 0.44705859E+03</pdfrwt>
<totfact> 0.74283675E+01</totfact>
</mgrwt>
</event>
<event>
 6    1  0.8861680E-004  0.6882205E+03  0.7818608E-02  0.9737592E-01
          1   -1    0    0  502    0  0.00000000000E+00  0.00000000000E+00  0.17613053152E+03  0.17613053152E+03  0.00000000000E+00 0.  1.
         -1   -1    0    0    0  501 -0.00000000000E+00 -0.00000000000E+00 -0.28453197074E+04  0.28453197074E+04  0.00000000000E+00 0. -1.
    9000007    2    1    2  502    0 -0.20767359519E+03 -0.52022978693E+03 -0.16883270861E+04  0.18231774017E+04  0.39970005614E+03 0.  0.
    9000005    1    3    3    0    0 -0.29302327091E+03 -0.45933158069E+03 -0.11227637222E+04  0.12479773693E+04  0.99999687468E+00 0.  0.
          4    1    3    3  502    0  0.85349675722E+02 -0.60898206233E+02 -0.56556336389E+03  0.57520003238E+03  0.00000000000E+00 0.  1.
   -9000007    1    1    2    0  501  0.20767359519E+03  0.52022978693E+03 -0.98086208972E+03  0.11982728372E+04  0.40000000000E+03 0.  1.
<mgrwt>
<rscale>  2 0.68822046E+03</rscale>
<asrwt>0</asrwt>
<pdfrwt beam="1">  1        1 0.27097006E-01 0.68822046E+03</pdfrwt>
<pdfrwt beam="2">  1       -1 0.43774148E+00 0.68822046E+03</pdfrwt>
<totfact> 0.74567372E-01</totfact>
</mgrwt>
</event>
<event>
 6    1  0.8861680E-004  0.4145077E+03  0.7818608E-02  0.1038869E+00
          2   -1    0    0  502    0  0.00000000000E+00  0.00000000000E+00  0.79630860536E+03  0.79630860536E+03  0.00000000000E+00 0.  1.
         -2   -1    0    0    0  501 -0.00000000000E+00 -0.00000000000E+00 -0.24702819612E+03  0.24702819612E+03  0.00000000000E+00 0. -1.
    9000007    2    1    2  502    0  0.10886406051E+03 -0.67113264552E+01  0.89005624311E+02  0.42386177922E+03  0.39980042665E+03 0.  0.
    9000005    1    3    3    0    0  0.11179204652E+03 -0.12393939280E+03 -0.10498459028E+03  0.19718316090E+03  0.99999687468E+00 0.  0.
          4    1    3    3  502    0 -0.29279860073E+01  0.11722806635E+03  0.19399021459E+03  0.22667861831E+03  0.00000000000E+00 0.  1.
   -9000007    1    1    2    0  501 -0.10886406051E+03  0.67113264552E+01  0.46027478492E+03  0.61947502226E+03  0.40000000000E+03 0.  1.
<mgrwt>
<rscale>  2 0.41450766E+03</rscale>
<asrwt>0</asrwt>
<pdfrwt beam="1">  1        2 0.12250902E+00 0.41450766E+03</pdfrwt>
<pdfrwt beam="2">  1       -2 0.38004338E-01 0.41450766E+03</pdfrwt>
<totfact> 0.23339006E+02</totfact>
</mgrwt>
</event>
<event>
 6    1  0.8861680E-004  0.5511344E+03  0.7818608E-02  0.1001232E+00
         -2   -1    0    0    0  501 -0.00000000000E+00  0.00000000000E+00  0.51033164618E+03  0.51033164618E+03  0.00000000000E+00 0. -1.
          2   -1    0    0  502    0  0.00000000000E+00 -0.00000000000E+00 -0.62460222100E+03  0.62460222100E+03  0.00000000000E+00 0.  1.
    9000007    2    1    2  502    0 -0.11151059234E+02  0.37856506344E+03  0.65957382205E+02  0.55534955936E+03  0.40078286319E+03 0.  0.
    9000005    1    3    3    0    0  0.14639257621E+03  0.12108597870E+03  0.14994784952E+03  0.24202883749E+03  0.99999687468E+00 0.  0.
          4    1    3    3  502    0 -0.15754363545E+03  0.25747908474E+03 -0.83990467317E+02  0.31332072187E+03  0.00000000000E+00 0.  1.
   -9000007    1    1    2    0  501  0.11151059234E+02 -0.37856506344E+03 -0.18022795702E+03  0.57958430782E+03  0.40000000000E+03 0.  1.
<mgrwt>
<rscale>  2 0.55113441E+03</rscale>
<asrwt>0</asrwt>
<pdfrwt beam="1">  1        2 0.96092649E-01 0.55113441E+03</pdfrwt>
<pdfrwt beam="2">  1       -2 0.78512561E-01 0.55113441E+03</pdfrwt>
<totfact> 0.69964319E+01</totfact>
</mgrwt>
</event>
<event>
 6    1  0.8861680E-004  0.4231902E+03  0.7818608E-02  0.1036033E+00
          2   -1    0    0  502    0  0.00000000000E+00  0.00000000000E+00  0.68932230686E+03  0.68932230686E+03  0.00000000000E+00 0. -1.
         -2   -1    0    0    0  501 -0.00000000000E+00 -0.00000000000E+00 -0.26650113079E+03  0.26650113079E+03  0.00000000000E+00 0.  1.
    9000007    2    1    2  502    0  0.11653339582E+03 -0.72297535793E+02  0.13582439172E+03  0.44477146353E+03  0.40070740368E+03 0.  0.
    9000005    1    3    3    0    0  0.29180830058E+02  0.16286078371E+03  0.94469351670E+02  0.19052720045E+03  0.99999687468E+00 0.  0.
          4    1    3    3  502    0  0.87352565763E+02 -0.23515831950E+03  0.41355040050E+02  0.25424426309E+03  0.00000000000E+00 0.  1.
   -9000007    1    1    2    0  501 -0.11653339582E+03  0.72297535793E+02  0.28699678435E+03  0.51105197412E+03  0.40000000000E+03 0. -1.
<mgrwt>
<rscale>  2 0.42319021E+03</rscale>
<asrwt>0</asrwt>
<pdfrwt beam="1">  1        2 0.10604958E+00 0.42319021E+03</pdfrwt>
<pdfrwt beam="2">  1       -2 0.41000174E-01 0.42319021E+03</pdfrwt>
<totfact> 0.24179044E+02</totfact>
</mgrwt>
</event>
<event>
 6    1  0.8861680E-004  0.4554581E+03  0.7818608E-02  0.1026107E+00
          2   -1    0    0  502    0  0.00000000000E+00  0.00000000000E+00  0.14336683610E+04  0.14336683610E+04  0.00000000000E+00 0.  1.
         -2   -1    0    0    0  501 -0.00000000000E+00 -0.00000000000E+00 -0.14496936799E+03  0.14496936799E+03  0.00000000000E+00 0. -1.
    9000007    2    1    2  502    0  0.22326273172E+03  0.15937995934E+02  0.60617251997E+03  0.75648041223E+03  0.39334110265E+03 0.  0.
    9000005    1    3    3    0    0 -0.34624344864E+01 -0.16118760598E+03  0.17316332882E+03  0.23660086901E+03  0.99999687468E+00 0.  0.
          4    1    3    3  502    0  0.22672516620E+03  0.17712560191E+03  0.43300919115E+03  0.51987954322E+03  0.00000000000E+00 0.  1.
   -9000007    1    1    2    0  501 -0.22326273172E+03 -0.15937995934E+02  0.68252647302E+03  0.82215731673E+03  0.40000000000E+03 0.  1.
<mgrwt>
<rscale>  2 0.45545808E+03</rscale>
<asrwt>0</asrwt>
<pdfrwt beam="1">  1        2 0.22056435E+00 0.45545808E+03</pdfrwt>
<pdfrwt beam="2">  1       -2 0.22302981E-01 0.45545808E+03</pdfrwt>
<totfact> 0.25311929E+02</totfact>
</mgrwt>
</event>
<event>
 6    1  0.8861680E-004  0.4486096E+03  0.7818608E-02  0.1028137E+00
          1   -1    0    0  502    0  0.00000000000E+00  0.00000000000E+00  0.67984868362E+03  0.67984868362E+03  0.00000000000E+00 0.  1.
         -1   -1    0    0    0  501 -0.00000000000E+00 -0.00000000000E+00 -0.29853545163E+03  0.29853545163E+03  0.00000000000E+00 0. -1.
    9000007    2    1    2  502    0 -0.19861388350E+03  0.43201160350E+02  0.23550756154E+03  0.50660759014E+03  0.39984199864E+03 0.  0.
    9000005    1    3    3    0    0 -0.21184542688E+03  0.13095437526E+03  0.30508854684E+03  0.39383696461E+03  0.99999687468E+00 0.  0.
          4    1    3    3  502    0  0.13231543375E+02 -0.87753214907E+02 -0.69580985305E+02  0.11277062553E+03  0.00000000000E+00 0.  1.
   -9000007    1    1    2    0  501  0.19861388350E+03 -0.43201160350E+02  0.14580567046E+03  0.47177654511E+03  0.40000000000E+03 0. -1.
<mgrwt>
<rscale>  2 0.44860965E+03</rscale>
<asrwt>0</asrwt>
<pdfrwt beam="1">  1        1 0.10459211E+00 0.44860965E+03</pdfrwt>
<pdfrwt beam="2">  1       -1 0.45928531E-01 0.44860965E+03</pdfrwt>
<totfact> 0.13977727E+02</totfact>
</mgrwt>
</event>
<event>
 6    1  0.8861680E-004  0.4930233E+03  0.7818608E-02  0.1015616E+00
          1   -1    0    0  502    0  0.00000000000E+00  0.00000000000E+00  0.12544471066E+04  0.12544471066E+04  0.00000000000E+00 0. -1.
         -1   -1    0    0    0  501 -0.00000000000E+00 -0.00000000000E+00 -0.19565693138E+03  0.19565693138E+03  0.00000000000E+00 0.  1.
    9000007    2    1    2  502    0 -0.24162546072E+03 -0.15702835136E+03  0.60066626754E+03  0.77711200149E+03  0.40007790678E+03 0.  0.
    9000005    1    3    3    0    0  0.63463191205E+02 -0.87766404346E+02  0.37773625919E+03  0.39295826734E+03  0.99999687468E+00 0.  0.
          4    1    3    3  502    0 -0.30508865192E+03 -0.69261947015E+02  0.22293000836E+03  0.38415373415E+03  0.00000000000E+00 0.  1.
   -9000007    1    1    2    0  501  0.24162546072E+03  0.15702835136E+03  0.45812390766E+03  0.67299203648E+03  0.40000000000E+03 0. -1.
<mgrwt>
<rscale>  2 0.49302326E+03</rscale>
<asrwt>0</asrwt>
<pdfrwt beam="1">  1        1 0.19299186E+00 0.49302326E+03</pdfrwt>
<pdfrwt beam="2">  1       -1 0.30101067E-01 0.49302326E+03</pdfrwt>
<totfact> 0.10373121E+02</totfact>
</mgrwt>
</event>
<event>
 6    1  0.8861680E-004  0.4680408E+03  0.7818608E-02  0.1022475E+00
          2   -1    0    0  502    0  0.00000000000E+00  0.00000000000E+00  0.14242554243E+04  0.14242554243E+04  0.00000000000E+00 0.  1.
         -2   -1    0    0    0  501 -0.00000000000E+00 -0.00000000000E+00 -0.16167570801E+03  0.16167570801E+03  0.00000000000E+00 0. -1.
    9000007    2    1    2  502    0 -0.20996472790E+03  0.11427782398E+03  0.45904004426E+03  0.65704975531E+03  0.40478637663E+03 0.  0.
    9000005    1    3    3    0    0 -0.29887813469E+03  0.13346773330E+02  0.42243809306E+03  0.51764970609E+03  0.99999687468E+00 0.  0.
          4    1    3    3  502    0  0.88913406792E+02  0.10093105065E+03  0.36601951205E+02  0.13940004923E+03  0.00000000000E+00 0.  1.
   -9000007    1    1    2    0  501  0.20996472790E+03 -0.11427782398E+03  0.80353967201E+03  0.92888137699E+03  0.40000000000E+03 0.  1.
<mgrwt>
<rscale>  2 0.46804075E+03</rscale>
<asrwt>0</asrwt>
<pdfrwt beam="1">  1        2 0.21911621E+00 0.46804075E+03</pdfrwt>
<pdfrwt beam="2">  1       -2 0.24873187E-01 0.46804075E+03</pdfrwt>
<totfact> 0.21080519E+02</totfact>
</mgrwt>
</event>
<event>
 6    1  0.8861680E-004  0.4356757E+03  0.7818608E-02  0.1032082E+00
          1   -1    0    0  502    0  0.00000000000E+00  0.00000000000E+00  0.53469573791E+03  0.53469573791E+03  0.00000000000E+00 0. -1.
         -1   -1    0    0    0  501 -0.00000000000E+00 -0.00000000000E+00 -0.35871984347E+03  0.35871984347E+03  0.00000000000E+00 0.  1.
    9000007    2    1    2  502    0 -0.96222169752E+02  0.14365330673E+03  0.42437769119E+02  0.43764435652E+03  0.39979574793E+03 0.  0.
    9000005    1    3    3    0    0 -0.18558071089E+02 -0.13609031073E+03  0.52756456234E+02  0.14713673350E+03  0.99999687468E+00 0.  0.
          4    1    3    3  502    0 -0.77664098663E+02  0.27974361746E+03 -0.10318687114E+02  0.29050762302E+03  0.00000000000E+00 0.  1.
   -9000007    1    1    2    0  501  0.96222169752E+02 -0.14365330673E+03  0.13353812532E+03  0.45577122485E+03  0.40000000000E+03 0. -1.
<mgrwt>
<rscale>  2 0.43567566E+03</rscale>
<asrwt>0</asrwt>
<pdfrwt beam="1">  1        1 0.82260883E-01 0.43567566E+03</pdfrwt>
<pdfrwt beam="2">  1       -1 0.55187668E-01 0.43567566E+03</pdfrwt>
<totfact> 0.13944366E+02</totfact>
</mgrwt>
</event>
<event>
 6    1  0.8861680E-004  0.4142549E+03  0.7818608E-02  0.1038953E+00
          2   -1    0    0  502    0  0.00000000000E+00  0.00000000000E+00  0.36181390374E+03  0.36181390374E+03  0.00000000000E+00 0.  1.
         -2   -1    0    0    0  501 -0.00000000000E+00 -0.00000000000E+00 -0.51324274026E+03  0.51324274026E+03  0.00000000000E+00 0. -1.
    9000007    2    1    2  502    0  0.10330966167E+03  0.27584511052E+02 -0.19627453079E+03  0.45858944512E+03  0.40043326072E+03 0.  0.
    9000005    1    3    3    0    0  0.12802990892E+03 -0.16783937670E+03 -0.61361445213E+02  0.21983616831E+03  0.99999687468E+00 0.  0.
          4    1    3    3  502    0 -0.24720247242E+02  0.19542388775E+03 -0.13491308558E+03  0.23875327681E+03  0.00000000000E+00 0.  1.
   -9000007    1    1    2    0  501 -0.10330966167E+03 -0.27584511052E+02  0.44845694274E+02  0.41646719888E+03  0.40000000000E+03 0.  1.
<mgrwt>
<rscale>  2 0.41425488E+03</rscale>
<asrwt>0</asrwt>
<pdfrwt beam="1">  1        2 0.55663678E-01 0.41425488E+03</pdfrwt>
<pdfrwt beam="2">  1       -2 0.78960422E-01 0.41425488E+03</pdfrwt>
<totfact> 0.13033634E+02</totfact>
</mgrwt>
</event>
<event>
 6    1  0.8861680E-004  0.4193277E+03  0.7818608E-02  0.1037285E+00
          2   -1    0    0  502    0  0.00000000000E+00  0.00000000000E+00  0.13185655175E+04  0.13185655175E+04  0.00000000000E+00 0. -1.
         -2   -1    0    0    0  501 -0.00000000000E+00 -0.00000000000E+00 -0.18716960809E+03  0.18716960809E+03  0.00000000000E+00 0.  1.
    9000007    2    1    2  502    0  0.95709645346E+02 -0.64315351234E+02  0.97229232213E+03  0.10600774631E+04  0.40634353390E+03 0.  0.
    9000005    1    3    3    0    0  0.83086372976E+01  0.16872990771E+03  0.47134161985E+03  0.50070224466E+03  0.99999687468E+00 0.  0.
          4    1    3    3  502    0  0.87401008048E+02 -0.23304525894E+03  0.50095070228E+03  0.55937521847E+03  0.00000000000E+00 0.  1.
   -9000007    1    1    2    0  501 -0.95709645346E+02  0.64315351234E+02  0.15910358727E+03  0.44565766245E+03  0.40000000000E+03 0.  1.
<mgrwt>
<rscale>  2 0.41932772E+03</rscale>
<asrwt>0</asrwt>
<pdfrwt beam="1">  1        2 0.20285623E+00 0.41932772E+03</pdfrwt>
<pdfrwt beam="2">  1       -2 0.28795325E-01 0.41932772E+03</pdfrwt>
<totfact> 0.18641281E+02</totfact>
</mgrwt>
</event>
<event>
 6    1  0.8861680E-004  0.4409460E+03  0.7818608E-02  0.1030457E+00
         -2   -1    0    0    0  501 -0.00000000000E+00  0.00000000000E+00  0.85197368577E+02  0.85197368577E+02  0.00000000000E+00 0.  1.
          2   -1    0    0  502    0  0.00000000000E+00 -0.00000000000E+00 -0.23036390637E+04  0.23036390637E+04  0.00000000000E+00 0. -1.
    9000007    2    1    2  502    0  0.17838134617E+03  0.56322187876E+02 -0.12229852788E+04  0.12998343339E+04  0.39860282219E+03 0.  0.
    9000005    1    3    3    0    0  0.15861095409E+03 -0.70097825210E+02 -0.11260014644E+04  0.11392767169E+04  0.99999687468E+00 0.  0.
          4    1    3    3  502    0  0.19770392082E+02  0.12642001309E+03 -0.96983814389E+02  0.16055761696E+03  0.00000000000E+00 0.  1.
   -9000007    1    1    2    0  501 -0.17838134617E+03 -0.56322187876E+02 -0.99545641630E+03  0.10890020984E+04  0.40000000000E+03 0. -1.
<mgrwt>
<rscale>  2 0.44094603E+03</rscale>
<asrwt>0</asrwt>
<pdfrwt beam="1">  1        2 0.35440600E+00 0.44094603E+03</pdfrwt>
<pdfrwt beam="2">  1       -2 0.13107288E-01 0.44094603E+03</pdfrwt>
<totfact> 0.21260524E+02</totfact>
</mgrwt>
</event>
<event>
 6    1  0.8861680E-004  0.4752407E+03  0.7818608E-02  0.1020451E+00
         -1   -1    0    0    0  501 -0.00000000000E+00  0.00000000000E+00  0.75755817214E+03  0.75755817214E+03  0.00000000000E+00 0.  1.
          1   -1    0    0  502    0  0.00000000000E+00 -0.00000000000E+00 -0.31243418491E+03  0.31243418491E+03  0.00000000000E+00 0. -1.
    9000007    2    1    2  502    0  0.86323050684E+02  0.24187970603E+03  0.10805573190E+03  0.48726388682E+03  0.39974065709E+03 0.  0.
    9000005    1    3    3    0    0  0.23791607344E+03  0.21491014135E+03  0.62007628860E+02  0.32655225139E+03  0.99999687468E+00 0.  0.
          4    1    3    3  502    0 -0.15159302276E+03  0.26969564687E+02  0.46048103037E+02  0.16071163543E+03  0.00000000000E+00 0.  1.
   -9000007    1    1    2    0  501 -0.86323050684E+02 -0.24187970603E+03  0.33706825533E+03  0.58272847024E+03  0.40000000000E+03 0.  1.
<mgrwt>
<rscale>  2 0.47524071E+03</rscale>
<asrwt>0</asrwt>
<pdfrwt beam="1">  1        1 0.48066798E-01 0.47524071E+03</pdfrwt>
<pdfrwt beam="2">  1       -1 0.11654741E+00 0.47524071E+03</pdfrwt>
<totfact> 0.57805213E+01</totfact>
</mgrwt>
</event>
<event>
 6    1  0.8861680E-004  0.5089755E+03  0.7818608E-02  0.1011462E+00
          2   -1    0    0  502    0  0.00000000000E+00  0.00000000000E+00  0.43715219240E+03  0.43715219240E+03  0.00000000000E+00 0.  1.
         -2   -1    0    0    0  501 -0.00000000000E+00 -0.00000000000E+00 -0.10371283733E+04  0.10371283733E+04  0.00000000000E+00 0. -1.
    9000007    2    1    2  502    0  0.17683717934E+03  0.26236255688E+03 -0.78223606105E+03  0.93268647129E+03  0.39737299767E+03 0.  0.
    9000005    1    3    3    0    0  0.37554202543E+01  0.31587156873E+03 -0.40003905493E+03  0.50972659003E+03  0.99999687468E+00 0.  0.
          4    1    3    3  502    0  0.17308175909E+03 -0.53509011845E+02 -0.38219700611E+03  0.42295988127E+03  0.00000000000E+00 0.  1.
   -9000007    1    1    2    0  501 -0.17683717934E+03 -0.26236255688E+03  0.18225988010E+03  0.54159409445E+03  0.40000000000E+03 0.  1.
<mgrwt>
<rscale>  2 0.50897547E+03</rscale>
<asrwt>0</asrwt>
<pdfrwt beam="1">  1        2 0.67254185E-01 0.50897547E+03</pdfrwt>
<pdfrwt beam="2">  1       -2 0.15955821E+00 0.50897547E+03</pdfrwt>
<totfact> 0.18972024E+01</totfact>
</mgrwt>
</event>
<event>
 6    1  0.8861680E-004  0.4461181E+03  0.7818608E-02  0.1028886E+00
          2   -1    0    0  502    0  0.00000000000E+00  0.00000000000E+00  0.25384931653E+04  0.25384931653E+04  0.00000000000E+00 0.  1.
         -2   -1    0    0    0  501 -0.00000000000E+00 -0.00000000000E+00 -0.90728563111E+02  0.90728563111E+02  0.00000000000E+00 0. -1.
    9000007    2    1    2  502    0  0.13734823345E+03 -0.14135729331E+03  0.17089176012E+04  0.17662377700E+04  0.40043734951E+03 0.  0.
    9000005    1    3    3    0    0  0.15881139479E+03  0.36343678271E+02  0.26363384277E+03  0.30991244750E+03  0.99999687468E+00 0.  0.
          4    1    3    3  502    0 -0.21463161331E+02 -0.17770097158E+03  0.14452837584E+04  0.14563253225E+04  0.00000000000E+00 0.  1.
   -9000007    1    1    2    0  501 -0.13734823345E+03  0.14135729331E+03  0.73884700100E+03  0.86298395842E+03  0.40000000000E+03 0.  1.
<mgrwt>
<rscale>  2 0.44611812E+03</rscale>
<asrwt>0</asrwt>
<pdfrwt beam="1">  1        2 0.39053736E+00 0.44611812E+03</pdfrwt>
<pdfrwt beam="2">  1       -2 0.13958242E-01 0.44611812E+03</pdfrwt>
<totfact> 0.14193024E+02</totfact>
</mgrwt>
</event>
<event>
 6    1  0.8861680E-004  0.4126748E+03  0.7818608E-02  0.1039477E+00
         -2   -1    0    0    0  501 -0.00000000000E+00  0.00000000000E+00  0.19427425175E+04  0.19427425175E+04  0.00000000000E+00 0.  1.
          2   -1    0    0  502    0  0.00000000000E+00 -0.00000000000E+00 -0.10873939354E+03  0.10873939354E+03  0.00000000000E+00 0. -1.
    9000007    2    1    2  502    0  0.48613152180E+02  0.93798631030E+02  0.46352289106E+03  0.61991721096E+03  0.39784727743E+03 0.  0.
    9000005    1    3    3    0    0  0.15897519434E+03  0.43431670559E+02  0.27187336765E+02  0.16703165478E+03  0.99999687468E+00 0.  0.
          4    1    3    3  502    0 -0.11036204216E+03  0.50366960470E+02  0.43633555429E+03  0.45288555618E+03  0.00000000000E+00 0.  1.
   -9000007    1    1    2    0  501 -0.48613152180E+02 -0.93798631030E+02  0.13704802329E+04  0.14315647001E+04  0.40000000000E+03 0.  1.
<mgrwt>
<rscale>  2 0.41267479E+03</rscale>
<asrwt>0</asrwt>
<pdfrwt beam="1">  1        2 0.16729139E-01 0.41267479E+03</pdfrwt>
<pdfrwt beam="2">  1       -2 0.29888344E+00 0.41267479E+03</pdfrwt>
<totfact> 0.12337560E+01</totfact>
</mgrwt>
</event>
<event>
 6    1  0.8861680E-004  0.4326605E+03  0.7818608E-02  0.1033023E+00
         -1   -1    0    0    0  501 -0.00000000000E+00  0.00000000000E+00  0.18795743565E+03  0.18795743565E+03  0.00000000000E+00 0. -1.
          1   -1    0    0  502    0  0.00000000000E+00 -0.00000000000E+00 -0.14375299453E+04  0.14375299453E+04  0.00000000000E+00 0.  1.
    9000007    2    1    2  502    0 -0.43996806178E+02  0.15743152853E+03 -0.17488045783E+03  0.46717679593E+03  0.40118646413E+03 0.  0.
    9000005    1    3    3    0    0  0.14479782234E+03  0.35157239849E+02  0.41898560839E+02  0.15478672509E+03  0.99999687468E+00 0.  0.
          4    1    3    3  502    0 -0.18879462852E+03  0.12227428868E+03 -0.21677901867E+03  0.31239007085E+03  0.00000000000E+00 0.  1.
   -9000007    1    1    2    0  501  0.43996806178E+02 -0.15743152853E+03 -0.10746920518E+04  0.11583105850E+04  0.40000000000E+03 0.  1.
<mgrwt>
<rscale>  2 0.43266048E+03</rscale>
<asrwt>0</asrwt>
<pdfrwt beam="1">  1        1 0.22115845E+00 0.43266048E+03</pdfrwt>
<pdfrwt beam="2">  1       -1 0.28916529E-01 0.43266048E+03</pdfrwt>
<totfact> 0.83807329E+01</totfact>
</mgrwt>
</event>
<event>
 6    1  0.8861680E-004  0.4276343E+03  0.7818608E-02  0.1034610E+00
          1   -1    0    0  502    0  0.00000000000E+00  0.00000000000E+00  0.59943025275E+03  0.59943025275E+03  0.00000000000E+00 0. -1.
         -1   -1    0    0    0  501 -0.00000000000E+00 -0.00000000000E+00 -0.30507529828E+03  0.30507529828E+03  0.00000000000E+00 0.  1.
    9000007    2    1    2  502    0 -0.15047122514E+03  0.21563937374E+02  0.14757109213E+03  0.45212065381E+03  0.39941114829E+03 0.  0.
    9000005    1    3    3    0    0  0.29247419721E+02  0.16071764071E+03  0.15432240594E+03  0.22472644830E+03  0.99999687468E+00 0.  0.
          4    1    3    3  502    0 -0.17971864486E+03 -0.13915370333E+03 -0.67513138102E+01  0.22739420551E+03  0.00000000000E+00 0.  1.
   -9000007    1    1    2    0  501  0.15047122514E+03 -0.21563937374E+02  0.14678386235E+03  0.45238489722E+03  0.40000000000E+03 0.  1.
<mgrwt>
<rscale>  2 0.42763428E+03</rscale>
<asrwt>0</asrwt>
<pdfrwt beam="1">  1        1 0.92220039E-01 0.42763428E+03</pdfrwt>
<pdfrwt beam="2">  1       -1 0.46934661E-01 0.42763428E+03</pdfrwt>
<totfact> 0.16139163E+02</totfact>
</mgrwt>
</event>
<event>
 6    1  0.8861680E-004  0.5758100E+03  0.7818608E-02  0.9956904E-01
          2   -1    0    0  502    0  0.00000000000E+00  0.00000000000E+00  0.15263063691E+04  0.15263063691E+04  0.00000000000E+00 0.  1.
         -2   -1    0    0    0  501 -0.00000000000E+00 -0.00000000000E+00 -0.26297176479E+03  0.26297176479E+03  0.00000000000E+00 0. -1.
    9000007    2    1    2  502    0 -0.18878185087E+03  0.37552062933E+03  0.25461979911E+03  0.62559437593E+03  0.38714693701E+03 0.  0.
    9000005    1    3    3    0    0  0.29007544232E+02  0.27582773257E+03  0.18381436928E+01  0.27735672778E+03  0.99999687468E+00 0.  0.
          4    1    3    3  502    0 -0.21778939510E+03  0.99692896757E+02  0.25278165542E+03  0.34823764816E+03  0.00000000000E+00 0.  1.
   -9000007    1    1    2    0  501  0.18878185087E+03 -0.37552062933E+03  0.10087148052E+04  0.11636837579E+04  0.40000000000E+03 0.  1.
<mgrwt>
<rscale>  2 0.57580997E+03</rscale>
<asrwt>0</asrwt>
<pdfrwt beam="1">  1        2 0.23481636E+00 0.57580997E+03</pdfrwt>
<pdfrwt beam="2">  1       -2 0.40457196E-01 0.57580997E+03</pdfrwt>
<totfact> 0.73816093E+01</totfact>
</mgrwt>
</event>
<event>
 6    1  0.8861680E-004  0.4873867E+03  0.7818608E-02  0.1017125E+00
         -2   -1    0    0    0  501 -0.00000000000E+00  0.00000000000E+00  0.21889162797E+03  0.21889162797E+03  0.00000000000E+00 0.  1.
          2   -1    0    0  502    0  0.00000000000E+00 -0.00000000000E+00 -0.12747431539E+04  0.12747431539E+04  0.00000000000E+00 0. -1.
    9000007    2    1    2  502    0 -0.19587938604E+03  0.19795598652E+03 -0.23995613540E+03  0.54324507508E+03  0.39997619705E+03 0.  0.
    9000005    1    3    3    0    0  0.29611364046E+02  0.59165404146E+02 -0.26886787901E+03  0.27689043733E+03  0.99999687468E+00 0.  0.
          4    1    3    3  502    0 -0.22549075009E+03  0.13879058238E+03  0.28911743612E+02  0.26635463775E+03  0.00000000000E+00 0.  1.
   -9000007    1    1    2    0  501  0.19587938604E+03 -0.19795598652E+03 -0.81589539055E+03  0.95038970680E+03  0.40000000000E+03 0.  1.
<mgrwt>
<rscale>  2 0.48738669E+03</rscale>
<asrwt>0</asrwt>
<pdfrwt beam="1">  1        2 0.19611433E+00 0.48738669E+03</pdfrwt>
<pdfrwt beam="2">  1       -2 0.33675635E-01 0.48738669E+03</pdfrwt>
<totfact> 0.14650265E+02</totfact>
</mgrwt>
</event>
<event>
 6    1  0.8861680E-004  0.5499406E+03  0.7818608E-02  0.1001508E+00
          1   -1    0    0  502    0  0.00000000000E+00  0.00000000000E+00  0.26623503619E+03  0.26623503619E+03  0.00000000000E+00 0. -1.
         -1   -1    0    0    0  501 -0.00000000000E+00 -0.00000000000E+00 -0.11367145831E+04  0.11367145831E+04  0.00000000000E+00 0.  1.
    9000007    2    1    2  502    0  0.37469531048E+03  0.34568894142E+02 -0.41790591686E+03  0.69132157408E+03  0.40210518438E+03 0.  0.
    9000005    1    3    3    0    0  0.33158408897E+03 -0.97744970700E+01 -0.71383058902E+02  0.33932298765E+03  0.99999687468E+00 0.  0.
          4    1    3    3  502    0  0.43111221504E+02  0.44343391212E+02 -0.34652285796E+03  0.35199858644E+03  0.00000000000E+00 0.  1.
   -9000007    1    1    2    0  501 -0.37469531048E+03 -0.34568894142E+02 -0.45257363009E+03  0.71162804525E+03  0.40000000000E+03 0.  1.
<mgrwt>
<rscale>  2 0.54994063E+03</rscale>
<asrwt>0</asrwt>
<pdfrwt beam="1">  1        1 0.40959237E-01 0.54994063E+03</pdfrwt>
<pdfrwt beam="2">  1       -1 0.17487917E+00 0.54994063E+03</pdfrwt>
<totfact> 0.24330682E+01</totfact>
</mgrwt>
</event>
<event>
 6    1  0.8861680E-004  0.4505628E+03  0.7818608E-02  0.1027554E+00
         -1   -1    0    0    0  501 -0.00000000000E+00  0.00000000000E+00  0.26964728387E+03  0.26964728387E+03  0.00000000000E+00 0.  1.
          1   -1    0    0  502    0  0.00000000000E+00 -0.00000000000E+00 -0.77642872134E+03  0.77642872134E+03  0.00000000000E+00 0. -1.
    9000007    2    1    2  502    0  0.15835889346E+03 -0.12989464058E+03 -0.16291594074E+03  0.48021945393E+03  0.40263999229E+03 0.  0.
    9000005    1    3    3    0    0 -0.20533099647E+02 -0.23558694260E+03 -0.12996274320E+03  0.26984093522E+03  0.99999687468E+00 0.  0.
          4    1    3    3  502    0  0.17889199311E+03  0.10569230202E+03 -0.32953197543E+02  0.21037851871E+03  0.00000000000E+00 0.  1.
   -9000007    1    1    2    0  501 -0.15835889346E+03  0.12989464058E+03 -0.34386549673E+03  0.56585655129E+03  0.40000000000E+03 0. -1.
<mgrwt>
<rscale>  2 0.45056284E+03</rscale>
<asrwt>0</asrwt>
<pdfrwt beam="1">  1        1 0.11945057E+00 0.45056284E+03</pdfrwt>
<pdfrwt beam="2">  1       -1 0.41484198E-01 0.45056284E+03</pdfrwt>
<totfact> 0.13773050E+02</totfact>
</mgrwt>
</event>
<event>
 6    1  0.8861680E-004  0.5316541E+03  0.7818608E-02  0.1005832E+00
         -2   -1    0    0    0  501 -0.00000000000E+00  0.00000000000E+00  0.23411169176E+03  0.23411169176E+03  0.00000000000E+00 0. -1.
          2   -1    0    0  502    0  0.00000000000E+00 -0.00000000000E+00 -0.13514518475E+04  0.13514518475E+04  0.00000000000E+00 0.  1.
    9000007    2    1    2  502    0 -0.26043888358E+03  0.23360047986E+03 -0.30002983842E+03  0.61068213566E+03  0.40064594171E+03 0.  0.
    9000005    1    3    3    0    0 -0.28696357961E+03 -0.94102481229E+01 -0.15142377347E+03  0.32460253843E+03  0.99999687468E+00 0.  0.
          4    1    3    3  502    0  0.26524696028E+02  0.24301072798E+03 -0.14860606494E+03  0.28607959723E+03  0.00000000000E+00 0.  1.
   -9000007    1    1    2    0  501  0.26043888358E+03 -0.23360047986E+03 -0.81731031735E+03  0.97488140361E+03  0.40000000000E+03 0.  1.
<mgrwt>
<rscale>  2 0.53165408E+03</rscale>
<asrwt>0</asrwt>
<pdfrwt beam="1">  1        2 0.20791567E+00 0.53165408E+03</pdfrwt>
<pdfrwt beam="2">  1       -2 0.36017183E-01 0.53165408E+03</pdfrwt>
<totfact> 0.11611939E+02</totfact>
</mgrwt>
</event>
<event>
 6    1  0.8861680E-004  0.4052503E+03  0.7818608E-02  0.1041977E+00
          1   -1    0    0  502    0  0.00000000000E+00  0.00000000000E+00  0.14222791963E+04  0.14222791963E+04  0.00000000000E+00 0. -1.
         -1   -1    0    0    0  501 -0.00000000000E+00 -0.00000000000E+00 -0.25876064999E+03  0.25876064999E+03  0.00000000000E+00 0.  1.
    9000007    2    1    2  502    0 -0.18897077673E+02  0.63855659889E+02 -0.43880130564E+02  0.40736555127E+03  0.39948289283E+03 0.  0.
    9000005    1    3    3    0    0 -0.14854603581E+03 -0.10882314345E+03 -0.51786601087E+02  0.19128840360E+03  0.99999687468E+00 0.  0.
          4    1    3    3  502    0  0.12964895814E+03  0.17267880334E+03  0.79064705227E+01  0.21607714767E+03  0.00000000000E+00 0.  1.
   -9000007    1    1    2    0  501  0.18897077673E+02 -0.63855659889E+02  0.12073986769E+04  0.12736742950E+04  0.40000000000E+03 0. -1.
<mgrwt>
<rscale>  2 0.40525030E+03</rscale>
<asrwt>0</asrwt>
<pdfrwt beam="1">  1        1 0.21881218E+00 0.40525030E+03</pdfrwt>
<pdfrwt beam="2">  1       -1 0.39809332E-01 0.40525030E+03</pdfrwt>
<totfact> 0.49241177E+01</totfact>
</mgrwt>
</event>
<event>
 6    1  0.8861680E-004  0.4333604E+03  0.7818608E-02  0.1032804E+00
         -1   -1    0    0    0  501 -0.00000000000E+00  0.00000000000E+00  0.22776817830E+03  0.22776817830E+03  0.00000000000E+00 0. -1.
          1   -1    0    0  502    0  0.00000000000E+00 -0.00000000000E+00 -0.92300555844E+03  0.92300555844E+03  0.00000000000E+00 0.  1.
    9000007    2    1    2  502    0  0.16300405174E+03  0.32906882724E+02 -0.53568406621E+03  0.68913486943E+03  0.40037016080E+03 0.  0.
    9000005    1    3    3    0    0  0.26236166600E+03  0.12602545403E+03 -0.41679629163E+03  0.50836621403E+03  0.99999687468E+00 0.  0.
          4    1    3    3  502    0 -0.99357614259E+02 -0.93118571306E+02 -0.11888777457E+03  0.18076865540E+03  0.00000000000E+00 0.  1.
   -9000007    1    1    2    0  501 -0.16300405174E+03 -0.32906882724E+02 -0.15955331394E+03  0.46163886730E+03  0.40000000000E+03 0. -1.
<mgrwt>
<rscale>  2 0.43336043E+03</rscale>
<asrwt>0</asrwt>
<pdfrwt beam="1">  1        1 0.14200086E+00 0.43336043E+03</pdfrwt>
<pdfrwt beam="2">  1       -1 0.35041258E-01 0.43336043E+03</pdfrwt>
<totfact> 0.14116600E+02</totfact>
</mgrwt>
</event>
<event>
 6    1  0.8861680E-004  0.4708884E+03  0.7818608E-02  0.1021670E+00
          1   -1    0    0  502    0  0.00000000000E+00  0.00000000000E+00  0.87364438047E+03  0.87364438047E+03  0.00000000000E+00 0. -1.
         -1   -1    0    0    0  501 -0.00000000000E+00 -0.00000000000E+00 -0.25423364197E+03  0.25423364197E+03  0.00000000000E+00 0.  1.
    9000007    2    1    2  502    0 -0.17408526895E+03 -0.17450060879E+03  0.33349560567E+03  0.57787474380E+03  0.40244721043E+03 0.  0.
    9000005    1    3    3    0    0 -0.16768069498E+03 -0.29875983594E+03  0.27988570989E+03  0.44239266002E+03  0.99999687468E+00 0.  0.
          4    1    3    3  502    0 -0.64045739722E+01  0.12425922715E+03  0.53609895781E+02  0.13548208378E+03  0.00000000000E+00 0.  1.
   -9000007    1    1    2    0  501  0.17408526895E+03  0.17450060879E+03  0.28591513283E+03  0.55000327864E+03  0.40000000000E+03 0.  1.
<mgrwt>
<rscale>  2 0.47088836E+03</rscale>
<asrwt>0</asrwt>
<pdfrwt beam="1">  1        1 0.13440683E+00 0.47088836E+03</pdfrwt>
<pdfrwt beam="2">  1       -1 0.39112868E-01 0.47088836E+03</pdfrwt>
<totfact> 0.12662732E+02</totfact>
</mgrwt>
</event>
<event>
 6    1  0.8861680E-004  0.4870101E+03  0.7818608E-02  0.1017226E+00
          2   -1    0    0  502    0  0.00000000000E+00  0.00000000000E+00  0.60074357076E+03  0.60074357076E+03  0.00000000000E+00 0. -1.
         -2   -1    0    0    0  501 -0.00000000000E+00 -0.00000000000E+00 -0.46558831051E+03  0.46558831051E+03  0.00000000000E+00 0.  1.
    9000007    2    1    2  502    0 -0.11638526593E+03 -0.25321848295E+03  0.27539932861E+03  0.55905135834E+03  0.39878377703E+03 0.  0.
    9000005    1    3    3    0    0 -0.22010740463E+02 -0.21374614288E+03  0.36467687351E+03  0.42327545211E+03  0.99999687468E+00 0.  0.
          4    1    3    3  502    0 -0.94374525471E+02 -0.39472340064E+02 -0.89277544899E+02  0.13577590622E+03  0.00000000000E+00 0.  1.
   -9000007    1    1    2    0  501  0.11638526593E+03  0.25321848295E+03 -0.14024406837E+03  0.50728052293E+03  0.40000000000E+03 0. -1.
<mgrwt>
<rscale>  2 0.48701015E+03</rscale>
<asrwt>0</asrwt>
<pdfrwt beam="1">  1        2 0.92422089E-01 0.48701015E+03</pdfrwt>
<pdfrwt beam="2">  1       -2 0.71628970E-01 0.48701015E+03</pdfrwt>
<totfact> 0.90264369E+01</totfact>
</mgrwt>
</event>
<event>
 6    1  0.8861680E-004  0.5522775E+03  0.7818608E-02  0.1000968E+00
          2   -1    0    0  502    0  0.00000000000E+00  0.00000000000E+00  0.19295655231E+04  0.19295655231E+04  0.00000000000E+00 0. -1.
         -2   -1    0    0    0  501 -0.00000000000E+00 -0.00000000000E+00 -0.18037930857E+03  0.18037930857E+03  0.00000000000E+00 0.  1.
    9000007    2    1    2  502    0  0.23573042315E+03  0.29908754523E+03  0.50358144549E+03  0.74739082071E+03  0.39997071709E+03 0.  0.
    9000005    1    3    3    0    0  0.72584241523E+02  0.36200550996E+02  0.41880708867E+03  0.42659035330E+03  0.99999687468E+00 0.  0.
          4    1    3    3  502    0  0.16314618163E+03  0.26288699424E+03  0.84774356814E+02  0.32080046741E+03  0.00000000000E+00 0.  1.
   -9000007    1    1    2    0  501 -0.23573042315E+03 -0.29908754523E+03  0.12456047691E+04  0.13625540110E+04  0.40000000000E+03 0. -1.
<mgrwt>
<rscale>  2 0.55227754E+03</rscale>
<asrwt>0</asrwt>
<pdfrwt beam="1">  1        2 0.29685622E+00 0.55227754E+03</pdfrwt>
<pdfrwt beam="2">  1       -2 0.27750664E-01 0.55227754E+03</pdfrwt>
<totfact> 0.90999794E+01</totfact>
</mgrwt>
</event>
<event>
 6    1  0.8861680E-004  0.4206244E+03  0.7818608E-02  0.1036863E+00
          2   -1    0    0  502    0  0.00000000000E+00  0.00000000000E+00  0.12013215043E+04  0.12013215043E+04  0.00000000000E+00 0. -1.
         -2   -1    0    0    0  501 -0.00000000000E+00 -0.00000000000E+00 -0.17822971349E+03  0.17822971349E+03  0.00000000000E+00 0.  1.
    9000007    2    1    2  502    0 -0.46682953815E+02  0.12062709106E+03  0.22431743417E+03  0.47690473876E+03  0.40048673549E+03 0.  0.
    9000005    1    3    3    0    0 -0.16535153463E+03 -0.57938206579E+02  0.12720795405E+02  0.17567237806E+03  0.99999687468E+00 0.  0.
          4    1    3    3  502    0  0.11866858081E+03  0.17856529764E+03  0.21159663877E+03  0.30123236070E+03  0.00000000000E+00 0.  1.
   -9000007    1    1    2    0  501  0.46682953815E+02 -0.12062709106E+03  0.79877435667E+03  0.90264647905E+03  0.40000000000E+03 0. -1.
<mgrwt>
<rscale>  2 0.42062442E+03</rscale>
<asrwt>0</asrwt>
<pdfrwt beam="1">  1        2 0.18481869E+00 0.42062442E+03</pdfrwt>
<pdfrwt beam="2">  1       -2 0.27419957E-01 0.42062442E+03</pdfrwt>
<totfact> 0.23766681E+02</totfact>
</mgrwt>
</event>
<event>
 6    1  0.8861680E-004  0.5386574E+03  0.7818608E-02  0.1004154E+00
         -2   -1    0    0    0  501 -0.00000000000E+00  0.00000000000E+00  0.20251626511E+03  0.20251626511E+03  0.00000000000E+00 0. -1.
          2   -1    0    0  502    0  0.00000000000E+00 -0.00000000000E+00 -0.19875785318E+04  0.19875785318E+04  0.00000000000E+00 0.  1.
    9000007    2    1    2  502    0 -0.20980903462E+03  0.29381240631E+03 -0.31374554221E+03  0.62321303212E+03  0.39951552791E+03 0.  0.
    9000005    1    3    3    0    0 -0.96868990765E+02  0.33167270260E+03 -0.35667448401E+03  0.49659648666E+03  0.99999687468E+00 0.  0.
          4    1    3    3  502    0 -0.11294004385E+03 -0.37860296289E+02  0.42928941804E+02  0.12661654546E+03  0.00000000000E+00 0.  1.
   -9000007    1    1    2    0  501  0.20980903462E+03 -0.29381240631E+03 -0.14713167245E+04  0.15668817648E+04  0.40000000000E+03 0.  1.
<mgrwt>
<rscale>  2 0.53865743E+03</rscale>
<asrwt>0</asrwt>
<pdfrwt beam="1">  1        2 0.30578130E+00 0.53865743E+03</pdfrwt>
<pdfrwt beam="2">  1       -2 0.31156349E-01 0.53865743E+03</pdfrwt>
<totfact> 0.68565263E+01</totfact>
</mgrwt>
</event>
<event>
 6    1  0.8861680E-004  0.4258412E+03  0.7818608E-02  0.1035182E+00
         -1   -1    0    0    0  501 -0.00000000000E+00  0.00000000000E+00  0.15442415984E+03  0.15442415984E+03  0.00000000000E+00 0.  1.
          1   -1    0    0  502    0  0.00000000000E+00 -0.00000000000E+00 -0.11743887203E+04  0.11743887203E+04  0.00000000000E+00 0. -1.
    9000007    2    1    2  502    0  0.39227435017E+02 -0.14054943892E+03 -0.50437178364E+03  0.66013594174E+03  0.40011951840E+03 0.  0.
    9000005    1    3    3    0    0  0.84635354761E+02 -0.27239627989E+03 -0.31494164025E+03  0.42491424232E+03  0.99999687468E+00 0.  0.
          4    1    3    3  502    0 -0.45407919743E+02  0.13184684098E+03 -0.18943014339E+03  0.23522169942E+03  0.00000000000E+00 0.  1.
   -9000007    1    1    2    0  501 -0.39227435017E+02  0.14054943892E+03 -0.51559277680E+03  0.66867693838E+03  0.40000000000E+03 0.  1.
<mgrwt>
<rscale>  2 0.42584122E+03</rscale>
<asrwt>0</asrwt>
<pdfrwt beam="1">  1        1 0.18067519E+00 0.42584122E+03</pdfrwt>
<pdfrwt beam="2">  1       -1 0.23757562E-01 0.42584122E+03</pdfrwt>
<totfact> 0.17846107E+02</totfact>
</mgrwt>
</event>
<event>
 6    1  0.8861680E-004  0.4324263E+03  0.7818608E-02  0.1033096E+00
         -2   -1    0    0    0  501 -0.00000000000E+00  0.00000000000E+00  0.43865302334E+03  0.43865302334E+03  0.00000000000E+00 0. -1.
          2   -1    0    0  502    0  0.00000000000E+00 -0.00000000000E+00 -0.57560846393E+03  0.57560846393E+03  0.00000000000E+00 0.  1.
    9000007    2    1    2  502    0 -0.10034103163E+03  0.12947459514E+03  0.18979545764E+03  0.47241451356E+03  0.40040125308E+03 0.  0.
    9000005    1    3    3    0    0 -0.18575774380E+03  0.12860702584E+03  0.27218223579E+03  0.35373701524E+03  0.99999687468E+00 0.  0.
          4    1    3    3  502    0  0.85416712162E+02  0.86756929479E+00 -0.82386778153E+02  0.11867749832E+03  0.00000000000E+00 0.  1.
   -9000007    1    1    2    0  501  0.10034103163E+03 -0.12947459514E+03 -0.32675089823E+03  0.54184697370E+03  0.40000000000E+03 0.  1.
<mgrwt>
<rscale>  2 0.43242630E+03</rscale>
<asrwt>0</asrwt>
<pdfrwt beam="1">  1        2 0.88555148E-01 0.43242630E+03</pdfrwt>
<pdfrwt beam="2">  1       -2 0.67485081E-01 0.43242630E+03</pdfrwt>
<totfact> 0.10855290E+02</totfact>
</mgrwt>
</event>
<event>
 6    1  0.8861680E-004  0.5142132E+03  0.7818608E-02  0.1010134E+00
          1   -1    0    0  502    0  0.00000000000E+00  0.00000000000E+00  0.92467653412E+03  0.92467653412E+03  0.00000000000E+00 0. -1.
         -1   -1    0    0    0  501 -0.00000000000E+00 -0.00000000000E+00 -0.36831140316E+03  0.36831140316E+03  0.00000000000E+00 0.  1.
    9000007    2    1    2  502    0 -0.98663427777E+02  0.30186057368E+03 -0.26031937166E+02  0.51836504652E+03  0.40886474754E+03 0.  0.
    9000005    1    3    3    0    0  0.42488142221E+02  0.35241344816E+03 -0.70663142616E+02  0.36193198310E+03  0.99999687468E+00 0.  0.
          4    1    3    3  502    0 -0.14115157000E+03 -0.50552874481E+02  0.44631205449E+02  0.15643306342E+03  0.00000000000E+00 0.  1.
   -9000007    1    1    2    0  501  0.98663427777E+02 -0.30186057368E+03  0.58239706813E+03  0.77462289076E+03  0.40000000000E+03 0. -1.
<mgrwt>
<rscale>  2 0.51421315E+03</rscale>
<asrwt>0</asrwt>
<pdfrwt beam="1">  1        1 0.14225793E+00 0.51421315E+03</pdfrwt>
<pdfrwt beam="2">  1       -1 0.56663293E-01 0.51421315E+03</pdfrwt>
<totfact> 0.57520885E+01</totfact>
</mgrwt>
</event>
<event>
 6    1  0.8861680E-004  0.4152478E+03  0.7818608E-02  0.1038624E+00
          3   -1    0    0  502    0  0.00000000000E+00  0.00000000000E+00  0.62543888124E+03  0.62543888124E+03  0.00000000000E+00 0. -1.
         -3   -1    0    0    0  501 -0.00000000000E+00 -0.00000000000E+00 -0.39183964941E+03  0.39183964941E+03  0.00000000000E+00 0.  1.
    9000007    2    1    2  502    0 -0.10695608645E+03  0.37098246818E+02  0.39362728237E+03  0.57182947486E+03  0.39903712427E+03 0.  0.
    9000005    1    3    3    0    0 -0.70345854749E+02 -0.71170624966E+02  0.43795503251E+03  0.44924314979E+03  0.99999687468E+00 0.  0.
          4    1    3    3  502    0 -0.36610231700E+02  0.10826887178E+03 -0.44327750137E+02  0.12258632507E+03  0.00000000000E+00 0.  1.
   -9000007    1    1    2    0  501  0.10695608645E+03 -0.37098246818E+02 -0.16002805054E+03  0.44544905579E+03  0.40000000000E+03 0.  1.
<mgrwt>
<rscale>  2 0.41524784E+03</rscale>
<asrwt>0</asrwt>
<pdfrwt beam="1">  1        3 0.96221367E-01 0.41524784E+03</pdfrwt>
<pdfrwt beam="2">  1       -3 0.60283023E-01 0.41524784E+03</pdfrwt>
<totfact> 0.67047949E+00</totfact>
</mgrwt>
</event>
<event>
 6    1  0.8861680E-004  0.4488420E+03  0.7818608E-02  0.1028068E+00
         -1   -1    0    0    0  501 -0.00000000000E+00  0.00000000000E+00  0.21122922865E+03  0.21122922865E+03  0.00000000000E+00 0.  1.
          1   -1    0    0  502    0  0.00000000000E+00 -0.00000000000E+00 -0.11111437054E+04  0.11111437054E+04  0.00000000000E+00 0. -1.
    9000007    2    1    2  502    0 -0.59286699895E+01  0.20424142973E+03 -0.20082967041E+03  0.49142812410E+03  0.39927350763E+03 0.  0.
    9000005    1    3    3    0    0 -0.18126697480E+03  0.15609466973E+02 -0.13221486013E+03  0.22490696041E+03  0.99999687468E+00 0.  0.
          4    1    3    3  502    0  0.17533830481E+03  0.18863196275E+03 -0.68614810285E+02  0.26652116369E+03  0.00000000000E+00 0.  1.
   -9000007    1    1    2    0  501  0.59286699895E+01 -0.20424142973E+03 -0.69908480638E+03  0.83094480999E+03  0.40000000000E+03 0. -1.
<mgrwt>
<rscale>  2 0.44884203E+03</rscale>
<asrwt>0</asrwt>
<pdfrwt beam="1">  1        1 0.17094519E+00 0.44884203E+03</pdfrwt>
<pdfrwt beam="2">  1       -1 0.32496804E-01 0.44884203E+03</pdfrwt>
<totfact> 0.11575372E+02</totfact>
</mgrwt>
</event>
<event>
 6    1  0.8861680E-004  0.4008284E+03  0.7818608E-02  0.1043493E+00
         -2   -1    0    0    0  501 -0.00000000000E+00  0.00000000000E+00  0.12110250801E+04  0.12110250801E+04  0.00000000000E+00 0. -1.
          2   -1    0    0  502    0  0.00000000000E+00 -0.00000000000E+00 -0.14807988908E+03  0.14807988908E+03  0.00000000000E+00 0.  1.
    9000007    2    1    2  502    0 -0.42338619321E+01  0.23480275246E+02  0.75084863894E+03  0.85119404515E+03  0.40023539949E+03 0.  0.
    9000005    1    3    3    0    0 -0.18312311885E+02  0.16159378846E+03  0.11207652562E+03  0.19750959679E+03  0.99999687468E+00 0.  0.
          4    1    3    3  502    0  0.14078449953E+02 -0.13811351322E+03  0.63877211331E+03  0.65368444836E+03  0.00000000000E+00 0.  1.
   -9000007    1    1    2    0  501  0.42338619321E+01 -0.23480275246E+02  0.31209655207E+03  0.50791092401E+03  0.40000000000E+03 0.  1.
<mgrwt>
<rscale>  2 0.40082840E+03</rscale>
<asrwt>0</asrwt>
<pdfrwt beam="1">  1        2 0.22781522E-01 0.40082840E+03</pdfrwt>
<pdfrwt beam="2">  1       -2 0.18631154E+00 0.40082840E+03</pdfrwt>
<totfact> 0.41767100E+01</totfact>
</mgrwt>
</event>
<event>
 6    1  0.8861680E-004  0.4646342E+03  0.7818608E-02  0.1023446E+00
          1   -1    0    0  502    0  0.00000000000E+00  0.00000000000E+00  0.28077823892E+03  0.28077823892E+03  0.00000000000E+00 0. -1.
         -1   -1    0    0    0  501 -0.00000000000E+00 -0.00000000000E+00 -0.10153903185E+04  0.10153903185E+04  0.00000000000E+00 0.  1.
    9000007    2    1    2  502    0  0.21653363762E+02  0.23538215267E+03 -0.68663771271E+03  0.82907631187E+03  0.40002819456E+03 0.  0.
    9000005    1    3    3    0    0 -0.36601018884E+02  0.34119230678E+03 -0.48727612944E+03  0.59597890156E+03  0.99999687468E+00 0.  0.
          4    1    3    3  502    0  0.58254382647E+02 -0.10581015411E+03 -0.19936158327E+03  0.23309741031E+03  0.00000000000E+00 0.  1.
   -9000007    1    1    2    0  501 -0.21653363762E+02 -0.23538215267E+03 -0.47974366856E+02  0.46709224553E+03  0.40000000000E+03 0. -1.
<mgrwt>
<rscale>  2 0.46463416E+03</rscale>
<asrwt>0</asrwt>
<pdfrwt beam="1">  1        1 0.43196652E-01 0.46463416E+03</pdfrwt>
<pdfrwt beam="2">  1       -1 0.15621389E+00 0.46463416E+03</pdfrwt>
<totfact> 0.31541964E+01</totfact>
</mgrwt>
</event>
<event>
 6    1  0.8861680E-004  0.4322368E+03  0.7818608E-02  0.1033156E+00
         -2   -1    0    0    0  501 -0.00000000000E+00  0.00000000000E+00  0.14661475822E+03  0.14661475822E+03  0.00000000000E+00 0.  1.
          2   -1    0    0  502    0  0.00000000000E+00 -0.00000000000E+00 -0.23213605599E+04  0.23213605599E+04  0.00000000000E+00 0. -1.
    9000007    2    1    2  502    0 -0.15628192988E+03  0.49130628713E+02 -0.19161186015E+04  0.19642632089E+04  0.39997699766E+03 0.  0.
    9000005    1    3    3    0    0 -0.22470697887E+03  0.12545607245E+03 -0.17517253421E+04  0.17705296176E+04  0.99999687468E+00 0.  0.
          4    1    3    3  502    0  0.68425048993E+02 -0.76325443735E+02 -0.16439325936E+03  0.19373359134E+03  0.00000000000E+00 0.  1.
   -9000007    1    1    2    0  501  0.15628192988E+03 -0.49130628713E+02 -0.25862720022E+03  0.50371210922E+03  0.40000000000E+03 0.  1.
<mgrwt>
<rscale>  2 0.43223681E+03</rscale>
<asrwt>0</asrwt>
<pdfrwt beam="1">  1        2 0.35713240E+00 0.43223681E+03</pdfrwt>
<pdfrwt beam="2">  1       -2 0.22556116E-01 0.43223681E+03</pdfrwt>
<totfact> 0.82626331E+01</totfact>
</mgrwt>
</event>
<event>
 6    1  0.8861680E-004  0.4634191E+03  0.7818608E-02  0.1023794E+00
          2   -1    0    0  502    0  0.00000000000E+00  0.00000000000E+00  0.81123255409E+03  0.81123255409E+03  0.00000000000E+00 0.  1.
         -2   -1    0    0    0  501 -0.00000000000E+00 -0.00000000000E+00 -0.27485397483E+03  0.27485397483E+03  0.00000000000E+00 0. -1.
    9000007    2    1    2  502    0  0.18519600541E+03  0.14294022478E+03  0.37243004688E+03  0.59454956230E+03  0.40006946139E+03 0.  0.
    9000005    1    3    3    0    0  0.23644959951E+03  0.23994104471E+03  0.20489039189E+03  0.39428567147E+03  0.99999687468E+00 0.  0.
          4    1    3    3  502    0 -0.51253594098E+02 -0.97000819936E+02  0.16753965499E+03  0.20026389083E+03  0.00000000000E+00 0.  1.
   -9000007    1    1    2    0  501 -0.18519600541E+03 -0.14294022478E+03  0.16394853239E+03  0.49153696662E+03  0.40000000000E+03 0.  1.
<mgrwt>
<rscale>  2 0.46341909E+03</rscale>
<asrwt>0</asrwt>
<pdfrwt beam="1">  1        2 0.12480501E+00 0.46341909E+03</pdfrwt>
<pdfrwt beam="2">  1       -2 0.42285227E-01 0.46341909E+03</pdfrwt>
<totfact> 0.18454880E+02</totfact>
</mgrwt>
</event>
<event>
 6    1  0.8861680E-004  0.5624999E+03  0.7818608E-02  0.9986414E-01
         -2   -1    0    0    0  501 -0.00000000000E+00  0.00000000000E+00  0.36643785447E+03  0.36643785447E+03  0.00000000000E+00 0. -1.
          2   -1    0    0  502    0  0.00000000000E+00 -0.00000000000E+00 -0.89779738114E+03  0.89779738114E+03  0.00000000000E+00 0.  1.
    9000007    2    1    2  502    0 -0.20117420238E+03  0.34040900410E+03 -0.14208981509E+03  0.58021750328E+03  0.40014183209E+03 0.  0.
    9000005    1    3    3    0    0 -0.19910370467E+03  0.41587512117E+03 -0.18094046154E+03  0.49531288317E+03  0.99999687468E+00 0.  0.
          4    1    3    3  502    0 -0.20704977094E+01 -0.75466117071E+02  0.38850646448E+02  0.84904620109E+02  0.00000000000E+00 0.  1.
   -9000007    1    1    2    0  501  0.20117420238E+03 -0.34040900410E+03 -0.38926971158E+03  0.68401773232E+03  0.40000000000E+03 0.  1.
<mgrwt>
<rscale>  2 0.56249986E+03</rscale>
<asrwt>0</asrwt>
<pdfrwt beam="1">  1        2 0.13812267E+00 0.56249986E+03</pdfrwt>
<pdfrwt beam="2">  1       -2 0.56375055E-01 0.56249986E+03</pdfrwt>
<totfact> 0.89407223E+01</totfact>
</mgrwt>
</event>
<event>
 6    1  0.8861680E-004  0.6354937E+03  0.7818608E-02  0.9834387E-01
          2   -1    0    0  502    0  0.00000000000E+00  0.00000000000E+00  0.14441767426E+04  0.14441767426E+04  0.00000000000E+00 0.  1.
         -2   -1    0    0    0  501 -0.00000000000E+00 -0.00000000000E+00 -0.31652205099E+03  0.31652205099E+03  0.00000000000E+00 0. -1.
    9000007    2    1    2  502    0 -0.46720336837E+03 -0.16023856405E+03  0.26326006331E+03  0.68778991663E+03  0.39974207142E+03 0.  0.
    9000005    1    3    3    0    0 -0.32436898552E+03 -0.20022974052E+03 -0.50313593418E+01  0.38122631379E+03  0.99999687468E+00 0.  0.
          4    1    3    3  502    0 -0.14283438285E+03  0.39991176471E+02  0.26829142265E+03  0.30656360284E+03  0.00000000000E+00 0.  1.
   -9000007    1    1    2    0  501  0.46720336837E+03  0.16023856405E+03  0.86439462829E+03  0.10729088770E+04  0.40000000000E+03 0.  1.
<mgrwt>
<rscale>  2 0.63549369E+03</rscale>
<asrwt>0</asrwt>
<pdfrwt beam="1">  1        2 0.22218103E+00 0.63549369E+03</pdfrwt>
<pdfrwt beam="2">  1       -2 0.48695701E-01 0.63549369E+03</pdfrwt>
<totfact> 0.56348131E+01</totfact>
</mgrwt>
</event>
<event>
 6    1  0.8861680E-004  0.4534032E+03  0.7818608E-02  0.1026712E+00
          1   -1    0    0  502    0  0.00000000000E+00  0.00000000000E+00  0.14510963408E+04  0.14510963408E+04  0.00000000000E+00 0.  1.
         -1   -1    0    0    0  501 -0.00000000000E+00 -0.00000000000E+00 -0.14314463452E+03  0.14314463452E+03  0.00000000000E+00 0. -1.
    9000007    2    1    2  502    0 -0.86166287410E+02 -0.19634277574E+03  0.73429280253E+03  0.86276325693E+03  0.39899799872E+03 0.  0.
    9000005    1    3    3    0    0 -0.17010532959E+03 -0.41720459435E+02  0.94083856870E+02  0.19881949605E+03  0.99999687468E+00 0.  0.
          4    1    3    3  502    0  0.83939042184E+02 -0.15462231630E+03  0.64020894566E+03  0.66394376088E+03  0.00000000000E+00 0.  1.
   -9000007    1    1    2    0  501  0.86166287410E+02  0.19634277574E+03  0.57365890376E+03  0.73147771841E+03  0.40000000000E+03 0. -1.
<mgrwt>
<rscale>  2 0.45340316E+03</rscale>
<asrwt>0</asrwt>
<pdfrwt beam="1">  1        1 0.22324558E+00 0.45340316E+03</pdfrwt>
<pdfrwt beam="2">  1       -1 0.22022252E-01 0.45340316E+03</pdfrwt>
<totfact> 0.12959980E+02</totfact>
</mgrwt>
</event>
<event>
 6    1  0.8861680E-004  0.4486366E+03  0.7818608E-02  0.1028129E+00
         -1   -1    0    0    0  501 -0.00000000000E+00  0.00000000000E+00  0.66659372714E+03  0.66659372714E+03  0.00000000000E+00 0. -1.
          1   -1    0    0  502    0  0.00000000000E+00 -0.00000000000E+00 -0.30800326521E+03  0.30800326521E+03  0.00000000000E+00 0.  1.
    9000007    2    1    2  502    0  0.13557496794E+03  0.15008927172E+03  0.11111622067E+03  0.46259029171E+03  0.40091844816E+03 0.  0.
    9000005    1    3    3    0    0 -0.19859496994E+00  0.10246052527E+03  0.24530340363E+03  0.26584386113E+03  0.99999687468E+00 0.  0.
          4    1    3    3  502    0  0.13577356291E+03  0.47628746450E+02 -0.13418718296E+03  0.19674643057E+03  0.00000000000E+00 0.  1.
   -9000007    1    1    2    0  501 -0.13557496794E+03 -0.15008927172E+03  0.24747424127E+03  0.51200670065E+03  0.40000000000E+03 0. -1.
<mgrwt>
<rscale>  2 0.44863663E+03</rscale>
<asrwt>0</asrwt>
<pdfrwt beam="1">  1        1 0.47385118E-01 0.44863663E+03</pdfrwt>
<pdfrwt beam="2">  1       -1 0.10255288E+00 0.44863663E+03</pdfrwt>
<totfact> 0.79565205E+01</totfact>
</mgrwt>
</event>
<event>
 6    1  0.8861680E-004  0.4639564E+03  0.7818608E-02  0.1023640E+00
          1   -1    0    0  502    0  0.00000000000E+00  0.00000000000E+00  0.58455095730E+03  0.58455095730E+03  0.00000000000E+00 0. -1.
         -1   -1    0    0    0  501 -0.00000000000E+00 -0.00000000000E+00 -0.42866087626E+03  0.42866087626E+03  0.00000000000E+00 0.  1.
    9000007    2    1    2  502    0 -0.12959450166E+03 -0.19611393517E+03 -0.11225200511E+03  0.47734283018E+03  0.40000031806E+03 0.  0.
    9000005    1    3    3    0    0 -0.24735628860E+03 -0.40689669564E+02 -0.12844393030E+03  0.28167290595E+03  0.99999687468E+00 0.  0.
          4    1    3    3  502    0  0.11776178695E+03 -0.15542426561E+03  0.16191925196E+02  0.19566992423E+03  0.00000000000E+00 0.  1.
   -9000007    1    1    2    0  501  0.12959450166E+03  0.19611393517E+03  0.26814208614E+03  0.53586900339E+03  0.40000000000E+03 0. -1.
<mgrwt>
<rscale>  2 0.46395640E+03</rscale>
<asrwt>0</asrwt>
<pdfrwt beam="1">  1        1 0.89930916E-01 0.46395640E+03</pdfrwt>
<pdfrwt beam="2">  1       -1 0.65947827E-01 0.46395640E+03</pdfrwt>
<totfact> 0.86703139E+01</totfact>
</mgrwt>
</event>
<event>
 6    1  0.8861680E-004  0.4548626E+03  0.7818608E-02  0.1026282E+00
         -2   -1    0    0    0  501 -0.00000000000E+00  0.00000000000E+00  0.42554908741E+03  0.42554908741E+03  0.00000000000E+00 0. -1.
          2   -1    0    0  502    0  0.00000000000E+00 -0.00000000000E+00 -0.48937251011E+03  0.48937251011E+03  0.00000000000E+00 0.  1.
    9000007    2    1    2  502    0  0.14164793637E+03 -0.16357610474E+03  0.49424257868E+01  0.45497592482E+03  0.40019668249E+03 0.  0.
    9000005    1    3    3    0    0  0.12582525581E+03 -0.19108140634E+03  0.17117769227E+03  0.28573921882E+03  0.99999687468E+00 0.  0.
          4    1    3    3  502    0  0.15822680553E+02  0.27505301606E+02 -0.16623526648E+03  0.16923670600E+03  0.00000000000E+00 0.  1.
   -9000007    1    1    2    0  501 -0.14164793637E+03  0.16357610474E+03 -0.68765848478E+02  0.45994567270E+03  0.40000000000E+03 0.  1.
<mgrwt>
<rscale>  2 0.45486257E+03</rscale>
<asrwt>0</asrwt>
<pdfrwt beam="1">  1        2 0.75288078E-01 0.45486257E+03</pdfrwt>
<pdfrwt beam="2">  1       -2 0.65469090E-01 0.45486257E+03</pdfrwt>
<totfact> 0.13949768E+02</totfact>
</mgrwt>
</event>
<event>
 6    1  0.8861680E-004  0.9988219E+03  0.7818608E-02  0.9309838E-01
         -2   -1    0    0    0  501 -0.00000000000E+00  0.00000000000E+00  0.56405062785E+03  0.56405062785E+03  0.00000000000E+00 0.  1.
          2   -1    0    0  502    0  0.00000000000E+00 -0.00000000000E+00 -0.17819028296E+04  0.17819028296E+04  0.00000000000E+00 0. -1.
    9000007    2    1    2  502    0 -0.27130095006E+03 -0.87437725179E+03 -0.50787005208E+03  0.11203048794E+04  0.39876214604E+03 0.  0.
    9000005    1    3    3    0    0 -0.36975876690E+03 -0.59485978809E+03 -0.32568379274E+03  0.77243164489E+03  0.99999687468E+00 0.  0.
          4    1    3    3  502    0  0.98457816845E+02 -0.27951746371E+03 -0.18218625934E+03  0.34787323454E+03  0.00000000000E+00 0.  1.
   -9000007    1    1    2    0  501  0.27130095006E+03  0.87437725179E+03 -0.70998214966E+03  0.12256485780E+04  0.40000000000E+03 0.  1.
<mgrwt>
<rscale>  2 0.99882195E+03</rscale>
<asrwt>0</asrwt>
<pdfrwt beam="1">  1        2 0.27413889E+00 0.99882195E+03</pdfrwt>
<pdfrwt beam="2">  1       -2 0.86777021E-01 0.99882195E+03</pdfrwt>
<totfact> 0.10140063E+01</totfact>
</mgrwt>
</event>
<event>
 6    1  0.8861680E-004  0.4712530E+03  0.7818608E-02  0.1021567E+00
         -2   -1    0    0    0  501 -0.00000000000E+00  0.00000000000E+00  0.25815891332E+03  0.25815891332E+03  0.00000000000E+00 0.  1.
          2   -1    0    0  502    0  0.00000000000E+00 -0.00000000000E+00 -0.93560949094E+03  0.93560949094E+03  0.00000000000E+00 0. -1.
    9000007    2    1    2  502    0 -0.21742850899E+03  0.12300135009E+03 -0.50790412881E+03  0.69261923789E+03  0.39918706892E+03 0.  0.
    9000005    1    3    3    0    0 -0.17105823074E+03  0.54238781576E+02 -0.56441715968E+03  0.59225880649E+03  0.99999687468E+00 0.  0.
          4    1    3    3  502    0 -0.46370278245E+02  0.68762568512E+02  0.56513030872E+02  0.10036043140E+03  0.00000000000E+00 0.  1.
   -9000007    1    1    2    0  501  0.21742850899E+03 -0.12300135009E+03 -0.16954644881E+03  0.50114916636E+03  0.40000000000E+03 0.  1.
<mgrwt>
<rscale>  2 0.47125302E+03</rscale>
<asrwt>0</asrwt>
<pdfrwt beam="1">  1        2 0.14393992E+00 0.47125302E+03</pdfrwt>
<pdfrwt beam="2">  1       -2 0.39716755E-01 0.47125302E+03</pdfrwt>
<totfact> 0.17175968E+02</totfact>
</mgrwt>
</event>
<event>
 6    1  0.8861680E-004  0.4869689E+03  0.7818608E-02  0.1017237E+00
          1   -1    0    0  502    0  0.00000000000E+00  0.00000000000E+00  0.20785426082E+04  0.20785426082E+04  0.00000000000E+00 0. -1.
         -1   -1    0    0    0  501 -0.00000000000E+00 -0.00000000000E+00 -0.13230539878E+03  0.13230539878E+03  0.00000000000E+00 0.  1.
    9000007    2    1    2  502    0  0.27705050132E+03 -0.19635055803E+02  0.13832895718E+04  0.14665009385E+04  0.39999055917E+03 0.  0.
    9000005    1    3    3    0    0  0.28918791944E+03  0.12242612639E+03  0.11584881923E+04  0.12002973385E+04  0.99999687468E+00 0.  0.
          4    1    3    3  502    0 -0.12137418120E+02 -0.14206118219E+03  0.22480137948E+03  0.26620359994E+03  0.00000000000E+00 0.  1.
   -9000007    1    1    2    0  501 -0.27705050132E+03  0.19635055803E+02  0.56294763766E+03  0.74434706854E+03  0.40000000000E+03 0. -1.
<mgrwt>
<rscale>  2 0.48696893E+03</rscale>
<asrwt>0</asrwt>
<pdfrwt beam="1">  1        1 0.31977576E+00 0.48696893E+03</pdfrwt>
<pdfrwt beam="2">  1       -1 0.20354678E-01 0.48696893E+03</pdfrwt>
<totfact> 0.56209174E+01</totfact>
</mgrwt>
</event>
<event>
 6    1  0.8861680E-004  0.4003390E+03  0.7818608E-02  0.1043662E+00
          2   -1    0    0  502    0  0.00000000000E+00  0.00000000000E+00  0.45788646307E+03  0.45788646307E+03  0.00000000000E+00 0.  1.
         -2   -1    0    0    0  501 -0.00000000000E+00 -0.00000000000E+00 -0.52761225487E+03  0.52761225487E+03  0.00000000000E+00 0. -1.
    9000007    2    1    2  502    0 -0.11368173189E+02 -0.96522750010E+01  0.25100814793E+03  0.47257312696E+03  0.40012231658E+03 0.  0.
    9000005    1    3    3    0    0  0.12447991389E+03  0.12439148220E+03  0.26590627085E+02  0.17797907531E+03  0.99999687468E+00 0.  0.
          4    1    3    3  502    0 -0.13584808708E+03 -0.13404375720E+03  0.22441752085E+03  0.29459405166E+03  0.00000000000E+00 0.  1.
   -9000007    1    1    2    0  501  0.11368173189E+02  0.96522750010E+01 -0.32073393974E+03  0.51292559098E+03  0.40000000000E+03 0. -1.
<mgrwt>
<rscale>  2 0.40033902E+03</rscale>
<asrwt>0</asrwt>
<pdfrwt beam="1">  1        2 0.70444071E-01 0.40033902E+03</pdfrwt>
<pdfrwt beam="2">  1       -2 0.81171116E-01 0.40033902E+03</pdfrwt>
<totfact> 0.94461135E+01</totfact>
</mgrwt>
</event>
<event>
 6    1  0.8861680E-004  0.5893208E+03  0.7818608E-02  0.9927813E-01
          2   -1    0    0  502    0  0.00000000000E+00  0.00000000000E+00  0.40277253723E+03  0.40277253723E+03  0.00000000000E+00 0.  1.
         -2   -1    0    0    0  501 -0.00000000000E+00 -0.00000000000E+00 -0.97499065419E+03  0.97499065419E+03  0.00000000000E+00 0. -1.
    9000007    2    1    2  502    0 -0.26844472671E+03  0.33945703996E+03 -0.51879777889E+02  0.59160440315E+03  0.40001325627E+03 0.  0.
    9000005    1    3    3    0    0 -0.36668816847E+03  0.19822729835E+03 -0.47173961277E+02  0.41950048549E+03  0.99999687468E+00 0.  0.
          4    1    3    3  502    0  0.98243441759E+02  0.14122974161E+03 -0.47058166120E+01  0.17210391766E+03  0.00000000000E+00 0.  1.
   -9000007    1    1    2    0  501  0.26844472671E+03 -0.33945703996E+03 -0.52033833907E+03  0.78615878827E+03  0.40000000000E+03 0.  1.
<mgrwt>
<rscale>  2 0.58932076E+03</rscale>
<asrwt>0</asrwt>
<pdfrwt beam="1">  1        2 0.61965007E-01 0.58932076E+03</pdfrwt>
<pdfrwt beam="2">  1       -2 0.14999856E+00 0.58932076E+03</pdfrwt>
<totfact> 0.24290473E+01</totfact>
</mgrwt>
</event>
<event>
 6    1  0.8861680E-004  0.4398376E+03  0.7818608E-02  0.1030797E+00
         -1   -1    0    0    0  501 -0.00000000000E+00  0.00000000000E+00  0.17485305087E+03  0.17485305087E+03  0.00000000000E+00 0. -1.
          1   -1    0    0  502    0  0.00000000000E+00 -0.00000000000E+00 -0.11110175838E+04  0.11110175838E+04  0.00000000000E+00 0.  1.
    9000007    2    1    2  502    0 -0.15931094446E+03 -0.89180820039E+02 -0.50968890110E+03  0.67332295471E+03  0.40030966731E+03 0.  0.
    9000005    1    3    3    0    0  0.16797053880E+02 -0.15315542301E+03 -0.28165707695E+02  0.15663023878E+03  0.99999687468E+00 0.  0.
          4    1    3    3  502    0 -0.17610799834E+03  0.63974602972E+02 -0.48152319341E+03  0.51669271593E+03  0.00000000000E+00 0.  1.
   -9000007    1    1    2    0  501  0.15931094446E+03  0.89180820039E+02 -0.42647563185E+03  0.61254767998E+03  0.40000000000E+03 0.  1.
<mgrwt>
<rscale>  2 0.43983755E+03</rscale>
<asrwt>0</asrwt>
<pdfrwt beam="1">  1        1 0.17092578E+00 0.43983755E+03</pdfrwt>
<pdfrwt beam="2">  1       -1 0.26900470E-01 0.43983755E+03</pdfrwt>
<totfact> 0.16052606E+02</totfact>
</mgrwt>
</event>
<event>
 6    1  0.8861680E-004  0.5190018E+03  0.7818608E-02  0.1008935E+00
          1   -1    0    0  502    0  0.00000000000E+00  0.00000000000E+00  0.48981598970E+03  0.48981598970E+03  0.00000000000E+00 0.  1.
         -1   -1    0    0    0  501 -0.00000000000E+00 -0.00000000000E+00 -0.55318902659E+03  0.55318902659E+03  0.00000000000E+00 0. -1.
    9000007    2    1    2  502    0 -0.36084117961E+02  0.32821333671E+03 -0.71753602669E+02  0.52426009646E+03  0.40084162868E+03 0.  0.
    9000005    1    3    3    0    0 -0.17995458397E+03  0.23516640452E+02 -0.10568245441E+02  0.18179486372E+03  0.99999687468E+00 0.  0.
          4    1    3    3  502    0  0.14387046601E+03  0.30469669626E+03 -0.61185357228E+02  0.34246523275E+03  0.00000000000E+00 0.  1.
   -9000007    1    1    2    0  501  0.36084117961E+02 -0.32821333671E+03  0.83805657834E+01  0.51874491983E+03  0.40000000000E+03 0. -1.
<mgrwt>
<rscale>  2 0.51900178E+03</rscale>
<asrwt>0</asrwt>
<pdfrwt beam="1">  1        1 0.75356306E-01 0.51900178E+03</pdfrwt>
<pdfrwt beam="2">  1       -1 0.85106005E-01 0.51900178E+03</pdfrwt>
<totfact> 0.64889234E+01</totfact>
</mgrwt>
</event>
<event>
 6    1  0.8861680E-004  0.4291736E+03  0.7818608E-02  0.1034121E+00
          1   -1    0    0  502    0  0.00000000000E+00  0.00000000000E+00  0.10716697773E+04  0.10716697773E+04  0.00000000000E+00 0. -1.
         -1   -1    0    0    0  501 -0.00000000000E+00 -0.00000000000E+00 -0.37498672815E+03  0.37498672815E+03  0.00000000000E+00 0.  1.
    9000007    2    1    2  502    0  0.73975204199E+02  0.13392501577E+03 -0.18366854933E+03  0.46766356490E+03  0.40195377002E+03 0.  0.
    9000005    1    3    3    0    0 -0.85910169463E+02 -0.10331025981E+03 -0.14108312480E+02  0.13510592687E+03  0.99999687468E+00 0.  0.
          4    1    3    3  502    0  0.15988537366E+03  0.23723527559E+03 -0.16956023685E+03  0.33255763803E+03  0.00000000000E+00 0.  1.
   -9000007    1    1    2    0  501 -0.73975204199E+02 -0.13392501577E+03  0.88035159845E+03  0.97899294051E+03  0.40000000000E+03 0. -1.
<mgrwt>
<rscale>  2 0.42917361E+03</rscale>
<asrwt>0</asrwt>
<pdfrwt beam="1">  1        1 0.16487227E+00 0.42917361E+03</pdfrwt>
<pdfrwt beam="2">  1       -1 0.57690266E-01 0.42917361E+03</pdfrwt>
<totfact> 0.43456359E+01</totfact>
</mgrwt>
</event>
<event>
 6    1  0.8861680E-004  0.5052787E+03  0.7818608E-02  0.1012410E+00
         -2   -1    0    0    0  501 -0.00000000000E+00  0.00000000000E+00  0.10655254099E+03  0.10655254099E+03  0.00000000000E+00 0. -1.
          2   -1    0    0  502    0  0.00000000000E+00 -0.00000000000E+00 -0.29395271211E+04  0.29395271211E+04  0.00000000000E+00 0.  1.
    9000007    2    1    2  502    0 -0.24525476706E+03  0.18655515474E+03 -0.76241410463E+03  0.91484213213E+03  0.40088418933E+03 0.  0.
    9000005    1    3    3    0    0  0.83913971860E+02  0.29528073181E+02 -0.25383125940E+02  0.92513592814E+02  0.99999687468E+00 0.  0.
          4    1    3    3  502    0 -0.32916873892E+03  0.15702708156E+03 -0.73703097869E+03  0.82232853932E+03  0.00000000000E+00 0.  1.
   -9000007    1    1    2    0  501  0.24525476706E+03 -0.18655515474E+03 -0.20705604755E+04  0.21312375300E+04  0.40000000000E+03 0.  1.
<mgrwt>
<rscale>  2 0.50527868E+03</rscale>
<asrwt>0</asrwt>
<pdfrwt beam="1">  1        2 0.45223495E+00 0.50527868E+03</pdfrwt>
<pdfrwt beam="2">  1       -2 0.16392698E-01 0.50527868E+03</pdfrwt>
<totfact> 0.62791303E+01</totfact>
</mgrwt>
</event>
<event>
 6    1  0.8861680E-004  0.4071137E+03  0.7818608E-02  0.1041344E+00
         -1   -1    0    0    0  501 -0.00000000000E+00  0.00000000000E+00  0.71331861223E+02  0.71331861223E+02  0.00000000000E+00 0.  1.
          1   -1    0    0  502    0  0.00000000000E+00 -0.00000000000E+00 -0.23303993461E+04  0.23303993461E+04  0.00000000000E+00 0. -1.
    9000007    2    1    2  502    0 -0.22118588293E+02  0.72534592812E+02 -0.11947122122E+04  0.12621687274E+04  0.39997765866E+03 0.  0.
    9000005    1    3    3    0    0 -0.11931695617E+02  0.88865236174E+02 -0.12239140215E+04  0.12271943316E+04  0.99999687468E+00 0.  0.
          4    1    3    3  502    0 -0.10186892676E+02 -0.16330643362E+02  0.29201809305E+02  0.34974395802E+02  0.00000000000E+00 0.  1.
   -9000007    1    1    2    0  501  0.22118588293E+02 -0.72534592812E+02 -0.10643552727E+04  0.11395624799E+04  0.40000000000E+03 0. -1.
<mgrwt>
<rscale>  2 0.40711370E+03</rscale>
<asrwt>0</asrwt>
<pdfrwt beam="1">  1        1 0.35852298E+00 0.40711370E+03</pdfrwt>
<pdfrwt beam="2">  1       -1 0.10974132E-01 0.40711370E+03</pdfrwt>
<totfact> 0.10511670E+02</totfact>
</mgrwt>
</event>
<event>
 6    1  0.8861680E-004  0.5369683E+03  0.7818608E-02  0.1004556E+00
          2   -1    0    0  502    0  0.00000000000E+00  0.00000000000E+00  0.13125505342E+04  0.13125505342E+04  0.00000000000E+00 0. -1.
         -2   -1    0    0    0  501 -0.00000000000E+00 -0.00000000000E+00 -0.29192262595E+03  0.29192262595E+03  0.00000000000E+00 0.  1.
    9000007    2    1    2  502    0 -0.20910742626E+03  0.29107324045E+03  0.90933550468E+03  0.10559883872E+04  0.39971348097E+03 0.  0.
    9000005    1    3    3    0    0  0.64063898332E+02  0.17624701729E+03  0.59564434442E+03  0.62446807701E+03  0.99999687468E+00 0.  0.
          4    1    3    3  502    0 -0.27317132459E+03  0.11482622316E+03  0.31369116026E+03  0.43152031021E+03  0.00000000000E+00 0.  1.
   -9000007    1    1    2    0  501  0.20910742626E+03 -0.29107324045E+03  0.11129240356E+03  0.54848477291E+03  0.40000000000E+03 0.  1.
<mgrwt>
<rscale>  2 0.53696830E+03</rscale>
<asrwt>0</asrwt>
<pdfrwt beam="1">  1        2 0.20193085E+00 0.53696830E+03</pdfrwt>
<pdfrwt beam="2">  1       -2 0.44911174E-01 0.53696830E+03</pdfrwt>
<totfact> 0.79522890E+01</totfact>
</mgrwt>
</event>
<event>
 6    1  0.8861680E-004  0.5092013E+03  0.7818608E-02  0.1011405E+00
          2   -1    0    0  502    0  0.00000000000E+00  0.00000000000E+00  0.39638695120E+03  0.39638695120E+03  0.00000000000E+00 0. -1.
         -2   -1    0    0    0  501 -0.00000000000E+00 -0.00000000000E+00 -0.69170216036E+03  0.69170216036E+03  0.00000000000E+00 0.  1.
    9000007    2    1    2  502    0  0.15743809870E+03  0.27444966626E+03 -0.27424137760E+03  0.57764471634E+03  0.39793933068E+03 0.  0.
    9000005    1    3    3    0    0  0.32477510947E+02 -0.92742122940E+02  0.70321571422E+01  0.98520765895E+02  0.99999687468E+00 0.  0.
          4    1    3    3  502    0  0.12496058775E+03  0.36719178920E+03 -0.28127353474E+03  0.47912395045E+03  0.00000000000E+00 0.  1.
   -9000007    1    1    2    0  501 -0.15743809870E+03 -0.27444966626E+03 -0.21073831559E+02  0.51044439522E+03  0.40000000000E+03 0. -1.
<mgrwt>
<rscale>  2 0.50920126E+03</rscale>
<asrwt>0</asrwt>
<pdfrwt beam="1">  1        2 0.60982608E-01 0.50920126E+03</pdfrwt>
<pdfrwt beam="2">  1       -2 0.10641572E+00 0.50920126E+03</pdfrwt>
<totfact> 0.58807878E+01</totfact>
</mgrwt>
</event>
<event>
 6    1  0.8861680E-004  0.5582577E+03  0.7818608E-02  0.9996005E-01
         -1   -1    0    0    0  501 -0.00000000000E+00  0.00000000000E+00  0.28482416025E+03  0.28482416025E+03  0.00000000000E+00 0. -1.
          1   -1    0    0  502    0  0.00000000000E+00 -0.00000000000E+00 -0.11911839940E+04  0.11911839940E+04  0.00000000000E+00 0.  1.
    9000007    2    1    2  502    0  0.25445747834E+03 -0.29560963845E+03 -0.66344963654E+03  0.86679634334E+03  0.39879420003E+03 0.  0.
    9000005    1    3    3    0    0  0.52367780255E+02 -0.30241632779E+03 -0.21459826190E+03  0.37450158041E+03  0.99999687468E+00 0.  0.
          4    1    3    3  502    0  0.20208969808E+03  0.68066893462E+01 -0.44885137464E+03  0.49229476293E+03  0.00000000000E+00 0.  1.
   -9000007    1    1    2    0  501 -0.25445747834E+03  0.29560963845E+03 -0.24291019719E+03  0.60921181088E+03  0.40000000000E+03 0. -1.
<mgrwt>
<rscale>  2 0.55825774E+03</rscale>
<asrwt>0</asrwt>
<pdfrwt beam="1">  1        1 0.18325907E+00 0.55825774E+03</pdfrwt>
<pdfrwt beam="2">  1       -1 0.43819103E-01 0.55825774E+03</pdfrwt>
<totfact> 0.58457651E+01</totfact>
</mgrwt>
</event>
<event>
 6    1  0.8861680E-004  0.4026616E+03  0.7818608E-02  0.1042862E+00
          2   -1    0    0  502    0  0.00000000000E+00  0.00000000000E+00  0.21936279466E+04  0.21936279466E+04  0.00000000000E+00 0.  1.
         -2   -1    0    0    0  501 -0.00000000000E+00 -0.00000000000E+00 -0.82831483158E+02  0.82831483158E+02  0.00000000000E+00 0. -1.
    9000007    2    1    2  502    0 -0.38431156819E+02  0.13462261553E+01  0.68381814105E+03  0.79397978446E+03  0.40164397414E+03 0.  0.
    9000005    1    3    3    0    0 -0.13425140549E+03 -0.59296215437E+01  0.36070302942E+02  0.13914261402E+03  0.99999687468E+00 0.  0.
          4    1    3    3  502    0  0.95820248676E+02  0.72758476990E+01  0.64774783811E+03  0.65483717044E+03  0.00000000000E+00 0.  1.
   -9000007    1    1    2    0  501  0.38431156819E+02 -0.13462261553E+01  0.14269783224E+04  0.14824796453E+04  0.40000000000E+03 0.  1.
<mgrwt>
<rscale>  2 0.40266160E+03</rscale>
<asrwt>0</asrwt>
<pdfrwt beam="1">  1        2 0.33748118E+00 0.40266160E+03</pdfrwt>
<pdfrwt beam="2">  1       -2 0.12743307E-01 0.40266160E+03</pdfrwt>
<totfact> 0.25712883E+02</totfact>
</mgrwt>
</event>
<event>
 6    1  0.8861680E-004  0.4154846E+03  0.7818608E-02  0.1038546E+00
          2   -1    0    0  502    0  0.00000000000E+00  0.00000000000E+00  0.99228149867E+03  0.99228149867E+03  0.00000000000E+00 0.  1.
         -2   -1    0    0    0  501 -0.00000000000E+00 -0.00000000000E+00 -0.24690496304E+03  0.24690496304E+03  0.00000000000E+00 0. -1.
    9000007    2    1    2  502    0 -0.43474324119E+02  0.10613791447E+03  0.35537721493E+02  0.41637031225E+03  0.39868036512E+03 0.  0.
    9000005    1    3    3    0    0  0.98319633372E+02  0.20966390030E+03  0.59710950482E+02  0.23914869641E+03  0.99999687468E+00 0.  0.
          4    1    3    3  502    0 -0.14179395749E+03 -0.10352598582E+03 -0.24173228989E+02  0.17722161584E+03  0.00000000000E+00 0.  1.
   -9000007    1    1    2    0  501  0.43474324119E+02 -0.10613791447E+03  0.70983881413E+03  0.82281614945E+03  0.40000000000E+03 0.  1.
<mgrwt>
<rscale>  2 0.41548464E+03</rscale>
<asrwt>0</asrwt>
<pdfrwt beam="1">  1        2 0.15265869E+00 0.41548464E+03</pdfrwt>
<pdfrwt beam="2">  1       -2 0.37985379E-01 0.41548464E+03</pdfrwt>
<totfact> 0.17315932E+02</totfact>
</mgrwt>
</event>
<event>
 6    1  0.8861680E-004  0.4323990E+03  0.7818608E-02  0.1033105E+00
         -2   -1    0    0    0  501 -0.00000000000E+00  0.00000000000E+00  0.32988210182E+03  0.32988210182E+03  0.00000000000E+00 0. -1.
          2   -1    0    0  502    0  0.00000000000E+00 -0.00000000000E+00 -0.57191930551E+03  0.57191930551E+03  0.00000000000E+00 0.  1.
    9000007    2    1    2  502    0  0.11913205312E+03 -0.11093619544E+03 -0.16393017749E+03  0.46293925007E+03  0.40117372873E+03 0.  0.
    9000005    1    3    3    0    0 -0.19501419438E+02 -0.13526603169E+03  0.96227710878E+02  0.16714657348E+03  0.99999687468E+00 0.  0.
          4    1    3    3  502    0  0.13863347256E+03  0.24329836251E+02 -0.26015788837E+03  0.29579267659E+03  0.00000000000E+00 0.  1.
   -9000007    1    1    2    0  501 -0.11913205312E+03  0.11093619544E+03 -0.78107026200E+02  0.43886215727E+03  0.40000000000E+03 0.  1.
<mgrwt>
<rscale>  2 0.43239898E+03</rscale>
<asrwt>0</asrwt>
<pdfrwt beam="1">  1        2 0.87987585E-01 0.43239898E+03</pdfrwt>
<pdfrwt beam="2">  1       -2 0.50751093E-01 0.43239898E+03</pdfrwt>
<totfact> 0.19811563E+02</totfact>
</mgrwt>
</event>
<event>
 6    1  0.8861680E-004  0.6603848E+03  0.7818608E-02  0.9787486E-01
         -1   -1    0    0    0  501 -0.00000000000E+00  0.00000000000E+00  0.40530260803E+03  0.40530260803E+03  0.00000000000E+00 0.  1.
          1   -1    0    0  502    0  0.00000000000E+00 -0.00000000000E+00 -0.14811568124E+04  0.14811568124E+04  0.00000000000E+00 0. -1.
    9000007    2    1    2  502    0  0.52390695656E+03 -0.40409050176E+02 -0.44609648199E+02  0.66188736249E+03  0.39999183671E+03 0.  0.
    9000005    1    3    3    0    0  0.49144572154E+03  0.10655223862E+03 -0.74764343043E+02  0.50839254888E+03  0.99999687468E+00 0.  0.
          4    1    3    3  502    0  0.32461235025E+02 -0.14696128879E+03  0.30154694844E+02  0.15349481361E+03  0.00000000000E+00 0.  1.
   -9000007    1    1    2    0  501 -0.52390695656E+03  0.40409050176E+02 -0.10312445562E+04  0.12245720579E+04  0.40000000000E+03 0. -1.
<mgrwt>
<rscale>  2 0.66038483E+03</rscale>
<asrwt>0</asrwt>
<pdfrwt beam="1">  1        1 0.22787028E+00 0.66038483E+03</pdfrwt>
<pdfrwt beam="2">  1       -1 0.62354248E-01 0.66038483E+03</pdfrwt>
<totfact> 0.18436918E+01</totfact>
</mgrwt>
</event>
<event>
 6    1  0.8861680E-004  0.4100661E+03  0.7818608E-02  0.1040349E+00
          1   -1    0    0  502    0  0.00000000000E+00  0.00000000000E+00  0.55482966035E+03  0.55482966035E+03  0.00000000000E+00 0.  1.
         -1   -1    0    0    0  501 -0.00000000000E+00 -0.00000000000E+00 -0.33778005884E+03  0.33778005884E+03  0.00000000000E+00 0. -1.
    9000007    2    1    2  502    0 -0.13238420736E+00  0.96000620535E+02  0.25127192348E+03  0.47982974876E+03  0.39734477673E+03 0.  0.
    9000005    1    3    3    0    0  0.68871053865E+02  0.21254428153E+03  0.37187576831E+02  0.22649991067E+03  0.99999687468E+00 0.  0.
          4    1    3    3  502    0 -0.69003438072E+02 -0.11654366099E+03  0.21408434665E+03  0.25332983808E+03  0.00000000000E+00 0.  1.
   -9000007    1    1    2    0  501  0.13238420736E+00 -0.96000620535E+02 -0.34222321970E+02  0.41277997043E+03  0.40000000000E+03 0. -1.
<mgrwt>
<rscale>  2 0.41006614E+03</rscale>
<asrwt>0</asrwt>
<pdfrwt beam="1">  1        1 0.85358410E-01 0.41006614E+03</pdfrwt>
<pdfrwt beam="2">  1       -1 0.51966163E-01 0.41006614E+03</pdfrwt>
<totfact> 0.14893928E+02</totfact>
</mgrwt>
</event>
<event>
 6    1  0.8861680E-004  0.8565222E+03  0.7818608E-02  0.9481625E-01
          1   -1    0    0  502    0  0.00000000000E+00  0.00000000000E+00  0.29741556695E+04  0.29741556695E+04  0.00000000000E+00 0. -1.
         -1   -1    0    0    0  501 -0.00000000000E+00 -0.00000000000E+00 -0.30061748453E+03  0.30061748453E+03  0.00000000000E+00 0.  1.
    9000007    2    1    2  502    0 -0.74316889619E+03  0.14586895890E+03  0.64316503995E+03  0.10711414086E+04  0.40013108745E+03 0.  0.
    9000005    1    3    3    0    0 -0.40124758873E+03 -0.21487346763E+02  0.11107148180E+03  0.41689232135E+03  0.99999687468E+00 0.  0.
          4    1    3    3  502    0 -0.34192130746E+03  0.16735630566E+03  0.53209355814E+03  0.65424908724E+03  0.00000000000E+00 0.  1.
   -9000007    1    1    2    0  501  0.74316889619E+03 -0.14586895890E+03  0.20303731450E+04  0.22036317454E+04  0.40000000000E+03 0. -1.
<mgrwt>
<rscale>  2 0.85652216E+03</rscale>
<asrwt>0</asrwt>
<pdfrwt beam="1">  1        1 0.45756239E+00 0.85652216E+03</pdfrwt>
<pdfrwt beam="2">  1       -1 0.46248846E-01 0.85652216E+03</pdfrwt>
<totfact> 0.30504611E+00</totfact>
</mgrwt>
</event>
<event>
 6    1  0.8861680E-004  0.6697032E+03  0.7818608E-02  0.9770494E-01
          1   -1    0    0  502    0  0.00000000000E+00  0.00000000000E+00  0.16360103425E+04  0.16360103425E+04  0.00000000000E+00 0.  1.
         -1   -1    0    0    0  501 -0.00000000000E+00 -0.00000000000E+00 -0.30181841360E+03  0.30181841360E+03  0.00000000000E+00 0. -1.
    9000007    2    1    2  502    0 -0.40756579376E+03  0.34973006350E+03  0.37375653019E+03  0.76699266652E+03  0.40020346459E+03 0.  0.
    9000005    1    3    3    0    0 -0.48537890776E+02  0.30182298146E+03  0.19954827015E+03  0.36506650228E+03  0.99999687468E+00 0.  0.
          4    1    3    3  502    0 -0.35902790298E+03  0.47907082047E+02  0.17420826004E+03  0.40192616423E+03  0.00000000000E+00 0.  1.
   -9000007    1    1    2    0  501  0.40756579376E+03 -0.34973006350E+03  0.96043539871E+03  0.11708360896E+04  0.40000000000E+03 0.  1.
<mgrwt>
<rscale>  2 0.66970321E+03</rscale>
<asrwt>0</asrwt>
<pdfrwt beam="1">  1        1 0.25169389E+00 0.66970321E+03</pdfrwt>
<pdfrwt beam="2">  1       -1 0.46433603E-01 0.66970321E+03</pdfrwt>
<totfact> 0.25462809E+01</totfact>
</mgrwt>
</event>
<event>
 6    1  0.8861680E-004  0.4048862E+03  0.7818608E-02  0.1042101E+00
         -1   -1    0    0    0  501 -0.00000000000E+00  0.00000000000E+00  0.24133779153E+03  0.24133779153E+03  0.00000000000E+00 0.  1.
          1   -1    0    0  502    0  0.00000000000E+00 -0.00000000000E+00 -0.68500164447E+03  0.68500164447E+03  0.00000000000E+00 0. -1.
    9000007    2    1    2  502    0  0.62615274868E+02  0.27150829519E+02 -0.26371280719E+03  0.48244731053E+03  0.39818729584E+03 0.  0.
    9000005    1    3    3    0    0  0.19914305660E+03 -0.68228642744E+01 -0.27689500362E+03  0.34113978292E+03  0.99999687468E+00 0.  0.
          4    1    3    3  502    0 -0.13652778173E+03  0.33973693794E+02  0.13182196422E+02  0.14130752761E+03  0.00000000000E+00 0.  1.
   -9000007    1    1    2    0  501 -0.62615274868E+02 -0.27150829519E+02 -0.17995104575E+03  0.44389212547E+03  0.40000000000E+03 0. -1.
<mgrwt>
<rscale>  2 0.40488616E+03</rscale>
<asrwt>0</asrwt>
<pdfrwt beam="1">  1        1 0.10538487E+00 0.40488616E+03</pdfrwt>
<pdfrwt beam="2">  1       -1 0.37128891E-01 0.40488616E+03</pdfrwt>
<totfact> 0.20401413E+02</totfact>
</mgrwt>
</event>
<event>
 6    1  0.8861680E-004  0.4709760E+03  0.7818608E-02  0.1021645E+00
         -2   -1    0    0    0  501 -0.00000000000E+00  0.00000000000E+00  0.39417158998E+03  0.39417158998E+03  0.00000000000E+00 0. -1.
          2   -1    0    0  502    0  0.00000000000E+00 -0.00000000000E+00 -0.57752736811E+03  0.57752736811E+03  0.00000000000E+00 0.  1.
    9000007    2    1    2  502    0 -0.24241442128E+03  0.56109675576E+02 -0.16938660364E+03  0.50041540738E+03  0.39976331887E+03 0.  0.
    9000005    1    3    3    0    0 -0.23498842297E+03 -0.13991316080E+03 -0.80787955814E+02  0.28517178208E+03  0.99999687468E+00 0.  0.
          4    1    3    3  502    0 -0.74259983083E+01  0.19602283638E+03 -0.88598647822E+02  0.21524362529E+03  0.00000000000E+00 0.  1.
   -9000007    1    1    2    0  501  0.24241442128E+03 -0.56109675576E+02 -0.13969174495E+02  0.47128355072E+03  0.40000000000E+03 0. -1.
<mgrwt>
<rscale>  2 0.47097599E+03</rscale>
<asrwt>0</asrwt>
<pdfrwt beam="1">  1        2 0.88850364E-01 0.47097599E+03</pdfrwt>
<pdfrwt beam="2">  1       -2 0.60641783E-01 0.47097599E+03</pdfrwt>
<totfact> 0.13526472E+02</totfact>
</mgrwt>
</event>
<event>
 6    1  0.8861680E-004  0.4021744E+03  0.7818608E-02  0.1043029E+00
         -2   -1    0    0    0  501 -0.00000000000E+00  0.00000000000E+00  0.30381529204E+03  0.30381529204E+03  0.00000000000E+00 0. -1.
          2   -1    0    0  502    0  0.00000000000E+00 -0.00000000000E+00 -0.72584495019E+03  0.72584495019E+03  0.00000000000E+00 0.  1.
    9000007    2    1    2  502    0  0.19137688625E+02 -0.35701273313E+02  0.54730584464E+02  0.40600876826E+03  0.40025848022E+03 0.  0.
    9000005    1    3    3    0    0  0.14822831470E+03 -0.16059432487E+03  0.58887884814E+02  0.22634255771E+03  0.99999687468E+00 0.  0.
          4    1    3    3  502    0 -0.12909062607E+03  0.12489305156E+03 -0.41573003497E+01  0.17966621055E+03  0.00000000000E+00 0.  1.
   -9000007    1    1    2    0  501 -0.19137688625E+02  0.35701273313E+02 -0.47676024262E+03  0.62365147397E+03  0.40000000000E+03 0.  1.
<mgrwt>
<rscale>  2 0.40217437E+03</rscale>
<asrwt>0</asrwt>
<pdfrwt beam="1">  1        2 0.11166845E+00 0.40217437E+03</pdfrwt>
<pdfrwt beam="2">  1       -2 0.46740814E-01 0.40217437E+03</pdfrwt>
<totfact> 0.17559370E+02</totfact>
</mgrwt>
</event>
<event>
 6    1  0.8861680E-004  0.5958002E+03  0.7818608E-02  0.9914158E-01
         -1   -1    0    0    0  501 -0.00000000000E+00  0.00000000000E+00  0.14917764659E+03  0.14917764659E+03  0.00000000000E+00 0. -1.
          1   -1    0    0  502    0  0.00000000000E+00 -0.00000000000E+00 -0.26147690516E+04  0.26147690516E+04  0.00000000000E+00 0.  1.
    9000007    2    1    2  502    0  0.16110677498E+02  0.44126774259E+03 -0.81831528093E+03  0.10122345633E+04  0.40000267194E+03 0.  0.
    9000005    1    3    3    0    0  0.10662509648E+03  0.41427604629E+02 -0.21861824152E+02  0.11646500321E+03  0.99999687468E+00 0.  0.
          4    1    3    3  502    0 -0.90514418982E+02  0.39984013796E+03 -0.79645345678E+03  0.89576956009E+03  0.00000000000E+00 0.  1.
   -9000007    1    1    2    0  501 -0.16110677498E+02 -0.44126774259E+03 -0.16472761241E+04  0.17517121349E+04  0.40000000000E+03 0.  1.
<mgrwt>
<rscale>  2 0.59580017E+03</rscale>
<asrwt>0</asrwt>
<pdfrwt beam="1">  1        1 0.40227213E+00 0.59580017E+03</pdfrwt>
<pdfrwt beam="2">  1       -1 0.22950409E-01 0.59580017E+03</pdfrwt>
<totfact> 0.19676544E+01</totfact>
</mgrwt>
</event>
<event>
 6    1  0.8861680E-004  0.4054035E+03  0.7818608E-02  0.1041925E+00
          2   -1    0    0  502    0  0.00000000000E+00  0.00000000000E+00  0.62174769768E+03  0.62174769768E+03  0.00000000000E+00 0. -1.
         -2   -1    0    0    0  501 -0.00000000000E+00 -0.00000000000E+00 -0.27864998393E+03  0.27864998393E+03  0.00000000000E+00 0.  1.
    9000007    2    1    2  502    0 -0.16508334910E+02 -0.66193230740E+02  0.69373854605E+02  0.41092978687E+03  0.39924489867E+03 0.  0.
    9000005    1    3    3    0    0  0.24849060071E+02  0.44779055266E+02  0.21626274865E+03  0.22224584591E+03  0.99999687468E+00 0.  0.
          4    1    3    3  502    0 -0.41357394981E+02 -0.11097228601E+03 -0.14688889405E+03  0.18868394096E+03  0.00000000000E+00 0.  1.
   -9000007    1    1    2    0  501  0.16508334910E+02  0.66193230740E+02  0.27372385914E+03  0.48946789474E+03  0.40000000000E+03 0. -1.
<mgrwt>
<rscale>  2 0.40540355E+03</rscale>
<asrwt>0</asrwt>
<pdfrwt beam="1">  1        2 0.95653492E-01 0.40540355E+03</pdfrwt>
<pdfrwt beam="2">  1       -2 0.42869228E-01 0.40540355E+03</pdfrwt>
<totfact> 0.25155632E+02</totfact>
</mgrwt>
</event>
<event>
 6    1  0.8861680E-004  0.4487922E+03  0.7818608E-02  0.1028083E+00
          2   -1    0    0  502    0  0.00000000000E+00  0.00000000000E+00  0.22582218409E+04  0.22582218409E+04  0.00000000000E+00 0.  1.
         -2   -1    0    0    0  501 -0.00000000000E+00 -0.00000000000E+00 -0.11625053745E+03  0.11625053745E+03  0.00000000000E+00 0. -1.
    9000007    2    1    2  502    0  0.19574906038E+02 -0.20079941611E+03  0.16452240780E+04  0.17055468306E+04  0.40177623376E+03 0.  0.
    9000005    1    3    3    0    0  0.20402311493E+03 -0.10020330896E+03  0.10502930905E+04  0.10746081660E+04  0.99999687468E+00 0.  0.
          4    1    3    3  502    0 -0.18444820890E+03 -0.10059610715E+03  0.59493098755E+03  0.63093866460E+03  0.00000000000E+00 0.  1.
   -9000007    1    1    2    0  501 -0.19574906038E+02  0.20079941611E+03  0.49674722543E+03  0.66892554775E+03  0.40000000000E+03 0. -1.
<mgrwt>
<rscale>  2 0.44879215E+03</rscale>
<asrwt>0</asrwt>
<pdfrwt beam="1">  1        2 0.34741871E+00 0.44879215E+03</pdfrwt>
<pdfrwt beam="2">  1       -2 0.17884700E-01 0.44879215E+03</pdfrwt>
<totfact> 0.13336017E+02</totfact>
</mgrwt>
</event>
<event>
 6    1  0.8861680E-004  0.5762140E+03  0.7818608E-02  0.9956021E-01
         -1   -1    0    0    0  501 -0.00000000000E+00  0.00000000000E+00  0.17717325247E+03  0.17717325247E+03  0.00000000000E+00 0. -1.
          1   -1    0    0  502    0  0.00000000000E+00 -0.00000000000E+00 -0.18755774003E+04  0.18755774003E+04  0.00000000000E+00 0.  1.
    9000007    2    1    2  502    0  0.30901905849E+03 -0.27643713633E+03 -0.81957423466E+03  0.10019165626E+04  0.40028065576E+03 0.  0.
    9000005    1    3    3    0    0  0.17362809008E+03 -0.11550714126E+03 -0.64780448803E+02  0.21837151804E+03  0.99999687468E+00 0.  0.
          4    1    3    3  502    0  0.13539096840E+03 -0.16092999507E+03 -0.75479378586E+03  0.78354504453E+03  0.00000000000E+00 0.  1.
   -9000007    1    1    2    0  501 -0.30901905849E+03  0.27643713633E+03 -0.87882991313E+03  0.10508340902E+04  0.40000000000E+03 0.  1.
<mgrwt>
<rscale>  2 0.57621398E+03</rscale>
<asrwt>0</asrwt>
<pdfrwt beam="1">  1        1 0.28855036E+00 0.57621398E+03</pdfrwt>
<pdfrwt beam="2">  1       -1 0.27257424E-01 0.57621398E+03</pdfrwt>
<totfact> 0.46162643E+01</totfact>
</mgrwt>
</event>
<event>
 6    1  0.8861680E-004  0.4148363E+03  0.7818608E-02  0.1038760E+00
         -2   -1    0    0    0  501 -0.00000000000E+00  0.00000000000E+00  0.55380132292E+03  0.55380132292E+03  0.00000000000E+00 0. -1.
          2   -1    0    0  502    0  0.00000000000E+00 -0.00000000000E+00 -0.31091467437E+03  0.31091467437E+03  0.00000000000E+00 0.  1.
    9000007    2    1    2  502    0 -0.70410403199E+02  0.85960248558E+02  0.11115915163E+03  0.42917159926E+03  0.39935587564E+03 0.  0.
    9000005    1    3    3    0    0 -0.17242562603E+03  0.13205435709E+03  0.19296095327E+03  0.29052345726E+03  0.99999687468E+00 0.  0.
          4    1    3    3  502    0  0.10201522283E+03 -0.46094108527E+02 -0.81801801637E+02  0.13864814200E+03  0.00000000000E+00 0.  1.
   -9000007    1    1    2    0  501  0.70410403199E+02 -0.85960248558E+02  0.13172749691E+03  0.43554439803E+03  0.40000000000E+03 0. -1.
<mgrwt>
<rscale>  2 0.41483630E+03</rscale>
<asrwt>0</asrwt>
<pdfrwt beam="1">  1        2 0.47833027E-01 0.41483630E+03</pdfrwt>
<pdfrwt beam="2">  1       -2 0.85200203E-01 0.41483630E+03</pdfrwt>
<totfact> 0.12982314E+02</totfact>
</mgrwt>
</event>
<event>
 6    1  0.8861680E-004  0.5458281E+03  0.7818608E-02  0.1002464E+00
          2   -1    0    0  502    0  0.00000000000E+00  0.00000000000E+00  0.82255796743E+03  0.82255796743E+03  0.00000000000E+00 0. -1.
         -2   -1    0    0    0  501 -0.00000000000E+00 -0.00000000000E+00 -0.48188994295E+03  0.48188994295E+03  0.00000000000E+00 0.  1.
    9000007    2    1    2  502    0 -0.17036845173E+03 -0.32966429802E+03 -0.15467230347E+03  0.56751779211E+03  0.40056081207E+03 0.  0.
    9000005    1    3    3    0    0  0.22668713316E+02 -0.33799153628E+03 -0.15909219890E+03  0.37425055365E+03  0.99999687468E+00 0.  0.
          4    1    3    3  502    0 -0.19303716505E+03  0.83272382618E+01  0.44198954392E+01  0.19326723846E+03  0.00000000000E+00 0.  1.
   -9000007    1    1    2    0  501  0.17036845173E+03  0.32966429802E+03  0.49534032794E+03  0.73693011827E+03  0.40000000000E+03 0. -1.
<mgrwt>
<rscale>  2 0.54582814E+03</rscale>
<asrwt>0</asrwt>
<pdfrwt beam="1">  1        2 0.12654738E+00 0.54582814E+03</pdfrwt>
<pdfrwt beam="2">  1       -2 0.74136915E-01 0.54582814E+03</pdfrwt>
<totfact> 0.56146979E+01</totfact>
</mgrwt>
</event>
<event>
 6    1  0.8861680E-004  0.4714573E+03  0.7818608E-02  0.1021510E+00
         -2   -1    0    0    0  501 -0.00000000000E+00  0.00000000000E+00  0.43536735412E+03  0.43536735412E+03  0.00000000000E+00 0. -1.
          2   -1    0    0  502    0  0.00000000000E+00 -0.00000000000E+00 -0.53389843210E+03  0.53389843210E+03  0.00000000000E+00 0.  1.
    9000007    2    1    2  502    0  0.51352131632E+01 -0.25000730683E+03 -0.15060907258E+03  0.49466896638E+03  0.39935481677E+03 0.  0.
    9000005    1    3    3    0    0 -0.94349024521E+02 -0.12204927034E+03  0.10880843605E+03  0.18878039773E+03  0.99999687468E+00 0.  0.
          4    1    3    3  502    0  0.99484237684E+02 -0.12795803649E+03 -0.25941750863E+03  0.30588856865E+03  0.00000000000E+00 0.  1.
   -9000007    1    1    2    0  501 -0.51352131632E+01  0.25000730683E+03  0.52077994595E+02  0.47459681984E+03  0.40000000000E+03 0. -1.
<mgrwt>
<rscale>  2 0.47145732E+03</rscale>
<asrwt>0</asrwt>
<pdfrwt beam="1">  1        2 0.82138220E-01 0.47145732E+03</pdfrwt>
<pdfrwt beam="2">  1       -2 0.66979593E-01 0.47145732E+03</pdfrwt>
<totfact> 0.12004199E+02</totfact>
</mgrwt>
</event>
<event>
 6    1  0.8861680E-004  0.4075078E+03  0.7818608E-02  0.1041211E+00
          2   -1    0    0  502    0  0.00000000000E+00  0.00000000000E+00  0.42076277702E+03  0.42076277702E+03  0.00000000000E+00 0. -1.
         -2   -1    0    0    0  501 -0.00000000000E+00 -0.00000000000E+00 -0.40198543417E+03  0.40198543417E+03  0.00000000000E+00 0.  1.
    9000007    2    1    2  502    0  0.52494908473E+02 -0.65802410518E+02 -0.46118601113E+02  0.40886760499E+03  0.39744197111E+03 0.  0.
    9000005    1    3    3    0    0  0.10381891930E+03  0.29297233568E+02  0.15010826835E+03  0.18485180043E+03  0.99999687468E+00 0.  0.
          4    1    3    3  502    0 -0.51324010829E+02 -0.95099644087E+02 -0.19622686947E+03  0.22401580456E+03  0.00000000000E+00 0.  1.
   -9000007    1    1    2    0  501 -0.52494908473E+02  0.65802410518E+02  0.64895943953E+02  0.41388060620E+03  0.40000000000E+03 0.  1.
<mgrwt>
<rscale>  2 0.40750779E+03</rscale>
<asrwt>0</asrwt>
<pdfrwt beam="1">  1        2 0.64732735E-01 0.40750779E+03</pdfrwt>
<pdfrwt beam="2">  1       -2 0.61843913E-01 0.40750779E+03</pdfrwt>
<totfact> 0.18719393E+02</totfact>
</mgrwt>
</event>
<event>
 6    1  0.8861680E-004  0.4430196E+03  0.7818608E-02  0.1029824E+00
         -2   -1    0    0    0  501 -0.00000000000E+00  0.00000000000E+00  0.12203923910E+03  0.12203923910E+03  0.00000000000E+00 0. -1.
          2   -1    0    0  502    0  0.00000000000E+00 -0.00000000000E+00 -0.16289573061E+04  0.16289573061E+04  0.00000000000E+00 0.  1.
    9000007    2    1    2  502    0  0.97643648017E+01 -0.19028828482E+03 -0.85215954304E+03  0.96041846629E+03  0.39990345015E+03 0.  0.
    9000005    1    3    3    0    0 -0.85233126549E+02 -0.29174630633E+03 -0.57855388818E+03  0.65353362166E+03  0.99999687468E+00 0.  0.
          4    1    3    3  502    0  0.94997491351E+02  0.10145802151E+03 -0.27360565485E+03  0.30688484462E+03  0.00000000000E+00 0.  1.
   -9000007    1    1    2    0  501 -0.97643648017E+01  0.19028828482E+03 -0.65475852399E+03  0.79057807894E+03  0.40000000000E+03 0. -1.
<mgrwt>
<rscale>  2 0.44301959E+03</rscale>
<asrwt>0</asrwt>
<pdfrwt beam="1">  1        2 0.25060880E+00 0.44301959E+03</pdfrwt>
<pdfrwt beam="2">  1       -2 0.18775269E-01 0.44301959E+03</pdfrwt>
<totfact> 0.26764676E+02</totfact>
</mgrwt>
</event>
<event>
 6    1  0.8861680E-004  0.4298266E+03  0.7818608E-02  0.1033915E+00
          2   -1    0    0  502    0  0.00000000000E+00  0.00000000000E+00  0.10891373873E+04  0.10891373873E+04  0.00000000000E+00 0. -1.
         -2   -1    0    0    0  501 -0.00000000000E+00 -0.00000000000E+00 -0.21451928074E+03  0.21451928074E+03  0.00000000000E+00 0.  1.
    9000007    2    1    2  502    0 -0.74395811512E+02 -0.13902835360E+03  0.13903033466E+03  0.45162791850E+03  0.39971830448E+03 0.  0.
    9000005    1    3    3    0    0  0.15561740738E+03 -0.92051995531E+02  0.11804519575E+03  0.21593058050E+03  0.99999687468E+00 0.  0.
          4    1    3    3  502    0 -0.23001321889E+03 -0.46976358069E+02  0.20985138915E+02  0.23569733800E+03  0.00000000000E+00 0.  1.
   -9000007    1    1    2    0  501  0.74395811512E+02  0.13902835360E+03  0.73558777186E+03  0.85202874951E+03  0.40000000000E+03 0. -1.
<mgrwt>
<rscale>  2 0.42982665E+03</rscale>
<asrwt>0</asrwt>
<pdfrwt beam="1">  1        2 0.16755959E+00 0.42982665E+03</pdfrwt>
<pdfrwt beam="2">  1       -2 0.33002967E-01 0.42982665E+03</pdfrwt>
<totfact> 0.19665822E+02</totfact>
</mgrwt>
</event>
<event>
 6    1  0.8861680E-004  0.4177413E+03  0.7818608E-02  0.1037804E+00
          1   -1    0    0  502    0  0.00000000000E+00  0.00000000000E+00  0.17580598509E+04  0.17580598509E+04  0.00000000000E+00 0. -1.
         -1   -1    0    0    0  501 -0.00000000000E+00 -0.00000000000E+00 -0.13321120547E+03  0.13321120547E+03  0.00000000000E+00 0.  1.
    9000007    2    1    2  502    0 -0.66389023624E+02 -0.65240312492E+02  0.12998696874E+04  0.13675582305E+04  0.41459680254E+03 0.  0.
    9000005    1    3    3    0    0  0.10010147344E+03 -0.15487012546E+03  0.96970163152E+03  0.98708019680E+03  0.99999687468E+00 0.  0.
          4    1    3    3  502    0 -0.16649049706E+03  0.89629812968E+02  0.33016805589E+03  0.38047803368E+03  0.00000000000E+00 0.  1.
   -9000007    1    1    2    0  501  0.66389023624E+02  0.65240312492E+02  0.32497895801E+03  0.52371282587E+03  0.40000000000E+03 0.  1.
<mgrwt>
<rscale>  2 0.41774132E+03</rscale>
<asrwt>0</asrwt>
<pdfrwt beam="1">  1        1 0.27047073E+00 0.41774132E+03</pdfrwt>
<pdfrwt beam="2">  1       -1 0.20494033E-01 0.41774132E+03</pdfrwt>
<totfact> 0.91587020E+01</totfact>
</mgrwt>
</event>
